FOO
138240
    1MOL0     O    1   6.331   5.342   6.338  0.1403 -0.3403  0.2973
    1MOL0     C    2   6.257   5.253   6.377 -0.1039  0.5769 -0.3341
    1MOL0     O    3   6.300   5.131   6.427  0.7023  0.5128  0.0919
    1MOL0     C    4   6.429   5.092   6.414  0.2831 -0.4806  0.2850
    1MOL0     C    5   6.462   4.989   6.334 -0.2429  0.4844  0.9573
    1MOL0     C    6   6.593   4.950   6.338 -0.1005 -0.0493  0.4313
    1MOL0     C    7   6.696   5.011   6.416 -0.8579 -0.5110 -0.1150
    1MOL0     O    8   6.830   4.955   6.413  0.6850  0.4137 -0.1461
    1MOL0     C    9   6.933   5.019   6.480 -0.4813 -0.5915 -0.4677
    1MOL0     C   10   7.031   4.911   6.529  0.7748  0.0163 -0.8790
    1MOL0     C   11   7.175   4.971   6.557  0.0342  0.1085 -0.4722
    1MOL0     C   12   7.264   4.964   6.428  0.1314  0.4840 -0.2565
    1MOL0     C   13   7.406   5.015   6.444 -1.4871  1.1276  0.7014
    1MOL0     C   14   7.501   4.978   6.331 -0.2853  0.0859  0.8628
    1MOL0     C   15   7.645   5.008   6.356  0.1567 -0.0034 -0.6856
    1MOL0     C   16   7.746   4.958   6.257 -0.3051 -0.1585  0.4372
    1MOL0     N   17   7.723   5.011   6.120  0.6494 -0.3954 -0.5416
    1MOL0     C   18   7.741   5.146   6.080  0.2222  0.5519 -0.2787
    1MOL0     C   19   7.703   5.166   5.952  0.0729  0.2866 -0.2103
    1MOL0     C   20   7.689   5.296   5.874  0.6592  0.0035  0.0417
    1MOL0     C   21   7.802   5.314   5.762  0.9742  0.6605 -0.5373
    1MOL0     C   22   7.937   5.337   5.833 -0.2724 -0.5418 -0.4506
    1MOL0     C   23   8.049   5.381   5.733  0.0884  0.0715 -0.0079
    1MOL0     O   24   8.057   5.526   5.720 -0.2410  0.4968 -0.7161
    1MOL0     C   25   8.188   5.573   5.695  0.1960 -0.6964  0.3048
    1MOL0     C   26   8.204   5.711   5.697  0.4784  0.3049 -0.1796
    1MOL0     C   27   8.324   5.774   5.674 -0.0713 -0.0721 -0.4524
    1MOL0     C   28   8.442   5.700   5.639  0.5740 -0.2076 -0.1751
    1MOL0     C   29   8.576   5.769   5.611 -0.7913 -0.6082 -1.0304
    1MOL0     O   30   8.680   5.677   5.590 -0.5079 -0.5696 -0.4353
    1MOL0     C   31   8.813   5.711   5.574 -0.3922  0.4890  0.1318
    1MOL0     C   32   8.894   5.597   5.542  0.4887 -0.4036  0.0960
    1MOL0     C   33   9.033   5.598   5.554 -0.7550  0.8131  0.0889
    1MOL0     C   34   9.087   5.728   5.565  0.0245  0.4517  1.2924
    1MOL0     O   35   9.217   5.760   5.560 -0.2740  0.0641 -0.0570
    1MOL0     C   36   9.316   5.657   5.582 -0.2049  0.2614 -0.3331
    1MOL0     C   37   9.352   5.600   5.446 -0.3583  0.1376 -0.5565
    1MOL0     C   38   9.462   5.677   5.371 -0.1491 -0.5343 -0.3665
    1MOL0     C   39   9.467   5.646   5.219 -0.1265 -0.5027 -0.4675
    1MOL0     C   40   9.585   5.704   5.148  0.4018  0.3479 -0.3655
    1MOL0     C   41   9.726   5.630   5.173 -0.9376  0.2196  0.4771
    1MOL0     C   42   9.717   5.482   5.150  0.1014 -0.1936 -0.2556
    1MOL0     C   43   9.861   5.434   5.109  1.3026 -0.0508 -0.4021
    1MOL0    Cl   44   9.984   5.457   5.244 -0.0445 -0.1107  0.4965
    1MOL0     C   45   9.002   5.846   5.557 -0.3387 -0.0230 -0.2292
    1MOL0     C   46   8.866   5.838   5.568 -0.1700 -0.6263  0.3235
    1MOL0     O   47   8.586   5.889   5.611 -0.0151 -0.4320  0.0873
    1MOL0     C   48   8.422   5.562   5.627 -0.6606 -0.3419 -0.4790
    1MOL0     C   49   8.297   5.500   5.647 -0.6341 -0.3285 -0.7239
    1MOL0     N   50   7.675   5.040   5.911 -0.3497 -0.9471  0.0916
    1MOL0     N   51   7.697   4.947   6.002  0.0963  0.7345  0.2835
    1MOL0     C   52   6.653   5.128   6.481  0.0343  0.3611  1.7487
    1MOL0     C   53   6.521   5.164   6.484  0.1140 -0.8697  0.1469
    1MOL0     C   54   6.111   5.268   6.369  0.1486 -0.2438 -0.4523
    1MOL0     C   55   6.025   5.155   6.356 -0.9550  0.1631  0.3428
    1MOL0     C   56   5.889   5.157   6.352  0.0198  0.0196  0.4111
    1MOL0     C   57   5.822   5.276   6.352 -0.4369  0.2043  0.2221
    1MOL0     O   58   5.688   5.267   6.355  0.4891  0.2000 -0.3620
    1MOL0     C   59   5.617   5.386   6.384  0.0885 -0.4391 -0.3810
    1MOL0     C   60   5.465   5.347   6.365  0.1336 -0.1246  0.3287
    1MOL0     C   61   5.435   5.300   6.223 -0.1169 -0.2742  0.4603
    1MOL0     C   62   5.282   5.281   6.218  0.1726 -0.5018  0.5009
    1MOL0     C   63   5.232   5.290   6.083 -0.3720  0.4486  0.7298
    1MOL0     C   64   5.202   5.280   5.970  0.6695  0.4523  0.3891
    1MOL0     C   65   5.904   5.391   6.361 -0.0462 -0.2681  0.2159
    1MOL0     C   66   6.043   5.396   6.368 -0.0623  0.5919  0.1455
    1MOL0     C   67   6.117   5.529   6.394  0.2280  0.0705 -0.2849
    1MOL0     H   68   6.387   4.942   6.271  1.6512 -0.7375 -0.5407
    1MOL0     H   69   6.630   4.866   6.280  1.6271 -0.1298  1.5560
    1MOL0     H   70   6.993   5.084   6.415 -0.2579  0.9853  1.2243
    1MOL0     H   71   6.907   5.080   6.567  1.3203  0.2728 -0.4749
    1MOL0     H   72   7.046   4.840   6.447  3.1230 -0.1152 -0.4196
    1MOL0     H   73   7.003   4.869   6.626 -1.3069  1.9133 -0.5890
    1MOL0     H   74   7.221   4.906   6.632 -1.5979 -1.6382 -0.9079
    1MOL0     H   75   7.168   5.074   6.592 -1.0164 -0.0367 -0.2354
    1MOL0     H   76   7.260   4.857   6.406 -3.8646  0.4683 -0.1990
    1MOL0     H   77   7.215   5.010   6.341 -1.4569 -2.8163 -1.2808
    1MOL0     H   78   7.405   5.123   6.457 -0.4371  1.5306 -1.8186
    1MOL0     H   79   7.444   4.979   6.540  0.1141 -0.9851 -0.6126
    1MOL0     H   80   7.484   4.872   6.310 -1.0039  0.0697  1.5057
    1MOL0     H   81   7.474   5.037   6.243  1.7380  0.7861  0.6460
    1MOL0     H   82   7.664   4.963   6.454 -0.7879  3.1864  1.0942
    1MOL0     H   83   7.657   5.115   6.373 -1.3924  0.0849  0.0613
    1MOL0     H   84   7.847   4.988   6.289 -0.0101 -0.6587 -0.0112
    1MOL0     H   85   7.745   4.849   6.251 -2.2205 -0.0977 -0.8905
    1MOL0     H   86   7.769   5.225   6.150  0.7550 -0.6058  0.8580
    1MOL0     H   87   7.590   5.300   5.828  0.9936 -0.7383 -0.7791
    1MOL0     H   88   7.700   5.373   5.950 -0.5597 -0.2705  0.5206
    1MOL0     H   89   7.800   5.226   5.698  0.1962  3.0464 -4.0535
    1MOL0     H   90   7.775   5.395   5.694 -1.0867 -0.5304 -1.2161
    1MOL0     H   91   7.984   5.254   5.887  2.6033  1.6514  0.7173
    1MOL0     H   92   7.948   5.420   5.903  2.5700 -0.1872 -1.1891
    1MOL0     H   93   8.015   5.340   5.637 -0.1818 -2.7661  1.2158
    1MOL0     H   94   8.143   5.327   5.743  0.3783 -0.6820 -4.5118
    1MOL0     H   95   8.118   5.772   5.724  0.7940 -0.4870  3.0994
    1MOL0     H   96   8.334   5.882   5.676  1.0725 -0.1751  0.1661
    1MOL0     H   97   8.840   5.504   5.529 -1.0668  0.2486  1.5029
    1MOL0     H   98   9.099   5.515   5.529 -2.3194 -0.3296 -0.3494
    1MOL0     H   99   9.406   5.699   5.629 -0.7802  0.2439  0.8253
    1MOL0     H  100   9.287   5.568   5.640  2.2039 -0.4856 -0.1424
    1MOL0     H  101   9.402   5.503   5.455  3.6088  2.1680  2.9231
    1MOL0     H  102   9.261   5.593   5.386 -0.0261  2.0055 -1.3696
    1MOL0     H  103   9.444   5.783   5.390 -0.0842 -1.0238  3.0086
    1MOL0     H  104   9.558   5.649   5.417 -0.5815 -1.8709 -0.2441
    1MOL0     H  105   9.377   5.699   5.186  0.4723  0.7957 -0.0484
    1MOL0     H  106   9.450   5.538   5.204 -0.8737 -0.3740 -0.5937
    1MOL0     H  107   9.599   5.811   5.162 -2.0883  1.0008 -2.1596
    1MOL0     H  108   9.557   5.679   5.045  0.2323 -2.7391  0.3426
    1MOL0     H  109   9.802   5.670   5.105 -1.7681  0.1861 -0.5070
    1MOL0     H  110   9.765   5.654   5.272 -0.4232 -1.5308  0.7326
    1MOL0     H  111   9.637   5.463   5.078 -0.6642 -0.4163  0.6388
    1MOL0     H  112   9.686   5.432   5.242  3.3070  1.4388  1.9051
    1MOL0     H  113   9.864   5.329   5.081 -0.7746  0.1149 -1.3911
    1MOL0     H  114   9.892   5.483   5.015 -0.2134  1.5503 -0.1105
    1MOL0     H  115   9.056   5.940   5.562 -2.0936  0.9637  2.9472
    1MOL0     H  116   8.804   5.926   5.554 -1.2561 -1.2068  1.3387
    1MOL0     H  117   8.505   5.499   5.595  0.1776  0.8998 -0.8017
    1MOL0     H  118   8.284   5.396   5.622 -2.0095 -1.0310  2.4033
    1MOL0     H  119   6.721   5.202   6.521 -2.5136  2.7327  1.9882
    1MOL0     H  120   6.500   5.251   6.546  1.3349 -0.8143  0.4937
    1MOL0     H  121   6.074   5.058   6.356 -2.9384 -0.8973 -1.2346
    1MOL0     H  122   5.829   5.068   6.336 -0.2972  0.5388 -1.5360
    1MOL0     H  123   5.648   5.460   6.311  1.0398 -2.1278 -1.7685
    1MOL0     H  124   5.614   5.425   6.486 -1.2625 -2.3843  0.4016
    1MOL0     H  125   5.419   5.445   6.378  0.7486  0.1348  0.5669
    1MOL0     H  126   5.438   5.271   6.439  1.6904  2.0692  3.3678
    1MOL0     H  127   5.486   5.210   6.188 -0.8691 -1.0961  1.4208
    1MOL0     H  128   5.469   5.377   6.154 -1.3841 -1.5971 -1.7987
    1MOL0     H  129   5.253   5.181   6.252 -3.6169  0.1940 -0.2148
    1MOL0     H  130   5.236   5.362   6.275 -1.0918  0.0025 -1.1545
    1MOL0     H  131   5.167   5.264   5.870 -0.1566 -1.0356  0.9021
    1MOL0     H  132   5.856   5.486   6.383 -1.8921 -0.8352 -1.1296
    1MOL0     H  133   6.173   5.553   6.303  0.0920  0.5111 -0.2565
    1MOL0     H  134   6.043   5.608   6.408 -3.2611 -3.0281  0.1564
    1MOL0     H  135   6.192   5.524   6.473  2.2351 -3.8470 -2.1866
    2MOL0     O  136   4.396   9.040   1.048  0.4923 -0.2937 -0.1558
    2MOL0     C  137   4.373   9.029   1.165  0.2093 -1.3756 -0.0456
    2MOL0     O  138   4.466   8.999   1.266  0.4714 -0.6187 -0.3034
    2MOL0     C  139   4.596   8.972   1.237 -0.1566  0.5028  0.4830
    2MOL0     C  140   4.637   8.848   1.285  0.2108 -0.5202  1.1661
    2MOL0     C  141   4.762   8.803   1.261 -0.6446 -0.4402  0.2980
    2MOL0     C  142   4.837   8.876   1.178 -0.0411  0.2914  0.0091
    2MOL0     O  143   4.963   8.831   1.149 -0.0789 -0.3082 -1.0211
    2MOL0     C  144   5.059   8.896   1.227  0.3820 -0.2715  0.1817
    2MOL0     C  145   5.201   8.870   1.166 -0.3976 -0.0644  0.1825
    2MOL0     C  146   5.212   8.916   1.024  0.1997 -0.4725 -0.1215
    2MOL0     C  147   5.339   8.881   0.943  0.5689 -0.0176  0.0804
    2MOL0     C  148   5.470   8.908   1.022  0.8529  0.5770 -0.5139
    2MOL0     C  149   5.601   8.905   0.947  0.5234  0.4713  0.2238
    2MOL0     C  150   5.716   8.922   1.049 -0.1441  0.2632  0.7876
    2MOL0     C  151   5.841   8.900   0.970 -0.4379  0.0838 -0.0252
    2MOL0     N  152   5.966   8.900   1.065  0.2148 -0.6188 -0.0972
    2MOL0     C  153   6.073   8.975   1.032  0.3278  0.0953 -0.5414
    2MOL0     C  154   6.151   8.966   1.138  0.1796 -0.0285 -0.9079
    2MOL0     C  155   6.282   9.050   1.137  0.0127 -0.7513 -0.0136
    2MOL0     C  156   6.382   8.993   1.242  0.3126  0.6366  1.0233
    2MOL0     C  157   6.491   9.097   1.279 -0.9537  0.5413  0.0186
    2MOL0     C  158   6.596   9.025   1.367  0.3236  0.1403  0.2291
    2MOL0     O  159   6.710   9.121   1.389 -0.3517 -0.1130  0.2583
    2MOL0     C  160   6.821   9.079   1.455 -0.7721  0.4187  0.2566
    2MOL0     C  161   6.829   8.963   1.529 -0.0935 -0.6640 -0.0809
    2MOL0     C  162   6.950   8.930   1.591  1.2166  0.3206  0.8407
    2MOL0     C  163   7.069   9.000   1.573  1.2801  0.3885  0.1489
    2MOL0     C  164   7.207   8.940   1.610  0.0324 -0.5716 -0.7012
    2MOL0     O  165   7.215   8.857   1.716  0.2513 -0.3366  0.3196
    2MOL0     C  166   7.334   8.796   1.750  0.4615 -0.7459  0.7219
    2MOL0     C  167   7.323   8.667   1.811 -0.0054  0.8928 -0.3248
    2MOL0     C  168   7.433   8.594   1.850  0.1607  0.1254  0.7119
    2MOL0     C  169   7.561   8.648   1.834 -0.8715  0.9779 -0.7924
    2MOL0     O  170   7.671   8.569   1.870  0.0423 -0.7096 -0.2012
    2MOL0     C  171   7.773   8.636   1.941 -0.8729 -0.2457 -0.0804
    2MOL0     C  172   7.899   8.554   1.942 -0.0401  0.8390  0.2073
    2MOL0     C  173   8.015   8.645   1.978  0.0162 -0.5404 -0.7552
    2MOL0     C  174   8.130   8.552   2.003  0.3526 -0.4860  0.9027
    2MOL0     C  175   8.264   8.606   2.052  0.9713 -1.1178 -0.0264
    2MOL0     C  176   8.342   8.676   1.937  0.4287  0.9646 -0.4101
    2MOL0     C  177   8.460   8.739   2.005  0.7818 -0.7401 -0.1137
    2MOL0     C  178   8.557   8.787   1.906  0.1127 -0.7283 -0.0075
    2MOL0    Cl  179   8.715   8.829   1.984 -0.1173 -0.0179 -0.2818
    2MOL0     C  180   7.579   8.777   1.781  0.8435  0.0657  0.5456
    2MOL0     C  181   7.465   8.849   1.732 -0.2585 -0.1302 -1.0267
    2MOL0     O  182   7.295   8.959   1.526 -0.1213 -0.4885  0.2018
    2MOL0     C  183   7.056   9.125   1.500 -0.3262 -0.0100 -0.8237
    2MOL0     C  184   6.932   9.163   1.441 -1.2628  0.3424  0.5586
    2MOL0     N  185   6.102   8.879   1.232 -0.3203 -0.6681 -0.3136
    2MOL0     N  186   5.975   8.848   1.192 -0.3241 -0.1214  0.6144
    2MOL0     C  187   4.797   9.000   1.116  0.5503  0.4615 -0.3751
    2MOL0     C  188   4.677   9.052   1.151  0.8480  0.4279 -0.2043
    2MOL0     C  189   4.228   9.052   1.201  0.4432 -0.2122 -0.0927
    2MOL0     C  190   4.158   9.157   1.135 -0.4192  0.8791  0.9004
    2MOL0     C  191   4.020   9.182   1.145  0.0693  0.1103 -0.4535
    2MOL0     C  192   3.947   9.117   1.245 -0.5892  0.2962  0.6839
    2MOL0     O  193   3.818   9.132   1.278  0.8074 -0.1125 -0.4294
    2MOL0     C  194   3.745   9.235   1.205 -0.8544  0.0938  0.6898
    2MOL0     C  195   3.596   9.248   1.245 -0.3642  0.3764  0.3536
    2MOL0     C  196   3.552   9.309   1.383  0.2993 -0.3326  0.2845
    2MOL0     C  197   3.666   9.324   1.482 -0.4218  0.9578  0.2529
    2MOL0     C  198   3.624   9.353   1.616 -0.1336 -0.6765 -0.0222
    2MOL0     C  199   3.569   9.371   1.729  0.4586 -0.0737  0.3999
    2MOL0     C  200   4.023   9.029   1.318 -0.3494 -0.3790  0.1328
    2MOL0     C  201   4.155   8.996   1.306 -0.4049  0.2028  0.3278
    2MOL0     C  202   4.203   8.903   1.401 -0.0385  0.4985 -0.6392
    2MOL0     H  203   4.567   8.790   1.344  1.1868 -0.7524  2.1158
    2MOL0     H  204   4.794   8.710   1.307  2.2048  0.1013 -0.4054
    2MOL0     H  205   5.032   9.001   1.225  0.4736 -0.2392  0.4862
    2MOL0     H  206   5.070   8.869   1.333  0.2661  1.4018  0.6365
    2MOL0     H  207   5.214   8.761   1.164  3.2884  0.2481 -1.0402
    2MOL0     H  208   5.274   8.915   1.233 -1.4595  1.4826  0.3420
    2MOL0     H  209   5.207   9.025   1.015 -2.7304 -0.4733  0.5032
    2MOL0     H  210   5.131   8.872   0.965  0.1105 -0.7610  0.2172
    2MOL0     H  211   5.315   8.779   0.914 -1.9773  0.0632  1.6620
    2MOL0     H  212   5.349   8.949   0.858  0.2250 -0.6495 -0.4678
    2MOL0     H  213   5.467   9.001   1.078  1.7989 -0.2715  1.0124
    2MOL0     H  214   5.474   8.828   1.096  0.7521 -0.1552 -1.2735
    2MOL0     H  215   5.611   8.811   0.892 -0.1092  1.0953 -1.0142
    2MOL0     H  216   5.598   8.994   0.884  0.3741 -0.4351 -1.1104
    2MOL0     H  217   5.711   8.850   1.131  1.1454 -0.3520  0.3559
    2MOL0     H  218   5.707   9.025   1.086 -0.0056  0.7879 -0.5825
    2MOL0     H  219   5.835   8.797   0.935 -0.6634 -0.9312  2.7716
    2MOL0     H  220   5.851   8.966   0.883  0.7444 -2.5613 -2.0365
    2MOL0     H  221   6.084   9.043   0.948 -1.4314  0.7167 -0.3007
    2MOL0     H  222   6.327   9.051   1.037  1.6100 -2.1215  0.6500
    2MOL0     H  223   6.263   9.156   1.160  3.2711 -0.1409  0.3532
    2MOL0     H  224   6.323   8.960   1.328 -2.5110  0.4647 -0.8379
    2MOL0     H  225   6.423   8.903   1.196  1.1318  0.5591  1.8619
    2MOL0     H  226   6.452   9.173   1.347 -2.6758 -1.5338  1.4848
    2MOL0     H  227   6.547   9.139   1.195  1.5327 -1.1240  0.7361
    2MOL0     H  228   6.643   8.936   1.324  2.2886  1.0330  0.4381
    2MOL0     H  229   6.551   8.997   1.463  0.3718  0.6048  0.3911
    2MOL0     H  230   6.756   8.883   1.531  1.0851 -1.8500 -1.6687
    2MOL0     H  231   6.965   8.838   1.646  1.9427 -1.0030 -1.4429
    2MOL0     H  232   7.225   8.621   1.816  0.2495  0.3176 -0.5482
    2MOL0     H  233   7.415   8.491   1.878 -1.6818  0.5663  1.3083
    2MOL0     H  234   7.801   8.730   1.893  1.1273 -1.7931 -2.1926
    2MOL0     H  235   7.753   8.655   2.046  2.7754  0.3079  0.6254
    2MOL0     H  236   7.881   8.478   2.018  0.5986 -1.8913 -2.2203
    2MOL0     H  237   7.933   8.502   1.852  2.6782  0.2590  1.4721
    2MOL0     H  238   8.037   8.716   1.898 -1.6043  0.7140 -0.1342
    2MOL0     H  239   7.997   8.696   2.073 -0.7100  0.4253 -1.3994
    2MOL0     H  240   8.143   8.503   1.907 -1.6841  0.2888  0.1567
    2MOL0     H  241   8.100   8.487   2.086  0.4881  1.0891  2.2497
    2MOL0     H  242   8.320   8.519   2.087  2.5806  0.3630  1.2101
    2MOL0     H  243   8.244   8.680   2.130  0.6010  2.3337 -3.1070
    2MOL0     H  244   8.357   8.602   1.857 -0.1934 -2.2692  2.2232
    2MOL0     H  245   8.277   8.755   1.897 -1.3842 -1.0686 -1.7699
    2MOL0     H  246   8.518   8.670   2.068  1.7759  0.1509 -0.0154
    2MOL0     H  247   8.425   8.824   2.065  2.0018 -0.1217 -0.2333
    2MOL0     H  248   8.572   8.709   1.830 -1.1219 -0.4208 -0.5819
    2MOL0     H  249   8.521   8.879   1.860  1.0348 -0.9475 -1.2322
    2MOL0     H  250   7.677   8.818   1.761  1.2010 -0.4419  1.1987
    2MOL0     H  251   7.483   8.942   1.678  2.9713  0.5380  0.8703
    2MOL0     H  252   7.146   9.179   1.473 -0.0727 -0.0295 -0.0298
    2MOL0     H  253   6.945   9.242   1.368 -1.9836  1.0282  1.1655
    2MOL0     H  254   4.866   9.043   1.045  0.9202  0.5777  0.0497
    2MOL0     H  255   4.649   9.150   1.112  2.0275  0.6027 -0.6579
    2MOL0     H  256   4.214   9.207   1.056 -0.0379 -0.2698  0.4308
    2MOL0     H  257   3.978   9.268   1.095  0.9256 -0.6009 -2.4716
    2MOL0     H  258   3.768   9.216   1.099 -0.6922 -0.7478  0.8689
    2MOL0     H  259   3.790   9.334   1.217  1.1412 -0.7095  0.2939
    2MOL0     H  260   3.539   9.155   1.235 -2.3412  1.5148  0.4012
    2MOL0     H  261   3.545   9.303   1.166 -0.7194 -0.7733 -0.2483
    2MOL0     H  262   3.476   9.245   1.429  1.6245 -1.7860  0.5640
    2MOL0     H  263   3.510   9.405   1.354  1.0949 -0.5499 -1.7449
    2MOL0     H  264   3.712   9.225   1.488 -1.9566  0.3165  2.2221
    2MOL0     H  265   3.731   9.405   1.447 -0.5453  1.4564  1.1463
    2MOL0     H  266   3.524   9.375   1.826 -3.4645 -0.2399 -1.2054
    2MOL0     H  267   3.975   8.980   1.401  1.4045 -2.1443  0.1874
    2MOL0     H  268   4.122   8.829   1.404 -0.8936  1.3437 -1.6742
    2MOL0     H  269   4.291   8.848   1.368 -2.1534 -2.7802 -1.2999
    2MOL0     H  270   4.221   8.961   1.492 -0.6167  0.7322 -0.6701
    3MOL0     O  271   1.948   3.848   0.664  0.6397 -0.1752 -0.4281
    3MOL0     C  272   1.968   3.830   0.788  0.2373 -0.1610  0.4664
    3MOL0     O  273   1.883   3.856   0.891 -0.2910 -0.1945  0.9523
    3MOL0     C  274   1.759   3.911   0.890  0.6326  0.3463  0.6075
    3MOL0     C  275   1.691   3.949   0.778  0.6706  0.0925 -0.1182
    3MOL0     C  276   1.560   4.001   0.794  0.1691 -0.3293  0.1702
    3MOL0     C  277   1.508   4.050   0.922 -0.8774 -0.4672  0.5227
    3MOL0     O  278   1.389   4.109   0.943 -0.0374 -0.6747  0.9026
    3MOL0     C  279   1.278   4.041   0.871  0.0565 -1.4405  0.5181
    3MOL0     C  280   1.154   4.133   0.860 -1.0125 -0.0921  0.8523
    3MOL0     C  281   1.191   4.269   0.791 -0.7058 -0.3035 -0.4895
    3MOL0     C  282   1.064   4.332   0.738 -0.4977 -0.2305  0.5541
    3MOL0     C  283   0.966   4.372   0.841  0.3191  0.2203 -0.4772
    3MOL0     C  284   1.006   4.462   0.962  0.4867 -0.0174 -0.7999
    3MOL0     C  285   1.079   4.595   0.922 -0.4667  0.0175  0.4187
    3MOL0     C  286   0.997   4.695   0.847  0.3453  0.9853 -0.7136
    3MOL0     N  287   0.872   4.726   0.916  0.7208  0.4707 -1.0057
    3MOL0     C  288   0.868   4.827   1.016 -0.3206  0.7821  0.7410
    3MOL0     C  289   0.736   4.843   1.042 -0.5211 -0.5254  0.2528
    3MOL0     C  290   0.666   4.944   1.118  1.2532 -1.0636 -0.6202
    3MOL0     C  291   0.731   5.075   1.078 -0.1426 -0.2892 -0.0232
    3MOL0     C  292   0.653   5.199   1.083  0.4176  0.2272  0.3735
    3MOL0     C  293   0.579   5.238   1.218 -0.8751 -0.2052  0.3248
    3MOL0     O  294   0.600   5.373   1.237  0.2643 -0.0568 -0.4997
    3MOL0     C  295   0.533   5.461   1.158 -0.6268 -1.1692 -0.4410
    3MOL0     C  296   0.395   5.459   1.144  0.3399 -0.3681  0.0573
    3MOL0     C  297   0.325   5.550   1.069 -0.1724 -1.1041 -0.5510
    3MOL0     C  298   0.392   5.660   1.019 -1.3033 -0.7229 -0.3192
    3MOL0     C  299   0.313   5.783   0.979 -0.3378 -0.2747 -0.2809
    3MOL0     O  300   0.181   5.767   0.955  0.6388 -0.9056  0.1941
    3MOL0     C  301   0.121   5.884   0.909 -0.0070  0.6669 -0.1510
    3MOL0     C  302   0.134   5.918   0.774  0.9152  0.1545 -0.1354
    3MOL0     C  303   0.065   6.019   0.703  0.0351 -0.1235  0.6396
    3MOL0     C  304  -0.032   6.089   0.778  0.9588 -0.0833  0.5222
    3MOL0     O  305  -0.105   6.188   0.720  0.0316  0.3582 -0.1905
    3MOL0     C  306  -0.057   6.254   0.596 -0.3530  0.3272 -0.7230
    3MOL0     C  307  -0.167   6.344   0.549 -1.4471  0.2700 -0.6018
    3MOL0     C  308  -0.212   6.445   0.653 -0.6120 -0.4143  0.2491
    3MOL0     C  309  -0.296   6.557   0.592  0.5891 -0.1279  0.2609
    3MOL0     C  310  -0.375   6.640   0.702  0.1908  1.0772  1.3504
    3MOL0     C  311  -0.519   6.582   0.713 -0.5031 -0.7866 -0.9661
    3MOL0     C  312  -0.608   6.681   0.783 -0.2133  0.6777 -1.1250
    3MOL0     C  313  -0.757   6.664   0.750 -0.3419  0.6549  0.3049
    3MOL0    Cl  314  -0.846   6.761   0.886 -0.2911 -0.1974 -0.0481
    3MOL0     C  315  -0.058   6.044   0.912 -1.0040 -0.9256 -0.0816
    3MOL0     C  316   0.016   5.942   0.964 -1.0339 -0.3577 -0.8935
    3MOL0     O  317   0.375   5.888   0.973  0.2427 -0.0069  0.1387
    3MOL0     C  318   0.532   5.663   1.029 -0.4659 -0.1045 -0.2268
    3MOL0     C  319   0.602   5.569   1.108 -0.0292  0.0033 -0.0029
    3MOL0     N  320   0.670   4.749   0.958 -0.0215 -0.0755 -0.5266
    3MOL0     N  321   0.745   4.683   0.882 -0.6277  0.1787  0.2536
    3MOL0     C  322   1.587   4.020   1.028 -0.6311  0.7529 -0.7440
    3MOL0     C  323   1.703   3.942   1.011  0.7589  0.0559 -0.9437
    3MOL0     C  324   2.109   3.783   0.820  0.9703 -0.4059 -0.7937
    3MOL0     C  325   2.189   3.714   0.725 -0.7181 -0.3264  0.4016
    3MOL0     C  326   2.319   3.672   0.745 -0.6232 -0.3347 -0.2961
    3MOL0     C  327   2.374   3.703   0.871 -0.5499  1.4052  0.2698
    3MOL0     O  328   2.501   3.658   0.916  0.6730 -0.3119 -0.3358
    3MOL0     C  329   2.573   3.568   0.834  0.0048 -0.8845 -0.0553
    3MOL0     C  330   2.679   3.486   0.904  0.8012  0.2537 -0.6830
    3MOL0     C  331   2.795   3.440   0.820 -0.7627  1.2177  0.3930
    3MOL0     C  332   2.918   3.407   0.910 -0.0206  0.2208  0.0403
    3MOL0     C  333   2.908   3.291   0.998  0.2268 -0.4698 -0.6646
    3MOL0     C  334   2.896   3.206   1.079 -0.6545  0.1999  0.1717
    3MOL0     C  335   2.314   3.786   0.959  0.2046 -0.1947  0.7576
    3MOL0     C  336   2.177   3.826   0.941 -0.7089  0.4922 -0.6907
    3MOL0     C  337   2.118   3.920   1.042 -0.5292 -1.0214 -0.1416
    3MOL0     H  338   1.728   3.930   0.677 -2.0455 -2.2032 -0.8114
    3MOL0     H  339   1.506   4.020   0.702 -0.5601  4.0792  1.2861
    3MOL0     H  340   1.294   4.022   0.764 -2.1718  0.5709 -0.2766
    3MOL0     H  341   1.256   3.942   0.913 -0.2725 -1.9266 -0.7462
    3MOL0     H  342   1.109   4.149   0.959  3.5132  1.8193  2.9227
    3MOL0     H  343   1.090   4.072   0.797 -1.0421 -1.3915  2.0864
    3MOL0     H  344   1.268   4.253   0.715 -0.3484 -0.0834 -0.1758
    3MOL0     H  345   1.228   4.341   0.865  1.6139 -2.2778  0.4239
    3MOL0     H  346   1.094   4.421   0.681  1.8336 -1.6429 -0.5659
    3MOL0     H  347   1.016   4.262   0.670  0.7798  0.3339 -1.0051
    3MOL0     H  348   0.885   4.428   0.793 -1.2678  0.5521  2.3309
    3MOL0     H  349   0.931   4.277   0.884  0.8126  0.8516  1.4261
    3MOL0     H  350   0.919   4.487   1.025  0.2240  0.1052 -1.2082
    3MOL0     H  351   1.069   4.396   1.022  1.7222  2.8322  1.2910
    3MOL0     H  352   1.151   4.558   0.849 -0.3239 -0.8701  0.9849
    3MOL0     H  353   1.128   4.642   1.008 -2.7614  0.3209  1.6321
    3MOL0     H  354   1.056   4.787   0.839  2.0212 -0.0911 -1.2152
    3MOL0     H  355   0.972   4.657   0.748  2.4239  2.6113 -1.9454
    3MOL0     H  356   0.947   4.886   1.061 -1.9650  3.8585 -0.1328
    3MOL0     H  357   0.562   4.947   1.085  1.9260 -1.8886 -3.0426
    3MOL0     H  358   0.658   4.934   1.226 -0.3422 -2.7449 -0.8379
    3MOL0     H  359   0.818   5.087   1.142  0.6439 -1.8128 -0.7452
    3MOL0     H  360   0.755   5.074   0.971 -0.6010  1.6330 -0.1891
    3MOL0     H  361   0.577   5.181   1.006 -1.4374 -3.3027  2.7384
    3MOL0     H  362   0.723   5.277   1.050  0.4911 -1.2259 -3.2897
    3MOL0     H  363   0.640   5.189   1.295  1.3636  1.3727 -0.3421
    3MOL0     H  364   0.477   5.200   1.214 -0.2092 -1.9664 -2.1538
    3MOL0     H  365   0.347   5.379   1.200 -2.6010  1.9633  1.1490
    3MOL0     H  366   0.217   5.557   1.072 -0.2216 -1.6885  2.2857
    3MOL0     H  367   0.218   5.874   0.721  3.4065  2.8637  1.3327
    3MOL0     H  368   0.096   6.028   0.600  2.1478 -0.3021  1.2158
    3MOL0     H  369   0.036   6.311   0.609  0.5963 -1.6539  2.1261
    3MOL0     H  370  -0.036   6.176   0.521  0.1947 -2.1109  1.8111
    3MOL0     H  371  -0.127   6.391   0.459 -1.6084 -1.4677 -1.6313
    3MOL0     H  372  -0.252   6.285   0.516 -0.5114 -0.7435 -1.2891
    3MOL0     H  373  -0.279   6.387   0.718  0.4493 -1.7575  0.1794
    3MOL0     H  374  -0.132   6.492   0.711 -0.5079  1.3595 -1.2357
    3MOL0     H  375  -0.357   6.522   0.508 -0.7457  1.9467  0.2976
    3MOL0     H  376  -0.224   6.623   0.544 -0.4039 -0.3880 -1.6916
    3MOL0     H  377  -0.380   6.741   0.659  1.3170  0.4303 -0.4210
    3MOL0     H  378  -0.324   6.638   0.799 -1.1719 -1.5869  2.1130
    3MOL0     H  379  -0.564   6.567   0.614  0.1954 -0.7650 -1.2914
    3MOL0     H  380  -0.517   6.490   0.773  3.2449 -0.3507 -0.2098
    3MOL0     H  381  -0.572   6.780   0.753  1.3772  0.5989  0.3617
    3MOL0     H  382  -0.586   6.680   0.890  1.1099  0.4548 -1.3862
    3MOL0     H  383  -0.762   6.701   0.647  3.1192  2.0758  0.5260
    3MOL0     H  384  -0.789   6.560   0.766  1.1387  0.2592  0.8151
    3MOL0     H  385  -0.133   6.089   0.975 -1.3834  2.0682 -2.4031
    3MOL0     H  386  -0.007   5.912   1.065 -1.1090 -0.1138 -0.8381
    3MOL0     H  387   0.588   5.748   0.992 -1.5690 -0.8642 -4.1243
    3MOL0     H  388   0.709   5.574   1.126 -0.0097  1.5523 -0.4000
    3MOL0     H  389   1.553   4.046   1.128  1.1670  3.4185 -0.7338
    3MOL0     H  390   1.761   3.928   1.102 -0.6006  2.1590  0.3206
    3MOL0     H  391   2.132   3.689   0.636  1.2359 -3.8086 -0.0706
    3MOL0     H  392   2.370   3.614   0.668  2.4099  0.7391  0.7441
    3MOL0     H  393   2.618   3.634   0.758 -0.0030 -1.2211 -0.3515
    3MOL0     H  394   2.510   3.490   0.793 -0.7510 -1.2203  1.6756
    3MOL0     H  395   2.630   3.402   0.954 -2.2015  0.9155 -2.2208
    3MOL0     H  396   2.726   3.545   0.983 -1.2525 -1.4187  1.9651
    3MOL0     H  397   2.822   3.528   0.760  0.1436  2.1362  2.0716
    3MOL0     H  398   2.777   3.357   0.751  0.2137  1.9303 -0.7787
    3MOL0     H  399   3.013   3.404   0.856  0.9328  0.9853  1.6326
    3MOL0     H  400   2.919   3.491   0.979  0.4069  1.8044 -1.8097
    3MOL0     H  401   2.896   3.130   1.154 -1.6803  0.5587  0.5589
    3MOL0     H  402   2.377   3.813   1.043  0.5052 -2.5956  1.3941
    3MOL0     H  403   2.181   3.964   1.119 -1.6109  2.6278 -1.1202
    3MOL0     H  404   2.078   4.001   0.980  1.6296 -1.5939 -2.4571
    3MOL0     H  405   2.033   3.871   1.092 -1.5700  2.8044  2.3209
    4MOL0     O  406   1.988  10.498   1.189 -1.0204 -0.0691  0.2814
    4MOL0     C  407   1.911  10.484   1.092 -0.5735 -0.1842 -0.9525
    4MOL0     O  408   1.944  10.482   0.958  0.7978 -0.3729  0.5278
    4MOL0     C  409   2.077  10.512   0.934  0.6954 -0.0244  0.2334
    4MOL0     C  410   2.187  10.422   0.963  0.1406  0.7489 -0.0324
    4MOL0     C  411   2.320  10.459   0.937  0.0053 -0.1089 -1.1560
    4MOL0     C  412   2.349  10.588   0.889  0.4725  0.3976  0.2312
    4MOL0     O  413   2.484  10.612   0.860 -0.2665  0.7737  0.5250
    4MOL0     C  414   2.538  10.734   0.912 -0.9570  0.5252 -0.0148
    4MOL0     C  415   2.679  10.753   0.841 -0.2030 -0.5162 -0.2485
    4MOL0     C  416   2.771  10.840   0.921 -0.7144  0.3295  0.1421
    4MOL0     C  417   2.917  10.825   0.893 -0.2251 -0.6599 -1.0287
    4MOL0     C  418   3.006  10.917   0.975  0.0655 -0.2017 -0.3629
    4MOL0     C  419   3.151  10.876   0.963 -0.4906  0.1021  0.0280
    4MOL0     C  420   3.243  10.929   1.069 -0.2901 -0.5317  0.2000
    4MOL0     C  421   3.398  10.940   1.021  0.0366  0.0783 -0.0715
    4MOL0     N  422   3.455  10.814   0.979 -0.1864  0.4657 -0.6073
    4MOL0     C  423   3.445  10.692   1.039  1.0689  0.3349 -0.2621
    4MOL0     C  424   3.541  10.615   0.982 -0.8536 -0.0563 -0.2654
    4MOL0     C  425   3.569  10.460   0.998  0.0208 -0.4863  0.1250
    4MOL0     C  426   3.711  10.417   0.980 -0.1544 -0.2003  0.1190
    4MOL0     C  427   3.714  10.261   0.985 -0.8328  0.0634 -0.7967
    4MOL0     C  428   3.856  10.209   0.959  0.4836 -1.2766 -0.6311
    4MOL0     O  429   3.856  10.064   0.953  0.2494 -0.1300  0.3810
    4MOL0     C  430   3.978  10.003   0.945  0.1625 -0.4112 -0.1484
    4MOL0     C  431   3.977   9.859   0.938  0.4640  0.4332  0.1332
    4MOL0     C  432   4.100   9.786   0.933  0.7080  0.0143  0.1971
    4MOL0     C  433   4.220   9.865   0.932  0.3304 -0.4100 -0.1583
    4MOL0     C  434   4.352   9.793   0.903 -0.0064  0.2818 -0.4026
    4MOL0     O  435   4.338   9.658   0.877  0.1212  0.1695  0.1489
    4MOL0     C  436   4.450   9.581   0.851  0.2287  0.5651 -0.7559
    4MOL0     C  437   4.577   9.620   0.800 -0.0666  0.3956 -0.0337
    4MOL0     C  438   4.681   9.529   0.786 -0.2758 -0.5744  0.0225
    4MOL0     C  439   4.665   9.391   0.814  0.6944  0.2174  0.9093
    4MOL0     O  440   4.764   9.288   0.813  0.4272  0.0414 -0.2581
    4MOL0     C  441   4.904   9.317   0.823 -0.2866 -0.8623  0.1332
    4MOL0     C  442   4.938   9.378   0.959 -0.0177 -0.4946  0.0847
    4MOL0     C  443   5.077   9.440   0.969 -0.2118 -0.3362  0.0626
    4MOL0     C  444   5.176   9.349   0.900  0.1816 -0.0577 -0.6195
    4MOL0     C  445   5.320   9.398   0.914 -0.5090  0.9282  0.3564
    4MOL0     C  446   5.400   9.331   0.807 -0.1918  0.2385  0.9990
    4MOL0     C  447   5.525   9.420   0.767  0.3796  0.0829 -0.5527
    4MOL0     C  448   5.633   9.340   0.692  0.0395 -0.2632  0.0042
    4MOL0    Cl  449   5.635   9.382   0.513  0.0709 -0.1623  0.4615
    4MOL0     C  450   4.531   9.342   0.835 -0.0758  0.0719  0.4894
    4MOL0     C  451   4.433   9.438   0.873 -0.2280 -0.2275  0.2172
    4MOL0     O  452   4.461   9.856   0.913  0.4654  0.3252  0.0997
    4MOL0     C  453   4.217  10.008   0.921 -0.3999  0.3331  0.6390
    4MOL0     C  454   4.100  10.077   0.936 -0.5998 -0.6578 -0.7382
    4MOL0     N  455   3.603  10.688   0.872  0.3089  0.0730  0.3014
    4MOL0     N  456   3.543  10.802   0.877 -0.2429  0.5854  0.5695
    4MOL0     C  457   2.247  10.672   0.870  0.9319 -0.0630 -0.2582
    4MOL0     C  458   2.114  10.639   0.895 -0.1481  0.2140 -0.5552
    4MOL0     C  459   1.767  10.488   1.132 -0.2014  0.1584 -0.6707
    4MOL0     C  460   1.672  10.563   1.056 -0.0528  0.0087 -0.3200
    4MOL0     C  461   1.541  10.575   1.092 -0.0676  0.9636  0.1641
    4MOL0     C  462   1.490  10.522   1.210 -0.2067 -0.1897  0.0254
    4MOL0     O  463   1.361  10.547   1.238 -0.1052 -1.0775 -0.2158
    4MOL0     C  464   1.316  10.515   1.371  0.4491 -1.1058  0.4065
    4MOL0     C  465   1.165  10.508   1.393 -0.5419  0.1529  0.4142
    4MOL0     C  466   1.100  10.400   1.305  0.2365  0.6635  0.8478
    4MOL0     C  467   0.950  10.378   1.359  0.2530  0.2090  0.3943
    4MOL0     C  468   0.866  10.481   1.282  0.1723 -0.0322 -0.0519
    4MOL0     C  469   0.798  10.560   1.224  0.1761  0.0543 -0.3529
    4MOL0     C  470   1.586  10.456   1.294  0.2273  0.5558 -0.8473
    4MOL0     C  471   1.721  10.428   1.253  0.3495  0.7785 -0.3729
    4MOL0     C  472   1.807  10.329   1.337  0.0608 -0.4555 -0.1385
    4MOL0     H  473   2.166  10.322   1.000 -0.5956  1.2716  1.0051
    4MOL0     H  474   2.405  10.394   0.954 -0.3894 -1.0790 -2.7165
    4MOL0     H  475   2.469  10.818   0.894 -1.0834  1.2517  3.1980
    4MOL0     H  476   2.554  10.721   1.020  2.5054 -1.0165 -0.5882
    4MOL0     H  477   2.658  10.799   0.745 -0.7921  0.0286  0.1362
    4MOL0     H  478   2.724  10.654   0.831  0.5119 -0.4749  2.0117
    4MOL0     H  479   2.750  10.826   1.027 -0.7916 -0.5014  0.0289
    4MOL0     H  480   2.742  10.937   0.881  0.3342 -0.9524 -4.3069
    4MOL0     H  481   2.938  10.719   0.913 -0.3861 -0.9253 -2.2049
    4MOL0     H  482   2.945  10.838   0.788 -0.2691  1.3958 -0.8272
    4MOL0     H  483   2.991  11.019   0.938 -1.8627  0.8732  3.0067
    4MOL0     H  484   2.982  10.926   1.081 -0.4347  0.3764 -0.5246
    4MOL0     H  485   3.156  10.769   0.983 -0.4599  0.3783  1.5532
    4MOL0     H  486   3.192  10.895   0.863  0.4405 -1.2580  0.1258
    4MOL0     H  487   3.228  10.878   1.166  1.5139 -0.5341  0.5062
    4MOL0     H  488   3.219  11.031   1.099 -0.5175 -0.3985 -0.4279
    4MOL0     H  489   3.400  11.013   0.940  1.6648 -1.2647 -1.3351
    4MOL0     H  490   3.463  10.981   1.099 -0.4290 -0.6528  0.7223
    4MOL0     H  491   3.384  10.664   1.124  2.6308 -1.7381  0.2638
    4MOL0     H  492   3.535  10.441   1.100 -4.3847 -2.7642 -1.5216
    4MOL0     H  493   3.499  10.398   0.943 -2.4720  0.5837  1.9281
    4MOL0     H  494   3.746  10.444   0.881 -0.7694 -1.3402 -0.4293
    4MOL0     H  495   3.770  10.458   1.063 -0.5117  1.8533 -0.5849
    4MOL0     H  496   3.648  10.219   0.908 -0.5194 -2.4814  0.2484
    4MOL0     H  497   3.685  10.234   1.087 -0.9946  1.8834 -0.3106
    4MOL0     H  498   3.921  10.245   1.040  0.0919  2.4506 -1.7749
    4MOL0     H  499   3.901  10.264   0.876  2.3835 -0.0256  1.1113
    4MOL0     H  500   3.882   9.808   0.948  0.5067  0.6837  2.1775
    4MOL0     H  501   4.102   9.678   0.942 -0.3626  0.0159  0.6155
    4MOL0     H  502   4.609   9.724   0.795  0.7481  0.2031  0.8356
    4MOL0     H  503   4.774   9.574   0.752 -1.2944  0.2405 -1.8650
    4MOL0     H  504   4.969   9.230   0.809 -1.7066 -1.9763  0.2955
    4MOL0     H  505   4.927   9.388   0.743 -0.1334  0.9977  1.7528
    4MOL0     H  506   4.864   9.456   0.977 -2.6997 -3.0400  0.8048
    4MOL0     H  507   4.925   9.305   1.039  1.9917  1.1475  2.0508
    4MOL0     H  508   5.076   9.534   0.915 -1.5650 -0.5050 -0.2535
    4MOL0     H  509   5.118   9.451   1.070  1.7945  0.3370 -0.7940
    4MOL0     H  510   5.161   9.350   0.792  1.6085  1.4515 -0.8559
    4MOL0     H  511   5.166   9.248   0.939  1.1648  0.5552  1.3872
    4MOL0     H  512   5.349   9.366   1.015 -2.5151 -0.4906  0.5495
    4MOL0     H  513   5.335   9.506   0.914  1.8424  0.6821  2.1748
    4MOL0     H  514   5.422   9.229   0.842 -1.5086  0.4704  2.6181
    4MOL0     H  515   5.343   9.320   0.714  0.2969  3.1293  0.2568
    4MOL0     H  516   5.571   9.445   0.862  2.4157 -2.9490 -0.5886
    4MOL0     H  517   5.500   9.512   0.714  3.5336  1.5735  0.3322
    4MOL0     H  518   5.724   9.374   0.741 -1.3378  2.6984  0.6935
    4MOL0     H  519   5.633   9.234   0.720 -0.0096  0.3633  2.6774
    4MOL0     H  520   4.514   9.235   0.844  1.6310 -0.1738  1.1600
    4MOL0     H  521   4.337   9.401   0.907  0.3945 -2.0284  0.0820
    4MOL0     H  522   4.311  10.062   0.916  0.2790 -0.9074 -1.1882
    4MOL0     H  523   4.108  10.185   0.939 -2.0896 -0.5321 -0.5980
    4MOL0     H  524   2.276  10.765   0.823 -1.0965  0.0506 -1.3745
    4MOL0     H  525   2.039  10.716   0.880 -0.3438 -0.0900 -1.2151
    4MOL0     H  526   1.709  10.606   0.963  0.4774 -0.7888 -0.4950
    4MOL0     H  527   1.481  10.646   1.036  0.1750  1.3005  0.3250
    4MOL0     H  528   1.356  10.576   1.452 -2.9883  2.3402 -0.1912
    4MOL0     H  529   1.350  10.416   1.403  0.2521 -1.2010  0.3284
    4MOL0     H  530   1.109  10.601   1.376 -1.1762 -0.4155 -0.7259
    4MOL0     H  531   1.136  10.483   1.495 -0.8023 -2.3163 -0.2196
    4MOL0     H  532   1.156  10.307   1.317  3.0709  2.3394  1.4759
    4MOL0     H  533   1.105  10.417   1.197 -1.6301 -2.2015  0.1739
    4MOL0     H  534   0.918  10.276   1.337 -0.6039 -0.3160  3.6220
    4MOL0     H  535   0.931  10.396   1.465 -0.0394 -3.8027  1.1556
    4MOL0     H  536   0.728  10.622   1.172 -1.0171  0.7297  1.9521
    4MOL0     H  537   1.562  10.422   1.394  0.5231 -1.0669 -1.2906
    4MOL0     H  538   1.850  10.251   1.274  1.5952 -0.7779  1.2328
    4MOL0     H  539   1.893  10.375   1.387 -0.1721 -0.9718  0.7639
    4MOL0     H  540   1.758  10.279   1.421  2.2522  0.0099  1.5055
    5MOL0     O  541   8.752   8.462   1.638 -0.3251 -0.1958  1.0173
    5MOL0     C  542   8.684   8.360   1.641 -0.0671  0.0149 -0.0469
    5MOL0     O  543   8.659   8.293   1.756 -0.2862  0.2391 -0.4002
    5MOL0     C  544   8.731   8.324   1.867  0.4126 -0.1551 -0.5313
    5MOL0     C  545   8.663   8.414   1.951 -0.4092  0.4826 -1.0237
    5MOL0     C  546   8.740   8.451   2.072  0.6226  0.0947  0.0143
    5MOL0     C  547   8.870   8.407   2.098 -1.1214 -0.0513  0.6911
    5MOL0     O  548   8.926   8.467   2.209  0.2521 -0.4771 -0.2234
    5MOL0     C  549   9.072   8.456   2.236  0.1608 -0.1257  0.1296
    5MOL0     C  550   9.110   8.556   2.345 -0.5948  0.1918  0.4002
    5MOL0     C  551   9.258   8.559   2.359 -0.8301 -0.1560  0.0845
    5MOL0     C  552   9.283   8.633   2.489  1.1280  1.2655  1.2315
    5MOL0     C  553   9.431   8.643   2.510 -0.4070 -0.2984  0.0184
    5MOL0     C  554   9.456   8.762   2.592 -0.5830  0.1405  0.1594
    5MOL0     C  555   9.601   8.774   2.642 -0.3155  0.9109 -0.3195
    5MOL0     C  556   9.696   8.808   2.531  0.0417 -0.3197 -0.5945
    5MOL0     N  557   9.822   8.855   2.590  0.1553 -0.4685  0.0210
    5MOL0     C  558   9.921   8.774   2.622  0.1360  0.0541 -0.1995
    5MOL0     C  559  10.013   8.855   2.677 -1.1139 -0.8871 -0.4671
    5MOL0     C  560  10.151   8.802   2.714  0.3684 -0.4513 -0.5587
    5MOL0     C  561  10.264   8.830   2.605 -0.4543 -0.2660  0.2144
    5MOL0     C  562  10.405   8.822   2.671  0.6409 -0.4721 -0.5362
    5MOL0     C  563  10.507   8.786   2.570  0.6005  0.0503 -0.7389
    5MOL0     O  564  10.627   8.738   2.630 -0.0682 -0.3560 -0.2942
    5MOL0     C  565  10.711   8.823   2.695 -0.0676 -0.6730  0.4746
    5MOL0     C  566  10.714   8.969   2.701  0.6291 -0.9358  0.0180
    5MOL0     C  567  10.819   9.034   2.761  0.1100 -0.0694  0.0633
    5MOL0     C  568  10.924   8.967   2.821 -0.5132  0.3299  0.5955
    5MOL0     C  569  11.030   9.054   2.898 -0.3027 -0.2202 -0.7325
    5MOL0     O  570  11.012   9.191   2.899 -0.5026  0.3590  0.0411
    5MOL0     C  571  11.073   9.264   2.998  1.1061 -1.0055 -1.1608
    5MOL0     C  572  11.009   9.319   3.111 -0.4973 -0.4540  0.8717
    5MOL0     C  573  11.079   9.401   3.204  0.1567 -0.7813 -0.0778
    5MOL0     C  574  11.218   9.417   3.192 -0.8701  0.4939 -0.1017
    5MOL0     O  575  11.286   9.515   3.259  0.1452  0.0065 -0.3507
    5MOL0     C  576  11.341   9.452   3.378 -0.4661 -0.1464 -0.4891
    5MOL0     C  577  11.347   9.548   3.496 -0.2066 -0.5140  0.6194
    5MOL0     C  578  11.384   9.699   3.463  0.0642 -0.5159  0.0076
    5MOL0     C  579  11.436   9.770   3.586 -0.5720 -1.0560 -0.4097
    5MOL0     C  580  11.491   9.904   3.550 -0.2433  0.0495  0.2366
    5MOL0     C  581  11.546   9.973   3.676 -0.2326 -0.1299 -0.6657
    5MOL0     C  582  11.638  10.078   3.633 -0.4915 -0.2474 -0.6969
    5MOL0     C  583  11.685  10.166   3.752 -0.2343  0.5886  0.5340
    5MOL0    Cl  584  11.844  10.121   3.811  0.2664  0.1491  0.3230
    5MOL0     C  585  11.280   9.361   3.085  0.4550 -0.2719 -0.0354
    5MOL0     C  586  11.207   9.283   2.995 -0.1177  0.2732 -0.6502
    5MOL0     O  587  11.110   8.990   2.967  0.2883 -0.7157  0.3669
    5MOL0     C  588  10.931   8.828   2.800 -0.8811 -0.1788  0.0253
    5MOL0     C  589  10.825   8.761   2.744 -0.1750 -0.0898  0.0461
    5MOL0     N  590   9.964   8.982   2.673 -0.5537 -0.9183  0.0480
    5MOL0     N  591   9.852   8.979   2.623 -0.8648  0.2200  0.4647
    5MOL0     C  592   8.933   8.316   2.005  0.5736 -0.2066  0.1221
    5MOL0     C  593   8.862   8.268   1.895 -0.2446 -0.4970  0.4749
    5MOL0     C  594   8.605   8.317   1.523 -0.5604 -0.7984  0.0610
    5MOL0     C  595   8.505   8.223   1.537 -0.3174  0.2698 -0.3147
    5MOL0     C  596   8.440   8.173   1.424  0.3377  0.0875 -1.1891
    5MOL0     C  597   8.471   8.211   1.292 -0.4562 -0.7011  0.0449
    5MOL0     O  598   8.414   8.184   1.167  0.3060  0.0731 -0.4425
    5MOL0     C  599   8.360   8.050   1.148  0.4347 -0.5540 -0.7657
    5MOL0     C  600   8.282   8.054   1.017 -1.1638 -0.1677 -0.6025
    5MOL0     C  601   8.172   7.942   1.005  0.1046  0.3006  0.0177
    5MOL0     C  602   8.220   7.811   1.065 -0.5066  1.6085 -0.2818
    5MOL0     C  603   8.111   7.721   1.119 -0.8565 -0.5338 -0.6624
    5MOL0     C  604   8.036   7.634   1.150  0.1371  0.5760  0.0589
    5MOL0     C  605   8.569   8.308   1.277  0.1503 -0.4790  0.2937
    5MOL0     C  606   8.641   8.360   1.387  0.0386 -0.5447  0.5036
    5MOL0     C  607   8.755   8.462   1.364  0.9494  0.2693  0.0393
    5MOL0     H  608   8.559   8.441   1.933 -0.4931 -0.0849 -1.4288
    5MOL0     H  609   8.691   8.521   2.138  1.1292  0.0999  0.3868
    5MOL0     H  610   9.092   8.354   2.269 -1.1470 -0.4438 -0.0022
    5MOL0     H  611   9.131   8.486   2.148 -2.9319  2.5299 -1.2714
    5MOL0     H  612   9.050   8.545   2.436  1.5738  1.4496  2.0821
    5MOL0     H  613   9.089   8.652   2.296 -0.2009 -0.9170 -2.0577
    5MOL0     H  614   9.312   8.604   2.276 -0.1854 -0.9781  0.0407
    5MOL0     H  615   9.303   8.459   2.360 -1.6208 -0.5243  1.2258
    5MOL0     H  616   9.239   8.733   2.495 -2.6243 -0.0262 -1.0361
    5MOL0     H  617   9.247   8.580   2.578  1.2646 -2.0622 -0.5373
    5MOL0     H  618   9.477   8.553   2.552 -1.1059 -2.1550 -2.8202
    5MOL0     H  619   9.478   8.657   2.413 -0.4169  0.6082  0.1408
    5MOL0     H  620   9.421   8.854   2.545 -2.2405  0.3213  1.6488
    5MOL0     H  621   9.396   8.743   2.681 -0.2005 -1.0540  0.1849
    5MOL0     H  622   9.636   8.683   2.692  1.2219  0.9981 -1.1722
    5MOL0     H  623   9.605   8.853   2.718 -0.2742  0.7107 -0.1108
    5MOL0     H  624   9.707   8.716   2.471 -2.4620 -0.3413 -1.1405
    5MOL0     H  625   9.648   8.888   2.475  1.4505  0.1026 -1.2433
    5MOL0     H  626   9.925   8.668   2.600 -2.5620 -0.2006  0.3091
    5MOL0     H  627  10.179   8.846   2.810  0.8249  2.1149 -1.7836
    5MOL0     H  628  10.144   8.693   2.721 -3.0466 -0.9846 -6.0778
    5MOL0     H  629  10.264   8.754   2.526 -1.3663  1.1985 -1.2319
    5MOL0     H  630  10.262   8.930   2.561  1.4888  0.1820  1.0361
    5MOL0     H  631  10.405   8.737   2.741  2.2796  0.0347  0.1394
    5MOL0     H  632  10.431   8.917   2.719  3.3952 -1.5530  0.3154
    5MOL0     H  633  10.536   8.866   2.501  1.9257  0.5232  0.3189
    5MOL0     H  634  10.468   8.715   2.497 -2.2597  1.3805 -0.6170
    5MOL0     H  635  10.629   9.031   2.672  0.4137 -1.3207 -0.1834
    5MOL0     H  636  10.814   9.142   2.764  0.8689  0.0021 -0.8246
    5MOL0     H  637  10.907   9.298   3.141 -0.2387 -2.5017  0.5356
    5MOL0     H  638  11.034   9.455   3.287 -1.9955 -0.5817 -1.2955
    5MOL0     H  639  11.289   9.359   3.402  1.1989 -1.3740 -1.4447
    5MOL0     H  640  11.443   9.418   3.360 -0.6375 -0.7985 -0.2431
    5MOL0     H  641  11.243   9.566   3.525 -0.5180  0.4092 -0.9542
    5MOL0     H  642  11.402   9.490   3.571  0.8154 -3.8062 -2.4219
    5MOL0     H  643  11.457   9.694   3.381 -0.2287  0.8797 -0.3702
    5MOL0     H  644  11.296   9.748   3.421 -0.7611  0.2731  2.5385
    5MOL0     H  645  11.508   9.713   3.645 -0.0083 -1.1760 -1.2114
    5MOL0     H  646  11.350   9.792   3.650  0.1767  1.4306 -0.1442
    5MOL0     H  647  11.418   9.966   3.499  0.3895  2.0520  1.6382
    5MOL0     H  648  11.582   9.885   3.492 -0.2567  1.4979 -0.2901
    5MOL0     H  649  11.465  10.019   3.734  3.2638  3.7460  1.6787
    5MOL0     H  650  11.600   9.915   3.751 -2.7207 -0.2445  1.1782
    5MOL0     H  651  11.594  10.142   3.557 -0.2957  0.2779 -0.3759
    5MOL0     H  652  11.721  10.028   3.582 -1.9733 -1.8876 -1.6325
    5MOL0     H  653  11.693  10.272   3.728 -1.7928  0.5214 -0.4342
    5MOL0     H  654  11.614  10.170   3.835  1.0806  3.2665  1.6515
    5MOL0     H  655  11.387   9.378   3.072  0.1844  0.5923 -1.1926
    5MOL0     H  656  11.258   9.239   2.910 -2.2309 -0.1511 -1.7618
    5MOL0     H  657  11.018   8.779   2.843 -0.7068  0.0020 -0.1161
    5MOL0     H  658  10.824   8.653   2.735  1.3488 -0.2680  1.4423
    5MOL0     H  659   9.035   8.286   2.022  1.2284  2.3604  1.1112
    5MOL0     H  660   8.908   8.193   1.831 -0.1279 -1.2267  1.3933
    5MOL0     H  661   8.484   8.178   1.634  1.0467  3.9343  1.9085
    5MOL0     H  662   8.362   8.099   1.443 -0.8238  1.3300 -1.0008
    5MOL0     H  663   8.310   8.024   1.242  1.2619  0.0499 -0.1440
    5MOL0     H  664   8.446   7.984   1.139  1.9391  0.4541  3.8763
    5MOL0     H  665   8.359   8.056   0.939 -0.9205  1.1423 -0.3525
    5MOL0     H  666   8.235   8.152   1.011  2.2551  1.6592 -0.2671
    5MOL0     H  667   8.159   7.940   0.896 -0.5104 -0.7314  0.0929
    5MOL0     H  668   8.077   7.968   1.054  0.1826 -1.0651  0.9422
    5MOL0     H  669   8.290   7.757   1.001 -1.0926 -2.1322  1.8832
    5MOL0     H  670   8.289   7.820   1.150 -0.2377 -0.3892 -0.2436
    5MOL0     H  671   7.973   7.556   1.187  0.4969  1.2150  2.1696
    5MOL0     H  672   8.593   8.353   1.182  2.0139 -1.8059  0.0769
    5MOL0     H  673   8.770   8.481   1.257 -1.4299  0.7687 -0.2546
    5MOL0     H  674   8.741   8.561   1.408  3.6729  0.5445  0.4906
    5MOL0     H  675   8.845   8.406   1.389 -0.4776 -3.2260 -1.9804
    6MOL0     O  676   7.565   8.637  11.051  0.8061 -0.3250  0.4110
    6MOL0     C  677   7.461   8.692  11.027  0.0039 -0.1337  0.1420
    6MOL0     O  678   7.448   8.824  11.036  0.7187 -0.4801  0.1502
    6MOL0     C  679   7.553   8.914  11.042 -0.1982  1.5961 -0.1865
    6MOL0     C  680   7.535   9.019  11.137  0.0510  0.3057 -0.1276
    6MOL0     C  681   7.649   9.101  11.166 -0.4596  0.8773 -0.8825
    6MOL0     C  682   7.771   9.087  11.101 -0.2078 -0.5374 -0.4042
    6MOL0     O  683   7.877   9.168  11.125 -0.5112 -0.1601  0.3414
    6MOL0     C  684   7.901   9.272  11.027 -0.5198  0.4820  0.4455
    6MOL0     C  685   8.028   9.341  11.067  0.3305 -0.2974 -0.3453
    6MOL0     C  686   8.049   9.470  10.993 -0.7968 -0.5789 -0.5794
    6MOL0     C  687   8.186   9.524  11.030 -0.4242  0.4665  0.3294
    6MOL0     C  688   8.226   9.645  10.953  0.0290  0.4604  0.0319
    6MOL0     C  689   8.232   9.617  10.804  0.4036 -0.3134  0.8490
    6MOL0     C  690   8.277   9.744  10.717 -0.2182  0.1982 -0.3835
    6MOL0     C  691   8.252   9.736  10.568  0.3572 -0.0502 -0.7543
    6MOL0     N  692   8.316   9.854  10.508 -0.5303  1.0851  0.6636
    6MOL0     C  693   8.428   9.859  10.428  0.0945  0.0456 -0.1916
    6MOL0     C  694   8.457   9.990  10.395  0.0838  0.1862 -0.3092
    6MOL0     C  695   8.568  10.044  10.306  0.1640 -0.0653  0.0139
    6MOL0     C  696   8.611  10.197  10.315  0.5646  1.4633 -0.1235
    6MOL0     C  697   8.678  10.224  10.449 -0.9885  0.7867 -0.5071
    6MOL0     C  698   8.669  10.371  10.483  0.1706 -1.2072 -0.0870
    6MOL0     O  699   8.714  10.454  10.374  0.1419 -0.3088 -0.0685
    6MOL0     C  700   8.843  10.509  10.373  0.0573  0.1700 -0.2096
    6MOL0     C  701   8.938  10.471  10.465  0.2509  0.4128 -0.6714
    6MOL0     C  702   9.068  10.516  10.468  0.0643  0.9217  0.4901
    6MOL0     C  703   9.122  10.605  10.379 -0.2653  0.0679 -0.0210
    6MOL0     C  704   9.262  10.644  10.375 -0.5294 -0.1931 -0.3966
    6MOL0     O  705   9.302  10.690  10.251 -0.1468 -0.3805  0.4851
    6MOL0     C  706   9.426  10.737  10.220  0.2937  0.6999 -0.1316
    6MOL0     C  707   9.460  10.724  10.089  0.0885  0.0911  0.0440
    6MOL0     C  708   9.569  10.782  10.026  0.1142  0.6811  0.3517
    6MOL0     C  709   9.651  10.850  10.109 -0.3425  0.2249  0.0660
    6MOL0     O  710   9.777  10.896  10.085 -0.7685  0.2347 -0.1618
    6MOL0     C  711   9.836  10.860   9.958 -1.2384 -0.6989 -1.0649
    6MOL0     C  712   9.934  10.727   9.960 -0.1810 -0.3842  0.2544
    6MOL0     C  713   9.853  10.604   9.982  0.0056  0.4501  0.4793
    6MOL0     C  714   9.949  10.476   9.970  0.1121  0.7943  0.0824
    6MOL0     C  715   9.878  10.343   9.997  0.0254 -0.0772 -0.2675
    6MOL0     C  716   9.875  10.314  10.151 -0.3572 -0.9812  0.9318
    6MOL0     C  717  10.008  10.244  10.209  0.5230  0.3517 -0.5563
    6MOL0     C  718   9.992  10.200  10.348 -1.0201  0.4836 -0.0744
    6MOL0    Cl  719  10.137  10.122  10.417 -0.2211  0.0123  0.2503
    6MOL0     C  720   9.624  10.866  10.246 -0.2190  0.2998 -0.8562
    6MOL0     C  721   9.509  10.808  10.306  0.2693  0.3446 -0.1308
    6MOL0     O  722   9.345  10.620  10.466  0.1103  0.1582 -0.1864
    6MOL0     C  723   9.030  10.645  10.269 -0.2477  0.7946 -0.9479
    6MOL0     C  724   8.899  10.586  10.270  0.8701  0.5348  0.2908
    6MOL0     N  725   8.355  10.062  10.454 -0.0034  0.3137 -0.5031
    6MOL0     N  726   8.280   9.984  10.527 -0.2158 -0.4623 -0.1959
    6MOL0     C  727   7.781   8.988  11.004  0.1718  0.1541  0.3992
    6MOL0     C  728   7.678   8.900  10.981  0.6715 -0.1804 -0.4136
    6MOL0     C  729   7.341   8.610  10.988  0.9896  0.6656  0.3270
    6MOL0     C  730   7.220   8.664  11.022 -0.0744 -0.5101 -0.2297
    6MOL0     C  731   7.091   8.609  10.991 -0.2043  0.1666  0.0722
    6MOL0     C  732   7.088   8.486  10.932 -0.5356  0.5101 -0.1683
    6MOL0     O  733   6.962   8.428  10.918 -0.6904  0.5494  0.3517
    6MOL0     C  734   6.970   8.312  10.841  0.7490 -0.6576 -0.6272
    6MOL0     C  735   6.828   8.260  10.822  0.0201  0.3293 -0.5466
    6MOL0     C  736   6.713   8.363  10.802 -0.0476 -0.0890 -0.3961
    6MOL0     C  737   6.575   8.294  10.794  0.4201  0.0562  0.0193
    6MOL0     C  738   6.570   8.182  10.695 -0.0152  0.2223  0.4248
    6MOL0     C  739   6.565   8.089  10.613 -0.3699  0.1102 -0.6246
    6MOL0     C  740   7.211   8.429  10.904 -0.6020  0.3751 -0.1579
    6MOL0     C  741   7.340   8.487  10.921  0.8114 -0.0995  0.0713
    6MOL0     C  742   7.468   8.418  10.870  0.4294 -0.9306 -0.1375
    6MOL0     H  743   7.438   9.037  11.182 -0.3519 -2.6009  0.3178
    6MOL0     H  744   7.637   9.188  11.231 -1.6352  0.9878 -1.2184
    6MOL0     H  745   7.915   9.240  10.924  0.6654  0.3327  0.6366
    6MOL0     H  746   7.821   9.347  11.035  0.2542  1.2196  1.6244
    6MOL0     H  747   8.113   9.273  11.053  2.1235  1.7843 -0.2473
    6MOL0     H  748   8.032   9.362  11.174  2.4144  1.5988 -0.7055
    6MOL0     H  749   7.974   9.537  11.035  0.2318  0.9708 -1.1113
    6MOL0     H  750   8.047   9.444  10.887  2.9748 -0.3819 -0.8631
    6MOL0     H  751   8.195   9.542  11.138  3.2157 -0.7530  0.3583
    6MOL0     H  752   8.267   9.452  11.012 -0.2231  0.6204  0.6209
    6MOL0     H  753   8.151   9.721  10.978 -1.7569 -2.3240  4.1680
    6MOL0     H  754   8.324   9.672  10.991 -0.2562  1.9593 -0.2156
    6MOL0     H  755   8.300   9.539  10.770 -1.0642 -0.8600 -1.0168
    6MOL0     H  756   8.129   9.605  10.768 -0.7745  3.3766  2.4837
    6MOL0     H  757   8.384   9.757  10.738 -0.1586  0.6112 -0.9141
    6MOL0     H  758   8.230   9.834  10.757 -1.6562 -1.2376  1.3218
    6MOL0     H  759   8.293   9.649  10.516  2.5922  0.0993  0.6336
    6MOL0     H  760   8.145   9.753  10.551  0.4997  0.9811 -0.6902
    6MOL0     H  761   8.484   9.777  10.382  1.8313  2.3655 -2.5079
    6MOL0     H  762   8.657   9.985  10.331  0.8636  0.4094 -1.2511
    6MOL0     H  763   8.530  10.031  10.204  0.7589 -0.0330 -0.2135
    6MOL0     H  764   8.686  10.224  10.239  2.9705 -0.7287  1.2917
    6MOL0     H  765   8.524  10.263  10.316 -1.2323 -0.7702  0.0982
    6MOL0     H  766   8.781  10.189  10.454 -0.9207  1.1442  0.8293
    6MOL0     H  767   8.617  10.170  10.522  0.5128  0.0135  0.2024
    6MOL0     H  768   8.722  10.393  10.576  1.5129 -0.8176 -0.9174
    6MOL0     H  769   8.566  10.401  10.505  0.2610 -0.7122 -0.3227
    6MOL0     H  770   8.919  10.397  10.542 -0.5595 -1.5255 -2.6583
    6MOL0     H  771   9.130  10.474  10.546 -0.1758  1.0189  0.7360
    6MOL0     H  772   9.390  10.660  10.035  1.7256 -0.2081 -1.8505
    6MOL0     H  773   9.589  10.765   9.921 -1.9784 -2.2769  0.3048
    6MOL0     H  774   9.764  10.862   9.875 -0.9865 -0.0544 -1.2753
    6MOL0     H  775   9.891  10.954   9.947  2.4520 -2.4836  0.4765
    6MOL0     H  776   9.999  10.730   9.873  0.2170  2.7910  0.5204
    6MOL0     H  777   9.998  10.743  10.048 -0.7872  3.8418  0.1426
    6MOL0     H  778   9.803  10.600  10.079 -2.3755  0.4599 -0.6823
    6MOL0     H  779   9.782  10.596   9.900 -1.0009 -2.0851  1.4742
    6MOL0     H  780  10.030  10.482  10.043 -2.3323 -3.1658  3.5341
    6MOL0     H  781   9.992  10.473   9.869 -4.0532  0.5097 -1.9020
    6MOL0     H  782   9.920  10.260   9.941 -1.0053 -2.1623  1.8810
    6MOL0     H  783   9.776  10.354   9.957 -1.6020  3.2452  3.9522
    6MOL0     H  784   9.858  10.407  10.207 -2.3496 -0.9823  0.4240
    6MOL0     H  785   9.791  10.243  10.148 -2.0774  0.9646 -1.1512
    6MOL0     H  786  10.099  10.306  10.208  0.3892  0.5643 -0.0007
    6MOL0     H  787  10.018  10.155  10.145  1.7254 -0.7705  1.0999
    6MOL0     H  788   9.957  10.289  10.402 -2.1011  1.1584 -1.8109
    6MOL0     H  789   9.910  10.129  10.362 -1.6163  1.4005  1.3801
    6MOL0     H  790   9.698  10.919  10.307  3.5872 -2.3373 -2.7722
    6MOL0     H  791   9.487  10.841  10.407 -0.6818 -1.1996  0.1965
    6MOL0     H  792   9.059  10.716  10.193 -2.1663  0.9566 -1.5850
    6MOL0     H  793   8.842  10.623  10.185  0.8855  0.4828  0.2586
    6MOL0     H  794   7.870   8.975  10.943 -1.0864 -2.3788 -1.0524
    6MOL0     H  795   7.686   8.825  10.904 -1.7568 -2.2970  1.2338
    6MOL0     H  796   7.222   8.754  11.084  0.9093 -0.5399 -0.1937
    6MOL0     H  797   7.000   8.658  11.025 -1.0965  0.0783 -2.0733
    6MOL0     H  798   7.021   8.233  10.897  2.9008  2.2077  1.7482
    6MOL0     H  799   7.022   8.332  10.747 -0.1610 -0.8486 -1.1860
    6MOL0     H  800   6.805   8.212  10.917  1.6206  2.1502  0.8702
    6MOL0     H  801   6.825   8.187  10.741 -1.0989 -0.6517  0.3394
    6MOL0     H  802   6.733   8.421  10.711 -1.2428  0.8527 -0.0761
    6MOL0     H  803   6.703   8.425  10.891 -1.4241 -0.5561 -0.2110
    6MOL0     H  804   6.547   8.245  10.888  0.1740  3.0440  1.6589
    6MOL0     H  805   6.494   8.368  10.786 -0.2552 -0.4518  1.7010
    6MOL0     H  806   6.550   7.996  10.561 -2.9696  0.0358  0.0925
    6MOL0     H  807   7.219   8.326  10.870  0.4786 -0.3182  2.0041
    6MOL0     H  808   7.446   8.349  10.788 -1.1387 -1.4471  0.6751
    6MOL0     H  809   7.541   8.489  10.829 -2.0729  0.5920 -2.2747
    6MOL0     H  810   7.513   8.354  10.946 -3.9902 -1.7872  2.0614
    7MOL0     O  811   0.519   4.577   5.792 -0.0244 -0.3243 -0.0885
    7MOL0     C  812   0.438   4.645   5.730  0.1362  0.6895  0.6729
    7MOL0     O  813   0.465   4.729   5.627 -0.2014 -0.1566 -0.1567
    7MOL0     C  814   0.585   4.734   5.562 -0.1032  0.7272 -0.0026
    7MOL0     C  815   0.711   4.718   5.618  0.0604 -0.3831  0.3329
    7MOL0     C  816   0.820   4.699   5.532 -0.6917  0.1661  1.2075
    7MOL0     C  817   0.805   4.711   5.394 -0.1596 -0.2700  0.3264
    7MOL0     O  818   0.918   4.698   5.316 -0.1254  0.1980 -0.6057
    7MOL0     C  819   0.902   4.634   5.189 -0.3226  0.2688  0.0378
    7MOL0     C  820   0.885   4.481   5.207 -0.1220 -0.0987  0.8431
    7MOL0     C  821   0.976   4.405   5.295 -1.3575 -0.0972  0.0584
    7MOL0     C  822   1.002   4.266   5.241 -0.6041 -0.5496  0.1515
    7MOL0     C  823   1.104   4.190   5.334  0.7236  0.0554 -0.0358
    7MOL0     C  824   1.124   4.048   5.272 -0.1809 -0.6289 -0.3590
    7MOL0     C  825   1.255   3.976   5.318 -0.4251  0.3456 -0.1627
    7MOL0     C  826   1.386   4.042   5.305 -0.0500  0.0103 -0.3878
    7MOL0     N  827   1.492   3.989   5.394  0.2198 -0.4160  0.7134
    7MOL0     C  828   1.554   3.869   5.374  0.4131 -0.0631  0.7383
    7MOL0     C  829   1.640   3.862   5.479  0.4377 -0.2905 -0.0790
    7MOL0     C  830   1.715   3.734   5.525  0.1958 -0.2622  0.0460
    7MOL0     C  831   1.862   3.748   5.501  0.1652  0.2097  0.4238
    7MOL0     C  832   1.942   3.854   5.593  0.1769  0.6767  0.6713
    7MOL0     C  833   2.084   3.861   5.549  0.0298  0.1545 -0.4915
    7MOL0     O  834   2.153   3.947   5.641  0.0307  0.6133  0.1750
    7MOL0     C  835   2.280   3.998   5.598 -0.2803  0.4983 -0.0101
    7MOL0     C  836   2.350   4.080   5.687  0.4561  0.1613  0.0787
    7MOL0     C  837   2.480   4.116   5.654 -0.2111  0.1845  0.0504
    7MOL0     C  838   2.547   4.082   5.538 -1.7496 -0.1102 -0.6261
    7MOL0     C  839   2.681   4.128   5.501  0.2044  0.4465 -0.3737
    7MOL0     O  840   2.719   4.125   5.369  1.0143  0.3436 -0.1432
    7MOL0     C  841   2.847   4.177   5.342 -0.4117 -0.3492 -0.3320
    7MOL0     C  842   2.923   4.282   5.402  1.0924  0.0143 -0.3168
    7MOL0     C  843   3.050   4.329   5.348 -0.0035 -0.1883  0.1122
    7MOL0     C  844   3.092   4.278   5.227 -0.2675  0.5582 -0.7053
    7MOL0     O  845   3.214   4.315   5.170 -0.2776  0.3579 -0.2241
    7MOL0     C  846   3.234   4.327   5.033  0.0982  0.9872  0.3870
    7MOL0     C  847   3.367   4.406   5.022 -0.8140 -0.7837  0.0333
    7MOL0     C  848   3.479   4.333   5.103  0.1169  0.1523  0.5318
    7MOL0     C  849   3.611   4.374   5.040 -0.0857 -0.2295  0.1497
    7MOL0     C  850   3.736   4.316   5.101 -0.0167 -0.1484  1.6980
    7MOL0     C  851   3.857   4.370   5.020  0.7924 -0.6682 -0.8239
    7MOL0     C  852   3.986   4.308   5.046  0.7667  0.7707  0.1253
    7MOL0     C  853   4.101   4.408   5.031 -0.7812 -1.7026 -0.6860
    7MOL0    Cl  854   4.081   4.505   4.870 -0.1359  0.0065 -0.3716
    7MOL0     C  855   3.027   4.166   5.173 -1.3701  0.1616 -0.1323
    7MOL0     C  856   2.903   4.119   5.225 -0.0075  0.0166  0.0330
    7MOL0     O  857   2.756   4.157   5.595  0.4985 -0.1745  0.4818
    7MOL0     C  858   2.476   4.002   5.450 -0.2335  0.2185 -0.3209
    7MOL0     C  859   2.346   3.952   5.485 -0.3792  0.4352 -0.2908
    7MOL0     N  860   1.636   3.980   5.550 -0.2570 -0.7272  0.2678
    7MOL0     N  861   1.551   4.065   5.490  0.2001  0.0704 -0.6155
    7MOL0     C  862   0.678   4.745   5.345  0.4515 -0.5382 -0.8206
    7MOL0     C  863   0.565   4.756   5.428  0.9017 -0.4467 -0.9678
    7MOL0     C  864   0.294   4.609   5.778  0.5871 -0.0212  0.4452
    7MOL0     C  865   0.274   4.496   5.848  0.0029  0.1966  0.3506
    7MOL0     C  866   0.166   4.476   5.936  0.3382 -0.2277  0.8340
    7MOL0     C  867   0.060   4.569   5.941  0.0050 -0.3795  0.9925
    7MOL0     O  868  -0.045   4.540   6.023  0.0257 -0.0120  0.2676
    7MOL0     C  869  -0.122   4.645   6.092 -0.4751  0.7894 -1.6186
    7MOL0     C  870  -0.269   4.639   6.047  0.9681 -0.2403 -0.5030
    7MOL0     C  871  -0.289   4.708   5.910  0.5836 -0.9598 -0.3900
    7MOL0     C  872  -0.437   4.686   5.854  0.5036  0.0227  0.4680
    7MOL0     C  873  -0.448   4.706   5.703  0.3738 -0.1480 -0.9435
    7MOL0     C  874  -0.456   4.728   5.586 -0.0764 -0.5689  0.1266
    7MOL0     C  875   0.078   4.690   5.865  0.6808  0.2254 -0.4901
    7MOL0     C  876   0.189   4.707   5.784 -0.8241 -0.0953  0.1961
    7MOL0     C  877   0.205   4.843   5.717  0.1679  0.3288 -0.6802
    7MOL0     H  878   0.736   4.709   5.723  2.3882  1.2405  0.0120
    7MOL0     H  879   0.920   4.675   5.568 -0.2823 -2.0505 -1.0362
    7MOL0     H  880   0.814   4.673   5.137  0.1752  1.6271  0.1890
    7MOL0     H  881   0.992   4.665   5.133 -0.6158  0.4280 -0.3502
    7MOL0     H  882   0.886   4.434   5.109  0.1743  1.1240  0.2415
    7MOL0     H  883   0.787   4.464   5.254  0.2526 -2.2682  0.9203
    7MOL0     H  884   0.928   4.391   5.392  0.0723 -0.8920  0.6819
    7MOL0     H  885   1.068   4.465   5.298 -0.9772 -0.6385 -0.5439
    7MOL0     H  886   0.908   4.211   5.242 -1.4868  0.8990 -0.3892
    7MOL0     H  887   1.037   4.275   5.138  1.8722  2.5713  1.0837
    7MOL0     H  888   1.198   4.246   5.339  0.9030 -0.3057  0.8543
    7MOL0     H  889   1.073   4.176   5.438  0.0392 -3.8020 -0.6029
    7MOL0     H  890   1.038   3.993   5.311 -0.2638  0.3604  0.9195
    7MOL0     H  891   1.123   4.063   5.164  0.4118  0.9807 -0.1743
    7MOL0     H  892   1.248   3.882   5.263  3.1552 -0.4072  0.4794
    7MOL0     H  893   1.241   3.947   5.423 -3.8015 -1.4530 -0.9456
    7MOL0     H  894   1.430   4.031   5.205  3.8758  0.0435  1.1744
    7MOL0     H  895   1.371   4.148   5.325 -2.0142 -0.3941  0.5648
    7MOL0     H  896   1.532   3.790   5.303 -2.5967  2.2748 -1.2099
    7MOL0     H  897   1.703   3.705   5.630 -0.5196  0.0507  0.0552
    7MOL0     H  898   1.690   3.654   5.455 -0.9244  1.6905 -1.9115
    7MOL0     H  899   1.910   3.651   5.514 -1.4317 -0.5743  0.6942
    7MOL0     H  900   1.871   3.773   5.395  0.3426 -0.1881  0.3459
    7MOL0     H  901   1.925   3.817   5.694 -1.2047 -1.5265 -0.2774
    7MOL0     H  902   1.897   3.953   5.584  0.6440  0.6904 -3.5471
    7MOL0     H  903   2.105   3.904   5.450  2.1159  0.2695 -0.0400
    7MOL0     H  904   2.128   3.761   5.552  0.3873  0.3299  0.8344
    7MOL0     H  905   2.306   4.123   5.776  2.6751  3.8824 -0.4021
    7MOL0     H  906   2.533   4.179   5.724 -0.4894 -1.5163  1.8898
    7MOL0     H  907   2.878   4.341   5.482  2.9047  4.2370 -2.0987
    7MOL0     H  908   3.104   4.411   5.394  0.7337 -0.6455  0.0715
    7MOL0     H  909   3.238   4.229   4.984  1.0538  1.3869 -0.3765
    7MOL0     H  910   3.155   4.383   4.982  0.2867  0.3209 -0.6721
    7MOL0     H  911   3.397   4.404   4.917  0.6069 -3.5150  0.4132
    7MOL0     H  912   3.350   4.508   5.058  2.5054 -0.8409  2.1798
    7MOL0     H  913   3.481   4.356   5.210  2.7776 -0.0959  0.5950
    7MOL0     H  914   3.481   4.225   5.082  0.5067  0.3267 -0.3750
    7MOL0     H  915   3.621   4.482   5.057  0.6239 -0.2946  0.1541
    7MOL0     H  916   3.611   4.367   4.931  3.1965  3.7823 -0.3579
    7MOL0     H  917   3.743   4.208   5.087  3.8525  0.1094  0.3545
    7MOL0     H  918   3.738   4.336   5.208  2.2940 -1.8877  2.0556
    7MOL0     H  919   3.837   4.374   4.912  0.4517  1.2433 -0.7295
    7MOL0     H  920   3.866   4.479   5.032  0.2695 -0.6858 -0.2275
    7MOL0     H  921   3.994   4.230   4.969 -1.6928  0.4546  0.0980
    7MOL0     H  922   3.987   4.260   5.144 -0.8784 -0.0764 -0.2259
    7MOL0     H  923   4.105   4.478   5.115  1.2056 -0.7645 -1.5074
    7MOL0     H  924   4.195   4.353   5.017  0.7047  0.6037 -0.1483
    7MOL0     H  925   3.080   4.113   5.094 -1.9234  1.5228 -1.4542
    7MOL0     H  926   2.836   4.047   5.180 -2.0130  1.2113  0.9405
    7MOL0     H  927   2.518   3.980   5.352 -0.0138  1.7276 -0.5974
    7MOL0     H  928   2.298   3.882   5.417  0.2641  0.0363 -0.3426
    7MOL0     H  929   0.667   4.784   5.244  1.7753  0.2426 -0.6854
    7MOL0     H  930   0.473   4.805   5.399  1.4437  2.9158  2.1749
    7MOL0     H  931   0.353   4.421   5.853  0.9629  1.0284 -1.3279
    7MOL0     H  932   0.169   4.392   6.004  2.5160  1.7771  3.4171
    7MOL0     H  933  -0.072   4.741   6.073  0.4326  0.4587 -0.9921
    7MOL0     H  934  -0.114   4.628   6.200  2.5564  3.7776 -1.2146
    7MOL0     H  935  -0.322   4.697   6.123  3.4303 -0.2156  1.3145
    7MOL0     H  936  -0.321   4.543   6.061 -0.0336  0.2513 -0.7808
    7MOL0     H  937  -0.222   4.666   5.834  0.9219 -0.6405 -0.2725
    7MOL0     H  938  -0.275   4.815   5.929  0.2513 -1.4014  2.8211
    7MOL0     H  939  -0.470   4.585   5.879 -0.0448 -0.6064 -2.3814
    7MOL0     H  940  -0.514   4.750   5.898  1.1207 -1.2911  3.6762
    7MOL0     H  941  -0.468   4.762   5.485  0.0339 -0.3841  0.1738
    7MOL0     H  942  -0.003   4.762   5.872  1.9379  1.9108 -2.2201
    7MOL0     H  943   0.114   4.891   5.680 -0.0883 -0.1772 -0.7138
    7MOL0     H  944   0.262   4.908   5.785 -0.6578  0.7345 -0.3717
    7MOL0     H  945   0.266   4.834   5.627 -0.1253 -2.5127 -0.7006
    8MOL0     O  946   1.643   8.515   2.706 -0.4024  0.5218 -0.7407
    8MOL0     C  947   1.589   8.514   2.596  1.0183  0.0047 -0.2994
    8MOL0     O  948   1.648   8.496   2.476  0.1779 -0.6969  0.2753
    8MOL0     C  949   1.784   8.517   2.473  0.1159  0.0195 -0.2507
    8MOL0     C  950   1.834   8.650   2.488  0.2900 -0.0794  0.3232
    8MOL0     C  951   1.972   8.668   2.504  0.5218  0.2207 -0.1593
    8MOL0     C  952   2.067   8.554   2.501  0.4941 -0.0416  0.3954
    8MOL0     O  953   2.203   8.564   2.525 -0.2318  0.4516 -0.1140
    8MOL0     C  954   2.277   8.647   2.436 -0.3920 -0.9229  0.0092
    8MOL0     C  955   2.390   8.731   2.491 -0.4483 -0.1288 -0.5622
    8MOL0     C  956   2.443   8.829   2.377 -0.5193  0.1680  0.0671
    8MOL0     C  957   2.594   8.829   2.347  0.9438  0.1764 -0.7324
    8MOL0     C  958   2.635   8.906   2.223  0.2129 -0.1417  0.3611
    8MOL0     C  959   2.789   8.897   2.192 -0.3998 -0.2694  0.6357
    8MOL0     C  960   2.826   8.998   2.089  0.3197 -0.3700  0.9641
    8MOL0     C  961   2.952   8.964   2.019 -0.7818 -0.2531 -0.5085
    8MOL0     N  962   2.944   8.848   1.930 -0.5529  0.7311 -0.2692
    8MOL0     C  963   2.975   8.720   1.963 -0.8811  0.1190  0.8448
    8MOL0     C  964   2.947   8.636   1.866 -0.0573  0.7965 -0.9762
    8MOL0     C  965   2.979   8.495   1.864  0.0983  0.4008  0.0053
    8MOL0     C  966   3.127   8.480   1.823 -0.6725 -0.1682  0.1266
    8MOL0     C  967   3.153   8.513   1.668  0.0023  0.3000 -0.9975
    8MOL0     C  968   3.302   8.519   1.636 -0.3531  0.1039 -0.5233
    8MOL0     O  969   3.369   8.631   1.690  0.9464  0.2693  0.1776
    8MOL0     C  970   3.494   8.596   1.721  0.3217  0.1611  0.0608
    8MOL0     C  971   3.535   8.608   1.855 -0.4090  0.2141 -0.4842
    8MOL0     C  972   3.658   8.567   1.902  0.5212  0.0337 -0.2949
    8MOL0     C  973   3.751   8.520   1.814 -0.6299 -1.0726  0.3728
    8MOL0     C  974   3.883   8.475   1.857  0.1587 -0.1467 -1.0858
    8MOL0     O  975   3.986   8.501   1.781 -1.3101  0.0170 -0.0544
    8MOL0     C  976   4.108   8.465   1.822 -0.5249  0.5511 -0.9203
    8MOL0     C  977   4.200   8.435   1.724 -0.1051  0.0412  0.7815
    8MOL0     C  978   4.332   8.400   1.749  0.1068  0.4249  0.4416
    8MOL0     C  979   4.385   8.397   1.880 -0.2213 -0.7001 -0.2207
    8MOL0     O  980   4.513   8.351   1.899 -0.0706 -0.6008 -0.3944
    8MOL0     C  981   4.596   8.449   1.958  0.3170  0.4491 -1.2285
    8MOL0     C  982   4.735   8.444   1.890  0.3835  0.1268 -0.3949
    8MOL0     C  983   4.818   8.327   1.922 -0.4838 -0.3700  0.7618
    8MOL0     C  984   4.880   8.334   2.063  0.4339  0.4624 -0.2753
    8MOL0     C  985   4.956   8.206   2.110 -0.9641  0.8995  0.3605
    8MOL0     C  986   5.100   8.200   2.055  0.0838  0.2789  0.1042
    8MOL0     C  987   5.183   8.309   2.106 -0.1008 -0.1682 -0.1731
    8MOL0     C  988   5.330   8.285   2.088  0.0369  0.8701 -0.4112
    8MOL0    Cl  989   5.365   8.289   1.909 -0.3381  0.1186 -0.0482
    8MOL0     C  990   4.295   8.428   1.986 -0.6280  0.3192 -0.0624
    8MOL0     C  991   4.160   8.465   1.959 -0.4505  0.4202  0.7618
    8MOL0     O  992   3.892   8.427   1.971  0.7184 -0.7253 -0.4715
    8MOL0     C  993   3.711   8.493   1.681  0.4131 -0.1826  1.0924
    8MOL0     C  994   3.583   8.534   1.637  0.7870  0.1974 -0.2752
    8MOL0     N  995   2.898   8.722   1.767 -0.2207  0.1125  0.8322
    8MOL0     N  996   2.886   8.847   1.805  0.7732 -0.2484 -0.6156
    8MOL0     C  997   2.005   8.424   2.475 -0.7351  0.6524  0.8136
    8MOL0     C  998   1.870   8.409   2.466  1.1181  0.0145  0.9947
    8MOL0     C  999   1.437   8.518   2.602 -0.8129  0.5291 -0.2889
    8MOL0     C 1000   1.374   8.487   2.477 -0.1216 -0.1240  0.1718
    8MOL0     C 1001   1.239   8.481   2.464 -0.3380  0.4733  0.9904
    8MOL0     C 1002   1.153   8.520   2.569  0.0959 -0.5599  0.6704
    8MOL0     O 1003   1.017   8.507   2.554 -0.2546 -0.1573  0.9707
    8MOL0     C 1004   0.933   8.572   2.649 -0.2947  0.0872 -0.7347
    8MOL0     C 1005   0.789   8.596   2.588 -0.4453 -0.2598  0.1706
    8MOL0     C 1006   0.702   8.684   2.678  1.3787  0.0567 -0.4812
    8MOL0     C 1007   0.550   8.716   2.629  0.0617 -0.0748 -0.5372
    8MOL0     C 1008   0.524   8.780   2.502  0.4697 -0.3144  0.0847
    8MOL0     C 1009   0.507   8.825   2.395  0.4154 -0.2576  1.1757
    8MOL0     C 1010   1.218   8.539   2.690  0.0113 -0.2603  0.2926
    8MOL0     C 1011   1.354   8.537   2.712  0.3002 -0.3038 -0.9550
    8MOL0     C 1012   1.414   8.560   2.857  0.3568 -0.0758 -0.6887
    8MOL0     H 1013   1.766   8.735   2.493  1.2798  0.7515 -0.1420
    8MOL0     H 1014   2.008   8.769   2.522  0.8810  0.3529 -1.4952
    8MOL0     H 1015   2.316   8.596   2.348  1.1081  0.3864 -0.1320
    8MOL0     H 1016   2.206   8.725   2.408 -1.0676 -1.0240  1.3729
    8MOL0     H 1017   2.469   8.664   2.529  0.8799  1.0555 -1.1525
    8MOL0     H 1018   2.360   8.790   2.577 -0.2563  0.2184 -0.7317
    8MOL0     H 1019   2.406   8.927   2.412 -0.0881  1.3349 -2.4962
    8MOL0     H 1020   2.394   8.795   2.285  0.4529  0.3604 -0.5305
    8MOL0     H 1021   2.637   8.870   2.439 -3.7544 -1.1286  2.4098
    8MOL0     H 1022   2.618   8.723   2.348  0.0809 -0.0517  1.4348
    8MOL0     H 1023   2.586   8.875   2.131 -1.3660 -0.2893  1.2079
    8MOL0     H 1024   2.610   9.008   2.252 -0.7200 -0.6948  1.6516
    8MOL0     H 1025   2.846   8.909   2.284  0.5551 -0.4700  0.0859
    8MOL0     H 1026   2.809   8.798   2.150 -1.5253 -0.1750 -0.1837
    8MOL0     H 1027   2.839   9.083   2.156  2.1406  2.0241 -2.1517
    8MOL0     H 1028   2.750   9.011   2.012 -0.2850 -0.0564  1.6010
    8MOL0     H 1029   2.983   9.046   1.954  0.6580 -2.7382 -3.2167
    8MOL0     H 1030   3.036   8.946   2.087  0.4570  1.8239 -1.4043
    8MOL0     H 1031   3.030   8.689   2.051 -1.4467 -2.2154  0.4512
    8MOL0     H 1032   2.959   8.463   1.966 -1.1879  2.3128  0.3959
    8MOL0     H 1033   2.905   8.442   1.804 -0.0859 -1.1637  1.5623
    8MOL0     H 1034   3.198   8.543   1.877 -0.2719  0.5436 -1.1758
    8MOL0     H 1035   3.141   8.374   1.842 -1.9362 -0.4662 -0.4755
    8MOL0     H 1036   3.096   8.601   1.637 -0.1723  0.6019  0.1333
    8MOL0     H 1037   3.115   8.420   1.624 -0.8478  1.1387 -2.1050
    8MOL0     H 1038   3.324   8.528   1.529  3.2960  5.2335  0.3080
    8MOL0     H 1039   3.339   8.423   1.673 -0.9734 -0.4507 -1.2860
    8MOL0     H 1040   3.459   8.647   1.922 -1.2750  1.1926 -1.9584
    8MOL0     H 1041   3.693   8.579   2.004  1.9590  1.9358 -0.9447
    8MOL0     H 1042   4.164   8.445   1.622  0.6196 -0.4188  0.4712
    8MOL0     H 1043   4.405   8.368   1.674  2.6264  1.9701  2.0985
    8MOL0     H 1044   4.546   8.544   1.934 -0.8608 -0.0559 -0.8610
    8MOL0     H 1045   4.601   8.436   2.066 -1.1896  1.0026 -1.0605
    8MOL0     H 1046   4.713   8.444   1.783 -2.7684  1.0368  0.1265
    8MOL0     H 1047   4.790   8.534   1.920  1.0567 -0.5785  0.5256
    8MOL0     H 1048   4.760   8.234   1.913  1.4788 -1.7083  1.2885
    8MOL0     H 1049   4.895   8.320   1.845 -1.8709 -0.7160 -0.6436
    8MOL0     H 1050   4.799   8.342   2.137  0.6334 -3.1253  0.5389
    8MOL0     H 1051   4.947   8.419   2.074  4.7811 -2.6602 -0.1330
    8MOL0     H 1052   4.902   8.119   2.070  2.7933 -2.0485  1.1890
    8MOL0     H 1053   4.941   8.212   2.218  2.1906  0.0422  0.9188
    8MOL0     H 1054   5.153   8.108   2.082  1.2906  0.7103 -0.7512
    8MOL0     H 1055   5.105   8.202   1.946 -1.3383  1.4294  0.0330
    8MOL0     H 1056   5.170   8.317   2.214  0.8278  0.5078 -0.1006
    8MOL0     H 1057   5.160   8.403   2.055 -2.9649 -0.4801  0.3646
    8MOL0     H 1058   5.403   8.347   2.141  1.6900 -1.4985  0.2493
    8MOL0     H 1059   5.354   8.185   2.128 -0.2898  0.0967 -2.0733
    8MOL0     H 1060   4.331   8.440   2.087  1.4985 -1.3707 -0.5564
    8MOL0     H 1061   4.110   8.496   2.051 -0.1222  0.9415  0.7665
    8MOL0     H 1062   3.763   8.435   1.606 -0.0673 -0.0517  0.6498
    8MOL0     H 1063   3.561   8.519   1.532  3.0725 -2.0418 -0.5451
    8MOL0     H 1064   2.066   8.338   2.452 -0.1275  0.5023  2.8517
    8MOL0     H 1065   1.826   8.313   2.444 -1.2963  1.1612  0.4970
    8MOL0     H 1066   1.437   8.467   2.391  0.9890  1.5530  0.5426
    8MOL0     H 1067   1.195   8.447   2.370 -1.4944  3.9096  0.1365
    8MOL0     H 1068   0.969   8.659   2.705  0.9447 -1.4161  0.8608
    8MOL0     H 1069   0.930   8.496   2.727 -1.9992  0.2721 -0.5845
    8MOL0     H 1070   0.733   8.502   2.581 -1.2958  0.1449  1.1914
    8MOL0     H 1071   0.785   8.635   2.486 -1.2238  0.5041  0.4853
    8MOL0     H 1072   0.755   8.779   2.694 -0.1930  0.9951 -0.6126
    8MOL0     H 1073   0.691   8.624   2.768 -1.4221 -1.3559 -1.6606
    8MOL0     H 1074   0.510   8.614   2.628  3.1450 -1.4022 -1.0688
    8MOL0     H 1075   0.490   8.775   2.699  2.5397 -2.6512  4.2587
    8MOL0     H 1076   0.479   8.867   2.300  0.5716  0.9403  1.6323
    8MOL0     H 1077   1.149   8.542   2.775  1.2658 -3.0828  1.5444
    8MOL0     H 1078   1.326   8.559   2.921 -0.0669 -0.2372 -1.2686
    8MOL0     H 1079   1.477   8.478   2.894  1.1489  1.1056  0.7233
    8MOL0     H 1080   1.466   8.654   2.877 -1.9686  1.1317  0.0448
    9MOL0     O 1081   7.571   6.798  10.890 -0.2353  0.0563  0.3709
    9MOL0     C 1082   7.670   6.781  10.815  0.1729  0.2667 -0.0479
    9MOL0     O 1083   7.674   6.687  10.712  0.0306 -0.2661  0.1182
    9MOL0     C 1084   7.563   6.609  10.702 -0.0535 -0.4428 -0.1535
    9MOL0     C 1085   7.466   6.661  10.618  0.2804  0.2049  0.0426
    9MOL0     C 1086   7.355   6.585  10.587  0.2684 -0.8589  0.1980
    9MOL0     C 1087   7.341   6.459  10.638  0.5567  0.1886  0.5486
    9MOL0     O 1088   7.240   6.381  10.593  0.8298 -0.0199  0.7038
    9MOL0     C 1089   7.142   6.341  10.694  0.9416  0.3043 -0.5827
    9MOL0     C 1090   7.028   6.248  10.637  0.5398  0.6294 -0.3586
    9MOL0     C 1091   7.073   6.106  10.587 -0.0043 -0.0644 -0.9360
    9MOL0     C 1092   7.108   6.019  10.711  0.1545  0.5516  0.0877
    9MOL0     C 1093   7.169   5.886  10.671 -0.7619  0.0303  0.4208
    9MOL0     C 1094   7.271   5.842  10.770 -0.0684  0.3463  0.0209
    9MOL0     C 1095   7.363   5.718  10.722  0.1091 -0.3822  0.1265
    9MOL0     C 1096   7.484   5.764  10.644 -0.2347  1.0157 -0.7355
    9MOL0     N 1097   7.575   5.851  10.724  0.5952  0.7060 -0.3109
    9MOL0     C 1098   7.666   5.805  10.810 -0.2934 -0.3776  0.7495
    9MOL0     C 1099   7.738   5.915  10.837 -1.6616 -0.7760 -0.7329
    9MOL0     C 1100   7.867   5.925  10.916  0.7189 -0.0954  0.5449
    9MOL0     C 1101   7.854   5.943  11.072  1.2825 -0.4659 -0.4084
    9MOL0     C 1102   7.986   5.960  11.141 -0.2000  0.2396  0.2857
    9MOL0     C 1103   8.031   5.809  11.157  0.1562 -0.0363  0.2464
    9MOL0     O 1104   8.112   5.786  11.283 -0.2611  0.1486 -1.0229
    9MOL0     C 1105   8.232   5.851  11.287  0.3745 -0.2495  0.3936
    9MOL0     C 1106   8.303   5.846  11.404 -0.9119  0.2754  0.1439
    9MOL0     C 1107   8.436   5.877  11.409  0.6088  0.3167  0.8841
    9MOL0     C 1108   8.503   5.936  11.295 -0.1221  0.0252 -0.2743
    9MOL0     C 1109   8.641   5.992  11.299  0.3960 -0.6630 -0.6294
    9MOL0     O 1110   8.696   6.015  11.424 -0.2418 -0.1077  0.3230
    9MOL0     C 1111   8.821   6.075  11.437  0.7742  0.5038  0.2146
    9MOL0     C 1112   8.915   6.017  11.517 -0.0336 -0.2073 -0.2410
    9MOL0     C 1113   9.050   6.065  11.531  1.0289 -0.2698  0.2050
    9MOL0     C 1114   9.081   6.187  11.470 -0.0024 -0.0295 -0.3781
    9MOL0     O 1115   9.210   6.222  11.475 -0.7155  0.0875 -0.4419
    9MOL0     C 1116   9.248   6.362  11.446  0.5293 -0.1656 -0.4700
    9MOL0     C 1117   9.401   6.372  11.451  0.0588  0.0273 -0.6927
    9MOL0     C 1118   9.469   6.294  11.337  0.1859 -0.1657  0.0024
    9MOL0     C 1119   9.609   6.253  11.366 -0.0170 -0.7800 -0.4650
    9MOL0     C 1120   9.670   6.163  11.265 -0.3021 -0.2209  0.9100
    9MOL0     C 1121   9.818   6.137  11.297 -0.1960  0.0719 -0.4538
    9MOL0     C 1122   9.877   6.055  11.183 -0.4480  0.0239 -0.2625
    9MOL0     C 1123  10.029   6.053  11.192 -0.5052 -0.0802 -0.1135
    9MOL0    Cl 1124  10.082   5.974  11.048  0.2061  0.3269 -0.0425
    9MOL0     C 1125   8.977   6.247  11.398  0.6624  0.5430 -0.1199
    9MOL0     C 1126   8.849   6.191  11.371 -1.1616  0.6691  0.2742
    9MOL0     O 1127   8.703   6.011  11.195 -0.3099  0.8225  0.7242
    9MOL0     C 1128   8.431   5.955  11.178  0.0780 -0.7719 -0.8984
    9MOL0     C 1129   8.304   5.899  11.171 -0.1206  0.4158 -0.4706
    9MOL0     N 1130   7.682   6.025  10.768 -0.5761 -0.7213  0.0339
    9MOL0     N 1131   7.578   5.988  10.700 -0.0096  0.2589  0.5193
    9MOL0     C 1132   7.449   6.403  10.700  0.0460 -0.0659 -1.4391
    9MOL0     C 1133   7.557   6.484  10.741 -0.4015  0.3948 -0.5260
    9MOL0     C 1134   7.785   6.869  10.821 -0.1658 -1.1699 -0.1560
    9MOL0     C 1135   7.812   6.920  10.945  0.0982 -0.1187  0.3754
    9MOL0     C 1136   7.923   7.009  10.957  0.0097 -1.3863  0.5927
    9MOL0     C 1137   7.997   7.054  10.847 -0.6698 -1.1990  0.4019
    9MOL0     O 1138   8.093   7.157  10.869 -0.0840 -0.2562  0.2404
    9MOL0     C 1139   8.178   7.205  10.770  0.3688  0.2777  1.0578
    9MOL0     C 1140   8.282   7.288  10.841  0.2326  0.1969  0.8885
    9MOL0     C 1141   8.396   7.314  10.752 -0.3848 -0.3257 -0.0988
    9MOL0     C 1142   8.535   7.322  10.829  0.0571  0.1109 -0.4517
    9MOL0     C 1143   8.563   7.447  10.904  0.1099  0.4396  0.4563
    9MOL0     C 1144   8.581   7.543  10.979  0.2791 -1.1344 -0.5199
    9MOL0     C 1145   7.969   7.003  10.718 -0.0443  0.3561  0.0775
    9MOL0     C 1146   7.854   6.916  10.707 -0.6357 -0.2529  0.2006
    9MOL0     C 1147   7.828   6.860  10.566  0.2140 -0.4371 -0.0563
    9MOL0     H 1148   7.472   6.760  10.574  2.7628  0.0964  0.0016
    9MOL0     H 1149   7.273   6.613  10.521 -1.3535 -0.5661  2.2564
    9MOL0     H 1150   7.190   6.285  10.775 -1.0292  0.4869  0.7956
    9MOL0     H 1151   7.093   6.430  10.736 -1.0696 -1.2801  0.6224
    9MOL0     H 1152   6.985   6.300  10.551 -0.0236  0.6889 -0.0471
    9MOL0     H 1153   6.951   6.234  10.713 -0.4298  2.0214 -1.0521
    9MOL0     H 1154   7.160   6.118  10.523 -0.3191 -1.1440 -1.5891
    9MOL0     H 1155   6.992   6.062  10.527 -1.4779  2.2147 -0.7468
    9MOL0     H 1156   7.189   6.069  10.764  0.7884 -2.2949  2.0557
    9MOL0     H 1157   7.018   6.005  10.772  1.5902  1.0202  2.4118
    9MOL0     H 1158   7.093   5.815  10.637 -1.5766  0.9093  0.3719
    9MOL0     H 1159   7.234   5.912  10.587 -1.2162  0.9377  0.3343
    9MOL0     H 1160   7.332   5.928  10.802 -0.6600  0.4399  0.9375
    9MOL0     H 1161   7.208   5.816  10.856 -1.7566  1.4224 -0.8544
    9MOL0     H 1162   7.309   5.638  10.670  0.4530 -1.0955  0.8544
    9MOL0     H 1163   7.391   5.672  10.817 -1.4261  0.9994  1.2955
    9MOL0     H 1164   7.533   5.677  10.601 -2.4447 -2.1470  2.5509
    9MOL0     H 1165   7.450   5.821  10.557  1.3465  0.8133 -1.5066
    9MOL0     H 1166   7.693   5.703  10.834 -0.0972 -1.7403 -4.0889
    9MOL0     H 1167   7.935   5.842  10.895  2.1821  1.7841 -3.0685
    9MOL0     H 1168   7.909   6.020  10.880 -0.5115 -0.0630 -0.8797
    9MOL0     H 1169   7.804   6.039  11.092  2.9500  0.5960 -1.0706
    9MOL0     H 1170   7.788   5.869  11.118 -0.2179 -0.0790 -1.8497
    9MOL0     H 1171   7.982   6.009  11.239 -2.6616  0.6852  0.0154
    9MOL0     H 1172   8.066   6.011  11.088  0.8287 -2.0322 -0.4708
    9MOL0     H 1173   8.078   5.787  11.061 -1.0988  2.6827 -1.0896
    9MOL0     H 1174   7.953   5.733  11.157  0.4152 -0.3053  0.1838
    9MOL0     H 1175   8.250   5.807  11.490  2.4389  2.8062  3.7495
    9MOL0     H 1176   8.480   5.857  11.507  1.6363  1.8660  0.7746
    9MOL0     H 1177   8.888   5.923  11.566 -1.4653 -1.1342 -2.6217
    9MOL0     H 1178   9.124   6.008  11.587  2.6949  1.0481 -0.5754
    9MOL0     H 1179   9.210   6.394  11.348 -1.8305  0.6875  0.6472
    9MOL0     H 1180   9.214   6.431  11.524  3.1141  4.2592 -2.8635
    9MOL0     H 1181   9.427   6.477  11.433  2.4761 -0.6027 -1.2312
    9MOL0     H 1182   9.449   6.342  11.545  2.3202 -1.0838 -2.1192
    9MOL0     H 1183   9.412   6.201  11.325  3.2999 -2.3284  0.7711
    9MOL0     H 1184   9.466   6.361  11.251  0.3984  1.6357  1.3333
    9MOL0     H 1185   9.601   6.192  11.456 -2.6104  0.9788  0.6225
    9MOL0     H 1186   9.669   6.343  11.377 -1.6740  0.5419 -1.7160
    9MOL0     H 1187   9.672   6.223  11.173 -0.1942 -0.9232  0.4483
    9MOL0     H 1188   9.614   6.074  11.234  2.2678 -1.8943  0.7840
    9MOL0     H 1189   9.862   6.234  11.321  1.0257 -0.1843 -1.5423
    9MOL0     H 1190   9.810   6.070  11.383 -1.2556 -1.1050 -1.4282
    9MOL0     H 1191   9.844   6.100  11.088 -3.5589 -0.4236  0.5031
    9MOL0     H 1192   9.848   5.950  11.186  1.4647 -0.7119  5.9445
    9MOL0     H 1193  10.061   6.157  11.182  1.1517 -0.5454 -0.0154
    9MOL0     H 1194  10.077   6.012  11.282  2.0972  0.6443 -1.0669
    9MOL0     H 1195   8.977   6.343  11.347 -2.4690  0.5013 -0.4329
    9MOL0     H 1196   8.781   6.242  11.304 -2.6168 -1.7943 -0.2131
    9MOL0     H 1197   8.469   6.019  11.100  1.8961 -1.3320 -0.5122
    9MOL0     H 1198   8.253   5.908  11.075 -1.3609  0.5388  0.1770
    9MOL0     H 1199   7.446   6.301  10.737  0.0369  0.8852  1.4602
    9MOL0     H 1200   7.639   6.443  10.800 -0.1811 -1.5596 -2.0947
    9MOL0     H 1201   7.756   6.889  11.033  1.0660 -1.4349  0.5557
    9MOL0     H 1202   7.950   7.044  11.057  1.4292  0.7057 -0.4495
    9MOL0     H 1203   8.113   7.259  10.701  1.1293  0.1666  0.2387
    9MOL0     H 1204   8.221   7.117  10.721  1.1398  1.1581  0.1214
    9MOL0     H 1205   8.321   7.236  10.928  1.2684 -0.9629 -0.2271
    9MOL0     H 1206   8.246   7.382  10.885  1.9102  1.3250 -0.0235
    9MOL0     H 1207   8.386   7.410  10.701  0.4275 -0.9056 -1.4134
    9MOL0     H 1208   8.394   7.237  10.675  0.0134  1.2503 -1.7477
    9MOL0     H 1209   8.550   7.242  10.901  1.4771  0.4297 -0.3638
    9MOL0     H 1210   8.606   7.320  10.745  0.6989 -0.3531  0.0889
    9MOL0     H 1211   8.573   7.633  11.038 -2.0532 -2.4321  1.3098
    9MOL0     H 1212   8.021   7.039  10.630  2.3057  1.1515  1.7022
    9MOL0     H 1213   7.871   6.925  10.489 -2.6826  0.5975 -0.9030
    9MOL0     H 1214   7.879   6.763  10.559  1.0877  0.0508 -0.5681
    9MOL0     H 1215   7.722   6.856  10.541 -0.5531  2.2229  2.2932
   10MOL0     O 1216  10.885  10.270   4.132 -0.1442  0.5508 -0.2523
   10MOL0     C 1217  10.845  10.155   4.148 -0.5201  0.0389  0.5878
   10MOL0     O 1218  10.903  10.069   4.235  0.1055  0.0444 -0.2707
   10MOL0     C 1219  11.016  10.099   4.312 -1.2374 -0.5942  0.2321
   10MOL0     C 1220  11.119  10.002   4.320 -0.2412  0.3507 -1.1070
   10MOL0     C 1221  11.240  10.029   4.390  0.4771 -0.1766 -0.0659
   10MOL0     C 1222  11.255  10.142   4.466 -0.5348 -0.0807 -0.9415
   10MOL0     O 1223  11.378  10.144   4.534  0.0125  1.1559  0.0897
   10MOL0     C 1224  11.394  10.221   4.651 -0.1888  0.0241 -0.3735
   10MOL0     C 1225  11.476  10.355   4.624  0.3408  0.1533  0.6113
   10MOL0     C 1226  11.598  10.333   4.536 -0.0822  0.1603  0.2259
   10MOL0     C 1227  11.665  10.464   4.519 -0.8096 -0.4758 -1.1491
   10MOL0     C 1228  11.802  10.430   4.455  0.2133  0.4836  0.2173
   10MOL0     C 1229  11.874  10.560   4.398  0.7839 -0.5113 -0.0623
   10MOL0     C 1230  12.028  10.531   4.401 -0.3416 -0.2905  0.0240
   10MOL0     C 1231  12.091  10.651   4.315 -0.5795  0.1594 -1.0620
   10MOL0     N 1232  12.238  10.628   4.304  0.9816  1.1101 -0.1347
   10MOL0     C 1233  12.334  10.720   4.300  0.1402  0.8295 -0.0844
   10MOL0     C 1234  12.445  10.649   4.284 -0.7109  0.2888 -0.9411
   10MOL0     C 1235  12.586  10.709   4.257  0.0054 -0.1249 -0.3722
   10MOL0     C 1236  12.682  10.591   4.211 -0.4337 -0.2608 -0.5010
   10MOL0     C 1237  12.827  10.629   4.218 -0.9263 -0.3366 -0.1283
   10MOL0     C 1238  12.917  10.525   4.154 -0.3190 -0.2271  0.1043
   10MOL0     O 1239  13.047  10.573   4.137 -0.0348  0.0795  0.7625
   10MOL0     C 1240  13.147  10.559   4.231 -0.2179 -0.7404  0.5610
   10MOL0     C 1241  13.273  10.596   4.192  0.9516 -0.6300  0.2439
   10MOL0     C 1242  13.376  10.599   4.281  0.1985 -0.2779 -1.0270
   10MOL0     C 1243  13.352  10.557   4.409  0.4065 -0.2269 -0.5604
   10MOL0     C 1244  13.458  10.531   4.504 -0.0966  0.2107  0.2507
   10MOL0     O 1245  13.581  10.541   4.452  0.1800  0.0309 -0.1466
   10MOL0     C 1246  13.682  10.528   4.545 -0.1153  0.3863 -1.4616
   10MOL0     C 1247  13.734  10.398   4.570  0.1977  0.7264  0.4797
   10MOL0     C 1248  13.856  10.386   4.643 -1.1988  0.1812  0.3209
   10MOL0     C 1249  13.906  10.493   4.714 -0.1552 -0.2627 -0.3017
   10MOL0     O 1250  14.025  10.472   4.782 -0.0219  0.2692  0.0174
   10MOL0     C 1251  14.094  10.596   4.831  0.2448 -0.4502 -0.2355
   10MOL0     C 1252  14.240  10.565   4.876 -0.7676 -0.5459 -1.0690
   10MOL0     C 1253  14.323  10.485   4.768  0.0211 -0.7873  0.0741
   10MOL0     C 1254  14.325  10.566   4.634  0.9009 -0.9448  0.2943
   10MOL0     C 1255  14.425  10.511   4.525  0.5338  0.1108 -0.8328
   10MOL0     C 1256  14.559  10.553   4.566  0.0171  0.0410  0.1849
   10MOL0     C 1257  14.662  10.554   4.452  0.1913  0.2959 -0.1029
   10MOL0     C 1258  14.808  10.592   4.490  0.0550  0.3184  0.6835
   10MOL0    Cl 1259  14.886  10.481   4.615  0.1036  0.3004  0.3700
   10MOL0     C 1260  13.842  10.618   4.699 -0.1588  0.0164  0.1889
   10MOL0     C 1261  13.740  10.638   4.607  1.0746  0.0957  0.5766
   10MOL0     O 1262  13.422  10.517   4.622 -0.5671 -0.3004  0.2566
   10MOL0     C 1263  13.221  10.515   4.445 -0.4819  0.5757 -1.0659
   10MOL0     C 1264  13.114  10.519   4.357  0.3037  0.1526  0.3351
   10MOL0     N 1265  12.418  10.514   4.285  0.0831 -0.1168 -0.2531
   10MOL0     N 1266  12.289  10.503   4.307 -0.1146 -0.7029 -0.2690
   10MOL0     C 1267  11.150  10.235   4.466 -0.2550 -0.0354 -1.0692
   10MOL0     C 1268  11.033  10.215   4.389  0.1046  0.7845 -0.5117
   10MOL0     C 1269  10.716  10.114   4.096  0.5373  0.7968 -0.0851
   10MOL0     C 1270  10.688   9.974   4.090  0.0017 -0.8367 -0.2587
   10MOL0     C 1271  10.567   9.922   4.044  0.2259 -0.0608 -0.7582
   10MOL0     C 1272  10.471  10.003   3.984  0.2505  0.6281 -0.7789
   10MOL0     O 1273  10.364   9.946   3.924 -0.5456  0.2884 -0.0005
   10MOL0     C 1274  10.254  10.029   3.876  0.2173 -0.8432 -0.1282
   10MOL0     C 1275  10.121   9.939   3.874 -0.2164 -0.2664  0.4452
   10MOL0     C 1276  10.148   9.799   3.824 -0.2778 -0.5648  0.5591
   10MOL0     C 1277  10.023   9.731   3.774  0.1510 -0.2894  0.6935
   10MOL0     C 1278   9.928   9.715   3.886  0.4789  0.2435  0.3853
   10MOL0     C 1279   9.854   9.688   3.977 -0.5120 -0.6422  0.3702
   10MOL0     C 1280  10.497  10.140   3.975  0.6798  0.4738 -0.7453
   10MOL0     C 1281  10.617  10.199   4.032  0.1359  0.7286  0.7683
   10MOL0     C 1282  10.641  10.348   4.031 -0.6580  0.3155 -0.1376
   10MOL0     H 1283  11.102   9.903   4.281  4.0853 -1.6663  1.3826
   10MOL0     H 1284  11.314   9.950   4.394  0.3964 -0.2070  0.8982
   10MOL0     H 1285  11.294  10.251   4.684 -0.7796 -0.9985 -1.1643
   10MOL0     H 1286  11.448  10.154   4.719  2.5914  1.6067 -0.8586
   10MOL0     H 1287  11.499  10.401   4.720  1.1968  0.3826  0.3150
   10MOL0     H 1288  11.406  10.420   4.571 -0.1966 -0.8140  0.0963
   10MOL0     H 1289  11.575  10.284   4.440  0.2771  0.3591  0.0370
   10MOL0     H 1290  11.658  10.253   4.581  0.8695  2.2255  2.8503
   10MOL0     H 1291  11.614  10.527   4.446  1.2038  1.2661 -1.1583
   10MOL0     H 1292  11.682  10.512   4.616  1.5203 -2.2558 -0.5627
   10MOL0     H 1293  11.867  10.391   4.533 -0.6815 -0.8930  0.3158
   10MOL0     H 1294  11.797  10.359   4.372  1.0619  1.7700 -0.9978
   10MOL0     H 1295  11.844  10.582   4.295  2.9706  1.5039 -0.3730
   10MOL0     H 1296  11.859  10.646   4.464  0.4191  0.1097 -0.9294
   10MOL0     H 1297  12.053  10.439   4.348 -0.2354 -1.0160  1.2999
   10MOL0     H 1298  12.062  10.516   4.503  1.7569  1.0440 -0.4291
   10MOL0     H 1299  12.044  10.667   4.218  0.5364  0.8703 -1.5066
   10MOL0     H 1300  12.060  10.739   4.372 -3.3271 -0.3011 -1.7041
   10MOL0     H 1301  12.321  10.827   4.311  1.6332  0.9357  1.0522
   10MOL0     H 1302  12.586  10.795   4.190  0.7231 -0.0001 -0.2176
   10MOL0     H 1303  12.625  10.740   4.355 -0.6900 -1.0152  0.2062
   10MOL0     H 1304  12.667  10.514   4.287 -0.6967 -1.5719 -1.8340
   10MOL0     H 1305  12.655  10.565   4.108 -0.6411  0.0370 -0.5224
   10MOL0     H 1306  12.856  10.648   4.322 -0.7398 -0.1731 -0.2102
   10MOL0     H 1307  12.837  10.725   4.167 -1.5948  0.4802  1.2267
   10MOL0     H 1308  12.871  10.501   4.057 -2.1001 -0.7069  1.0182
   10MOL0     H 1309  12.924  10.429   4.207 -2.8959 -0.7313 -0.3137
   10MOL0     H 1310  13.288  10.632   4.090  3.5879  2.2508  1.5169
   10MOL0     H 1311  13.476  10.609   4.238  0.2463 -0.9156 -1.0729
   10MOL0     H 1312  13.700  10.307   4.522  4.9540 -0.9068 -0.2771
   10MOL0     H 1313  13.897  10.286   4.652 -0.2643  0.4329 -0.8726
   10MOL0     H 1314  14.088  10.677   4.758 -0.7005  1.6128  1.9829
   10MOL0     H 1315  14.045  10.636   4.921 -2.3478 -0.5600 -1.5032
   10MOL0     H 1316  14.279  10.660   4.913 -3.0986  1.3958 -3.2293
   10MOL0     H 1317  14.242  10.488   4.954  0.4414  1.8883  1.4440
   10MOL0     H 1318  14.426  10.465   4.800 -0.2966 -1.5411  0.6630
   10MOL0     H 1319  14.265  10.394   4.756 -0.2135 -0.5522 -0.6393
   10MOL0     H 1320  14.348  10.669   4.661  0.0367 -1.1706  2.0112
   10MOL0     H 1321  14.224  10.563   4.591  1.1953 -1.9236 -0.3803
   10MOL0     H 1322  14.399  10.552   4.426 -0.7553 -0.5112 -0.7782
   10MOL0     H 1323  14.425  10.402   4.517 -1.7274  0.0344 -0.4923
   10MOL0     H 1324  14.548  10.652   4.611 -0.2652 -0.9201  2.3825
   10MOL0     H 1325  14.601  10.488   4.643 -1.5853 -0.3769  0.7367
   10MOL0     H 1326  14.619  10.620   4.375  3.0517  0.5091 -1.6837
   10MOL0     H 1327  14.673  10.455   4.407  0.6961 -0.3895  1.4762
   10MOL0     H 1328  14.871  10.576   4.402 -2.4454 -0.5890 -1.0643
   10MOL0     H 1329  14.808  10.697   4.519  3.3549  0.3631  0.8823
   10MOL0     H 1330  13.862  10.711   4.750 -1.4553  0.7131 -0.5384
   10MOL0     H 1331  13.703  10.738   4.586 -0.3546 -0.6240 -0.5430
   10MOL0     H 1332  13.203  10.460   4.538 -3.6808 -1.2411 -2.5679
   10MOL0     H 1333  13.020  10.495   4.405  0.4571 -0.6062  0.2789
   10MOL0     H 1334  11.172  10.325   4.523  0.1119 -1.1179  0.5609
   10MOL0     H 1335  10.958  10.294   4.391 -0.8173  0.0181 -2.2258
   10MOL0     H 1336  10.757   9.900   4.129 -0.2195 -2.9046 -3.4473
   10MOL0     H 1337  10.554   9.815   4.061 -0.7404  0.3704  1.7359
   10MOL0     H 1338  10.281  10.073   3.779  1.3890  2.2242  1.4576
   10MOL0     H 1339  10.228  10.110   3.945  0.8368  1.0250 -1.9954
   10MOL0     H 1340  10.050   9.987   3.807  0.6903 -1.9490 -1.8437
   10MOL0     H 1341  10.084   9.939   3.977 -0.6290  0.9394  0.3178
   10MOL0     H 1342  10.193   9.731   3.898  1.0391 -2.9095 -2.1847
   10MOL0     H 1343  10.220   9.809   3.743 -0.5879 -3.2297 -0.1643
   10MOL0     H 1344   9.969   9.788   3.697  1.3626 -1.3496 -0.9981
   10MOL0     H 1345  10.037   9.635   3.723 -1.0417 -0.3739  0.4937
   10MOL0     H 1346   9.793   9.669   4.063 -3.9754 -0.1421 -1.7607
   10MOL0     H 1347  10.424  10.208   3.932 -0.4730 -1.2169 -1.5800
   10MOL0     H 1348  10.651  10.380   4.135 -0.2859 -0.9705  0.2287
   10MOL0     H 1349  10.729  10.374   3.972 -0.8434  1.6366  0.1373
   10MOL0     H 1350  10.552  10.403   3.998 -3.4177 -1.7265  3.2821
   11MOL0     O 1351   0.425  10.276   3.215  0.1204  0.3459  0.0502
   11MOL0     C 1352   0.320  10.294   3.283  0.6227  0.0827 -0.5775
   11MOL0     O 1353   0.310  10.384   3.385  0.8190 -0.1195 -0.2285
   11MOL0     C 1354   0.413  10.450   3.439 -0.1268 -0.1977  0.4464
   11MOL0     C 1355   0.442  10.583   3.399 -0.3270 -0.1036 -0.7370
   11MOL0     C 1356   0.550  10.641   3.461  0.0764 -0.2864  0.3385
   11MOL0     C 1357   0.635  10.572   3.545 -0.0116 -1.0751 -0.2320
   11MOL0     O 1358   0.747  10.635   3.602  0.9762  0.0679 -0.2355
   11MOL0     C 1359   0.869  10.657   3.527 -0.0709  0.5376 -0.1378
   11MOL0     C 1360   0.937  10.537   3.465  0.5431  0.2453 -0.5313
   11MOL0     C 1361   0.876  10.475   3.336 -0.1494 -0.4000  0.2668
   11MOL0     C 1362   0.870  10.577   3.210 -0.6622  0.5056 -0.4075
   11MOL0     C 1363   0.792  10.535   3.089 -0.2121 -0.0270 -0.4143
   11MOL0     C 1364   0.846  10.397   3.038  0.4098 -0.9742  0.3274
   11MOL0     C 1365   0.802  10.387   2.891  0.0499  0.1892 -0.2249
   11MOL0     C 1366   0.806  10.241   2.843 -0.2629  0.0786 -0.1633
   11MOL0     N 1367   0.795  10.240   2.702  0.4014 -0.3368  0.4032
   11MOL0     C 1368   0.676  10.236   2.634  0.4079  0.6625 -0.8288
   11MOL0     C 1369   0.706  10.288   2.510  1.3893  0.8889  0.0525
   11MOL0     C 1370   0.608  10.302   2.399  0.1242  0.3859  0.8424
   11MOL0     C 1371   0.567  10.449   2.397  0.0024  0.4939 -0.2399
   11MOL0     C 1372   0.485  10.474   2.275  0.2840 -0.1065  0.6393
   11MOL0     C 1373   0.401  10.602   2.292  0.4404  0.1831  0.0110
   11MOL0     O 1374   0.389  10.655   2.158 -0.8998 -0.3541  0.1060
   11MOL0     C 1375   0.304  10.757   2.130  0.1272 -0.5225 -0.1891
   11MOL0     C 1376   0.306  10.835   2.010  0.5251 -0.3624  0.7254
   11MOL0     C 1377   0.213  10.936   1.985  0.3299  0.0222  0.5631
   11MOL0     C 1378   0.121  10.983   2.085  0.4406  0.6395 -0.1945
   11MOL0     C 1379   0.034  11.097   2.073  0.1762 -0.6247 -0.1691
   11MOL0     O 1380   0.079  11.190   1.983  0.2687 -0.0628 -0.0452
   11MOL0     C 1381   0.005  11.307   1.951 -0.1012  0.5759  0.0688
   11MOL0     C 1382  -0.105  11.360   2.016 -0.6824  0.1348 -0.9403
   11MOL0     C 1383  -0.159  11.482   1.978 -1.0454 -0.1941  0.7950
   11MOL0     C 1384  -0.108  11.555   1.866  0.2542 -0.9844 -0.5858
   11MOL0     O 1385  -0.168  11.674   1.833 -0.3850  0.4572 -0.6735
   11MOL0     C 1386  -0.138  11.754   1.724  0.3917  0.4880  0.5801
   11MOL0     C 1387  -0.269  11.814   1.673 -1.1665  0.1112 -0.3415
   11MOL0     C 1388  -0.346  11.897   1.778  0.8424 -0.3062  0.0080
   11MOL0     C 1389  -0.473  11.977   1.719  0.1592  0.3964 -0.1520
   11MOL0     C 1390  -0.559  12.032   1.826  0.0332 -0.5374 -0.4743
   11MOL0     C 1391  -0.691  12.102   1.771 -0.7723  0.1313  0.4274
   11MOL0     C 1392  -0.785  12.137   1.885  0.4350 -0.2785 -0.2249
   11MOL0     C 1393  -0.924  12.181   1.848  0.0645 -0.9711  0.9177
   11MOL0    Cl 1394  -0.993  12.061   1.736 -0.0964  0.1805 -0.1085
   11MOL0     C 1395   0.001  11.504   1.802  0.4136  0.4698 -0.2194
   11MOL0     C 1396   0.055  11.373   1.832  0.0853 -0.5054 -1.3396
   11MOL0     O 1397  -0.072  11.104   2.138  0.0491  0.1947  0.3198
   11MOL0     C 1398   0.119  10.903   2.196 -0.1363  0.0726 -0.0520
   11MOL0     C 1399   0.205  10.792   2.218 -0.2881  0.7884  0.8312
   11MOL0     N 1400   0.844  10.306   2.501  0.3484 -0.2017  0.2947
   11MOL0     N 1401   0.890  10.284   2.620  0.3674 -0.7540 -0.2571
   11MOL0     C 1402   0.612  10.441   3.576  0.9530  0.4685 -0.2811
   11MOL0     C 1403   0.496  10.376   3.528  0.1337 -0.9798 -0.0532
   11MOL0     C 1404   0.205  10.195   3.271 -0.4428  0.0315  0.2180
   11MOL0     C 1405   0.081  10.257   3.267  0.1097 -0.7426 -0.3568
   11MOL0     C 1406  -0.037  10.186   3.241 -0.1520 -0.4513  1.0432
   11MOL0     C 1407  -0.032  10.044   3.231  0.6765  1.5628  0.2563
   11MOL0     O 1408  -0.149   9.965   3.227 -0.3604  0.5253 -0.1887
   11MOL0     C 1409  -0.267  10.031   3.263  0.2330 -1.4883  0.3229
   11MOL0     C 1410  -0.375   9.923   3.248 -0.2715 -0.4766  0.7968
   11MOL0     C 1411  -0.378   9.805   3.345  0.1885  0.0546 -0.4647
   11MOL0     C 1412  -0.511   9.735   3.358  0.0164 -0.3203 -0.9943
   11MOL0     C 1413  -0.583   9.693   3.239 -0.0875 -0.1182 -0.0399
   11MOL0     C 1414  -0.662   9.650   3.150  0.2458 -0.7355  0.3771
   11MOL0     C 1415   0.091   9.980   3.245 -0.7588  0.3366  0.1733
   11MOL0     C 1416   0.217  10.047   3.260 -0.2736  0.3696  0.8817
   11MOL0     C 1417   0.347   9.969   3.265 -0.0266 -0.5552 -0.3075
   11MOL0     H 1418   0.377  10.621   3.320  0.5882  1.6110 -0.7029
   11MOL0     H 1419   0.566  10.748   3.448 -0.0116  0.2351  3.6197
   11MOL0     H 1420   0.863  10.744   3.460  1.6329  0.1660 -0.8285
   11MOL0     H 1421   0.942  10.696   3.599 -0.4330  0.9185  0.0270
   11MOL0     H 1422   0.932  10.459   3.541 -2.1813  1.2557  0.4414
   11MOL0     H 1423   1.042  10.560   3.448  0.4423  2.4989  1.3105
   11MOL0     H 1424   0.772  10.446   3.357 -0.8781  1.2523 -0.8620
   11MOL0     H 1425   0.930  10.383   3.313  0.6368  0.5094 -1.6685
   11MOL0     H 1426   0.839  10.668   3.262  2.9394  1.2356  0.7249
   11MOL0     H 1427   0.975  10.579   3.179 -0.0314 -0.7374  1.4587
   11MOL0     H 1428   0.685  10.527   3.114 -0.2299 -1.0236 -0.7709
   11MOL0     H 1429   0.800  10.608   3.007 -1.5616 -1.6219 -2.0754
   11MOL0     H 1430   0.953  10.400   3.059 -0.2143 -0.8090  4.3147
   11MOL0     H 1431   0.803  10.320   3.102  0.7649 -0.2213  1.5154
   11MOL0     H 1432   0.872  10.443   2.827  0.4131 -0.9726 -0.8762
   11MOL0     H 1433   0.702  10.431   2.878  1.4432  3.4695 -1.0545
   11MOL0     H 1434   0.901  10.189   2.856  2.1750  4.6061  2.9509
   11MOL0     H 1435   0.724  10.183   2.886  0.0431 -1.2976 -1.3613
   11MOL0     H 1436   0.579  10.199   2.666  1.4933 -1.2398  0.4222
   11MOL0     H 1437   0.657  10.283   2.303  1.7110  0.5513  1.5770
   11MOL0     H 1438   0.523  10.234   2.404 -0.0368  0.5933  0.9865
   11MOL0     H 1439   0.501  10.469   2.483 -0.4964  2.5991 -1.0468
   11MOL0     H 1440   0.652  10.517   2.397 -1.9386  3.1565  1.8423
   11MOL0     H 1441   0.412  10.393   2.262 -2.0747  1.3039  3.7316
   11MOL0     H 1442   0.551  10.470   2.188 -0.6970 -0.4807 -0.1073
   11MOL0     H 1443   0.445  10.682   2.353 -0.7697  1.9683 -1.3462
   11MOL0     H 1444   0.306  10.571   2.335  1.3885 -0.3618  1.8144
   11MOL0     H 1445   0.389  10.807   1.946 -1.9807 -3.0656 -1.6756
   11MOL0     H 1446   0.221  10.993   1.893 -2.2745  1.5538  1.1767
   11MOL0     H 1447  -0.163  11.318   2.098 -0.4563  3.0311  0.8296
   11MOL0     H 1448  -0.260  11.512   2.003 -1.0707  0.1065  0.3319
   11MOL0     H 1449  -0.062  11.824   1.758  2.7349 -1.9528  0.6588
   11MOL0     H 1450  -0.092  11.698   1.642 -0.5228 -1.0118  1.0447
   11MOL0     H 1451  -0.243  11.887   1.596 -0.2401  0.2748  0.1135
   11MOL0     H 1452  -0.330  11.734   1.630 -0.6927 -1.4316  1.7134
   11MOL0     H 1453  -0.376  11.832   1.860  0.6138 -0.1274  0.0671
   11MOL0     H 1454  -0.280  11.970   1.827 -0.1440  0.6858 -0.1123
   11MOL0     H 1455  -0.534  11.913   1.654 -1.7539  1.2677  0.6925
   11MOL0     H 1456  -0.443  12.046   1.640 -1.5957  2.9638  1.2729
   11MOL0     H 1457  -0.499  12.100   1.888 -1.0452 -0.7310  0.8187
   11MOL0     H 1458  -0.583  11.950   1.893 -0.1677  0.4989  0.7560
   11MOL0     H 1459  -0.664  12.186   1.707 -0.5531 -0.6348 -0.5132
   11MOL0     H 1460  -0.731  12.032   1.696 -1.1158  0.5360  0.2292
   11MOL0     H 1461  -0.736  12.208   1.953  2.1700 -1.3928 -0.2386
   11MOL0     H 1462  -0.800  12.041   1.935 -0.5279 -0.1537 -0.2525
   11MOL0     H 1463  -0.980  12.198   1.940  1.1121  1.3360  1.1932
   11MOL0     H 1464  -0.913  12.275   1.795 -2.3750 -1.8861 -1.4310
   11MOL0     H 1465   0.053  11.554   1.720  2.9468 -1.3191  0.1650
   11MOL0     H 1466   0.143  11.340   1.778  1.2186  3.0097 -1.9369
   11MOL0     H 1467   0.045  10.930   2.271 -0.7306 -0.9645 -0.2530
   11MOL0     H 1468   0.190  10.742   2.313 -1.8933 -1.5842 -0.5629
   11MOL0     H 1469   0.679  10.392   3.646 -0.1172  1.0943  1.2434
   11MOL0     H 1470   0.484  10.268   3.539  0.5415 -1.1751 -1.3816
   11MOL0     H 1471   0.076  10.363   3.291  0.1797 -1.0035  0.9070
   11MOL0     H 1472  -0.129  10.242   3.243  1.1566  1.8204  0.6196
   11MOL0     H 1473  -0.292  10.113   3.195  2.3881 -1.5830 -0.6870
   11MOL0     H 1474  -0.263  10.069   3.365  1.4457 -2.2834  0.5964
   11MOL0     H 1475  -0.388   9.901   3.142  0.6127 -0.4607  0.6812
   11MOL0     H 1476  -0.472   9.970   3.268 -0.2052 -1.0530  2.6852
   11MOL0     H 1477  -0.352   9.839   3.445 -0.1713  0.1699 -0.4112
   11MOL0     H 1478  -0.297   9.736   3.318 -1.5781 -2.3106  0.0110
   11MOL0     H 1479  -0.504   9.650   3.427  0.2859 -2.7887 -3.8856
   11MOL0     H 1480  -0.574   9.811   3.406  2.7787  1.1793  0.5042
   11MOL0     H 1481  -0.727   9.600   3.082  3.1453 -4.6702  0.1683
   11MOL0     H 1482   0.091   9.872   3.248 -0.1367  0.2855 -0.9413
   11MOL0     H 1483   0.342   9.867   3.302  2.4102  0.0129  1.9263
   11MOL0     H 1484   0.389   9.984   3.165  1.1653  2.3493  0.5191
   11MOL0     H 1485   0.416  10.031   3.324 -1.7342  0.1297  1.0444
   12MOL0     O 1486   6.404   9.624   4.607 -0.2584  0.5849  0.0767
   12MOL0     C 1487   6.350   9.673   4.506 -0.1653 -0.3765 -0.1617
   12MOL0     O 1488   6.379   9.656   4.381 -0.9267  0.0217  0.7174
   12MOL0     C 1489   6.501   9.580   4.362 -0.6419  0.5343 -0.3111
   12MOL0     C 1490   6.509   9.439   4.355 -0.2859 -0.1121 -0.4094
   12MOL0     C 1491   6.625   9.367   4.332  0.4008  0.3010 -0.2541
   12MOL0     C 1492   6.743   9.437   4.310 -0.0016  1.0755  0.1960
   12MOL0     O 1493   6.860   9.361   4.301  0.0149  0.0585 -0.5754
   12MOL0     C 1494   6.986   9.422   4.349  0.8959 -0.7909  0.6949
   12MOL0     C 1495   7.094   9.317   4.353 -0.1216  0.1734  0.0990
   12MOL0     C 1496   7.078   9.225   4.476  0.5091 -0.1773  0.5716
   12MOL0     C 1497   7.167   9.100   4.453  0.2975  0.2589 -0.5981
   12MOL0     C 1498   7.145   8.993   4.561  0.6285  0.4805 -0.7828
   12MOL0     C 1499   7.176   8.847   4.526  0.3973  0.6540  0.5257
   12MOL0     C 1500   7.078   8.795   4.419  0.5255 -0.6173  1.2233
   12MOL0     C 1501   6.929   8.843   4.427 -0.6361 -0.8214  0.1129
   12MOL0     N 1502   6.851   8.809   4.308  0.6742  0.0328 -0.0533
   12MOL0     C 1503   6.800   8.686   4.277 -1.0251 -0.1148 -0.1548
   12MOL0     C 1504   6.723   8.694   4.165  0.1044 -0.5573 -0.1164
   12MOL0     C 1505   6.651   8.601   4.081 -0.1202  0.0787  0.5027
   12MOL0     C 1506   6.733   8.470   4.055  0.5928  0.7622 -0.4404
   12MOL0     C 1507   6.853   8.498   3.966 -0.7211 -0.1530  0.5053
   12MOL0     C 1508   6.947   8.381   3.978 -0.1601 -0.8347 -0.5138
   12MOL0     O 1509   7.067   8.409   3.909 -0.7081  0.0179  0.4860
   12MOL0     C 1510   7.179   8.334   3.928  0.0461 -0.8052  0.0614
   12MOL0     C 1511   7.300   8.402   3.905 -0.9124 -0.2160 -0.2126
   12MOL0     C 1512   7.425   8.347   3.951  0.4996  0.2039 -0.2151
   12MOL0     C 1513   7.428   8.206   3.990 -0.3746  0.0135  0.1093
   12MOL0     C 1514   7.551   8.126   4.018  0.4403  0.9749  0.4595
   12MOL0     O 1515   7.669   8.194   3.991  0.5004 -0.0020 -0.4416
   12MOL0     C 1516   7.781   8.166   4.069 -0.1771 -0.0860 -0.1089
   12MOL0     C 1517   7.907   8.210   4.021  0.9223 -0.6999  0.6337
   12MOL0     C 1518   8.018   8.194   4.089 -0.4421  0.3110 -0.2947
   12MOL0     C 1519   8.020   8.136   4.214 -0.2736  0.8570 -0.1790
   12MOL0     O 1520   8.143   8.107   4.273  0.1181  0.1443 -0.0848
   12MOL0     C 1521   8.126   8.028   4.396 -0.1396 -0.0248  0.7301
   12MOL0     C 1522   8.274   7.982   4.428 -0.7727 -0.2339  0.2865
   12MOL0     C 1523   8.366   8.086   4.493  0.3425  0.6535 -0.8147
   12MOL0     C 1524   8.510   8.037   4.519  0.5345 -0.1191  0.3757
   12MOL0     C 1525   8.595   8.136   4.600 -0.0908  0.1881  0.3898
   12MOL0     C 1526   8.746   8.091   4.589  0.5217  0.5050  0.3486
   12MOL0     C 1527   8.817   8.107   4.456 -0.1865 -1.1803  0.3465
   12MOL0     C 1528   8.953   8.053   4.468  0.6547 -0.2241  0.1107
   12MOL0    Cl 1529   9.043   8.169   4.575  0.2887 -0.0010  0.6627
   12MOL0     C 1530   7.890   8.095   4.271  1.0971 -0.5220  0.9006
   12MOL0     C 1531   7.773   8.105   4.196  0.6895 -1.0191  0.1473
   12MOL0     O 1532   7.544   8.013   4.061  0.4237  0.1307  0.6761
   12MOL0     C 1533   7.302   8.140   4.008 -0.3555 -1.2656 -0.3059
   12MOL0     C 1534   7.183   8.203   3.977 -0.0556 -0.9763  0.3016
   12MOL0     N 1535   6.722   8.828   4.134  0.1689 -0.2303 -0.2622
   12MOL0     N 1536   6.806   8.895   4.210 -0.2953  0.0212  0.2267
   12MOL0     C 1537   6.743   9.575   4.327  0.0890 -0.4869 -0.2306
   12MOL0     C 1538   6.623   9.647   4.338  0.8769 -0.1072  0.5626
   12MOL0     C 1539   6.237   9.775   4.511 -0.5738 -0.8844  0.1775
   12MOL0     C 1540   6.202   9.857   4.405  0.1486  0.7234  0.3400
   12MOL0     C 1541   6.113   9.957   4.407 -0.1738 -0.6814  0.2921
   12MOL0     C 1542   6.047   9.979   4.517  0.1011  0.4262 -0.6311
   12MOL0     O 1543   5.979  10.096   4.510  0.4737 -0.4248 -0.3149
   12MOL0     C 1544   5.920  10.141   4.631 -0.3432  0.5631  0.3404
   12MOL0     C 1545   5.784  10.059   4.652  0.3682 -0.2134 -0.3399
   12MOL0     C 1546   5.662  10.105   4.561 -0.4348 -0.6538  0.7513
   12MOL0     C 1547   5.553   9.994   4.543 -0.4127  0.0981 -0.3741
   12MOL0     C 1548   5.439  10.044   4.476 -0.0562 -0.0660 -0.1363
   12MOL0     C 1549   5.343  10.084   4.417  1.0566 -0.1121  0.0185
   12MOL0     C 1550   6.071   9.900   4.635 -0.1516 -0.5401 -0.0940
   12MOL0     C 1551   6.167   9.792   4.632 -0.0517 -0.5961  0.1191
   12MOL0     C 1552   6.184   9.701   4.750 -0.0442  0.8080 -1.0429
   12MOL0     H 1553   6.415   9.385   4.355 -0.1107 -0.4227 -0.1791
   12MOL0     H 1554   6.626   9.258   4.335 -2.0905  0.1309 -1.9838
   12MOL0     H 1555   7.013   9.503   4.280 -0.8926  0.6923  1.6387
   12MOL0     H 1556   6.968   9.466   4.448  3.6287 -0.0391  0.9406
   12MOL0     H 1557   7.196   9.355   4.357 -0.1074  0.1257  0.1917
   12MOL0     H 1558   7.087   9.261   4.259  2.0963 -0.4623  0.2615
   12MOL0     H 1559   6.975   9.190   4.486  0.1051  0.4863 -1.0385
   12MOL0     H 1560   7.095   9.283   4.568  0.4821  0.8842 -0.0798
   12MOL0     H 1561   7.166   9.052   4.355 -0.4227 -2.0490  0.4554
   12MOL0     H 1562   7.274   9.124   4.449  0.5255 -0.6798 -0.5499
   12MOL0     H 1563   7.213   9.021   4.642 -1.4112  0.7716  0.9260
   12MOL0     H 1564   7.042   9.006   4.594  0.5978 -1.5076  0.0486
   12MOL0     H 1565   7.276   8.842   4.483  0.0580  0.9983 -0.3325
   12MOL0     H 1566   7.169   8.775   4.608 -0.0615  0.0301 -0.0469
   12MOL0     H 1567   7.083   8.687   4.434  2.3809 -0.9691 -1.1208
   12MOL0     H 1568   7.115   8.820   4.319  1.3214 -1.5338  1.2707
   12MOL0     H 1569   6.880   8.811   4.520  0.8639  1.0149  1.6459
   12MOL0     H 1570   6.929   8.952   4.421 -0.9361 -0.5667  3.1152
   12MOL0     H 1571   6.825   8.596   4.333 -1.6905 -1.1297 -1.4233
   12MOL0     H 1572   6.548   8.580   4.109 -0.4182  1.8362  0.8247
   12MOL0     H 1573   6.656   8.654   3.985 -1.0665 -1.3270 -0.3547
   12MOL0     H 1574   6.743   8.425   4.155 -3.4708  0.0579 -0.1781
   12MOL0     H 1575   6.656   8.401   4.019  1.5433 -2.0187  2.3514
   12MOL0     H 1576   6.904   8.592   3.988  0.6046 -1.2407  2.4804
   12MOL0     H 1577   6.802   8.513   3.871 -0.8292  3.2928  0.9991
   12MOL0     H 1578   6.899   8.287   3.954  0.1811 -1.1337 -0.0450
   12MOL0     H 1579   6.976   8.386   4.083  0.2820 -2.0850 -0.5680
   12MOL0     H 1580   7.299   8.503   3.867 -4.3365 -0.3946 -0.9193
   12MOL0     H 1581   7.518   8.401   3.967  0.7958 -0.7792  1.7901
   12MOL0     H 1582   7.912   8.236   3.916  0.9172  0.0557  0.8149
   12MOL0     H 1583   8.116   8.216   4.048 -0.8207  0.6154 -1.0511
   12MOL0     H 1584   8.079   8.092   4.471 -0.1654  0.8121  0.0167
   12MOL0     H 1585   8.059   7.946   4.370 -3.2018  2.2304  1.0215
   12MOL0     H 1586   8.254   7.901   4.497 -1.5110 -1.3561 -1.1976
   12MOL0     H 1587   8.321   7.942   4.338  2.0560  0.3486  1.3836
   12MOL0     H 1588   8.371   8.169   4.422 -0.4229  1.7155  0.3321
   12MOL0     H 1589   8.328   8.109   4.593  2.7586 -1.0673  0.6226
   12MOL0     H 1590   8.562   8.013   4.426 -0.7781  1.3173 -0.7889
   12MOL0     H 1591   8.504   7.938   4.567  1.0258  1.0148  2.9354
   12MOL0     H 1592   8.572   8.141   4.706  1.2692  2.5473  0.6423
   12MOL0     H 1593   8.587   8.235   4.554  0.7136  0.0059 -0.1620
   12MOL0     H 1594   8.796   8.143   4.671  0.2769  0.2836  0.6425
   12MOL0     H 1595   8.748   7.985   4.616 -1.5358  0.2776 -0.2122
   12MOL0     H 1596   8.819   8.211   4.422  2.4350 -1.6654 -1.2723
   12MOL0     H 1597   8.757   8.069   4.372 -3.8469  1.5614  1.4650
   12MOL0     H 1598   8.947   7.956   4.518  0.4893 -0.9074 -1.1970
   12MOL0     H 1599   9.002   8.032   4.373  1.7343 -2.4250  1.0832
   12MOL0     H 1600   7.881   8.064   4.375 -1.2514  2.7456  1.8105
   12MOL0     H 1601   7.677   8.082   4.241 -0.7478 -0.3335 -2.3566
   12MOL0     H 1602   7.303   8.041   4.052 -1.9527 -0.9411  0.5056
   12MOL0     H 1603   7.097   8.139   3.998  0.1965 -1.0423  1.1675
   12MOL0     H 1604   6.835   9.631   4.323  0.0816 -0.5289 -2.5158
   12MOL0     H 1605   6.615   9.755   4.346 -1.1999 -0.1640 -0.1585
   12MOL0     H 1606   6.251   9.837   4.310  1.1416  0.0646  0.9840
   12MOL0     H 1607   6.103  10.020   4.319 -2.9694 -0.2549  0.8363
   12MOL0     H 1608   5.877  10.241   4.622 -1.8317 -0.0685  0.0928
   12MOL0     H 1609   5.992  10.143   4.713 -0.6619 -1.8901  0.7644
   12MOL0     H 1610   5.748  10.065   4.755 -4.5902  0.2525 -1.8084
   12MOL0     H 1611   5.803   9.952   4.641 -0.0256 -0.4098  0.7196
   12MOL0     H 1612   5.702  10.116   4.460 -0.2039  0.2280  0.9248
   12MOL0     H 1613   5.618  10.202   4.587 -0.9431 -0.4467 -0.7851
   12MOL0     H 1614   5.598   9.913   4.485  1.5161  1.3692 -0.7686
   12MOL0     H 1615   5.520   9.956   4.640 -1.6793  0.1371 -0.7735
   12MOL0     H 1616   5.252  10.113   4.369  1.3365  0.1517 -0.3565
   12MOL0     H 1617   6.021   9.912   4.730  2.4374  2.3713  1.0729
   12MOL0     H 1618   6.278   9.717   4.805  0.5957 -2.0889 -1.1351
   12MOL0     H 1619   6.106   9.715   4.825  0.7503 -3.0509  0.7297
   12MOL0     H 1620   6.192   9.595   4.726  2.6054  0.5332  0.6542
   13MOL0     O 1621   7.933   0.934   3.646 -0.5409  0.5973 -0.2425
   13MOL0     C 1622   8.007   0.870   3.726  0.7218 -0.7538  0.8122
   13MOL0     O 1623   8.142   0.900   3.747 -0.5643  1.0098 -0.4269
   13MOL0     C 1624   8.219   0.966   3.654 -0.0334  0.3405 -0.7176
   13MOL0     C 1625   8.209   0.944   3.513 -0.0298  0.3308 -0.1426
   13MOL0     C 1626   8.316   1.005   3.443  0.3520 -0.6354 -0.3129
   13MOL0     C 1627   8.417   1.087   3.498  0.1594  1.0992  0.6766
   13MOL0     O 1628   8.511   1.161   3.421  0.9738  0.2412 -0.0224
   13MOL0     C 1629   8.501   1.176   3.282 -0.1629 -0.3923  0.6494
   13MOL0     C 1630   8.580   1.297   3.219 -0.5491  0.0981 -1.1101
   13MOL0     C 1631   8.724   1.305   3.242  0.9469  0.4218  0.5177
   13MOL0     C 1632   8.777   1.448   3.209  0.0357  0.8178 -0.6902
   13MOL0     C 1633   8.917   1.476   3.269  0.4679  0.2146 -0.0334
   13MOL0     C 1634   9.031   1.404   3.203  0.6545  0.3249 -0.6558
   13MOL0     C 1635   9.153   1.409   3.299  0.4928  0.3431  0.0849
   13MOL0     C 1636   9.154   1.303   3.415 -0.2924 -0.5832  0.3071
   13MOL0     N 1637   9.290   1.279   3.461  0.2389  0.2598 -0.2655
   13MOL0     C 1638   9.358   1.163   3.471 -1.3426 -0.1761 -0.9968
   13MOL0     C 1639   9.480   1.201   3.536  0.1705  0.3139 -0.8123
   13MOL0     C 1640   9.589   1.118   3.603 -0.8349 -0.4393  0.3092
   13MOL0     C 1641   9.720   1.128   3.509  0.1426 -0.0290  0.1587
   13MOL0     C 1642   9.794   1.269   3.489 -0.0724 -0.3723  0.1124
   13MOL0     C 1643   9.890   1.269   3.370  0.5333 -0.2786  0.0779
   13MOL0     O 1644   9.999   1.176   3.385 -0.2410  0.1520 -0.7238
   13MOL0     C 1645  10.121   1.228   3.414  0.4079  0.5606 -0.5681
   13MOL0     C 1646  10.227   1.137   3.397  0.2159  0.1714 -0.3427
   13MOL0     C 1647  10.363   1.179   3.424  0.5770  0.3732  0.6669
   13MOL0     C 1648  10.382   1.307   3.462 -0.6350 -0.1277  0.1709
   13MOL0     C 1649  10.521   1.346   3.473  0.0365  0.9048  0.0701
   13MOL0     O 1650  10.557   1.417   3.575  0.2572 -0.6007  0.2650
   13MOL0     C 1651  10.686   1.463   3.592 -0.3724 -0.1054  0.3522
   13MOL0     C 1652  10.788   1.372   3.608 -0.2784  0.5205  0.5523
   13MOL0     C 1653  10.917   1.413   3.647  0.7816 -0.4294 -0.2496
   13MOL0     C 1654  10.950   1.544   3.672 -0.1789 -0.7698 -0.0730
   13MOL0     O 1655  11.063   1.594   3.736  0.3991  0.0016  0.1819
   13MOL0     C 1656  11.168   1.500   3.751 -0.0412 -0.7891  0.2267
   13MOL0     C 1657  11.237   1.538   3.885 -0.1620 -0.6171 -0.1495
   13MOL0     C 1658  11.354   1.445   3.921 -0.3568 -0.1750 -0.3310
   13MOL0     C 1659  11.443   1.503   4.038  0.4689 -0.0115 -0.2331
   13MOL0     C 1660  11.561   1.407   4.061 -0.3566 -0.1162  0.5736
   13MOL0     C 1661  11.638   1.464   4.184 -0.4289  0.5111  0.1289
   13MOL0     C 1662  11.694   1.612   4.182  0.0196  0.6449 -0.1631
   13MOL0     C 1663  11.810   1.615   4.073 -0.3409  0.5527 -0.3465
   13MOL0    Cl 1664  11.889   1.775   4.064 -0.5079  0.1594 -0.2759
   13MOL0     C 1665  10.845   1.638   3.640 -0.7946  0.5001 -0.3568
   13MOL0     C 1666  10.720   1.598   3.597 -0.7314 -0.2668  0.1901
   13MOL0     O 1667  10.597   1.299   3.385 -0.1163  0.0087 -0.2459
   13MOL0     C 1668  10.274   1.400   3.482 -0.5163  0.7322  0.0041
   13MOL0     C 1669  10.146   1.357   3.462 -0.0273  0.1283 -0.2629
   13MOL0     N 1670   9.473   1.341   3.553 -0.2835  0.6707 -0.2370
   13MOL0     N 1671   9.366   1.379   3.501  0.3976 -0.3430 -0.1130
   13MOL0     C 1672   8.416   1.115   3.626 -0.6433 -0.2739 -0.0843
   13MOL0     C 1673   8.322   1.044   3.704 -0.3240  1.2815  0.0397
   13MOL0     C 1674   7.933   0.775   3.821 -0.6039 -0.8189  0.5801
   13MOL0     C 1675   7.802   0.753   3.786 -0.5442 -0.4412  0.6027
   13MOL0     C 1676   7.725   0.665   3.850 -0.2818 -0.2844 -0.0290
   13MOL0     C 1677   7.772   0.591   3.957  0.2869 -0.1386  0.4538
   13MOL0     O 1678   7.697   0.504   4.036 -0.4206  0.0064  0.2107
   13MOL0     C 1679   7.559   0.528   4.031 -0.9770 -0.8298  0.4748
   13MOL0     C 1680   7.482   0.454   4.135 -0.6543 -0.3243 -0.8777
   13MOL0     C 1681   7.531   0.482   4.274 -0.3626 -0.0392 -0.3952
   13MOL0     C 1682   7.465   0.394   4.387 -0.2510  0.6134 -0.0612
   13MOL0     C 1683   7.314   0.420   4.399  1.2050  0.6148 -0.3675
   13MOL0     C 1684   7.191   0.429   4.414 -0.5964 -0.1751  0.4042
   13MOL0     C 1685   7.906   0.604   3.996 -0.2026 -0.6241  0.0353
   13MOL0     C 1686   7.993   0.697   3.926  0.4815  0.5152  0.7581
   13MOL0     C 1687   8.134   0.712   3.972  0.6230  0.7509  0.2759
   13MOL0     H 1688   8.123   0.896   3.468  1.3355 -1.0304 -1.3859
   13MOL0     H 1689   8.336   0.984   3.338  0.2426 -0.4694 -0.3668
   13MOL0     H 1690   8.526   1.085   3.227 -0.1781 -0.5288  0.8668
   13MOL0     H 1691   8.396   1.188   3.253  0.7351 -1.5643 -3.8590
   13MOL0     H 1692   8.542   1.388   3.265  3.4487  0.3367  2.2910
   13MOL0     H 1693   8.554   1.300   3.112  0.4171  0.3887 -1.3449
   13MOL0     H 1694   8.792   1.222   3.216  3.0030  0.4208  4.9761
   13MOL0     H 1695   8.745   1.301   3.349  2.9930  1.7781  0.2262
   13MOL0     H 1696   8.769   1.470   3.102  1.6918 -2.2225 -1.5595
   13MOL0     H 1697   8.709   1.512   3.266 -1.5391 -1.0183 -0.3650
   13MOL0     H 1698   8.934   1.583   3.256  0.2358  0.3456  0.6560
   13MOL0     H 1699   8.910   1.456   3.377  0.7665  4.2356  0.8974
   13MOL0     H 1700   9.010   1.299   3.182  1.0348  0.2736 -0.7835
   13MOL0     H 1701   9.056   1.450   3.107  0.2817 -0.0267 -0.9272
   13MOL0     H 1702   9.169   1.507   3.344 -0.8233  0.0291  1.3035
   13MOL0     H 1703   9.239   1.392   3.234 -0.9977 -5.1756 -0.9914
   13MOL0     H 1704   9.094   1.327   3.503 -0.8187  0.1376 -0.2320
   13MOL0     H 1705   9.108   1.208   3.388 -0.8378 -0.6728  1.5161
   13MOL0     H 1706   9.315   1.068   3.441 -1.6869  0.3228 -2.1453
   13MOL0     H 1707   9.608   1.160   3.703 -2.5396  0.8522  0.1395
   13MOL0     H 1708   9.554   1.015   3.610  0.8536 -1.0450  0.3212
   13MOL0     H 1709   9.792   1.061   3.556 -0.6436 -2.0574 -1.4104
   13MOL0     H 1710   9.705   1.083   3.411  4.0405 -1.1230 -0.1189
   13MOL0     H 1711   9.850   1.299   3.578 -2.7101  3.3860  0.7508
   13MOL0     H 1712   9.715   1.344   3.479 -0.6735 -1.1217 -1.0762
   13MOL0     H 1713   9.918   1.371   3.344  1.0427 -0.0667  1.4045
   13MOL0     H 1714   9.836   1.224   3.285 -0.4766 -0.2115  0.6593
   13MOL0     H 1715  10.212   1.040   3.350  1.8269  0.2937 -1.1831
   13MOL0     H 1716  10.443   1.108   3.411 -1.2399 -2.2533  2.7381
   13MOL0     H 1717  10.767   1.266   3.621  0.6524  0.3026  0.3075
   13MOL0     H 1718  10.986   1.332   3.668 -1.0249 -1.7027  1.0167
   13MOL0     H 1719  11.132   1.400   3.775  0.2636 -0.6445  1.3274
   13MOL0     H 1720  11.232   1.512   3.663 -0.2994  0.9976  0.2452
   13MOL0     H 1721  11.287   1.634   3.870 -0.2243 -0.7261 -1.1210
   13MOL0     H 1722  11.158   1.552   3.960 -0.2092  2.3407 -0.6276
   13MOL0     H 1723  11.333   1.338   3.933  2.6015 -0.7887  0.0490
   13MOL0     H 1724  11.412   1.439   3.829  0.4097  0.7929  0.0735
   13MOL0     H 1725  11.377   1.503   4.125 -0.7076  0.3119 -1.1018
   13MOL0     H 1726  11.467   1.606   4.009 -0.9696  1.0593  2.0882
   13MOL0     H 1727  11.619   1.396   3.969  0.2890 -1.0678  1.0856
   13MOL0     H 1728  11.526   1.304   4.069 -1.4093  0.0124 -1.6624
   13MOL0     H 1729  11.562   1.460   4.262  1.2227 -0.0088  1.7601
   13MOL0     H 1730  11.724   1.401   4.207 -0.0325 -1.2446 -4.8955
   13MOL0     H 1731  11.731   1.627   4.284  0.4333  0.3965 -0.2725
   13MOL0     H 1732  11.613   1.684   4.167 -0.7638  0.1254  1.4372
   13MOL0     H 1733  11.881   1.537   4.104 -1.1427  0.4722  1.3947
   13MOL0     H 1734  11.771   1.592   3.973 -0.3976  0.5532 -0.3243
   13MOL0     H 1735  10.863   1.740   3.673 -0.3873 -0.0282  1.1408
   13MOL0     H 1736  10.636   1.666   3.585  1.5932  2.5408 -1.3207
   13MOL0     H 1737  10.295   1.494   3.532  0.8145  0.7790 -0.6013
   13MOL0     H 1738  10.076   1.434   3.493  2.2895  2.3658 -0.2302
   13MOL0     H 1739   8.487   1.181   3.673 -0.1914 -0.8111 -0.0015
   13MOL0     H 1740   8.326   1.061   3.811  1.7176 -3.4366  0.9606
   13MOL0     H 1741   7.747   0.796   3.703 -0.6676 -1.9970 -0.1645
   13MOL0     H 1742   7.627   0.658   3.803 -0.1832  1.8097 -0.6578
   13MOL0     H 1743   7.527   0.487   3.935  2.8418 -1.2545 -0.7467
   13MOL0     H 1744   7.539   0.632   4.060  2.1920 -0.2963  1.0977
   13MOL0     H 1745   7.484   0.347   4.115 -1.7847 -0.8879  1.6459
   13MOL0     H 1746   7.382   0.493   4.118  0.2862  2.3340 -0.7543
   13MOL0     H 1747   7.510   0.589   4.289 -0.0207  0.0791 -0.7394
   13MOL0     H 1748   7.640   0.477   4.278 -0.3557 -0.5840 -1.2246
   13MOL0     H 1749   7.482   0.293   4.350  0.2432  0.2929  0.9911
   13MOL0     H 1750   7.519   0.405   4.481 -0.3983 -2.4719  0.4810
   13MOL0     H 1751   7.085   0.440   4.428 -1.1602 -1.0603 -2.4254
   13MOL0     H 1752   7.935   0.542   4.080  2.0007  2.3623  1.6797
   13MOL0     H 1753   8.137   0.809   4.023 -1.4833  0.9222  0.1822
   13MOL0     H 1754   8.145   0.644   4.057  1.0443  2.1070  1.3475
   13MOL0     H 1755   8.212   0.701   3.897  0.7437  0.6696  0.4114
   14MOL0     O 1756   0.836   8.903  10.662 -0.0624 -0.6605  0.6538
   14MOL0     C 1757   0.866   9.023  10.656  0.4502  0.7048 -0.0184
   14MOL0     O 1758   0.978   9.072  10.585 -0.3045  0.2633 -0.1165
   14MOL0     C 1759   1.010   8.991  10.476 -0.5353  0.1156 -0.5288
   14MOL0     C 1760   1.061   8.862  10.478 -0.3352  0.1533 -0.3651
   14MOL0     C 1761   1.104   8.799  10.363  0.7547  0.1518  0.0476
   14MOL0     C 1762   1.097   8.865  10.239  0.2534  0.4749  0.3476
   14MOL0     O 1763   1.125   8.804  10.117 -0.3437  0.1145  0.9226
   14MOL0     C 1764   1.159   8.664  10.112  0.0935 -1.0239  0.1942
   14MOL0     C 1765   1.291   8.631  10.046  0.0354 -0.7154  0.2754
   14MOL0     C 1766   1.319   8.483  10.083  0.4351 -0.9266 -0.1657
   14MOL0     C 1767   1.418   8.411   9.994 -0.0319  0.0211  0.5378
   14MOL0     C 1768   1.480   8.290  10.070  0.0112  0.7820 -0.2116
   14MOL0     C 1769   1.569   8.198   9.977  0.2671  0.1869 -0.2868
   14MOL0     C 1770   1.702   8.255   9.930  0.3583  1.1940 -0.3918
   14MOL0     C 1771   1.794   8.291  10.049  0.1755  0.3573 -1.5564
   14MOL0     N 1772   1.934   8.261  10.017  0.9258  0.1461  0.5085
   14MOL0     C 1773   2.020   8.340   9.950 -0.2950  0.1602 -1.0682
   14MOL0     C 1774   2.123   8.261   9.924 -0.6741 -0.5708 -0.0814
   14MOL0     C 1775   2.241   8.284   9.831 -0.1035 -0.3064  0.0491
   14MOL0     C 1776   2.368   8.280   9.918 -0.4480  0.4299  0.3099
   14MOL0     C 1777   2.477   8.354   9.841  0.4692  0.3808 -0.0058
   14MOL0     C 1778   2.621   8.321   9.897  1.0123 -0.6063  0.8236
   14MOL0     O 1779   2.654   8.186   9.871  0.0594  0.0278  0.2997
   14MOL0     C 1780   2.776   8.139   9.904  0.3501 -0.3771  0.6081
   14MOL0     C 1781   2.828   8.020   9.860  0.9140  0.3296 -0.0681
   14MOL0     C 1782   2.956   7.979   9.896  0.1517  0.1427  0.6593
   14MOL0     C 1783   3.041   8.059   9.980  0.4976 -0.1610  0.7885
   14MOL0     C 1784   3.183   8.015  10.025 -0.4726  0.1380  0.6440
   14MOL0     O 1785   3.236   8.096  10.115 -0.0025 -0.2674  0.4166
   14MOL0     C 1786   3.351   8.049  10.184  0.8418 -0.0070 -0.2491
   14MOL0     C 1787   3.350   8.076  10.323  0.3792 -0.1481  0.3313
   14MOL0     C 1788   3.471   8.072  10.397 -0.4643 -0.1191 -0.5082
   14MOL0     C 1789   3.593   8.032  10.341 -0.6657  0.0776  0.3260
   14MOL0     O 1790   3.721   8.016  10.404  0.7179 -0.7913 -0.3397
   14MOL0     C 1791   3.737   8.084  10.528  0.2919  0.4872  0.5665
   14MOL0     C 1792   3.886   8.063  10.559  0.7814  0.1706  0.6852
   14MOL0     C 1793   3.956   8.184  10.501 -1.1078 -0.2123 -0.4361
   14MOL0     C 1794   4.113   8.162  10.513 -0.7840  0.4737  0.5350
   14MOL0     C 1795   4.153   8.080  10.395 -0.4922  1.4727  0.2903
   14MOL0     C 1796   4.300   8.024  10.412  0.3486 -0.0834 -0.5509
   14MOL0     C 1797   4.338   7.953  10.294 -0.2273  0.7491  0.1680
   14MOL0     C 1798   4.465   7.870  10.309 -0.1853  0.8904  1.0490
   14MOL0    Cl 1799   4.607   7.978  10.333  0.0672  0.2285  0.3391
   14MOL0     C 1800   3.593   8.001  10.205  0.2160  0.9971 -0.1196
   14MOL0     C 1801   3.476   8.013  10.130  0.1421 -0.1917 -0.1247
   14MOL0     O 1802   3.216   7.895   9.999 -0.1892 -0.7035 -0.3028
   14MOL0     C 1803   2.991   8.179  10.022  0.4134 -0.4185 -0.3000
   14MOL0     C 1804   2.860   8.208   9.993  0.4422 -0.1676  0.2290
   14MOL0     N 1805   2.117   8.142   9.988 -0.2181  0.0737  0.0900
   14MOL0     N 1806   1.996   8.140  10.039 -0.2018  0.1072 -0.8769
   14MOL0     C 1807   1.055   8.994  10.239 -1.1152 -0.6645 -0.2239
   14MOL0     C 1808   1.011   9.050  10.354  0.8837 -0.4490  0.0591
   14MOL0     C 1809   0.783   9.129  10.733  0.4282 -0.1880 -1.0660
   14MOL0     C 1810   0.842   9.245  10.778  0.5937  0.1476 -0.8961
   14MOL0     C 1811   0.762   9.341  10.837 -0.2975  0.9008  0.1720
   14MOL0     C 1812   0.625   9.308  10.858 -0.3749  0.5470 -0.0338
   14MOL0     O 1813   0.541   9.400  10.914 -0.5088 -0.0232 -1.0217
   14MOL0     C 1814   0.520   9.519  10.843  0.5411 -0.3410 -0.6211
   14MOL0     C 1815   0.437   9.507  10.714  0.0108 -0.1958  0.2762
   14MOL0     C 1816   0.397   9.647  10.666 -0.9907 -0.2745  0.0640
   14MOL0     C 1817   0.273   9.644  10.585  0.1954  0.1108  0.6995
   14MOL0     C 1818   0.219   9.785  10.562 -0.0681 -0.3130 -0.8753
   14MOL0     C 1819   0.180   9.904  10.555 -0.1148  0.5052  0.7720
   14MOL0     C 1820   0.570   9.187  10.812  0.0409 -0.5418  0.2074
   14MOL0     C 1821   0.646   9.101  10.744  0.4987  0.2692 -0.8261
   14MOL0     C 1822   0.564   8.975  10.699  0.0615  0.2901 -0.0678
   14MOL0     H 1823   1.072   8.803  10.568  0.6638 -1.2899 -1.3817
   14MOL0     H 1824   1.123   8.692  10.365  1.6807  0.2734 -1.0140
   14MOL0     H 1825   1.155   8.615  10.210 -0.7782  2.4635  2.0905
   14MOL0     H 1826   1.068   8.626  10.065 -0.9548  1.1361  0.3704
   14MOL0     H 1827   1.364   8.701  10.087 -1.4384 -0.5154  2.7618
   14MOL0     H 1828   1.281   8.642   9.938  1.6986 -2.3782 -0.0993
   14MOL0     H 1829   1.229   8.422  10.071 -0.0551 -0.2876  0.1994
   14MOL0     H 1830   1.348   8.474  10.189  1.1759 -2.3306 -0.4636
   14MOL0     H 1831   1.375   8.366   9.903  0.7160  1.3375 -0.4992
   14MOL0     H 1832   1.494   8.487   9.973 -0.7102  0.8298  0.9645
   14MOL0     H 1833   1.545   8.325  10.151  1.9608 -0.6871 -1.0564
   14MOL0     H 1834   1.398   8.227  10.105  1.3851 -0.5876  0.6832
   14MOL0     H 1835   1.592   8.101  10.023  0.6881  0.3458 -0.1598
   14MOL0     H 1836   1.513   8.178   9.885 -1.9011 -0.5866  1.1189
   14MOL0     H 1837   1.699   8.340   9.861 -2.1151  2.3229  0.9818
   14MOL0     H 1838   1.745   8.173   9.872 -2.0817 -1.8834  1.8136
   14MOL0     H 1839   1.800   8.399  10.064  1.3825  0.0207  0.8598
   14MOL0     H 1840   1.757   8.233  10.134  0.9854 -1.0480 -2.1325
   14MOL0     H 1841   1.992   8.438   9.911  1.3944  0.8108 -0.7217
   14MOL0     H 1842   2.255   8.218   9.745  2.0632 -0.2286  0.3054
   14MOL0     H 1843   2.233   8.389   9.801  2.2744 -0.7817 -2.6709
   14MOL0     H 1844   2.355   8.332  10.014 -3.4282 -2.9152  1.9624
   14MOL0     H 1845   2.400   8.177   9.931 -1.5825 -0.0072 -0.2289
   14MOL0     H 1846   2.472   8.462   9.859  3.9336  0.5342  0.9230
   14MOL0     H 1847   2.483   8.339   9.733 -1.0924  0.7859 -0.1727
   14MOL0     H 1848   2.608   8.346  10.003  1.8036 -0.0268  0.7968
   14MOL0     H 1849   2.695   8.388   9.850 -0.0435  0.1201  0.1440
   14MOL0     H 1850   2.773   7.950   9.798  1.0990  0.5021 -0.4324
   14MOL0     H 1851   3.000   7.884   9.868  1.6050  0.3106  2.1715
   14MOL0     H 1852   3.261   8.100  10.380  1.6937 -0.1392  2.5250
   14MOL0     H 1853   3.478   8.084  10.505  3.9147  0.3881 -0.6618
   14MOL0     H 1854   3.710   8.190  10.524  1.5231  0.7737 -0.4864
   14MOL0     H 1855   3.679   8.031  10.605  1.4753 -0.8207  0.5842
   14MOL0     H 1856   3.896   8.054  10.667  0.3372 -0.5663  0.6803
   14MOL0     H 1857   3.916   7.972  10.506 -3.4620 -0.7532 -0.6100
   14MOL0     H 1858   3.921   8.210  10.400  0.7577  0.7503 -0.8830
   14MOL0     H 1859   3.942   8.278  10.553 -0.8812  1.2999 -2.9387
   14MOL0     H 1860   4.138   8.117  10.609 -0.9181  0.3620  0.5173
   14MOL0     H 1861   4.162   8.260  10.514  2.3369 -0.9706  2.0333
   14MOL0     H 1862   4.146   8.131  10.298 -0.4762 -0.1622 -0.5965
   14MOL0     H 1863   4.085   7.995  10.397  0.2495  0.8744  0.6454
   14MOL0     H 1864   4.377   8.101  10.423  0.5531 -0.3943  0.2149
   14MOL0     H 1865   4.305   7.968  10.506 -0.7236 -1.0782 -1.0519
   14MOL0     H 1866   4.349   8.033  10.219 -3.0427  3.0727  2.0038
   14MOL0     H 1867   4.261   7.879  10.269  2.3112 -1.8872 -0.3388
   14MOL0     H 1868   4.466   7.801  10.394  3.2981 -1.6030 -0.8051
   14MOL0     H 1869   4.486   7.820  10.214  3.1792  3.3869  0.2921
   14MOL0     H 1870   3.676   7.956  10.152 -0.0725 -1.0599  1.0826
   14MOL0     H 1871   3.475   8.000  10.022 -1.1719 -0.2770 -0.1107
   14MOL0     H 1872   3.054   8.238  10.088 -0.9781  1.3066 -0.4246
   14MOL0     H 1873   2.836   8.307  10.030  1.1101  0.6606 -1.4170
   14MOL0     H 1874   1.047   9.052  10.148 -0.8345 -0.9291 -0.4198
   14MOL0     H 1875   0.978   9.153  10.349 -0.0181 -0.6096  1.9627
   14MOL0     H 1876   0.948   9.266  10.769  0.3995  1.3076 -0.6582
   14MOL0     H 1877   0.801   9.427  10.891  1.7807 -0.3171  0.7136
   14MOL0     H 1878   0.621   9.559  10.826  0.3724  0.6022  0.4904
   14MOL0     H 1879   0.470   9.591  10.907  1.8038  0.6024 -0.6595
   14MOL0     H 1880   0.358   9.437  10.742  0.0474 -0.9203 -1.3124
   14MOL0     H 1881   0.502   9.461  10.639 -2.4833 -1.5617 -1.2073
   14MOL0     H 1882   0.488   9.681  10.617 -0.8308  1.0818  1.2369
   14MOL0     H 1883   0.396   9.711  10.755  1.2671 -2.0471  1.5190
   14MOL0     H 1884   0.296   9.611  10.483  0.8090  4.0637 -0.5975
   14MOL0     H 1885   0.202   9.576  10.634  1.7159 -0.0694  2.8020
   14MOL0     H 1886   0.145  10.004  10.541  1.8767  1.4207  1.8899
   14MOL0     H 1887   0.466   9.162  10.827 -0.4191  0.9557 -0.2978
   14MOL0     H 1888   0.575   8.967  10.591  0.2388 -1.8813  0.0708
   14MOL0     H 1889   0.608   8.882  10.737 -0.0385  1.0831  2.1622
   14MOL0     H 1890   0.457   8.981  10.724 -0.0407 -1.2320 -0.0890
   15MOL0     O 1891   0.982   1.444   5.913  0.2388  0.4643 -0.4207
   15MOL0     C 1892   0.954   1.535   5.842  0.6028 -0.4820  0.7327
   15MOL0     O 1893   1.019   1.651   5.835 -0.3327 -0.1045 -0.6547
   15MOL0     C 1894   1.142   1.656   5.893 -0.6895  0.6846  0.2670
   15MOL0     C 1895   1.249   1.608   5.828 -0.2849  0.5347 -0.4012
   15MOL0     C 1896   1.378   1.622   5.879  0.5878 -0.7212  0.6160
   15MOL0     C 1897   1.394   1.681   6.003  0.5675  0.3911 -0.6818
   15MOL0     O 1898   1.523   1.704   6.059  0.0565  0.2708 -0.1724
   15MOL0     C 1899   1.538   1.671   6.194  0.1813 -0.7958  0.0215
   15MOL0     C 1900   1.690   1.666   6.236  0.2101  0.8614 -0.5409
   15MOL0     C 1901   1.755   1.803   6.238 -0.4141  0.5267 -1.2802
   15MOL0     C 1902   1.897   1.810   6.282  0.1641 -0.0557  0.5394
   15MOL0     C 1903   1.956   1.955   6.270  0.5850  0.0559 -0.4883
   15MOL0     C 1904   2.096   1.959   6.324 -0.9441 -0.5935 -0.6370
   15MOL0     C 1905   2.128   2.107   6.345  0.8593  0.4653  0.6026
   15MOL0     C 1906   2.241   2.134   6.432  0.5086 -0.4755 -0.6715
   15MOL0     N 1907   2.357   2.073   6.374  0.5331 -0.2237 -0.0399
   15MOL0     C 1908   2.398   1.943   6.397 -0.0123 -0.3841 -0.4179
   15MOL0     C 1909   2.510   1.933   6.326 -0.6841 -0.0963 -0.5223
   15MOL0     C 1910   2.612   1.828   6.320  0.0860 -0.5127 -0.5219
   15MOL0     C 1911   2.758   1.885   6.316  0.1281  0.4432 -0.9796
   15MOL0     C 1912   2.810   1.917   6.457  0.1899  0.1629 -0.8979
   15MOL0     C 1913   2.945   1.984   6.467  0.0859  0.6993  0.5320
   15MOL0     O 1914   3.057   1.898   6.434 -0.1438  0.3095  0.6502
   15MOL0     C 1915   3.182   1.934   6.485 -0.1517  0.1522 -0.1096
   15MOL0     C 1916   3.219   2.058   6.535 -0.0911  0.1203  0.2942
   15MOL0     C 1917   3.350   2.082   6.578  0.1031 -0.6122  0.1879
   15MOL0     C 1918   3.448   1.975   6.577 -0.0809  0.7259  0.4352
   15MOL0     C 1919   3.581   1.994   6.617 -0.5231 -0.8179 -0.6534
   15MOL0     O 1920   3.674   1.930   6.547 -0.1245  0.0698 -0.0379
   15MOL0     C 1921   3.805   1.963   6.545  0.3875 -0.4104  0.1925
   15MOL0     C 1922   3.892   1.990   6.657 -0.7121  0.4104  0.1167
   15MOL0     C 1923   4.020   2.020   6.640 -1.1943 -0.8815  0.0633
   15MOL0     C 1924   4.084   2.022   6.514 -0.1156  0.1295  0.1443
   15MOL0     O 1925   4.211   2.061   6.479 -0.0432  0.3396  0.5732
   15MOL0     C 1926   4.307   2.054   6.582  0.5412  0.2942 -0.6212
   15MOL0     C 1927   4.442   2.064   6.522  0.5619 -0.8042  0.1263
   15MOL0     C 1928   4.540   2.095   6.635  0.2581 -0.1354 -0.0067
   15MOL0     C 1929   4.675   2.148   6.574  0.2950  0.5995 -0.0872
   15MOL0     C 1930   4.793   2.175   6.667  0.7836  0.3365  0.8331
   15MOL0     C 1931   4.927   2.185   6.587 -0.2500  0.2444  1.3855
   15MOL0     C 1932   5.038   2.224   6.683 -0.2266  0.3213 -0.7278
   15MOL0     C 1933   5.177   2.215   6.619 -0.2041  1.0698 -0.4964
   15MOL0    Cl 1934   5.221   2.328   6.486 -0.0694 -0.5071  0.0640
   15MOL0     C 1935   3.995   1.994   6.412  0.2449 -0.4813 -0.0409
   15MOL0     C 1936   3.867   1.964   6.419  0.3742  1.2114  0.9554
   15MOL0     O 1937   3.604   2.075   6.705 -0.2281  0.0736 -0.2420
   15MOL0     C 1938   3.408   1.853   6.527 -0.7793  0.8245  0.8171
   15MOL0     C 1939   3.280   1.832   6.484  0.0793  0.0397  0.1031
   15MOL0     N 1940   2.532   2.051   6.252  0.4722 -0.2321  0.0984
   15MOL0     N 1941   2.442   2.135   6.286 -0.4023 -0.1792  0.6010
   15MOL0     C 1942   1.292   1.750   6.064  0.7798  0.3501  0.2216
   15MOL0     C 1943   1.163   1.722   6.017 -0.1658 -0.2026  0.0812
   15MOL0     C 1944   0.835   1.510   5.751 -0.0009  0.1450 -0.0648
   15MOL0     C 1945   0.808   1.622   5.673  0.4133  0.4066  0.3431
   15MOL0     C 1946   0.700   1.626   5.579  0.1571 -0.7495 -0.0447
   15MOL0     C 1947   0.633   1.506   5.559 -0.0900  0.3732  0.2269
   15MOL0     O 1948   0.546   1.505   5.450  0.8297 -0.4686 -0.1706
   15MOL0     C 1949   0.416   1.463   5.494 -0.0352 -0.2851 -0.1879
   15MOL0     C 1950   0.295   1.525   5.411  0.7026 -0.0684  0.1214
   15MOL0     C 1951   0.290   1.478   5.262  0.4308 -0.9799  0.1742
   15MOL0     C 1952   0.220   1.343   5.238 -0.0365 -0.2960  0.3460
   15MOL0     C 1953   0.081   1.363   5.172 -0.5576 -0.7457  0.4114
   15MOL0     C 1954  -0.037   1.368   5.140 -0.2557 -0.5433 -0.5387
   15MOL0     C 1955   0.661   1.390   5.639 -0.1351 -0.6388  0.2494
   15MOL0     C 1956   0.762   1.395   5.738 -0.0586 -0.5280 -0.4245
   15MOL0     C 1957   0.788   1.267   5.815 -0.1103  0.0595 -0.6156
   15MOL0     H 1958   1.245   1.565   5.729 -1.7704  2.6918 -1.3683
   15MOL0     H 1959   1.463   1.590   5.819  0.2167 -0.3324 -0.1376
   15MOL0     H 1960   1.490   1.744   6.259 -2.4060 -0.9643 -1.5339
   15MOL0     H 1961   1.495   1.571   6.210 -1.9200  0.1136  0.3733
   15MOL0     H 1962   1.747   1.596   6.174 -1.0767 -0.4842 -0.2431
   15MOL0     H 1963   1.700   1.610   6.330 -0.5005 -2.7273 -2.4525
   15MOL0     H 1964   1.685   1.866   6.295 -1.7891 -0.6448 -1.6207
   15MOL0     H 1965   1.769   1.848   6.139  0.3848 -2.2324 -2.4998
   15MOL0     H 1966   1.913   1.765   6.380 -0.4306 -1.8587 -0.1481
   15MOL0     H 1967   1.941   1.739   6.211 -2.3383 -2.6459  1.3587
   15MOL0     H 1968   1.951   2.002   6.172 -0.2041  2.5949  0.6669
   15MOL0     H 1969   1.877   1.998   6.333 -1.0257 -2.0559 -0.9568
   15MOL0     H 1970   2.110   1.900   6.415  1.1208 -0.2491 -0.6762
   15MOL0     H 1971   2.165   1.923   6.247 -1.4317  1.5624 -2.1948
   15MOL0     H 1972   2.039   2.162   6.376 -0.0974  0.0868 -1.3514
   15MOL0     H 1973   2.153   2.145   6.246 -0.9589  2.2234  0.7581
   15MOL0     H 1974   2.259   2.242   6.436  0.0218 -0.4404  0.7880
   15MOL0     H 1975   2.224   2.098   6.533 -0.6983  3.1339  0.5531
   15MOL0     H 1976   2.356   1.872   6.467 -2.6221  0.2889 -1.1897
   15MOL0     H 1977   2.606   1.760   6.405 -1.2471  1.8614  1.4318
   15MOL0     H 1978   2.596   1.779   6.223 -0.5776 -2.4963  0.5411
   15MOL0     H 1979   2.832   1.821   6.268  1.2631  1.5914 -0.8295
   15MOL0     H 1980   2.759   1.975   6.253  0.3749  1.8622  0.9389
   15MOL0     H 1981   2.833   1.821   6.504  2.7659  1.1910  0.1371
   15MOL0     H 1982   2.735   1.973   6.514  1.9670  0.3008  1.5027
   15MOL0     H 1983   2.953   2.032   6.565 -0.8970  0.9032  0.5180
   15MOL0     H 1984   2.957   2.060   6.389  3.0736 -3.7766 -4.0046
   15MOL0     H 1985   3.158   2.148   6.534 -0.0774  0.1843  1.9572
   15MOL0     H 1986   3.382   2.182   6.606  1.8659 -0.6108 -1.6228
   15MOL0     H 1987   3.850   1.992   6.757 -0.6324 -3.6835  0.3792
   15MOL0     H 1988   4.086   2.033   6.725  0.9621  0.2247 -1.6561
   15MOL0     H 1989   4.281   2.136   6.650 -2.2857 -1.3522  0.4818
   15MOL0     H 1990   4.300   1.960   6.638  2.1008  1.5377  1.8898
   15MOL0     H 1991   4.478   1.969   6.480  2.0662 -0.4652  0.6190
   15MOL0     H 1992   4.447   2.151   6.456 -2.0546  2.2033  3.5123
   15MOL0     H 1993   4.509   2.153   6.722  0.5781 -2.2119  1.5760
   15MOL0     H 1994   4.564   1.997   6.677  2.6489  0.3890  0.0302
   15MOL0     H 1995   4.651   2.240   6.520 -2.7403 -1.0189 -1.7828
   15MOL0     H 1996   4.710   2.072   6.503  0.0374 -1.2990  1.7162
   15MOL0     H 1997   4.785   2.087   6.732 -2.4405 -0.3721 -0.3232
   15MOL0     H 1998   4.774   2.263   6.730  0.2939 -0.6222  2.0655
   15MOL0     H 1999   4.951   2.092   6.534 -0.8086  1.3919 -0.9995
   15MOL0     H 2000   4.911   2.255   6.505 -0.7180 -1.6506 -0.2094
   15MOL0     H 2001   5.034   2.156   6.769 -2.2152  1.0621 -0.1840
   15MOL0     H 2002   5.033   2.320   6.735 -0.2298 -0.8684  1.5701
   15MOL0     H 2003   5.251   2.226   6.699 -2.2409 -0.4818  1.7590
   15MOL0     H 2004   5.174   2.113   6.580  0.9152  1.7343 -2.4416
   15MOL0     H 2005   4.043   1.994   6.314 -0.5070 -0.0418 -0.4161
   15MOL0     H 2006   3.802   1.947   6.334  0.3043 -3.1846  1.6604
   15MOL0     H 2007   3.464   1.762   6.510  1.0267  1.7115  1.7241
   15MOL0     H 2008   3.266   1.738   6.432 -0.0675  1.7934 -3.3423
   15MOL0     H 2009   1.304   1.789   6.164 -0.5627 -2.5267  1.6441
   15MOL0     H 2010   1.083   1.773   6.070  0.8616 -1.4278  3.0495
   15MOL0     H 2011   0.870   1.711   5.680 -0.1663  0.8768 -0.3607
   15MOL0     H 2012   0.680   1.713   5.517  1.7634 -0.8803 -0.7914
   15MOL0     H 2013   0.401   1.495   5.598  2.2204  1.4921 -0.3150
   15MOL0     H 2014   0.418   1.354   5.487  2.5088 -0.4403  1.4115
   15MOL0     H 2015   0.321   1.631   5.401 -0.7167  0.1345 -1.9332
   15MOL0     H 2016   0.203   1.504   5.466  1.2703  0.8721  1.4959
   15MOL0     H 2017   0.392   1.467   5.222  1.3714 -1.3195  2.5055
   15MOL0     H 2018   0.234   1.554   5.206  0.5351 -0.3629  0.9033
   15MOL0     H 2019   0.282   1.271   5.185  2.3382  1.7781  0.1403
   15MOL0     H 2020   0.199   1.296   5.335  4.2942 -2.6014  0.3982
   15MOL0     H 2021  -0.142   1.362   5.120 -0.6822  0.4818  1.1697
   15MOL0     H 2022   0.604   1.302   5.611  0.9268 -0.8985 -1.1700
   15MOL0     H 2023   0.799   1.274   5.924 -2.0922 -0.4569 -0.3374
   15MOL0     H 2024   0.704   1.199   5.797 -1.9120  2.4549 -1.9091
   15MOL0     H 2025   0.874   1.225   5.763 -0.5929 -2.1148  0.2356
   16MOL0     O 2026   8.575   0.572   9.233  0.2248 -0.5849 -0.1927
   16MOL0     C 2027   8.672   0.496   9.254 -0.7844 -0.1361 -0.0157
   16MOL0     O 2028   8.797   0.517   9.196  1.0095  0.3957 -0.1755
   16MOL0     C 2029   8.828   0.625   9.120 -0.7318  0.5296 -0.7068
   16MOL0     C 2030   8.752   0.684   9.016 -0.3957  0.4602  0.5410
   16MOL0     C 2031   8.818   0.783   8.942 -0.4692 -0.2277  0.2659
   16MOL0     C 2032   8.959   0.808   8.960  0.5082  0.2865 -0.3318
   16MOL0     O 2033   9.038   0.907   8.892 -0.2277 -0.2490  0.0959
   16MOL0     C 2034   8.982   0.994   8.800 -0.9014 -0.1085  0.5331
   16MOL0     C 2035   8.976   0.931   8.660  0.6207 -1.1975 -0.4247
   16MOL0     C 2036   8.929   1.031   8.558 -0.2556  0.2047 -0.4985
   16MOL0     C 2037   8.971   0.983   8.421 -0.1034  0.1873 -0.1765
   16MOL0     C 2038   8.925   1.085   8.316  0.0271  0.4004 -0.4734
   16MOL0     C 2039   8.943   1.036   8.172  0.1718  0.4516  0.9272
   16MOL0     C 2040   9.088   1.040   8.113  0.0012  0.3164  1.1110
   16MOL0     C 2041   9.181   1.161   8.125 -0.5488  0.0267  1.0864
   16MOL0     N 2042   9.153   1.260   8.019 -0.0390  0.0486 -0.3706
   16MOL0     C 2043   9.054   1.351   8.030  0.2048 -0.5091  0.3669
   16MOL0     C 2044   9.077   1.437   7.927  0.0034 -0.6546  0.1484
   16MOL0     C 2045   8.993   1.548   7.883 -0.0159 -0.4788  0.0355
   16MOL0     C 2046   9.016   1.658   7.776  0.0319  0.2323  0.5164
   16MOL0     C 2047   9.065   1.608   7.633  0.9039 -0.0139 -0.3854
   16MOL0     C 2048   9.082   1.727   7.544 -0.3802  0.1219  0.4064
   16MOL0     O 2049   9.143   1.705   7.418 -0.6330  0.3630 -0.0757
   16MOL0     C 2050   9.282   1.716   7.421  0.2593 -0.1023 -0.4471
   16MOL0     C 2051   9.336   1.683   7.298 -0.2545 -0.0046  0.1736
   16MOL0     C 2052   9.471   1.669   7.275 -0.8378  0.0232 -0.5604
   16MOL0     C 2053   9.559   1.686   7.382  0.3458 -0.0604 -0.4749
   16MOL0     C 2054   9.703   1.669   7.361 -0.1937  1.2436 -0.1837
   16MOL0     O 2055   9.748   1.632   7.239  0.1845  0.3513  0.3933
   16MOL0     C 2056   9.883   1.629   7.199  0.8685 -0.1960 -0.7946
   16MOL0     C 2057   9.996   1.684   7.268  0.2319 -1.4464  0.3430
   16MOL0     C 2058  10.123   1.665   7.212 -0.6526 -0.2466  0.4373
   16MOL0     C 2059  10.139   1.609   7.084 -0.3281 -0.7544  0.2066
   16MOL0     O 2060  10.266   1.610   7.019  0.8211 -0.4391 -0.6064
   16MOL0     C 2061  10.318   1.474   7.011 -0.1821  0.0620  0.6108
   16MOL0     C 2062  10.458   1.464   6.964  0.2532 -0.0472 -0.5437
   16MOL0     C 2063  10.555   1.519   7.067  0.2665  0.0567  0.0027
   16MOL0     C 2064  10.688   1.481   7.015 -0.7452  0.5498  0.2012
   16MOL0     C 2065  10.805   1.556   7.072 -0.5443  0.0193 -0.6768
   16MOL0     C 2066  10.934   1.538   6.985  0.3166 -0.2236  0.3405
   16MOL0     C 2067  11.044   1.616   7.048 -0.5995 -0.4181  0.5987
   16MOL0     C 2068  11.181   1.587   6.986 -0.0266  0.6545 -0.5044
   16MOL0    Cl 2069  11.330   1.627   7.078 -0.2312  0.3250 -0.3131
   16MOL0     C 2070  10.035   1.546   7.025  0.4641  0.4470  0.3452
   16MOL0     C 2071   9.905   1.548   7.089  0.8584  0.0710  1.6336
   16MOL0     O 2072   9.776   1.698   7.455  0.7743 -0.5860  1.0821
   16MOL0     C 2073   9.506   1.708   7.512  0.4790  0.3434 -0.1065
   16MOL0     C 2074   9.363   1.724   7.532 -0.5153 -0.0938  0.1315
   16MOL0     N 2075   9.199   1.395   7.873  0.7631  0.1727  0.8476
   16MOL0     N 2076   9.239   1.291   7.919  0.3148 -0.5003  0.4616
   16MOL0     C 2077   9.027   0.734   9.055  0.0880 -0.7090 -0.2186
   16MOL0     C 2078   8.965   0.641   9.133 -0.0873  0.2335 -0.3099
   16MOL0     C 2079   8.644   0.369   9.328  0.3619  0.9526  0.0241
   16MOL0     C 2080   8.506   0.350   9.371 -0.4334  0.7402 -0.2020
   16MOL0     C 2081   8.466   0.236   9.447  0.0313  0.1848  0.0474
   16MOL0     C 2082   8.568   0.141   9.478  0.1383  0.1195 -0.2480
   16MOL0     O 2083   8.547   0.028   9.554 -0.2931 -0.6490  0.1302
   16MOL0     C 2084   8.422  -0.022   9.598 -0.0123  0.1516  0.0853
   16MOL0     C 2085   8.437  -0.086   9.729  0.2069 -0.1869 -0.2253
   16MOL0     C 2086   8.313  -0.081   9.818 -0.8802 -0.4951  0.3223
   16MOL0     C 2087   8.191  -0.145   9.768  0.8285 -0.2513  0.1280
   16MOL0     C 2088   8.081  -0.112   9.862 -0.5274  0.4682  0.4352
   16MOL0     C 2089   7.972  -0.093   9.903 -0.8081 -0.3730  0.2774
   16MOL0     C 2090   8.694   0.157   9.430 -0.8226  0.1028  0.2305
   16MOL0     C 2091   8.740   0.268   9.355 -0.7980  0.2620  1.0643
   16MOL0     C 2092   8.892   0.266   9.307  0.5333  0.0484 -0.5934
   16MOL0     H 2093   8.647   0.660   9.001 -0.6141  0.7367  1.5048
   16MOL0     H 2094   8.755   0.841   8.875 -0.6621 -0.1254  0.5359
   16MOL0     H 2095   8.879   1.026   8.819 -0.7958  0.1819  0.6069
   16MOL0     H 2096   9.048   1.081   8.796 -1.1362  0.0413 -1.6970
   16MOL0     H 2097   8.905   0.847   8.667  1.4270 -1.7605  1.9327
   16MOL0     H 2098   9.078   0.901   8.633  1.0063 -0.6653  0.4157
   16MOL0     H 2099   8.987   1.124   8.562  1.0925 -0.6147 -0.2673
   16MOL0     H 2100   8.824   1.055   8.574 -0.1033  2.0374 -1.9212
   16MOL0     H 2101   9.080   0.975   8.408 -0.2952 -0.1858 -1.7515
   16MOL0     H 2102   8.930   0.885   8.395 -0.8073  0.6088 -0.6812
   16MOL0     H 2103   8.822   1.113   8.339  0.1157  0.5961 -0.3071
   16MOL0     H 2104   8.991   1.172   8.326  0.2414  0.3278 -1.2111
   16MOL0     H 2105   8.885   0.948   8.143 -0.1763  1.3474 -1.3041
   16MOL0     H 2106   8.893   1.120   8.123 -0.4181  2.6682  4.8684
   16MOL0     H 2107   9.086   1.013   8.007  0.4644  3.6058  0.1575
   16MOL0     H 2108   9.150   0.963   8.161 -1.1208  0.0813  2.2593
   16MOL0     H 2109   9.181   1.203   8.226  0.2802  0.6013  0.8532
   16MOL0     H 2110   9.281   1.123   8.103 -1.6450 -1.2300 -2.2669
   16MOL0     H 2111   8.985   1.364   8.112  1.6146  3.2091  1.2077
   16MOL0     H 2112   8.888   1.523   7.867 -0.1662  0.8550 -1.2896
   16MOL0     H 2113   8.984   1.602   7.978 -2.0312 -2.5651  1.1199
   16MOL0     H 2114   8.924   1.715   7.762  1.2851  2.4074  0.6343
   16MOL0     H 2115   9.079   1.742   7.808 -0.0321  0.6793 -0.4778
   16MOL0     H 2116   8.993   1.542   7.584  0.0346  1.0416 -0.5506
   16MOL0     H 2117   9.161   1.556   7.641  1.7011  1.6191  2.0994
   16MOL0     H 2118   9.132   1.806   7.601  1.2824 -0.5246 -0.0914
   16MOL0     H 2119   8.992   1.777   7.507  0.2589 -0.3736 -1.9477
   16MOL0     H 2120   9.273   1.672   7.211  0.7364  0.4390 -0.6153
   16MOL0     H 2121   9.508   1.653   7.174 -0.4742 -2.5180 -0.0972
   16MOL0     H 2122   9.985   1.746   7.356 -1.7392 -2.0202  0.5318
   16MOL0     H 2123  10.224   1.687   7.244  0.2545  0.3818 -2.6062
   16MOL0     H 2124  10.315   1.431   7.111  1.2860 -0.6505  0.3643
   16MOL0     H 2125  10.254   1.415   6.945  0.9414  0.5383 -0.9768
   16MOL0     H 2126  10.483   1.359   6.944  0.1532  0.1625 -1.8350
   16MOL0     H 2127  10.461   1.522   6.871 -0.0405  0.2296 -0.3799
   16MOL0     H 2128  10.543   1.622   7.101 -1.0677 -0.8066  2.4111
   16MOL0     H 2129  10.529   1.458   7.155  0.6756  0.8146  0.6681
   16MOL0     H 2130  10.694   1.519   6.913  0.1826 -0.6397 -0.2081
   16MOL0     H 2131  10.698   1.372   7.016 -3.5577  0.1859 -1.1913
   16MOL0     H 2132  10.827   1.504   7.166 -1.4646 -0.8371 -0.9127
   16MOL0     H 2133  10.787   1.663   7.086 -2.1958 -0.4046  0.8479
   16MOL0     H 2134  10.943   1.431   6.965 -2.4271 -0.1327 -2.0247
   16MOL0     H 2135  10.907   1.593   6.894  0.1268  1.7576  1.5450
   16MOL0     H 2136  11.049   1.579   7.151 -0.9197  1.0169  1.1590
   16MOL0     H 2137  11.029   1.725   7.046 -0.2629 -0.3674  0.8223
   16MOL0     H 2138  11.200   1.481   6.970  2.7915  1.2052 -1.4732
   16MOL0     H 2139  11.182   1.638   6.889 -2.0064  0.5467 -0.6059
   16MOL0     H 2140  10.059   1.490   6.935  1.7369 -0.2336  1.0799
   16MOL0     H 2141   9.822   1.497   7.042  1.7080  0.3868 -0.3165
   16MOL0     H 2142   9.581   1.710   7.590  1.9961  1.4672 -1.5104
   16MOL0     H 2143   9.312   1.741   7.626 -3.1257  1.6873 -1.4693
   16MOL0     H 2144   9.128   0.769   9.071 -0.6693  0.9631  1.2432
   16MOL0     H 2145   9.032   0.591   9.203  2.3210  2.7000 -0.6732
   16MOL0     H 2146   8.437   0.431   9.349  0.1903  1.1799 -0.5799
   16MOL0     H 2147   8.365   0.221   9.483  0.2706  0.9277  1.0405
   16MOL0     H 2148   8.378  -0.079   9.515 -3.7901  1.9251  0.6366
   16MOL0     H 2149   8.350   0.059   9.615  0.6232  1.5031 -3.0113
   16MOL0     H 2150   8.514  -0.040   9.792 -0.3071 -1.0025  1.0224
   16MOL0     H 2151   8.471  -0.188   9.714 -0.9087 -0.3220 -2.0723
   16MOL0     H 2152   8.293   0.023   9.847  1.3412 -0.1267  0.7298
   16MOL0     H 2153   8.341  -0.131   9.912  0.2986 -2.3097 -0.9362
   16MOL0     H 2154   8.162  -0.106   9.670 -2.0518 -0.7585  0.6860
   16MOL0     H 2155   8.201  -0.253   9.781 -0.8996 -0.2876  1.5632
   16MOL0     H 2156   7.871  -0.066   9.924  0.2939  2.1320  3.0791
   16MOL0     H 2157   8.758   0.075   9.458  1.4803  1.5224 -0.5672
   16MOL0     H 2158   8.942   0.340   9.370  0.5469 -2.5038  2.6842
   16MOL0     H 2159   8.942   0.170   9.325 -3.1593 -1.8141  0.7415
   16MOL0     H 2160   8.904   0.302   9.204 -0.2277 -0.3808 -0.8360
   17MOL0     O 2161   5.329   2.274   9.522 -0.8127 -0.3466 -0.2742
   17MOL0     C 2162   5.321   2.384   9.458 -0.2315  0.8199  0.1024
   17MOL0     O 2163   5.221   2.411   9.369  0.0868  0.3823 -0.1173
   17MOL0     C 2164   5.143   2.312   9.316 -0.2117  0.8101  1.0692
   17MOL0     C 2165   5.181   2.244   9.199  0.1361 -0.6640  0.1356
   17MOL0     C 2166   5.099   2.147   9.139  0.3593  1.1284  0.3592
   17MOL0     C 2167   4.973   2.121   9.189 -0.3162  0.2303  0.2882
   17MOL0     O 2168   4.906   2.016   9.127  0.1865 -0.3189 -0.1981
   17MOL0     C 2169   4.769   1.970   9.164  0.5923 -0.1745 -0.5206
   17MOL0     C 2170   4.701   1.893   9.049 -0.0444  0.2447  0.5164
   17MOL0     C 2171   4.680   1.985   8.932 -0.2752  0.3211  0.3059
   17MOL0     C 2172   4.558   2.074   8.953 -0.8376  0.7422  0.2757
   17MOL0     C 2173   4.513   2.163   8.838 -0.2470 -0.7894  0.3994
   17MOL0     C 2174   4.462   2.062   8.732 -0.6144  0.5958  0.2994
   17MOL0     C 2175   4.416   2.137   8.608  0.2204 -0.1274 -0.7301
   17MOL0     C 2176   4.405   2.055   8.485 -0.2528  0.4666 -0.2977
   17MOL0     N 2177   4.539   2.021   8.436 -0.5437  0.4443  0.1888
   17MOL0     C 2178   4.588   2.070   8.322  0.5303 -0.0324 -1.1085
   17MOL0     C 2179   4.708   2.010   8.304  0.6858 -0.3222  0.7269
   17MOL0     C 2180   4.794   2.033   8.183  0.4468 -0.0415  0.2005
   17MOL0     C 2181   4.938   2.061   8.222  0.0632  0.3097 -0.5444
   17MOL0     C 2182   5.021   2.110   8.111 -0.2504  0.4677 -0.7648
   17MOL0     C 2183   5.166   2.131   8.147  0.8817 -0.1177  0.1059
   17MOL0     O 2184   5.192   2.269   8.191 -0.5856  0.3635 -0.7023
   17MOL0     C 2185   5.323   2.309   8.222  0.2102  0.7022  0.7179
   17MOL0     C 2186   5.354   2.342   8.356 -0.3085 -0.0089  0.7691
   17MOL0     C 2187   5.488   2.383   8.392  0.0880  1.1203 -0.7369
   17MOL0     C 2188   5.581   2.388   8.285 -0.5871 -0.4034  0.7342
   17MOL0     C 2189   5.727   2.430   8.314  0.2522 -0.5839 -0.8511
   17MOL0     O 2190   5.820   2.381   8.229  0.0220  0.7171  0.3712
   17MOL0     C 2191   5.944   2.425   8.250 -0.4576 -0.5721  0.9462
   17MOL0     C 2192   5.987   2.527   8.160 -0.3786  0.1751 -1.7422
   17MOL0     C 2193   6.122   2.572   8.186 -0.6532 -0.9574 -0.8991
   17MOL0     C 2194   6.203   2.523   8.293 -0.5042 -0.8236  0.4464
   17MOL0     O 2195   6.330   2.563   8.325  0.4953 -0.2191 -0.2323
   17MOL0     C 2196   6.394   2.642   8.230  0.8007  0.0504 -0.1115
   17MOL0     C 2197   6.538   2.655   8.271  0.6316 -0.1698  0.4382
   17MOL0     C 2198   6.623   2.721   8.159  0.3695 -1.2757 -0.8278
   17MOL0     C 2199   6.712   2.628   8.093  0.7502  0.4457  0.0500
   17MOL0     C 2200   6.717   2.629   7.938  0.3761 -1.0255 -0.2468
   17MOL0     C 2201   6.821   2.538   7.869  0.1023  0.6920  1.4371
   17MOL0     C 2202   6.814   2.393   7.936  0.9330  0.1421  0.4812
   17MOL0     C 2203   6.933   2.323   7.871  0.7611  0.7500  0.1223
   17MOL0    Cl 2204   6.914   2.306   7.690  0.3943  0.4351 -0.3351
   17MOL0     C 2205   6.149   2.414   8.369 -0.1284 -0.0333 -0.7929
   17MOL0     C 2206   6.020   2.374   8.349  0.7294  0.1627 -0.3747
   17MOL0     O 2207   5.748   2.508   8.407 -0.9776 -0.8858  0.3275
   17MOL0     C 2208   5.549   2.347   8.151  0.2063  0.8903 -0.1971
   17MOL0     C 2209   5.422   2.306   8.126 -0.5723  0.4947 -0.4273
   17MOL0     N 2210   4.729   1.921   8.408 -0.1058 -0.3842  0.2294
   17MOL0     N 2211   4.625   1.928   8.483  0.2045 -0.8542 -0.9862
   17MOL0     C 2212   4.932   2.184   9.309 -0.0275 -0.3218  0.4336
   17MOL0     C 2213   5.021   2.276   9.371  0.7300 -0.1547  0.0953
   17MOL0     C 2214   5.413   2.495   9.471  0.3297  0.7033 -0.4479
   17MOL0     C 2215   5.392   2.597   9.381  0.6228  0.3203  0.0376
   17MOL0     C 2216   5.484   2.709   9.380 -0.7738  0.7831  0.5450
   17MOL0     C 2217   5.602   2.707   9.457  0.9284 -0.1282 -0.5948
   17MOL0     O 2218   5.700   2.808   9.444  0.2878 -0.1734 -0.0752
   17MOL0     C 2219   5.835   2.774   9.474  0.4043 -0.0542 -0.1439
   17MOL0     C 2220   5.930   2.888   9.465 -0.0452 -0.4876 -0.0967
   17MOL0     C 2221   5.932   2.976   9.590  0.2345 -0.3220 -0.2102
   17MOL0     C 2222   5.985   3.119   9.572 -0.4939  0.3146  0.0465
   17MOL0     C 2223   5.978   3.189   9.701  1.0404  0.2741  0.8135
   17MOL0     C 2224   5.968   3.227   9.819 -0.0953  0.7410  0.9735
   17MOL0     C 2225   5.608   2.610   9.556 -0.1260 -1.0312 -0.3668
   17MOL0     C 2226   5.509   2.514   9.575  0.0101  0.6650  0.1108
   17MOL0     C 2227   5.515   2.419   9.692 -0.1298  0.1951  0.3956
   17MOL0     H 2228   5.275   2.247   9.144 -0.3205  1.0885 -0.6118
   17MOL0     H 2229   5.120   2.104   9.041 -3.9460 -0.7132  0.0292
   17MOL0     H 2230   4.779   1.903   9.249  3.1029 -1.2557 -1.5562
   17MOL0     H 2231   4.709   2.056   9.196  0.1177 -0.0533 -1.6545
   17MOL0     H 2232   4.608   1.842   9.078 -0.2344 -1.2997 -2.3292
   17MOL0     H 2233   4.773   1.816   9.019  2.0206  1.8938  1.0106
   17MOL0     H 2234   4.672   1.918   8.845 -1.5691  0.7345  0.0859
   17MOL0     H 2235   4.767   2.048   8.910 -2.2149  2.8325 -0.7737
   17MOL0     H 2236   4.475   2.013   8.989  1.2431 -3.3028 -1.1115
   17MOL0     H 2237   4.589   2.138   9.036 -0.4506 -0.7132  1.3006
   17MOL0     H 2238   4.440   2.237   8.873 -0.9353  1.9483 -5.6687
   17MOL0     H 2239   4.599   2.220   8.801  1.5288 -1.7974  2.6657
   17MOL0     H 2240   4.556   2.014   8.703 -0.9632  0.1742 -0.1437
   17MOL0     H 2241   4.382   1.993   8.758  0.8338 -1.3812 -0.2505
   17MOL0     H 2242   4.495   2.211   8.590 -1.8653  2.3928 -0.1861
   17MOL0     H 2243   4.322   2.190   8.625 -0.2813 -1.4416  0.8729
   17MOL0     H 2244   4.338   1.973   8.509 -1.6323  1.9714  1.1954
   17MOL0     H 2245   4.339   2.101   8.411 -2.2494  1.4914  2.0088
   17MOL0     H 2246   4.544   2.143   8.255  1.5114  2.6796  1.0137
   17MOL0     H 2247   4.794   1.945   8.118  4.5254  0.7002 -1.1167
   17MOL0     H 2248   4.761   2.116   8.120 -2.0139 -2.0493 -1.3388
   17MOL0     H 2249   4.944   2.135   8.302 -0.0600  0.5100 -0.7235
   17MOL0     H 2250   4.997   1.971   8.243  2.7583  2.4235  1.7023
   17MOL0     H 2251   4.968   2.197   8.070 -1.5770  0.7482  1.4023
   17MOL0     H 2252   5.013   2.033   8.033 -2.6794 -0.8335  0.6330
   17MOL0     H 2253   5.227   2.108   8.059 -0.8870 -1.7414 -0.7932
   17MOL0     H 2254   5.202   2.064   8.226 -2.2453 -2.4116 -0.2007
   17MOL0     H 2255   5.278   2.340   8.434 -0.3193  2.3369  0.8642
   17MOL0     H 2256   5.518   2.402   8.494  1.1806  0.9203 -1.0018
   17MOL0     H 2257   5.929   2.574   8.082  0.1501  0.9663 -1.6680
   17MOL0     H 2258   6.170   2.649   8.126 -0.6255 -0.6676 -0.5158
   17MOL0     H 2259   6.382   2.593   8.133 -2.4624  0.4130 -0.0221
   17MOL0     H 2260   6.349   2.742   8.238 -1.5261 -0.9962  0.8243
   17MOL0     H 2261   6.549   2.711   8.365  5.4094  0.2525 -0.1353
   17MOL0     H 2262   6.572   2.552   8.285  1.0412 -0.0228  0.5411
   17MOL0     H 2263   6.555   2.765   8.085 -0.3609  2.5244  1.7872
   17MOL0     H 2264   6.675   2.807   8.202  2.4976 -1.2140 -3.2830
   17MOL0     H 2265   6.691   2.526   8.127 -0.5590  1.0112  0.9768
   17MOL0     H 2266   6.811   2.660   8.128  1.0412 -0.6674  0.2776
   17MOL0     H 2267   6.743   2.731   7.908 -0.8849 -0.7189 -0.3429
   17MOL0     H 2268   6.620   2.605   7.894  0.2232  2.0902 -1.9069
   17MOL0     H 2269   6.793   2.531   7.764 -3.9703 -0.1062  2.4077
   17MOL0     H 2270   6.923   2.577   7.878  0.9589 -1.3739  1.2302
   17MOL0     H 2271   6.725   2.343   7.899  0.9420  1.0327 -0.8291
   17MOL0     H 2272   6.826   2.390   8.045 -1.6647  0.7379  0.8446
   17MOL0     H 2273   7.027   2.378   7.878  1.4017 -0.2889 -0.1415
   17MOL0     H 2274   6.943   2.220   7.906 -4.1962 -0.2379 -0.5325
   17MOL0     H 2275   6.198   2.366   8.454  0.4008  0.4552 -0.8136
   17MOL0     H 2276   5.976   2.295   8.410  2.9446 -0.5146  0.4158
   17MOL0     H 2277   5.630   2.326   8.082  0.3553  0.3528  0.1364
   17MOL0     H 2278   5.389   2.266   8.030 -0.5424  1.6344 -0.9353
   17MOL0     H 2279   4.836   2.163   9.355  0.1049  0.7262  1.2234
   17MOL0     H 2280   4.981   2.332   9.456  1.4132  0.8995 -0.2555
   17MOL0     H 2281   5.301   2.607   9.323 -0.3830 -0.0061  1.4801
   17MOL0     H 2282   5.461   2.792   9.314 -3.4597  0.2513  0.6825
   17MOL0     H 2283   5.858   2.697   9.400 -3.6845 -1.0327 -0.6454
   17MOL0     H 2284   5.836   2.737   9.577 -2.1872 -0.0042 -0.0402
   17MOL0     H 2285   5.920   2.947   9.373  1.5066  0.2551  0.1832
   17MOL0     H 2286   6.029   2.842   9.469 -0.4497 -1.3131  3.0020
   17MOL0     H 2287   5.992   2.930   9.669 -0.6218  0.3834  0.8854
   17MOL0     H 2288   5.827   2.984   9.622 -0.5303 -0.6020 -2.4742
   17MOL0     H 2289   6.085   3.123   9.529 -0.6261 -0.2900 -0.3217
   17MOL0     H 2290   5.922   3.176   9.503 -0.8726  1.2936  1.1618
   17MOL0     H 2291   5.959   3.246   9.924 -3.7683 -1.6385  1.2831
   17MOL0     H 2292   5.688   2.594   9.627 -0.2887 -0.6130 -0.0836
   17MOL0     H 2293   5.559   2.324   9.659 -0.9785  0.2732 -1.0285
   17MOL0     H 2294   5.581   2.463   9.767 -1.1243  0.4086  1.1656
   17MOL0     H 2295   5.418   2.396   9.738  0.3761 -3.5268 -0.0463
   18MOL0     O 2296   8.345   4.332   4.238  0.5359 -0.2020 -0.4692
   18MOL0     C 2297   8.351   4.324   4.364  0.2057 -0.7706 -0.9138
   18MOL0     O 2298   8.472   4.332   4.439 -0.0664  0.0713 -0.0634
   18MOL0     C 2299   8.596   4.344   4.379  0.1644 -0.3254  0.6474
   18MOL0     C 2300   8.701   4.260   4.417 -0.0382 -0.8953  1.1385
   18MOL0     C 2301   8.828   4.280   4.359 -0.3644 -0.2248  0.5728
   18MOL0     C 2302   8.854   4.383   4.267 -0.1855  0.0828 -0.5119
   18MOL0     O 2303   8.982   4.411   4.218 -0.2748 -0.7852 -0.2586
   18MOL0     C 2304   9.035   4.524   4.292 -0.3107 -0.5804  0.7495
   18MOL0     C 2305   9.014   4.666   4.216 -0.6741  0.5236  0.0266
   18MOL0     C 2306   9.139   4.679   4.125  0.3560  0.0015  0.6051
   18MOL0     C 2307   9.129   4.804   4.032  0.0756  0.0559 -0.8232
   18MOL0     C 2308   9.270   4.854   3.973  0.1818 -0.0301  0.1039
   18MOL0     C 2309   9.372   4.905   4.079  0.7224  0.5792 -0.1862
   18MOL0     C 2310   9.477   4.982   4.010  0.9999  0.8004 -0.1455
   18MOL0     C 2311   9.571   4.910   3.908  0.0321  0.6678  0.2296
   18MOL0     N 2312   9.657   4.818   3.978  0.0911  0.5688  0.2387
   18MOL0     C 2313   9.791   4.840   3.999 -0.4764 -0.4177 -0.3325
   18MOL0     C 2314   9.831   4.724   4.052 -0.1271  0.4602  0.6810
   18MOL0     C 2315   9.960   4.694   4.110 -1.1444  0.3248 -0.8948
   18MOL0     C 2316   9.952   4.665   4.262 -1.5618 -0.2461 -0.5715
   18MOL0     C 2317  10.085   4.646   4.332 -0.0275  0.2129 -0.7442
   18MOL0     C 2318  10.070   4.660   4.483 -0.4073  0.5579 -0.6976
   18MOL0     O 2319  10.181   4.599   4.544  0.0580 -0.4066 -0.5377
   18MOL0     C 2320  10.198   4.617   4.677  0.4467 -0.0617 -0.4165
   18MOL0     C 2321  10.137   4.716   4.755  1.1570 -0.7292 -0.2971
   18MOL0     C 2322  10.175   4.735   4.885 -0.6061 -0.1032  0.3741
   18MOL0     C 2323  10.286   4.666   4.936  0.1820 -0.2141  0.2840
   18MOL0     C 2324  10.322   4.692   5.076  0.8520 -0.2369  0.6304
   18MOL0     O 2325  10.431   4.631   5.118 -0.3761  0.3932  0.0929
   18MOL0     C 2326  10.503   4.699   5.213  0.2396 -0.7567 -0.0132
   18MOL0     C 2327  10.466   4.703   5.339 -0.4106 -0.4938  0.1213
   18MOL0     C 2328  10.532   4.799   5.432  0.4341  0.7900  0.5549
   18MOL0     C 2329  10.639   4.876   5.394  0.0533  0.7649  0.4339
   18MOL0     O 2330  10.685   4.963   5.481 -0.3674  0.0361  0.4916
   18MOL0     C 2331  10.781   5.058   5.455  0.0359 -2.0950 -0.1316
   18MOL0     C 2332  10.867   5.085   5.582  0.3913  0.3961 -0.6575
   18MOL0     C 2333  10.793   5.167   5.683  0.0645 -0.6265  0.2422
   18MOL0     C 2334  10.851   5.171   5.826 -0.1941 -0.7407  0.0057
   18MOL0     C 2335  10.934   5.291   5.848 -0.8856  0.5866  0.3810
   18MOL0     C 2336  11.014   5.275   5.978 -0.2891  0.0988  0.1962
   18MOL0     C 2337  11.143   5.357   5.968 -0.1016 -0.6302 -0.1815
   18MOL0     C 2338  11.226   5.319   6.096 -0.0682  0.0032  0.1617
   18MOL0    Cl 2339  11.129   5.346   6.254  0.1468 -0.2561 -0.3059
   18MOL0     C 2340  10.678   4.859   5.256 -0.7083  0.3786  0.1652
   18MOL0     C 2341  10.617   4.773   5.166  0.3491 -0.0298  0.8107
   18MOL0     O 2342  10.257   4.768   5.145 -0.0957 -0.1750  0.1314
   18MOL0     C 2343  10.349   4.570   4.868  0.8232 -0.2917 -1.1366
   18MOL0     C 2344  10.304   4.539   4.736  0.3519 -0.2499 -0.1238
   18MOL0     N 2345   9.721   4.636   4.062  0.0892  0.9064  0.0213
   18MOL0     N 2346   9.621   4.696   4.022  0.4841 -1.8741 -0.2651
   18MOL0     C 2347   8.750   4.444   4.214 -0.1928 -0.7142  0.1665
   18MOL0     C 2348   8.622   4.439   4.274 -0.0545  0.4114 -0.1896
   18MOL0     C 2349   8.225   4.316   4.452 -0.8127 -0.0941 -0.0507
   18MOL0     C 2350   8.239   4.350   4.588  0.4003  0.5190  0.0865
   18MOL0     C 2351   8.133   4.341   4.676  0.0652 -1.0260 -0.3942
   18MOL0     C 2352   8.002   4.308   4.638 -0.1904  0.4893 -0.7859
   18MOL0     O 2353   7.897   4.319   4.731  0.9265 -0.2178 -1.0583
   18MOL0     C 2354   7.914   4.281   4.869  0.3304  0.2239 -0.2968
   18MOL0     C 2355   7.791   4.220   4.931 -0.1301  0.1237  0.3614
   18MOL0     C 2356   7.668   4.314   4.929 -0.4643 -0.3911 -0.2895
   18MOL0     C 2357   7.555   4.253   5.014 -0.0882  0.2682  0.3389
   18MOL0     C 2358   7.502   4.133   4.956 -0.7884  0.3542  0.1198
   18MOL0     C 2359   7.459   4.041   4.889  0.4598 -0.5061 -0.3407
   18MOL0     C 2360   7.986   4.287   4.504 -0.7279  0.1492  0.4152
   18MOL0     C 2361   8.096   4.284   4.406  0.3041 -0.1896  0.1102
   18MOL0     C 2362   8.063   4.253   4.257  0.1456 -1.1125 -0.4639
   18MOL0     H 2363   8.684   4.192   4.500 -2.2570  0.7825  2.1860
   18MOL0     H 2364   8.919   4.227   4.385  0.5502 -0.0661 -1.9959
   18MOL0     H 2365   8.987   4.530   4.390  1.1637 -1.3872  1.5615
   18MOL0     H 2366   9.141   4.513   4.318 -0.1226 -0.3806  0.0746
   18MOL0     H 2367   9.011   4.748   4.289 -0.6657 -0.9846  1.8163
   18MOL0     H 2368   8.924   4.659   4.154  1.0045 -3.6798 -2.3714
   18MOL0     H 2369   9.144   4.586   4.069 -1.0326 -0.7886  1.7360
   18MOL0     H 2370   9.224   4.697   4.192  1.5249  1.0703 -1.0625
   18MOL0     H 2371   9.059   4.797   3.948  1.2202  0.0517 -1.8141
   18MOL0     H 2372   9.104   4.886   4.100  3.1369  3.0927 -3.0349
   18MOL0     H 2373   9.322   4.777   3.914 -0.5895 -1.7749  1.6055
   18MOL0     H 2374   9.244   4.932   3.901 -1.2692 -0.7362 -0.1812
   18MOL0     H 2375   9.325   4.975   4.149 -0.9969 -1.4595  0.8253
   18MOL0     H 2376   9.417   4.819   4.128 -1.8286 -2.3601 -2.5162
   18MOL0     H 2377   9.546   5.025   4.083  0.1592 -1.1602  1.9099
   18MOL0     H 2378   9.422   5.061   3.957  0.5001 -1.3875 -3.1996
   18MOL0     H 2379   9.527   4.867   3.818  2.0995 -1.5267  0.1585
   18MOL0     H 2380   9.630   4.994   3.870 -0.3930 -0.1740 -2.5649
   18MOL0     H 2381   9.849   4.927   3.972  0.4325 -0.8596  0.1446
   18MOL0     H 2382  10.000   4.604   4.062  0.0040 -0.4101  1.3231
   18MOL0     H 2383  10.030   4.778   4.104 -1.5741  0.9300  1.5095
   18MOL0     H 2384   9.894   4.751   4.296 -3.6315 -2.7298  2.8774
   18MOL0     H 2385   9.877   4.589   4.287 -0.9220 -0.8868 -0.5486
   18MOL0     H 2386  10.169   4.706   4.298 -0.1160  0.7597 -0.0399
   18MOL0     H 2387  10.129   4.548   4.311  2.2920  1.5067 -2.3305
   18MOL0     H 2388   9.977   4.610   4.513 -0.0185  0.6972  0.8145
   18MOL0     H 2389  10.052   4.766   4.504  0.1034  0.3076  1.2507
   18MOL0     H 2390  10.055   4.770   4.708  0.5705 -1.2055  0.1693
   18MOL0     H 2391  10.113   4.799   4.947  0.4868 -0.2112  1.6400
   18MOL0     H 2392  10.370   4.656   5.355 -1.0835 -0.0781 -2.3401
   18MOL0     H 2393  10.494   4.806   5.533  1.2665 -1.4943  1.0958
   18MOL0     H 2394  10.846   5.042   5.369  0.8452  2.8445 -0.7567
   18MOL0     H 2395  10.729   5.153   5.438  1.1364 -1.2838  0.8289
   18MOL0     H 2396  10.898   4.993   5.632  0.3407  1.3313  1.1798
   18MOL0     H 2397  10.953   5.150   5.565 -0.1866  1.1487 -0.7796
   18MOL0     H 2398  10.785   5.271   5.650 -0.5566 -0.3199  1.2942
   18MOL0     H 2399  10.690   5.134   5.702 -0.5288  0.2554 -1.2437
   18MOL0     H 2400  10.908   5.077   5.835 -2.0470 -1.7681  1.8393
   18MOL0     H 2401  10.762   5.171   5.889 -0.5034 -2.0092 -0.3934
   18MOL0     H 2402  10.871   5.379   5.863  1.9704  2.4516  2.4079
   18MOL0     H 2403  10.995   5.315   5.760 -1.1603  0.6328  0.2012
   18MOL0     H 2404  10.954   5.308   6.063 -0.3988 -1.1316  0.6130
   18MOL0     H 2405  11.040   5.169   5.990 -3.6116 -0.9405 -0.6728
   18MOL0     H 2406  11.137   5.466   5.969  2.5679 -0.4167 -0.7641
   18MOL0     H 2407  11.202   5.325   5.882 -0.3995  0.6309 -0.8738
   18MOL0     H 2408  11.254   5.214   6.088  2.3164  0.6299 -0.2449
   18MOL0     H 2409  11.322   5.370   6.096  1.7857 -3.0773 -2.8020
   18MOL0     H 2410  10.765   4.915   5.226 -0.3783 -0.6090 -0.7666
   18MOL0     H 2411  10.643   4.783   5.061  2.2455  0.5078  1.3051
   18MOL0     H 2412  10.428   4.508   4.910  0.9524 -0.6103 -1.8371
   18MOL0     H 2413  10.355   4.455   4.690  1.2819  0.2576 -0.0424
   18MOL0     H 2414   8.773   4.486   4.117  0.8103 -1.7175 -0.0484
   18MOL0     H 2415   8.533   4.487   4.236 -0.1646 -0.8577 -1.6349
   18MOL0     H 2416   8.330   4.390   4.630  0.1411  0.5783  0.6047
   18MOL0     H 2417   8.154   4.372   4.778  2.3839  0.1795 -1.1638
   18MOL0     H 2418   7.930   4.370   4.931  3.9325 -0.1454 -0.4784
   18MOL0     H 2419   8.001   4.218   4.888  1.6375  2.7972  3.6583
   18MOL0     H 2420   7.822   4.203   5.034  4.2941 -2.0637 -1.0632
   18MOL0     H 2421   7.776   4.119   4.891  3.1986  0.5022 -2.3847
   18MOL0     H 2422   7.630   4.343   4.831 -0.4748 -2.5255 -0.9671
   18MOL0     H 2423   7.694   4.413   4.969 -0.6759 -0.5788  0.3250
   18MOL0     H 2424   7.581   4.229   5.118  1.5442 -2.6830 -0.6278
   18MOL0     H 2425   7.476   4.329   5.012 -0.0282  0.3123 -0.4328
   18MOL0     H 2426   7.410   3.959   4.842 -0.2467 -0.6195  0.5678
   18MOL0     H 2427   7.887   4.262   4.465 -0.7969  0.3601  0.4561
   18MOL0     H 2428   8.112   4.313   4.179 -3.1161  2.4437 -0.0655
   18MOL0     H 2429   8.083   4.148   4.235 -2.0071 -1.6221 -0.2442
   18MOL0     H 2430   7.954   4.264   4.253  0.2785  0.7202  0.0596
   19MOL0     O 2431   2.322   7.423   5.644  0.5948  0.2592  0.2411
   19MOL0     C 2432   2.299   7.507   5.557 -0.9909  0.3977  0.4925
   19MOL0     O 2433   2.173   7.527   5.507  0.2144  0.3306 -0.6637
   19MOL0     C 2434   2.073   7.436   5.549  0.1477  0.4531 -0.1144
   19MOL0     C 2435   1.981   7.469   5.647  0.6871  0.5000 -1.3491
   19MOL0     C 2436   1.874   7.379   5.672  0.6396  0.7797  0.0655
   19MOL0     C 2437   1.867   7.254   5.613 -0.3791  0.4427 -0.0547
   19MOL0     O 2438   1.778   7.155   5.642 -0.3432  0.0617  0.6086
   19MOL0     C 2439   1.667   7.193   5.722  0.2916  0.4643  0.0121
   19MOL0     C 2440   1.583   7.063   5.742 -0.7379  0.9767 -0.3263
   19MOL0     C 2441   1.658   6.945   5.797  0.1602  0.2389 -0.8397
   19MOL0     C 2442   1.558   6.825   5.819  0.5975  0.4993 -0.7114
   19MOL0     C 2443   1.645   6.712   5.882 -0.2006  0.1398 -0.6832
   19MOL0     C 2444   1.777   6.673   5.799 -0.3830  0.4794 -0.1751
   19MOL0     C 2445   1.850   6.558   5.857  1.1914 -0.2750 -0.3703
   19MOL0     C 2446   1.989   6.546   5.787 -0.1271  0.2597  0.0455
   19MOL0     N 2447   1.987   6.537   5.644 -0.0561  0.1615  0.1195
   19MOL0     C 2448   2.076   6.584   5.548  0.1205 -0.6676  0.0412
   19MOL0     C 2449   2.042   6.547   5.422 -0.0415 -0.4329 -0.6733
   19MOL0     C 2450   2.097   6.594   5.295 -0.9678 -0.9263 -0.1130
   19MOL0     C 2451   2.011   6.696   5.230  0.5829  0.0875  0.1537
   19MOL0     C 2452   2.059   6.716   5.085 -0.0713 -0.7024  0.4437
   19MOL0     C 2453   2.190   6.800   5.077 -0.0804 -0.1361  0.0148
   19MOL0     O 2454   2.162   6.927   5.136  0.1095 -0.3260  0.5564
   19MOL0     C 2455   2.260   7.024   5.124  0.5866 -1.0390 -0.6478
   19MOL0     C 2456   2.215   7.159   5.138 -0.0826 -0.1043 -0.6959
   19MOL0     C 2457   2.311   7.263   5.135 -0.4840 -0.2779  0.3648
   19MOL0     C 2458   2.449   7.234   5.117  0.4119 -0.3012 -0.7720
   19MOL0     C 2459   2.550   7.348   5.108 -0.3657  0.1882  0.2404
   19MOL0     O 2460   2.688   7.317   5.107  0.1134  0.5815 -0.3738
   19MOL0     C 2461   2.773   7.415   5.123 -0.3014  0.4324 -0.3516
   19MOL0     C 2462   2.891   7.410   5.053 -0.3396 -0.3269  0.1289
   19MOL0     C 2463   2.981   7.516   5.065 -0.8253 -0.3945 -0.3049
   19MOL0     C 2464   2.968   7.625   5.156 -0.4384  0.6721 -0.4317
   19MOL0     O 2465   3.075   7.715   5.157 -0.9503  0.1973  0.2699
   19MOL0     C 2466   3.100   7.781   5.287 -0.2449  0.0413  0.1947
   19MOL0     C 2467   3.224   7.876   5.272  0.0017 -0.2713  0.1340
   19MOL0     C 2468   3.358   7.816   5.235 -0.2401  0.0236  0.0186
   19MOL0     C 2469   3.458   7.920   5.182 -0.1896  0.2146  0.2467
   19MOL0     C 2470   3.575   7.857   5.102 -0.7936  0.3797  0.0847
   19MOL0     C 2471   3.635   7.739   5.177 -0.6629 -0.0911  0.1286
   19MOL0     C 2472   3.708   7.773   5.314 -0.1329  1.3228 -0.2032
   19MOL0     C 2473   3.842   7.705   5.331  0.7060 -0.8263  0.4448
   19MOL0    Cl 2474   3.955   7.792   5.239  0.1267  0.1654 -0.0850
   19MOL0     C 2475   2.853   7.616   5.230 -0.5056 -0.2670  0.3405
   19MOL0     C 2476   2.763   7.512   5.219  0.6881  0.4823 -0.9066
   19MOL0     O 2477   2.502   7.460   5.106  0.5266  0.5662 -0.3886
   19MOL0     C 2478   2.494   7.100   5.101 -0.4132 -0.5162 -0.6927
   19MOL0     C 2479   2.396   6.997   5.093  0.2691  0.8596 -0.3908
   19MOL0     N 2480   1.937   6.462   5.443  0.1519 -0.0391  0.6632
   19MOL0     N 2481   1.921   6.442   5.575 -0.2499 -0.3802 -0.0678
   19MOL0     C 2482   1.967   7.223   5.523 -0.0476  0.8369 -0.4528
   19MOL0     C 2483   2.059   7.315   5.486 -0.1419  0.1950  0.0982
   19MOL0     C 2484   2.403   7.614   5.517 -0.0753 -0.0470  0.5022
   19MOL0     C 2485   2.368   7.702   5.409  0.6052  0.2443 -0.2625
   19MOL0     C 2486   2.442   7.817   5.375 -0.3882  0.2507 -0.1662
   19MOL0     C 2487   2.568   7.837   5.445  0.8018  0.6927  0.2252
   19MOL0     O 2488   2.648   7.948   5.433 -0.6125 -0.7003 -0.4484
   19MOL0     C 2489   2.605   8.045   5.337  0.1286 -0.4787  0.4734
   19MOL0     C 2490   2.700   8.171   5.349  0.5500  0.5871  0.8349
   19MOL0     C 2491   2.659   8.283   5.246  0.2493  0.8415  0.5408
   19MOL0     C 2492   2.514   8.343   5.267 -0.0509  0.1062 -0.4919
   19MOL0     C 2493   2.480   8.402   5.395 -0.1757  0.0579  0.0122
   19MOL0     C 2494   2.468   8.467   5.498  0.8210  0.5996 -0.2912
   19MOL0     C 2495   2.602   7.740   5.543 -1.0351 -0.2816  0.4267
   19MOL0     C 2496   2.523   7.639   5.588 -0.7687  0.5215  0.1708
   19MOL0     C 2497   2.588   7.537   5.688  0.4383 -0.7709  0.0915
   19MOL0     H 2498   1.979   7.565   5.698  3.0826 -0.5905  1.1276
   19MOL0     H 2499   1.798   7.408   5.744 -0.5992  1.2109 -1.3779
   19MOL0     H 2500   1.699   7.227   5.821 -0.0358  2.3745 -0.5019
   19MOL0     H 2501   1.610   7.272   5.673 -0.5596 -0.1479 -0.0144
   19MOL0     H 2502   1.534   7.037   5.648 -0.1144  1.9769 -0.9583
   19MOL0     H 2503   1.503   7.082   5.814 -0.1285  0.7938  0.4133
   19MOL0     H 2504   1.715   6.976   5.885 -0.6570 -1.8442  0.5065
   19MOL0     H 2505   1.726   6.911   5.717 -0.0633 -2.1934 -0.0939
   19MOL0     H 2506   1.477   6.858   5.885 -2.5697 -2.8318 -2.5632
   19MOL0     H 2507   1.517   6.799   5.721  0.3067 -1.2380 -0.1584
   19MOL0     H 2508   1.673   6.727   5.987  0.2247 -1.8259 -0.4787
   19MOL0     H 2509   1.585   6.621   5.876 -0.6527  0.4535 -0.9393
   19MOL0     H 2510   1.742   6.655   5.697  1.3068  3.4134 -1.4135
   19MOL0     H 2511   1.843   6.761   5.805  3.7257 -2.3017 -0.2136
   19MOL0     H 2512   1.804   6.463   5.829 -0.3928  0.1790  0.5722
   19MOL0     H 2513   1.872   6.570   5.964  0.0545 -0.9141 -0.0550
   19MOL0     H 2514   2.055   6.627   5.817  1.2358 -0.5206 -0.7875
   19MOL0     H 2515   2.019   6.450   5.829 -0.0888  0.0670 -0.4219
   19MOL0     H 2516   2.163   6.639   5.582 -2.4433  1.8229  3.1763
   19MOL0     H 2517   2.189   6.642   5.328 -2.0627  0.8585  0.5342
   19MOL0     H 2518   2.120   6.515   5.223  0.5850  1.7301 -2.7672
   19MOL0     H 2519   1.913   6.648   5.228  0.2153  0.7315 -3.5333
   19MOL0     H 2520   2.002   6.792   5.281  0.4070 -0.7655  1.7989
   19MOL0     H 2521   1.983   6.772   5.031  0.8148  1.9900  1.8191
   19MOL0     H 2522   2.058   6.614   5.045 -0.0117 -0.1668 -0.9501
   19MOL0     H 2523   2.220   6.814   4.973 -0.2045  0.7489  0.0908
   19MOL0     H 2524   2.276   6.748   5.122  2.4895  2.9367 -1.0168
   19MOL0     H 2525   2.110   7.187   5.140  0.2048  1.1235  2.3617
   19MOL0     H 2526   2.270   7.364   5.133 -1.8340 -0.7993 -1.9953
   19MOL0     H 2527   2.919   7.325   4.992  0.3592  0.1393 -0.2205
   19MOL0     H 2528   3.065   7.505   4.997 -1.3953 -4.1315 -0.6279
   19MOL0     H 2529   3.018   7.847   5.315  0.3230  0.6572  0.4397
   19MOL0     H 2530   3.116   7.715   5.373  1.0548  1.6448  1.2530
   19MOL0     H 2531   3.189   7.951   5.200 -1.7011 -2.6657 -1.7229
   19MOL0     H 2532   3.256   7.925   5.364  0.6910 -1.1739  0.3867
   19MOL0     H 2533   3.404   7.775   5.326  0.1529  0.9492  0.2470
   19MOL0     H 2534   3.354   7.735   5.162  2.6646 -1.3218  1.1660
   19MOL0     H 2535   3.501   7.972   5.268  1.8600 -0.2962 -0.4095
   19MOL0     H 2536   3.402   7.986   5.114 -0.6865 -0.8642 -0.4172
   19MOL0     H 2537   3.660   7.924   5.082 -0.1571 -0.8263 -1.4829
   19MOL0     H 2538   3.533   7.828   5.005  1.0335 -1.1883 -0.2925
   19MOL0     H 2539   3.558   7.662   5.191 -0.4795 -0.3366 -0.2222
   19MOL0     H 2540   3.702   7.693   5.105 -1.8208  1.8518 -2.3349
   19MOL0     H 2541   3.663   7.716   5.396  2.7607 -0.8779  0.0250
   19MOL0     H 2542   3.715   7.875   5.351 -1.6013  0.2942  3.3704
   19MOL0     H 2543   3.865   7.708   5.438 -0.5207 -1.7371  0.7478
   19MOL0     H 2544   3.836   7.604   5.291  0.2828 -0.9972  0.9323
   19MOL0     H 2545   2.821   7.681   5.311 -0.1808  1.0096 -0.5340
   19MOL0     H 2546   2.685   7.506   5.294  0.4052  1.5719 -1.0992
   19MOL0     H 2547   2.598   7.080   5.079  0.7369  1.3858  2.3355
   19MOL0     H 2548   2.439   6.898   5.083  2.2978  1.6173  0.2389
   19MOL0     H 2549   1.965   7.127   5.474  2.0083  1.1864 -1.3354
   19MOL0     H 2550   2.121   7.283   5.403 -0.9054 -1.5568  0.1707
   19MOL0     H 2551   2.272   7.687   5.362  0.4910 -1.9394  0.5510
   19MOL0     H 2552   2.415   7.888   5.298 -0.7806  1.4905  1.0818
   19MOL0     H 2553   2.501   8.075   5.353  0.1544  0.5622 -1.1357
   19MOL0     H 2554   2.606   8.003   5.236 -3.4215 -3.1674  1.3402
   19MOL0     H 2555   2.804   8.142   5.335  1.3382  3.9010 -1.5959
   19MOL0     H 2556   2.691   8.211   5.450  2.6750 -0.1066  1.3454
   19MOL0     H 2557   2.666   8.251   5.141  0.5102  1.9315  0.2118
   19MOL0     H 2558   2.736   8.360   5.259 -1.1734  2.0518  2.0792
   19MOL0     H 2559   2.497   8.426   5.197  3.2802 -0.5317 -2.2394
   19MOL0     H 2560   2.448   8.261   5.238 -1.7879  0.0015  3.1668
   19MOL0     H 2561   2.445   8.532   5.580  0.8203 -2.1615  2.0276
   19MOL0     H 2562   2.699   7.750   5.591  0.6232 -1.7102 -2.3602
   19MOL0     H 2563   2.569   7.435   5.654  3.1716 -0.4575 -2.8704
   19MOL0     H 2564   2.693   7.565   5.693  0.4372 -0.5579 -0.9209
   19MOL0     H 2565   2.545   7.556   5.787  1.5189 -1.5955  0.7389
   20MOL0     O 2566   9.856   3.635   2.700 -0.3151 -0.1034  0.0892
   20MOL0     C 2567   9.804   3.615   2.813  0.5965 -0.0197  0.4852
   20MOL0     O 2568   9.840   3.526   2.905 -0.2342  0.3142  0.3006
   20MOL0     C 2569   9.931   3.441   2.857  0.7536 -0.4548  0.6532
   20MOL0     C 2570  10.067   3.473   2.869  0.5028  0.4185 -0.3911
   20MOL0     C 2571  10.158   3.381   2.822 -0.1411  0.9311  0.0518
   20MOL0     C 2572  10.120   3.251   2.784 -0.7124 -0.4032 -0.0166
   20MOL0     O 2573  10.220   3.172   2.756 -0.0415  0.8667 -0.0083
   20MOL0     C 2574  10.215   3.066   2.655  0.0608  0.2373  0.0322
   20MOL0     C 2575  10.363   3.009   2.627  0.6953 -0.4209  0.1635
   20MOL0     C 2576  10.403   2.891   2.714 -0.0094 -0.0175 -0.6285
   20MOL0     C 2577  10.426   2.948   2.859 -0.6031  0.0759 -0.0594
   20MOL0     C 2578  10.498   2.841   2.948 -0.0870  0.3027 -0.3827
   20MOL0     C 2579  10.647   2.819   2.934 -0.6211 -0.2438 -0.0316
   20MOL0     C 2580  10.716   2.700   3.016  0.3634 -0.4027 -1.1082
   20MOL0     C 2581  10.863   2.674   2.959  0.2572  0.2806 -1.0085
   20MOL0     N 2582  10.955   2.782   2.948  0.1309 -0.2040 -0.4579
   20MOL0     C 2583  11.017   2.855   3.043 -0.5425  0.2991  0.3329
   20MOL0     C 2584  11.098   2.945   2.971  0.3370 -0.0600  0.1834
   20MOL0     C 2585  11.176   3.052   3.038  0.0744 -0.4479  1.2106
   20MOL0     C 2586  11.104   3.180   3.048  0.4877 -1.4127 -0.7533
   20MOL0     C 2587  11.064   3.238   2.913 -0.0413 -0.0896 -0.1588
   20MOL0     C 2588  11.052   3.392   2.919  0.3159  0.0379 -0.3489
   20MOL0     O 2589  10.993   3.453   3.042  0.1165  0.1165 -0.0641
   20MOL0     C 2590  10.857   3.468   3.050  0.7235  1.0686 -0.3720
   20MOL0     C 2591  10.817   3.559   3.145 -0.6523  0.2358  1.5940
   20MOL0     C 2592  10.685   3.595   3.159 -0.1514  0.2545 -0.5079
   20MOL0     C 2593  10.582   3.552   3.076 -0.8499  0.5788  1.1274
   20MOL0     C 2594  10.446   3.593   3.100  0.2261  1.5987  0.0842
   20MOL0     O 2595  10.426   3.677   3.204  0.6041  0.1295  0.2215
   20MOL0     C 2596  10.295   3.692   3.238  0.7105 -0.2303  0.7414
   20MOL0     C 2597  10.205   3.747   3.150  0.5527  0.5285  1.1189
   20MOL0     C 2598  10.075   3.779   3.202 -0.1053  0.5067  0.3793
   20MOL0     C 2599  10.031   3.758   3.329  0.2410  0.3319  0.5910
   20MOL0     O 2600   9.906   3.786   3.380 -0.1895  0.1995 -0.0144
   20MOL0     C 2601   9.799   3.793   3.290  0.3305 -0.9375  0.2343
   20MOL0     C 2602   9.671   3.779   3.372  0.3805 -1.5017 -0.1377
   20MOL0     C 2603   9.662   3.653   3.463  1.4499  0.6149 -0.6120
   20MOL0     C 2604   9.696   3.667   3.613 -0.2666  0.1541 -0.5834
   20MOL0     C 2605   9.680   3.537   3.687  0.1532 -0.0600 -0.8737
   20MOL0     C 2606   9.528   3.503   3.689 -0.0100  0.3439  0.1502
   20MOL0     C 2607   9.487   3.385   3.764  1.2166 -0.0426  0.3481
   20MOL0     C 2608   9.350   3.333   3.709 -0.1685  0.5262 -0.8077
   20MOL0    Cl 2609   9.312   3.174   3.806 -0.3950  0.0406 -0.2601
   20MOL0     C 2610  10.116   3.687   3.409  0.6837 -0.0141  0.8436
   20MOL0     C 2611  10.250   3.664   3.366 -0.3744  1.1031  0.5059
   20MOL0     O 2612  10.355   3.526   3.041 -0.2097  0.2206 -0.8900
   20MOL0     C 2613  10.623   3.462   2.973  0.6955 -0.2162  1.4514
   20MOL0     C 2614  10.756   3.420   2.956  0.1177  0.1657 -0.2778
   20MOL0     N 2615  11.066   2.931   2.831 -0.0046 -0.0702  0.6263
   20MOL0     N 2616  10.989   2.834   2.827 -0.8165 -0.2791  1.5261
   20MOL0     C 2617   9.989   3.222   2.775  0.6076 -0.5543  0.3954
   20MOL0     C 2618   9.897   3.319   2.807 -0.5163  0.6715  0.5224
   20MOL0     C 2619   9.708   3.715   2.860 -0.0364 -0.6942 -0.5698
   20MOL0     C 2620   9.742   3.854   2.851 -0.7595  0.0016 -0.0993
   20MOL0     C 2621   9.667   3.948   2.920 -0.4787  0.8153  0.0739
   20MOL0     C 2622   9.539   3.915   2.959 -0.8137  1.0979 -0.4899
   20MOL0     O 2623   9.468   4.027   2.993  0.0209 -0.0549  0.0056
   20MOL0     C 2624   9.333   4.016   3.054 -0.3066 -0.6566  0.0873
   20MOL0     C 2625   9.222   4.000   2.954 -0.1743  0.7989  0.4327
   20MOL0     C 2626   9.090   4.045   3.002 -0.0437 -0.2467 -0.3201
   20MOL0     C 2627   9.016   3.953   3.099 -0.8291 -0.5943  0.5608
   20MOL0     C 2628   8.891   4.007   3.144  0.6332  0.7980  1.1088
   20MOL0     C 2629   8.792   4.070   3.163  0.6778 -0.7919 -0.5131
   20MOL0     C 2630   9.494   3.781   2.972 -0.0388  0.4317 -0.0014
   20MOL0     C 2631   9.587   3.683   2.922  0.2523  0.5724 -0.9542
   20MOL0     C 2632   9.539   3.537   2.932 -0.5040 -0.4721  0.2358
   20MOL0     H 2633  10.099   3.569   2.908  1.5614  0.6214 -1.6851
   20MOL0     H 2634  10.265   3.382   2.841 -0.3033 -2.7005  1.9402
   20MOL0     H 2635  10.165   2.984   2.708  2.0279  0.0332  1.6778
   20MOL0     H 2636  10.166   3.100   2.563 -0.9210 -0.1999  0.3748
   20MOL0     H 2637  10.436   3.087   2.648 -1.0546  0.8109  1.9737
   20MOL0     H 2638  10.361   2.986   2.520 -1.9680  1.1282 -0.2056
   20MOL0     H 2639  10.488   2.838   2.671  0.7616 -0.8229  1.7647
   20MOL0     H 2640  10.324   2.817   2.726 -1.3572  1.3507 -0.6981
   20MOL0     H 2641  10.482   3.041   2.873  1.1818 -1.1352  1.2640
   20MOL0     H 2642  10.329   2.962   2.906  1.7371  0.1204  5.5160
   20MOL0     H 2643  10.484   2.874   3.051 -0.6232  0.5020 -0.5207
   20MOL0     H 2644  10.448   2.744   2.937  0.2553  0.2039 -1.1533
   20MOL0     H 2645  10.672   2.805   2.828 -0.9739  0.1304 -0.1667
   20MOL0     H 2646  10.700   2.912   2.955 -1.0521  0.3809 -1.5312
   20MOL0     H 2647  10.657   2.608   3.019 -2.2583  1.2108 -0.1827
   20MOL0     H 2648  10.734   2.736   3.117  1.8279  4.2746 -2.7770
   20MOL0     H 2649  10.902   2.600   3.029 -0.9032 -1.1773 -1.8426
   20MOL0     H 2650  10.855   2.624   2.863  5.3978  1.4009 -2.3379
   20MOL0     H 2651  11.019   2.839   3.150 -0.0139 -0.5513  0.2105
   20MOL0     H 2652  11.210   3.017   3.136  1.0090  0.3503  1.1832
   20MOL0     H 2653  11.262   3.063   2.972 -1.2741  0.6309 -0.4408
   20MOL0     H 2654  11.012   3.161   3.103  1.0702  2.1522  1.7452
   20MOL0     H 2655  11.166   3.254   3.098 -0.1576  2.0137 -4.4531
   20MOL0     H 2656  10.967   3.194   2.888 -0.6680  0.9393  0.4233
   20MOL0     H 2657  11.133   3.197   2.838  1.0957  0.9756  0.2651
   20MOL0     H 2658  10.994   3.428   2.833  0.3463  1.3909  0.1684
   20MOL0     H 2659  11.151   3.437   2.929 -0.5524  1.6767  1.4979
   20MOL0     H 2660  10.894   3.613   3.200  0.3922  1.3140 -0.7819
   20MOL0     H 2661  10.673   3.669   3.237 -0.5058 -0.3004 -0.0336
   20MOL0     H 2662  10.239   3.790   3.057 -2.3864  1.5884  0.4251
   20MOL0     H 2663  10.009   3.834   3.135  1.3465  0.5910 -1.0441
   20MOL0     H 2664   9.797   3.892   3.243  1.7437 -0.2658  1.5093
   20MOL0     H 2665   9.797   3.708   3.221  2.2926  0.1036 -1.2118
   20MOL0     H 2666   9.659   3.871   3.430  2.2804 -1.7693  0.7344
   20MOL0     H 2667   9.577   3.776   3.316 -0.7089 -0.4857  1.5238
   20MOL0     H 2668   9.561   3.615   3.444  1.9206 -1.7355  1.0766
   20MOL0     H 2669   9.720   3.574   3.413  0.4617 -0.6560  0.1854
   20MOL0     H 2670   9.631   3.738   3.665 -2.1310 -0.9814 -1.2589
   20MOL0     H 2671   9.796   3.710   3.625 -0.2651  0.3627 -1.3394
   20MOL0     H 2672   9.717   3.542   3.790  0.1383 -4.9202 -0.3952
   20MOL0     H 2673   9.740   3.456   3.644  0.7598 -0.3215  0.4134
   20MOL0     H 2674   9.468   3.583   3.733  1.3187  0.9176  1.0049
   20MOL0     H 2675   9.501   3.488   3.584  3.7837  0.5590 -1.0039
   20MOL0     H 2676   9.481   3.404   3.872  1.0761  2.7572 -0.0916
   20MOL0     H 2677   9.563   3.306   3.757  1.5266  0.0757  1.9943
   20MOL0     H 2678   9.263   3.399   3.721 -0.9497 -0.3946 -1.2662
   20MOL0     H 2679   9.361   3.296   3.606  4.9202  2.5533 -1.2822
   20MOL0     H 2680  10.078   3.660   3.507 -2.4774  0.4529 -0.1504
   20MOL0     H 2681  10.320   3.606   3.425  0.6852  2.2653  0.4225
   20MOL0     H 2682  10.556   3.424   2.896  0.3626  4.5384 -0.9898
   20MOL0     H 2683  10.773   3.347   2.878  1.7341  0.2157 -0.0062
   20MOL0     H 2684   9.948   3.127   2.741  2.2085 -1.4411  0.8731
   20MOL0     H 2685   9.793   3.304   2.779  0.3326 -0.2066 -2.5882
   20MOL0     H 2686   9.834   3.885   2.804 -1.6122  1.1952 -1.0730
   20MOL0     H 2687   9.696   4.051   2.935  1.5517  0.2491  0.2617
   20MOL0     H 2688   9.310   4.117   3.090  2.8528 -0.1426  1.0175
   20MOL0     H 2689   9.334   3.946   3.138  0.5855 -1.1545 -0.3188
   20MOL0     H 2690   9.211   3.893   2.934 -5.1458  0.8793  1.4188
   20MOL0     H 2691   9.241   4.044   2.855 -2.5667 -1.0281 -0.9631
   20MOL0     H 2692   9.031   4.047   2.910 -0.4894  0.4009 -0.0335
   20MOL0     H 2693   9.097   4.147   3.043 -3.7701 -0.5214  1.4167
   20MOL0     H 2694   9.001   3.858   3.048 -0.0029  0.6597 -2.2354
   20MOL0     H 2695   9.075   3.939   3.191 -3.1780 -1.2792  2.0370
   20MOL0     H 2696   8.703   4.125   3.188  0.6283  0.2867 -2.7916
   20MOL0     H 2697   9.409   3.744   3.028  1.0352 -1.9781  0.1564
   20MOL0     H 2698   9.581   3.484   3.019 -2.0306 -1.7237  0.2538
   20MOL0     H 2699   9.431   3.547   2.942 -0.2658  2.3618  0.8564
   20MOL0     H 2700   9.570   3.485   2.841  2.4805  2.2695 -0.4839
   21MOL0     O 2701   1.186   1.208   1.358  0.4985 -0.1946 -0.4323
   21MOL0     C 2702   1.122   1.314   1.330  0.1453  0.2582  0.2498
   21MOL0     O 2703   1.180   1.427   1.304 -0.1080 -0.3635  0.0254
   21MOL0     C 2704   1.316   1.437   1.307 -0.4235 -0.6751 -0.8249
   21MOL0     C 2705   1.393   1.368   1.210  0.1092 -0.3708  0.3011
   21MOL0     C 2706   1.533   1.363   1.213 -0.5947 -0.3642  0.1639
   21MOL0     C 2707   1.604   1.421   1.318  0.1083  0.7240 -0.1091
   21MOL0     O 2708   1.744   1.419   1.341  0.2339 -0.0585  0.2127
   21MOL0     C 2709   1.816   1.389   1.218  0.6832  0.2082  0.6893
   21MOL0     C 2710   1.960   1.438   1.216 -0.7166 -0.6954 -0.3659
   21MOL0     C 2711   2.045   1.353   1.320  0.4755  0.4790 -0.0943
   21MOL0     C 2712   2.184   1.425   1.332  1.2900 -0.8258 -0.3034
   21MOL0     C 2713   2.275   1.318   1.404  0.1980  0.2772 -0.7218
   21MOL0     C 2714   2.410   1.380   1.425 -0.2148  0.4424  0.3149
   21MOL0     C 2715   2.520   1.273   1.446 -0.2024 -0.6861 -0.1776
   21MOL0     C 2716   2.662   1.333   1.452  0.1242  0.3913  1.2377
   21MOL0     N 2717   2.670   1.398   1.583  0.4877 -0.5596 -0.6155
   21MOL0     C 2718   2.690   1.353   1.711  0.0166 -0.0874 -0.9872
   21MOL0     C 2719   2.696   1.467   1.784 -0.0227  0.5859 -0.5718
   21MOL0     C 2720   2.714   1.462   1.932 -1.8126  0.2477 -0.3995
   21MOL0     C 2721   2.865   1.463   1.973 -0.3082  0.6788  0.2022
   21MOL0     C 2722   2.933   1.326   1.924 -0.3291 -0.7253  0.3324
   21MOL0     C 2723   3.005   1.247   2.036  0.5883  0.7063 -0.0227
   21MOL0     O 2724   3.064   1.129   1.988 -0.5250 -0.2604 -0.2492
   21MOL0     C 2725   3.200   1.114   1.961  0.4259  0.7501 -0.3879
   21MOL0     C 2726   3.293   1.217   1.952  0.5739 -0.0787 -0.1482
   21MOL0     C 2727   3.430   1.191   1.932 -0.7013 -0.6019  0.5587
   21MOL0     C 2728   3.474   1.054   1.921  0.9558  0.0588  0.1178
   21MOL0     C 2729   3.618   1.018   1.923  1.2233 -0.2816 -0.0524
   21MOL0     O 2730   3.643   0.904   1.867  0.5139 -0.0606  0.1608
   21MOL0     C 2731   3.770   0.873   1.822  0.5796  0.0822  0.7101
   21MOL0     C 2732   3.774   0.760   1.743 -0.2964  0.1003 -0.3054
   21MOL0     C 2733   3.886   0.711   1.689  0.3012  0.9221 -0.0756
   21MOL0     C 2734   4.012   0.762   1.721 -0.4028  0.1900  0.3825
   21MOL0     O 2735   4.122   0.704   1.669  0.1775  0.3631 -0.3988
   21MOL0     C 2736   4.135   0.557   1.704 -0.2773 -0.8736 -0.4143
   21MOL0     C 2737   4.115   0.518   1.856  0.2400  0.0649 -0.6489
   21MOL0     C 2738   4.176   0.603   1.964 -0.5115 -0.4835 -0.0793
   21MOL0     C 2739   4.303   0.550   2.017 -0.4180 -0.6228 -0.4802
   21MOL0     C 2740   4.372   0.637   2.116 -0.5012 -0.0027 -1.3055
   21MOL0     C 2741   4.499   0.577   2.164  0.0976  0.0464 -0.5496
   21MOL0     C 2742   4.570   0.661   2.272  0.2820  0.3517 -0.8708
   21MOL0     C 2743   4.666   0.772   2.223  0.3916 -0.0772 -0.1059
   21MOL0    Cl 2744   4.781   0.687   2.127 -0.1844 -0.3703  0.3144
   21MOL0     C 2745   4.017   0.879   1.797 -0.3387 -0.0842 -0.3732
   21MOL0     C 2746   3.895   0.932   1.848 -0.4249  0.0209  0.2456
   21MOL0     O 2747   3.694   1.112   1.955  0.5018  0.1046 -0.1605
   21MOL0     C 2748   3.374   0.956   1.941  0.2774  0.3251 -0.5659
   21MOL0     C 2749   3.242   0.982   1.949  0.4258 -0.4900  0.0653
   21MOL0     N 2750   2.688   1.573   1.706  0.4506 -0.6419 -0.2422
   21MOL0     N 2751   2.658   1.531   1.592  0.1605 -0.0445 -0.3026
   21MOL0     C 2752   1.527   1.483   1.421 -0.3242 -0.1501  0.6601
   21MOL0     C 2753   1.383   1.490   1.417  0.5913  0.1225  0.4735
   21MOL0     C 2754   0.981   1.307   1.322 -0.4950 -0.5379 -0.4510
   21MOL0     C 2755   0.929   1.212   1.238 -0.3063 -0.3923 -0.3530
   21MOL0     C 2756   0.793   1.199   1.215  0.0168  0.3385  0.0355
   21MOL0     C 2757   0.705   1.294   1.268 -1.4831 -0.0543 -0.7432
   21MOL0     O 2758   0.565   1.274   1.270 -0.6111 -0.8578 -0.1267
   21MOL0     C 2759   0.477   1.366   1.336  0.4959  0.5390 -0.8495
   21MOL0     C 2760   0.326   1.311   1.351 -0.6533 -0.0374  0.7147
   21MOL0     C 2761   0.236   1.417   1.411 -0.7435  0.1629  0.7954
   21MOL0     C 2762   0.086   1.408   1.380  0.0116  0.0228  0.3221
   21MOL0     C 2763   0.012   1.297   1.438  0.3699 -0.5529 -0.1716
   21MOL0     C 2764  -0.057   1.209   1.475  0.0703 -0.0907  0.3445
   21MOL0     C 2765   0.758   1.397   1.345  0.1345 -0.9781 -1.1620
   21MOL0     C 2766   0.896   1.401   1.376 -0.1864 -0.3034  0.3508
   21MOL0     C 2767   0.958   1.507   1.471 -0.0171 -0.3936 -0.4149
   21MOL0     H 2768   1.345   1.321   1.125  4.1078 -1.0684 -1.8121
   21MOL0     H 2769   1.589   1.321   1.130 -1.2768  0.2700 -0.6354
   21MOL0     H 2770   1.811   1.282   1.195  1.6101  0.2883  0.0420
   21MOL0     H 2771   1.769   1.447   1.138 -0.4633  0.6649  1.6706
   21MOL0     H 2772   1.963   1.544   1.244 -0.0314 -0.9505  0.6119
   21MOL0     H 2773   2.016   1.425   1.124  1.7383 -0.5996  1.0270
   21MOL0     H 2774   2.064   1.254   1.275  1.3903  1.5919 -2.3303
   21MOL0     H 2775   1.992   1.354   1.415  2.0139  0.6177  0.7976
   21MOL0     H 2776   2.215   1.460   1.233  0.5842  0.5205 -0.0603
   21MOL0     H 2777   2.171   1.508   1.401  2.5486 -2.2546  1.7863
   21MOL0     H 2778   2.228   1.282   1.496  0.7682 -0.4616 -0.7105
   21MOL0     H 2779   2.278   1.232   1.337  0.0970 -0.1780 -0.1440
   21MOL0     H 2780   2.440   1.449   1.346 -0.1827  3.0916  2.5153
   21MOL0     H 2781   2.393   1.442   1.514  0.0092 -1.1795  1.5519
   21MOL0     H 2782   2.504   1.202   1.364 -1.0375  0.7881 -1.3322
   21MOL0     H 2783   2.510   1.223   1.543 -0.4222  1.6115  1.0561
   21MOL0     H 2784   2.737   1.255   1.439  1.7054  1.8098  1.4538
   21MOL0     H 2785   2.681   1.411   1.377 -0.4060  1.8264  2.5292
   21MOL0     H 2786   2.694   1.246   1.730 -0.0648 -0.3631 -2.4260
   21MOL0     H 2787   2.657   1.541   1.981 -0.1965  1.1138  0.1791
   21MOL0     H 2788   2.675   1.364   1.960 -1.4405 -0.8314 -3.3120
   21MOL0     H 2789   2.916   1.554   1.940 -0.4554  0.8792  0.5294
   21MOL0     H 2790   2.869   1.462   2.082 -3.1575 -1.3621  0.3952
   21MOL0     H 2791   3.004   1.356   1.846  1.3545 -1.0582  1.6631
   21MOL0     H 2792   2.852   1.266   1.883 -2.3424  2.5529 -0.8172
   21MOL0     H 2793   2.936   1.206   2.111 -2.8455 -2.7495 -4.5316
   21MOL0     H 2794   3.073   1.317   2.086  0.0159  0.4523  1.1586
   21MOL0     H 2795   3.270   1.322   1.971  1.2983  0.2231 -0.8676
   21MOL0     H 2796   3.494   1.279   1.929  1.0660 -1.8472  0.4243
   21MOL0     H 2797   3.674   0.720   1.729 -0.3533 -2.2220  4.6375
   21MOL0     H 2798   3.880   0.627   1.621  1.3638  0.3228  0.5498
   21MOL0     H 2799   4.078   0.499   1.632  0.1881 -0.2691 -1.3016
   21MOL0     H 2800   4.240   0.537   1.681  0.2452  1.3727 -0.2703
   21MOL0     H 2801   4.010   0.515   1.886  0.9754  0.0248  2.2439
   21MOL0     H 2802   4.147   0.414   1.870  3.1285  1.0844  1.3736
   21MOL0     H 2803   4.193   0.706   1.932  2.4663 -0.3299  1.6233
   21MOL0     H 2804   4.102   0.609   2.044  0.2714 -1.4500  0.7403
   21MOL0     H 2805   4.377   0.530   1.938 -0.1411  1.3518 -0.7698
   21MOL0     H 2806   4.281   0.457   2.070  0.2506  0.6122  2.1429
   21MOL0     H 2807   4.317   0.661   2.207  2.6903  0.4762  0.6364
   21MOL0     H 2808   4.390   0.733   2.066 -2.3475 -0.3704 -2.8146
   21MOL0     H 2809   4.486   0.482   2.218  0.7460 -0.3780 -1.1239
   21MOL0     H 2810   4.565   0.547   2.082  3.8505  1.5634  1.6381
   21MOL0     H 2811   4.624   0.595   2.340  0.4419  0.3466 -1.0027
   21MOL0     H 2812   4.500   0.718   2.333  2.6167  1.2585  1.1073
   21MOL0     H 2813   4.605   0.850   2.176 -0.7426  0.1131  1.5915
   21MOL0     H 2814   4.717   0.816   2.309  1.8828 -2.3685  0.2511
   21MOL0     H 2815   4.114   0.918   1.826 -1.1101  0.8562  1.0786
   21MOL0     H 2816   3.911   1.016   1.915 -1.6630 -0.6828  1.4552
   21MOL0     H 2817   3.407   0.853   1.955  0.0250 -0.0365 -2.4042
   21MOL0     H 2818   3.167   0.904   1.951  1.5851 -1.6360  1.9609
   21MOL0     H 2819   1.575   1.527   1.507  0.3940 -0.4299  0.4131
   21MOL0     H 2820   1.343   1.528   1.511  1.0495 -1.4265  1.3243
   21MOL0     H 2821   1.004   1.147   1.194  1.1330 -1.4139  3.2477
   21MOL0     H 2822   0.752   1.117   1.156 -0.2968  0.8640 -0.4875
   21MOL0     H 2823   0.464   1.460   1.282  1.8104  2.5372  2.0105
   21MOL0     H 2824   0.511   1.389   1.438 -0.9524 -2.8653  0.5517
   21MOL0     H 2825   0.314   1.220   1.411 -4.3637  0.4399  0.9544
   21MOL0     H 2826   0.297   1.279   1.251  0.0310  0.9360  0.1860
   21MOL0     H 2827   0.268   1.513   1.368  0.9806 -1.2142 -1.1932
   21MOL0     H 2828   0.255   1.418   1.519  0.7739  2.6202  0.5872
   21MOL0     H 2829   0.040   1.503   1.408 -1.5324 -0.3280 -0.8741
   21MOL0     H 2830   0.070   1.404   1.271 -2.1572 -5.5378  0.5218
   21MOL0     H 2831  -0.110   1.121   1.506  1.8301 -1.1036  0.5569
   21MOL0     H 2832   0.684   1.461   1.392 -0.0900 -1.6780 -0.5276
   21MOL0     H 2833   0.887   1.533   1.550  0.3930 -1.4425  0.3147
   21MOL0     H 2834   1.049   1.480   1.524  0.8572  3.4876  0.3231
   21MOL0     H 2835   0.969   1.601   1.417 -0.3517 -0.0917  0.0385
   22MOL0     O 2836   7.292   8.120   6.750 -0.2012  0.0677  0.1764
   22MOL0     C 2837   7.216   8.043   6.814  0.3630 -0.2903  0.5619
   22MOL0     O 2838   7.185   7.916   6.778 -0.5204 -0.0817  0.4266
   22MOL0     C 2839   7.240   7.867   6.659 -0.1859 -0.1217  0.5176
   22MOL0     C 2840   7.179   7.889   6.540  0.6478  0.4580 -1.0252
   22MOL0     C 2841   7.238   7.834   6.426  0.5968 -0.2707 -0.0618
   22MOL0     C 2842   7.359   7.754   6.434  0.0284  0.1127 -0.1307
   22MOL0     O 2843   7.411   7.694   6.327  0.1520 -0.1654  0.2127
   22MOL0     C 2844   7.369   7.729   6.191 -0.3398  0.0811 -0.1086
   22MOL0     C 2845   7.497   7.681   6.125  0.0321 -0.1479 -0.4710
   22MOL0     C 2846   7.492   7.697   5.972  0.2688  0.7716 -0.6350
   22MOL0     C 2847   7.499   7.844   5.940  0.1659 -0.7348  0.2686
   22MOL0     C 2848   7.412   7.886   5.819  0.0298  0.6340  0.0659
   22MOL0     C 2849   7.263   7.908   5.858 -0.6044 -0.6335 -0.3467
   22MOL0     C 2850   7.211   8.045   5.808 -1.1319 -0.1507  0.4479
   22MOL0     C 2851   7.063   8.053   5.862 -0.7710  0.0537  0.2479
   22MOL0     N 2852   6.991   8.183   5.841  0.2004 -0.0334 -0.0679
   22MOL0     C 2853   7.034   8.304   5.791 -0.2417 -0.3617 -0.3675
   22MOL0     C 2854   6.930   8.394   5.796  0.0797  0.0843 -0.4169
   22MOL0     C 2855   6.946   8.530   5.741  1.1213 -0.3776  1.0066
   22MOL0     C 2856   6.814   8.604   5.707 -0.5825 -0.0302 -0.1937
   22MOL0     C 2857   6.820   8.734   5.610  0.1862 -0.3615 -0.9199
   22MOL0     C 2858   6.945   8.812   5.613  0.6383 -0.8661 -0.2520
   22MOL0     O 2859   7.056   8.728   5.582 -0.6965  0.2357 -0.2696
   22MOL0     C 2860   7.177   8.789   5.591  0.5422 -0.3055 -0.4929
   22MOL0     C 2861   7.282   8.698   5.610  0.1711  0.8380 -0.8129
   22MOL0     C 2862   7.413   8.745   5.637 -0.8907 -0.4402 -0.0879
   22MOL0     C 2863   7.437   8.887   5.649 -0.5452 -0.2469  0.0587
   22MOL0     C 2864   7.580   8.928   5.677 -0.3467 -1.3689  0.4939
   22MOL0     O 2865   7.672   8.835   5.659 -0.0987 -0.6024  0.2061
   22MOL0     C 2866   7.804   8.867   5.678 -0.2422  0.3959 -0.2465
   22MOL0     C 2867   7.874   8.803   5.782 -0.4911  1.1483 -0.5812
   22MOL0     C 2868   8.009   8.834   5.808 -0.9449 -0.2787  0.4976
   22MOL0     C 2869   8.072   8.935   5.737  0.1716  0.0664  0.1839
   22MOL0     O 2870   8.205   8.964   5.753  0.3031  0.5546  0.6857
   22MOL0     C 2871   8.296   8.972   5.640  0.2575 -0.2246 -0.3781
   22MOL0     C 2872   8.288   8.845   5.551  0.2361  0.2486  0.1715
   22MOL0     C 2873   8.354   8.723   5.606  0.4363  0.0523  0.4957
   22MOL0     C 2874   8.296   8.593   5.539  0.3248 -0.4312  0.1170
   22MOL0     C 2875   8.175   8.549   5.623 -0.5873 -0.2267 -0.3067
   22MOL0     C 2876   8.107   8.423   5.558  0.1548 -0.6052  0.6176
   22MOL0     C 2877   8.015   8.449   5.438 -0.1669 -0.2648 -0.2036
   22MOL0     C 2878   7.880   8.512   5.480  0.3204  0.4135  0.0017
   22MOL0    Cl 2879   7.765   8.523   5.336  0.2143 -0.1262  0.0404
   22MOL0     C 2880   7.999   9.002   5.636 -0.2515  0.7169 -0.3536
   22MOL0     C 2881   7.872   8.969   5.610  0.7570 -0.4311  0.8218
   22MOL0     O 2882   7.593   9.050   5.712 -0.0532  0.4104  0.4658
   22MOL0     C 2883   7.332   8.977   5.625  1.0943  0.3613  0.1537
   22MOL0     C 2884   7.198   8.925   5.610  0.0061 -0.1935 -0.3117
   22MOL0     N 2885   6.823   8.321   5.841  0.3601 -0.3514  0.1394
   22MOL0     N 2886   6.852   8.197   5.863  0.2878  0.1005 -0.2814
   22MOL0     C 2887   7.422   7.744   6.560 -0.5394 -0.0691 -0.4560
   22MOL0     C 2888   7.361   7.798   6.663  0.0866  0.3654 -0.6021
   22MOL0     C 2889   7.139   8.121   6.916  0.3725  0.6210  0.4467
   22MOL0     C 2890   7.208   8.200   7.007 -0.2234 -0.0668  0.3514
   22MOL0     C 2891   7.148   8.277   7.104  0.5355 -0.4152 -0.0153
   22MOL0     C 2892   7.008   8.283   7.112  0.1507 -0.2653  0.9472
   22MOL0     O 2893   6.969   8.363   7.211 -1.4928  0.1978  0.3342
   22MOL0     C 2894   6.826   8.365   7.228  0.2867 -0.5912  0.0736
   22MOL0     C 2895   6.783   8.458   7.351  0.0648  0.6179  0.6779
   22MOL0     C 2896   6.807   8.605   7.333 -0.4273  0.4877 -0.6337
   22MOL0     C 2897   6.950   8.656   7.324  0.1589  0.0647  0.4140
   22MOL0     C 2898   6.952   8.800   7.319 -0.3639 -0.2644  0.5901
   22MOL0     C 2899   6.989   8.920   7.300 -0.5211 -0.0576 -0.6437
   22MOL0     C 2900   6.939   8.202   7.015 -0.9396 -0.3345 -0.0065
   22MOL0     C 2901   7.001   8.121   6.923 -0.1191  0.0329 -0.3119
   22MOL0     C 2902   6.919   8.037   6.831  0.6105  0.5524  0.5296
   22MOL0     H 2903   7.087   7.947   6.545  0.3851 -0.0402  0.1817
   22MOL0     H 2904   7.181   7.853   6.336 -0.8263 -2.8077  0.2151
   22MOL0     H 2905   7.285   7.667   6.157  0.8421 -1.5351 -0.1768
   22MOL0     H 2906   7.345   7.834   6.169 -3.8023  0.0226  2.4335
   22MOL0     H 2907   7.508   7.576   6.154  1.3768 -0.4428 -1.9014
   22MOL0     H 2908   7.591   7.727   6.157  0.4630 -0.9641 -0.5507
   22MOL0     H 2909   7.407   7.639   5.935  1.5329 -2.0745  0.6053
   22MOL0     H 2910   7.582   7.643   5.941  0.8574  1.3824 -0.0266
   22MOL0     H 2911   7.476   7.907   6.027  1.4766 -0.7886  0.6861
   22MOL0     H 2912   7.599   7.872   5.906  0.1491 -1.3452 -0.2868
   22MOL0     H 2913   7.449   7.984   5.787 -1.5512  0.5440 -2.2243
   22MOL0     H 2914   7.438   7.813   5.742  2.8183 -0.8504  2.1964
   22MOL0     H 2915   7.210   7.829   5.805 -0.4144  0.7103 -2.6425
   22MOL0     H 2916   7.251   7.893   5.966 -0.9980  0.7686 -0.1720
   22MOL0     H 2917   7.205   8.049   5.699 -1.4150  1.6303  0.4978
   22MOL0     H 2918   7.269   8.130   5.845 -0.2953  0.1565 -1.4229
   22MOL0     H 2919   7.015   7.968   5.813  4.2256 -2.4629 -1.0566
   22MOL0     H 2920   7.052   8.040   5.970 -2.2788  0.7159  0.1919
   22MOL0     H 2921   7.128   8.329   5.744 -1.3700  0.1173 -2.4772
   22MOL0     H 2922   7.017   8.596   5.792  1.0618  2.7728 -2.5243
   22MOL0     H 2923   6.994   8.515   5.643 -2.6658 -2.2115 -0.8010
   22MOL0     H 2924   6.739   8.528   5.684  0.8373 -1.3927 -0.5181
   22MOL0     H 2925   6.783   8.644   5.803 -0.0755  1.8333 -0.7553
   22MOL0     H 2926   6.728   8.790   5.632  0.5801  0.6062 -1.6781
   22MOL0     H 2927   6.814   8.706   5.504  0.2900  2.1942 -1.6626
   22MOL0     H 2928   6.963   8.841   5.717 -0.8903  2.7015 -0.8683
   22MOL0     H 2929   6.933   8.900   5.549  0.2372 -0.9685 -0.3199
   22MOL0     H 2930   7.245   8.597   5.622  2.1999  0.1867  0.4619
   22MOL0     H 2931   7.479   8.662   5.658 -0.1903  0.3715  1.0251
   22MOL0     H 2932   7.820   8.727   5.837 -0.5075  0.6497 -1.2687
   22MOL0     H 2933   8.070   8.795   5.888  1.4610 -0.2946 -1.2507
   22MOL0     H 2934   8.265   9.055   5.575 -0.0808  0.5742  0.7829
   22MOL0     H 2935   8.399   8.987   5.671 -0.3374 -2.8259  3.5327
   22MOL0     H 2936   8.186   8.822   5.520  0.9634 -0.2285 -1.9937
   22MOL0     H 2937   8.343   8.869   5.460  1.3119  0.6577  0.9052
   22MOL0     H 2938   8.463   8.723   5.612  0.5197 -0.3937 -0.8025
   22MOL0     H 2939   8.324   8.712   5.711 -0.8139 -0.8427  0.0757
   22MOL0     H 2940   8.372   8.515   5.534 -0.5272 -1.2157 -2.1665
   22MOL0     H 2941   8.254   8.620   5.442  3.9210  3.2705 -0.6876
   22MOL0     H 2942   8.103   8.631   5.625  0.9666  1.2237 -1.8077
   22MOL0     H 2943   8.206   8.520   5.724 -1.4981  0.8404  0.2931
   22MOL0     H 2944   8.180   8.348   5.527 -0.3238 -0.3816 -1.1779
   22MOL0     H 2945   8.052   8.380   5.642 -1.6761  0.4778  0.0451
   22MOL0     H 2946   8.002   8.352   5.390  0.1070  0.3058 -1.4827
   22MOL0     H 2947   8.058   8.518   5.365  0.3522 -0.3100  0.0544
   22MOL0     H 2948   7.832   8.447   5.554  0.0234  0.5866 -0.0372
   22MOL0     H 2949   7.885   8.610   5.527 -3.2132  0.8428 -0.2046
   22MOL0     H 2950   8.048   9.083   5.582  2.3585  1.0002  2.2237
   22MOL0     H 2951   7.819   9.025   5.533  1.8644  1.2984  1.2572
   22MOL0     H 2952   7.357   9.083   5.622  0.9454  0.4044  0.4122
   22MOL0     H 2953   7.119   9.000   5.610  0.1543 -0.0085  1.0792
   22MOL0     H 2954   7.515   7.689   6.572  0.5286  1.6858 -0.2809
   22MOL0     H 2955   7.396   7.769   6.762 -2.2012 -3.3095 -0.6914
   22MOL0     H 2956   7.316   8.188   7.016 -0.5271 -2.4561  1.6566
   22MOL0     H 2957   7.207   8.332   7.177  0.0615  2.1961 -1.4952
   22MOL0     H 2958   6.791   8.264   7.249 -0.5917 -0.3939 -0.3738
   22MOL0     H 2959   6.780   8.395   7.133  0.6049 -0.5829 -0.0795
   22MOL0     H 2960   6.840   8.421   7.436 -0.9050 -3.4580 -0.2470
   22MOL0     H 2961   6.677   8.439   7.368  0.1931  0.2925  1.1345
   22MOL0     H 2962   6.769   8.665   7.416  3.2091  2.3148 -0.1394
   22MOL0     H 2963   6.766   8.627   7.234 -1.2726 -1.4051 -0.7613
   22MOL0     H 2964   7.007   8.617   7.409  1.7574  1.3451 -0.0100
   22MOL0     H 2965   6.997   8.624   7.229 -2.6527 -1.5419 -0.5493
   22MOL0     H 2966   7.021   9.022   7.300  0.2358 -0.2523  1.3029
   22MOL0     H 2967   6.830   8.205   7.017 -0.9429  2.9280 -0.5313
   22MOL0     H 2968   6.814   8.067   6.822  0.5567 -0.0676 -1.2702
   22MOL0     H 2969   6.963   8.032   6.731  1.2813  1.2221  0.7821
   22MOL0     H 2970   6.909   7.939   6.878 -0.4850  1.5468  2.4879
   23MOL0     O 2971   2.241   7.400   6.127 -0.1213 -0.2898  0.5741
   23MOL0     C 2972   2.269   7.494   6.051  0.0009  0.3376 -0.5685
   23MOL0     O 2973   2.372   7.507   5.976 -0.3430 -1.0099  0.3524
   23MOL0     C 2974   2.479   7.416   5.989  0.0009 -0.7490 -0.1892
   23MOL0     C 2975   2.606   7.466   6.019  0.4903 -0.0051 -0.2014
   23MOL0     C 2976   2.712   7.378   6.018  0.1859  0.0883  0.0622
   23MOL0     C 2977   2.702   7.242   5.985 -0.1972  0.6476 -0.0281
   23MOL0     O 2978   2.815   7.166   5.999  0.1954  0.0334  0.6146
   23MOL0     C 2979   2.823   7.046   5.923 -0.3244 -0.5189  0.0275
   23MOL0     C 2980   2.964   6.985   5.922 -0.9103  0.0843 -0.0513
   23MOL0     C 2981   3.073   7.082   5.889  0.0872 -0.7014 -0.0449
   23MOL0     C 2982   3.209   7.016   5.913 -0.4163  0.5249  0.0063
   23MOL0     C 2983   3.325   7.111   5.898 -0.6474  0.1740  0.3296
   23MOL0     C 2984   3.461   7.026   5.916  0.8045  0.8671 -0.2256
   23MOL0     C 2985   3.580   7.117   5.922  0.1828 -0.2698 -0.3657
   23MOL0     C 2986   3.711   7.057   5.859 -0.0518  0.5901  0.0032
   23MOL0     N 2987   3.828   7.153   5.868  0.1996  0.6626 -0.2539
   23MOL0     C 2988   3.866   7.243   5.776 -0.5545 -1.0700 -0.1085
   23MOL0     C 2989   3.977   7.303   5.832 -0.4925  0.1487  0.3838
   23MOL0     C 2990   4.046   7.421   5.775  0.2836 -1.0109  0.0646
   23MOL0     C 2991   4.170   7.401   5.684  0.1117  0.0709 -0.0375
   23MOL0     C 2992   4.234   7.526   5.623  0.2821  0.3046  0.6952
   23MOL0     C 2993   4.305   7.517   5.492 -0.9942  1.1669 -0.6832
   23MOL0     O 2994   4.332   7.643   5.440  0.4392 -0.1531  0.8906
   23MOL0     C 2995   4.407   7.740   5.507 -0.1372 -0.0250  0.5270
   23MOL0     C 2996   4.391   7.882   5.475  0.4122  0.4784  0.3323
   23MOL0     C 2997   4.476   7.980   5.530 -0.2226  0.4762 -0.0945
   23MOL0     C 2998   4.566   7.952   5.634  0.4510 -0.1710 -0.3837
   23MOL0     C 2999   4.644   8.055   5.694 -0.5609 -0.8007 -0.5744
   23MOL0     O 3000   4.745   8.006   5.764  0.1245  0.4360 -0.5023
   23MOL0     C 3001   4.798   8.083   5.867 -0.0018 -1.3176 -0.0047
   23MOL0     C 3002   4.919   8.046   5.927  0.0628  0.9422  0.3013
   23MOL0     C 3003   4.954   8.083   6.056 -0.6007  0.3951  0.3480
   23MOL0     C 3004   4.876   8.179   6.122  0.8253 -0.6352  0.0900
   23MOL0     O 3005   4.910   8.221   6.252  0.0975 -0.4370  0.2294
   23MOL0     C 3006   5.038   8.288   6.257 -0.5834  0.0747  0.8367
   23MOL0     C 3007   5.115   8.226   6.375  0.1902  0.3023  0.4045
   23MOL0     C 3008   5.243   8.301   6.410 -0.1757  0.1189 -0.2126
   23MOL0     C 3009   5.345   8.200   6.452 -0.6003  0.3703 -0.0125
   23MOL0     C 3010   5.475   8.272   6.491 -0.5691  0.4254  0.1931
   23MOL0     C 3011   5.569   8.172   6.558  0.8218 -0.0880 -0.6329
   23MOL0     C 3012   5.684   8.242   6.627 -0.3203  0.0252 -0.4253
   23MOL0     C 3013   5.793   8.144   6.681 -0.3888  0.5152 -0.6033
   23MOL0    Cl 3014   5.926   8.228   6.765  0.1682 -0.2465  0.0819
   23MOL0     C 3015   4.758   8.221   6.072 -0.3303 -0.1761 -0.0061
   23MOL0     C 3016   4.722   8.176   5.945  0.1582  0.5645  0.1272
   23MOL0     O 3017   4.616   8.174   5.684  0.9128 -0.0376  0.5609
   23MOL0     C 3018   4.583   7.817   5.662 -0.6635 -0.0827  0.6829
   23MOL0     C 3019   4.511   7.714   5.592 -0.5591  0.1261  0.5499
   23MOL0     N 3020   4.004   7.244   5.947  0.4057  0.5918 -0.4666
   23MOL0     N 3021   3.906   7.177   5.982  0.1470  0.3099  0.1063
   23MOL0     C 3022   2.575   7.199   5.957  0.2167 -0.3026  0.4858
   23MOL0     C 3023   2.462   7.285   5.952 -0.7375  0.6366  0.6913
   23MOL0     C 3024   2.172   7.606   6.040 -0.0291  0.0408 -0.7604
   23MOL0     C 3025   2.225   7.729   5.995 -0.8544  0.8684  0.1455
   23MOL0     C 3026   2.139   7.841   6.001  0.0476  1.0365  0.7723
   23MOL0     C 3027   2.018   7.834   6.051 -0.1998  0.2608  0.9931
   23MOL0     O 3028   1.933   7.940   6.055  0.0604  0.3952  0.1845
   23MOL0     C 3029   1.902   8.006   5.932 -0.1426 -1.0190 -1.0061
   23MOL0     C 3030   1.787   7.959   5.842 -0.9441  0.1728 -0.3427
   23MOL0     C 3031   1.648   7.983   5.914 -1.2102  1.0516  0.3171
   23MOL0     C 3032   1.636   7.920   6.044  0.5437 -0.3011 -0.8401
   23MOL0     C 3033   1.500   7.951   6.093 -0.7849  0.1873 -0.3953
   23MOL0     C 3034   1.394   7.960   6.145  0.7266 -0.6611 -0.0239
   23MOL0     C 3035   1.957   7.707   6.072 -1.0065  0.1213 -0.2880
   23MOL0     C 3036   2.028   7.591   6.053 -0.0507 -0.7715  0.6923
   23MOL0     C 3037   1.953   7.465   6.044 -0.0367 -0.6038 -0.0977
   23MOL0     H 3038   2.613   7.573   6.035  0.6984 -0.1375  0.6381
   23MOL0     H 3039   2.812   7.416   6.036 -0.0736 -0.0841  2.1468
   23MOL0     H 3040   2.754   6.972   5.964 -1.5878  0.7926  0.3252
   23MOL0     H 3041   2.800   7.078   5.822 -0.2190  2.7925  0.9390
   23MOL0     H 3042   2.963   6.912   5.842 -4.4271 -1.4895  1.2282
   23MOL0     H 3043   2.970   6.936   6.020 -0.0557 -0.5566 -0.4101
   23MOL0     H 3044   3.062   7.163   5.962 -2.4230 -0.8980 -0.1191
   23MOL0     H 3045   3.071   7.112   5.784  2.4270 -1.2673 -0.3293
   23MOL0     H 3046   3.218   6.959   6.006  0.8126 -0.9894 -1.0006
   23MOL0     H 3047   3.210   6.938   5.837  1.8030  2.6485 -2.3243
   23MOL0     H 3048   3.315   7.143   5.794 -0.6987 -1.3380 -0.1601
   23MOL0     H 3049   3.316   7.196   5.966  1.3046  3.4644 -3.1113
   23MOL0     H 3050   3.443   6.976   6.012 -1.8467 -0.6403 -1.3992
   23MOL0     H 3051   3.482   6.946   5.844  4.1645  1.1292  0.3180
   23MOL0     H 3052   3.600   7.153   6.023 -2.6716  2.8103 -0.7434
   23MOL0     H 3053   3.566   7.219   5.886  3.9532  1.1681  1.6035
   23MOL0     H 3054   3.726   6.963   5.912 -0.0167  1.0512  0.8423
   23MOL0     H 3055   3.692   7.035   5.754 -0.7252  1.4188 -0.0612
   23MOL0     H 3056   3.830   7.284   5.682  0.4234  2.3711  0.8627
   23MOL0     H 3057   3.978   7.486   5.719  2.2154 -0.7657 -2.1636
   23MOL0     H 3058   4.075   7.479   5.863  1.5651  0.5884 -1.3374
   23MOL0     H 3059   4.245   7.341   5.735  0.2195 -0.3078 -0.6262
   23MOL0     H 3060   4.134   7.351   5.593 -0.5587  0.8110 -0.1978
   23MOL0     H 3061   4.303   7.561   5.702  2.8205 -0.7462 -0.9299
   23MOL0     H 3062   4.156   7.601   5.611 -0.2772 -0.6030 -1.8836
   23MOL0     H 3063   4.238   7.462   5.424 -2.7147  1.8293  0.4100
   23MOL0     H 3064   4.395   7.460   5.513 -1.1493  1.1618 -0.0266
   23MOL0     H 3065   4.309   7.906   5.408  0.3239 -0.1981  0.1828
   23MOL0     H 3066   4.455   8.081   5.497  0.1201 -0.0369 -1.9850
   23MOL0     H 3067   4.978   7.966   5.884  0.8497  1.7896 -0.2494
   23MOL0     H 3068   5.053   8.062   6.095  0.6517  2.6043 -1.3778
   23MOL0     H 3069   5.095   8.281   6.164 -1.2253  0.2964  0.4298
   23MOL0     H 3070   5.027   8.390   6.294  1.2266  1.5900 -2.4158
   23MOL0     H 3071   5.051   8.208   6.462  2.0763 -1.8028  1.4755
   23MOL0     H 3072   5.145   8.130   6.333  2.0137  1.2645 -0.6521
   23MOL0     H 3073   5.265   8.373   6.331 -1.9064  2.0492  0.9327
   23MOL0     H 3074   5.211   8.361   6.496 -3.4657 -1.2432 -0.3433
   23MOL0     H 3075   5.368   8.118   6.384  2.1028 -0.5689  1.8860
   23MOL0     H 3076   5.314   8.156   6.547  0.1248 -0.0410  0.0337
   23MOL0     H 3077   5.444   8.352   6.558  0.6669 -0.1046  1.4615
   23MOL0     H 3078   5.529   8.314   6.405  2.4121 -4.5383 -0.8046
   23MOL0     H 3079   5.511   8.111   6.628  1.2587 -0.5677 -0.6802
   23MOL0     H 3080   5.610   8.100   6.486  0.1970  1.0126 -2.1629
   23MOL0     H 3081   5.654   8.299   6.715 -1.0715  0.6405 -1.0634
   23MOL0     H 3082   5.725   8.312   6.553 -1.1962  1.6671  0.5947
   23MOL0     H 3083   5.762   8.065   6.750  2.3478 -0.9840 -0.9253
   23MOL0     H 3084   5.826   8.079   6.599  1.4289 -0.6607  0.9567
   23MOL0     H 3085   4.693   8.285   6.130 -0.8825 -0.2139 -0.5751
   23MOL0     H 3086   4.619   8.197   5.917  0.4834 -0.4115 -1.9997
   23MOL0     H 3087   4.659   7.789   5.734 -0.3207  0.7893  0.6752
   23MOL0     H 3088   4.523   7.612   5.628  2.4531 -0.6068 -2.0498
   23MOL0     H 3089   2.544   7.097   5.934 -2.1592 -0.1047  2.3409
   23MOL0     H 3090   2.363   7.261   5.916  0.4632 -2.8437 -0.7275
   23MOL0     H 3091   2.328   7.740   5.963 -0.5296 -1.7028  0.1468
   23MOL0     H 3092   2.171   7.944   5.994  1.7332  0.9952  5.2169
   23MOL0     H 3093   1.992   8.009   5.869 -2.0867 -1.4338 -4.0092
   23MOL0     H 3094   1.890   8.110   5.964  2.3308 -1.0484  0.2412
   23MOL0     H 3095   1.782   7.857   5.802 -2.0094  0.6877 -1.5847
   23MOL0     H 3096   1.780   8.021   5.752  1.7017 -0.1890 -0.8720
   23MOL0     H 3097   1.577   7.940   5.844  0.9608 -1.2831 -0.6127
   23MOL0     H 3098   1.622   8.090   5.916 -2.1530  0.8150  1.2084
   23MOL0     H 3099   1.660   7.814   6.038  0.3591 -0.5623  1.7565
   23MOL0     H 3100   1.709   7.965   6.112 -0.0083 -0.1590 -0.3343
   23MOL0     H 3101   1.297   7.963   6.190  0.2769 -1.8921 -0.8381
   23MOL0     H 3102   1.855   7.693   6.107 -1.7625  0.0155 -2.4371
   23MOL0     H 3103   1.967   7.429   5.942  4.0934 -0.5962  0.3315
   23MOL0     H 3104   1.987   7.394   6.120 -0.6140  0.2266  0.9666
   23MOL0     H 3105   1.844   7.475   6.048 -0.1628 -1.7247 -0.3999
   24MOL0     O 3106   5.478   8.603  11.342 -0.0203 -0.7499 -0.0830
   24MOL0     C 3107   5.475   8.660  11.230 -1.0062  0.5681  0.8470
   24MOL0     O 3108   5.583   8.711  11.166  0.5705 -0.3362  0.1782
   24MOL0     C 3109   5.708   8.732  11.225 -0.8348 -0.0863 -0.1884
   24MOL0     C 3110   5.759   8.855  11.268 -0.1641  0.0211 -1.6910
   24MOL0     C 3111   5.876   8.862  11.343 -0.6489  0.4836 -0.5597
   24MOL0     C 3112   5.961   8.752  11.357 -0.2710  0.7893 -0.0672
   24MOL0     O 3113   6.075   8.760  11.429  0.1211  0.4482  0.0407
   24MOL0     C 3114   6.189   8.682  11.389 -0.0751  0.3495  0.4559
   24MOL0     C 3115   6.228   8.582  11.498 -0.0334 -0.5755  0.6976
   24MOL0     C 3116   6.373   8.523  11.492 -0.1406  0.4471 -0.6303
   24MOL0     C 3117   6.483   8.617  11.535  0.2319  1.2861 -0.5153
   24MOL0     C 3118   6.618   8.546  11.557  0.4511  0.2507  0.1020
   24MOL0     C 3119   6.734   8.645  11.599  0.2814  0.0457 -0.4463
   24MOL0     C 3120   6.878   8.602  11.557  0.8946  0.7224 -0.1330
   24MOL0     C 3121   6.988   8.705  11.582  0.6176  0.3535  0.0498
   24MOL0     N 3122   7.114   8.645  11.550 -0.2722  0.6764  0.4073
   24MOL0     C 3123   7.208   8.586  11.636 -0.5841  0.2844 -0.5402
   24MOL0     C 3124   7.326   8.594  11.566 -0.1201  0.3269 -0.0495
   24MOL0     C 3125   7.462   8.544  11.598 -0.5952  0.2541  0.7756
   24MOL0     C 3126   7.570   8.634  11.531  0.6047  0.1883  0.5378
   24MOL0     C 3127   7.604   8.600  11.385  0.0645 -0.4790  0.1658
   24MOL0     C 3128   7.738   8.662  11.354 -1.4511 -0.6433  0.4932
   24MOL0     O 3129   7.838   8.582  11.408 -0.4869 -0.5181  0.6170
   24MOL0     C 3130   7.965   8.623  11.408  0.5750 -0.2884 -0.6318
   24MOL0     C 3131   8.011   8.757  11.377 -0.5876  0.5643  0.4294
   24MOL0     C 3132   8.145   8.785  11.357  0.8199 -0.3075  0.3601
   24MOL0     C 3133   8.247   8.690  11.379 -0.4819 -0.1489 -0.3403
   24MOL0     C 3134   8.383   8.734  11.386  0.5726 -0.3986 -0.2575
   24MOL0     O 3135   8.478   8.647  11.452 -0.0654  0.2129  0.3849
   24MOL0     C 3136   8.610   8.683  11.466  0.1088  0.4596  0.2367
   24MOL0     C 3137   8.711   8.601  11.421  0.0114 -0.3256 -0.9138
   24MOL0     C 3138   8.850   8.642  11.432  0.3728  0.1580  0.4115
   24MOL0     C 3139   8.885   8.767  11.476  0.4102 -0.2072  0.0745
   24MOL0     O 3140   9.009   8.824  11.471  0.3877 -0.4077  0.2459
   24MOL0     C 3141   9.114   8.760  11.393  0.1516 -0.4874  0.9578
   24MOL0     C 3142   9.090   8.809  11.250  0.4265 -0.2138  0.6956
   24MOL0     C 3143   9.214   8.801  11.160 -0.0445 -0.7794  0.4447
   24MOL0     C 3144   9.189   8.872  11.022 -0.9587  0.2169  0.7129
   24MOL0     C 3145   9.317   8.851  10.942  0.0562  0.6072 -0.4494
   24MOL0     C 3146   9.299   8.928  10.811 -0.5702  0.5480 -0.5335
   24MOL0     C 3147   9.426   8.929  10.735 -0.7437 -0.5304  1.0350
   24MOL0     C 3148   9.408   9.005  10.604 -0.2588 -0.2729  0.6069
   24MOL0    Cl 3149   9.558   9.034  10.529  0.0563 -0.1339  0.0809
   24MOL0     C 3150   8.781   8.840  11.536  0.0059  0.0049  0.0235
   24MOL0     C 3151   8.646   8.808  11.528 -0.4784 -0.2912 -0.4844
   24MOL0     O 3152   8.413   8.832  11.313  0.2358 -0.0704  0.2833
   24MOL0     C 3153   8.207   8.563  11.427 -0.1327  0.4358  0.5091
   24MOL0     C 3154   8.066   8.527  11.434  0.2484 -0.1411 -0.2113
   24MOL0     N 3155   7.301   8.639  11.436 -0.4125  0.1122 -0.2320
   24MOL0     N 3156   7.179   8.672  11.435 -0.1090 -0.1640 -0.0989
   24MOL0     C 3157   5.925   8.635  11.291  0.4708  0.0808 -0.0449
   24MOL0     C 3158   5.798   8.628  11.231 -0.2000  0.1016 -0.3176
   24MOL0     C 3159   5.360   8.669  11.158  0.7018 -0.7661  0.5539
   24MOL0     C 3160   5.352   8.596  11.041 -0.1513  0.1148 -0.5249
   24MOL0     C 3161   5.228   8.569  10.982  0.8644  0.0147  0.1078
   24MOL0     C 3162   5.112   8.634  11.024  0.3170 -0.0594  0.3024
   24MOL0     O 3163   4.984   8.604  10.979  0.1210  0.5796  0.1334
   24MOL0     C 3164   4.969   8.580  10.836  1.4370 -0.1828  0.4533
   24MOL0     C 3165   4.838   8.645  10.784 -0.1929  0.2598 -0.0699
   24MOL0     C 3166   4.727   8.547  10.752 -0.5648  0.4097 -0.3662
   24MOL0     C 3167   4.593   8.623  10.745  0.0098  0.9758  0.2476
   24MOL0     C 3168   4.497   8.557  10.657  0.1129  0.7998  0.4887
   24MOL0     C 3169   4.429   8.517  10.558 -0.2693  0.0363  0.4164
   24MOL0     C 3170   5.123   8.704  11.137  0.0275 -0.1154 -0.3901
   24MOL0     C 3171   5.247   8.732  11.195  0.3312  0.1751  0.0681
   24MOL0     C 3172   5.255   8.838  11.305 -0.2112 -0.0370 -0.1657
   24MOL0     H 3173   5.704   8.948  11.255  1.2728  0.9376 -1.4697
   24MOL0     H 3174   5.919   8.952  11.387  0.5159 -1.0363  1.5827
   24MOL0     H 3175   6.182   8.622  11.298 -0.0272  1.1904 -0.1194
   24MOL0     H 3176   6.275   8.749  11.375 -0.5314  0.6655 -1.0340
   24MOL0     H 3177   6.152   8.503  11.502  0.0884 -0.8304 -1.1208
   24MOL0     H 3178   6.222   8.640  11.591 -1.2808 -1.6656  1.3370
   24MOL0     H 3179   6.394   8.492  11.389  0.8062 -3.3416  0.5290
   24MOL0     H 3180   6.374   8.437  11.559  0.4238  1.0595  0.1660
   24MOL0     H 3181   6.482   8.699  11.463  1.6166  2.6246  0.8961
   24MOL0     H 3182   6.449   8.653  11.633 -0.8971  2.0476 -1.1591
   24MOL0     H 3183   6.616   8.466  11.632 -0.3082 -1.4783 -1.6642
   24MOL0     H 3184   6.652   8.485  11.473  0.8106 -1.6298  1.5540
   24MOL0     H 3185   6.723   8.739  11.544  0.6971 -1.0444 -2.5130
   24MOL0     H 3186   6.733   8.677  11.704  1.0848  0.9690 -0.7048
   24MOL0     H 3187   6.883   8.590  11.448  2.3032 -1.2286  0.0854
   24MOL0     H 3188   6.906   8.503  11.594  1.5056 -1.2941 -5.1193
   24MOL0     H 3189   6.968   8.791  11.516  0.7444 -0.7110 -1.4271
   24MOL0     H 3190   6.986   8.725  11.689 -0.9954  0.9550 -0.0584
   24MOL0     H 3191   7.199   8.556  11.739  3.2435  0.2109 -0.0555
   24MOL0     H 3192   7.493   8.535  11.703  2.6363  3.2972  0.2614
   24MOL0     H 3193   7.471   8.450  11.543  0.0416  0.4749  0.4989
   24MOL0     H 3194   7.533   8.737  11.522 -0.4667 -0.3040 -1.2094
   24MOL0     H 3195   7.665   8.626  11.584  2.4148 -0.3043 -2.5833
   24MOL0     H 3196   7.524   8.636  11.320 -2.7906 -2.0468  2.6078
   24MOL0     H 3197   7.610   8.491  11.385  1.4076 -0.4244 -0.2321
   24MOL0     H 3198   7.743   8.764  11.395  4.3122 -0.6834  0.7541
   24MOL0     H 3199   7.753   8.684  11.248  0.5612  1.6185  1.1446
   24MOL0     H 3200   7.948   8.839  11.346  0.9144  2.1689  1.4358
   24MOL0     H 3201   8.165   8.886  11.325  0.9277 -0.1690  0.8492
   24MOL0     H 3202   8.676   8.509  11.375 -0.0532  0.1435 -1.8364
   24MOL0     H 3203   8.925   8.581  11.382  1.3518  2.4753 -1.1588
   24MOL0     H 3204   9.207   8.812  11.417 -0.2082  1.6179 -1.6728
   24MOL0     H 3205   9.129   8.652  11.399 -0.4426 -0.5198  2.3965
   24MOL0     H 3206   9.011   8.750  11.205  0.2435  0.2715  0.3734
   24MOL0     H 3207   9.070   8.916  11.244  1.9078 -0.0129 -1.5887
   24MOL0     H 3208   9.299   8.849  11.210 -0.5808  2.7540 -1.7175
   24MOL0     H 3209   9.239   8.694  11.157 -0.5090 -0.9770  2.2454
   24MOL0     H 3210   9.166   8.974  11.054 -2.4648  0.3658 -0.7276
   24MOL0     H 3211   9.105   8.832  10.965 -0.5763 -0.5258  0.6679
   24MOL0     H 3212   9.345   8.746  10.925  0.6258  0.2080  2.4491
   24MOL0     H 3213   9.398   8.894  11.002 -2.4392  3.0103  1.3985
   24MOL0     H 3214   9.220   8.877  10.755 -2.1560  0.9131  1.2742
   24MOL0     H 3215   9.272   9.033  10.831 -3.2239  0.1952 -1.7878
   24MOL0     H 3216   9.463   8.833  10.697  1.4539  1.1626 -1.4917
   24MOL0     H 3217   9.500   8.977  10.799 -0.1668  2.1726 -1.4442
   24MOL0     H 3218   9.349   8.951  10.529 -0.3344 -1.4573  1.4853
   24MOL0     H 3219   9.354   9.100  10.616  2.8366  1.6766  0.0930
   24MOL0     H 3220   8.812   8.933  11.582 -0.1355  0.8252 -1.4922
   24MOL0     H 3221   8.579   8.879  11.574 -0.6468  0.7890 -2.3149
   24MOL0     H 3222   8.278   8.485  11.450 -1.8936 -1.3689  0.1534
   24MOL0     H 3223   8.027   8.428  11.458 -0.7170 -0.4882 -2.9321
   24MOL0     H 3224   5.988   8.547  11.294  1.4873  0.7931  2.6570
   24MOL0     H 3225   5.776   8.527  11.195  1.7667 -0.9746  1.2853
   24MOL0     H 3226   5.441   8.545  11.005  0.6610 -0.1424  1.6749
   24MOL0     H 3227   5.208   8.501  10.901 -2.7407 -1.4944  2.0369
   24MOL0     H 3228   4.982   8.474  10.812  1.6321 -0.1997  0.6398
   24MOL0     H 3229   5.042   8.639  10.781 -0.2583  0.3776 -1.3326
   24MOL0     H 3230   4.850   8.702  10.691  2.4821 -0.3449 -0.1698
   24MOL0     H 3231   4.810   8.714  10.865  1.8815  1.7187 -0.5248
   24MOL0     H 3232   4.722   8.464  10.823  1.9709  0.9121  0.5233
   24MOL0     H 3233   4.746   8.503  10.654  0.7518  0.8407 -0.3260
   24MOL0     H 3234   4.568   8.638  10.850  0.2068 -1.7494  0.7488
   24MOL0     H 3235   4.611   8.722  10.702 -1.1580 -0.3080 -3.7111
   24MOL0     H 3236   4.368   8.478  10.479  2.8452 -0.1292 -2.1204
   24MOL0     H 3237   5.037   8.753  11.182  0.8599  1.4225 -0.3925
   24MOL0     H 3238   5.359   8.856  11.334  0.4441 -1.7167 -1.2672
   24MOL0     H 3239   5.201   8.925  11.267 -0.6659 -1.2728 -2.5332
   24MOL0     H 3240   5.214   8.797  11.398 -0.0465 -0.1236 -0.1295
   25MOL0     O 3241   6.544  11.356   2.168  0.0175  0.4700 -0.0856
   25MOL0     C 3242   6.464  11.366   2.262  0.5969  0.3761 -0.8130
   25MOL0     O 3243   6.489  11.396   2.390 -0.2532  0.4605 -0.2526
   25MOL0     C 3244   6.617  11.454   2.404 -0.3397  0.1371  0.6942
   25MOL0     C 3245   6.728  11.380   2.433  0.6410  0.1396  0.0518
   25MOL0     C 3246   6.855  11.446   2.454 -0.4598 -0.0761  0.1129
   25MOL0     C 3247   6.865  11.585   2.445 -0.2169 -1.1163  0.0541
   25MOL0     O 3248   6.979  11.662   2.466 -0.1523  0.1707 -0.7457
   25MOL0     C 3249   7.080  11.599   2.545 -0.3920  0.7405 -0.2500
   25MOL0     C 3250   7.183  11.703   2.584  0.9195  0.1384  0.3687
   25MOL0     C 3251   7.284  11.639   2.683 -0.0038  0.7572  0.2252
   25MOL0     C 3252   7.248  11.638   2.835  0.6619  0.6906  0.0817
   25MOL0     C 3253   7.367  11.638   2.938 -0.8090  0.4166 -0.1195
   25MOL0     C 3254   7.311  11.676   3.078 -0.2140  0.7396 -0.3787
   25MOL0     C 3255   7.427  11.689   3.179 -0.8658  0.1382 -0.1953
   25MOL0     C 3256   7.390  11.722   3.330  0.1280  0.2749 -0.0646
   25MOL0     N 3257   7.357  11.602   3.405 -0.1805 -0.5160  0.8815
   25MOL0     C 3258   7.448  11.512   3.458  0.4110  0.5757  0.0148
   25MOL0     C 3259   7.377  11.427   3.531  0.3300 -0.1877  0.0308
   25MOL0     C 3260   7.437  11.331   3.625 -0.5076  0.5996  0.1790
   25MOL0     C 3261   7.423  11.379   3.771  0.4820 -0.1110 -0.4355
   25MOL0     C 3262   7.527  11.331   3.874  0.2905 -0.2897 -0.5219
   25MOL0     C 3263   7.650  11.418   3.862 -0.0031  0.2153 -0.6791
   25MOL0     O 3264   7.762  11.358   3.940  0.7950  0.2913  1.0939
   25MOL0     C 3265   7.874  11.433   3.962 -0.5879  0.7146  0.2069
   25MOL0     C 3266   7.903  11.562   3.913  0.4046  0.3408  0.3682
   25MOL0     C 3267   8.024  11.634   3.925  0.2076  0.5590 -0.4961
   25MOL0     C 3268   8.126  11.578   3.999  0.0978  0.3140 -0.3792
   25MOL0     C 3269   8.263  11.634   3.996 -0.3366  0.2911 -0.0133
   25MOL0     O 3270   8.367  11.567   4.058 -0.1493  0.5340  0.3434
   25MOL0     C 3271   8.499  11.616   4.064  0.3058  0.4064  0.7094
   25MOL0     C 3272   8.579  11.539   4.146  0.2316 -0.2644  0.1956
   25MOL0     C 3273   8.714  11.566   4.157  0.4908  0.7142  0.7919
   25MOL0     C 3274   8.771  11.675   4.105 -0.3075 -0.1561 -0.4727
   25MOL0     O 3275   8.908  11.684   4.118 -0.1510  0.4824 -0.4274
   25MOL0     C 3276   8.967  11.816   4.135  0.5867 -0.7745 -0.4349
   25MOL0     C 3277   9.043  11.862   4.016  0.0756  0.5493  0.3489
   25MOL0     C 3278   9.099  12.008   4.036 -0.1531  0.7318  0.2334
   25MOL0     C 3279   9.187  12.045   3.921  1.0953  1.1495 -0.6689
   25MOL0     C 3280   9.199  12.198   3.885  0.4767 -0.2269  0.6886
   25MOL0     C 3281   9.239  12.279   4.009 -0.8478  0.5950  0.2408
   25MOL0     C 3282   9.235  12.434   3.988  0.5834  0.3089  0.1844
   25MOL0     C 3283   9.342  12.485   3.882  1.0999 -0.2484  0.2603
   25MOL0    Cl 3284   9.502  12.507   3.959 -0.5329 -0.0705 -0.2717
   25MOL0     C 3285   8.694  11.760   4.019 -0.3549  0.4596  0.1568
   25MOL0     C 3286   8.561  11.718   3.993 -1.4773 -0.8201  0.3499
   25MOL0     O 3287   8.266  11.739   3.936  0.7077 -0.3079 -0.0245
   25MOL0     C 3288   8.105  11.447   4.054  0.4606  0.4058  0.2866
   25MOL0     C 3289   7.976  11.382   4.042 -0.2324 -0.3724  0.4568
   25MOL0     N 3290   7.242  11.458   3.515 -0.0490  0.3761 -0.4809
   25MOL0     N 3291   7.234  11.568   3.451 -0.0376 -0.4959  0.0789
   25MOL0     C 3292   6.754  11.658   2.415  0.5371  0.5765  0.4542
   25MOL0     C 3293   6.634  11.594   2.396  0.3973 -0.1548  0.7082
   25MOL0     C 3294   6.321  11.339   2.228 -0.5621  0.2247 -0.0542
   25MOL0     C 3295   6.286  11.239   2.132 -0.9632  0.1197 -0.5888
   25MOL0     C 3296   6.152  11.208   2.100  0.1714  0.4872 -0.6231
   25MOL0     C 3297   6.043  11.274   2.168 -0.3294 -0.2531 -0.1430
   25MOL0     O 3298   5.916  11.236   2.143 -0.0760  0.2605 -0.3043
   25MOL0     C 3299   5.808  11.325   2.193  1.2719 -0.0197 -0.9030
   25MOL0     C 3300   5.779  11.305   2.346 -0.1283 -0.5460 -0.8560
   25MOL0     C 3301   5.632  11.359   2.389  0.1402 -0.3103 -0.2086
   25MOL0     C 3302   5.626  11.504   2.376  0.0811 -0.1662 -0.1380
   25MOL0     C 3303   5.489  11.553   2.413  0.1465  0.4110  0.0489
   25MOL0     C 3304   5.395  11.614   2.460  0.6045  0.5990 -0.0280
   25MOL0     C 3305   6.080  11.377   2.250 -0.8794  0.0350  0.3521
   25MOL0     C 3306   6.211  11.410   2.277  0.5559 -0.1816  0.4065
   25MOL0     C 3307   6.231  11.528   2.370  1.0620 -0.8091 -0.5482
   25MOL0     H 3308   6.727  11.272   2.442  1.1734  0.0697 -0.6362
   25MOL0     H 3309   6.937  11.382   2.486 -2.0939 -1.5754  1.5252
   25MOL0     H 3310   7.040  11.566   2.641  1.5843 -1.2004 -0.0127
   25MOL0     H 3311   7.132  11.523   2.486 -0.1804  0.2767  0.5278
   25MOL0     H 3312   7.142  11.796   2.624  2.0653  1.1737 -0.7993
   25MOL0     H 3313   7.225  11.738   2.489 -0.3273  3.0672  0.7881
   25MOL0     H 3314   7.372  11.701   2.661 -1.0043  1.9223 -0.6192
   25MOL0     H 3315   7.314  11.536   2.659 -0.3344  0.6293  0.3581
   25MOL0     H 3316   7.181  11.724   2.841 -2.8510 -1.8278 -0.2544
   25MOL0     H 3317   7.183  11.554   2.862 -1.4806  1.2908 -2.8012
   25MOL0     H 3318   7.412  11.539   2.949  0.0978  1.0100  2.0816
   25MOL0     H 3319   7.453  11.700   2.913 -1.7561  1.5258 -0.6992
   25MOL0     H 3320   7.269  11.776   3.072  2.0316  1.8426  0.8256
   25MOL0     H 3321   7.236  11.600   3.102  0.7145  0.5113  2.0276
   25MOL0     H 3322   7.487  11.770   3.136 -1.1162  1.7589  2.3112
   25MOL0     H 3323   7.494  11.603   3.172  2.1749  2.3012  0.5301
   25MOL0     H 3324   7.469  11.776   3.383 -0.1746  2.3394 -1.6105
   25MOL0     H 3325   7.303  11.788   3.330 -0.3163 -0.2847  1.1309
   25MOL0     H 3326   7.557  11.511   3.459  0.4526 -2.4492  1.1634
   25MOL0     H 3327   7.408  11.226   3.615  0.2776  0.1669  2.0211
   25MOL0     H 3328   7.542  11.331   3.593 -0.2386  0.7235  1.0365
   25MOL0     H 3329   7.424  11.489   3.773  3.1115 -0.0510 -1.3201
   25MOL0     H 3330   7.322  11.353   3.803  1.1651 -0.5784  1.4613
   25MOL0     H 3331   7.556  11.227   3.855  1.2026 -0.3458  0.9983
   25MOL0     H 3332   7.486  11.342   3.975 -0.6984  1.6136 -1.0840
   25MOL0     H 3333   7.624  11.511   3.914  0.6091 -0.9965  2.0034
   25MOL0     H 3334   7.691  11.441   3.764  1.4937 -0.4637 -0.2358
   25MOL0     H 3335   7.816  11.596   3.857 -2.1620 -2.6905  2.0997
   25MOL0     H 3336   8.027  11.732   3.880 -0.8466  0.6725 -0.3611
   25MOL0     H 3337   8.540  11.453   4.201  2.4547 -0.2378  1.9549
   25MOL0     H 3338   8.767  11.491   4.215  0.8772 -1.0303 -1.6595
   25MOL0     H 3339   8.891  11.890   4.164  2.5654  1.3910 -0.5093
   25MOL0     H 3340   9.042  11.819   4.215  0.8097  3.6900 -0.5321
   25MOL0     H 3341   9.127  11.794   4.000 -1.1451 -0.6115 -1.3893
   25MOL0     H 3342   8.968  11.854   3.937  0.6446 -0.5886 -0.0885
   25MOL0     H 3343   9.019  12.083   4.041  1.6299  2.8197 -0.9903
   25MOL0     H 3344   9.154  12.012   4.131 -0.4025  1.3061  0.3606
   25MOL0     H 3345   9.154  11.988   3.833 -0.9891  0.0889  0.6996
   25MOL0     H 3346   9.281  11.992   3.936 -0.4103 -0.9443  2.6595
   25MOL0     H 3347   9.108  12.245   3.846  1.7787  0.4493 -1.6863
   25MOL0     H 3348   9.266  12.209   3.800  1.5435  0.1345  1.5556
   25MOL0     H 3349   9.172  12.253   4.091 -1.8001 -0.3977 -0.8249
   25MOL0     H 3350   9.339  12.237   4.027 -0.5535  1.0062 -0.4116
   25MOL0     H 3351   9.256  12.483   4.083 -0.4640  0.7173  0.2086
   25MOL0     H 3352   9.136  12.465   3.954  1.8186 -0.6907 -5.2354
   25MOL0     H 3353   9.343  12.421   3.794  1.8610  0.8697 -0.5680
   25MOL0     H 3354   9.307  12.586   3.858  1.3496  0.1261  1.3871
   25MOL0     H 3355   8.739  11.851   3.981  1.9481  0.2910  2.2231
   25MOL0     H 3356   8.513  11.767   3.909 -0.0690 -0.4915 -0.3037
   25MOL0     H 3357   8.190  11.396   4.099  1.2193  1.7396  0.3942
   25MOL0     H 3358   7.969  11.286   4.092 -0.2762 -1.0553 -0.8188
   25MOL0     H 3359   6.775  11.763   2.398  0.2419  0.7044  0.8620
   25MOL0     H 3360   6.547  11.655   2.372 -0.5782 -1.4075  0.9856
   25MOL0     H 3361   6.365  11.184   2.081 -0.3444  0.0665  0.4009
   25MOL0     H 3362   6.131  11.119   2.042 -0.4800 -0.5293  1.1206
   25MOL0     H 3363   5.716  11.288   2.147 -0.0263 -0.6609  2.0158
   25MOL0     H 3364   5.824  11.430   2.168  0.5109  0.1360 -0.7417
   25MOL0     H 3365   5.856  11.341   2.415 -1.5556 -0.8211  0.9381
   25MOL0     H 3366   5.794  11.198   2.359  0.5263 -0.6065 -1.9382
   25MOL0     H 3367   5.622  11.334   2.495  0.7249  0.1131 -0.0489
   25MOL0     H 3368   5.550  11.307   2.338  1.8499 -1.6125 -1.7607
   25MOL0     H 3369   5.707  11.554   2.430  1.2860  0.6748 -2.5915
   25MOL0     H 3370   5.642  11.528   2.271 -0.2056 -0.2880 -0.2122
   25MOL0     H 3371   5.324  11.680   2.506  0.6850 -0.0479  1.0771
   25MOL0     H 3372   6.009  11.439   2.304 -0.2956 -0.1555  1.3501
   25MOL0     H 3373   6.146  11.595   2.390  1.1384 -1.4241  2.3149
   25MOL0     H 3374   6.269  11.488   2.464 -0.7826 -0.9770  0.1737
   25MOL0     H 3375   6.312  11.594   2.340 -0.5760  0.6541 -1.9944
   26MOL0     O 3376   7.924  10.583   0.012 -0.6163 -0.0743 -0.4057
   26MOL0     C 3377   7.883  10.504   0.094  0.2180  1.0987  0.1061
   26MOL0     O 3378   7.952  10.448   0.206 -0.0650 -0.3367  0.6523
   26MOL0     C 3379   8.081  10.483   0.232 -0.3596  0.3563 -0.5538
   26MOL0     C 3380   8.186  10.501   0.139  0.4486  0.8258 -0.0503
   26MOL0     C 3381   8.322  10.500   0.178  0.7327  0.0616 -0.1932
   26MOL0     C 3382   8.355  10.489   0.314  0.1082  0.4111  0.0738
   26MOL0     O 3383   8.485  10.506   0.364  0.4738  0.4470 -0.2963
   26MOL0     C 3384   8.590  10.466   0.275 -0.9328  0.2256  0.6244
   26MOL0     C 3385   8.716  10.507   0.349  0.1391 -0.0554 -0.9082
   26MOL0     C 3386   8.835  10.494   0.266 -0.6091  0.4816  0.0648
   26MOL0     C 3387   8.961  10.557   0.337 -0.8123  0.1738 -0.9767
   26MOL0     C 3388   9.090  10.490   0.288 -0.2862  0.9423  0.8441
   26MOL0     C 3389   9.193  10.602   0.283  0.2127 -0.4162  0.1030
   26MOL0     C 3390   9.330  10.538   0.263  0.8696  0.3712  0.8074
   26MOL0     C 3391   9.423  10.663   0.278 -0.0805 -0.7959 -0.5534
   26MOL0     N 3392   9.568  10.624   0.293  1.2205  0.2646 -0.1738
   26MOL0     C 3393   9.641  10.589   0.184 -0.4146 -1.1468  1.3126
   26MOL0     C 3394   9.747  10.525   0.237 -0.1306 -0.0519  0.3637
   26MOL0     C 3395   9.847  10.446   0.158  0.1201  0.1310  0.1587
   26MOL0     C 3396   9.994  10.494   0.172  0.7528 -0.9323 -0.8077
   26MOL0     C 3397  10.013  10.624   0.093 -0.1569  0.6377  0.3289
   26MOL0     C 3398  10.162  10.658   0.084 -0.5162 -0.1862  0.2406
   26MOL0     O 3399  10.223  10.581  -0.016  0.0244 -0.2582  0.1357
   26MOL0     C 3400  10.355  10.545  -0.022  0.4078 -1.1226 -1.4379
   26MOL0     C 3401  10.461  10.600   0.059 -0.6113 -0.0112 -0.8963
   26MOL0     C 3402  10.593  10.584   0.023  0.0425 -0.3901 -1.5654
   26MOL0     C 3403  10.629  10.497  -0.082  0.1477 -0.4497  0.1745
   26MOL0     C 3404  10.771  10.490  -0.118 -0.4562  0.1617 -1.1122
   26MOL0     O 3405  10.857  10.537  -0.022 -0.7923 -0.3335  0.1927
   26MOL0     C 3406  10.994  10.542  -0.035  0.0732  0.4016  0.1195
   26MOL0     C 3407  11.061  10.531  -0.161 -0.4102 -0.8181 -0.4213
   26MOL0     C 3408  11.199  10.550  -0.164  0.6448  1.1926  0.3433
   26MOL0     C 3409  11.277  10.579  -0.052 -0.0680 -0.0391 -0.6103
   26MOL0     O 3410  11.418  10.586  -0.076  0.9797  0.2325  0.5054
   26MOL0     C 3411  11.501  10.619   0.040  0.1362 -0.1979  0.2775
   26MOL0     C 3412  11.627  10.537   0.016 -0.1656 -0.4647 -0.9047
   26MOL0     C 3413  11.614  10.382   0.049  0.5450 -0.2642 -0.2916
   26MOL0     C 3414  11.735  10.291   0.029  0.4217 -0.4905  0.2615
   26MOL0     C 3415  11.692  10.148   0.062 -0.5258 -0.3428  0.2235
   26MOL0     C 3416  11.817  10.049   0.027 -0.2077  0.2353 -1.2047
   26MOL0     C 3417  11.784   9.897   0.047  0.8538  0.1486  0.1128
   26MOL0     C 3418  11.801   9.870   0.202  0.2780 -0.3609 -0.7465
   26MOL0    Cl 3419  11.973   9.844   0.230  0.1345  0.5601 -0.0514
   26MOL0     C 3420  11.212  10.587   0.075  0.1435 -0.6421 -0.0417
   26MOL0     C 3421  11.074  10.563   0.080  0.1363 -0.3250  0.1644
   26MOL0     O 3422  10.799  10.425  -0.218 -0.1888 -0.4879 -0.1969
   26MOL0     C 3423  10.527  10.432  -0.144  0.7473  0.0213  0.2500
   26MOL0     C 3424  10.395  10.454  -0.116  0.6890  0.0974 -0.0933
   26MOL0     N 3425   9.730  10.519   0.376 -0.5288  0.1294  0.2560
   26MOL0     N 3426   9.623  10.586   0.406 -0.2856  0.0217  0.7890
   26MOL0     C 3427   8.254  10.468   0.410  0.1244 -0.3322  0.0505
   26MOL0     C 3428   8.122  10.458   0.366  0.5664 -0.3902  0.2874
   26MOL0     C 3429   7.747  10.453   0.084  0.1841 -0.1450 -0.2378
   26MOL0     C 3430   7.651  10.537   0.030 -0.0702  0.2320  0.1811
   26MOL0     C 3431   7.515  10.490   0.036  0.0516 -0.2475  0.7182
   26MOL0     C 3432   7.486  10.368   0.092  0.4507  0.4202 -0.8424
   26MOL0     O 3433   7.364  10.308   0.093  0.2388 -0.4375 -0.3508
   26MOL0     C 3434   7.252  10.386   0.100  0.6535 -0.3117  0.3574
   26MOL0     C 3435   7.139  10.325   0.195 -0.3997 -0.8504  0.0804
   26MOL0     C 3436   7.081  10.196   0.136  0.7302  0.0893  0.3353
   26MOL0     C 3437   6.960  10.216   0.043 -0.5676  1.1932 -0.8909
   26MOL0     C 3438   6.834  10.231   0.113 -1.6195 -0.4224  0.3980
   26MOL0     C 3439   6.735  10.227   0.176  1.0224  0.0549  0.0973
   26MOL0     C 3440   7.583  10.279   0.131 -0.7175 -0.5644  0.2318
   26MOL0     C 3441   7.714  10.322   0.135 -0.2810 -0.2457 -0.3916
   26MOL0     C 3442   7.818  10.214   0.185  0.0917  0.4393 -0.3944
   26MOL0     H 3443   8.153  10.493   0.036 -2.0776  1.7042  0.6072
   26MOL0     H 3444   8.407  10.500   0.111  1.4083 -2.4055  0.5788
   26MOL0     H 3445   8.586  10.358   0.256 -3.1055  0.3685 -0.0760
   26MOL0     H 3446   8.599  10.526   0.184 -0.3259 -0.3461  0.3034
   26MOL0     H 3447   8.718  10.433   0.430 -1.3175 -1.2641 -1.9321
   26MOL0     H 3448   8.716  10.610   0.384  0.0963 -0.1942 -0.4959
   26MOL0     H 3449   8.813  10.551   0.175 -2.6503 -1.1723 -0.5486
   26MOL0     H 3450   8.851  10.388   0.245  0.2100  0.7145 -0.5654
   26MOL0     H 3451   8.953  10.664   0.315 -0.9876 -0.1195 -2.5157
   26MOL0     H 3452   8.944  10.549   0.444  1.7530  2.7916 -0.2567
   26MOL0     H 3453   9.122  10.419   0.365  2.7789  1.9742  0.6520
   26MOL0     H 3454   9.093  10.448   0.188 -3.2323 -2.6690  2.0643
   26MOL0     H 3455   9.172  10.684   0.213 -0.8686 -0.3262  0.5100
   26MOL0     H 3456   9.181  10.643   0.384  1.0182 -1.5376  0.6769
   26MOL0     H 3457   9.335  10.496   0.162 -1.5427  1.1728  0.2789
   26MOL0     H 3458   9.353  10.460   0.336 -0.9620  0.3072  1.3753
   26MOL0     H 3459   9.410  10.733   0.195  0.2930  1.7091  1.3791
   26MOL0     H 3460   9.394  10.722   0.365 -0.1374 -0.9169 -0.4889
   26MOL0     H 3461   9.627  10.588   0.076  2.4047 -0.4134  0.8678
   26MOL0     H 3462   9.825  10.345   0.196 -1.9719  2.0790  5.0438
   26MOL0     H 3463   9.829  10.450   0.050 -0.2758  0.4193  0.2323
   26MOL0     H 3464  10.028  10.512   0.274 -1.1992 -0.1894 -0.2478
   26MOL0     H 3465  10.049  10.427   0.105  2.3494  0.5512 -1.0660
   26MOL0     H 3466   9.970  10.704   0.154 -1.1240  1.7490 -1.6946
   26MOL0     H 3467   9.959  10.616  -0.002  2.0492 -4.9671 -0.8530
   26MOL0     H 3468  10.205  10.650   0.185 -1.0244 -1.6666  0.3615
   26MOL0     H 3469  10.173  10.763   0.053  1.0684 -1.0774 -2.5487
   26MOL0     H 3470  10.437  10.665   0.142 -0.3755  0.1152 -0.9269
   26MOL0     H 3471  10.664  10.626   0.093 -1.0888 -0.9879 -0.0092
   26MOL0     H 3472  11.008  10.525  -0.255  0.3148 -2.7619 -0.7438
   26MOL0     H 3473  11.236  10.548  -0.266 -1.8704 -2.0995 -0.7006
   26MOL0     H 3474  11.515  10.728   0.040 -1.3757  0.0410  2.0044
   26MOL0     H 3475  11.465  10.578   0.134  2.5865 -2.9808  0.1569
   26MOL0     H 3476  11.651  10.548  -0.090 -2.5935  1.3506 -1.3583
   26MOL0     H 3477  11.705  10.573   0.084 -0.9050 -1.4710  0.5301
   26MOL0     H 3478  11.580  10.366   0.151 -3.6679 -0.1742 -1.5147
   26MOL0     H 3479  11.538  10.337  -0.016  0.5222 -1.0921  0.2977
   26MOL0     H 3480  11.811  10.334   0.095  0.0812  1.7138 -0.6916
   26MOL0     H 3481  11.760  10.300  -0.077 -1.2590 -1.8845 -0.3132
   26MOL0     H 3482  11.603  10.108   0.013 -1.4538 -3.3309  3.8819
   26MOL0     H 3483  11.660  10.132   0.166 -0.0151 -2.6501  0.0784
   26MOL0     H 3484  11.844  10.054  -0.079 -2.6192 -1.9417 -2.0305
   26MOL0     H 3485  11.899  10.081   0.092 -0.2945 -0.6770 -0.6292
   26MOL0     H 3486  11.859   9.847  -0.015  0.4564 -0.7266  0.3333
   26MOL0     H 3487  11.684   9.881   0.008  1.1093  0.4801 -0.7181
   26MOL0     H 3488  11.762   9.953   0.261 -1.8456 -1.2608 -0.7957
   26MOL0     H 3489  11.744   9.781   0.232  1.6591 -0.5770  1.5303
   26MOL0     H 3490  11.257  10.620   0.168 -1.5647  1.4637  0.1200
   26MOL0     H 3491  11.021  10.561   0.175 -0.0486  2.4821  0.2247
   26MOL0     H 3492  10.543  10.369  -0.231  0.9359 -1.4355  1.3156
   26MOL0     H 3493  10.326  10.411  -0.187  0.3504  1.3922 -0.5679
   26MOL0     H 3494   8.278  10.463   0.516  0.6887 -1.3407 -0.1156
   26MOL0     H 3495   8.048  10.423   0.437  1.1516 -0.1515  1.0278
   26MOL0     H 3496   7.669  10.634  -0.017  2.8254 -0.3947 -0.2274
   26MOL0     H 3497   7.437  10.552  -0.007  0.5403 -0.2020 -0.1427
   26MOL0     H 3498   7.215  10.397  -0.003  3.4575 -0.4384 -0.7597
   26MOL0     H 3499   7.284  10.485   0.133  2.5347 -1.4180  2.1185
   26MOL0     H 3500   7.059  10.400   0.198 -0.2559 -0.6475 -0.8617
   26MOL0     H 3501   7.178  10.312   0.296 -1.7242 -0.2008  0.7023
   26MOL0     H 3502   7.036  10.139   0.218 -0.6357  1.4891  0.6134
   26MOL0     H 3503   7.165  10.142   0.092  0.8282  0.8909 -0.4957
   26MOL0     H 3504   6.984  10.293  -0.030  2.6599  0.4730 -0.7277
   26MOL0     H 3505   6.955  10.118  -0.006 -0.1004 -2.2370  4.9990
   26MOL0     H 3506   6.647  10.207   0.234  2.6181  0.3926  2.7521
   26MOL0     H 3507   7.558  10.184   0.177  0.7754 -1.5244 -0.8300
   26MOL0     H 3508   7.772  10.115   0.194  1.2533 -0.2299 -1.4912
   26MOL0     H 3509   7.911  10.216   0.127  2.3106  0.5933  2.8365
   26MOL0     H 3510   7.856  10.234   0.286  2.5120 -0.5926 -1.0194
   27MOL0     O 3511   8.563   6.351   3.059 -0.1920  0.1804 -0.3318
   27MOL0     C 3512   8.676   6.310   3.078 -0.2812  0.9646  0.3866
   27MOL0     O 3513   8.706   6.173   3.075  0.2455 -0.1199 -0.0784
   27MOL0     C 3514   8.597   6.091   3.079  0.2489  0.9820  0.1842
   27MOL0     C 3515   8.517   6.056   3.197 -0.1358  0.2523  0.4476
   27MOL0     C 3516   8.404   5.981   3.181  0.4685  0.4121 -1.0147
   27MOL0     C 3517   8.365   5.930   3.060 -0.3113  1.1236  0.0149
   27MOL0     O 3518   8.254   5.848   3.063  0.0325  0.1527  0.1214
   27MOL0     C 3519   8.277   5.708   3.052 -0.5182 -0.0143 -0.1354
   27MOL0     C 3520   8.223   5.667   2.918 -0.1396  0.5766 -0.3706
   27MOL0     C 3521   8.225   5.512   2.890  0.1494 -0.3495 -0.5300
   27MOL0     C 3522   8.340   5.440   2.827  0.4564  0.7039  0.3840
   27MOL0     C 3523   8.477   5.461   2.903  0.1329 -0.0673  0.5693
   27MOL0     C 3524   8.569   5.578   2.848  0.5576  0.7054  0.1507
   27MOL0     C 3525   8.718   5.536   2.868 -0.2167  0.1517 -0.2318
   27MOL0     C 3526   8.806   5.663   2.850  0.4757  0.7403 -0.7622
   27MOL0     N 3527   8.946   5.652   2.821  0.0411  0.4103  0.3052
   27MOL0     C 3528   9.043   5.708   2.901 -0.5353  0.6245  0.0193
   27MOL0     C 3529   9.170   5.672   2.856 -0.2218 -0.2202 -0.9882
   27MOL0     C 3530   9.288   5.712   2.929 -0.5641  0.0893 -0.3704
   27MOL0     C 3531   9.415   5.662   2.876 -0.1634 -0.5314  1.0385
   27MOL0     C 3532   9.470   5.738   2.758 -0.1955  0.1009  0.4207
   27MOL0     C 3533   9.624   5.721   2.738 -0.5986 -0.6822  0.6032
   27MOL0     O 3534   9.655   5.784   2.614 -0.4603 -0.0844  0.0227
   27MOL0     C 3535   9.784   5.814   2.584  0.2944  0.0991  0.0925
   27MOL0     C 3536   9.903   5.744   2.632 -0.4022  0.1287  0.0832
   27MOL0     C 3537  10.032   5.798   2.612 -0.7037 -0.7456  0.9282
   27MOL0     C 3538  10.053   5.909   2.527  0.0583  0.4152 -0.0852
   27MOL0     C 3539  10.184   5.965   2.498  0.5194  0.1399 -0.6619
   27MOL0     O 3540  10.178   6.097   2.478  0.3510  0.2710  0.1938
   27MOL0     C 3541  10.290   6.170   2.446  0.3513 -0.3246 -0.2014
   27MOL0     C 3542  10.290   6.239   2.331  0.4101  0.1202 -0.1336
   27MOL0     C 3543  10.394   6.337   2.311  0.6108  0.4199 -0.2627
   27MOL0     C 3544  10.483   6.363   2.411 -0.1292  0.0325  0.5853
   27MOL0     O 3545  10.572   6.465   2.380  0.0873 -0.0267 -0.7829
   27MOL0     C 3546  10.665   6.508   2.487  0.1945  0.4129  0.7613
   27MOL0     C 3547  10.767   6.605   2.429  0.8375 -0.1662 -0.5382
   27MOL0     C 3548  10.869   6.537   2.339 -0.0069 -0.1865 -1.0705
   27MOL0     C 3549  10.999   6.629   2.316 -0.9148 -0.0972  0.0490
   27MOL0     C 3550  11.126   6.602   2.397 -0.7091 -0.4667 -1.0603
   27MOL0     C 3551  11.256   6.642   2.324  0.3278  0.1684 -0.6392
   27MOL0     C 3552  11.285   6.555   2.199 -1.0258  0.0625  0.8768
   27MOL0     C 3553  11.437   6.565   2.151 -0.1118  0.4336  0.6366
   27MOL0    Cl 3554  11.547   6.481   2.273  0.1029 -0.1573  0.2756
   27MOL0     C 3555  10.491   6.277   2.525 -0.9220  0.2029  0.6438
   27MOL0     C 3556  10.386   6.190   2.543  0.1966  0.8316 -0.0195
   27MOL0     O 3557  10.286   5.892   2.480 -0.1919 -0.5735 -0.2539
   27MOL0     C 3558   9.933   5.973   2.491  0.6861  0.1152 -0.2904
   27MOL0     C 3559   9.808   5.931   2.514 -0.2588 -0.0878 -1.5578
   27MOL0     N 3560   9.140   5.585   2.754 -0.4773  1.1505  0.5732
   27MOL0     N 3561   9.020   5.576   2.734  0.0871 -0.0348  0.1997
   27MOL0     C 3562   8.443   5.962   2.940 -1.0247  0.7855 -0.0252
   27MOL0     C 3563   8.557   6.044   2.955 -0.8848  0.0417  0.6343
   27MOL0     C 3564   8.795   6.403   3.091  0.0877  0.0274 -1.1241
   27MOL0     C 3565   8.887   6.379   3.194  0.3218 -0.1630 -1.6844
   27MOL0     C 3566   9.010   6.452   3.200  0.8070 -0.5338  0.6303
   27MOL0     C 3567   9.023   6.563   3.118  0.1841 -0.3613 -0.3746
   27MOL0     O 3568   9.134   6.634   3.141 -0.6354  0.0188 -0.4519
   27MOL0     C 3569   9.202   6.689   3.026  0.1053  0.0545  0.2029
   27MOL0     C 3570   9.236   6.579   2.917  0.3225  0.2498 -0.0333
   27MOL0     C 3571   9.298   6.607   2.778 -0.6763  0.1808  0.8576
   27MOL0     C 3572   9.249   6.737   2.708 -1.0818  0.0221 -0.4366
   27MOL0     C 3573   9.106   6.733   2.681 -0.2551  0.0673 -0.0796
   27MOL0     C 3574   8.988   6.733   2.668  0.2894  0.1850 -0.6080
   27MOL0     C 3575   8.924   6.601   3.028  0.3887  0.0102  0.4463
   27MOL0     C 3576   8.801   6.520   3.018  0.2630  0.4261  0.2399
   27MOL0     C 3577   8.704   6.561   2.907 -0.8446  0.3496 -0.0528
   27MOL0     H 3578   8.551   6.086   3.296 -0.1892  3.0063 -0.2737
   27MOL0     H 3579   8.352   5.963   3.275  0.2958  0.7473 -1.0444
   27MOL0     H 3580   8.385   5.692   3.055 -0.3475  0.8464 -1.0779
   27MOL0     H 3581   8.229   5.662   3.139 -1.8904  0.0948 -0.8013
   27MOL0     H 3582   8.283   5.717   2.842  1.2772 -0.6429 -0.0964
   27MOL0     H 3583   8.121   5.707   2.918  0.7634  3.5416 -4.5814
   27MOL0     H 3584   8.133   5.484   2.837 -0.5139  0.2964  0.2641
   27MOL0     H 3585   8.210   5.460   2.985 -2.0605 -0.8731 -1.1076
   27MOL0     H 3586   8.322   5.332   2.833  2.2853  0.4163  1.3158
   27MOL0     H 3587   8.327   5.476   2.724 -0.3321  2.4771  1.0554
   27MOL0     H 3588   8.456   5.485   3.007  0.5280  1.3994  0.3400
   27MOL0     H 3589   8.535   5.369   2.904  1.9791  1.0460  0.5366
   27MOL0     H 3590   8.564   5.597   2.741 -0.9967  0.2459  0.1326
   27MOL0     H 3591   8.553   5.671   2.904  2.0669  0.5481  0.8996
   27MOL0     H 3592   8.750   5.465   2.792  1.9155 -2.1909  2.6003
   27MOL0     H 3593   8.726   5.488   2.966 -1.7700  1.2685  0.4939
   27MOL0     H 3594   8.761   5.702   2.758 -1.8168 -1.1996 -0.5580
   27MOL0     H 3595   8.795   5.733   2.934  2.4056 -1.4426  1.4294
   27MOL0     H 3596   9.026   5.770   2.989 -2.5834  0.0741  0.0685
   27MOL0     H 3597   9.288   5.821   2.925 -3.0238  0.0903 -1.7851
   27MOL0     H 3598   9.282   5.673   3.031 -1.2146  1.0285 -0.0369
   27MOL0     H 3599   9.487   5.676   2.958 -0.9353  2.4675  1.3090
   27MOL0     H 3600   9.404   5.555   2.854 -0.2663 -0.4821  0.8521
   27MOL0     H 3601   9.446   5.845   2.752  1.4130  0.4436 -0.4976
   27MOL0     H 3602   9.426   5.699   2.666 -2.8872  1.1773  1.1501
   27MOL0     H 3603   9.659   5.619   2.727  0.3792 -0.0775 -4.3326
   27MOL0     H 3604   9.683   5.776   2.811  0.7382 -2.2495  0.7548
   27MOL0     H 3605   9.890   5.659   2.699 -3.7627  0.1991 -0.3241
   27MOL0     H 3606  10.127   5.760   2.650  1.4342 -0.3524 -3.4887
   27MOL0     H 3607  10.215   6.218   2.255 -0.5285 -0.5891  0.9739
   27MOL0     H 3608  10.398   6.402   2.224 -0.5315 -0.9130 -1.3642
   27MOL0     H 3609  10.612   6.567   2.563  0.8243  2.8661 -0.5875
   27MOL0     H 3610  10.718   6.418   2.518 -0.8641 -0.1863  0.8787
   27MOL0     H 3611  10.717   6.678   2.364  1.1926  0.4593 -0.1219
   27MOL0     H 3612  10.832   6.651   2.505 -0.3632  2.0533 -0.7794
   27MOL0     H 3613  10.894   6.441   2.386 -0.2309  0.5977  0.7347
   27MOL0     H 3614  10.830   6.523   2.238 -1.0555  0.9852 -0.8496
   27MOL0     H 3615  10.966   6.733   2.317 -3.1639 -0.7704  1.2254
   27MOL0     H 3616  11.027   6.598   2.214  4.9002  0.5926  1.0815
   27MOL0     H 3617  11.130   6.500   2.438  1.1385 -0.5040 -1.2538
   27MOL0     H 3618  11.108   6.665   2.484 -1.8821 -2.2398  0.0353
   27MOL0     H 3619  11.245   6.746   2.295  1.8435  1.6702  3.4501
   27MOL0     H 3620  11.347   6.637   2.384  0.8726  1.7867 -1.2879
   27MOL0     H 3621  11.220   6.594   2.120 -0.5119 -1.8114 -0.5243
   27MOL0     H 3622  11.255   6.451   2.215 -2.2659  0.1961 -0.4436
   27MOL0     H 3623  11.447   6.518   2.052  3.4015 -1.5948  1.8013
   27MOL0     H 3624  11.472   6.668   2.140 -0.1854  0.6461  2.2652
   27MOL0     H 3625  10.565   6.300   2.601  0.5483 -0.7889 -0.4347
   27MOL0     H 3626  10.383   6.132   2.634  4.6666 -0.5822 -0.5359
   27MOL0     H 3627   9.944   6.063   2.431  2.3862  1.3879  1.7931
   27MOL0     H 3628   9.720   5.987   2.483 -1.7744 -0.7385  1.2347
   27MOL0     H 3629   8.425   5.927   2.839  1.0975  1.6886 -0.7792
   27MOL0     H 3630   8.629   6.073   2.879 -0.8062 -0.4426  0.5197
   27MOL0     H 3631   8.901   6.291   3.255 -1.3116  1.6668  1.5995
   27MOL0     H 3632   9.090   6.426   3.270  0.9383  3.8377  2.4415
   27MOL0     H 3633   9.291   6.741   3.062  0.6362 -0.3137 -0.5536
   27MOL0     H 3634   9.144   6.763   2.970  0.8049  2.1423  2.0866
   27MOL0     H 3635   9.148   6.520   2.889  2.0399 -1.1375 -3.0670
   27MOL0     H 3636   9.305   6.510   2.967 -1.3053 -0.0745  1.8692
   27MOL0     H 3637   9.272   6.519   2.719  1.3331 -1.7127  2.6084
   27MOL0     H 3638   9.407   6.615   2.786 -0.3736 -0.7398 -1.5341
   27MOL0     H 3639   9.265   6.823   2.774 -0.4430 -0.5691  0.1874
   27MOL0     H 3640   9.306   6.770   2.620  2.6254  0.1881  1.8048
   27MOL0     H 3641   8.882   6.747   2.661 -0.0848 -1.4471  1.1427
   27MOL0     H 3642   8.936   6.692   2.970  1.4536  0.5734  1.5053
   27MOL0     H 3643   8.609   6.594   2.949 -0.5448  0.0425  0.8923
   27MOL0     H 3644   8.741   6.645   2.849  1.3465  0.8858  1.9817
   27MOL0     H 3645   8.702   6.477   2.836 -3.2445 -0.8765  1.3219
   28MOL0     O 3646   8.588   7.102  10.016 -0.4782  0.8222  0.6093
   28MOL0     C 3647   8.577   7.142   9.898 -0.3867  0.7853 -0.0444
   28MOL0     O 3648   8.626   7.264   9.849 -0.6413  0.1080 -0.0504
   28MOL0     C 3649   8.733   7.329   9.910 -0.4825 -0.2666 -0.6947
   28MOL0     C 3650   8.773   7.441   9.838 -0.1914 -0.6226 -0.0203
   28MOL0     C 3651   8.884   7.520   9.872  0.1497 -0.0109  0.1403
   28MOL0     C 3652   8.954   7.480   9.985  0.8636 -0.0073  0.0113
   28MOL0     O 3653   9.056   7.558  10.032 -0.0184  0.6144  0.4146
   28MOL0     C 3654   9.047   7.695   9.991  0.3481 -0.4572 -0.2771
   28MOL0     C 3655   9.130   7.770  10.086 -0.2670  0.7485 -0.0550
   28MOL0     C 3656   9.278   7.754  10.050  0.1688  0.5793  0.2170
   28MOL0     C 3657   9.362   7.870  10.102  0.1447 -0.3090 -0.6304
   28MOL0     C 3658   9.485   7.890  10.018 -0.4461 -0.2510  0.3653
   28MOL0     C 3659   9.466   7.960   9.885 -1.0764 -0.2458  0.0459
   28MOL0     C 3660   9.590   7.956   9.800 -0.4234 -0.1305  0.8516
   28MOL0     C 3661   9.706   8.044   9.845  0.0929  0.2626  0.4658
   28MOL0     N 3662   9.682   8.185   9.822  0.3384  0.0995  0.0266
   28MOL0     C 3663   9.776   8.283   9.833  0.6448 -0.5226  0.0860
   28MOL0     C 3664   9.722   8.392   9.766  0.5102 -0.8538  0.1402
   28MOL0     C 3665   9.758   8.534   9.769  0.2566  0.5431 -0.1783
   28MOL0     C 3666   9.891   8.574   9.701 -0.2171 -0.0345 -1.0227
   28MOL0     C 3667   9.908   8.728   9.732  0.3640  0.8017  0.5014
   28MOL0     C 3668  10.040   8.787   9.681 -0.2324 -0.1826  0.7013
   28MOL0     O 3669  10.164   8.730   9.733 -0.1131  0.2064 -0.2074
   28MOL0     C 3670  10.279   8.802   9.710  0.4710  0.7841 -0.4074
   28MOL0     C 3671  10.391   8.716   9.698 -0.1217 -0.2538  0.7573
   28MOL0     C 3672  10.518   8.772   9.670 -0.4852 -0.1568 -0.2768
   28MOL0     C 3673  10.534   8.909   9.684  0.7458 -0.3916 -0.8401
   28MOL0     C 3674  10.664   8.967   9.689  0.3423  0.9662 -0.5777
   28MOL0     O 3675  10.676   9.102   9.690  0.8839 -0.2505 -0.1962
   28MOL0     C 3676  10.802   9.146   9.716 -0.1523 -0.5863  0.4319
   28MOL0     C 3677  10.878   9.210   9.613  1.0953 -0.2682  0.4609
   28MOL0     C 3678  11.000   9.272   9.633  1.0061 -0.5237  0.3656
   28MOL0     C 3679  11.050   9.270   9.760  0.1162 -0.7925  0.2579
   28MOL0     O 3680  11.180   9.312   9.783 -0.0529 -0.0326  0.7214
   28MOL0     C 3681  11.271   9.307   9.667  0.3050  0.1915  0.6069
   28MOL0     C 3682  11.393   9.382   9.712 -0.1910  0.1642  0.3150
   28MOL0     C 3683  11.499   9.389   9.599 -0.1105 -0.2426  0.0368
   28MOL0     C 3684  11.627   9.466   9.647  0.5297  0.5892  0.7135
   28MOL0     C 3685  11.604   9.619   9.621 -0.3907  0.1258  0.3427
   28MOL0     C 3686  11.740   9.698   9.651 -0.9855  0.8834 -0.6364
   28MOL0     C 3687  11.734   9.836   9.592 -0.2314  0.7772 -0.3548
   28MOL0     C 3688  11.876   9.889   9.586  0.0734 -0.4306  0.4611
   28MOL0    Cl 3689  11.864  10.072   9.596  0.3239  0.1989  0.0467
   28MOL0     C 3690  10.979   9.208   9.872  0.0885  0.2709  0.5744
   28MOL0     C 3691  10.841   9.159   9.849 -0.3062  0.1438 -0.2606
   28MOL0     O 3692  10.753   8.884   9.675  0.1132  0.5351  0.1305
   28MOL0     C 3693  10.422   8.995   9.714  0.7000  0.7503 -0.3182
   28MOL0     C 3694  10.290   8.944   9.727  0.0950 -0.0017 -0.6396
   28MOL0     N 3695   9.609   8.347   9.700 -0.0932  0.9831 -0.2126
   28MOL0     N 3696   9.587   8.229   9.736 -0.5050  0.1388 -0.6936
   28MOL0     C 3697   8.917   7.359  10.049 -0.1379  0.3871 -1.0311
   28MOL0     C 3698   8.807   7.284  10.019 -0.6127  0.1415  0.3996
   28MOL0     C 3699   8.490   7.061   9.814 -0.9122 -0.1515  0.0782
   28MOL0     C 3700   8.519   6.931   9.787  0.0244 -0.1927  0.0492
   28MOL0     C 3701   8.428   6.851   9.716  0.5575  0.1754 -0.7962
   28MOL0     C 3702   8.304   6.905   9.666  0.1515  0.3013 -1.2506
   28MOL0     O 3703   8.202   6.832   9.609  0.3169 -0.1237  0.0427
   28MOL0     C 3704   8.208   6.690   9.632  0.6452  0.0661 -0.0954
   28MOL0     C 3705   8.085   6.609   9.580 -0.3683  0.4309  0.1070
   28MOL0     C 3706   8.063   6.631   9.432  0.0354 -0.0520 -0.0985
   28MOL0     C 3707   7.945   6.538   9.399  0.4133 -0.4272  0.1574
   28MOL0     C 3708   7.941   6.524   9.251  0.4719  0.3268  1.1047
   28MOL0     C 3709   7.950   6.493   9.131  0.3039 -0.1589  0.0824
   28MOL0     C 3710   8.273   7.029   9.698 -0.1142 -0.1821  0.7006
   28MOL0     C 3711   8.363   7.111   9.771 -0.5893 -0.3501 -0.0418
   28MOL0     C 3712   8.325   7.255   9.786 -0.4544  0.0675 -0.5222
   28MOL0     H 3713   8.722   7.454   9.743 -0.5292  0.2531  0.2677
   28MOL0     H 3714   8.917   7.602   9.810  1.5202 -1.7443 -1.5423
   28MOL0     H 3715   9.075   7.718   9.888 -2.4012  3.6432 -0.3470
   28MOL0     H 3716   8.946   7.735  10.005  1.0955  1.0907  1.0186
   28MOL0     H 3717   9.107   7.736  10.187  1.0866 -1.4068 -0.4037
   28MOL0     H 3718   9.106   7.876  10.069  1.8866  1.2185 -0.6016
   28MOL0     H 3719   9.276   7.755   9.941  1.2402 -2.0486  0.0966
   28MOL0     H 3720   9.325   7.660  10.079 -0.2483 -0.0423 -1.0382
   28MOL0     H 3721   9.306   7.963  10.091 -1.1620 -0.5883  2.6661
   28MOL0     H 3722   9.395   7.849  10.204 -2.7640 -0.7331  0.3099
   28MOL0     H 3723   9.566   7.944  10.068 -1.1311  0.1109  1.0946
   28MOL0     H 3724   9.526   7.789  10.006 -0.3196 -0.0744 -0.8400
   28MOL0     H 3725   9.392   7.905   9.827  1.4190 -2.8356 -0.8938
   28MOL0     H 3726   9.423   8.059   9.904  0.7174  0.7457 -0.7331
   28MOL0     H 3727   9.560   7.980   9.698  1.4999 -1.8030 -0.1605
   28MOL0     H 3728   9.629   7.855   9.784  0.1661  0.1175  0.7249
   28MOL0     H 3729   9.736   8.036   9.950 -0.2202 -0.2222  0.5230
   28MOL0     H 3730   9.786   8.011   9.779 -1.4849 -1.2641 -0.7815
   28MOL0     H 3731   9.866   8.297   9.892  0.2157  0.2244  0.5782
   28MOL0     H 3732   9.676   8.597   9.734  1.3609  0.9057 -2.3073
   28MOL0     H 3733   9.764   8.547   9.878 -0.0841 -3.5906  0.4991
   28MOL0     H 3734   9.979   8.529   9.748 -0.7189 -1.0642 -1.0541
   28MOL0     H 3735   9.893   8.562   9.593 -1.1662 -0.8106 -0.9664
   28MOL0     H 3736   9.895   8.737   9.840 -2.4364 -1.2924  0.4711
   28MOL0     H 3737   9.829   8.788   9.685 -0.0853 -1.1906 -1.4859
   28MOL0     H 3738  10.024   8.888   9.720 -2.2343  0.9519 -2.6545
   28MOL0     H 3739  10.048   8.794   9.572  1.4877  0.6604  0.8515
   28MOL0     H 3740  10.380   8.608   9.698 -0.4239 -0.3015 -2.5923
   28MOL0     H 3741  10.607   8.717   9.642  0.5250  1.8185 -1.2486
   28MOL0     H 3742  10.835   9.221   9.514  1.8377 -1.2820  0.0113
   28MOL0     H 3743  11.048   9.326   9.552 -0.8996 -1.1592 -1.2727
   28MOL0     H 3744  11.289   9.206   9.629 -1.4263  0.4229 -1.0083
   28MOL0     H 3745  11.243   9.368   9.581  0.1993 -0.0505  0.4665
   28MOL0     H 3746  11.367   9.481   9.751 -1.9155  0.1637 -0.7402
   28MOL0     H 3747  11.435   9.327   9.797 -0.1669  1.1982  0.9831
   28MOL0     H 3748  11.538   9.288   9.581  0.4325 -0.2605  1.2143
   28MOL0     H 3749  11.464   9.435   9.506  0.6204  2.9943  1.2344
   28MOL0     H 3750  11.695   9.418   9.576 -0.5362 -0.6918  0.5105
   28MOL0     H 3751  11.650   9.453   9.753 -0.7453  0.9581  1.0576
   28MOL0     H 3752  11.521   9.649   9.687 -1.1173  0.7517 -0.8294
   28MOL0     H 3753  11.571   9.626   9.517 -1.0438  0.2091  0.5479
   28MOL0     H 3754  11.756   9.685   9.759 -2.6581  4.4968  0.2034
   28MOL0     H 3755  11.817   9.644   9.595 -0.7264  0.9377 -0.3389
   28MOL0     H 3756  11.665   9.886   9.662 -0.2061 -0.6197  0.7023
   28MOL0     H 3757  11.712   9.842   9.485 -0.9719  1.1812 -0.1877
   28MOL0     H 3758  11.940   9.851   9.666  0.6078  0.3926  0.4408
   28MOL0     H 3759  11.926   9.875   9.489 -0.9364 -1.1715  0.0331
   28MOL0     H 3760  11.025   9.194   9.970 -0.5474  0.9958  0.9909
   28MOL0     H 3761  10.783   9.119   9.931  1.7343 -0.3895  1.0015
   28MOL0     H 3762  10.427   9.104   9.720 -2.9080  0.9769  1.6255
   28MOL0     H 3763  10.201   9.005   9.735 -1.2480 -2.0442  1.1055
   28MOL0     H 3764   8.984   7.314  10.120 -2.0884  0.1183  0.7254
   28MOL0     H 3765   8.787   7.198  10.081  3.5106  0.8661  3.1062
   28MOL0     H 3766   8.605   6.878   9.827  0.2342  1.4523  1.9132
   28MOL0     H 3767   8.451   6.747   9.699 -1.7356 -0.3960 -0.6855
   28MOL0     H 3768   8.214   6.677   9.740  0.1799  1.7404  0.1717
   28MOL0     H 3769   8.303   6.645   9.604  2.1654  1.2604  2.6831
   28MOL0     H 3770   8.001   6.642   9.642  0.8208  0.1673  1.9471
   28MOL0     H 3771   8.102   6.503   9.602 -0.6713  0.2477 -0.5092
   28MOL0     H 3772   8.157   6.607   9.382  0.6143 -0.2291  1.0223
   28MOL0     H 3773   8.032   6.731   9.400  1.1801 -0.2306 -1.8976
   28MOL0     H 3774   7.960   6.440   9.445  0.8479  0.1902  1.3693
   28MOL0     H 3775   7.853   6.581   9.439  0.4676  0.1863 -0.3531
   28MOL0     H 3776   7.973   6.462   9.031  0.5506 -0.5440  0.2573
   28MOL0     H 3777   8.183   7.077   9.661  0.5263 -0.7611 -1.7978
   28MOL0     H 3778   8.391   7.314   9.721  0.6229 -1.9801 -1.3926
   28MOL0     H 3779   8.219   7.268   9.764 -1.2471 -2.5316  1.2621
   28MOL0     H 3780   8.336   7.286   9.891  1.2070 -0.9678 -0.3396
   29MOL0     O 3781   9.859   3.529   6.671 -0.1485  0.6287  0.1041
   29MOL0     C 3782   9.961   3.471   6.628  0.4682 -0.0867  0.7103
   29MOL0     O 3783   9.959   3.379   6.536 -0.2287 -0.7758 -0.3234
   29MOL0     C 3784   9.842   3.350   6.475  0.3320  0.3697  0.0821
   29MOL0     C 3785   9.791   3.221   6.478  0.7218  0.4869 -0.1901
   29MOL0     C 3786   9.668   3.183   6.436 -0.5674 -0.3641  0.3909
   29MOL0     C 3787   9.594   3.279   6.366  0.2963 -0.4951 -0.2414
   29MOL0     O 3788   9.471   3.258   6.318 -0.6233 -0.5637 -0.0426
   29MOL0     C 3789   9.407   3.137   6.363  0.0183  0.0847  0.9135
   29MOL0     C 3790   9.257   3.168   6.386 -0.8695 -0.8653  0.4240
   29MOL0     C 3791   9.184   3.210   6.260  0.0166 -0.9559 -0.0758
   29MOL0     C 3792   9.200   3.102   6.152 -0.1941 -0.1742 -0.7163
   29MOL0     C 3793   9.065   3.074   6.076 -0.5220 -0.6312  0.2272
   29MOL0     C 3794   8.966   3.005   6.164  0.1225 -0.6720 -0.0886
   29MOL0     C 3795   8.831   2.976   6.089 -0.3082  0.4446  0.3754
   29MOL0     C 3796   8.749   2.903   6.197  0.2947 -0.2768 -0.2030
   29MOL0     N 3797   8.621   2.879   6.130  0.4068  0.3409 -0.5629
   29MOL0     C 3798   8.588   2.774   6.049 -0.2350 -0.1352  0.6883
   29MOL0     C 3799   8.457   2.773   6.035  0.0069  0.1010  0.4802
   29MOL0     C 3800   8.363   2.681   5.957 -0.2917 -0.3287 -0.4005
   29MOL0     C 3801   8.385   2.697   5.804  1.0457  0.2569 -0.1103
   29MOL0     C 3802   8.298   2.592   5.718 -0.6287  0.0164 -0.0769
   29MOL0     C 3803   8.340   2.443   5.732 -0.2608 -0.5670  0.7583
   29MOL0     O 3804   8.456   2.420   5.648 -0.3281  0.7143 -0.1041
   29MOL0     C 3805   8.579   2.456   5.685 -0.9540 -0.5448 -0.3950
   29MOL0     C 3806   8.671   2.471   5.578  0.0938 -0.2372  0.3073
   29MOL0     C 3807   8.808   2.496   5.600  1.1504  0.6061 -0.0237
   29MOL0     C 3808   8.850   2.510   5.730 -0.4357 -0.4706 -0.8865
   29MOL0     C 3809   9.002   2.548   5.751  1.0932  0.5316  0.1255
   29MOL0     O 3810   9.047   2.546   5.881  0.2657 -0.5817 -0.0883
   29MOL0     C 3811   9.186   2.561   5.889  0.8127 -0.3469 -0.2981
   29MOL0     C 3812   9.241   2.678   5.953  0.4211  0.0093  0.3954
   29MOL0     C 3813   9.372   2.689   5.968 -0.0860  0.0705  0.1565
   29MOL0     C 3814   9.461   2.588   5.928  0.2168 -0.5231  0.6300
   29MOL0     O 3815   9.594   2.613   5.952  0.8023 -0.7648 -0.2358
   29MOL0     C 3816   9.698   2.563   5.871  0.4568  0.4182 -0.5514
   29MOL0     C 3817   9.785   2.456   5.939  0.7321 -0.0325  0.6026
   29MOL0     C 3818   9.901   2.512   6.019  0.4291  0.1661 -0.2959
   29MOL0     C 3819   9.975   2.402   6.100  0.0907 -0.0910  0.4124
   29MOL0     C 3820  10.104   2.447   6.175 -0.1722  0.5178  0.3830
   29MOL0     C 3821  10.224   2.454   6.076  0.5571  0.8256  0.3372
   29MOL0     C 3822  10.363   2.480   6.144  0.2987  0.1341  0.1676
   29MOL0     C 3823  10.474   2.471   6.044 -0.1993 -0.1051  0.5506
   29MOL0    Cl 3824  10.643   2.476   6.109 -0.0353  0.0302 -0.1819
   29MOL0     C 3825   9.414   2.470   5.874  0.0062 -0.2070  0.0354
   29MOL0     C 3826   9.276   2.458   5.857  0.9166  0.3941  0.0465
   29MOL0     O 3827   9.067   2.571   5.650 -0.0561 -0.2567 -0.5337
   29MOL0     C 3828   8.758   2.489   5.835 -0.5528 -0.2109  0.0923
   29MOL0     C 3829   8.626   2.461   5.811 -0.3792  0.0354  0.6525
   29MOL0     N 3830   8.405   2.873   6.112  0.4642  0.3118 -0.2257
   29MOL0     N 3831   8.502   2.944   6.161 -0.5427  0.7685  0.2074
   29MOL0     C 3832   9.647   3.410   6.347 -0.3803 -0.5263  0.3586
   29MOL0     C 3833   9.770   3.448   6.404  0.6655 -0.8603  0.3291
   29MOL0     C 3834  10.090   3.493   6.692  0.0321 -0.5411  0.3172
   29MOL0     C 3835  10.207   3.437   6.637 -0.2671 -0.1617  0.2710
   29MOL0     C 3836  10.332   3.438   6.694  0.1760 -0.4038 -0.5752
   29MOL0     C 3837  10.354   3.529   6.805  0.2865  0.4153 -0.1338
   29MOL0     O 3838  10.480   3.550   6.839  0.3961  0.1627 -0.2572
   29MOL0     C 3839  10.503   3.652   6.936 -0.3327  0.7185 -0.6494
   29MOL0     C 3840  10.655   3.646   6.968 -1.1345  0.7407  0.0926
   29MOL0     C 3841  10.754   3.580   6.863  0.2079 -0.2045 -0.1795
   29MOL0     C 3842  10.896   3.596   6.901  0.9260 -1.2392 -0.2463
   29MOL0     C 3843  10.996   3.571   6.795 -0.2990  0.1418 -0.4143
   29MOL0     C 3844  11.079   3.563   6.702 -0.0701  0.0122 -0.2099
   29MOL0     C 3845  10.246   3.588   6.861  0.2859  0.9991 -0.2867
   29MOL0     C 3846  10.113   3.577   6.802 -0.2695  0.3133  0.0896
   29MOL0     C 3847  10.007   3.652   6.871  0.5661  0.1125 -0.3458
   29MOL0     H 3848   9.847   3.144   6.531 -1.6723 -0.9715  0.4145
   29MOL0     H 3849   9.627   3.090   6.473 -3.1460 -0.1151 -1.5479
   29MOL0     H 3850   9.420   3.057   6.289  0.5344  0.0906  0.9938
   29MOL0     H 3851   9.437   3.105   6.463 -0.2381  1.4126  1.4274
   29MOL0     H 3852   9.247   3.244   6.464 -1.7111 -0.1019 -0.3996
   29MOL0     H 3853   9.225   3.076   6.434  1.6056 -1.5469  0.8673
   29MOL0     H 3854   9.229   3.303   6.223 -2.9931 -0.0129 -1.7302
   29MOL0     H 3855   9.079   3.230   6.287 -0.4231 -1.7912 -1.1188
   29MOL0     H 3856   9.273   3.136   6.078 -2.4227  0.5818 -2.6978
   29MOL0     H 3857   9.235   3.010   6.201  2.6102  1.2023  0.0717
   29MOL0     H 3858   9.015   3.165   6.039  1.6140  0.6284  0.2899
   29MOL0     H 3859   9.083   3.009   5.990  2.0921 -0.5959  0.6829
   29MOL0     H 3860   9.012   2.910   6.193 -0.8913 -1.7434 -1.8452
   29MOL0     H 3861   8.952   3.076   6.247  1.1591  0.5917 -0.9452
   29MOL0     H 3862   8.840   2.912   6.001  0.1298  0.0728  0.6899
   29MOL0     H 3863   8.786   3.067   6.048  1.4273  1.1966  0.0607
   29MOL0     H 3864   8.797   2.809   6.225  0.3353 -1.6574 -4.2100
   29MOL0     H 3865   8.741   2.977   6.277  0.2569 -0.7716  0.2516
   29MOL0     H 3866   8.648   2.698   6.000 -3.9757 -2.3273 -0.8890
   29MOL0     H 3867   8.382   2.576   5.981 -0.1451 -0.8332 -2.4927
   29MOL0     H 3868   8.262   2.715   5.983  1.2309  4.0255  0.5832
   29MOL0     H 3869   8.345   2.795   5.779  1.0204  0.8722  2.0791
   29MOL0     H 3870   8.492   2.698   5.779  1.6804  2.5278  2.2572
   29MOL0     H 3871   8.310   2.627   5.615  0.8163 -0.2664 -0.0221
   29MOL0     H 3872   8.192   2.590   5.747 -0.9546 -3.9214 -0.9643
   29MOL0     H 3873   8.255   2.386   5.693  0.1393 -1.9206  1.8275
   29MOL0     H 3874   8.356   2.418   5.837  1.3576  1.4876  1.0792
   29MOL0     H 3875   8.631   2.469   5.478 -0.1316 -4.3257  0.3142
   29MOL0     H 3876   8.868   2.517   5.512 -1.2959  0.7922 -1.7574
   29MOL0     H 3877   9.176   2.761   5.981  1.8449  0.7710  1.5759
   29MOL0     H 3878   9.420   2.778   6.008  0.8069 -0.5942  0.5978
   29MOL0     H 3879   9.651   2.511   5.788  1.2609 -1.4661  0.1338
   29MOL0     H 3880   9.764   2.649   5.855 -0.0722  0.8729 -0.3319
   29MOL0     H 3881   9.718   2.394   6.001 -0.7678  0.2430 -0.6786
   29MOL0     H 3882   9.821   2.396   5.856 -0.3652 -1.1510  0.8982
   29MOL0     H 3883   9.984   2.552   5.960 -0.0725  1.9374  0.1188
   29MOL0     H 3884   9.859   2.586   6.088 -0.6920 -0.6569 -0.0665
   29MOL0     H 3885  10.011   2.321   6.035  2.8283 -1.1039  2.9997
   29MOL0     H 3886   9.898   2.365   6.169 -2.3140  0.9419 -1.5361
   29MOL0     H 3887  10.119   2.370   6.251 -0.4620 -0.2248 -0.2899
   29MOL0     H 3888  10.099   2.550   6.210  0.5141  1.8224 -2.9055
   29MOL0     H 3889  10.219   2.369   6.008  1.3438  1.4729 -0.5638
   29MOL0     H 3890  10.204   2.536   6.007 -0.7545 -0.5677 -1.0073
   29MOL0     H 3891  10.380   2.406   6.223 -1.2821 -0.4004  0.0476
   29MOL0     H 3892  10.351   2.580   6.188  2.1881 -0.5268  2.3756
   29MOL0     H 3893  10.476   2.376   5.990 -0.0129 -1.2928  2.5333
   29MOL0     H 3894  10.466   2.554   5.973  2.7559 -0.2421 -0.0779
   29MOL0     H 3895   9.487   2.392   5.857 -1.1189 -0.8967 -1.9200
   29MOL0     H 3896   9.243   2.359   5.827 -0.3156  0.3668  1.4003
   29MOL0     H 3897   8.792   2.510   5.936  1.9294 -0.9176 -0.5312
   29MOL0     H 3898   8.557   2.451   5.894  1.6125  2.0229  2.6929
   29MOL0     H 3899   9.581   3.476   6.293 -2.6260 -3.2016 -0.3880
   29MOL0     H 3900   9.811   3.548   6.395  0.8062 -0.6690  2.4586
   29MOL0     H 3901  10.205   3.386   6.541 -0.8579  1.3086 -0.5338
   29MOL0     H 3902  10.412   3.375   6.657  0.3957 -0.1436 -0.5466
   29MOL0     H 3903  10.449   3.630   7.028  0.7703 -1.8541 -0.5539
   29MOL0     H 3904  10.484   3.753   6.897 -0.5339  0.8392 -0.2406
   29MOL0     H 3905  10.671   3.598   7.065  0.6982  1.7616  0.3365
   29MOL0     H 3906  10.692   3.748   6.977 -1.1875  0.5913  3.3947
   29MOL0     H 3907  10.736   3.617   6.761  0.8878  0.7069  0.0153
   29MOL0     H 3908  10.719   3.477   6.853 -1.2354  0.4236 -2.3639
   29MOL0     H 3909  10.902   3.701   6.930  1.0811 -1.3038 -0.0445
   29MOL0     H 3910  10.913   3.528   6.986 -2.5944 -1.2727  0.5670
   29MOL0     H 3911  11.147   3.541   6.622 -1.2626  0.0883 -1.2751
   29MOL0     H 3912  10.260   3.660   6.941  0.9172  0.1344  0.3936
   29MOL0     H 3913  10.046   3.692   6.965 -1.7951  0.7412  0.4297
   29MOL0     H 3914   9.973   3.723   6.796 -0.1520 -1.2088 -1.3100
   29MOL0     H 3915   9.918   3.592   6.894  2.1353 -2.0268  0.4545
   30MOL0     O 3916   0.658   7.925   1.527  0.2898 -0.7939 -1.0391
   30MOL0     C 3917   0.696   7.806   1.522  0.0731 -0.2519 -0.6513
   30MOL0     O 3918   0.828   7.774   1.523 -0.5178 -0.4825  0.5363
   30MOL0     C 3919   0.922   7.871   1.541 -0.4207  0.9851 -0.4637
   30MOL0     C 3920   0.961   7.892   1.678 -0.3468 -0.3095 -0.2658
   30MOL0     C 3921   1.070   7.987   1.703 -0.3511 -0.6312 -0.2245
   30MOL0     C 3922   1.128   8.058   1.603 -0.3619  0.5874 -0.2219
   30MOL0     O 3923   1.222   8.146   1.649  0.6187 -0.3879  0.0393
   30MOL0     C 3924   1.256   8.257   1.562  0.4104  0.5205 -0.0502
   30MOL0     C 3925   1.331   8.365   1.647 -0.2269  0.6085  0.4216
   30MOL0     C 3926   1.459   8.309   1.709 -0.0971  0.1005 -0.4376
   30MOL0     C 3927   1.582   8.410   1.715 -0.0462  0.5267  0.2235
   30MOL0     C 3928   1.709   8.325   1.745 -0.1107 -1.2082  0.2870
   30MOL0     C 3929   1.824   8.407   1.811 -1.2592 -0.1379  0.3463
   30MOL0     C 3930   1.952   8.305   1.805 -0.0771  0.5000 -0.5046
   30MOL0     C 3931   2.041   8.300   1.670 -0.5117  0.1729 -0.0815
   30MOL0     N 3932   1.992   8.203   1.565  0.3223 -0.1423 -0.2901
   30MOL0     C 3933   1.955   8.070   1.593  0.0454  0.4819 -0.5410
   30MOL0     C 3934   1.984   8.001   1.479  0.1898 -0.5696 -0.7010
   30MOL0     C 3935   1.966   7.852   1.461 -0.5559 -0.0939  0.1853
   30MOL0     C 3936   2.107   7.786   1.416  0.2498 -0.1712  0.3655
   30MOL0     C 3937   2.086   7.662   1.329 -0.1108  0.2892 -0.1259
   30MOL0     C 3938   2.066   7.541   1.417 -0.0252 -0.0494 -0.9185
   30MOL0     O 3939   2.078   7.414   1.343  0.4480  0.0355 -0.2144
   30MOL0     C 3940   2.206   7.374   1.307  0.2272 -0.7367  0.1661
   30MOL0     C 3941   2.216   7.298   1.188  0.3354 -0.5595 -0.3145
   30MOL0     C 3942   2.340   7.267   1.126 -0.2355  0.7151 -1.1628
   30MOL0     C 3943   2.464   7.302   1.193 -0.2738  0.3796 -0.0401
   30MOL0     C 3944   2.591   7.276   1.129 -0.2612 -0.1457 -1.0625
   30MOL0     O 3945   2.700   7.306   1.202 -0.5435  0.2680  0.5684
   30MOL0     C 3946   2.824   7.305   1.155 -0.1889  0.4195  0.7803
   30MOL0     C 3947   2.889   7.410   1.097 -0.0294  0.6612  0.2605
   30MOL0     C 3948   3.028   7.399   1.071  0.0094  0.2963 -0.3891
   30MOL0     C 3949   3.102   7.289   1.105 -0.8395 -0.6302  1.4260
   30MOL0     O 3950   3.238   7.290   1.091 -0.0184  0.2298  0.6160
   30MOL0     C 3951   3.289   7.306   0.964 -0.1778  0.3175  0.3478
   30MOL0     C 3952   3.445   7.333   0.962 -0.4278 -0.0132 -0.3466
   30MOL0     C 3953   3.526   7.229   1.034 -0.7602  0.2055  0.2409
   30MOL0     C 3954   3.670   7.219   0.981 -0.2611  0.5126  0.2458
   30MOL0     C 3955   3.753   7.115   1.059 -0.4338 -0.4065  0.2358
   30MOL0     C 3956   3.891   7.110   0.982 -1.0544  0.0105 -0.4088
   30MOL0     C 3957   3.995   7.008   1.039  0.6977  0.6054  0.3423
   30MOL0     C 3958   3.969   6.866   0.987 -0.6795  0.5459  0.1574
   30MOL0    Cl 3959   4.099   6.758   1.050 -0.5812  0.0756  0.0211
   30MOL0     C 3960   3.038   7.178   1.142 -0.1196 -0.5680 -1.0975
   30MOL0     C 3961   2.909   7.187   1.187  0.0881  0.0883  1.2540
   30MOL0     O 3962   2.591   7.238   1.018 -0.0191  0.3800  0.0529
   30MOL0     C 3963   2.453   7.369   1.315 -0.3197 -0.2411 -0.2719
   30MOL0     C 3964   2.329   7.402   1.376 -0.8358  0.4203 -0.1348
   30MOL0     N 3965   2.035   8.092   1.384  0.8346  0.4168 -0.7707
   30MOL0     N 3966   2.040   8.213   1.446  0.5806  0.3272  0.3676
   30MOL0     C 3967   1.096   8.033   1.470  0.2612 -0.0024  1.3027
   30MOL0     C 3968   0.991   7.939   1.446  0.3202 -0.1037  0.9174
   30MOL0     C 3969   0.610   7.683   1.521  0.5542 -0.0824  0.7310
   30MOL0     C 3970   0.677   7.561   1.531 -0.1457  0.0765  0.5838
   30MOL0     C 3971   0.611   7.434   1.527 -0.3304 -0.4197 -0.9124
   30MOL0     C 3972   0.472   7.430   1.525  0.6068  1.1416  0.0716
   30MOL0     O 3973   0.405   7.311   1.537 -0.5785  0.4649 -0.3219
   30MOL0     C 3974   0.486   7.188   1.534 -0.0438 -0.6642 -0.0270
   30MOL0     C 3975   0.542   7.166   1.391 -0.3013 -0.7175  0.3739
   30MOL0     C 3976   0.686   7.115   1.382  0.5123  0.0667  0.6516
   30MOL0     C 3977   0.709   6.965   1.407  0.1982  0.4521  0.6879
   30MOL0     C 3978   0.645   6.913   1.525  0.0851 -0.6614 -0.0914
   30MOL0     C 3979   0.594   6.863   1.625  0.5319  0.7279  0.1065
   30MOL0     C 3980   0.407   7.558   1.514 -0.2106  0.2111  0.4560
   30MOL0     C 3981   0.470   7.682   1.516  0.7716  0.4566 -0.8049
   30MOL0     C 3982   0.391   7.811   1.520  0.7096 -0.6572  0.1589
   30MOL0     H 3983   0.924   7.820   1.750  2.5351 -3.3256 -1.5272
   30MOL0     H 3984   1.115   7.993   1.802  1.3215 -1.6283 -0.8871
   30MOL0     H 3985   1.334   8.228   1.492 -0.4626  3.7748 -2.6685
   30MOL0     H 3986   1.164   8.308   1.529  0.8281  1.4071  0.1190
   30MOL0     H 3987   1.273   8.407   1.729  1.2530  0.8588  1.3782
   30MOL0     H 3988   1.356   8.444   1.575  2.0162  1.1625  1.7192
   30MOL0     H 3989   1.484   8.219   1.653  0.8671 -0.3278  0.6407
   30MOL0     H 3990   1.433   8.275   1.809  1.0532 -0.1454 -0.2006
   30MOL0     H 3991   1.588   8.471   1.623  2.2774 -0.5688 -0.4242
   30MOL0     H 3992   1.573   8.493   1.786 -1.1893 -0.6440  1.4850
   30MOL0     H 3993   1.683   8.244   1.814 -0.2790  0.4702  2.3069
   30MOL0     H 3994   1.744   8.290   1.648  1.2950  1.0515 -0.0959
   30MOL0     H 3995   1.849   8.494   1.751  0.1284 -1.3194 -0.8676
   30MOL0     H 3996   1.782   8.434   1.909 -1.7706 -1.1703  0.4381
   30MOL0     H 3997   1.933   8.201   1.830  0.2096 -0.1882 -2.8824
   30MOL0     H 3998   2.022   8.352   1.876 -0.6772  1.9521 -0.8302
   30MOL0     H 3999   2.042   8.395   1.615  2.1342 -0.3357 -1.0525
   30MOL0     H 4000   2.148   8.282   1.680 -0.6792 -0.6294  0.3178
   30MOL0     H 4001   1.912   8.037   1.687  0.6137  2.2545  0.3858
   30MOL0     H 4002   1.935   7.808   1.557  0.7924 -2.2390 -0.3058
   30MOL0     H 4003   1.890   7.832   1.385 -0.9302  0.3955  0.4210
   30MOL0     H 4004   2.149   7.853   1.341 -1.5629  0.6319  0.0328
   30MOL0     H 4005   2.174   7.745   1.493 -0.1587 -0.4523  0.5779
   30MOL0     H 4006   2.175   7.646   1.268 -0.9013 -1.8568 -0.8307
   30MOL0     H 4007   2.000   7.668   1.261  0.7126 -2.0619 -1.4880
   30MOL0     H 4008   1.961   7.541   1.449  0.3497 -2.0377  0.5251
   30MOL0     H 4009   2.136   7.542   1.501 -0.4650 -1.6560 -0.5023
   30MOL0     H 4010   2.125   7.283   1.131 -0.1725  1.9332 -0.2559
   30MOL0     H 4011   2.337   7.215   1.030 -0.4138 -2.8361  0.6264
   30MOL0     H 4012   2.836   7.505   1.094 -3.4864 -0.9394  2.7243
   30MOL0     H 4013   3.075   7.489   1.033  1.6866 -0.1356  0.5539
   30MOL0     H 4014   3.279   7.216   0.903  0.7576 -0.8569  1.8260
   30MOL0     H 4015   3.244   7.390   0.912 -0.4014 -1.5264 -2.6370
   30MOL0     H 4016   3.480   7.349   0.859 -0.1814  0.8272 -0.1387
   30MOL0     H 4017   3.459   7.421   1.025 -1.2106 -0.3056  0.2389
   30MOL0     H 4018   3.528   7.251   1.141  2.8556 -3.4268  1.1885
   30MOL0     H 4019   3.476   7.132   1.036 -0.8774  0.2728  2.1816
   30MOL0     H 4020   3.715   7.319   0.982 -1.0482  0.9865 -2.5893
   30MOL0     H 4021   3.667   7.205   0.873 -1.6483  0.4240  0.2754
   30MOL0     H 4022   3.703   7.018   1.058 -2.5358  0.5932 -0.9676
   30MOL0     H 4023   3.754   7.146   1.163 -1.8164 -0.0408  0.1697
   30MOL0     H 4024   3.875   7.076   0.879 -0.8981  0.6099 -0.6339
   30MOL0     H 4025   3.943   7.206   0.986 -0.2385 -0.4241  3.9450
   30MOL0     H 4026   3.980   7.005   1.147 -2.0545 -0.9805  0.0155
   30MOL0     H 4027   4.098   7.040   1.020  0.6387  0.5189 -0.1271
   30MOL0     H 4028   3.873   6.829   1.025  1.7825 -2.9652  3.8157
   30MOL0     H 4029   3.985   6.861   0.879 -0.3225 -1.6328  0.2839
   30MOL0     H 4030   3.100   7.097   1.177 -2.6403 -2.5809 -1.0415
   30MOL0     H 4031   2.876   7.100   1.243  1.3100 -0.3913  1.2633
   30MOL0     H 4032   2.543   7.385   1.373 -1.5616  2.2330  1.1426
   30MOL0     H 4033   2.324   7.469   1.461 -0.1612  1.0382 -0.5713
   30MOL0     H 4034   1.139   8.077   1.380 -0.5852 -0.8958  0.4246
   30MOL0     H 4035   0.952   7.931   1.345 -1.9926  3.1911  1.3741
   30MOL0     H 4036   0.785   7.548   1.527 -0.3433 -1.5819 -2.7101
   30MOL0     H 4037   0.684   7.356   1.547 -1.2848 -0.9096  0.8151
   30MOL0     H 4038   0.421   7.107   1.567  0.9723 -1.3142  0.4399
   30MOL0     H 4039   0.568   7.188   1.607  0.7593 -1.9255 -0.8848
   30MOL0     H 4040   0.540   7.263   1.340 -3.2958  0.8309  3.1172
   30MOL0     H 4041   0.485   7.099   1.326 -2.3179  1.5179 -0.3246
   30MOL0     H 4042   0.755   7.157   1.456  3.5453 -0.0627 -1.9084
   30MOL0     H 4043   0.716   7.139   1.280 -1.6840  3.8343  0.6953
   30MOL0     H 4044   0.648   6.912   1.334  2.2046 -2.0216  0.6703
   30MOL0     H 4045   0.814   6.938   1.394  0.1223  0.3252  0.3310
   30MOL0     H 4046   0.566   6.793   1.702  1.4012 -0.0903 -0.3067
   30MOL0     H 4047   0.299   7.556   1.526 -0.0525 -0.6693  2.0044
   30MOL0     H 4048   0.285   7.794   1.541  1.0453 -4.0227 -0.2983
   30MOL0     H 4049   0.426   7.886   1.592 -2.5349  1.1712 -0.0165
   30MOL0     H 4050   0.406   7.857   1.422  0.9014  1.3459  1.0764
   31MOL0     O 4051   0.263   5.318   4.307 -0.1793 -0.0320 -0.1519
   31MOL0     C 4052   0.316   5.430   4.328  1.1904  0.8422  0.1922
   31MOL0     O 4053   0.266   5.553   4.279 -0.3792  0.4943  0.1049
   31MOL0     C 4054   0.161   5.561   4.193 -0.1727  0.2500 -0.3312
   31MOL0     C 4055   0.033   5.561   4.245  0.0167 -0.0330 -0.0749
   31MOL0     C 4056  -0.078   5.591   4.166 -0.2177  0.0303 -0.3080
   31MOL0     C 4057  -0.066   5.595   4.034 -0.2288 -0.3856  0.3318
   31MOL0     O 4058  -0.163   5.625   3.947  0.0936  0.3322  0.0570
   31MOL0     C 4059  -0.258   5.518   3.943  0.5525  0.1156  0.6483
   31MOL0     C 4060  -0.349   5.524   3.815 -0.4380 -0.2412  0.1932
   31MOL0     C 4061  -0.253   5.529   3.691  0.1514 -0.2482 -0.0102
   31MOL0     C 4062  -0.191   5.392   3.666  1.5007 -0.4240  0.7267
   31MOL0     C 4063  -0.135   5.386   3.520  0.1320  0.6272 -0.3849
   31MOL0     C 4064  -0.015   5.471   3.489  0.0606  0.1305  0.7108
   31MOL0     C 4065   0.028   5.456   3.336  0.1093  0.0915 -0.3283
   31MOL0     C 4066   0.113   5.325   3.305 -0.5726  0.0425 -0.8050
   31MOL0     N 4067   0.170   5.314   3.165 -1.1466  0.6191 -0.2625
   31MOL0     C 4068   0.303   5.320   3.127  0.1633 -1.1763 -0.4241
   31MOL0     C 4069   0.311   5.368   3.002  0.2251  0.2622 -0.4761
   31MOL0     C 4070   0.434   5.403   2.936 -0.2399 -0.2534  0.4868
   31MOL0     C 4071   0.516   5.277   2.905 -0.1808  0.2700  0.0918
   31MOL0     C 4072   0.647   5.304   2.821  0.6018  0.3795  0.3251
   31MOL0     C 4073   0.754   5.199   2.836  0.7709  0.2248 -0.3337
   31MOL0     O 4074   0.852   5.232   2.735 -1.0686 -0.1062 -0.2166
   31MOL0     C 4075   0.968   5.164   2.724 -0.9008 -0.1374  0.0245
   31MOL0     C 4076   1.054   5.202   2.625 -0.5937 -0.4867  0.5590
   31MOL0     C 4077   1.178   5.150   2.613 -0.7849  0.2071  0.2500
   31MOL0     C 4078   1.208   5.038   2.696 -0.4635  0.0432  0.7834
   31MOL0     C 4079   1.335   4.966   2.683 -0.1415 -0.5525 -0.1250
   31MOL0     O 4080   1.421   5.025   2.594  0.2178 -0.3248 -1.1539
   31MOL0     C 4081   1.550   4.984   2.581  0.6567 -0.1700  1.0485
   31MOL0     C 4082   1.591   4.847   2.601  0.4493 -0.0589  0.3739
   31MOL0     C 4083   1.713   4.808   2.572 -0.0706 -0.9065  0.1031
   31MOL0     C 4084   1.814   4.899   2.526 -0.2239  0.8461  0.2225
   31MOL0     O 4085   1.945   4.859   2.511 -0.2568 -0.8212 -0.0757
   31MOL0     C 4086   2.033   4.955   2.455 -0.6018  0.3704 -0.0970
   31MOL0     C 4087   2.160   4.897   2.400  0.3271 -0.2109 -0.0142
   31MOL0     C 4088   2.271   4.987   2.424 -0.3092  0.1863  0.4638
   31MOL0     C 4089   2.418   4.928   2.396 -0.2779  0.3636 -0.4011
   31MOL0     C 4090   2.530   5.016   2.457 -0.3183  0.2271  0.0557
   31MOL0     C 4091   2.664   4.972   2.394  0.5284  0.9913  0.0053
   31MOL0     C 4092   2.777   5.035   2.491 -0.0140  0.5623  0.7497
   31MOL0     C 4093   2.913   5.019   2.415  0.1347  0.0154  0.2464
   31MOL0    Cl 4094   2.914   5.139   2.282 -0.1910  0.1635  0.2161
   31MOL0     C 4095   1.778   5.035   2.507  0.3418 -0.5902 -0.3210
   31MOL0     C 4096   1.646   5.076   2.544  0.6788  0.5258 -0.0762
   31MOL0     O 4097   1.368   4.877   2.763  0.2186 -0.6002  0.1508
   31MOL0     C 4098   1.110   4.983   2.781  0.8663 -0.0694  0.4645
   31MOL0     C 4099   0.995   5.052   2.808 -0.1155 -0.5483 -0.9689
   31MOL0     N 4100   0.185   5.359   2.947  0.8511  0.0483 -0.0015
   31MOL0     N 4101   0.100   5.320   3.045  0.2537  0.2252  0.8204
   31MOL0     C 4102   0.061   5.591   3.974  0.3987  0.4311  0.2969
   31MOL0     C 4103   0.174   5.580   4.054 -0.1573 -0.0080  0.7458
   31MOL0     C 4104   0.432   5.438   4.420  0.2483  0.4375 -0.2294
   31MOL0     C 4105   0.453   5.565   4.484  0.2126  0.0579 -0.1814
   31MOL0     C 4106   0.564   5.586   4.558 -0.5217  0.3078 -0.0653
   31MOL0     C 4107   0.669   5.499   4.559 -0.3069 -0.8389 -0.2748
   31MOL0     O 4108   0.778   5.542   4.631 -0.2260 -0.8134  0.0375
   31MOL0     C 4109   0.892   5.449   4.632  0.1338  0.0591 -0.1873
   31MOL0     C 4110   1.015   5.528   4.678 -0.5889  0.9207 -0.0037
   31MOL0     C 4111   1.046   5.640   4.577 -0.5870  0.6246 -0.1398
   31MOL0     C 4112   1.193   5.680   4.600  0.1289 -0.0364  0.2237
   31MOL0     C 4113   1.213   5.800   4.513  0.0858 -0.1924  0.5089
   31MOL0     C 4114   1.223   5.907   4.459 -0.6075  0.5017  0.5071
   31MOL0     C 4115   0.649   5.374   4.500  0.5802 -0.2801  0.7532
   31MOL0     C 4116   0.537   5.344   4.421 -0.0811 -0.2382  0.2962
   31MOL0     C 4117   0.536   5.217   4.343 -0.4878 -0.9766 -0.5864
   31MOL0     H 4118   0.021   5.554   4.352  1.0034 -2.0902 -0.0508
   31MOL0     H 4119  -0.177   5.594   4.209  1.0993  2.8740  3.1349
   31MOL0     H 4120  -0.201   5.425   3.955  1.6795  0.4768 -1.4994
   31MOL0     H 4121  -0.328   5.513   4.027  0.8227  1.1128  0.9483
   31MOL0     H 4122  -0.416   5.610   3.821 -0.8883 -0.6879  3.9610
   31MOL0     H 4123  -0.409   5.432   3.810  2.2914 -2.1824  0.7660
   31MOL0     H 4124  -0.188   5.617   3.696  0.4461 -0.3840 -1.1569
   31MOL0     H 4125  -0.320   5.543   3.605 -0.4746 -3.6945 -0.2181
   31MOL0     H 4126  -0.142   5.347   3.752 -0.4757  1.5254  3.0122
   31MOL0     H 4127  -0.283   5.333   3.665  0.0392  1.5992  3.6691
   31MOL0     H 4128  -0.109   5.284   3.494 -1.7001 -0.9385  3.2055
   31MOL0     H 4129  -0.224   5.419   3.465  1.5733  0.6171 -2.8305
   31MOL0     H 4130  -0.053   5.573   3.498 -0.8280 -0.0866 -0.3528
   31MOL0     H 4131   0.068   5.450   3.557 -0.8984 -0.5114  1.7155
   31MOL0     H 4132   0.105   5.530   3.310  4.3981 -4.5625 -2.5844
   31MOL0     H 4133  -0.057   5.453   3.267  0.6750  0.9354 -1.0805
   31MOL0     H 4134   0.202   5.331   3.368  0.7675 -4.2941 -1.9324
   31MOL0     H 4135   0.071   5.228   3.336  1.5348  0.0868  2.6841
   31MOL0     H 4136   0.380   5.314   3.203  0.2140  0.5580 -0.2966
   31MOL0     H 4137   0.399   5.448   2.843 -2.9272  1.2011  2.0687
   31MOL0     H 4138   0.500   5.476   2.983  0.9469 -0.1911 -1.2026
   31MOL0     H 4139   0.548   5.232   3.000  2.7227  2.6470  0.3762
   31MOL0     H 4140   0.437   5.220   2.856 -1.9478 -2.2024  5.0792
   31MOL0     H 4141   0.689   5.399   2.856 -1.1419  1.5528 -0.6015
   31MOL0     H 4142   0.612   5.312   2.718 -2.2328 -1.6962  1.0123
   31MOL0     H 4143   0.713   5.099   2.818 -0.7034  0.7805 -0.2473
   31MOL0     H 4144   0.804   5.204   2.932  0.5506 -0.8690 -0.1545
   31MOL0     H 4145   1.014   5.280   2.561 -0.7106 -3.3022 -3.1819
   31MOL0     H 4146   1.248   5.190   2.540 -4.2635  2.7092 -2.0826
   31MOL0     H 4147   1.521   4.772   2.637 -1.1256  0.7762 -0.7817
   31MOL0     H 4148   1.733   4.701   2.572 -2.1962 -1.3447 -1.3254
   31MOL0     H 4149   1.999   5.010   2.366  2.1295 -0.5731 -1.8669
   31MOL0     H 4150   2.051   5.024   2.538 -1.2057  0.0294  0.3212
   31MOL0     H 4151   2.183   4.797   2.439  0.0795 -0.2187  0.1143
   31MOL0     H 4152   2.154   4.890   2.291 -2.1794  0.0866  0.0534
   31MOL0     H 4153   2.250   5.086   2.383  1.1371  1.2949  2.2644
   31MOL0     H 4154   2.280   5.014   2.530  0.5325  2.0263 -0.0360
   31MOL0     H 4155   2.432   4.941   2.288 -0.6594  2.4477 -0.2437
   31MOL0     H 4156   2.417   4.826   2.435  0.8157  0.8570  0.9927
   31MOL0     H 4157   2.525   5.013   2.567  0.8926  1.7723  0.1846
   31MOL0     H 4158   2.502   5.120   2.441  3.8376  1.9888  2.5126
   31MOL0     H 4159   2.668   4.862   2.392  1.3728  1.0248 -2.3844
   31MOL0     H 4160   2.679   5.005   2.291  3.7063  3.0991  0.9840
   31MOL0     H 4161   2.782   4.982   2.587  2.8946  2.0576  1.5351
   31MOL0     H 4162   2.762   5.139   2.521  2.8947  1.3800 -0.2999
   31MOL0     H 4163   2.994   5.032   2.487  0.0014 -2.2951  0.8894
   31MOL0     H 4164   2.934   4.917   2.383  2.9425  1.0629 -1.6111
   31MOL0     H 4165   1.836   5.124   2.483 -1.7575  1.0300  0.3084
   31MOL0     H 4166   1.612   5.178   2.532 -0.8358  0.1306  0.6622
   31MOL0     H 4167   1.114   4.894   2.842 -0.2922 -0.3139  0.1961
   31MOL0     H 4168   0.924   5.013   2.880 -0.6377  0.5789 -0.8511
   31MOL0     H 4169   0.067   5.605   3.866 -1.5934  1.4902  0.2614
   31MOL0     H 4170   0.271   5.579   4.005 -1.0377 -2.8897 -1.1506
   31MOL0     H 4171   0.368   5.632   4.473 -0.1794 -0.1544  1.3813
   31MOL0     H 4172   0.568   5.682   4.608  1.6908  0.0664  0.3288
   31MOL0     H 4173   0.922   5.403   4.538  1.0168 -2.9779  1.4424
   31MOL0     H 4174   0.884   5.363   4.699 -0.1691 -1.0056 -1.5554
   31MOL0     H 4175   1.103   5.465   4.689  0.1086  2.0566  1.1935
   31MOL0     H 4176   0.990   5.576   4.774 -3.2038  2.2327 -1.2253
   31MOL0     H 4177   0.978   5.725   4.582 -0.0903  1.2638 -2.9649
   31MOL0     H 4178   1.030   5.600   4.477  1.6696 -0.7500 -0.0387
   31MOL0     H 4179   1.216   5.714   4.701 -0.2740  2.3190 -0.4052
   31MOL0     H 4180   1.259   5.598   4.573 -0.7837 -0.0271 -2.3916
   31MOL0     H 4181   1.231   6.000   4.408  2.0188  1.2460  2.0532
   31MOL0     H 4182   0.732   5.304   4.502  0.5927 -0.2533  1.3556
   31MOL0     H 4183   0.496   5.232   4.242  2.0626 -0.2430 -1.5809
   31MOL0     H 4184   0.637   5.177   4.330 -0.3483 -1.0387  0.5559
   31MOL0     H 4185   0.475   5.139   4.389 -2.3930 -0.8760 -2.7722
   32MOL0     O 4186   3.656   6.539   3.320  0.3357 -0.0121  0.7295
   32MOL0     C 4187   3.628   6.554   3.433  0.7088  0.6261 -0.4508
   32MOL0     O 4188   3.712   6.568   3.541  0.4732 -0.3910  0.4960
   32MOL0     C 4189   3.846   6.541   3.549 -0.1262  0.3841  0.0797
   32MOL0     C 4190   3.919   6.575   3.664 -0.5578  0.3465 -0.0367
   32MOL0     C 4191   4.055   6.540   3.676 -0.2256  0.0126 -0.3391
   32MOL0     C 4192   4.117   6.462   3.581 -0.0813  0.9950  0.6362
   32MOL0     O 4193   4.244   6.418   3.590 -1.1182  0.4962 -0.1107
   32MOL0     C 4194   4.290   6.381   3.723  0.2078  0.1825  0.1737
   32MOL0     C 4195   4.440   6.362   3.700  0.6223 -0.1232  0.0250
   32MOL0     C 4196   4.523   6.318   3.832 -0.0280 -0.0466  0.2167
   32MOL0     C 4197   4.546   6.437   3.928  0.0435 -0.6862  0.4291
   32MOL0     C 4198   4.668   6.402   4.018  0.7083  0.8113  0.7558
   32MOL0     C 4199   4.684   6.505   4.125  0.9685 -0.1296  0.3599
   32MOL0     C 4200   4.597   6.470   4.249 -0.3362  0.3896 -0.1149
   32MOL0     C 4201   4.654   6.352   4.336 -1.1290 -0.7983 -0.0778
   32MOL0     N 4202   4.798   6.370   4.381  0.3317 -0.2470 -0.4122
   32MOL0     C 4203   4.859   6.480   4.423  0.4136  0.3340 -0.3695
   32MOL0     C 4204   4.989   6.465   4.393  0.0336 -0.7574  0.7269
   32MOL0     C 4205   5.090   6.574   4.396  0.3745 -0.0557  0.1241
   32MOL0     C 4206   5.202   6.561   4.500  0.1311  0.1543 -0.0199
   32MOL0     C 4207   5.303   6.663   4.457  1.0905  0.0546 -0.3023
   32MOL0     C 4208   5.406   6.679   4.563  1.2116 -0.6761  0.5504
   32MOL0     O 4209   5.518   6.757   4.509 -0.1758  0.8020 -0.8457
   32MOL0     C 4210   5.519   6.882   4.563 -0.1455  0.2153 -0.3524
   32MOL0     C 4211   5.588   6.908   4.683 -0.5035 -0.2685  0.0582
   32MOL0     C 4212   5.610   7.040   4.728 -0.4632 -0.2094  0.5893
   32MOL0     C 4213   5.566   7.146   4.652 -0.6065 -0.0105 -0.2029
   32MOL0     C 4214   5.595   7.281   4.708 -0.2321 -0.4776 -0.6566
   32MOL0     O 4215   5.595   7.382   4.611 -0.1776  0.1061  0.1753
   32MOL0     C 4216   5.602   7.513   4.646  0.5090  0.2537  0.7590
   32MOL0     C 4217   5.720   7.589   4.654 -0.0095 -0.0290 -0.3382
   32MOL0     C 4218   5.721   7.725   4.690  0.0826  1.1178  0.9785
   32MOL0     C 4219   5.599   7.795   4.696  0.3306 -0.1198  0.1655
   32MOL0     O 4220   5.574   7.923   4.720  0.7912  0.1400 -0.9279
   32MOL0     C 4221   5.686   7.995   4.771 -0.3162 -0.8558 -0.2530
   32MOL0     C 4222   5.631   8.132   4.808 -0.9178 -0.2212 -0.5016
   32MOL0     C 4223   5.584   8.121   4.960  0.0166  0.2647 -0.0948
   32MOL0     C 4224   5.480   8.229   4.988 -0.0127 -0.0402 -0.7885
   32MOL0     C 4225   5.337   8.183   4.972 -0.5207 -0.0222  0.4021
   32MOL0     C 4226   5.298   8.093   5.089  0.4996 -0.0365 -0.7141
   32MOL0     C 4227   5.147   8.087   5.095 -0.2683 -0.3627 -0.3774
   32MOL0     C 4228   5.080   8.014   4.978 -0.1096  0.4150 -0.7422
   32MOL0    Cl 4229   5.170   7.861   4.948  0.3230 -0.4152  0.1661
   32MOL0     C 4230   5.484   7.726   4.680 -0.8889  0.8777  0.4194
   32MOL0     C 4231   5.481   7.585   4.652 -0.0602 -0.0289 -0.6829
   32MOL0     O 4232   5.614   7.308   4.830  0.3155  0.0386 -0.0509
   32MOL0     C 4233   5.506   7.128   4.526  0.3768 -0.0124  0.0085
   32MOL0     C 4234   5.480   6.996   4.480  0.8811  0.3093 -0.4412
   32MOL0     N 4235   5.007   6.337   4.340 -0.5282 -0.4234  0.6837
   32MOL0     N 4236   4.890   6.285   4.325  0.3936 -0.1389  0.3662
   32MOL0     C 4237   4.051   6.438   3.464 -0.0325  0.2945 -0.4848
   32MOL0     C 4238   3.912   6.465   3.443  0.0515 -0.3160  0.3690
   32MOL0     C 4239   3.473   6.557   3.465 -0.3510  0.2068 -0.0626
   32MOL0     C 4240   3.385   6.543   3.358 -0.6664 -0.8476 -0.0849
   32MOL0     C 4241   3.247   6.533   3.383 -0.4027  0.2339 -0.3179
   32MOL0     C 4242   3.203   6.537   3.522  0.2958 -0.7861 -0.5989
   32MOL0     O 4243   3.074   6.502   3.565  0.0028 -0.5625 -1.0074
   32MOL0     C 4244   2.977   6.486   3.464  0.0760 -0.9236 -0.4704
   32MOL0     C 4245   2.860   6.434   3.543  0.1116 -0.3832 -0.5033
   32MOL0     C 4246   2.736   6.444   3.455 -0.8428  0.6077  0.5633
   32MOL0     C 4247   2.611   6.391   3.519  0.5637 -0.0376  0.2282
   32MOL0     C 4248   2.558   6.463   3.633  1.1548 -0.5867  0.1518
   32MOL0     C 4249   2.512   6.534   3.721  0.9848  0.1293  0.1031
   32MOL0     C 4250   3.293   6.556   3.619 -0.1247 -0.4662 -0.9507
   32MOL0     C 4251   3.428   6.569   3.605  0.9640 -0.0364  0.9744
   32MOL0     C 4252   3.514   6.582   3.724 -0.8176 -0.2791 -0.3639
   32MOL0     H 4253   3.858   6.617   3.743 -3.6137 -1.1280 -1.4443
   32MOL0     H 4254   4.107   6.590   3.757  0.6318 -2.5014  0.7598
   32MOL0     H 4255   4.285   6.459   3.800  2.7426  0.5189  0.0743
   32MOL0     H 4256   4.231   6.295   3.756 -2.3184  1.5349 -0.5266
   32MOL0     H 4257   4.485   6.457   3.672 -2.4485  1.6123  0.5961
   32MOL0     H 4258   4.448   6.291   3.617 -1.0295  1.3193 -1.4220
   32MOL0     H 4259   4.618   6.275   3.799 -0.9933 -1.0016 -1.4240
   32MOL0     H 4260   4.472   6.245   3.894 -4.1621  2.6865  0.4341
   32MOL0     H 4261   4.565   6.528   3.868 -1.6324 -0.8006 -0.3232
   32MOL0     H 4262   4.449   6.458   3.975 -0.6989  0.8180 -1.5967
   32MOL0     H 4263   4.675   6.295   4.040 -0.3182  0.3539 -0.9762
   32MOL0     H 4264   4.759   6.408   3.957  0.3103 -1.2874 -0.1044
   32MOL0     H 4265   4.790   6.512   4.151  1.4869 -3.5757 -0.3003
   32MOL0     H 4266   4.651   6.601   4.086 -1.2104 -1.8656 -2.4579
   32MOL0     H 4267   4.492   6.443   4.238 -0.8865  1.5008  1.9360
   32MOL0     H 4268   4.602   6.554   4.318 -1.3611  0.2896  0.0927
   32MOL0     H 4269   4.587   6.322   4.417  1.4963  0.3697  2.7194
   32MOL0     H 4270   4.649   6.254   4.287  1.1658 -0.7023 -0.6276
   32MOL0     H 4271   4.806   6.571   4.447 -2.3720  0.1843 -4.8455
   32MOL0     H 4272   5.128   6.561   4.294  0.9006 -0.0363  0.3149
   32MOL0     H 4273   5.046   6.674   4.397 -3.3525 -1.3789 -3.5233
   32MOL0     H 4274   5.154   6.589   4.595  0.2787 -2.9433  1.0753
   32MOL0     H 4275   5.243   6.460   4.497 -3.1639 -1.2822 -1.5609
   32MOL0     H 4276   5.254   6.761   4.456 -0.9092 -0.8357  1.4036
   32MOL0     H 4277   5.352   6.645   4.362 -0.1088  1.1339 -1.1657
   32MOL0     H 4278   5.452   6.582   4.581  1.8841 -0.4247  0.2224
   32MOL0     H 4279   5.370   6.721   4.658  2.1890 -0.7989  0.9833
   32MOL0     H 4280   5.634   6.831   4.744  2.2068  2.6395  1.9809
   32MOL0     H 4281   5.659   7.044   4.825 -0.4360 -0.9163  0.6072
   32MOL0     H 4282   5.818   7.545   4.664  0.3970  0.5418 -1.5419
   32MOL0     H 4283   5.811   7.784   4.700  0.9092  0.5339 -1.9605
   32MOL0     H 4284   5.726   7.950   4.862  0.3230  0.4458  0.1402
   32MOL0     H 4285   5.754   8.002   4.685 -1.4864  0.8396 -1.1207
   32MOL0     H 4286   5.713   8.203   4.794  2.3248 -3.7467 -1.0348
   32MOL0     H 4287   5.548   8.156   4.741 -2.0973  1.1306  1.3468
   32MOL0     H 4288   5.546   8.021   4.980  0.7191 -0.4395 -2.1438
   32MOL0     H 4289   5.670   8.125   5.028 -0.3613 -1.6167  0.5393
   32MOL0     H 4290   5.485   8.310   4.914  1.0670 -1.3935 -2.2663
   32MOL0     H 4291   5.492   8.277   5.085 -2.3998  0.2127 -0.5520
   32MOL0     H 4292   5.317   8.149   4.870  0.3126  2.6719 -0.7798
   32MOL0     H 4293   5.272   8.271   4.979  1.3498  1.3916  0.8249
   32MOL0     H 4294   5.331   7.988   5.087  0.5122 -0.2207  2.6470
   32MOL0     H 4295   5.342   8.130   5.182  1.1658 -1.9002 -0.2327
   32MOL0     H 4296   5.106   8.187   5.114 -1.9623 -0.3570 -3.3804
   32MOL0     H 4297   5.118   8.034   5.186  0.6984  1.7507  1.2425
   32MOL0     H 4298   4.971   8.006   4.986 -0.0234 -1.3098 -1.0153
   32MOL0     H 4299   5.094   8.074   4.888 -0.5354  2.0228  0.2197
   32MOL0     H 4300   5.393   7.781   4.703 -0.3122  0.9703  2.7509
   32MOL0     H 4301   5.380   7.545   4.657  0.0545 -0.2433  3.0083
   32MOL0     H 4302   5.465   7.206   4.463 -1.5706 -0.9888 -0.0247
   32MOL0     H 4303   5.424   6.985   4.388 -2.0846 -0.9896  1.3840
   32MOL0     H 4304   4.105   6.378   3.392 -0.0424  1.1128 -1.1840
   32MOL0     H 4305   3.870   6.439   3.346  2.5553  1.3483 -1.2761
   32MOL0     H 4306   3.426   6.526   3.259 -2.1147 -2.0623 -0.5192
   32MOL0     H 4307   3.181   6.521   3.298 -2.3402 -0.0849  1.1549
   32MOL0     H 4308   3.008   6.417   3.386  0.6831 -0.3548 -0.7461
   32MOL0     H 4309   2.957   6.584   3.419  0.3884  0.4903  2.2614
   32MOL0     H 4310   2.864   6.501   3.630 -0.0556 -3.3430  1.9614
   32MOL0     H 4311   2.877   6.329   3.566 -0.9300 -0.5772 -0.5906
   32MOL0     H 4312   2.750   6.393   3.359 -3.3612  3.5553 -1.5867
   32MOL0     H 4313   2.723   6.548   3.422  1.3923  0.1373 -2.3086
   32MOL0     H 4314   2.528   6.387   3.447 -1.9536 -1.7629  2.9824
   32MOL0     H 4315   2.634   6.291   3.557  0.8295  0.0422  0.2801
   32MOL0     H 4316   2.465   6.593   3.798  0.3734  1.4674 -1.2401
   32MOL0     H 4317   3.259   6.560   3.722  1.7359 -0.0513 -0.3087
   32MOL0     H 4318   3.583   6.667   3.714 -0.0652 -0.9742 -1.2400
   32MOL0     H 4319   3.454   6.611   3.811 -0.3586  2.5557 -0.8851
   32MOL0     H 4320   3.567   6.488   3.743  0.6202  0.6578  0.5141
   33MOL0     O 4321   7.894   0.731   2.737  0.7284 -0.1520 -0.1979
   33MOL0     C 4322   7.817   0.651   2.683 -0.5310 -0.4562  0.1853
   33MOL0     O 4323   7.845   0.516   2.675 -0.1480  0.8810  0.0186
   33MOL0     C 4324   7.966   0.464   2.696 -0.1235  0.3547 -0.7580
   33MOL0     C 4325   7.974   0.361   2.796 -0.1506 -0.5196 -0.0444
   33MOL0     C 4326   8.100   0.297   2.815  0.1026 -0.3669 -0.4533
   33MOL0     C 4327   8.216   0.334   2.734 -0.7400  0.0930 -0.0143
   33MOL0     O 4328   8.339   0.292   2.765  0.2609 -0.4163  1.0896
   33MOL0     C 4329   8.427   0.255   2.659  0.3783  0.0320  0.3700
   33MOL0     C 4330   8.525   0.152   2.711  0.0713  0.0717 -0.3143
   33MOL0     C 4331   8.632   0.117   2.606  0.7143 -0.2145 -0.1531
   33MOL0     C 4332   8.573   0.017   2.507  0.8544  0.5396  0.0081
   33MOL0     C 4333   8.681  -0.065   2.435  0.5873  1.7220  0.1584
   33MOL0     C 4334   8.609  -0.167   2.337 -0.4743 -0.4349  0.1221
   33MOL0     C 4335   8.725  -0.247   2.265  0.1673 -0.4042 -0.2343
   33MOL0     C 4336   8.674  -0.374   2.188 -0.5383  0.3181 -0.9048
   33MOL0     N 4337   8.655  -0.483   2.284 -0.2806  0.3750 -0.3502
   33MOL0     C 4338   8.737  -0.538   2.366 -0.3739 -0.0214 -0.3560
   33MOL0     C 4339   8.664  -0.626   2.441 -0.3038 -0.0822 -0.3447
   33MOL0     C 4340   8.712  -0.712   2.546 -0.6724  0.5018  0.2880
   33MOL0     C 4341   8.706  -0.659   2.688  1.0423 -0.0630  0.1857
   33MOL0     C 4342   8.779  -0.752   2.792 -0.4760  0.0887  0.2791
   33MOL0     C 4343   8.933  -0.738   2.806 -0.5817  0.8037 -0.4385
   33MOL0     O 4344   8.997  -0.637   2.726 -0.2655 -0.3566  0.6432
   33MOL0     C 4345   9.126  -0.648   2.696 -0.0056  0.4901  0.5427
   33MOL0     C 4346   9.224  -0.727   2.753  0.7578 -0.2412  0.3669
   33MOL0     C 4347   9.352  -0.730   2.696  0.2416 -1.1169 -0.2447
   33MOL0     C 4348   9.384  -0.637   2.596 -0.2229 -0.8524 -0.0929
   33MOL0     C 4349   9.520  -0.613   2.558  0.0433  0.5140  0.5840
   33MOL0     O 4350   9.604  -0.715   2.587 -0.2544  0.0055  0.3389
   33MOL0     C 4351   9.727  -0.707   2.528 -0.9860  1.2849  0.5136
   33MOL0     C 4352   9.758  -0.810   2.429 -0.1838  0.8810  0.3761
   33MOL0     C 4353   9.886  -0.826   2.373 -0.4129 -0.2952  0.5673
   33MOL0     C 4354   9.989  -0.740   2.410 -0.4193 -0.0147  0.0977
   33MOL0     O 4355  10.116  -0.764   2.359  0.2405  1.1854  0.5251
   33MOL0     C 4356  10.214  -0.658   2.371  0.6577  0.7751  0.6251
   33MOL0     C 4357  10.342  -0.694   2.298  0.7245  0.4573 -0.1814
   33MOL0     C 4358  10.458  -0.607   2.337  0.1174 -0.7700 -0.4520
   33MOL0     C 4359  10.433  -0.459   2.367  0.2752  0.7296 -0.2448
   33MOL0     C 4360  10.565  -0.379   2.387 -0.4456  0.3647  1.2641
   33MOL0     C 4361  10.640  -0.363   2.263 -0.1991 -1.1555 -0.9398
   33MOL0     C 4362  10.717  -0.226   2.273  0.6146  0.6444  0.9275
   33MOL0     C 4363  10.764  -0.183   2.133  0.0517  0.1101  0.0639
   33MOL0    Cl 4364  10.865  -0.043   2.152 -0.1187  0.1538  0.7724
   33MOL0     C 4365   9.962  -0.638   2.503  0.6373  0.4300 -0.1236
   33MOL0     C 4366   9.837  -0.622   2.564  0.0293  0.2851  0.9735
   33MOL0     O 4367   9.549  -0.507   2.518 -0.4347 -0.2291 -0.0208
   33MOL0     C 4368   9.276  -0.551   2.548 -0.2210  0.3074  0.2328
   33MOL0     C 4369   9.147  -0.569   2.586 -0.8990  0.3536 -0.2981
   33MOL0     N 4370   8.540  -0.627   2.385 -0.3782 -0.2157  0.2313
   33MOL0     N 4371   8.533  -0.543   2.290 -0.7115  0.0712  0.0933
   33MOL0     C 4372   8.198   0.447   2.642 -0.8307 -0.1226 -0.1409
   33MOL0     C 4373   8.079   0.510   2.626  0.0359 -0.6003  0.4762
   33MOL0     C 4374   7.688   0.687   2.630  0.5079  0.4991 -0.1108
   33MOL0     C 4375   7.620   0.608   2.536  0.1955 -0.1719 -0.7738
   33MOL0     C 4376   7.487   0.636   2.501  0.8083 -0.8596 -0.6934
   33MOL0     C 4377   7.428   0.754   2.543 -0.0221  0.1907  1.6098
   33MOL0     O 4378   7.309   0.805   2.503  0.2890 -0.4970 -1.0972
   33MOL0     C 4379   7.234   0.757   2.387  0.0037 -0.9002 -0.2018
   33MOL0     C 4380   7.284   0.843   2.260  0.3846 -0.6833  0.3351
   33MOL0     C 4381   7.213   0.986   2.262 -0.0549 -0.9304  0.4206
   33MOL0     C 4382   7.063   1.002   2.257 -0.4549  0.6635  0.7091
   33MOL0     C 4383   7.000   0.897   2.183  0.8033  0.1640  0.6588
   33MOL0     C 4384   6.956   0.806   2.115  0.0092 -1.0262  0.2550
   33MOL0     C 4385   7.486   0.821   2.641  0.7851 -0.6137 -0.1109
   33MOL0     C 4386   7.616   0.792   2.689  0.6879 -0.0912 -0.0695
   33MOL0     C 4387   7.652   0.875   2.809 -0.5026 -0.7302 -0.3463
   33MOL0     H 4388   7.892   0.320   2.855  3.1838 -1.9613  4.0870
   33MOL0     H 4389   8.106   0.221   2.892  2.1849 -0.2529 -0.4553
   33MOL0     H 4390   8.369   0.206   2.581 -0.3167 -0.6476  1.2836
   33MOL0     H 4391   8.477   0.344   2.618  0.1748 -0.7853 -1.7544
   33MOL0     H 4392   8.463   0.067   2.739 -0.9161  1.1823  0.9691
   33MOL0     H 4393   8.589   0.196   2.788  3.0987 -0.6756 -2.1818
   33MOL0     H 4394   8.721   0.067   2.647  1.0029 -2.2319 -2.9380
   33MOL0     H 4395   8.666   0.209   2.556 -3.1144  3.0113  2.5986
   33MOL0     H 4396   8.515  -0.056   2.565  1.5341  0.4378  0.5707
   33MOL0     H 4397   8.511   0.069   2.433 -0.7250 -1.5907 -0.2843
   33MOL0     H 4398   8.743   0.016   2.395 -0.7984  2.2137 -1.0907
   33MOL0     H 4399   8.731  -0.130   2.508 -2.7158 -1.2119  0.0716
   33MOL0     H 4400   8.546  -0.230   2.401  0.0112  0.6356  1.6988
   33MOL0     H 4401   8.546  -0.109   2.269  1.3982  5.3557  2.7319
   33MOL0     H 4402   8.809  -0.272   2.332 -0.5141  0.2678  0.9129
   33MOL0     H 4403   8.765  -0.180   2.188  0.1074  1.8027  1.5270
   33MOL0     H 4404   8.576  -0.361   2.141 -2.3308 -2.7089  1.6104
   33MOL0     H 4405   8.748  -0.412   2.116  1.5410 -2.9584  2.5498
   33MOL0     H 4406   8.840  -0.510   2.385  0.1420 -0.7026 -2.0009
   33MOL0     H 4407   8.670  -0.813   2.552 -1.5977  0.9581  3.1612
   33MOL0     H 4408   8.818  -0.732   2.527 -0.5032  0.0727  1.5754
   33MOL0     H 4409   8.740  -0.555   2.697 -0.1900  0.3424  0.2934
   33MOL0     H 4410   8.600  -0.669   2.711  1.4211 -2.0151  1.3070
   33MOL0     H 4411   8.760  -0.858   2.772 -0.2866  0.0586  0.2530
   33MOL0     H 4412   8.733  -0.729   2.888  0.7585  2.2142  0.4172
   33MOL0     H 4413   8.982  -0.834   2.784 -1.1960  0.2329  0.5881
   33MOL0     H 4414   8.970  -0.716   2.907  1.3233  1.5373 -1.2466
   33MOL0     H 4415   9.215  -0.788   2.842 -0.5054 -1.7634 -0.7349
   33MOL0     H 4416   9.426  -0.794   2.743  0.9612 -1.7169 -2.0825
   33MOL0     H 4417   9.673  -0.872   2.400 -1.1635  2.2682  0.1678
   33MOL0     H 4418   9.913  -0.895   2.293  0.5630  0.8676 -0.1384
   33MOL0     H 4419  10.157  -0.570   2.339 -2.4371 -0.9848  0.8715
   33MOL0     H 4420  10.245  -0.643   2.475 -1.5562  1.0435  1.3098
   33MOL0     H 4421  10.369  -0.798   2.319  2.5920  0.6550 -1.3476
   33MOL0     H 4422  10.329  -0.698   2.190  1.9182 -2.9986 -0.3243
   33MOL0     H 4423  10.498  -0.649   2.430 -2.8458  2.3286  2.5096
   33MOL0     H 4424  10.529  -0.623   2.256  0.4607  0.7177 -0.4726
   33MOL0     H 4425  10.377  -0.447   2.460  0.7358 -2.8606  0.6337
   33MOL0     H 4426  10.373  -0.405   2.293 -1.0551  0.9154  0.9327
   33MOL0     H 4427  10.634  -0.430   2.454 -1.9592 -2.3968  0.8905
   33MOL0     H 4428  10.531  -0.285   2.432 -1.6974  0.4276  0.2430
   33MOL0     H 4429  10.707  -0.449   2.260  2.9871  0.7590  3.8833
   33MOL0     H 4430  10.579  -0.360   2.172  0.3372 -0.4686 -1.2803
   33MOL0     H 4431  10.802  -0.231   2.343 -1.5680 -3.4787  3.6982
   33MOL0     H 4432  10.656  -0.151   2.323 -1.9043 -0.1171 -0.8029
   33MOL0     H 4433  10.841  -0.256   2.103  0.9459  1.1405 -0.2282
   33MOL0     H 4434  10.684  -0.172   2.060 -0.0385 -2.1566 -0.2478
   33MOL0     H 4435  10.043  -0.570   2.527 -0.3344  1.3094  0.7905
   33MOL0     H 4436   9.821  -0.539   2.632 -1.2409  0.9953 -0.1399
   33MOL0     H 4437   9.304  -0.475   2.477  2.1390  0.7715  1.5477
   33MOL0     H 4438   9.076  -0.494   2.552 -0.5644  2.7637  3.6598
   33MOL0     H 4439   8.288   0.485   2.595 -0.8248 -0.6926 -0.6060
   33MOL0     H 4440   8.063   0.593   2.558  0.4177 -1.0103 -0.1311
   33MOL0     H 4441   7.670   0.522   2.492 -1.4893  0.1140 -3.5018
   33MOL0     H 4442   7.430   0.574   2.432 -0.0140 -2.5126  1.3229
   33MOL0     H 4443   7.128   0.779   2.399  0.3160  1.3187 -1.0762
   33MOL0     H 4444   7.240   0.648   2.382 -3.5052 -1.2914  1.1174
   33MOL0     H 4445   7.253   0.797   2.165  0.0789  2.3008 -1.1374
   33MOL0     H 4446   7.394   0.840   2.264  0.3569 -0.3975  2.4540
   33MOL0     H 4447   7.260   1.044   2.182  1.3836  0.7236  2.3509
   33MOL0     H 4448   7.243   1.035   2.355 -0.0316 -1.9745  0.9798
   33MOL0     H 4449   7.031   0.985   2.360 -1.9475 -2.5990 -0.1789
   33MOL0     H 4450   7.036   1.103   2.224  0.1819  1.1595  1.6663
   33MOL0     H 4451   6.922   0.733   2.045  0.6887 -0.6008 -0.5466
   33MOL0     H 4452   7.430   0.905   2.681  0.1661 -0.5568 -1.0699
   33MOL0     H 4453   7.723   0.951   2.775  0.3125 -1.5039 -0.4275
   33MOL0     H 4454   7.572   0.933   2.854 -0.7368 -2.6051  1.8621
   33MOL0     H 4455   7.698   0.820   2.892 -1.4774  2.9215  2.8751
   34MOL0     O 4456   8.038   2.479  10.515  0.1366  0.0274  0.0615
   34MOL0     C 4457   8.028   2.600  10.529 -0.3714  0.5932  0.3490
   34MOL0     O 4458   7.915   2.679  10.477  0.3918  0.1207  0.2941
   34MOL0     C 4459   7.827   2.606  10.397  0.0060  0.3419  0.1059
   34MOL0     C 4460   7.690   2.636  10.413 -0.2542  0.4521 -0.1481
   34MOL0     C 4461   7.589   2.557  10.345  0.5593 -0.3324  0.2379
   34MOL0     C 4462   7.620   2.452  10.259  0.0610 -0.7239 -0.2257
   34MOL0     O 4463   7.534   2.375  10.182 -0.2033  0.1720 -0.5794
   34MOL0     C 4464   7.423   2.324  10.265 -1.0865 -1.0804  0.1225
   34MOL0     C 4465   7.322   2.239  10.200 -1.4073  0.6644  0.0434
   34MOL0     C 4466   7.239   2.302  10.087  0.2242 -0.4037  0.1415
   34MOL0     C 4467   7.148   2.196  10.025 -0.8928 -0.3836 -0.1360
   34MOL0     C 4468   7.064   2.262   9.923 -0.2206 -0.1207 -0.3863
   34MOL0     C 4469   6.959   2.170   9.860  0.3009  0.4068  0.0090
   34MOL0     C 4470   6.839   2.150   9.963  0.2434 -0.0575  0.5417
   34MOL0     C 4471   6.706   2.123   9.882 -0.7016 -0.3971 -0.1003
   34MOL0     N 4472   6.608   2.078   9.974  0.3291  0.1373  0.3336
   34MOL0     C 4473   6.493   2.145  10.006  0.5852 -0.0718  0.7259
   34MOL0     C 4474   6.436   2.063  10.098 -0.6104  0.9851  0.5507
   34MOL0     C 4475   6.303   2.085  10.165  0.5342 -0.0747  0.3371
   34MOL0     C 4476   6.209   1.958  10.175  0.2790 -0.7375  0.0305
   34MOL0     C 4477   6.116   1.975  10.289  0.2424 -0.3617  0.3864
   34MOL0     C 4478   5.997   2.065  10.252 -0.3892 -0.3772 -0.3789
   34MOL0     O 4479   5.932   2.110  10.374  0.2450  0.3604 -0.4021
   34MOL0     C 4480   5.808   2.159  10.353  0.6306 -0.4198  0.4380
   34MOL0     C 4481   5.721   2.135  10.457  0.5922 -0.0166  0.0601
   34MOL0     C 4482   5.585   2.167  10.445  0.5783  0.3297 -0.4200
   34MOL0     C 4483   5.523   2.216  10.328 -0.1102 -0.5285  0.0847
   34MOL0     C 4484   5.379   2.257  10.314 -0.9019  0.4174  0.7212
   34MOL0     O 4485   5.346   2.298  10.184  0.2349  0.4028  0.3886
   34MOL0     C 4486   5.209   2.295  10.159 -0.4214  0.3264 -0.5228
   34MOL0     C 4487   5.142   2.170  10.149  0.4902 -1.1135 -0.0884
   34MOL0     C 4488   5.006   2.156  10.129  0.1564 -0.6704 -0.3064
   34MOL0     C 4489   4.936   2.274  10.107  0.7766 -0.4885 -0.4407
   34MOL0     O 4490   4.799   2.287  10.091 -0.2048 -0.3457  0.1062
   34MOL0     C 4491   4.725   2.172  10.064 -0.1098 -0.1211  0.3331
   34MOL0     C 4492   4.578   2.217  10.072  0.4886 -1.1746 -0.4397
   34MOL0     C 4493   4.477   2.112  10.031  0.2209  0.8636 -0.0365
   34MOL0     C 4494   4.340   2.130  10.100  0.1035 -0.0944 -0.0281
   34MOL0     C 4495   4.231   2.025  10.063  0.2773  1.1620 -0.1794
   34MOL0     C 4496   4.185   2.011   9.912 -0.2760  0.5685  0.4957
   34MOL0     C 4497   4.082   1.907   9.902 -0.4914 -0.1723  0.4479
   34MOL0     C 4498   4.002   1.929   9.780 -0.1279  1.0612 -0.3346
   34MOL0    Cl 4499   4.114   1.923   9.639  0.1908  0.4789  0.9030
   34MOL0     C 4500   4.997   2.396  10.105 -0.4710 -0.2812  0.2191
   34MOL0     C 4501   5.137   2.410  10.140 -0.3361 -0.8501 -0.5596
   34MOL0     O 4502   5.303   2.268  10.417 -0.5552  0.2808  0.5003
   34MOL0     C 4503   5.614   2.243  10.224 -0.1287  0.6783 -0.4964
   34MOL0     C 4504   5.755   2.218  10.232 -0.3236 -0.0002 -1.2114
   34MOL0     N 4505   6.510   1.952  10.119 -0.0804  0.2881 -0.1540
   34MOL0     N 4506   6.610   1.952  10.033  0.6027 -0.5038 -0.9325
   34MOL0     C 4507   7.760   2.432  10.243 -0.1386  0.1451 -0.0524
   34MOL0     C 4508   7.862   2.509  10.300  0.2653 -0.3487  0.4592
   34MOL0     C 4509   8.137   2.672  10.586  1.2751  0.2397  0.5269
   34MOL0     C 4510   8.136   2.809  10.570 -0.1848 -0.2959 -0.2865
   34MOL0     C 4511   8.252   2.888  10.605 -0.3911 -0.3168 -0.2154
   34MOL0     C 4512   8.355   2.841  10.681  0.8726 -0.9935 -0.7107
   34MOL0     O 4513   8.456   2.917  10.730 -0.1394 -0.5007 -0.0340
   34MOL0     C 4514   8.473   3.057  10.683 -0.6357 -0.3150 -0.4907
   34MOL0     C 4515   8.533   3.070  10.544  0.4270  1.1595 -0.0063
   34MOL0     C 4516   8.681   3.020  10.534  1.2001  0.0450 -0.6667
   34MOL0     C 4517   8.783   3.119  10.572 -0.5211  0.3508  0.0102
   34MOL0     C 4518   8.918   3.062  10.575  0.6628 -0.2174  0.2528
   34MOL0     C 4519   9.024   3.018  10.587 -0.6034  0.4539  0.4525
   34MOL0     C 4520   8.354   2.707  10.706  0.2029 -0.4303  0.3003
   34MOL0     C 4521   8.246   2.625  10.666 -0.1001  1.0965  0.0270
   34MOL0     C 4522   8.255   2.481  10.706 -0.3900  0.1931  1.0780
   34MOL0     H 4523   7.669   2.720  10.478  2.3394  1.1735 -0.1329
   34MOL0     H 4524   7.486   2.587  10.361  0.7569 -0.5402  2.0646
   34MOL0     H 4525   7.473   2.268  10.344  2.6615  2.1115  0.2968
   34MOL0     H 4526   7.374   2.408  10.315  0.4910  0.3515 -0.6612
   34MOL0     H 4527   7.255   2.188  10.270 -0.3239 -1.2067 -0.2187
   34MOL0     H 4528   7.376   2.152  10.163 -0.7767  0.1623  1.9853
   34MOL0     H 4529   7.300   2.340  10.005  2.9620  0.5484  2.4622
   34MOL0     H 4530   7.177   2.387  10.120 -0.4929 -0.4275 -1.0799
   34MOL0     H 4531   7.220   2.125   9.984  0.4518  0.5301  0.5220
   34MOL0     H 4532   7.093   2.140  10.101  2.0176 -0.0034  2.4954
   34MOL0     H 4533   7.016   2.347   9.971  3.5240  1.2989  1.2096
   34MOL0     H 4534   7.133   2.291   9.843 -1.3439  0.4560 -1.1561
   34MOL0     H 4535   6.929   2.223   9.770  0.2901  2.6710  1.2795
   34MOL0     H 4536   6.997   2.073   9.825 -1.1153 -1.0827  2.3126
   34MOL0     H 4537   6.827   2.248  10.009 -1.6713  0.2828 -0.5983
   34MOL0     H 4538   6.865   2.076  10.039 -4.2867  1.7625  4.3512
   34MOL0     H 4539   6.680   2.216   9.830  1.9824  0.3843 -0.2111
   34MOL0     H 4540   6.723   2.046   9.806 -0.3325 -0.7315  0.3176
   34MOL0     H 4541   6.448   2.239   9.975  2.3391  0.9111  1.0362
   34MOL0     H 4542   6.327   2.128  10.263 -0.3137  2.9353 -0.6590
   34MOL0     H 4543   6.243   2.164  10.118 -0.1687 -0.0483  1.2453
   34MOL0     H 4544   6.162   1.930  10.080  1.0405  0.0598 -0.6072
   34MOL0     H 4545   6.277   1.879  10.208 -1.1117 -1.2394  1.8111
   34MOL0     H 4546   6.161   2.015  10.380 -2.1297  3.3558  0.1350
   34MOL0     H 4547   6.070   1.881  10.321 -2.6484  0.9881  0.4704
   34MOL0     H 4548   5.924   2.013  10.190  0.5462  0.7201 -2.5124
   34MOL0     H 4549   6.038   2.148  10.193  3.1962 -0.5525  1.5699
   34MOL0     H 4550   5.760   2.079  10.542 -1.4814 -2.1601 -0.2966
   34MOL0     H 4551   5.503   2.152  10.515  0.4988  1.6372 -0.2106
   34MOL0     H 4552   5.204   2.083  10.168  3.1223  0.7860  0.5176
   34MOL0     H 4553   4.967   2.054  10.136 -0.1544 -0.9526 -4.1485
   34MOL0     H 4554   4.747   2.130   9.966  0.5724 -5.5106  2.4801
   34MOL0     H 4555   4.746   2.101  10.144  1.5258 -0.0475 -0.0001
   34MOL0     H 4556   4.554   2.237  10.177  2.0484  0.5235 -0.3556
   34MOL0     H 4557   4.568   2.307  10.010  1.9784 -0.5019  0.2403
   34MOL0     H 4558   4.469   2.118   9.922 -0.4898 -0.1796 -0.0521
   34MOL0     H 4559   4.509   2.010  10.056 -0.1610  0.5246 -0.9254
   34MOL0     H 4560   4.300   2.228  10.073  2.1188  0.6590 -0.4332
   34MOL0     H 4561   4.344   2.128  10.209  1.1917 -0.4137 -0.0657
   34MOL0     H 4562   4.133   2.047  10.106 -0.8438 -2.0166 -0.7931
   34MOL0     H 4563   4.258   1.924  10.096 -1.8739  0.0590 -1.5498
   34MOL0     H 4564   4.156   2.111   9.880 -0.5013  0.1559 -0.6516
   34MOL0     H 4565   4.274   1.986   9.854 -0.3158  0.7896  0.3356
   34MOL0     H 4566   4.002   1.918   9.976 -1.5032 -0.3837 -0.5777
   34MOL0     H 4567   4.125   1.806   9.899  0.7337  0.2817  1.6506
   34MOL0     H 4568   3.925   1.852   9.777 -1.9707  2.6250  2.5029
   34MOL0     H 4569   3.955   2.028   9.782  1.1674  1.6944 -0.0142
   34MOL0     H 4570   4.943   2.487  10.079 -1.8262  0.0369  3.6151
   34MOL0     H 4571   5.189   2.504  10.127  2.8032 -2.6409 -2.1389
   34MOL0     H 4572   5.582   2.292  10.132 -1.8427  0.8951  0.1924
   34MOL0     H 4573   5.825   2.259  10.159 -1.1513  0.8895 -1.5226
   34MOL0     H 4574   7.785   2.355  10.170 -1.9794 -0.0651 -0.5253
   34MOL0     H 4575   7.963   2.479  10.273 -0.2462 -0.2469 -1.7018
   34MOL0     H 4576   8.055   2.866  10.526 -1.3676 -4.3003 -4.0083
   34MOL0     H 4577   8.240   2.995  10.587 -0.4235 -0.5537 -1.7609
   34MOL0     H 4578   8.548   3.101  10.749 -0.8593  1.3593 -1.2873
   34MOL0     H 4579   8.380   3.109  10.708 -0.8513 -0.2238 -1.4165
   34MOL0     H 4580   8.546   3.171  10.506 -0.2225  1.6547  1.0521
   34MOL0     H 4581   8.483   3.004  10.472  0.7488 -1.6901  2.1843
   34MOL0     H 4582   8.700   2.984  10.433  1.9007 -2.7209  0.3663
   34MOL0     H 4583   8.698   2.930  10.594 -0.2797 -1.0141 -1.7578
   34MOL0     H 4584   8.780   3.209  10.510  1.2391 -0.0145 -0.6848
   34MOL0     H 4585   8.768   3.141  10.678  0.5019  0.5509  0.1269
   34MOL0     H 4586   9.116   2.968  10.609  1.8448  3.0491 -2.9425
   34MOL0     H 4587   8.433   2.657  10.761  2.8623  0.1044 -2.7426
   34MOL0     H 4588   8.160   2.461  10.757  0.2065 -2.7617  1.2234
   34MOL0     H 4589   8.271   2.416  10.620  0.3676 -1.0166  2.0928
   34MOL0     H 4590   8.339   2.462  10.773 -1.1363 -0.7511  1.7829
   35MOL0     O 4591   1.050   0.377   6.590 -0.0324  0.8211  0.4599
   35MOL0     C 4592   1.078   0.268   6.651 -0.5522 -0.0664  0.0793
   35MOL0     O 4593   1.202   0.208   6.660 -0.3938  0.3771  0.7313
   35MOL0     C 4594   1.303   0.295   6.683 -0.5732  0.5887  0.0633
   35MOL0     C 4595   1.421   0.240   6.635  0.0844 -0.9978  0.1512
   35MOL0     C 4596   1.540   0.316   6.637 -0.4602 -0.3190 -0.4898
   35MOL0     C 4597   1.537   0.433   6.718 -0.2914 -0.8128  0.6578
   35MOL0     O 4598   1.649   0.517   6.734 -0.0180 -0.7195  0.4482
   35MOL0     C 4599   1.777   0.481   6.669 -0.7680  0.3039 -0.1149
   35MOL0     C 4600   1.885   0.595   6.683  1.0627 -0.4312 -0.2629
   35MOL0     C 4601   1.990   0.562   6.581  0.3062 -0.3693  0.1355
   35MOL0     C 4602   2.109   0.645   6.613 -0.4813 -0.8342  0.1482
   35MOL0     C 4603   2.223   0.603   6.525  0.6219 -0.3188  0.5098
   35MOL0     C 4604   2.358   0.661   6.588  0.7923  0.7447  0.2098
   35MOL0     C 4605   2.481   0.642   6.509 -0.4692  0.2842 -0.2561
   35MOL0     C 4606   2.597   0.730   6.563  1.0494  0.2437 -0.2746
   35MOL0     N 4607   2.719   0.706   6.489 -0.0324 -0.1401  0.3228
   35MOL0     C 4608   2.779   0.584   6.501 -0.2405  0.7272  0.8888
   35MOL0     C 4609   2.897   0.595   6.421 -0.2156 -0.7257  0.6467
   35MOL0     C 4610   3.002   0.501   6.400  0.7186 -0.2646  0.5189
   35MOL0     C 4611   3.142   0.548   6.425  0.2772  0.2426 -0.6934
   35MOL0     C 4612   3.201   0.632   6.318  0.3596  0.0935  0.1181
   35MOL0     C 4613   3.351   0.613   6.347 -0.7942 -0.7141 -0.0393
   35MOL0     O 4614   3.426   0.691   6.260 -0.6779  0.9091 -0.6129
   35MOL0     C 4615   3.561   0.682   6.265 -0.4618 -0.4112 -0.0134
   35MOL0     C 4616   3.633   0.765   6.181 -0.2106 -0.0075  0.0994
   35MOL0     C 4617   3.776   0.755   6.180  0.0643 -0.6907  0.8420
   35MOL0     C 4618   3.848   0.677   6.268  0.6390  1.0174 -0.5488
   35MOL0     C 4619   3.995   0.681   6.276  0.0284  0.2816  0.4827
   35MOL0     O 4620   4.063   0.617   6.380 -0.2780 -0.0741  0.7825
   35MOL0     C 4621   4.195   0.642   6.395  0.4041 -0.3139  0.1192
   35MOL0     C 4622   4.241   0.759   6.450 -0.4334 -0.7498  0.0202
   35MOL0     C 4623   4.373   0.768   6.499 -0.0960 -0.2767 -0.2196
   35MOL0     C 4624   4.467   0.659   6.487 -0.2285  0.8853 -1.0466
   35MOL0     O 4625   4.594   0.665   6.537 -1.0307 -0.4770 -0.1504
   35MOL0     C 4626   4.662   0.775   6.480  0.0198 -0.3302 -0.8678
   35MOL0     C 4627   4.810   0.739   6.504 -0.2712  0.7896 -0.1790
   35MOL0     C 4628   4.847   0.733   6.651  0.7385  0.6615 -0.8402
   35MOL0     C 4629   4.995   0.699   6.670 -0.2189 -0.7573  0.5790
   35MOL0     C 4630   5.015   0.689   6.826 -0.4085  0.1060  0.5717
   35MOL0     C 4631   5.162   0.677   6.855  0.2590 -0.3973  0.0963
   35MOL0     C 4632   5.238   0.567   6.775 -0.1284  1.0288 -0.4815
   35MOL0     C 4633   5.356   0.506   6.862 -0.7389  0.0497 -1.0355
   35MOL0    Cl 4634   5.482   0.631   6.886 -0.0596  0.3474  0.1759
   35MOL0     C 4635   4.414   0.545   6.443 -0.5103 -0.1250  0.6117
   35MOL0     C 4636   4.290   0.532   6.390 -0.3280 -0.0562  0.0937
   35MOL0     O 4637   4.049   0.741   6.187  0.5208  0.2015 -0.2337
   35MOL0     C 4638   3.776   0.589   6.353  0.5636  0.2947  0.4320
   35MOL0     C 4639   3.633   0.591   6.343  0.3112  0.0061  0.0037
   35MOL0     N 4640   2.901   0.726   6.369 -0.3842  0.1657  0.8297
   35MOL0     N 4641   2.791   0.790   6.396 -0.0754 -0.0550 -0.1308
   35MOL0     C 4642   1.420   0.486   6.781  0.3777 -0.0098 -0.1046
   35MOL0     C 4643   1.301   0.416   6.752 -1.0765  0.7950  0.1198
   35MOL0     C 4644   0.965   0.182   6.700 -0.0956  1.0296  0.3299
   35MOL0     C 4645   0.989   0.040   6.713 -0.5754 -1.3490  0.1326
   35MOL0     C 4646   0.896  -0.043   6.763  0.2563  1.6359 -0.3095
   35MOL0     C 4647   0.782  -0.007   6.816  0.0379  0.8509 -0.5943
   35MOL0     O 4648   0.686  -0.096   6.858  0.1565  0.7961  0.2268
   35MOL0     C 4649   0.720  -0.232   6.854  0.6476 -0.2915 -0.9805
   35MOL0     C 4650   0.696  -0.292   6.712 -0.4269 -1.0720 -0.9993
   35MOL0     C 4651   0.584  -0.227   6.633  0.4610  0.4575 -0.2047
   35MOL0     C 4652   0.588  -0.267   6.478 -0.3878  0.4019  0.0016
   35MOL0     C 4653   0.708  -0.221   6.410 -0.1735  0.1915 -0.1950
   35MOL0     C 4654   0.809  -0.187   6.344  0.2644  0.1895  0.0840
   35MOL0     C 4655   0.752   0.131   6.810 -0.5950 -0.1424  0.2362
   35MOL0     C 4656   0.842   0.227   6.752 -0.0864  0.2699 -0.5687
   35MOL0     C 4657   0.801   0.366   6.758 -0.0359 -0.3005  1.0663
   35MOL0     H 4658   1.412   0.148   6.578 -0.7494 -0.4222 -0.6820
   35MOL0     H 4659   1.627   0.274   6.587  0.3391  0.9172 -0.1924
   35MOL0     H 4660   1.830   0.397   6.716  1.1459  2.1328  1.1540
   35MOL0     H 4661   1.764   0.451   6.564  0.0471 -0.6654  0.0376
   35MOL0     H 4662   1.917   0.606   6.787  2.2225 -0.7797 -0.5631
   35MOL0     H 4663   1.841   0.691   6.656  0.9593  1.1341  4.5985
   35MOL0     H 4664   1.952   0.594   6.484  1.6595 -1.6110 -0.8382
   35MOL0     H 4665   2.013   0.455   6.581  0.0566 -0.4242 -0.2139
   35MOL0     H 4666   2.094   0.752   6.597 -0.5021 -0.9363 -0.5698
   35MOL0     H 4667   2.151   0.631   6.713  3.6176  1.0606 -1.0794
   35MOL0     H 4668   2.225   0.495   6.510 -0.3428  0.0966 -4.0927
   35MOL0     H 4669   2.217   0.648   6.426 -1.1650  1.4959  1.3634
   35MOL0     H 4670   2.348   0.763   6.626 -0.2641 -0.0250  2.0909
   35MOL0     H 4671   2.363   0.606   6.682 -1.5503 -0.9295 -0.5609
   35MOL0     H 4672   2.463   0.694   6.415 -2.4413  1.0557  0.4893
   35MOL0     H 4673   2.508   0.536   6.510  1.1146  0.6499 -1.2644
   35MOL0     H 4674   2.558   0.831   6.545 -3.8495 -1.5185 -1.1981
   35MOL0     H 4675   2.614   0.706   6.668  1.3622 -2.7030 -0.9037
   35MOL0     H 4676   2.756   0.506   6.573 -2.4318  0.8095  0.3393
   35MOL0     H 4677   2.987   0.427   6.479  0.4634  0.7656  1.4592
   35MOL0     H 4678   2.998   0.448   6.304 -0.9275  1.7592 -0.6058
   35MOL0     H 4679   3.147   0.593   6.525  0.2887  0.2123 -0.6806
   35MOL0     H 4680   3.205   0.461   6.445 -0.1443  0.2968  1.0181
   35MOL0     H 4681   3.180   0.738   6.331  0.2768  0.4370 -2.3778
   35MOL0     H 4682   3.187   0.602   6.214 -0.6552  1.9085 -0.3032
   35MOL0     H 4683   3.366   0.507   6.324 -1.0085 -0.0637 -3.7941
   35MOL0     H 4684   3.373   0.646   6.449  0.3784  1.6276 -0.9743
   35MOL0     H 4685   3.578   0.831   6.114 -1.4882  0.0074  1.1066
   35MOL0     H 4686   3.813   0.816   6.098 -1.3739 -1.6510 -0.5827
   35MOL0     H 4687   4.167   0.837   6.469 -2.0492 -1.7366 -1.8263
   35MOL0     H 4688   4.397   0.862   6.548 -0.3497 -1.2736  1.9545
   35MOL0     H 4689   4.654   0.774   6.371 -1.0346 -0.8532 -0.7956
   35MOL0     H 4690   4.651   0.874   6.525 -0.2787  0.1245 -1.9078
   35MOL0     H 4691   4.831   0.642   6.459  1.1038 -0.1170  2.2662
   35MOL0     H 4692   4.871   0.814   6.452  0.3359  0.4672  0.0702
   35MOL0     H 4693   4.820   0.823   6.707 -1.1848 -1.5659  2.0898
   35MOL0     H 4694   4.789   0.648   6.690 -0.8000  1.2683 -1.7141
   35MOL0     H 4695   5.066   0.769   6.626  0.9306 -3.8392 -3.0697
   35MOL0     H 4696   5.023   0.609   6.614  3.6597 -0.2783  1.4478
   35MOL0     H 4697   4.966   0.593   6.846 -3.2173  0.2295 -4.1310
   35MOL0     H 4698   4.969   0.779   6.867 -1.4335  0.8114 -1.9066
   35MOL0     H 4699   5.212   0.767   6.818  2.0291 -0.2621  2.5806
   35MOL0     H 4700   5.184   0.686   6.962  0.0715 -0.7694  0.1651
   35MOL0     H 4701   5.282   0.600   6.680  0.0310 -0.6391 -1.0245
   35MOL0     H 4702   5.168   0.489   6.745 -0.4028  1.0162  0.1880
   35MOL0     H 4703   5.322   0.471   6.960 -1.6471 -1.3576 -1.8187
   35MOL0     H 4704   5.393   0.415   6.815  3.0505  0.1362  1.4009
   35MOL0     H 4705   4.486   0.464   6.435 -0.2532  0.3061 -3.5524
   35MOL0     H 4706   4.255   0.440   6.344 -2.3978  0.2862  0.8564
   35MOL0     H 4707   3.830   0.519   6.416 -0.4107 -1.7826 -0.9179
   35MOL0     H 4708   3.571   0.539   6.416 -0.9538  0.1767 -0.9217
   35MOL0     H 4709   1.416   0.582   6.832 -0.2276 -0.8381  1.4762
   35MOL0     H 4710   1.214   0.466   6.792 -1.1678  2.1259 -1.6356
   35MOL0     H 4711   1.078  -0.003   6.669  2.2409  3.4980  0.4396
   35MOL0     H 4712   0.919  -0.146   6.741 -1.8862  0.9345  0.4759
   35MOL0     H 4713   0.651  -0.287   6.919 -0.1959 -1.3392 -2.7128
   35MOL0     H 4714   0.816  -0.252   6.905  0.8580  1.4637 -0.6430
   35MOL0     H 4715   0.674  -0.396   6.738  0.9916 -0.6263  2.5087
   35MOL0     H 4716   0.790  -0.294   6.655  0.3922  0.6316  0.1974
   35MOL0     H 4717   0.587  -0.118   6.634  1.1597  0.5278 -2.5865
   35MOL0     H 4718   0.489  -0.251   6.680 -1.0922 -0.2330 -3.4455
   35MOL0     H 4719   0.580  -0.376   6.477  1.1307  0.2537  0.9769
   35MOL0     H 4720   0.505  -0.224   6.421 -0.6457 -0.9693 -0.7227
   35MOL0     H 4721   0.901  -0.156   6.300  0.1430  3.1822  1.6901
   35MOL0     H 4722   0.659   0.144   6.863  0.1781 -0.1576  1.6532
   35MOL0     H 4723   0.758   0.388   6.660  3.7466 -0.2456 -0.7450
   35MOL0     H 4724   0.728   0.374   6.839  0.0166 -0.5258  1.1381
   35MOL0     H 4725   0.877   0.444   6.766  0.7423 -0.6766 -1.6266
   36MOL0     O 4726   0.319   8.223   4.693  0.3420 -0.2243  0.3416
   36MOL0     C 4727   0.305   8.255   4.805  0.6537 -0.3715  0.2585
   36MOL0     O 4728   0.403   8.305   4.887  0.6238 -0.8037  0.1915
   36MOL0     C 4729   0.541   8.319   4.858  0.0278 -0.5836  0.1140
   36MOL0     C 4730   0.632   8.309   4.965 -0.3309 -0.5165 -0.4430
   36MOL0     C 4731   0.767   8.327   4.947  0.1136  0.0902  0.9352
   36MOL0     C 4732   0.812   8.356   4.817 -0.5483  0.5011 -0.0870
   36MOL0     O 4733   0.948   8.376   4.806 -0.3146 -0.3060 -0.0043
   36MOL0     C 4734   0.991   8.383   4.668 -0.0846  0.0733 -1.0216
   36MOL0     C 4735   1.143   8.405   4.669 -0.0344 -0.0069  0.6355
   36MOL0     C 4736   1.208   8.394   4.535 -0.3277 -0.1943 -0.2173
   36MOL0     C 4737   1.360   8.348   4.526  0.1261  1.2094 -0.7434
   36MOL0     C 4738   1.452   8.441   4.588 -0.9465 -0.1771  0.3777
   36MOL0     C 4739   1.583   8.375   4.626 -0.5718  0.2201  0.0147
   36MOL0     C 4740   1.714   8.459   4.608  0.2789 -0.6594 -0.3616
   36MOL0     C 4741   1.843   8.397   4.574 -0.9177 -0.8299 -0.7188
   36MOL0     N 4742   1.958   8.486   4.554 -0.9413 -0.2077 -0.8198
   36MOL0     C 4743   1.971   8.619   4.596 -0.9178 -0.2405 -0.6320
   36MOL0     C 4744   2.074   8.672   4.522  0.5987  0.0904  0.5781
   36MOL0     C 4745   2.140   8.800   4.557  1.2465 -0.6250 -0.4319
   36MOL0     C 4746   2.159   8.887   4.432 -0.0603  0.0302 -0.1865
   36MOL0     C 4747   2.211   9.019   4.476 -0.5549 -0.3456 -0.5791
   36MOL0     C 4748   2.254   9.106   4.355 -0.4678  0.0707 -1.0634
   36MOL0     O 4749   2.144   9.131   4.274 -0.1665  0.1111  0.0722
   36MOL0     C 4750   2.061   9.236   4.300 -0.2382 -0.0676 -0.4982
   36MOL0     C 4751   2.074   9.336   4.398 -0.2974 -0.2391  0.8561
   36MOL0     C 4752   1.984   9.446   4.395  0.0018  0.7108  1.1276
   36MOL0     C 4753   1.901   9.470   4.281 -0.0203  0.5153 -0.3463
   36MOL0     C 4754   1.811   9.590   4.270 -0.1410  0.6981 -0.8922
   36MOL0     O 4755   1.718   9.598   4.172 -0.0496  0.6453 -0.0716
   36MOL0     C 4756   1.636   9.703   4.155 -0.0159 -0.7533 -0.6796
   36MOL0     C 4757   1.588   9.788   4.256 -0.2850  0.6841 -1.1933
   36MOL0     C 4758   1.509   9.893   4.230  0.3240  0.2574  0.4718
   36MOL0     C 4759   1.492   9.941   4.102  1.2075  0.2935 -0.9854
   36MOL0     O 4760   1.404  10.042   4.097  0.1807  0.3185 -0.1721
   36MOL0     C 4761   1.459  10.167   4.070 -0.1525  0.9041  0.2874
   36MOL0     C 4762   1.454  10.199   3.920 -0.3777  0.5509 -0.1607
   36MOL0     C 4763   1.304  10.189   3.863 -1.2078 -0.6666 -0.1527
   36MOL0     C 4764   1.193  10.236   3.964  0.2098 -0.3544 -0.6617
   36MOL0     C 4765   1.053  10.231   3.927  0.7526 -0.1865 -0.3894
   36MOL0     C 4766   0.975  10.324   4.023 -0.6662  0.8338 -0.0346
   36MOL0     C 4767   0.823  10.313   4.007 -0.1140 -0.4767 -0.4888
   36MOL0     C 4768   0.743  10.438   3.989  0.0306  0.1830  0.4917
   36MOL0    Cl 4769   0.572  10.386   3.979 -0.5470 -0.3643 -0.4499
   36MOL0     C 4770   1.549   9.866   3.998  0.2756  0.0856  0.5232
   36MOL0     C 4771   1.613   9.742   4.023 -0.0800 -0.4392  0.0827
   36MOL0     O 4772   1.832   9.672   4.365  0.2675  0.7259  0.7671
   36MOL0     C 4773   1.889   9.375   4.178  0.3495  0.0934 -0.6903
   36MOL0     C 4774   1.959   9.257   4.198 -0.3564 -0.0224 -0.0644
   36MOL0     N 4775   2.117   8.583   4.426  0.5900 -0.0541  1.0716
   36MOL0     N 4776   2.047   8.471   4.452 -0.1420 -0.2533 -0.1548
   36MOL0     C 4777   0.722   8.367   4.711  0.0249 -0.4127  0.1833
   36MOL0     C 4778   0.588   8.352   4.731  0.9516 -0.9510 -1.0098
   36MOL0     C 4779   0.177   8.233   4.872 -0.3348 -0.7217  0.3215
   36MOL0     C 4780   0.185   8.208   5.008  0.0500 -0.5168 -0.1094
   36MOL0     C 4781   0.072   8.171   5.076 -1.1786  0.5477 -0.2095
   36MOL0     C 4782  -0.057   8.181   5.018 -0.0344  0.3705  0.1407
   36MOL0     O 4783  -0.174   8.161   5.093 -0.0781 -0.2697  0.8571
   36MOL0     C 4784  -0.171   8.210   5.221  0.4449 -0.6059 -0.4598
   36MOL0     C 4785  -0.310   8.210   5.277  0.0055 -0.2003  0.0724
   36MOL0     C 4786  -0.368   8.074   5.277  0.3603 -0.4565 -0.3684
   36MOL0     C 4787  -0.499   8.059   5.359  0.2813  0.3804  0.4484
   36MOL0     C 4788  -0.610   8.124   5.292 -0.8388 -1.0367 -0.8298
   36MOL0     C 4789  -0.693   8.177   5.224 -0.5061  0.3454  0.0807
   36MOL0     C 4790  -0.069   8.216   4.887  0.7532 -0.4890  0.7217
   36MOL0     C 4791   0.048   8.251   4.815 -1.3294 -0.1549  0.8295
   36MOL0     C 4792   0.046   8.318   4.678  0.6295  0.5817 -0.8882
   36MOL0     H 4793   0.591   8.295   5.065  0.3035  2.4121  0.3179
   36MOL0     H 4794   0.820   8.325   5.042 -0.2247  2.3499  1.2460
   36MOL0     H 4795   0.972   8.284   4.624 -1.9410  1.0264 -2.5569
   36MOL0     H 4796   0.945   8.462   4.608 -2.3556 -0.6618 -0.3682
   36MOL0     H 4797   1.179   8.312   4.713 -0.2760 -1.5225 -2.1818
   36MOL0     H 4798   1.178   8.492   4.726  3.1095  0.0462 -1.1831
   36MOL0     H 4799   1.198   8.488   4.480  0.8208 -0.8411 -1.6065
   36MOL0     H 4800   1.160   8.324   4.467 -1.5566  1.9790 -1.7072
   36MOL0     H 4801   1.367   8.247   4.569 -1.0872  0.9618 -1.0883
   36MOL0     H 4802   1.389   8.338   4.421  0.3990  3.6936 -0.9704
   36MOL0     H 4803   1.464   8.525   4.520 -3.3010  0.4872  0.7084
   36MOL0     H 4804   1.396   8.482   4.673 -1.4760  0.8594 -0.4567
   36MOL0     H 4805   1.572   8.351   4.732  0.6091  0.3419  0.1698
   36MOL0     H 4806   1.604   8.282   4.572  0.5096  0.0579  0.6987
   36MOL0     H 4807   1.733   8.517   4.699  0.1450  1.6683 -1.7519
   36MOL0     H 4808   1.692   8.535   4.533 -2.2046  3.2293  3.8663
   36MOL0     H 4809   1.877   8.331   4.655 -2.0822 -1.3560 -0.6432
   36MOL0     H 4810   1.835   8.336   4.483  2.4699  0.0469 -1.7764
   36MOL0     H 4811   1.917   8.666   4.677 -0.9011 -2.1582  0.5335
   36MOL0     H 4812   2.069   8.849   4.624  0.4434  1.0280 -2.3895
   36MOL0     H 4813   2.238   8.780   4.603 -0.8245 -1.7355  3.9712
   36MOL0     H 4814   2.220   8.836   4.357  0.1839  1.9449 -1.3725
   36MOL0     H 4815   2.060   8.904   4.388 -0.3146 -0.6984  0.0852
   36MOL0     H 4816   2.304   8.996   4.530 -1.1279  0.5681  0.8502
   36MOL0     H 4817   2.150   9.083   4.541  2.7964  1.2778  1.2953
   36MOL0     H 4818   2.323   9.035   4.309 -0.4662 -0.2980 -0.5062
   36MOL0     H 4819   2.314   9.194   4.383 -1.9044  0.8613 -0.3465
   36MOL0     H 4820   2.149   9.335   4.476 -0.3102  2.1438  0.9720
   36MOL0     H 4821   1.980   9.504   4.487 -1.0494  1.4843  0.6144
   36MOL0     H 4822   1.613   9.772   4.361 -1.6195  0.6877 -0.8554
   36MOL0     H 4823   1.466   9.964   4.301 -3.0058  0.5513 -1.6339
   36MOL0     H 4824   1.409  10.243   4.131  1.2792 -0.2586  3.0919
   36MOL0     H 4825   1.563  10.162   4.102  0.1348 -1.2645 -0.8638
   36MOL0     H 4826   1.497  10.299   3.905 -1.3589  0.9250 -0.5724
   36MOL0     H 4827   1.521  10.132   3.866 -2.0659 -3.5331  2.3877
   36MOL0     H 4828   1.308  10.255   3.776  0.0604 -0.2051  0.2260
   36MOL0     H 4829   1.292  10.083   3.839 -1.5086 -0.5171 -0.6557
   36MOL0     H 4830   1.227  10.337   3.989  2.0949 -0.5195 -2.3317
   36MOL0     H 4831   1.203  10.170   4.051  1.8234  1.7187  0.8336
   36MOL0     H 4832   1.000  10.136   3.937 -1.8507  0.9404 -2.1803
   36MOL0     H 4833   1.025  10.249   3.823 -0.9587 -0.6573 -0.0411
   36MOL0     H 4834   1.008  10.308   4.126  0.5326 -0.1251 -0.5376
   36MOL0     H 4835   1.007  10.427   4.004  4.5059 -0.7038 -1.3278
   36MOL0     H 4836   0.785  10.267   4.099  3.5961 -2.0605  0.4139
   36MOL0     H 4837   0.801  10.241   3.928  2.3534  0.9156 -2.6223
   36MOL0     H 4838   0.749  10.513   4.069 -1.9160  0.0407  0.8199
   36MOL0     H 4839   0.766  10.493   3.898 -1.2336 -0.1220 -0.0381
   36MOL0     H 4840   1.539   9.904   3.897 -2.1314 -0.4534  0.4905
   36MOL0     H 4841   1.642   9.676   3.942  1.5294  0.8466 -0.4393
   36MOL0     H 4842   1.820   9.398   4.097 -1.4421  1.8315  1.1936
   36MOL0     H 4843   1.937   9.177   4.128  0.7947  0.8955 -1.5393
   36MOL0     H 4844   0.762   8.396   4.614  0.7256  1.5645  1.0077
   36MOL0     H 4845   0.510   8.374   4.659  0.5343  2.3377  0.2776
   36MOL0     H 4846   0.279   8.200   5.062 -0.7162 -1.7649  1.1003
   36MOL0     H 4847   0.080   8.123   5.173 -0.2989 -0.6115 -0.8364
   36MOL0     H 4848  -0.144   8.316   5.219 -3.6525  0.7041  1.9317
   36MOL0     H 4849  -0.111   8.151   5.291  0.9372 -1.6500 -1.7047
   36MOL0     H 4850  -0.358   8.278   5.205 -0.7139 -0.5442  0.2147
   36MOL0     H 4851  -0.315   8.260   5.374 -3.9061  1.3382 -0.7139
   36MOL0     H 4852  -0.296   8.013   5.332  2.8596  0.6121 -2.2369
   36MOL0     H 4853  -0.384   8.037   5.175 -1.4146 -1.6070  0.2872
   36MOL0     H 4854  -0.534   7.959   5.384 -1.0331  0.2616 -1.7037
   36MOL0     H 4855  -0.484   8.110   5.455 -0.2219  1.3200  0.0470
   36MOL0     H 4856  -0.761   8.206   5.147  0.2493 -1.8922 -1.5423
   36MOL0     H 4857  -0.170   8.243   4.856 -0.2128 -1.2203  2.9978
   36MOL0     H 4858   0.092   8.247   4.608  4.1599  1.1007  0.6782
   36MOL0     H 4859  -0.055   8.331   4.640 -0.4578 -0.0191  1.5891
   36MOL0     H 4860   0.105   8.410   4.676  0.4537  0.6910 -1.0377
   37MOL0     O 4861   8.244   4.700  10.353 -0.1368 -0.6047 -0.2898
   37MOL0     C 4862   8.284   4.618  10.271 -0.7386 -0.1264 -0.3007
   37MOL0     O 4863   8.407   4.616  10.215 -0.7550  0.4996  0.3390
   37MOL0     C 4864   8.478   4.737  10.213  0.0768  0.3588  0.1381
   37MOL0     C 4865   8.616   4.713  10.211 -0.0580  0.2830 -0.5372
   37MOL0     C 4866   8.707   4.816  10.188 -0.8109 -0.0278  0.4925
   37MOL0     C 4867   8.666   4.950  10.163  0.2141  0.4252 -0.2853
   37MOL0     O 4868   8.752   5.057  10.158 -0.4727 -0.2370  0.4222
   37MOL0     C 4869   8.740   5.168  10.252  0.1482 -0.3374  0.1661
   37MOL0     C 4870   8.878   5.197  10.312 -0.4941  0.3801  0.6664
   37MOL0     C 4871   8.876   5.291  10.432  0.2916 -0.7045  0.5266
   37MOL0     C 4872   8.853   5.232  10.565 -0.3825  0.6980  0.8849
   37MOL0     C 4873   8.848   5.332  10.675  0.0530  0.0704 -0.1852
   37MOL0     C 4874   8.797   5.283  10.811  0.2833  0.0643  0.9763
   37MOL0     C 4875   8.753   5.386  10.906 -0.3106 -0.0100  0.4287
   37MOL0     C 4876   8.859   5.472  10.975  0.3457 -0.2725 -0.2124
   37MOL0     N 4877   8.971   5.398  11.024 -1.0265  0.5305 -0.0702
   37MOL0     C 4878   8.968   5.306  11.122 -0.6991  0.6202  0.1997
   37MOL0     C 4879   9.090   5.255  11.135 -0.7836 -0.8708  0.7675
   37MOL0     C 4880   9.121   5.131  11.216 -0.0697  0.5708 -0.2429
   37MOL0     C 4881   9.083   5.162  11.363 -0.8473 -0.0920  0.6023
   37MOL0     C 4882   9.033   5.035  11.436  0.8000  0.4776  0.1141
   37MOL0     C 4883   9.141   4.933  11.450  0.1095 -0.1764 -0.4494
   37MOL0     O 4884   9.249   4.990  11.519  0.5360  0.3430 -0.0267
   37MOL0     C 4885   9.366   4.912  11.518  0.1918 -0.2001 -0.3579
   37MOL0     C 4886   9.441   4.892  11.633 -0.4830 -0.7901 -0.2583
   37MOL0     C 4887   9.570   4.845  11.628  0.0928  0.6443  0.6032
   37MOL0     C 4888   9.627   4.787  11.507 -0.1188  0.4660 -0.1853
   37MOL0     C 4889   9.758   4.734  11.485 -0.5565 -0.6025  0.2919
   37MOL0     O 4890   9.777   4.621  11.404 -0.0749  0.0961 -0.1958
   37MOL0     C 4891   9.890   4.538  11.406  0.3483 -0.6565 -0.5105
   37MOL0     C 4892   9.910   4.463  11.291  0.0092 -0.3042 -0.9592
   37MOL0     C 4893  10.030   4.398  11.265  0.1877  0.4420 -0.7873
   37MOL0     C 4894  10.132   4.392  11.365  0.6603 -0.1680 -0.6763
   37MOL0     O 4895  10.246   4.316  11.353  0.2178  0.4135  0.1459
   37MOL0     C 4896  10.277   4.244  11.471 -1.0288 -0.9691  0.3440
   37MOL0     C 4897  10.377   4.142  11.417  0.6069  0.1031  0.6686
   37MOL0     C 4898  10.466   4.081  11.525 -0.4531 -0.1404  0.9903
   37MOL0     C 4899  10.588   4.012  11.457 -0.1499  0.3733 -0.1237
   37MOL0     C 4900  10.689   3.926  11.549  0.2587  0.4515 -0.2768
   37MOL0     C 4901  10.774   4.017  11.636  0.7317 -0.1130 -0.2936
   37MOL0     C 4902  10.903   4.058  11.569  0.3272  0.0725 -1.3035
   37MOL0     C 4903  10.975   4.168  11.643  0.8507 -0.2374 -0.0984
   37MOL0    Cl 4904  10.873   4.316  11.630  0.0329 -0.2972  0.0411
   37MOL0     C 4905  10.112   4.469  11.476  0.6885 -0.4415  0.1865
   37MOL0     C 4906   9.988   4.531  11.503  0.6901 -0.8971  0.0969
   37MOL0     O 4907   9.850   4.801  11.528 -0.4454  0.1793 -0.0516
   37MOL0     C 4908   9.548   4.807  11.393 -0.2203  0.4242 -0.4574
   37MOL0     C 4909   9.421   4.864  11.396 -0.3085 -0.0578 -0.0259
   37MOL0     N 4910   9.163   5.305  11.033  0.1091  0.4207 -0.2848
   37MOL0     N 4911   9.098   5.388  10.968  0.8089 -0.0820  0.5651
   37MOL0     C 4912   8.528   4.979  10.167  0.4489 -0.2731  0.3741
   37MOL0     C 4913   8.442   4.872  10.190  0.3845  0.6428 -0.4207
   37MOL0     C 4914   8.188   4.520  10.207 -1.0804  0.9289  0.4576
   37MOL0     C 4915   8.236   4.420  10.110  0.3477  0.1275 -0.4287
   37MOL0     C 4916   8.147   4.345  10.037 -0.2060  0.4609 -0.8152
   37MOL0     C 4917   8.013   4.339  10.075  0.8038 -0.3240  0.0836
   37MOL0     O 4918   7.928   4.231  10.037 -0.3737 -0.4861 -0.5561
   37MOL0     C 4919   7.874   4.255   9.900 -0.3695  0.9303 -0.0788
   37MOL0     C 4920   7.725   4.258   9.921  0.3489 -0.4135 -0.0108
   37MOL0     C 4921   7.653   4.125   9.948  0.1157 -0.4261 -0.4384
   37MOL0     C 4922   7.553   4.136  10.062 -0.5737 -0.6258  0.1206
   37MOL0     C 4923   7.448   4.028  10.070 -0.1812 -0.0065  0.8246
   37MOL0     C 4924   7.359   3.952  10.095  0.9792 -0.7975 -1.1781
   37MOL0     C 4925   7.965   4.426  10.177  0.7235 -0.5450  0.5819
   37MOL0     C 4926   8.049   4.513  10.243 -0.2392 -0.5759  0.8618
   37MOL0     C 4927   7.980   4.602  10.341 -0.4030 -0.6193  0.7315
   37MOL0     H 4928   8.640   4.608  10.226 -0.9589  0.0366 -0.7563
   37MOL0     H 4929   8.814   4.796  10.181 -0.6595  1.2558 -3.9343
   37MOL0     H 4930   8.701   5.260  10.207  2.6873  0.3966 -0.7026
   37MOL0     H 4931   8.674   5.133  10.331 -0.6869 -0.1866 -0.4463
   37MOL0     H 4932   8.942   5.239  10.234 -0.5465 -2.0795 -0.8029
   37MOL0     H 4933   8.931   5.104  10.336 -0.6552 -0.6646 -2.5595
   37MOL0     H 4934   8.804   5.373  10.422 -0.5566 -1.3878  0.8519
   37MOL0     H 4935   8.972   5.343  10.432  1.0469 -2.0109 -1.3589
   37MOL0     H 4936   8.762   5.173  10.551  0.2113  0.0708 -0.5172
   37MOL0     H 4937   8.930   5.157  10.583  0.9834  2.1716  1.3599
   37MOL0     H 4938   8.940   5.391  10.686 -1.0676  1.6310  1.1895
   37MOL0     H 4939   8.774   5.399  10.631  1.8955  1.5042 -1.2431
   37MOL0     H 4940   8.704   5.227  10.796 -0.8708  2.4076 -1.2470
   37MOL0     H 4941   8.872   5.213  10.850 -1.4046 -2.1953  0.3341
   37MOL0     H 4942   8.696   5.323  10.975 -1.1964 -1.2424 -1.3477
   37MOL0     H 4943   8.681   5.458  10.866 -3.4138 -1.6091  2.6290
   37MOL0     H 4944   8.900   5.548  10.908 -0.8099 -0.7198 -1.4832
   37MOL0     H 4945   8.815   5.525  11.060 -1.9977 -0.3408 -1.3009
   37MOL0     H 4946   8.877   5.282  11.177 -2.1519 -1.2397 -2.7457
   37MOL0     H 4947   9.064   5.048  11.175 -0.6091  1.0081 -0.3986
   37MOL0     H 4948   9.227   5.104  11.211  0.4516  2.6361 -1.9105
   37MOL0     H 4949   9.168   5.213  11.409 -1.2956  1.0230  0.2396
   37MOL0     H 4950   8.995   5.228  11.361 -1.2003 -0.5190  1.4551
   37MOL0     H 4951   8.948   4.984  11.389  0.7854 -0.4333  1.0838
   37MOL0     H 4952   9.000   5.065  11.536  0.0713 -2.1496  0.7389
   37MOL0     H 4953   9.168   4.888  11.354  1.2442 -2.5938  0.9082
   37MOL0     H 4954   9.101   4.848  11.508  1.1118 -0.0002  0.5196
   37MOL0     H 4955   9.412   4.948  11.722  4.4326  0.5274  0.7883
   37MOL0     H 4956   9.632   4.864  11.716  2.0512  0.0769 -0.5894
   37MOL0     H 4957   9.836   4.463  11.212 -1.7179  0.5659  0.5754
   37MOL0     H 4958  10.057   4.334  11.181 -0.4557 -0.7232 -0.1412
   37MOL0     H 4959  10.323   4.303  11.551 -1.6857 -0.9562  0.7200
   37MOL0     H 4960  10.193   4.193  11.518 -0.7968  0.3066  2.2578
   37MOL0     H 4961  10.321   4.055  11.383  1.2456  1.1415 -3.6311
   37MOL0     H 4962  10.436   4.188  11.338  1.5849  1.6156  2.1955
   37MOL0     H 4963  10.508   4.164  11.582  1.5929  0.7709 -1.6479
   37MOL0     H 4964  10.410   4.015  11.592 -3.1613 -0.1015 -1.0366
   37MOL0     H 4965  10.646   4.089  11.404 -2.6684  3.6372  1.5368
   37MOL0     H 4966  10.548   3.942  11.383 -0.3603 -0.0574  0.3900
   37MOL0     H 4967  10.754   3.871  11.481 -0.2922 -2.2169  1.2202
   37MOL0     H 4968  10.640   3.850  11.610  1.6737  0.3441  0.7794
   37MOL0     H 4969  10.718   4.104  11.672  0.4642  0.3720 -1.8228
   37MOL0     H 4970  10.804   3.958  11.724 -1.3176 -0.5842  0.1477
   37MOL0     H 4971  10.884   4.112  11.476  2.5962 -0.8344 -2.3703
   37MOL0     H 4972  10.963   3.969  11.548  0.4223  0.1449 -1.3392
   37MOL0     H 4973  10.998   4.143  11.747 -1.7028 -1.5575  0.2286
   37MOL0     H 4974  11.073   4.200  11.606  1.6257 -0.7327  1.4022
   37MOL0     H 4975  10.180   4.483  11.559  1.4689 -0.2694 -0.4791
   37MOL0     H 4976   9.975   4.598  11.588 -0.9137 -1.7519  0.5630
   37MOL0     H 4977   9.592   4.773  11.300 -0.8415  0.7340 -0.8649
   37MOL0     H 4978   9.372   4.889  11.303  1.7648  1.5503 -0.7644
   37MOL0     H 4979   8.488   5.078  10.147 -0.6136 -0.3429  1.9957
   37MOL0     H 4980   8.334   4.882  10.177  0.6862  1.5641 -2.5591
   37MOL0     H 4981   8.340   4.413  10.081 -0.1058 -3.5000 -1.7456
   37MOL0     H 4982   8.188   4.255   9.991 -1.0964 -0.5623  0.3266
   37MOL0     H 4983   7.906   4.177   9.830  3.6724  2.0626  0.2449
   37MOL0     H 4984   7.911   4.352   9.865 -2.2532  0.6783 -3.1597
   37MOL0     H 4985   7.673   4.309   9.840 -1.6462  0.7151  1.8532
   37MOL0     H 4986   7.710   4.332  10.000 -0.5291 -1.5886  0.9582
   37MOL0     H 4987   7.729   4.053   9.980  2.5658  1.4884 -1.5742
   37MOL0     H 4988   7.606   4.095   9.854 -3.6208  0.1688  1.1071
   37MOL0     H 4989   7.600   4.155  10.159  0.6154  2.4093 -0.9383
   37MOL0     H 4990   7.510   4.235  10.045  1.5096  0.7360  2.2709
   37MOL0     H 4991   7.283   3.879  10.115 -0.2717  0.9961  1.1379
   37MOL0     H 4992   7.863   4.408  10.208  0.3236  0.8503  0.1475
   37MOL0     H 4993   7.877   4.612  10.306 -0.8462 -0.8708  1.8994
   37MOL0     H 4994   7.988   4.558  10.441  0.5124  0.4601  1.1602
   37MOL0     H 4995   8.024   4.702  10.352  1.3402 -1.4326  1.3959
   38MOL0     O 4996   8.867   5.426   1.665 -0.4360 -0.8571 -0.1181
   38MOL0     C 4997   8.795   5.481   1.750 -0.2135  0.7801 -0.1078
   38MOL0     O 4998   8.834   5.522   1.875  0.4030  0.1405 -0.1605
   38MOL0     C 4999   8.965   5.510   1.911  0.6452  0.2646  0.9983
   38MOL0     C 5000   9.017   5.382   1.925 -0.5552  1.1813  0.3888
   38MOL0     C 5001   9.151   5.362   1.940 -0.9962 -0.4632  0.0847
   38MOL0     C 5002   9.237   5.472   1.971 -0.0031  0.3824 -0.1064
   38MOL0     O 5003   9.364   5.445   1.996 -0.8828  1.1660 -0.2218
   38MOL0     C 5004   9.459   5.539   1.944  0.3415  0.3769  0.2009
   38MOL0     C 5005   9.588   5.469   1.932  0.2126 -0.2033 -0.5142
   38MOL0     C 5006   9.682   5.566   1.849  0.0848 -0.4653  0.9493
   38MOL0     C 5007   9.824   5.502   1.866  0.1496  0.7874  0.0434
   38MOL0     C 5008   9.938   5.600   1.829  0.5283 -1.3866 -0.8120
   38MOL0     C 5009   9.946   5.723   1.925 -0.1191 -0.5882  0.3404
   38MOL0     C 5010  10.087   5.782   1.939 -0.5428  0.0810  0.0988
   38MOL0     C 5011  10.081   5.894   2.046 -0.1875 -0.7520  0.0124
   38MOL0     N 5012  10.217   5.954   2.071  1.0903  0.7241  0.4484
   38MOL0     C 5013  10.306   5.918   2.165 -0.4290  0.5849  0.2915
   38MOL0     C 5014  10.418   5.996   2.153 -0.2084 -0.3383  0.0775
   38MOL0     C 5015  10.531   5.987   2.250  0.1415 -0.9564 -0.5030
   38MOL0     C 5016  10.650   6.068   2.205 -0.7765 -0.2955  0.0353
   38MOL0     C 5017  10.762   6.072   2.308 -0.3602 -0.3915 -0.3042
   38MOL0     C 5018  10.890   6.151   2.281 -0.2684  0.2605 -0.2986
   38MOL0     O 5019  10.962   6.071   2.191  0.0675  0.0418 -0.5516
   38MOL0     C 5020  11.104   6.064   2.215 -0.2877  0.8699  0.1331
   38MOL0     C 5021  11.169   5.952   2.160 -0.2198 -0.0064  0.8692
   38MOL0     C 5022  11.303   5.933   2.184 -0.2216 -0.1003 -0.1476
   38MOL0     C 5023  11.380   6.026   2.249 -0.0615 -0.3363 -0.0633
   38MOL0     C 5024  11.526   6.016   2.265 -0.3225  0.9714  0.0882
   38MOL0     O 5025  11.589   5.931   2.165 -0.1579 -0.0139 -0.8840
   38MOL0     C 5026  11.726   5.934   2.150 -0.6827  0.4042 -0.0265
   38MOL0     C 5027  11.802   6.049   2.164  0.3056 -0.5943  0.2606
   38MOL0     C 5028  11.940   6.063   2.140  1.0489  0.8580  0.3843
   38MOL0     C 5029  12.011   5.950   2.107 -0.6992  0.1961 -0.6702
   38MOL0     O 5030  12.148   5.956   2.085  0.8801  0.0639 -0.6519
   38MOL0     C 5031  12.192   5.949   1.949 -0.0278  0.1392  0.2633
   38MOL0     C 5032  12.336   5.979   1.930  0.5488 -0.3017  0.0589
   38MOL0     C 5033  12.362   5.977   1.780  0.5438  0.4211 -0.2273
   38MOL0     C 5034  12.513   6.003   1.756  0.4111 -0.3452  0.0156
   38MOL0     C 5035  12.606   5.886   1.776  0.1126 -0.0602  0.1950
   38MOL0     C 5036  12.751   5.888   1.730 -0.1752  0.3576 -0.1605
   38MOL0     C 5037  12.836   5.997   1.792 -0.0465 -0.2864  0.0921
   38MOL0     C 5038  12.982   5.990   1.748  0.8429  0.1072 -0.2381
   38MOL0    Cl 5039  12.989   6.044   1.580  0.0112  0.1294 -0.1799
   38MOL0     C 5040  11.937   5.828   2.080  0.1843  0.3752 -0.4372
   38MOL0     C 5041  11.792   5.825   2.094 -0.3259  0.2645 -0.3149
   38MOL0     O 5042  11.580   6.075   2.357  0.5114 -0.2174 -0.0032
   38MOL0     C 5043  11.313   6.141   2.294 -0.8689 -0.3139  0.3102
   38MOL0     C 5044  11.179   6.165   2.276 -0.3999  0.0699  0.4160
   38MOL0     N 5045  10.392   6.085   2.048 -0.3667  0.2642 -0.5614
   38MOL0     N 5046  10.281   6.056   2.006  0.6473  0.1981  0.3997
   38MOL0     C 5047   9.180   5.604   1.978  0.5597 -0.6967 -0.2476
   38MOL0     C 5048   9.044   5.621   1.939 -0.3963 -0.1397 -0.1728
   38MOL0     C 5049   8.655   5.504   1.715  0.6398  0.2669  0.2592
   38MOL0     C 5050   8.589   5.606   1.788  0.0839  0.2040  0.5236
   38MOL0     C 5051   8.453   5.633   1.754 -0.0571  0.1224 -0.2714
   38MOL0     C 5052   8.385   5.564   1.653  0.5394 -0.6318 -0.5458
   38MOL0     O 5053   8.253   5.595   1.629 -0.8254  0.0898  0.2729
   38MOL0     C 5054   8.201   5.715   1.690  0.6846 -0.9010  0.4914
   38MOL0     C 5055   8.059   5.735   1.625  0.5536  0.5926  0.2259
   38MOL0     C 5056   7.970   5.599   1.646 -0.0292  0.4447 -0.0273
   38MOL0     C 5057   7.815   5.624   1.617 -0.4993 -0.4142  0.4213
   38MOL0     C 5058   7.757   5.738   1.685  0.0424 -0.9955  0.1753
   38MOL0     C 5059   7.709   5.836   1.748  0.2048  0.1390  0.6683
   38MOL0     C 5060   8.448   5.459   1.589  0.7292 -0.7305 -0.7830
   38MOL0     C 5061   8.582   5.423   1.623 -0.6409  0.1572 -0.0379
   38MOL0     C 5062   8.635   5.298   1.561  0.5756  0.2681  0.2232
   38MOL0     H 5063   8.952   5.296   1.918  2.8672 -1.6421  0.1437
   38MOL0     H 5064   9.199   5.265   1.945  2.0897  0.8121 -1.5143
   38MOL0     H 5065   9.425   5.567   1.844 -2.8734 -1.3998  0.6449
   38MOL0     H 5066   9.478   5.618   2.018  0.4520 -0.0637  0.6513
   38MOL0     H 5067   9.581   5.367   1.894 -2.1020 -1.1539  2.2063
   38MOL0     H 5068   9.634   5.459   2.030  1.4089  2.7954 -0.6562
   38MOL0     H 5069   9.672   5.660   1.904 -2.3532 -1.3635  2.1871
   38MOL0     H 5070   9.661   5.586   1.744  1.4504  2.9382  1.2054
   38MOL0     H 5071   9.836   5.459   1.966 -2.4238  0.5168  0.3128
   38MOL0     H 5072   9.826   5.417   1.797 -0.5194 -0.2153  1.2175
   38MOL0     H 5073  10.029   5.541   1.840  1.9122  0.4680 -1.6499
   38MOL0     H 5074   9.914   5.633   1.727  1.2396 -0.7431 -0.7829
   38MOL0     H 5075   9.883   5.803   1.888  2.5113  2.2616  1.5999
   38MOL0     H 5076   9.915   5.699   2.027 -0.3293 -0.6251  0.2680
   38MOL0     H 5077  10.118   5.826   1.844  2.1226 -2.6048 -0.3942
   38MOL0     H 5078  10.157   5.703   1.966 -0.9520  0.4117  2.2892
   38MOL0     H 5079  10.008   5.969   2.013  0.3718 -1.5958 -3.4915
   38MOL0     H 5080  10.048   5.855   2.143  0.6304 -1.4005  0.0308
   38MOL0     H 5081  10.304   5.844   2.245  4.2025 -1.0255 -0.7415
   38MOL0     H 5082  10.500   6.030   2.346  0.2128  0.9199 -1.2685
   38MOL0     H 5083  10.562   5.884   2.269  4.1269  0.0167 -0.7333
   38MOL0     H 5084  10.694   6.019   2.118 -4.1871 -3.2206 -0.3005
   38MOL0     H 5085  10.609   6.167   2.181  0.4719  0.2928  0.2812
   38MOL0     H 5086  10.812   5.978   2.334  2.7422  1.4580  0.9505
   38MOL0     H 5087  10.728   6.121   2.400 -0.5972  0.2375 -0.7189
   38MOL0     H 5088  10.944   6.164   2.375 -1.4207 -2.4818  0.8803
   38MOL0     H 5089  10.860   6.249   2.244 -0.7834 -0.4431 -1.8172
   38MOL0     H 5090  11.108   5.880   2.106 -1.8891  0.0402  2.5967
   38MOL0     H 5091  11.368   5.852   2.153  2.2897  1.0923  1.6227
   38MOL0     H 5092  11.743   6.138   2.179 -0.9153 -1.8105  3.6918
   38MOL0     H 5093  11.980   6.163   2.156  0.5328  0.7398  2.8727
   38MOL0     H 5094  12.166   5.852   1.905  2.0382 -0.2259 -0.2684
   38MOL0     H 5095  12.138   6.023   1.889 -2.2623  0.7120  2.7811
   38MOL0     H 5096  12.345   6.082   1.967 -2.8899  0.6282 -1.3027
   38MOL0     H 5097  12.404   5.912   1.984  0.6717  0.9741  1.5712
   38MOL0     H 5098  12.314   5.888   1.736  0.4109  1.4098 -2.2125
   38MOL0     H 5099  12.311   6.063   1.734  0.6151  0.6503  0.1245
   38MOL0     H 5100  12.540   6.087   1.821  1.4934 -2.1564  2.0515
   38MOL0     H 5101  12.519   6.042   1.654 -2.7545 -2.4782 -1.1166
   38MOL0     H 5102  12.571   5.788   1.742  0.4051 -0.9994  2.3769
   38MOL0     H 5103  12.613   5.882   1.885  0.5372 -0.9331  0.1447
   38MOL0     H 5104  12.798   5.794   1.760 -1.8217 -0.4737 -0.0559
   38MOL0     H 5105  12.760   5.891   1.621  0.3371  0.1881 -0.1281
   38MOL0     H 5106  12.851   5.979   1.899 -2.0059  0.3207  0.4929
   38MOL0     H 5107  12.803   6.100   1.774 -1.2831 -0.9080 -1.4213
   38MOL0     H 5108  13.040   6.057   1.812 -0.6177  0.8062  0.3861
   38MOL0     H 5109  13.031   5.892   1.753 -0.5564 -0.6175 -0.3669
   38MOL0     H 5110  11.983   5.738   2.041  0.0632 -0.6342  1.5928
   38MOL0     H 5111  11.739   5.734   2.064  1.6742 -1.3202  0.7024
   38MOL0     H 5112  11.373   6.220   2.339  0.0235 -1.3816  1.0574
   38MOL0     H 5113  11.145   6.264   2.306  1.2454  1.7631 -2.6710
   38MOL0     H 5114   9.232   5.695   2.007  0.2093 -0.7400  0.5131
   38MOL0     H 5115   8.995   5.718   1.934 -3.2124 -1.4276  0.9876
   38MOL0     H 5116   8.644   5.672   1.854  2.3892  0.5035 -1.5541
   38MOL0     H 5117   8.403   5.714   1.808 -0.2579 -0.9882  1.2931
   38MOL0     H 5118   8.269   5.798   1.671  2.4424 -2.7256 -1.8738
   38MOL0     H 5119   8.189   5.698   1.797  0.6292  1.2278  0.8520
   38MOL0     H 5120   8.066   5.751   1.517 -2.3517  2.3330  0.1994
   38MOL0     H 5121   8.015   5.825   1.668 -0.1435  0.8408 -0.9517
   38MOL0     H 5122   7.990   5.558   1.745  1.4186 -1.8784 -1.1993
   38MOL0     H 5123   8.005   5.519   1.580 -2.0943 -0.8016  0.2950
   38MOL0     H 5124   7.799   5.639   1.509  1.2911 -2.0885 -0.1368
   38MOL0     H 5125   7.748   5.540   1.637 -3.1617  1.7290  1.1760
   38MOL0     H 5126   7.682   5.930   1.792 -0.2784  1.7094 -2.7091
   38MOL0     H 5127   8.391   5.394   1.523 -0.5964 -0.1431 -0.2583
   38MOL0     H 5128   8.685   5.331   1.469  4.4247  1.8069  2.6242
   38MOL0     H 5129   8.703   5.249   1.631  0.6895 -1.4386 -1.0338
   38MOL0     H 5130   8.558   5.232   1.521  1.5402  1.4296 -4.0925
   39MOL0     O 5131   4.706   2.167   3.444  1.0763 -0.1574 -0.7500
   39MOL0     C 5132   4.657   2.057   3.462  0.0192 -0.0053 -0.5030
   39MOL0     O 5133   4.684   1.981   3.564  0.1623  0.8343  0.4788
   39MOL0     C 5134   4.770   2.034   3.666 -0.5719  0.5365 -0.5141
   39MOL0     C 5135   4.873   1.948   3.705  0.5930  0.8332  0.2701
   39MOL0     C 5136   4.954   1.973   3.810 -0.0408  0.7782 -0.0406
   39MOL0     C 5137   4.949   2.093   3.882  0.6203  0.6357  0.2026
   39MOL0     O 5138   5.035   2.102   3.992 -0.3623  0.2181 -0.2867
   39MOL0     C 5139   5.041   2.230   4.062  0.9334 -0.2917 -0.0413
   39MOL0     C 5140   5.078   2.187   4.213 -0.0264  0.1433 -0.5062
   39MOL0     C 5141   5.214   2.104   4.209  0.6193  0.2193  0.0360
   39MOL0     C 5142   5.240   2.040   4.341  0.3154  0.0629  0.0955
   39MOL0     C 5143   5.380   1.986   4.348  0.3197  0.5055  0.0311
   39MOL0     C 5144   5.420   1.955   4.494 -0.0015 -0.4676  0.0766
   39MOL0     C 5145   5.569   1.948   4.522 -0.1684 -0.5274 -0.3439
   39MOL0     C 5146   5.624   1.802   4.523 -0.4582  0.0507 -0.3029
   39MOL0     N 5147   5.770   1.794   4.539  0.0354  0.4508  0.1887
   39MOL0     C 5148   5.830   1.699   4.620  0.0943 -0.1631 -0.4227
   39MOL0     C 5149   5.959   1.730   4.611 -0.3066 -0.2086 -0.2318
   39MOL0     C 5150   6.083   1.681   4.675 -0.2100 -0.7720 -0.5882
   39MOL0     C 5151   6.160   1.583   4.583  0.6675 -0.1332 -0.2992
   39MOL0     C 5152   6.233   1.662   4.467 -0.3644  0.1781 -0.9304
   39MOL0     C 5153   6.306   1.580   4.357  0.0449  0.1931  0.3035
   39MOL0     O 5154   6.413   1.520   4.430 -0.5401  0.1923 -0.5132
   39MOL0     C 5155   6.520   1.446   4.379  0.5328  0.1774  0.5327
   39MOL0     C 5156   6.618   1.398   4.464 -0.2274  0.7750  0.7255
   39MOL0     C 5157   6.728   1.333   4.405  0.4398  0.7989 -0.4908
   39MOL0     C 5158   6.728   1.299   4.265  0.0229 -0.0837  1.0132
   39MOL0     C 5159   6.832   1.216   4.207 -0.1306 -0.9960 -0.7608
   39MOL0     O 5160   6.857   1.246   4.078  0.2136  0.1557 -0.3119
   39MOL0     C 5161   6.968   1.203   4.004 -0.3600 -0.9569 -0.7861
   39MOL0     C 5162   6.975   1.235   3.870  0.2086 -0.7048 -0.0478
   39MOL0     C 5163   7.077   1.188   3.790 -0.4582 -0.0198 -0.1872
   39MOL0     C 5164   7.169   1.090   3.843  0.3036  0.2584 -0.9354
   39MOL0     O 5165   7.248   1.028   3.751 -0.4129  0.1103  0.3959
   39MOL0     C 5166   7.387   1.005   3.793 -0.3293  0.0386 -0.3113
   39MOL0     C 5167   7.459   1.037   3.676  0.8672 -1.0078  0.0214
   39MOL0     C 5168   7.605   1.059   3.702 -0.8228  0.4123  0.3414
   39MOL0     C 5169   7.650   1.191   3.770  0.0492  0.6536 -0.6140
   39MOL0     C 5170   7.795   1.186   3.810  0.5004 -0.2811  0.9202
   39MOL0     C 5171   7.828   1.322   3.867 -0.0160  0.3891 -0.0107
   39MOL0     C 5172   7.977   1.326   3.918  0.1659  0.0604 -1.4299
   39MOL0     C 5173   8.075   1.397   3.828 -0.8080 -1.4747  0.3514
   39MOL0    Cl 5174   8.209   1.459   3.929  0.4544 -0.0487  0.1803
   39MOL0     C 5175   7.170   1.056   3.974  0.0795  0.6939  0.0154
   39MOL0     C 5176   7.075   1.123   4.057  0.6243  0.0774 -0.2940
   39MOL0     O 5177   6.894   1.144   4.278 -0.2615 -0.4845 -0.5045
   39MOL0     C 5178   6.631   1.348   4.177  0.7801  0.0244 -0.1869
   39MOL0     C 5179   6.529   1.432   4.239  1.0109 -0.2737 -0.4813
   39MOL0     N 5180   5.975   1.849   4.542  0.4820 -0.3190  0.5025
   39MOL0     N 5181   5.863   1.885   4.499  0.0688 -0.2804 -1.4832
   39MOL0     C 5182   4.854   2.184   3.836 -0.2498 -0.4562 -0.0522
   39MOL0     C 5183   4.759   2.151   3.742  0.3201 -0.0427  0.1198
   39MOL0     C 5184   4.581   2.004   3.343 -0.3769 -0.3051 -0.0620
   39MOL0     C 5185   4.581   1.866   3.330 -0.1812 -0.1316 -0.2208
   39MOL0     C 5186   4.519   1.805   3.219 -0.5196  0.2523 -0.2037
   39MOL0     C 5187   4.433   1.870   3.129 -0.3130  0.0286  0.2435
   39MOL0     O 5188   4.365   1.805   3.027  0.5633 -0.6489  0.3027
   39MOL0     C 5189   4.323   1.668   3.052  1.2826 -0.2991 -1.2043
   39MOL0     C 5190   4.183   1.635   3.011  0.1262  0.5244  0.1811
   39MOL0     C 5191   4.153   1.674   2.863 -1.1408 -0.3497  0.3617
   39MOL0     C 5192   4.016   1.614   2.823  0.3621  0.5446  0.3285
   39MOL0     C 5193   4.026   1.468   2.819  0.7594  0.1612  0.8101
   39MOL0     C 5194   4.005   1.345   2.830 -0.3595  0.3073  0.1131
   39MOL0     C 5195   4.422   2.010   3.158  0.2923 -0.4294  0.0287
   39MOL0     C 5196   4.502   2.077   3.251 -0.0977 -0.2820 -0.5766
   39MOL0     C 5197   4.485   2.227   3.269 -0.1876 -0.0912  0.4356
   39MOL0     H 5198   4.889   1.857   3.648  0.2406  0.2495  1.0881
   39MOL0     H 5199   5.004   1.884   3.846 -1.7641  0.9559  3.1264
   39MOL0     H 5200   5.117   2.298   4.022 -1.0917  0.8289 -2.2203
   39MOL0     H 5201   4.941   2.274   4.058 -0.6895 -3.3620  2.2021
   39MOL0     H 5202   5.002   2.132   4.270 -0.4708  0.5844 -0.6678
   39MOL0     H 5203   5.096   2.278   4.270 -0.2512  1.6250 -2.6945
   39MOL0     H 5204   5.292   2.177   4.186 -2.6368  3.5241 -1.5064
   39MOL0     H 5205   5.205   2.026   4.132  1.2611 -1.5388  1.6677
   39MOL0     H 5206   5.208   2.108   4.420 -0.2677 -0.3428  0.2180
   39MOL0     H 5207   5.177   1.951   4.348  0.3202 -0.0394 -0.9775
   39MOL0     H 5208   5.386   1.894   4.290  3.6289 -0.6408  1.9408
   39MOL0     H 5209   5.458   2.056   4.316  1.0626 -0.3531 -0.0615
   39MOL0     H 5210   5.370   2.029   4.557  0.9098 -0.4246  0.7635
   39MOL0     H 5211   5.381   1.855   4.514 -2.2981 -0.0299 -1.7444
   39MOL0     H 5212   5.576   1.987   4.624 -0.2103  0.7459 -0.8081
   39MOL0     H 5213   5.627   2.015   4.457  0.1966  1.7516  2.1456
   39MOL0     H 5214   5.580   1.744   4.605 -1.1373 -2.1543 -2.1286
   39MOL0     H 5215   5.592   1.754   4.430 -0.3705 -0.3287 -0.1347
   39MOL0     H 5216   5.784   1.619   4.677 -1.0088  0.6327 -0.1617
   39MOL0     H 5217   6.150   1.767   4.689 -1.4727  0.7358 -2.9815
   39MOL0     H 5218   6.063   1.616   4.760 -0.7303 -0.1226 -0.1995
   39MOL0     H 5219   6.238   1.538   4.645  1.0399 -0.0109 -0.6790
   39MOL0     H 5220   6.088   1.509   4.546  0.0266  0.4762 -0.3089
   39MOL0     H 5221   6.309   1.729   4.508  0.8117 -1.0951 -0.9580
   39MOL0     H 5222   6.158   1.718   4.410  0.8988  0.3663 -2.4712
   39MOL0     H 5223   6.334   1.649   4.277 -1.8745  0.4421 -0.1804
   39MOL0     H 5224   6.242   1.510   4.303 -1.5472  0.6401  1.5519
   39MOL0     H 5225   6.612   1.421   4.570 -0.5274  2.0808  0.4412
   39MOL0     H 5226   6.816   1.309   4.463  0.3522  1.2012 -0.1841
   39MOL0     H 5227   6.907   1.311   3.832  2.0152  0.9874 -0.0866
   39MOL0     H 5228   7.071   1.211   3.684 -2.3175 -0.9507 -0.3345
   39MOL0     H 5229   7.405   1.076   3.874 -2.8576 -0.6268  0.9464
   39MOL0     H 5230   7.405   0.900   3.817 -1.6425 -0.8984 -3.0234
   39MOL0     H 5231   7.450   0.950   3.609  0.7405 -2.2570  1.5941
   39MOL0     H 5232   7.420   1.126   3.627  4.1424 -0.4468 -1.8715
   39MOL0     H 5233   7.625   0.974   3.768 -0.3210  1.8846  2.1761
   39MOL0     H 5234   7.666   1.048   3.612  2.1264 -0.9353  2.3672
   39MOL0     H 5235   7.593   1.214   3.861  0.9520  1.0788 -0.1407
   39MOL0     H 5236   7.632   1.267   3.694 -0.0430  0.0747 -1.1767
   39MOL0     H 5237   7.858   1.164   3.724 -0.1792 -0.5074  0.4733
   39MOL0     H 5238   7.812   1.104   3.881  0.0425 -2.2899 -1.1749
   39MOL0     H 5239   7.826   1.399   3.788  1.7978  1.4266  0.8769
   39MOL0     H 5240   7.760   1.351   3.947  1.1689  1.7483  0.5705
   39MOL0     H 5241   8.016   1.224   3.926 -1.5648 -0.5072  0.7611
   39MOL0     H 5242   7.981   1.376   4.015 -0.1825  0.1894 -1.4827
   39MOL0     H 5243   8.117   1.333   3.749 -3.3557 -1.8804 -0.7731
   39MOL0     H 5244   8.031   1.474   3.765  0.9145 -2.0053 -1.5963
   39MOL0     H 5245   7.244   0.992   4.021 -0.2105  0.9610  0.8410
   39MOL0     H 5246   7.082   1.095   4.162 -2.6810  1.7744  0.5217
   39MOL0     H 5247   6.635   1.343   4.069 -2.3733 -0.0195 -0.3790
   39MOL0     H 5248   6.449   1.476   4.182  0.6698 -1.1688 -0.7157
   39MOL0     H 5249   4.843   2.274   3.896 -0.7171 -0.4121 -0.2018
   39MOL0     H 5250   4.675   2.219   3.731 -0.2815 -0.2784  2.6700
   39MOL0     H 5251   4.629   1.809   3.409  1.1275 -0.4110 -1.1868
   39MOL0     H 5252   4.541   1.700   3.206  0.0858  0.1636  1.3107
   39MOL0     H 5253   4.330   1.651   3.160  0.2924  0.7450 -0.9518
   39MOL0     H 5254   4.385   1.607   2.985  1.1209  1.5057 -3.0938
   39MOL0     H 5255   4.110   1.695   3.067 -2.3838  0.1266 -2.4218
   39MOL0     H 5256   4.160   1.531   3.037 -1.8787  0.3549 -1.9515
   39MOL0     H 5257   4.228   1.639   2.792 -1.0250  1.1135 -0.2681
   39MOL0     H 5258   4.155   1.784   2.857 -0.9642 -0.4127 -1.0773
   39MOL0     H 5259   3.941   1.658   2.889  1.3674  4.1899 -0.7306
   39MOL0     H 5260   3.993   1.653   2.723  0.1336  1.8461  0.8634
   39MOL0     H 5261   3.983   1.240   2.829 -0.8732  0.4074  0.4099
   39MOL0     H 5262   4.356   2.063   3.090 -1.0566 -0.6449  1.1177
   39MOL0     H 5263   4.551   2.285   3.204  1.7593  0.5939  2.8827
   39MOL0     H 5264   4.384   2.260   3.245 -0.4232 -0.8662  0.3304
   39MOL0     H 5265   4.501   2.267   3.369  0.6076  0.2345  0.1841
   40MOL0     O 5266   1.168   9.983  10.672  0.1325  0.0776  0.0584
   40MOL0     C 5267   1.098  10.085  10.654 -1.1655 -0.5276 -0.0340
   40MOL0     O 5268   1.116  10.204  10.725 -0.3577  0.4823  0.1211
   40MOL0     C 5269   1.245  10.231  10.755 -0.0395  0.7266  0.2149
   40MOL0     C 5270   1.300  10.162  10.861  0.2406  0.6153  0.1728
   40MOL0     C 5271   1.436  10.164  10.893  0.8268 -0.0217  0.6936
   40MOL0     C 5272   1.525  10.231  10.809 -0.0427  0.3030 -0.0594
   40MOL0     O 5273   1.657  10.257  10.827 -0.0314  0.3811  0.0925
   40MOL0     C 5274   1.753  10.155  10.846  0.5603  0.2127 -0.4858
   40MOL0     C 5275   1.889  10.215  10.833  0.3245 -0.0489 -0.0047
   40MOL0     C 5276   1.987  10.130  10.910  0.9578  0.5248  0.3243
   40MOL0     C 5277   2.129  10.180  10.919  0.2057  0.7518 -0.1965
   40MOL0     C 5278   2.207  10.091  11.015  0.7549  0.0117  0.0295
   40MOL0     C 5279   2.352  10.126  10.996 -0.0549 -0.5919  0.7857
   40MOL0     C 5280   2.435  10.034  11.087  0.7501 -0.1514 -0.3663
   40MOL0     C 5281   2.577  10.085  11.120  0.3072  0.3238 -1.2941
   40MOL0     N 5282   2.644  10.001  11.223  0.6066  1.0310  0.7900
   40MOL0     C 5283   2.771   9.956  11.213  0.1469  1.0569 -0.0417
   40MOL0     C 5284   2.795   9.889  11.331 -0.0494  0.3289  0.8200
   40MOL0     C 5285   2.916   9.826  11.388 -0.3065 -0.2711 -0.7411
   40MOL0     C 5286   2.935   9.680  11.357 -0.0180  0.0051 -1.5770
   40MOL0     C 5287   2.982   9.665  11.209 -0.0038 -0.1707 -1.5702
   40MOL0     C 5288   3.022   9.520  11.159 -0.0903  0.2845  0.8535
   40MOL0     O 5289   3.131   9.473  11.231 -0.2583  0.7340  0.0295
   40MOL0     C 5290   3.263   9.509  11.200  0.1421  0.5797 -0.3857
   40MOL0     C 5291   3.362   9.457  11.284  0.2948  0.3734  0.0191
   40MOL0     C 5292   3.496   9.479  11.256 -0.0453  0.3097 -0.5343
   40MOL0     C 5293   3.531   9.553  11.139  0.3921 -0.4755  0.2663
   40MOL0     C 5294   3.676   9.565  11.095 -0.2745  0.6682 -0.1568
   40MOL0     O 5295   3.704   9.653  11.001 -0.9113  0.1319 -0.5012
   40MOL0     C 5296   3.830   9.673  10.947 -0.7700  0.8704 -0.0218
   40MOL0     C 5297   3.948   9.692  11.025  0.6112 -0.2012 -0.4652
   40MOL0     C 5298   4.073   9.691  10.969 -0.1840  0.5617 -0.2523
   40MOL0     C 5299   4.097   9.661  10.835  1.0123 -0.1811  0.4827
   40MOL0     O 5300   4.218   9.642  10.790  0.2865  1.0591 -0.4493
   40MOL0     C 5301   4.232   9.514  10.724 -0.0603 -0.1610 -0.0670
   40MOL0     C 5302   4.379   9.493  10.676  0.1016 -0.3832 -0.0080
   40MOL0     C 5303   4.385   9.355  10.600 -0.9006  0.2210  0.0152
   40MOL0     C 5304   4.516   9.288  10.585  0.6489  0.1065 -0.2528
   40MOL0     C 5305   4.632   9.383  10.535  0.7792 -0.2423 -0.7356
   40MOL0     C 5306   4.778   9.320  10.510  0.8290  0.3320  0.2381
   40MOL0     C 5307   4.879   9.426  10.475  0.0283  0.2586 -0.3011
   40MOL0     C 5308   5.005   9.379  10.410 -0.2260 -0.5028  0.4501
   40MOL0    Cl 5309   5.109   9.301  10.547 -0.1702  0.1343  0.4247
   40MOL0     C 5310   3.979   9.654  10.752  0.4411  0.2605 -0.3675
   40MOL0     C 5311   3.844   9.653  10.809  0.2759  0.1151  0.2804
   40MOL0     O 5312   3.754   9.496  11.153  0.1742 -0.4668  0.5676
   40MOL0     C 5313   3.431   9.622  11.075  0.0022 -0.9743 -0.7145
   40MOL0     C 5314   3.299   9.592  11.097  0.0381  0.9438 -0.5398
   40MOL0     N 5315   2.680   9.885  11.405  0.3489 -0.3363 -0.0344
   40MOL0     N 5316   2.591   9.946  11.337  0.0777  0.2871  0.1456
   40MOL0     C 5317   1.474  10.304  10.696 -0.0578 -0.0946  0.0669
   40MOL0     C 5318   1.336  10.297  10.671  0.2718 -0.1749 -0.8365
   40MOL0     C 5319   0.973  10.064  10.578  0.0471 -0.5944  0.7348
   40MOL0     C 5320   0.972   9.968  10.477  1.6428  0.0184  1.0020
   40MOL0     C 5321   0.856   9.961  10.400  0.0881  0.0973 -0.8042
   40MOL0     C 5322   0.749  10.039  10.407 -0.5111 -0.5115 -0.7553
   40MOL0     O 5323   0.659  10.012  10.309  0.5782 -0.0808 -0.2869
   40MOL0     C 5324   0.525  10.073  10.312 -0.2494 -0.2615 -0.0698
   40MOL0     C 5325   0.430   9.987  10.232 -0.1769  0.3806 -0.0526
   40MOL0     C 5326   0.429  10.035  10.084 -0.0647 -0.5258 -1.0291
   40MOL0     C 5327   0.357   9.932   9.998  1.1080 -0.8615  0.1007
   40MOL0     C 5328   0.215   9.912  10.020 -0.4069 -0.0894  0.1224
   40MOL0     C 5329   0.103   9.883  10.048 -0.3863  0.0255 -0.1060
   40MOL0     C 5330   0.745  10.140  10.512  0.3745  0.3391 -0.0049
   40MOL0     C 5331   0.852  10.149  10.599 -0.1498  0.4709 -0.2502
   40MOL0     C 5332   0.836  10.246  10.715 -0.0774  0.9395 -0.1279
   40MOL0     H 5333   1.236  10.109  10.931  2.1843  0.7402  2.1599
   40MOL0     H 5334   1.467  10.119  10.987  0.5369 -1.4162  0.1578
   40MOL0     H 5335   1.740  10.107  10.944  2.3045 -1.0748 -0.8433
   40MOL0     H 5336   1.742  10.076  10.771 -1.2518  0.5564 -0.6430
   40MOL0     H 5337   1.891  10.320  10.864  0.7934  0.4940 -1.7822
   40MOL0     H 5338   1.919  10.218  10.728  3.1003 -4.9046  0.3584
   40MOL0     H 5339   1.983  10.029  10.869  2.0040  0.3915  0.5259
   40MOL0     H 5340   1.950  10.109  11.010  0.4255 -2.4233 -0.4126
   40MOL0     H 5341   2.163  10.177  10.815  0.0136 -1.1995 -0.2489
   40MOL0     H 5342   2.131  10.284  10.952  0.1207  0.4443  0.8100
   40MOL0     H 5343   2.185  10.109  11.121  0.9166  0.6527 -0.0395
   40MOL0     H 5344   2.195   9.984  10.998  2.1439  0.2637 -3.3469
   40MOL0     H 5345   2.383  10.107  10.893  0.4196  2.5356  0.2616
   40MOL0     H 5346   2.369  10.233  11.005  0.6881 -0.7315  1.1215
   40MOL0     H 5347   2.448   9.935  11.044  0.0599 -0.6564  0.5560
   40MOL0     H 5348   2.378   9.996  11.172  2.5501 -2.7905 -0.2192
   40MOL0     H 5349   2.637  10.106  11.031  1.3425  0.3481 -0.6093
   40MOL0     H 5350   2.570  10.183  11.168  2.7112 -0.7009  1.3912
   40MOL0     H 5351   2.833   9.975  11.126  0.4453  1.3621  0.2335
   40MOL0     H 5352   3.001   9.891  11.367 -1.7818  1.9995 -0.1416
   40MOL0     H 5353   2.907   9.820  11.497  1.3287 -1.7583 -0.6585
   40MOL0     H 5354   3.021   9.649  11.416 -1.1603  1.1650  0.8225
   40MOL0     H 5355   2.848   9.620  11.384 -0.3688  0.2542 -2.1283
   40MOL0     H 5356   3.079   9.714  11.197  0.2747 -0.3067 -0.0827
   40MOL0     H 5357   2.906   9.712  11.145 -1.0473  0.3949  0.0077
   40MOL0     H 5358   3.034   9.523  11.051  1.1590  0.4873  0.9781
   40MOL0     H 5359   2.937   9.452  11.173 -0.3514  0.4215 -0.0279
   40MOL0     H 5360   3.349   9.390  11.368 -0.8497  3.8309  2.8621
   40MOL0     H 5361   3.577   9.436  11.315  1.5295  0.9339 -2.1438
   40MOL0     H 5362   3.926   9.708  11.130 -4.0146 -2.7656 -0.7868
   40MOL0     H 5363   4.158   9.703  11.037  0.8265 -4.3064 -0.2811
   40MOL0     H 5364   4.213   9.438  10.800  2.8559 -1.0480 -0.1105
   40MOL0     H 5365   4.168   9.516  10.635 -1.0608  0.1541  0.6481
   40MOL0     H 5366   4.416   9.580  10.621 -0.0124 -2.0937 -3.0086
   40MOL0     H 5367   4.431   9.489  10.773  0.7714 -0.0420 -0.3485
   40MOL0     H 5368   4.307   9.286  10.635 -1.1927  0.2612 -0.5432
   40MOL0     H 5369   4.363   9.383  10.496 -0.7786  0.8446  0.1573
   40MOL0     H 5370   4.505   9.203  10.517  0.8698  0.9062 -1.3160
   40MOL0     H 5371   4.543   9.240  10.680  0.2838 -0.6635 -0.5294
   40MOL0     H 5372   4.643   9.464  10.608  1.1283 -0.9272 -0.0050
   40MOL0     H 5373   4.591   9.417  10.440 -2.9904 -2.9183 -0.2982
   40MOL0     H 5374   4.810   9.256  10.593  0.7842 -0.4649 -0.3457
   40MOL0     H 5375   4.763   9.255  10.424  0.1054 -0.8129  1.1945
   40MOL0     H 5376   4.895   9.485  10.565 -3.4881  1.3039 -0.2056
   40MOL0     H 5377   4.836   9.488  10.396  0.5503  1.0831  0.0517
   40MOL0     H 5378   4.984   9.306  10.332  0.7329  1.0170 -1.3016
   40MOL0     H 5379   5.051   9.467  10.365  0.5077 -0.7433  0.7039
   40MOL0     H 5380   3.984   9.646  10.644  1.1266  0.2038 -0.3348
   40MOL0     H 5381   3.755   9.640  10.748 -0.3044  1.4151  0.8122
   40MOL0     H 5382   3.450   9.688  10.991 -0.6773  0.3386  0.1294
   40MOL0     H 5383   3.234   9.648  11.031  1.3039  2.5203 -0.5111
   40MOL0     H 5384   1.540  10.356  10.628 -1.1314 -0.3439 -1.2065
   40MOL0     H 5385   1.300  10.348  10.582  0.5085  0.7350 -0.4273
   40MOL0     H 5386   1.061   9.912  10.449  0.8102 -1.1074  0.5336
   40MOL0     H 5387   0.844   9.888  10.320  2.3308  1.0971 -2.1422
   40MOL0     H 5388   0.524  10.170  10.261 -1.4268 -0.4998 -0.5263
   40MOL0     H 5389   0.484  10.085  10.413 -1.5082 -0.4178 -0.5522
   40MOL0     H 5390   0.335   9.997  10.286  0.0204 -0.6652  0.5343
   40MOL0     H 5391   0.456   9.881  10.236  1.1296  0.6414 -1.1980
   40MOL0     H 5392   0.533  10.040  10.050 -0.3799 -3.7733 -2.9744
   40MOL0     H 5393   0.390  10.136  10.068 -0.2367 -0.4869 -0.3859
   40MOL0     H 5394   0.363   9.960   9.892 -1.8662 -2.3758 -0.5678
   40MOL0     H 5395   0.418   9.841  10.003 -0.5313 -2.0940 -1.1319
   40MOL0     H 5396   0.001   9.860  10.072 -1.5262  5.0010  0.9914
   40MOL0     H 5397   0.663  10.211  10.511  1.6156  1.8319 -0.9884
   40MOL0     H 5398   0.886  10.337  10.680  1.5702  1.0048  2.1725
   40MOL0     H 5399   0.729  10.262  10.732 -0.1504 -0.8694  1.5139
   40MOL0     H 5400   0.876  10.203  10.807  0.3306 -0.2651 -0.8593
   41MOL0     O 5401   4.168   0.775   0.398 -0.1969 -0.3401 -0.5057
   41MOL0     C 5402   4.122   0.755   0.285 -0.5984 -0.8439  1.0353
   41MOL0     O 5403   4.198   0.772   0.173  0.1374  0.5813 -0.1041
   41MOL0     C 5404   4.336   0.770   0.185 -0.1586 -0.2139  0.3438
   41MOL0     C 5405   4.401   0.656   0.225  0.3437 -0.2504 -0.6143
   41MOL0     C 5406   4.542   0.655   0.237  1.0083  0.2992 -0.3449
   41MOL0     C 5407   4.625   0.760   0.210  0.0074  0.5786  0.4465
   41MOL0     O 5408   4.761   0.743   0.238  0.0362 -0.2016 -0.1818
   41MOL0     C 5409   4.820   0.866   0.290  0.7396 -0.1301 -0.0796
   41MOL0     C 5410   4.959   0.855   0.362  1.4631  0.1307 -0.0290
   41MOL0     C 5411   5.057   0.813   0.247  0.0181 -0.3340 -0.6484
   41MOL0     C 5412   5.154   0.927   0.201 -1.2810 -0.1510 -0.6541
   41MOL0     C 5413   5.270   0.852   0.126 -0.4742  0.1538 -0.5223
   41MOL0     C 5414   5.378   0.951   0.089  0.9731  0.1334  0.1427
   41MOL0     C 5415   5.329   1.064  -0.005 -0.9273 -0.3590 -0.1130
   41MOL0     C 5416   5.426   1.183  -0.023  0.7647  0.1363 -0.1555
   41MOL0     N 5417   5.454   1.240   0.105 -0.4230  0.2894  0.8984
   41MOL0     C 5418   5.382   1.334   0.163  0.5573 -0.6455 -0.7045
   41MOL0     C 5419   5.457   1.379   0.269  0.1949  0.0762 -0.1398
   41MOL0     C 5420   5.421   1.506   0.348  0.1834  0.1904 -0.2455
   41MOL0     C 5421   5.467   1.624   0.271 -1.0110 -0.2040 -0.2461
   41MOL0     C 5422   5.434   1.744   0.352  0.2999  1.4391 -0.5296
   41MOL0     C 5423   5.535   1.857   0.335 -0.4281 -0.2931 -0.1435
   41MOL0     O 5424   5.530   1.890   0.192 -0.4507  0.3750  0.2691
   41MOL0     C 5425   5.649   1.884   0.125 -0.3818 -0.7941  0.6019
   41MOL0     C 5426   5.634   1.877  -0.017  0.2506  1.2684 -0.1870
   41MOL0     C 5427   5.747   1.903  -0.100 -0.9909 -0.0843 -0.2464
   41MOL0     C 5428   5.873   1.925  -0.038  0.4941 -0.1768  0.4349
   41MOL0     C 5429   5.987   1.954  -0.134  0.3974 -0.1361 -0.7865
   41MOL0     O 5430   6.094   2.010  -0.078  0.3238 -0.2760  0.4580
   41MOL0     C 5431   6.205   2.014  -0.143 -0.3331  0.0302  0.0994
   41MOL0     C 5432   6.223   2.063  -0.273  0.0403  0.8171 -0.7977
   41MOL0     C 5433   6.360   2.076  -0.320  0.3310 -0.6667  0.1533
   41MOL0     C 5434   6.468   2.041  -0.234 -0.6255 -0.2474 -0.0363
   41MOL0     O 5435   6.600   2.065  -0.265 -0.4463 -0.0174  0.4901
   41MOL0     C 5436   6.653   2.033  -0.396  0.1450 -0.1940 -0.1014
   41MOL0     C 5437   6.805   2.029  -0.389  0.8208  0.1235 -0.4955
   41MOL0     C 5438   6.864   2.167  -0.325  0.3280  0.3747 -0.5060
   41MOL0     C 5439   7.007   2.150  -0.281 -0.8410  0.7435 -0.8744
   41MOL0     C 5440   7.126   2.142  -0.378  0.2108 -0.8629  0.5888
   41MOL0     C 5441   7.118   2.240  -0.499  0.5051 -0.7903  0.2820
   41MOL0     C 5442   7.243   2.248  -0.584 -0.5718 -0.3255 -0.3012
   41MOL0     C 5443   7.217   2.295  -0.719  0.0883 -0.3120  0.5536
   41MOL0    Cl 5444   7.169   2.476  -0.716  0.3219  0.3716  0.0444
   41MOL0     C 5445   6.441   1.999  -0.109  0.4479 -0.1483 -0.9772
   41MOL0     C 5446   6.315   1.984  -0.065  0.4762  0.5257  0.5015
   41MOL0     O 5447   5.972   1.932  -0.250  0.4163  0.7627 -0.3391
   41MOL0     C 5448   5.881   1.926   0.100  0.5515  0.6789 -0.0530
   41MOL0     C 5449   5.775   1.896   0.184  0.2454 -0.7294  1.1146
   41MOL0     N 5450   5.572   1.298   0.285  0.3438  0.6265  0.3746
   41MOL0     N 5451   5.571   1.222   0.177  0.0532 -0.4008  0.1873
   41MOL0     C 5452   4.562   0.880   0.172 -0.4278 -0.0432  0.4194
   41MOL0     C 5453   4.419   0.886   0.149  0.0976  0.1673  1.0319
   41MOL0     C 5454   3.977   0.723   0.273 -0.4982 -0.1735 -1.2892
   41MOL0     C 5455   3.873   0.802   0.331  0.0752 -0.4705 -1.4247
   41MOL0     C 5456   3.735   0.776   0.313 -0.4800 -0.3602 -0.1334
   41MOL0     C 5457   3.702   0.668   0.240 -0.6447  0.4202 -0.1401
   41MOL0     O 5458   3.573   0.628   0.221  0.3434 -0.7226 -0.0075
   41MOL0     C 5459   3.468   0.715   0.271 -0.4891  0.0931  0.0585
   41MOL0     C 5460   3.437   0.829   0.175 -0.1371  0.5627  0.1009
   41MOL0     C 5461   3.329   0.906   0.244  0.2562 -1.1902 -0.3596
   41MOL0     C 5462   3.299   1.034   0.169 -0.8003  1.2570  0.3181
   41MOL0     C 5463   3.183   1.091   0.233  0.1603 -0.2244  0.1629
   41MOL0     C 5464   3.085   1.138   0.293 -0.3931 -0.5195 -0.2139
   41MOL0     C 5465   3.802   0.582   0.191 -0.5922  0.8321  0.0207
   41MOL0     C 5466   3.941   0.606   0.208 -0.6817  0.2159 -0.1266
   41MOL0     C 5467   4.045   0.512   0.141 -0.4542 -0.0115  0.7974
   41MOL0     H 5468   4.348   0.571   0.267  0.3955  1.4635  3.4531
   41MOL0     H 5469   4.598   0.567   0.270  0.0298 -0.4358 -0.5833
   41MOL0     H 5470   4.819   0.935   0.205 -0.3506 -3.0722 -2.6530
   41MOL0     H 5471   4.761   0.904   0.374  0.1692 -0.8798 -0.1244
   41MOL0     H 5472   4.954   0.782   0.443 -2.2633 -0.9332 -1.0537
   41MOL0     H 5473   4.988   0.953   0.403 -0.9784 -0.6090  3.9824
   41MOL0     H 5474   5.020   0.758   0.160 -1.1564  1.0001 -1.0183
   41MOL0     H 5475   5.118   0.732   0.289  0.2218 -1.1083 -2.3320
   41MOL0     H 5476   5.087   0.997   0.149 -0.5245  1.3779  0.3468
   41MOL0     H 5477   5.194   0.975   0.291 -0.8555  0.8434 -1.3613
   41MOL0     H 5478   5.327   0.774   0.177 -0.6763 -0.7651 -1.6562
   41MOL0     H 5479   5.232   0.797   0.040  1.7315  2.0407 -2.8744
   41MOL0     H 5480   5.436   0.990   0.173  1.3966  0.7717 -0.4373
   41MOL0     H 5481   5.454   0.899   0.031  1.2665  0.9416 -0.2227
   41MOL0     H 5482   5.236   1.108   0.030 -0.7555 -0.2026  0.1449
   41MOL0     H 5483   5.303   1.033  -0.107  0.2081 -0.1789 -0.4738
   41MOL0     H 5484   5.517   1.140  -0.065 -0.3681 -0.6683 -1.9517
   41MOL0     H 5485   5.380   1.257  -0.089 -0.5365  0.4967  1.1067
   41MOL0     H 5486   5.283   1.377   0.151 -0.4507 -2.5847  0.1100
   41MOL0     H 5487   5.314   1.509   0.368 -0.0746  1.2979 -1.6402
   41MOL0     H 5488   5.475   1.504   0.443 -1.3968  1.7998  0.7532
   41MOL0     H 5489   5.575   1.619   0.255 -0.5089  1.2278  2.0570
   41MOL0     H 5490   5.406   1.631   0.181  0.0641  1.3219 -0.8988
   41MOL0     H 5491   5.430   1.726   0.460 -3.1568  1.6528 -0.5209
   41MOL0     H 5492   5.332   1.776   0.329 -1.1845  0.2156  3.4633
   41MOL0     H 5493   5.633   1.820   0.366 -0.2390  0.3640  0.0568
   41MOL0     H 5494   5.515   1.946   0.396 -0.5093 -0.8975  0.7266
   41MOL0     H 5495   5.532   1.855  -0.046  0.3320 -0.5392  0.7339
   41MOL0     H 5496   5.738   1.907  -0.208 -1.4533 -0.2128 -0.2149
   41MOL0     H 5497   6.148   2.103  -0.340  1.3637  0.1984 -2.7497
   41MOL0     H 5498   6.376   2.118  -0.419 -0.3476  1.7315  0.9855
   41MOL0     H 5499   6.607   1.941  -0.433  3.2157 -3.6272  3.7557
   41MOL0     H 5500   6.617   2.115  -0.459  1.9729  0.4830 -0.3064
   41MOL0     H 5501   6.829   1.937  -0.336 -2.8219 -0.6448  0.1079
   41MOL0     H 5502   6.846   2.023  -0.491 -1.0689 -3.3454 -1.2192
   41MOL0     H 5503   6.855   2.249  -0.396 -0.1789  0.3436 -0.4839
   41MOL0     H 5504   6.812   2.184  -0.230  1.0374  0.3608 -0.1050
   41MOL0     H 5505   7.012   2.067  -0.210 -4.6304  1.2926  0.2933
   41MOL0     H 5506   7.031   2.242  -0.227 -0.1515 -0.4306  0.8981
   41MOL0     H 5507   7.127   2.049  -0.435  2.4076  0.5884 -1.9935
   41MOL0     H 5508   7.219   2.163  -0.325  0.3552  0.3752 -0.0991
   41MOL0     H 5509   7.033   2.214  -0.562  1.3473 -0.2106 -1.1627
   41MOL0     H 5510   7.115   2.338  -0.451 -0.6523  0.2236 -1.7409
   41MOL0     H 5511   7.286   2.149  -0.598 -2.4252 -1.4975  1.6819
   41MOL0     H 5512   7.313   2.321  -0.541 -1.5122  1.5032 -1.7308
   41MOL0     H 5513   7.308   2.276  -0.777  0.0732 -0.4553  0.5755
   41MOL0     H 5514   7.141   2.240  -0.775  0.3951  2.2480 -2.6510
   41MOL0     H 5515   6.518   1.958  -0.045  1.2736 -0.0459 -1.8770
   41MOL0     H 5516   6.297   1.955   0.038 -0.3943 -0.2980  0.1273
   41MOL0     H 5517   5.968   1.948   0.162  1.1235 -3.1852  0.7279
   41MOL0     H 5518   5.801   1.902   0.289  1.0787 -2.1475  1.0120
   41MOL0     H 5519   4.628   0.959   0.137  2.7996 -2.0836  1.4672
   41MOL0     H 5520   4.382   0.977   0.104 -1.8435 -1.1412 -0.1533
   41MOL0     H 5521   3.891   0.890   0.391 -0.4239  1.2755 -3.7048
   41MOL0     H 5522   3.669   0.835   0.375  3.8672  3.3833  1.4743
   41MOL0     H 5523   3.481   0.746   0.375 -2.1948 -0.0335  0.3531
   41MOL0     H 5524   3.379   0.651   0.266  0.2658 -0.9272 -0.8784
   41MOL0     H 5525   3.412   0.801   0.072  0.5768 -0.3229  0.1483
   41MOL0     H 5526   3.528   0.890   0.168  0.7030 -0.5831  0.6483
   41MOL0     H 5527   3.361   0.935   0.345 -1.4110 -1.2418  0.2097
   41MOL0     H 5528   3.235   0.851   0.250  1.0336 -2.6558 -1.0626
   41MOL0     H 5529   3.390   1.094   0.174 -0.8084  1.1516  2.0887
   41MOL0     H 5530   3.272   1.025   0.063 -0.0462 -1.4437  0.2815
   41MOL0     H 5531   3.006   1.193   0.340  0.3119 -0.7097  1.2474
   41MOL0     H 5532   3.781   0.502   0.120  2.9850  0.6328 -1.0430
   41MOL0     H 5533   4.119   0.485   0.217 -0.5538 -3.1586 -0.1112
   41MOL0     H 5534   4.009   0.412   0.118 -3.0358  0.4060  2.4705
   41MOL0     H 5535   4.103   0.556   0.059  0.8251 -3.1290 -0.0933
   42MOL0     O 5536   7.083   6.222   2.412  0.3350 -0.3007 -0.3496
   42MOL0     C 5537   7.074   6.224   2.290 -0.5437 -0.0829  0.4487
   42MOL0     O 5538   7.161   6.182   2.203 -0.0986  1.1417 -0.3734
   42MOL0     C 5539   7.275   6.119   2.236 -0.7576 -0.6173 -1.5796
   42MOL0     C 5540   7.370   6.126   2.138  0.4341 -0.6428  0.5285
   42MOL0     C 5541   7.493   6.055   2.144  0.0717 -0.6651  0.2352
   42MOL0     C 5542   7.513   5.963   2.251  0.2526 -0.0022  1.2854
   42MOL0     O 5543   7.628   5.895   2.242  0.7020  0.8323 -0.2956
   42MOL0     C 5544   7.626   5.754   2.295 -0.5482 -0.2047 -0.7882
   42MOL0     C 5545   7.718   5.669   2.224  0.1237 -0.4321 -0.1051
   42MOL0     C 5546   7.867   5.694   2.256 -0.4804 -0.7776 -0.3181
   42MOL0     C 5547   7.953   5.596   2.179 -0.3136  1.7098  0.1721
   42MOL0     C 5548   8.101   5.601   2.226 -0.0393 -0.2285 -0.1893
   42MOL0     C 5549   8.189   5.513   2.137 -0.2050 -0.1379  0.1457
   42MOL0     C 5550   8.329   5.476   2.200 -0.3018  0.0452 -0.1400
   42MOL0     C 5551   8.439   5.555   2.130 -0.3302  0.3353 -0.0881
   42MOL0     N 5552   8.568   5.542   2.204 -0.1562  0.1290 -0.1585
   42MOL0     C 5553   8.645   5.642   2.255 -0.5121 -0.6980  0.1472
   42MOL0     C 5554   8.746   5.584   2.320 -0.8559  0.1008 -0.4955
   42MOL0     C 5555   8.863   5.653   2.399 -0.1442  0.1236  0.4449
   42MOL0     C 5556   8.990   5.600   2.352 -0.6627  1.0095  0.4982
   42MOL0     C 5557   9.120   5.687   2.383 -0.2941  0.0080  0.9375
   42MOL0     C 5558   9.249   5.614   2.349  0.2967  0.7027  0.2182
   42MOL0     O 5559   9.372   5.687   2.349  0.1628 -0.3506 -0.7201
   42MOL0     C 5560   9.497   5.627   2.326 -0.4691  0.5724  0.5612
   42MOL0     C 5561   9.607   5.712   2.301  0.3043  0.3580  0.3907
   42MOL0     C 5562   9.738   5.664   2.294 -1.0361  0.4118  0.7223
   42MOL0     C 5563   9.764   5.519   2.283  0.3859  0.3877  0.5208
   42MOL0     C 5564   9.906   5.476   2.260  0.3874  0.1965 -0.0036
   42MOL0     O 5565  10.001   5.562   2.306  1.3433 -0.5942  0.2130
   42MOL0     C 5566  10.133   5.559   2.308 -0.1793  0.6472  1.0214
   42MOL0     C 5567  10.190   5.574   2.432 -0.0542 -0.2369  0.1011
   42MOL0     C 5568  10.331   5.572   2.459 -0.4347  1.0890 -0.0584
   42MOL0     C 5569  10.418   5.539   2.350  0.4127  0.5195 -0.0288
   42MOL0     O 5570  10.553   5.537   2.356 -0.2435 -0.3995 -0.2663
   42MOL0     C 5571  10.627   5.548   2.476 -0.3425  0.1745 -0.2412
   42MOL0     C 5572  10.763   5.471   2.455  0.5217 -0.4610  0.4959
   42MOL0     C 5573  10.847   5.519   2.337  0.3410 -0.7149  0.1234
   42MOL0     C 5574  10.999   5.508   2.368  0.4169 -0.2777 -0.0718
   42MOL0     C 5575  11.084   5.521   2.246  0.2223  0.6921  0.5548
   42MOL0     C 5576  11.231   5.529   2.276 -0.3038 -0.2808 -0.3615
   42MOL0     C 5577  11.298   5.537   2.144 -0.6792 -0.0787  0.3219
   42MOL0     C 5578  11.449   5.547   2.172 -0.4720  0.0464  0.3725
   42MOL0    Cl 5579  11.553   5.550   2.025  0.1167 -0.1029  0.0295
   42MOL0     C 5580  10.351   5.522   2.223  0.4282  0.0596  0.3092
   42MOL0     C 5581  10.211   5.522   2.195  0.6622 -0.4193 -0.2185
   42MOL0     O 5582   9.936   5.364   2.220 -0.3460  0.0632  0.2280
   42MOL0     C 5583   9.650   5.431   2.293 -0.0831 -0.0187 -0.2354
   42MOL0     C 5584   9.521   5.488   2.307 -0.4486  0.3170 -0.6844
   42MOL0     N 5585   8.727   5.444   2.317  0.0194  0.6673  0.1371
   42MOL0     N 5586   8.626   5.417   2.248  0.6909  0.3374  0.1509
   42MOL0     C 5587   7.429   5.968   2.351  0.5455  0.7793 -0.0503
   42MOL0     C 5588   7.311   6.043   2.350 -1.0644  1.2662  0.2519
   42MOL0     C 5589   6.957   6.290   2.220  0.1377  0.7009 -0.4117
   42MOL0     C 5590   6.930   6.264   2.084 -0.2408  0.4336  0.4345
   42MOL0     C 5591   6.830   6.308   2.004 -0.2294  0.6205 -0.1072
   42MOL0     C 5592   6.732   6.392   2.064 -0.4872 -0.3464  0.5663
   42MOL0     O 5593   6.634   6.440   1.992  0.6470 -0.1349 -0.1745
   42MOL0     C 5594   6.682   6.516   1.875  0.5260  0.2464 -0.0091
   42MOL0     C 5595   6.558   6.564   1.797  0.6380 -0.1378  0.5213
   42MOL0     C 5596   6.597   6.645   1.669  0.4033  0.5275 -0.4164
   42MOL0     C 5597   6.483   6.725   1.610  0.0996 -0.3352  0.1835
   42MOL0     C 5598   6.381   6.636   1.557  0.3799 -0.4899  0.2114
   42MOL0     C 5599   6.289   6.568   1.523 -0.0641 -0.7045  0.2153
   42MOL0     C 5600   6.746   6.409   2.199  0.1751  0.0254  0.7876
   42MOL0     C 5601   6.855   6.362   2.279  0.6282  0.0233 -1.0412
   42MOL0     C 5602   6.856   6.410   2.423  0.3474  0.3558  0.1510
   42MOL0     H 5603   7.339   6.191   2.057 -1.0740  0.4313  1.9119
   42MOL0     H 5604   7.563   6.049   2.062 -0.6908 -1.7058 -0.3788
   42MOL0     H 5605   7.664   5.761   2.398 -0.2363  2.0773 -1.0112
   42MOL0     H 5606   7.532   5.700   2.285 -2.1053  2.4328 -1.0854
   42MOL0     H 5607   7.701   5.687   2.117  0.9992  1.3262  0.0199
   42MOL0     H 5608   7.696   5.562   2.232 -1.8311 -0.0504  0.0643
   42MOL0     H 5609   7.881   5.676   2.363  0.9059  1.3760 -0.0692
   42MOL0     H 5610   7.895   5.798   2.237  1.8803 -1.2640  0.2828
   42MOL0     H 5611   7.920   5.493   2.195 -1.1123  1.1078 -4.1234
   42MOL0     H 5612   7.940   5.611   2.071 -0.1143 -3.5863 -0.8400
   42MOL0     H 5613   8.146   5.698   2.251 -1.3943  0.2293  0.5878
   42MOL0     H 5614   8.111   5.548   2.321 -0.2946 -4.0493 -2.0953
   42MOL0     H 5615   8.141   5.418   2.113 -0.6008 -0.1545  0.9985
   42MOL0     H 5616   8.200   5.558   2.037  0.1201  3.3349  1.6113
   42MOL0     H 5617   8.362   5.372   2.193  1.5196  0.4525  1.3767
   42MOL0     H 5618   8.318   5.499   2.307  0.6306 -1.2260  0.2604
   42MOL0     H 5619   8.449   5.515   2.029  2.4238 -0.7631  0.5365
   42MOL0     H 5620   8.419   5.663   2.131 -1.3590  0.1489  0.5403
   42MOL0     H 5621   8.631   5.747   2.233  1.0772 -0.0621  1.9397
   42MOL0     H 5622   8.853   5.758   2.371  2.1663  0.4100  0.4406
   42MOL0     H 5623   8.851   5.637   2.506  1.8169  2.8122  1.1708
   42MOL0     H 5624   9.007   5.503   2.398 -2.1733 -0.6743 -2.2106
   42MOL0     H 5625   8.983   5.593   2.243 -2.0721 -1.6783  0.6834
   42MOL0     H 5626   9.127   5.701   2.491 -0.2436 -1.9391  1.2222
   42MOL0     H 5627   9.109   5.785   2.335  0.6277 -0.2292  0.2260
   42MOL0     H 5628   9.234   5.571   2.250 -1.5783  0.9664  0.3498
   42MOL0     H 5629   9.262   5.533   2.422  0.9744 -1.0059 -1.6946
   42MOL0     H 5630   9.580   5.817   2.305  0.1334  0.5535 -3.0861
   42MOL0     H 5631   9.819   5.736   2.293 -0.1721 -0.4789  1.9619
   42MOL0     H 5632  10.128   5.605   2.515 -1.8081  1.8441 -1.8646
   42MOL0     H 5633  10.362   5.584   2.562 -2.3041 -1.9866  1.0053
   42MOL0     H 5634  10.625   5.655   2.495 -0.1994  0.2313 -0.5405
   42MOL0     H 5635  10.572   5.488   2.549 -0.6128 -1.8387 -1.9673
   42MOL0     H 5636  10.817   5.489   2.549 -0.7909 -3.1849  1.8894
   42MOL0     H 5637  10.741   5.364   2.448 -0.8948 -0.1764  0.2281
   42MOL0     H 5638  10.820   5.472   2.243  0.9688  0.3586 -0.6120
   42MOL0     H 5639  10.826   5.626   2.324 -1.7738 -1.0092  0.6738
   42MOL0     H 5640  11.014   5.407   2.407  0.4240  0.5049  2.1138
   42MOL0     H 5641  11.029   5.580   2.445  1.4314 -1.2792  0.5050
   42MOL0     H 5642  11.057   5.609   2.186 -0.2250 -0.3484 -0.8127
   42MOL0     H 5643  11.071   5.432   2.184  0.4211  0.9826  0.0867
   42MOL0     H 5644  11.250   5.621   2.332  1.0091 -1.4327  1.1787
   42MOL0     H 5645  11.264   5.447   2.341 -4.1865 -1.3041  0.5535
   42MOL0     H 5646  11.262   5.621   2.083  2.4153 -0.9441 -3.0810
   42MOL0     H 5647  11.281   5.438   2.102  0.5924  0.1535 -0.8236
   42MOL0     H 5648  11.477   5.632   2.234  1.9110  0.7567 -1.5282
   42MOL0     H 5649  11.476   5.454   2.222 -1.2390  0.0951  0.8846
   42MOL0     H 5650  10.411   5.512   2.133 -2.5277  0.8591 -1.9147
   42MOL0     H 5651  10.155   5.510   2.103 -0.7933  2.0874  0.2393
   42MOL0     H 5652   9.661   5.324   2.285 -1.7626 -0.4530  2.1657
   42MOL0     H 5653   9.440   5.416   2.314 -0.9627  0.8365 -1.2799
   42MOL0     H 5654   7.444   5.904   2.437 -2.0461  0.4154  0.2067
   42MOL0     H 5655   7.243   6.037   2.434 -0.5420 -1.8383  0.5595
   42MOL0     H 5656   6.997   6.197   2.032  0.5733  1.2345  0.4320
   42MOL0     H 5657   6.818   6.282   1.899  2.3623  1.0715 -0.5853
   42MOL0     H 5658   6.742   6.444   1.818  0.4431 -1.6243  2.1607
   42MOL0     H 5659   6.736   6.603   1.913  1.9080 -1.1019  1.2344
   42MOL0     H 5660   6.520   6.641   1.865 -0.8204  0.0403 -0.4651
   42MOL0     H 5661   6.474   6.495   1.790 -1.9095  2.7568  0.5267
   42MOL0     H 5662   6.641   6.585   1.589 -0.3066 -0.1042 -0.3371
   42MOL0     H 5663   6.676   6.713   1.703 -0.8683  1.0472  1.6369
   42MOL0     H 5664   6.434   6.794   1.679  0.7149  1.6031 -1.2425
   42MOL0     H 5665   6.516   6.791   1.530 -1.6913 -1.2378 -1.3644
   42MOL0     H 5666   6.217   6.494   1.495  1.0771 -1.4616 -0.8044
   42MOL0     H 5667   6.666   6.457   2.254 -1.0486 -0.9875 -0.0620
   42MOL0     H 5668   6.952   6.458   2.445 -0.2288  0.8871  1.6001
   42MOL0     H 5669   6.788   6.495   2.424  0.2570  0.3102 -0.8922
   42MOL0     H 5670   6.837   6.328   2.493  1.2498 -1.5884 -1.7390
   43MOL0     O 5671  10.120   8.872   2.083  0.1992  0.4925  0.5086
   43MOL0     C 5672  10.180   8.831   2.182 -0.1226 -0.2131  0.3009
   43MOL0     O 5673  10.145   8.725   2.261 -0.0858  0.3327  0.2893
   43MOL0     C 5674  10.031   8.655   2.241 -0.2757  0.5815  0.5539
   43MOL0     C 5675   9.907   8.721   2.222 -0.4253  0.1586  0.6848
   43MOL0     C 5676   9.789   8.647   2.223  0.6510 -0.2210 -0.6735
   43MOL0     C 5677   9.792   8.508   2.251  0.1998  0.4732  0.0707
   43MOL0     O 5678   9.674   8.443   2.262 -0.1840  0.2303  0.3295
   43MOL0     C 5679   9.666   8.318   2.184 -0.5057 -0.0148 -0.6231
   43MOL0     C 5680   9.519   8.285   2.151  1.0526  0.2727  0.2629
   43MOL0     C 5681   9.476   8.371   2.027  0.7521 -0.2586 -0.7870
   43MOL0     C 5682   9.351   8.320   1.964 -0.0773  0.2828 -0.4659
   43MOL0     C 5683   9.347   8.343   1.814  0.2847 -1.0559 -0.3183
   43MOL0     C 5684   9.216   8.313   1.747 -0.2759  0.2792 -0.4056
   43MOL0     C 5685   9.216   8.347   1.600 -0.0289 -0.1085  0.3775
   43MOL0     C 5686   9.079   8.317   1.545  0.4578  0.3595  0.9601
   43MOL0     N 5687   9.077   8.170   1.530  0.2687  0.1520 -0.3891
   43MOL0     C 5688   9.132   8.101   1.427 -1.4423 -0.1357 -1.1215
   43MOL0     C 5689   9.118   7.968   1.464 -0.7353 -0.1521  0.7946
   43MOL0     C 5690   9.160   7.865   1.369  0.4818  0.3275  0.1839
   43MOL0     C 5691   9.035   7.813   1.290  0.6257 -0.1119 -0.1548
   43MOL0     C 5692   9.081   7.757   1.156 -0.1836  0.1298  0.0151
   43MOL0     C 5693   8.985   7.663   1.088  0.9416 -0.2175 -0.7583
   43MOL0     O 5694   8.972   7.541   1.164  0.5401  0.0912 -0.0314
   43MOL0     C 5695   9.060   7.440   1.126  0.2338  0.2230  0.2118
   43MOL0     C 5696   9.062   7.332   1.211  0.4684 -0.4903 -0.2091
   43MOL0     C 5697   9.149   7.232   1.181  0.1694  0.6681  0.7187
   43MOL0     C 5698   9.238   7.225   1.073 -0.9488  0.7670  0.1058
   43MOL0     C 5699   9.341   7.115   1.056  0.7367 -0.4634  0.1991
   43MOL0     O 5700   9.449   7.138   0.974  0.2992 -0.5130 -0.0801
   43MOL0     C 5701   9.534   7.032   0.927  0.7472 -0.2786  1.6828
   43MOL0     C 5702   9.653   7.073   0.880 -0.1377 -0.3415  0.1317
   43MOL0     C 5703   9.742   6.980   0.822 -0.0286 -0.0654  0.0014
   43MOL0     C 5704   9.710   6.846   0.818  0.9671  0.4430 -0.0180
   43MOL0     O 5705   9.803   6.766   0.765 -1.1778 -0.7053 -0.9901
   43MOL0     C 5706   9.800   6.622   0.761 -0.5522  0.3836 -0.4834
   43MOL0     C 5707   9.859   6.580   0.629 -0.5966 -0.1104 -0.5248
   43MOL0     C 5708   9.842   6.436   0.616 -0.6815  0.1908  0.9939
   43MOL0     C 5709   9.904   6.388   0.484 -0.3131 -1.0292  0.2241
   43MOL0     C 5710   9.904   6.238   0.468 -0.0432  0.2801 -0.7190
   43MOL0     C 5711   9.761   6.187   0.426 -0.2140  0.0922  0.3463
   43MOL0     C 5712   9.746   6.039   0.453  0.8544  0.0768 -0.3093
   43MOL0     C 5713   9.620   5.959   0.403  0.2002 -0.2276 -0.5761
   43MOL0    Cl 5714   9.598   5.945   0.217  0.0680  0.1092  0.3132
   43MOL0     C 5715   9.574   6.801   0.852  0.0279  0.7575  0.3392
   43MOL0     C 5716   9.487   6.900   0.911 -0.2958 -0.2802  0.2932
   43MOL0     O 5717   9.333   7.018   1.131 -0.4461 -0.4044 -0.3059
   43MOL0     C 5718   9.232   7.334   0.985  0.1497 -0.4206 -0.1774
   43MOL0     C 5719   9.143   7.447   1.017 -1.1819  0.2813 -0.1676
   43MOL0     N 5720   9.043   7.957   1.573  0.2223 -0.0495  0.0642
   43MOL0     N 5721   9.011   8.078   1.607 -0.1172  0.5206  0.0125
   43MOL0     C 5722   9.913   8.445   2.254  0.4358  0.1421  0.5216
   43MOL0     C 5723  10.035   8.512   2.249 -0.7182 -0.3471 -0.2285
   43MOL0     C 5724  10.303   8.906   2.203 -0.6667  0.1190  0.8068
   43MOL0     C 5725  10.421   8.838   2.158  0.0336 -0.0052  1.0900
   43MOL0     C 5726  10.541   8.905   2.171  0.4399 -0.1329  0.5893
   43MOL0     C 5727  10.558   9.021   2.246  0.3723  0.0429  0.0342
   43MOL0     O 5728  10.684   9.053   2.272 -0.0780  0.0829 -0.1662
   43MOL0     C 5729  10.711   9.156   2.370 -0.3406 -0.2572 -0.9571
   43MOL0     C 5730  10.859   9.201   2.387 -0.2914 -0.3498  0.7538
   43MOL0     C 5731  10.902   9.317   2.281  0.7789  0.6909 -0.3161
   43MOL0     C 5732  11.055   9.342   2.274 -0.1502 -0.2122 -0.3754
   43MOL0     C 5733  11.107   9.373   2.411 -0.6870  0.9908  0.0783
   43MOL0     C 5734  11.156   9.403   2.513 -0.2602  0.0162  0.4166
   43MOL0     C 5735  10.437   9.078   2.301 -0.3710  0.2885  0.6491
   43MOL0     C 5736  10.315   9.027   2.264  0.1978 -1.6210  0.1170
   43MOL0     C 5737  10.196   9.103   2.297  0.0321  0.2934 -0.1279
   43MOL0     H 5738   9.895   8.828   2.221  0.8335  0.3225  1.5756
   43MOL0     H 5739   9.695   8.702   2.217  0.3489 -0.8027 -1.6549
   43MOL0     H 5740   9.720   8.316   2.090 -0.9665 -0.0305 -0.8931
   43MOL0     H 5741   9.714   8.241   2.245  0.9458  0.9744 -0.4650
   43MOL0     H 5742   9.466   8.299   2.245 -0.3995 -0.6756 -0.3855
   43MOL0     H 5743   9.521   8.180   2.121 -0.1061 -1.1290  4.4457
   43MOL0     H 5744   9.554   8.365   1.951  2.5025 -2.2177  1.0125
   43MOL0     H 5745   9.455   8.472   2.063  0.0781 -1.2807  2.0195
   43MOL0     H 5746   9.331   8.216   1.988  1.5431  0.2745  0.9799
   43MOL0     H 5747   9.266   8.373   2.010  0.3170 -0.5347  1.2892
   43MOL0     H 5748   9.368   8.450   1.807  0.3740 -0.7546  2.8762
   43MOL0     H 5749   9.429   8.282   1.776  2.1994  1.6742 -0.8605
   43MOL0     H 5750   9.181   8.211   1.762 -0.5400  0.3386 -0.6084
   43MOL0     H 5751   9.154   8.379   1.810  2.6035  0.6573  2.2707
   43MOL0     H 5752   9.294   8.295   1.544 -0.1066  1.5980 -1.4423
   43MOL0     H 5753   9.229   8.455   1.590  1.2651 -0.2429  0.4156
   43MOL0     H 5754   8.993   8.336   1.609  0.3030 -2.5050  1.7422
   43MOL0     H 5755   9.063   8.367   1.449 -0.6356 -1.1256  0.3190
   43MOL0     H 5756   9.185   8.143   1.342  1.6910  1.2840  1.3066
   43MOL0     H 5757   9.241   7.899   1.304  1.3033 -0.4451  0.7742
   43MOL0     H 5758   9.203   7.784   1.429  1.0529  2.3247  2.6603
   43MOL0     H 5759   8.995   7.726   1.342  2.9857 -0.0497  2.0265
   43MOL0     H 5760   8.961   7.893   1.277  0.6481 -0.5010 -3.2448
   43MOL0     H 5761   9.169   7.693   1.164 -0.3664 -0.1642 -0.3223
   43MOL0     H 5762   9.095   7.839   1.085  1.5020 -1.5519 -1.7066
   43MOL0     H 5763   8.996   7.646   0.980  0.6857  0.6849 -0.9323
   43MOL0     H 5764   8.884   7.706   1.081  0.8461 -0.5183 -1.2592
   43MOL0     H 5765   8.997   7.328   1.298  0.8378  0.4546  0.1267
   43MOL0     H 5766   9.155   7.150   1.252 -3.4926 -0.1399  0.3325
   43MOL0     H 5767   9.665   7.180   0.892 -1.1095 -0.3011  0.9418
   43MOL0     H 5768   9.847   7.002   0.803  0.5492 -1.9347  0.7605
   43MOL0     H 5769   9.850   6.575   0.846 -2.4918 -1.9217 -0.5093
   43MOL0     H 5770   9.695   6.591   0.763 -0.8680  1.4546  0.2193
   43MOL0     H 5771   9.800   6.629   0.551 -1.7033  2.0531  1.5646
   43MOL0     H 5772   9.960   6.615   0.604 -1.3585  3.3919  0.7130
   43MOL0     H 5773   9.885   6.380   0.699  0.5432  0.0267  0.2798
   43MOL0     H 5774   9.733   6.424   0.611 -0.6721  0.3992 -0.0445
   43MOL0     H 5775  10.009   6.421   0.480 -0.6824  0.1696  0.1177
   43MOL0     H 5776   9.856   6.437   0.399  0.0790 -0.9283  0.0590
   43MOL0     H 5777   9.938   6.197   0.563  1.5739 -0.3442 -1.5341
   43MOL0     H 5778   9.967   6.201   0.387 -1.4958 -1.7356 -1.0213
   43MOL0     H 5779   9.692   6.235   0.495  3.1132  1.5939  2.9090
   43MOL0     H 5780   9.734   6.209   0.323  1.5191 -3.3531 -1.0062
   43MOL0     H 5781   9.743   6.036   0.562 -1.8330  3.2190 -0.1467
   43MOL0     H 5782   9.841   5.998   0.417  3.5422  2.4935  3.3501
   43MOL0     H 5783   9.629   5.857   0.442  3.6614 -0.2852 -1.2119
   43MOL0     H 5784   9.526   6.007   0.432 -1.5836  1.2394 -7.2405
   43MOL0     H 5785   9.541   6.698   0.850  1.1709  0.3066 -3.9017
   43MOL0     H 5786   9.387   6.870   0.943 -1.4381  1.3236 -1.5364
   43MOL0     H 5787   9.288   7.348   0.893  1.5367  1.0009  0.8311
   43MOL0     H 5788   9.149   7.543   0.967 -3.1302  1.3829  1.5197
   43MOL0     H 5789   9.911   8.338   2.273 -0.1656 -0.5983 -3.0703
   43MOL0     H 5790  10.134   8.467   2.250 -0.0786  0.9538  1.8591
   43MOL0     H 5791  10.404   8.747   2.102  1.4688 -0.8362  1.9383
   43MOL0     H 5792  10.633   8.870   2.126  2.2070  1.6900  2.6097
   43MOL0     H 5793  10.665   9.118   2.461 -0.5718  1.7455 -0.1821
   43MOL0     H 5794  10.652   9.245   2.343 -0.1374 -0.2458 -1.3653
   43MOL0     H 5795  10.932   9.120   2.382  2.6079  2.1830 -1.2827
   43MOL0     H 5796  10.861   9.235   2.491 -2.3450 -1.9205  1.3757
   43MOL0     H 5797  10.848   9.407   2.312  1.3210  0.4429  1.4180
   43MOL0     H 5798  10.869   9.282   2.182  0.9354  1.2946 -0.5872
   43MOL0     H 5799  11.107   9.255   2.231 -0.1754 -0.6748  0.5107
   43MOL0     H 5800  11.071   9.431   2.213  1.4105  1.2331  2.0021
   43MOL0     H 5801  11.200   9.442   2.603  0.8892 -0.2166 -0.0319
   43MOL0     H 5802  10.444   9.172   2.354  0.4290  1.2186 -1.0096
   43MOL0     H 5803  10.163   9.081   2.399 -0.8619 -2.4121 -0.9197
   43MOL0     H 5804  10.215   9.208   2.274  0.5589 -0.0731 -1.4736
   43MOL0     H 5805  10.114   9.090   2.226 -0.1919  0.7876  0.0376
   44MOL0     O 5806   1.473   6.688   7.340  0.3433 -0.5526 -0.0255
   44MOL0     C 5807   1.427   6.647   7.232 -0.3270 -0.3009 -1.4916
   44MOL0     O 5808   1.499   6.634   7.124  0.1250 -0.0820 -0.3820
   44MOL0     C 5809   1.633   6.663   7.122 -0.3097 -0.4480  0.0081
   44MOL0     C 5810   1.738   6.570   7.119 -0.8129 -0.2362  0.3418
   44MOL0     C 5811   1.872   6.599   7.108 -1.2002  0.4850 -0.3307
   44MOL0     C 5812   1.912   6.731   7.104 -0.1672 -0.5945  0.0184
   44MOL0     O 5813   2.046   6.759   7.113  0.6368 -0.0215  0.4093
   44MOL0     C 5814   2.102   6.888   7.108  0.2829 -0.7965  0.0471
   44MOL0     C 5815   2.112   6.940   6.964  0.0156 -0.5302 -0.9397
   44MOL0     C 5816   2.124   7.090   6.949  0.3280  0.4121  0.2152
   44MOL0     C 5817   2.203   7.135   6.824 -0.8706  0.6156  0.1878
   44MOL0     C 5818   2.358   7.113   6.840  0.8539 -0.1708 -0.1442
   44MOL0     C 5819   2.424   7.232   6.916  0.2679 -0.0200  0.3885
   44MOL0     C 5820   2.573   7.223   6.913 -0.5604  0.2818  0.4526
   44MOL0     C 5821   2.621   7.357   6.967  0.3843 -0.5262  0.2546
   44MOL0     N 5822   2.755   7.355   7.030  0.3538 -0.2790  0.3017
   44MOL0     C 5823   2.786   7.300   7.155  0.4683 -0.2194  0.7413
   44MOL0     C 5824   2.922   7.326   7.167  0.5230  1.2702  0.4718
   44MOL0     C 5825   3.004   7.299   7.294 -0.3269  0.5102  0.3131
   44MOL0     C 5826   3.138   7.231   7.272  0.9217  0.0349  0.1360
   44MOL0     C 5827   3.180   7.186   7.410  0.1104  0.2817 -0.2949
   44MOL0     C 5828   3.310   7.090   7.409 -0.5500 -0.5648 -0.2901
   44MOL0     O 5829   3.426   7.154   7.353 -0.0250 -0.0427 -0.4585
   44MOL0     C 5830   3.548   7.096   7.362  0.1043 -0.3888  0.0105
   44MOL0     C 5831   3.654   7.145   7.276 -0.5228  0.2247  0.1450
   44MOL0     C 5832   3.783   7.088   7.288  0.4157 -0.4967  1.0375
   44MOL0     C 5833   3.814   6.976   7.368  0.4629 -0.0612  0.1180
   44MOL0     C 5834   3.933   6.898   7.355  0.4393 -0.5342  0.4194
   44MOL0     O 5835   4.026   6.947   7.267  0.2801 -0.3427 -0.4314
   44MOL0     C 5836   4.105   6.853   7.201 -0.5948 -0.5178  0.5840
   44MOL0     C 5837   4.056   6.731   7.147  0.6115 -0.9919  0.2384
   44MOL0     C 5838   4.137   6.652   7.076  0.1919  0.1355  0.2839
   44MOL0     C 5839   4.270   6.689   7.045 -0.4646 -0.2378 -0.2259
   44MOL0     O 5840   4.363   6.604   6.991 -0.5930 -0.2165 -0.0758
   44MOL0     C 5841   4.357   6.459   7.002  0.8524  1.1197  0.7446
   44MOL0     C 5842   4.403   6.418   6.857 -0.3905  0.6897  0.5595
   44MOL0     C 5843   4.435   6.266   6.850  0.1615 -0.1680  0.3744
   44MOL0     C 5844   4.456   6.210   6.712  0.9781 -0.2448 -0.4874
   44MOL0     C 5845   4.468   6.050   6.698 -0.3461 -0.4574 -0.7481
   44MOL0     C 5846   4.345   5.959   6.681  0.3060 -0.5951  0.8964
   44MOL0     C 5847   4.273   5.970   6.544 -0.3517 -0.1644  0.3643
   44MOL0     C 5848   4.306   5.863   6.442  1.1280  0.4999 -0.5603
   44MOL0    Cl 5849   4.195   5.880   6.305 -0.1343  0.0133 -0.0891
   44MOL0     C 5850   4.319   6.815   7.095 -0.6907 -0.1048 -0.0444
   44MOL0     C 5851   4.238   6.893   7.175  0.4268 -0.3172 -0.2701
   44MOL0     O 5852   3.933   6.797   7.422 -0.7630  0.1790  0.5222
   44MOL0     C 5853   3.713   6.924   7.461 -0.3117 -0.2135  0.0201
   44MOL0     C 5854   3.587   6.988   7.448  0.4272  0.3829 -0.9813
   44MOL0     N 5855   2.970   7.374   7.046 -0.0353  0.2452  1.1308
   44MOL0     N 5856   2.863   7.401   6.964 -0.5837 -0.3240 -0.8678
   44MOL0     C 5857   1.812   6.831   7.101  0.8677 -0.0360 -0.9642
   44MOL0     C 5858   1.677   6.797   7.114 -0.4769  0.0463  0.0857
   44MOL0     C 5859   1.288   6.608   7.220  0.8194  0.0354 -1.1303
   44MOL0     C 5860   1.238   6.569   7.097  0.1595  0.9048 -0.3846
   44MOL0     C 5861   1.110   6.520   7.072  0.3265 -0.1394  0.0685
   44MOL0     C 5862   1.022   6.507   7.179 -0.5843  0.5867  0.3887
   44MOL0     O 5863   0.898   6.450   7.182 -0.1543 -0.4451  0.2605
   44MOL0     C 5864   0.867   6.357   7.071 -0.5289 -0.7974 -0.4693
   44MOL0     C 5865   0.748   6.277   7.082  0.5522  0.3173  0.7306
   44MOL0     C 5866   0.718   6.229   7.223  0.6778 -0.2256 -0.2239
   44MOL0     C 5867   0.614   6.125   7.232 -0.3651  0.3787 -1.1840
   44MOL0     C 5868   0.481   6.175   7.187 -0.1172 -1.0642 -0.5114
   44MOL0     C 5869   0.375   6.224   7.151  0.0640  0.4508 -0.0907
   44MOL0     C 5870   1.063   6.549   7.306 -0.1913  0.6367 -0.5681
   44MOL0     C 5871   1.191   6.605   7.328  0.3498 -0.3020  0.7166
   44MOL0     C 5872   1.225   6.658   7.470 -0.0235 -0.5947  0.4863
   44MOL0     H 5873   1.710   6.466   7.112 -1.0177 -0.2998  1.7330
   44MOL0     H 5874   1.960   6.535   7.102 -0.2653  1.8799 -2.4909
   44MOL0     H 5875   2.033   6.959   7.154 -1.3174 -0.8881 -2.0853
   44MOL0     H 5876   2.200   6.907   7.153  0.1372  1.3272 -0.4016
   44MOL0     H 5877   2.019   6.919   6.910 -0.6695  0.0889 -0.0306
   44MOL0     H 5878   2.195   6.882   6.923  0.5714 -0.6149  0.2666
   44MOL0     H 5879   2.171   7.134   7.037 -0.3195 -0.1317  0.8343
   44MOL0     H 5880   2.025   7.136   6.940  1.0960  1.8030 -2.1325
   44MOL0     H 5881   2.168   7.087   6.732 -2.1410  0.2971  0.8112
   44MOL0     H 5882   2.197   7.243   6.808  2.3173  1.1312  1.7399
   44MOL0     H 5883   2.374   7.017   6.889  0.3680 -0.1392  0.0826
   44MOL0     H 5884   2.405   7.097   6.743 -2.2018 -2.1768 -1.4698
   44MOL0     H 5885   2.381   7.326   6.880 -1.7049 -1.7417 -2.1882
   44MOL0     H 5886   2.388   7.217   7.018 -1.1603 -0.4855 -0.1497
   44MOL0     H 5887   2.615   7.208   6.813  2.6678  1.5143  1.4942
   44MOL0     H 5888   2.609   7.133   6.965 -1.4174 -1.1474 -1.2959
   44MOL0     H 5889   2.628   7.426   6.882 -1.7902  1.6652  1.6843
   44MOL0     H 5890   2.544   7.399   7.033  0.2073 -1.4585  0.6606
   44MOL0     H 5891   2.714   7.254   7.221 -0.1467  1.2633  1.1562
   44MOL0     H 5892   3.035   7.394   7.340  1.4390  0.8040 -1.3458
   44MOL0     H 5893   2.939   7.243   7.361 -1.4274 -0.4969 -1.5395
   44MOL0     H 5894   3.130   7.151   7.197  0.4620  0.6818 -0.5272
   44MOL0     H 5895   3.219   7.296   7.238  3.0823 -0.8208  3.2292
   44MOL0     H 5896   3.104   7.127   7.462 -0.8860  1.8498  0.0664
   44MOL0     H 5897   3.195   7.279   7.464  0.7016  1.5486 -2.5054
   44MOL0     H 5898   3.297   6.997   7.354  2.3860 -1.0178 -0.3594
   44MOL0     H 5899   3.330   7.057   7.511  0.8514 -0.6584 -0.5776
   44MOL0     H 5900   3.622   7.215   7.200 -0.4033  0.4666  0.3179
   44MOL0     H 5901   3.855   7.136   7.223  0.7086  0.1624  1.8168
   44MOL0     H 5902   3.953   6.710   7.174  0.0982  2.1882  1.1316
   44MOL0     H 5903   4.098   6.562   7.030  1.6073  0.9776 -2.8493
   44MOL0     H 5904   4.414   6.428   7.090  0.0361 -0.7878  0.6531
   44MOL0     H 5905   4.257   6.415   7.015  0.7198  0.5256 -1.6430
   44MOL0     H 5906   4.327   6.442   6.783  1.3716  2.0730 -0.9105
   44MOL0     H 5907   4.490   6.467   6.812  1.6717 -2.1702  1.1794
   44MOL0     H 5908   4.525   6.240   6.907  0.9077 -2.9191 -1.8145
   44MOL0     H 5909   4.357   6.208   6.902 -0.2938 -0.2651 -0.3971
   44MOL0     H 5910   4.549   6.259   6.684  0.8709  0.4632  0.3576
   44MOL0     H 5911   4.380   6.233   6.637  0.3219 -1.6380 -0.2803
   44MOL0     H 5912   4.529   6.006   6.777 -1.7834  0.1015  0.7309
   44MOL0     H 5913   4.533   6.032   6.612  1.2204 -1.0825  0.5257
   44MOL0     H 5914   4.375   5.855   6.702 -2.1803 -1.4658  0.5380
   44MOL0     H 5915   4.275   5.994   6.758  3.2489  3.3091  2.1085
   44MOL0     H 5916   4.297   6.066   6.496  0.2414 -0.6437 -0.3104
   44MOL0     H 5917   4.164   5.966   6.557 -0.4984 -0.6738 -0.8954
   44MOL0     H 5918   4.410   5.859   6.407  0.8089  0.0240 -1.4853
   44MOL0     H 5919   4.288   5.764   6.484  1.2124 -0.3597 -2.4574
   44MOL0     H 5920   4.422   6.849   7.084 -1.0479  1.1185  0.2281
   44MOL0     H 5921   4.272   6.991   7.209  4.9793 -0.9840 -2.1320
   44MOL0     H 5922   3.744   6.842   7.525  3.3828  0.6527 -0.4068
   44MOL0     H 5923   3.509   6.952   7.515  1.2691  0.8151  0.2615
   44MOL0     H 5924   1.828   6.938   7.105 -3.4620  0.7308  1.3309
   44MOL0     H 5925   1.608   6.877   7.138  1.2973  2.8320 -3.2654
   44MOL0     H 5926   1.298   6.591   7.010 -0.1508  2.9851 -0.1275
   44MOL0     H 5927   1.071   6.492   6.974  1.8450  1.4594 -1.0459
   44MOL0     H 5928   0.950   6.286   7.068  3.1596  3.0862  0.2393
   44MOL0     H 5929   0.864   6.408   6.974  2.0457 -0.3356 -0.3731
   44MOL0     H 5930   0.751   6.182   7.028 -0.0831 -1.0675  2.9463
   44MOL0     H 5931   0.666   6.338   7.045  1.4350  1.1095  0.0251
   44MOL0     H 5932   0.688   6.309   7.292  1.2576  0.3046 -0.5772
   44MOL0     H 5933   0.811   6.182   7.254 -0.4006 -1.6230  1.0411
   44MOL0     H 5934   0.644   6.034   7.178 -1.1032 -1.3474  1.1253
   44MOL0     H 5935   0.602   6.093   7.336 -1.5495 -0.1465 -1.4617
   44MOL0     H 5936   0.284   6.263   7.111  0.6595  0.5720 -1.3922
   44MOL0     H 5937   0.984   6.546   7.380 -1.5109 -0.8906 -1.9626
   44MOL0     H 5938   1.144   6.642   7.541 -0.0335  0.4803  0.7320
   44MOL0     H 5939   1.313   6.608   7.512 -0.9235 -1.5957  1.2340
   44MOL0     H 5940   1.241   6.766   7.467 -2.3027 -0.1435  2.2876
   45MOL0     O 5941   4.109  10.774   3.202  0.1101 -0.4839 -0.4341
   45MOL0     C 5942   4.179  10.698   3.257 -0.5190 -1.6670  0.3492
   45MOL0     O 5943   4.285  10.629   3.202 -0.7450 -0.0458 -0.0262
   45MOL0     C 5944   4.344  10.669   3.086 -0.2553  0.1592 -0.1653
   45MOL0     C 5945   4.358  10.803   3.056 -0.2453 -0.4738 -0.3643
   45MOL0     C 5946   4.439  10.846   2.945  0.0532  0.3153 -1.5984
   45MOL0     C 5947   4.494  10.754   2.854  0.0399 -0.3801  0.2274
   45MOL0     O 5948   4.571  10.792   2.746  0.1173 -0.0753 -0.1748
   45MOL0     C 5949   4.706  10.754   2.730 -0.7402  0.8728  0.5443
   45MOL0     C 5950   4.772  10.859   2.639 -0.6352  0.4777 -0.0568
   45MOL0     C 5951   4.784  10.984   2.711 -0.2773  0.9038  0.3336
   45MOL0     C 5952   4.869  10.978   2.836  0.3563  0.2379  0.7831
   45MOL0     C 5953   4.903  11.121   2.885  0.1770  0.0851  0.5611
   45MOL0     C 5954   5.000  11.116   3.005 -0.1452 -0.2042  0.6510
   45MOL0     C 5955   4.947  11.044   3.133  0.4653  0.0747 -0.6341
   45MOL0     C 5956   4.813  11.079   3.202  0.1317 -0.3991  0.3936
   45MOL0     N 5957   4.817  11.213   3.253  0.7590  0.0872  0.1323
   45MOL0     C 5958   4.870  11.234   3.379  0.5855 -0.2564 -0.7717
   45MOL0     C 5959   4.816  11.351   3.416  0.4526  0.0968  0.3142
   45MOL0     C 5960   4.837  11.418   3.548  0.6057  0.4749 -0.3012
   45MOL0     C 5961   4.711  11.484   3.610  0.4196 -0.5288 -0.0837
   45MOL0     C 5962   4.632  11.383   3.695 -1.0207 -0.2032 -1.1905
   45MOL0     C 5963   4.509  11.452   3.757 -0.1932  0.4346  0.2763
   45MOL0     O 5964   4.417  11.346   3.794 -0.7541 -0.5938 -1.0237
   45MOL0     C 5965   4.305  11.388   3.864 -0.4362 -1.2024 -0.5134
   45MOL0     C 5966   4.210  11.287   3.874  0.4626  0.4460 -0.7231
   45MOL0     C 5967   4.089  11.299   3.946  0.3906  0.5522 -0.1686
   45MOL0     C 5968   4.066  11.417   4.010  0.6061 -0.6625  0.2004
   45MOL0     C 5969   3.956  11.443   4.104  0.2774  0.9547  0.2803
   45MOL0     O 5970   3.886  11.326   4.147 -0.9973 -0.1916 -0.1585
   45MOL0     C 5971   3.765  11.317   4.201  0.0547  0.0888  0.5283
   45MOL0     C 5972   3.656  11.347   4.125 -0.2054  0.2066  0.5437
   45MOL0     C 5973   3.539  11.338   4.189 -0.5048  0.3324 -0.3580
   45MOL0     C 5974   3.518  11.285   4.320 -0.5818 -0.9602 -0.2183
   45MOL0     O 5975   3.401  11.259   4.383  0.6106 -0.5006  0.0660
   45MOL0     C 5976   3.295  11.216   4.300  0.2971 -0.0918  0.1626
   45MOL0     C 5977   3.187  11.157   4.392 -0.7285  0.1320  0.8614
   45MOL0     C 5978   3.116  11.046   4.317  0.2390  0.2359  0.6419
   45MOL0     C 5979   2.989  10.992   4.392 -1.0262  0.4541  0.0083
   45MOL0     C 5980   2.923  10.882   4.307 -0.3510  0.3107  0.1703
   45MOL0     C 5981   2.814  10.811   4.386 -0.2098 -0.4059 -0.4745
   45MOL0     C 5982   2.700  10.752   4.307 -1.1875 -0.9086  0.1060
   45MOL0     C 5983   2.601  10.682   4.387  0.1303 -0.7995  0.1250
   45MOL0    Cl 5984   2.460  10.660   4.285 -0.0162  0.2760 -0.2468
   45MOL0     C 5985   3.632  11.252   4.392 -0.1373 -0.6059  0.5160
   45MOL0     C 5986   3.755  11.283   4.336 -1.0961 -0.1809  0.6872
   45MOL0     O 5987   3.913  11.552   4.127 -1.1760 -0.1489 -0.1716
   45MOL0     C 5988   4.157  11.525   3.989  0.6810 -0.2574 -0.2656
   45MOL0     C 5989   4.270  11.511   3.917 -0.5196 -0.7820 -0.5017
   45MOL0     N 5990   4.745  11.402   3.316  0.6026  0.2615 -0.0179
   45MOL0     N 5991   4.729  11.316   3.223 -1.2595 -0.6551 -0.2375
   45MOL0     C 5992   4.483  10.609   2.885  0.4076 -0.3214  0.1705
   45MOL0     C 5993   4.417  10.578   3.007  0.3531  1.0047  0.4159
   45MOL0     C 5994   4.145  10.667   3.396 -0.4206 -0.5779 -0.4735
   45MOL0     C 5995   4.242  10.668   3.494 -0.1754 -0.0675 -0.0730
   45MOL0     C 5996   4.201  10.645   3.627 -0.1991  0.1558  0.1315
   45MOL0     C 5997   4.069  10.626   3.663  0.5698 -0.0081 -0.4024
   45MOL0     O 5998   4.028  10.618   3.794  0.1670  0.1286 -0.2579
   45MOL0     C 5999   4.115  10.623   3.908 -0.7904 -0.0585 -0.1288
   45MOL0     C 6000   4.130  10.769   3.956  0.0200  0.4041  0.5867
   45MOL0     C 6001   4.237  10.784   4.071 -0.8785  0.3868 -0.6023
   45MOL0     C 6002   4.180  10.828   4.202  0.2416  0.5947 -0.4235
   45MOL0     C 6003   4.163  10.969   4.218  0.3361  0.4999  0.0657
   45MOL0     C 6004   4.141  11.088   4.226 -0.3209 -0.5162 -0.0907
   45MOL0     C 6005   3.974  10.624   3.562  0.6322  0.1919  0.1990
   45MOL0     C 6006   4.007  10.631   3.427  0.5080  0.0834  0.0794
   45MOL0     C 6007   3.906  10.609   3.318 -0.3219 -0.2485 -0.3219
   45MOL0     H 6008   4.313  10.875   3.123  3.7964 -0.3744  2.5848
   45MOL0     H 6009   4.460  10.952   2.948 -1.8019  0.7383  2.4963
   45MOL0     H 6010   4.754  10.746   2.827 -0.5664  0.0382  0.3993
   45MOL0     H 6011   4.720  10.659   2.678 -1.2013  0.9730  0.2217
   45MOL0     H 6012   4.703  10.873   2.555 -0.6769 -0.5997 -0.2221
   45MOL0     H 6013   4.869  10.829   2.598  0.0347  1.7743  0.5277
   45MOL0     H 6014   4.684  11.025   2.729  0.1697  2.3900 -0.4640
   45MOL0     H 6015   4.838  11.048   2.641 -1.8985  1.5880 -0.3298
   45MOL0     H 6016   4.807  10.929   2.911 -2.6798  2.3934 -0.0982
   45MOL0     H 6017   4.963  10.932   2.806  0.0400 -0.0535  0.2369
   45MOL0     H 6018   4.945  11.177   2.800 -2.6056 -1.6956 -2.2269
   45MOL0     H 6019   4.811  11.173   2.914 -0.3495  0.5464 -1.6775
   45MOL0     H 6020   5.087  11.063   2.967 -1.3048 -0.6054 -1.6464
   45MOL0     H 6021   5.026  11.220   3.026  1.4403 -0.4341 -0.0153
   45MOL0     H 6022   5.018  11.068   3.212  0.8904 -0.6319 -0.7856
   45MOL0     H 6023   4.946  10.936   3.111  0.8923  0.1142 -0.8619
   45MOL0     H 6024   4.735  11.075   3.125  0.9776 -0.1597 -0.5014
   45MOL0     H 6025   4.791  11.007   3.281  2.7977 -0.8929  0.7717
   45MOL0     H 6026   4.931  11.179   3.450 -0.2828 -0.5463 -0.2407
   45MOL0     H 6027   4.877  11.347   3.622  0.6323  0.3018 -0.4817
   45MOL0     H 6028   4.907  11.499   3.525  3.5398 -1.0092  2.5382
   45MOL0     H 6029   4.743  11.566   3.676 -0.3085  1.4306 -2.0374
   45MOL0     H 6030   4.647  11.527   3.532  0.7406  1.5532  0.7431
   45MOL0     H 6031   4.687  11.341   3.779 -0.7333 -1.0089 -1.7783
   45MOL0     H 6032   4.601  11.303   3.627  2.1459 -2.0841 -0.6032
   45MOL0     H 6033   4.467  11.513   3.677  2.8794  0.9403 -1.0981
   45MOL0     H 6034   4.555  11.517   3.833  2.7922 -0.2238 -0.8438
   45MOL0     H 6035   4.230  11.192   3.827 -0.0809 -0.4984  0.8939
   45MOL0     H 6036   4.021  11.215   3.936  0.3768  0.5450 -0.0067
   45MOL0     H 6037   3.663  11.374   4.020  0.5519  1.6977  0.9615
   45MOL0     H 6038   3.460  11.371   4.122 -2.9064 -0.2152  2.0146
   45MOL0     H 6039   3.253  11.300   4.243  0.2882 -0.2865 -0.1239
   45MOL0     H 6040   3.329  11.143   4.226  1.0602 -0.7445  1.1471
   45MOL0     H 6041   3.225  11.117   4.487 -0.0080  0.0298  0.5395
   45MOL0     H 6042   3.121  11.240   4.418 -2.1730  0.1448 -2.3521
   45MOL0     H 6043   3.082  11.082   4.219  1.3612  0.1034  0.1875
   45MOL0     H 6044   3.185  10.963   4.299 -0.4831 -0.9494  2.9421
   45MOL0     H 6045   2.917  11.070   4.419 -0.9658 -0.1985  2.2730
   45MOL0     H 6046   3.020  10.945   4.486  2.6991 -0.6244 -1.5994
   45MOL0     H 6047   3.005  10.817   4.275 -0.1277  1.6953 -2.3998
   45MOL0     H 6048   2.884  10.923   4.213  1.9871  0.2275 -0.9194
   45MOL0     H 6049   2.856  10.732   4.449 -0.5786  1.1304  1.8362
   45MOL0     H 6050   2.768  10.891   4.445 -1.5462  1.1969 -3.4969
   45MOL0     H 6051   2.745  10.683   4.235  1.2092 -3.0199  3.3467
   45MOL0     H 6052   2.654  10.836   4.254  3.6178  0.6876 -2.1373
   45MOL0     H 6053   2.643  10.584   4.412  1.3282 -0.3758 -0.1417
   45MOL0     H 6054   2.583  10.746   4.473  0.2927  0.3428 -0.6683
   45MOL0     H 6055   3.618  11.198   4.484  0.5114 -1.8674 -0.1058
   45MOL0     H 6056   3.844  11.261   4.395 -1.5740 -5.2167 -0.0286
   45MOL0     H 6057   4.125  11.618   4.036 -1.7914 -1.8168  1.4095
   45MOL0     H 6058   4.338  11.595   3.906 -0.1551 -1.1394 -1.0347
   45MOL0     H 6059   4.525  10.530   2.824 -1.8581 -3.3998  2.2838
   45MOL0     H 6060   4.411  10.476   3.043 -3.0827  1.6775  2.1846
   45MOL0     H 6061   4.347  10.683   3.469 -0.7823  2.4241 -1.5163
   45MOL0     H 6062   4.286  10.658   3.693  1.7143  7.3141 -2.7507
   45MOL0     H 6063   4.212  10.578   3.884 -0.9381 -0.1245 -0.6129
   45MOL0     H 6064   4.079  10.559   3.988  1.3121 -0.5718  0.4824
   45MOL0     H 6065   4.028  10.781   3.996 -1.2577 -4.3043 -0.6387
   45MOL0     H 6066   4.153  10.839   3.875  0.5995 -0.2627  0.1701
   45MOL0     H 6067   4.314  10.856   4.042  0.8801 -0.4287  1.6649
   45MOL0     H 6068   4.282  10.686   4.091  0.2101  1.3982  2.5095
   45MOL0     H 6069   4.096  10.761   4.225  1.7418 -1.9372 -1.7717
   45MOL0     H 6070   4.255  10.807   4.278 -1.1689  2.5354  1.6191
   45MOL0     H 6071   4.141  11.195   4.233  0.8599 -0.6149  2.1698
   45MOL0     H 6072   3.867  10.609   3.575 -0.0402  1.3270 -3.0640
   45MOL0     H 6073   3.947  10.594   3.218 -0.1169  1.5082 -0.5326
   45MOL0     H 6074   3.851  10.517   3.340  0.4995 -0.4669  0.8674
   45MOL0     H 6075   3.829  10.687   3.312 -1.0154 -0.8838  0.0933
   46MOL0     O 6076   7.918   3.898   6.956  0.3377  0.0397  0.1100
   46MOL0     C 6077   7.856   3.812   7.015  0.2017 -0.2280 -0.1208
   46MOL0     O 6078   7.893   3.751   7.130  0.6246  0.6499 -0.0140
   46MOL0     C 6079   8.028   3.758   7.166 -0.7874 -0.2739 -0.0175
   46MOL0     C 6080   8.051   3.773   7.297  0.1492 -0.9337 -0.1627
   46MOL0     C 6081   8.193   3.778   7.343  0.7461  0.3908 -0.2435
   46MOL0     C 6082   8.298   3.760   7.253  0.3666  0.4346 -0.3311
   46MOL0     O 6083   8.421   3.781   7.307 -0.0914 -0.5629  0.8621
   46MOL0     C 6084   8.522   3.793   7.202  0.1604 -0.2276 -0.3128
   46MOL0     C 6085   8.657   3.841   7.273 -0.0458  0.1499 -0.0456
   46MOL0     C 6086   8.711   3.740   7.371 -0.4462  0.7348 -0.8224
   46MOL0     C 6087   8.864   3.715   7.365 -0.3854  0.4695 -0.2460
   46MOL0     C 6088   8.896   3.574   7.437 -1.0621  0.0305 -0.1450
   46MOL0     C 6089   8.891   3.573   7.584  0.1428  0.1180 -0.0129
   46MOL0     C 6090   8.955   3.447   7.641  0.5474  0.1794 -0.2783
   46MOL0     C 6091   8.909   3.426   7.792  0.2315  0.3930 -0.1188
   46MOL0     N 6092   9.015   3.341   7.862 -0.8416 -0.1885  1.1339
   46MOL0     C 6093   9.155   3.333   7.855 -0.5651  0.4109 -1.1528
   46MOL0     C 6094   9.184   3.219   7.936 -0.1579 -0.6871  1.1422
   46MOL0     C 6095   9.320   3.184   7.963  0.1647 -0.0037  0.2986
   46MOL0     C 6096   9.354   3.254   8.099  0.2972 -0.3683 -0.6029
   46MOL0     C 6097   9.287   3.178   8.215 -0.7086  0.7707  0.2237
   46MOL0     C 6098   9.372   3.160   8.343  0.1010 -0.6764 -0.0690
   46MOL0     O 6099   9.405   3.294   8.395 -0.0048  0.0995  0.1697
   46MOL0     C 6100   9.536   3.342   8.366  0.5501 -0.4224  0.2341
   46MOL0     C 6101   9.524   3.470   8.309 -0.3439 -0.7125  1.1958
   46MOL0     C 6102   9.634   3.548   8.289 -0.0552 -0.2975  0.1279
   46MOL0     C 6103   9.759   3.502   8.322 -0.2552 -0.4578 -0.3986
   46MOL0     C 6104   9.877   3.595   8.337  0.5104 -1.0414  0.1128
   46MOL0     O 6105   9.857   3.724   8.305  0.2524 -0.2821 -0.1412
   46MOL0     C 6106   9.947   3.825   8.339 -0.6780  0.4118  0.1487
   46MOL0     C 6107  10.039   3.867   8.240  0.6772 -1.0711  0.1797
   46MOL0     C 6108  10.138   3.968   8.266  0.0299  0.1294 -0.6272
   46MOL0     C 6109  10.144   4.021   8.404  0.6686 -0.1331  0.4205
   46MOL0     O 6110  10.239   4.112   8.435 -0.2468 -0.7164  0.7723
   46MOL0     C 6111  10.335   4.088   8.539  0.3242 -0.5828  0.1186
   46MOL0     C 6112  10.467   4.030   8.482  0.3570  0.3057 -0.4204
   46MOL0     C 6113  10.552   4.134   8.412 -0.7783 -0.4316  0.7172
   46MOL0     C 6114  10.678   4.072   8.336 -0.4237 -0.8074 -0.5757
   46MOL0     C 6115  10.765   4.189   8.290  1.1094 -0.4051 -0.3119
   46MOL0     C 6116  10.873   4.159   8.195 -0.4469  0.4672  0.3426
   46MOL0     C 6117  10.974   4.286   8.194  0.2546  0.7652 -0.2582
   46MOL0     C 6118  11.065   4.285   8.075 -0.7905  0.6007  1.4540
   46MOL0    Cl 6119  10.953   4.328   7.935  0.2549 -0.3472  0.1704
   46MOL0     C 6120  10.055   3.974   8.504 -0.5393  0.0815  0.3072
   46MOL0     C 6121   9.964   3.874   8.470  0.2497  0.5450  1.0770
   46MOL0     O 6122   9.979   3.558   8.395  0.6672  0.1348 -0.9100
   46MOL0     C 6123   9.773   3.369   8.371 -0.0443 -0.6057  0.0331
   46MOL0     C 6124   9.665   3.296   8.402  0.2029 -0.1348 -0.3628
   46MOL0     N 6125   9.068   3.166   7.976  0.3281 -0.3962  0.2341
   46MOL0     N 6126   8.970   3.237   7.938  0.0913  0.2571 -0.7831
   46MOL0     C 6127   8.266   3.720   7.121  0.1123  0.7725  0.0033
   46MOL0     C 6128   8.130   3.714   7.085 -0.9645 -0.6145  0.6422
   46MOL0     C 6129   7.707   3.803   6.972 -0.3553  0.3732 -0.6237
   46MOL0     C 6130   7.611   3.792   7.081  0.7497 -0.2078 -0.5985
   46MOL0     C 6131   7.475   3.773   7.053  0.5037  0.4775 -0.3879
   46MOL0     C 6132   7.435   3.783   6.926  0.0753  0.2991  0.3730
   46MOL0     O 6133   7.299   3.763   6.910  0.3852 -0.3953  0.6005
   46MOL0     C 6134   7.224   3.879   6.892  0.1715 -0.1338 -0.1787
   46MOL0     C 6135   7.078   3.872   6.843  0.8085 -0.1955  0.7301
   46MOL0     C 6136   6.985   3.806   6.956  0.2212  0.8202 -0.4145
   46MOL0     C 6137   6.842   3.793   6.907 -0.2697 -0.0720 -0.0591
   46MOL0     C 6138   6.765   3.707   7.010 -0.4060  0.9915  0.3328
   46MOL0     C 6139   6.690   3.647   7.081  0.5219  0.2631  0.0747
   46MOL0     C 6140   7.523   3.801   6.817 -0.3549  0.6170 -0.4832
   46MOL0     C 6141   7.654   3.809   6.838 -0.5864  1.2979 -0.9228
   46MOL0     C 6142   7.746   3.829   6.717 -0.5222  0.7068  0.5997
   46MOL0     H 6143   7.974   3.799   7.369  2.6800  4.2966  1.1948
   46MOL0     H 6144   8.219   3.803   7.445 -1.3109 -0.3763  0.5008
   46MOL0     H 6145   8.541   3.699   7.150  2.3082 -0.9877  1.6863
   46MOL0     H 6146   8.488   3.872   7.134 -1.6129 -0.0094  0.7402
   46MOL0     H 6147   8.641   3.926   7.339  1.7440 -0.4377  1.2039
   46MOL0     H 6148   8.739   3.858   7.203  0.7125 -2.5163  0.0933
   46MOL0     H 6149   8.664   3.641   7.358  0.0510  0.3923 -0.0479
   46MOL0     H 6150   8.679   3.758   7.474 -0.0353  0.1064 -0.5748
   46MOL0     H 6151   8.909   3.724   7.265  1.1685  0.1756  0.4021
   46MOL0     H 6152   8.901   3.803   7.419 -0.8461  0.4736  0.0641
   46MOL0     H 6153   8.824   3.496   7.411 -1.3746  0.7746 -1.6533
   46MOL0     H 6154   8.994   3.539   7.404 -1.4186 -0.5149 -0.6504
   46MOL0     H 6155   8.957   3.655   7.616  1.9839 -0.7177 -1.4615
   46MOL0     H 6156   8.791   3.590   7.624  1.2173 -1.3913  3.7514
   46MOL0     H 6157   9.063   3.433   7.629  0.1633 -2.8005 -1.0817
   46MOL0     H 6158   8.905   3.370   7.582 -3.0398  1.7358  0.4615
   46MOL0     H 6159   8.906   3.512   7.860 -1.9159 -0.8812  1.5570
   46MOL0     H 6160   8.814   3.373   7.800  1.4407 -2.0110 -0.6345
   46MOL0     H 6161   9.225   3.399   7.805  0.5592  0.5984  0.5895
   46MOL0     H 6162   9.324   3.075   7.971 -1.9055 -0.0149  2.3124
   46MOL0     H 6163   9.387   3.223   7.886 -0.7033  0.9215 -0.0060
   46MOL0     H 6164   9.463   3.254   8.106  0.3584 -2.3020 -0.8654
   46MOL0     H 6165   9.316   3.356   8.104  2.2064  0.3698 -0.5085
   46MOL0     H 6166   9.260   3.084   8.167  1.3537 -0.2043  0.8230
   46MOL0     H 6167   9.192   3.230   8.228 -0.5634  1.2353 -0.5164
   46MOL0     H 6168   9.456   3.093   8.322 -0.0320 -0.2456 -2.2386
   46MOL0     H 6169   9.318   3.100   8.417  0.1788 -1.5785 -0.7320
   46MOL0     H 6170   9.425   3.507   8.286 -0.4296 -0.9124  1.2402
   46MOL0     H 6171   9.619   3.648   8.252  0.9462  0.3677  1.4284
   46MOL0     H 6172  10.040   3.820   8.142 -4.8586  1.5224 -1.5083
   46MOL0     H 6173  10.220   3.997   8.201  2.3692 -4.3297 -0.0158
   46MOL0     H 6174  10.333   4.181   8.597  0.7418 -0.5868  0.1433
   46MOL0     H 6175  10.303   4.011   8.610  0.2379 -1.1165 -0.4946
   46MOL0     H 6176  10.515   3.963   8.553  0.9319 -1.7943 -2.6360
   46MOL0     H 6177  10.429   3.965   8.402  2.2353 -1.5944  0.1483
   46MOL0     H 6178  10.498   4.207   8.351 -2.1821  1.1021  3.6014
   46MOL0     H 6179  10.592   4.186   8.499 -0.3316 -0.6949  0.6753
   46MOL0     H 6180  10.646   4.022   8.244  1.1891 -2.4481 -0.3248
   46MOL0     H 6181  10.731   3.999   8.398 -1.9935 -0.8420  0.7794
   46MOL0     H 6182  10.807   4.244   8.375 -5.0823 -0.7637  3.5884
   46MOL0     H 6183  10.695   4.253   8.236 -0.3544 -1.3220  0.4243
   46MOL0     H 6184  10.928   4.069   8.222 -1.3921 -1.6104 -3.8068
   46MOL0     H 6185  10.824   4.141   8.099  1.3870  1.2515 -0.8057
   46MOL0     H 6186  11.026   4.295   8.290 -1.5603 -0.9371  0.9824
   46MOL0     H 6187  10.915   4.378   8.187 -1.1696  0.0180  1.2784
   46MOL0     H 6188  11.136   4.367   8.088 -0.9017  0.7458  1.1463
   46MOL0     H 6189  11.109   4.186   8.059  0.9286  1.1007  2.8227
   46MOL0     H 6190  10.059   4.007   8.608 -1.1282  0.7385  0.1293
   46MOL0     H 6191   9.896   3.828   8.542 -1.3746  0.0446 -0.6873
   46MOL0     H 6192   9.870   3.325   8.394 -1.5170 -3.7584  0.7576
   46MOL0     H 6193   9.676   3.200   8.450 -2.5933  0.0255  0.7944
   46MOL0     H 6194   8.330   3.704   7.034 -2.4060  2.1262 -2.2497
   46MOL0     H 6195   8.116   3.693   6.979  0.6151 -1.0988  0.5085
   46MOL0     H 6196   7.632   3.798   7.187 -2.5902  0.6305  0.1303
   46MOL0     H 6197   7.409   3.752   7.137  2.5301 -4.6320  0.2900
   46MOL0     H 6198   7.288   3.946   6.833  0.8618  0.6831  1.4388
   46MOL0     H 6199   7.227   3.933   6.987 -0.3181  0.9699 -0.7669
   46MOL0     H 6200   7.059   3.816   6.751 -0.6982 -0.9462  1.4649
   46MOL0     H 6201   7.042   3.974   6.825  2.7946  0.0560 -2.8671
   46MOL0     H 6202   6.977   3.874   7.041 -2.2055 -2.4921  2.2757
   46MOL0     H 6203   7.034   3.719   7.001 -0.9996  1.3918  2.1691
   46MOL0     H 6204   6.794   3.890   6.896  0.4946  0.3573  0.3287
   46MOL0     H 6205   6.826   3.736   6.815  1.4141 -0.1029 -0.3521
   46MOL0     H 6206   6.603   3.614   7.135 -1.4597  2.7980 -1.2799
   46MOL0     H 6207   7.478   3.802   6.718 -0.7749  3.9313 -0.3737
   46MOL0     H 6208   7.790   3.929   6.723  0.2934  0.5004 -1.2254
   46MOL0     H 6209   7.811   3.741   6.716  0.2180  1.2321  1.5642
   46MOL0     H 6210   7.679   3.822   6.631 -1.1554  0.7212  1.0814
   47MOL0     O 6211   1.656   3.394   5.381 -0.5599 -0.3100 -0.7404
   47MOL0     C 6212   1.619   3.294   5.326 -0.2219 -0.0982  0.6759
   47MOL0     O 6213   1.564   3.307   5.200  0.6622 -0.0456  0.5458
   47MOL0     C 6214   1.537   3.430   5.140  0.7296 -0.4596 -0.0989
   47MOL0     C 6215   1.403   3.458   5.103 -0.5838  0.7800 -0.2395
   47MOL0     C 6216   1.361   3.582   5.056  0.3216 -1.2617  0.1831
   47MOL0     C 6217   1.452   3.684   5.026 -0.6536 -0.1378  0.1365
   47MOL0     O 6218   1.427   3.801   4.961 -0.2944  0.2560 -0.3017
   47MOL0     C 6219   1.285   3.830   4.938 -0.0354 -0.3243  0.1664
   47MOL0     C 6220   1.269   3.948   4.842  0.3684  0.2417 -1.2156
   47MOL0     C 6221   1.325   4.074   4.913  0.1067  0.8832  0.1942
   47MOL0     C 6222   1.242   4.203   4.879  0.0120  0.3577 -0.6616
   47MOL0     C 6223   1.285   4.323   4.965  1.2433  0.3199  0.5096
   47MOL0     C 6224   1.208   4.454   4.924 -0.1104  0.6952  0.0943
   47MOL0     C 6225   1.258   4.560   5.014 -0.0256  0.6159  0.1074
   47MOL0     C 6226   1.231   4.708   4.972  0.2515 -0.2764 -0.1281
   47MOL0     N 6227   1.332   4.753   4.878 -0.3348 -0.3408 -0.2592
   47MOL0     C 6228   1.306   4.801   4.757  0.0632  0.2528  1.0848
   47MOL0     C 6229   1.423   4.854   4.709 -0.9814 -0.6353 -0.0817
   47MOL0     C 6230   1.429   4.910   4.569  0.6650  0.6704 -0.1845
   47MOL0     C 6231   1.510   5.039   4.586 -0.0568 -0.2570  0.1429
   47MOL0     C 6232   1.512   5.117   4.457 -0.0345  0.7551  0.5295
   47MOL0     C 6233   1.619   5.224   4.439 -0.1977 -0.7859  0.3954
   47MOL0     O 6234   1.596   5.354   4.500  0.2158  0.7053 -0.3672
   47MOL0     C 6235   1.633   5.385   4.629  0.6235 -0.4615 -1.3715
   47MOL0     C 6236   1.740   5.315   4.697  0.6921 -0.2044  1.2112
   47MOL0     C 6237   1.770   5.350   4.826 -0.2266 -1.0600  0.0172
   47MOL0     C 6238   1.699   5.451   4.899 -0.4693  0.2335  0.3712
   47MOL0     C 6239   1.738   5.488   5.036 -0.2827  0.1738 -0.2667
   47MOL0     O 6240   1.668   5.589   5.089 -0.7298 -0.7666 -0.2987
   47MOL0     C 6241   1.706   5.639   5.211  0.1847 -0.0078 -0.3810
   47MOL0     C 6242   1.840   5.680   5.242  0.6331  0.5367 -1.0185
   47MOL0     C 6243   1.873   5.737   5.359  0.3587  0.0510  0.9576
   47MOL0     C 6244   1.771   5.754   5.458  0.9031  0.0248 -0.1714
   47MOL0     O 6245   1.822   5.813   5.570  0.4676  0.0940 -0.2506
   47MOL0     C 6246   1.729   5.852   5.676 -0.1760 -0.0526  0.5853
   47MOL0     C 6247   1.806   5.937   5.771  0.0677  1.0877 -0.9573
   47MOL0     C 6248   1.725   5.997   5.890 -0.9829  0.1461  0.8735
   47MOL0     C 6249   1.650   5.903   5.981 -1.0416  0.9895  0.5094
   47MOL0     C 6250   1.606   5.955   6.112 -0.4587 -0.4900 -0.4502
   47MOL0     C 6251   1.723   5.928   6.215 -0.3760  0.0599 -0.0258
   47MOL0     C 6252   1.688   5.957   6.359  1.3004  0.5444 -0.0632
   47MOL0     C 6253   1.763   5.877   6.459  0.1809  0.1530  0.4171
   47MOL0    Cl 6254   1.945   5.919   6.446  0.1519  0.2531  0.1404
   47MOL0     C 6255   1.640   5.724   5.429 -0.2794  0.4078  0.1566
   47MOL0     C 6256   1.612   5.669   5.305  0.1470 -0.5262 -0.7250
   47MOL0     O 6257   1.819   5.419   5.095 -0.6140  0.5006  0.1634
   47MOL0     C 6258   1.607   5.530   4.829 -1.4564  0.0761 -0.3548
   47MOL0     C 6259   1.570   5.492   4.699 -0.1129  0.1039  0.3669
   47MOL0     N 6260   1.523   4.810   4.793  0.7323  0.1523  0.3749
   47MOL0     N 6261   1.466   4.746   4.893 -0.8617  0.0117  0.0096
   47MOL0     C 6262   1.584   3.658   5.059  0.4718  0.8323 -0.2009
   47MOL0     C 6263   1.624   3.541   5.113 -0.5733 -1.4247  0.7157
   47MOL0     C 6264   1.630   3.163   5.391  0.0578  0.7534 -0.6203
   47MOL0     C 6265   1.565   3.053   5.322  0.1931  0.0718 -0.3071
   47MOL0     C 6266   1.560   2.927   5.381  0.0851 -0.2400 -0.3409
   47MOL0     C 6267   1.625   2.902   5.500 -0.3747  0.4892  0.4115
   47MOL0     O 6268   1.609   2.777   5.560  0.2923  0.1434  0.0002
   47MOL0     C 6269   1.670   2.759   5.691 -0.1012 -0.0202  0.5146
   47MOL0     C 6270   1.611   2.627   5.752  1.5998  0.6121 -0.6786
   47MOL0     C 6271   1.460   2.649   5.801 -0.8834  0.3042 -0.0328
   47MOL0     C 6272   1.411   2.545   5.906 -0.2573  0.5810  0.0709
   47MOL0     C 6273   1.376   2.426   5.838 -0.5183  1.0994  0.1274
   47MOL0     C 6274   1.336   2.329   5.778 -0.4947  0.8014 -1.1748
   47MOL0     C 6275   1.701   3.008   5.559  0.2132 -0.0209  0.2326
   47MOL0     C 6276   1.700   3.138   5.509 -0.5329  0.5518 -1.0504
   47MOL0     C 6277   1.785   3.240   5.584 -0.6083 -0.4255 -0.4661
   47MOL0     H 6278   1.327   3.384   5.127 -2.1316  1.6396 -2.2180
   47MOL0     H 6279   1.256   3.597   5.034  0.2553 -0.0452  1.2641
   47MOL0     H 6280   1.223   3.755   4.888 -1.4875  0.7678  0.2623
   47MOL0     H 6281   1.232   3.851   5.032 -1.0599  0.0922 -0.4866
   47MOL0     H 6282   1.164   3.952   4.814 -0.5627  0.3685  1.9529
   47MOL0     H 6283   1.320   3.933   4.746 -0.3397  1.0827 -1.7279
   47MOL0     H 6284   1.433   4.086   4.900  0.3632  1.5308  2.5790
   47MOL0     H 6285   1.299   4.059   5.018 -2.1127  0.5583 -0.3498
   47MOL0     H 6286   1.250   4.215   4.770 -0.6865 -1.9532 -1.0326
   47MOL0     H 6287   1.137   4.184   4.900  0.9236 -1.5819  2.9078
   47MOL0     H 6288   1.279   4.303   5.072  0.2897 -2.4243  0.0175
   47MOL0     H 6289   1.388   4.340   4.930  0.7792  2.8136  0.1519
   47MOL0     H 6290   1.225   4.472   4.817  2.1098  0.8938  0.4429
   47MOL0     H 6291   1.102   4.432   4.937  0.6567 -3.6962  0.6404
   47MOL0     H 6292   1.366   4.543   5.022 -0.1671 -0.6002 -0.2939
   47MOL0     H 6293   1.210   4.541   5.110  1.9578 -3.4967  0.5180
   47MOL0     H 6294   1.131   4.731   4.934  1.7931  5.8076 -1.4783
   47MOL0     H 6295   1.242   4.766   5.064  0.6732 -1.2429  0.4538
   47MOL0     H 6296   1.211   4.802   4.705  0.6298  2.0529 -0.0272
   47MOL0     H 6297   1.478   4.843   4.498 -2.2090  0.5950 -2.3151
   47MOL0     H 6298   1.332   4.952   4.540  0.9791 -0.3128 -2.9289
   47MOL0     H 6299   1.477   5.101   4.670  0.3979 -3.2911  2.7645
   47MOL0     H 6300   1.611   5.017   4.622  0.1226 -0.4451 -0.4692
   47MOL0     H 6301   1.415   5.163   4.437  0.0610  0.8023  0.1559
   47MOL0     H 6302   1.516   5.048   4.371 -2.1914 -0.9300  1.6655
   47MOL0     H 6303   1.616   5.247   4.332  2.0642  2.9912  0.9546
   47MOL0     H 6304   1.715   5.180   4.464 -0.8817 -1.8137  1.2755
   47MOL0     H 6305   1.803   5.237   4.656  0.2680 -0.5341  1.1766
   47MOL0     H 6306   1.848   5.294   4.876 -1.1505 -2.4429 -0.0433
   47MOL0     H 6307   1.920   5.660   5.171 -0.9173 -1.2835 -2.3858
   47MOL0     H 6308   1.976   5.759   5.383  0.5664 -1.2450  1.3462
   47MOL0     H 6309   1.644   5.911   5.641 -1.3362 -2.1227 -0.2270
   47MOL0     H 6310   1.700   5.766   5.737  0.5389 -0.3555  0.5056
   47MOL0     H 6311   1.884   5.876   5.818 -2.3457 -2.1263 -0.7370
   47MOL0     H 6312   1.840   6.024   5.716  3.4046 -0.1225 -1.0106
   47MOL0     H 6313   1.790   6.058   5.954 -0.3784 -1.0834  1.4738
   47MOL0     H 6314   1.651   6.064   5.845  1.2763 -0.0701 -3.7468
   47MOL0     H 6315   1.711   5.813   5.991 -1.3346  0.3151 -2.7014
   47MOL0     H 6316   1.569   5.885   5.910 -0.7244  3.5721 -0.6416
   47MOL0     H 6317   1.509   5.906   6.129 -0.1475 -0.5999  1.1849
   47MOL0     H 6318   1.576   6.060   6.112  3.2048  0.7736  2.3831
   47MOL0     H 6319   1.743   5.821   6.221  3.1786  0.6919  3.7802
   47MOL0     H 6320   1.811   5.989   6.190  0.1754 -0.2404  1.1256
   47MOL0     H 6321   1.584   5.926   6.369  1.2973  0.8460  0.8985
   47MOL0     H 6322   1.699   6.061   6.391  0.1385  0.0471  2.1515
   47MOL0     H 6323   1.734   5.895   6.563  2.1340  0.7898  0.9013
   47MOL0     H 6324   1.754   5.771   6.431  2.3967  0.7609 -3.2427
   47MOL0     H 6325   1.557   5.746   5.496 -1.4062 -1.3649 -0.5770
   47MOL0     H 6326   1.509   5.655   5.272 -0.8063 -1.3586  2.2619
   47MOL0     H 6327   1.548   5.610   4.873 -1.4041 -0.0382 -0.0750
   47MOL0     H 6328   1.491   5.547   4.648 -1.6429 -0.5086  1.9745
   47MOL0     H 6329   1.660   3.735   5.046  0.2418  0.7574 -2.4110
   47MOL0     H 6330   1.730   3.530   5.132  0.1215 -1.2515 -2.5285
   47MOL0     H 6331   1.516   3.069   5.227 -0.0340  0.2461 -0.1599
   47MOL0     H 6332   1.499   2.859   5.322 -1.7911  1.1604 -0.0876
   47MOL0     H 6333   1.645   2.846   5.752  0.8901  0.7880 -0.1849
   47MOL0     H 6334   1.780   2.755   5.690  0.0329  2.1980 -0.8566
   47MOL0     H 6335   1.678   2.592   5.831 -0.2855  0.4363  0.9206
   47MOL0     H 6336   1.600   2.560   5.666 -3.5223  1.7777 -1.2378
   47MOL0     H 6337   1.389   2.643   5.718 -1.7990  1.1656  0.6712
   47MOL0     H 6338   1.460   2.747   5.850  0.9584  0.5983 -0.5425
   47MOL0     H 6339   1.494   2.537   5.977 -0.0876 -3.0966 -0.3231
   47MOL0     H 6340   1.325   2.586   5.959  0.3238  0.6452  0.9770
   47MOL0     H 6341   1.297   2.239   5.735  0.5850 -1.8916  2.9163
   47MOL0     H 6342   1.748   2.979   5.652  3.0745 -0.0232 -1.1030
   47MOL0     H 6343   1.867   3.182   5.626 -0.1051 -0.3261 -1.2837
   47MOL0     H 6344   1.841   3.313   5.525  4.4605 -3.2558  0.2559
   47MOL0     H 6345   1.728   3.287   5.665 -1.8291  2.3125 -2.7497
   48MOL0     O 6346   6.251   1.248   6.869 -0.7655  0.0114 -0.3458
   48MOL0     C 6347   6.327   1.204   6.958 -0.0379 -0.6344 -0.0608
   48MOL0     O 6348   6.461   1.228   6.958 -0.4413 -0.4518 -1.0098
   48MOL0     C 6349   6.500   1.319   6.860 -0.3812  0.1921 -0.7924
   48MOL0     C 6350   6.463   1.453   6.861  0.2224 -0.0293 -0.3620
   48MOL0     C 6351   6.518   1.538   6.764  0.1167  0.1056 -0.3606
   48MOL0     C 6352   6.618   1.494   6.668  0.2522  0.5038 -0.5243
   48MOL0     O 6353   6.676   1.576   6.573 -0.1375 -0.2833  0.3967
   48MOL0     C 6354   6.606   1.686   6.531 -0.5637 -0.5602  0.3338
   48MOL0     C 6355   6.702   1.763   6.432 -0.5698 -0.8731  0.4160
   48MOL0     C 6356   6.645   1.889   6.370 -1.0991 -0.1725  0.0438
   48MOL0     C 6357   6.601   2.000   6.462  0.3088 -0.2368 -0.6816
   48MOL0     C 6358   6.548   2.122   6.375 -0.1558 -0.3452  0.3767
   48MOL0     C 6359   6.472   2.078   6.244 -0.7038 -0.5877 -0.2370
   48MOL0     C 6360   6.341   1.997   6.287  0.2482 -0.1270 -0.4494
   48MOL0     C 6361   6.293   1.921   6.162 -1.0299  0.1146 -0.1878
   48MOL0     N 6362   6.359   1.791   6.143 -0.4031 -0.4242  0.5270
   48MOL0     C 6363   6.362   1.682   6.228  0.2459 -0.1002  0.8045
   48MOL0     C 6364   6.443   1.591   6.165 -1.3052  0.3702  0.5505
   48MOL0     C 6365   6.494   1.470   6.236  0.1241  0.1744 -0.0802
   48MOL0     C 6366   6.603   1.388   6.165 -0.7030  0.7525  0.4809
   48MOL0     C 6367   6.548   1.316   6.033  0.4544 -0.0775  0.3910
   48MOL0     C 6368   6.643   1.214   5.982  0.5262 -0.1167  0.0132
   48MOL0     O 6369   6.761   1.282   5.934  0.4346  0.1140 -0.1034
   48MOL0     C 6370   6.864   1.198   5.900 -1.1633 -0.0727  0.2741
   48MOL0     C 6371   6.985   1.269   5.886 -0.1374  0.8631  0.3172
   48MOL0     C 6372   7.103   1.192   5.860  0.2483 -0.3893  0.2687
   48MOL0     C 6373   7.098   1.048   5.854 -0.2227 -0.7320  0.6662
   48MOL0     C 6374   7.227   0.977   5.833 -0.5371  1.0012  0.6990
   48MOL0     O 6375   7.342   1.050   5.811  0.2221 -0.0524  0.2000
   48MOL0     C 6376   7.454   0.973   5.796  0.9483  0.6530 -1.1924
   48MOL0     C 6377   7.542   0.955   5.899 -0.7979  0.9603 -0.0574
   48MOL0     C 6378   7.659   0.870   5.879  0.5845  0.0143 -0.0992
   48MOL0     C 6379   7.686   0.810   5.760  0.1915  0.7326  1.7285
   48MOL0     O 6380   7.797   0.734   5.740 -0.1878 -0.0015 -0.0205
   48MOL0     C 6381   7.883   0.702   5.847 -0.0040  0.1962  0.4929
   48MOL0     C 6382   7.968   0.583   5.799 -0.5408  0.2442 -0.4465
   48MOL0     C 6383   8.069   0.548   5.894 -1.0438 -0.2394 -0.1034
   48MOL0     C 6384   8.021   0.459   6.007  0.4823  0.9162 -0.7371
   48MOL0     C 6385   8.096   0.448   6.140 -0.2890 -0.4514  0.6908
   48MOL0     C 6386   8.083   0.570   6.231  0.4879  0.5790 -0.9006
   48MOL0     C 6387   8.151   0.548   6.374 -0.0377 -0.1886 -0.4674
   48MOL0     C 6388   8.309   0.548   6.381 -0.3772  0.0154 -1.0704
   48MOL0    Cl 6389   8.378   0.708   6.321  0.4624 -0.2814 -0.2025
   48MOL0     C 6390   7.594   0.841   5.656 -0.6235  0.2199  1.1209
   48MOL0     C 6391   7.486   0.927   5.669 -0.3754  0.1294  0.8437
   48MOL0     O 6392   7.220   0.849   5.830 -0.6170 -0.0369  0.0342
   48MOL0     C 6393   6.980   0.980   5.848  0.4899 -0.6444 -0.5348
   48MOL0     C 6394   6.867   1.057   5.876  0.4396  0.8335  0.4304
   48MOL0     N 6395   6.503   1.646   6.048  0.1085 -0.4160 -0.2929
   48MOL0     N 6396   6.444   1.767   6.038 -0.0856  0.4476 -0.0584
   48MOL0     C 6397   6.652   1.359   6.669  0.2048 -0.3825  0.0988
   48MOL0     C 6398   6.597   1.278   6.765 -0.0003  0.2500 -0.0518
   48MOL0     C 6399   6.264   1.127   7.076 -0.4905 -0.2452 -0.2703
   48MOL0     C 6400   6.356   1.060   7.159 -0.8542  0.1326 -0.7175
   48MOL0     C 6401   6.310   0.984   7.271  0.2397  0.3007  0.3504
   48MOL0     C 6402   6.176   0.990   7.302 -0.0831 -0.0282 -0.6569
   48MOL0     O 6403   6.123   0.930   7.419  0.0613 -0.3422  0.4528
   48MOL0     C 6404   6.150   1.010   7.544  1.3636 -0.1893  0.4243
   48MOL0     C 6405   6.066   0.980   7.669  0.9288 -0.2620  0.6226
   48MOL0     C 6406   6.122   1.046   7.797  0.2838  0.0513  0.2115
   48MOL0     C 6407   6.061   0.984   7.921 -0.1456 -0.6577 -0.4240
   48MOL0     C 6408   5.932   1.050   7.957  0.3699 -0.5190  1.3933
   48MOL0     C 6409   5.826   1.101   7.993  0.3425 -0.3182 -0.2678
   48MOL0     C 6410   6.090   1.059   7.222  0.7291  0.2004  0.6214
   48MOL0     C 6411   6.128   1.130   7.103  0.5503  0.2190  0.5014
   48MOL0     C 6412   6.022   1.195   7.019 -0.0478  0.2195 -0.2580
   48MOL0     H 6413   6.394   1.485   6.937 -3.2691 -1.1011 -2.8366
   48MOL0     H 6414   6.477   1.639   6.763 -1.1595 -0.3871  0.2912
   48MOL0     H 6415   6.512   1.664   6.478 -0.7392  2.5806 -0.9052
   48MOL0     H 6416   6.582   1.753   6.614  0.8393  1.4015 -0.7628
   48MOL0     H 6417   6.721   1.696   6.348  0.6482  2.4372 -2.2038
   48MOL0     H 6418   6.804   1.776   6.468  0.1673 -3.3068 -0.6180
   48MOL0     H 6419   6.561   1.861   6.306 -1.6840  1.5212 -0.0069
   48MOL0     H 6420   6.733   1.922   6.313 -0.8973 -2.1691 -0.8662
   48MOL0     H 6421   6.526   1.962   6.532 -0.2406 -1.6800 -1.9886
   48MOL0     H 6422   6.677   2.043   6.528 -2.0433 -0.5754  2.4940
   48MOL0     H 6423   6.492   2.193   6.436 -1.5506 -0.5479 -0.6116
   48MOL0     H 6424   6.641   2.171   6.346  1.0030 -1.3485  2.2569
   48MOL0     H 6425   6.434   2.166   6.191 -1.1008  1.6317  3.4129
   48MOL0     H 6426   6.541   2.020   6.181  2.2008  0.3923  1.8453
   48MOL0     H 6427   6.259   2.060   6.323 -1.5545 -3.1524  1.1544
   48MOL0     H 6428   6.366   1.935   6.373  1.0707  1.0310  0.1743
   48MOL0     H 6429   6.184   1.913   6.172 -1.3694  1.8649 -1.8869
   48MOL0     H 6430   6.320   1.986   6.078  0.6958  1.7339  1.5310
   48MOL0     H 6431   6.323   1.664   6.328  1.8584 -5.4722  0.8018
   48MOL0     H 6432   6.538   1.493   6.333  0.3310  1.4821 -0.4657
   48MOL0     H 6433   6.411   1.402   6.256  1.1854 -1.1483  0.0221
   48MOL0     H 6434   6.691   1.449   6.141  0.6741 -1.0614  0.6520
   48MOL0     H 6435   6.636   1.308   6.233 -1.8423  1.5022  1.9743
   48MOL0     H 6436   6.519   1.398   5.966  1.7747  1.1084  1.2126
   48MOL0     H 6437   6.457   1.259   6.057 -0.7256  1.4161 -0.3455
   48MOL0     H 6438   6.605   1.162   5.893  1.6064  2.5374 -2.1451
   48MOL0     H 6439   6.677   1.152   6.066  1.4226  2.4018  1.6128
   48MOL0     H 6440   6.984   1.377   5.880  2.5624  1.0498  1.7369
   48MOL0     H 6441   7.193   1.253   5.852 -1.3333  1.9229 -1.2491
   48MOL0     H 6442   7.545   1.017   5.987  0.4496  3.0400 -1.4802
   48MOL0     H 6443   7.730   0.849   5.958 -0.7512 -2.5428  0.5278
   48MOL0     H 6444   7.940   0.792   5.872  0.9725 -1.0974  3.3215
   48MOL0     H 6445   7.824   0.666   5.932 -1.4694  2.1668  0.3769
   48MOL0     H 6446   7.902   0.501   5.769  0.9562 -0.4169 -2.1199
   48MOL0     H 6447   8.021   0.618   5.710  1.4757  0.6856  0.8804
   48MOL0     H 6448   8.146   0.487   5.846 -0.2109  0.5407  0.2189
   48MOL0     H 6449   8.117   0.638   5.932 -0.0617 -0.8810  0.2218
   48MOL0     H 6450   8.021   0.355   5.972  0.9468  1.8917 -4.0480
   48MOL0     H 6451   7.916   0.465   6.035  1.1464 -0.1568  2.3108
   48MOL0     H 6452   8.202   0.444   6.111 -0.7113  1.2223 -1.3574
   48MOL0     H 6453   8.067   0.356   6.191 -2.4207 -0.0856  0.2161
   48MOL0     H 6454   8.117   0.660   6.179 -0.7768  2.1420  0.8375
   48MOL0     H 6455   7.979   0.593   6.256  0.7473  1.0812 -0.2238
   48MOL0     H 6456   8.111   0.464   6.431  4.2528 -2.5089 -0.4533
   48MOL0     H 6457   8.116   0.631   6.436 -1.4769 -1.4969  0.5431
   48MOL0     H 6458   8.334   0.543   6.488 -2.1361  2.2675 -0.4888
   48MOL0     H 6459   8.336   0.467   6.313 -3.9945  0.1610 -2.9146
   48MOL0     H 6460   7.601   0.799   5.557 -2.7169  2.8400 -0.2637
   48MOL0     H 6461   7.419   0.944   5.585 -1.6979  0.5568  1.9427
   48MOL0     H 6462   6.966   0.874   5.831 -2.3672 -0.8986  2.3501
   48MOL0     H 6463   6.769   1.011   5.861  0.2815  0.8482  1.3822
   48MOL0     H 6464   6.718   1.331   6.588 -1.0477 -1.9964 -0.4118
   48MOL0     H 6465   6.623   1.174   6.777 -1.4692 -0.1085  0.1721
   48MOL0     H 6466   6.462   1.067   7.140 -0.9542 -1.0546 -1.9194
   48MOL0     H 6467   6.378   0.934   7.338 -0.6632  0.2285  1.2338
   48MOL0     H 6468   6.133   1.115   7.517 -0.3640 -1.1785 -2.8155
   48MOL0     H 6469   6.253   0.983   7.571  1.0623 -0.6423  1.1675
   48MOL0     H 6470   6.076   0.872   7.688  5.2838 -0.3416 -0.9170
   48MOL0     H 6471   5.967   1.016   7.640  1.2459 -0.5203 -0.8707
   48MOL0     H 6472   6.123   1.155   7.793  0.4928  0.0698  0.6879
   48MOL0     H 6473   6.224   1.008   7.802 -0.2901 -1.5944  0.2957
   48MOL0     H 6474   6.032   0.881   7.901  0.6013 -1.0092  0.2925
   48MOL0     H 6475   6.136   0.992   8.000  1.8605 -2.0323 -2.0684
   48MOL0     H 6476   5.734   1.143   8.029 -0.2209 -0.6545 -1.2652
   48MOL0     H 6477   5.985   1.057   7.250  0.5805  1.7234  0.2668
   48MOL0     H 6478   6.046   1.302   7.020  1.6481 -0.0488 -2.7619
   48MOL0     H 6479   6.034   1.169   6.913  1.4207  2.3937 -0.6828
   48MOL0     H 6480   5.923   1.174   7.061  1.4495 -2.8024  2.1681
   49MOL0     O 6481  10.203   9.137   7.014 -0.5474  0.8703  0.1796
   49MOL0     C 6482  10.295   9.117   7.092 -0.0771 -0.0524  0.8639
   49MOL0     O 6483  10.429   9.155   7.082 -0.0382 -0.1546  0.2180
   49MOL0     C 6484  10.493   9.183   6.963  1.3377 -0.5440 -0.3266
   49MOL0     C 6485  10.446   9.142   6.839  0.3453 -0.7679 -0.0703
   49MOL0     C 6486  10.516   9.183   6.730 -0.3104 -0.2991  1.2473
   49MOL0     C 6487  10.626   9.268   6.745  0.2770 -0.2565 -0.4162
   49MOL0     O 6488  10.683   9.334   6.645  0.0088  0.0607  0.1781
   49MOL0     C 6489  10.722   9.265   6.522  0.2341  0.0888 -0.6605
   49MOL0     C 6490  10.845   9.189   6.530 -0.2117  0.7539  0.5340
   49MOL0     C 6491  10.979   9.264   6.554 -0.3647  0.1049  0.3287
   49MOL0     C 6492  11.008   9.272   6.706 -0.1973 -0.1891  0.2913
   49MOL0     C 6493  11.132   9.351   6.735 -0.6240 -0.3688 -0.1191
   49MOL0     C 6494  11.196   9.297   6.860 -0.9100 -0.6336 -0.6735
   49MOL0     C 6495  11.312   9.377   6.909 -0.3586  0.2881  0.6822
   49MOL0     C 6496  11.352   9.307   7.038 -0.0408 -0.0881  0.0592
   49MOL0     N 6497  11.474   9.356   7.117  0.9895  0.5079  0.6139
   49MOL0     C 6498  11.605   9.360   7.081 -0.6366 -0.5292  0.6876
   49MOL0     C 6499  11.664   9.409   7.190 -0.8934 -0.5647 -0.7108
   49MOL0     C 6500  11.815   9.409   7.211  0.2436  0.0947  0.3745
   49MOL0     C 6501  11.856   9.517   7.302 -0.5307 -0.2982 -0.2580
   49MOL0     C 6502  12.007   9.516   7.316 -0.4698 -0.6642 -0.1674
   49MOL0     C 6503  12.056   9.623   7.411 -0.0542 -0.2658 -0.3699
   49MOL0     O 6504  12.197   9.638   7.405  0.2591 -0.3037  0.5797
   49MOL0     C 6505  12.261   9.704   7.294  0.3461  0.2386  1.1481
   49MOL0     C 6506  12.193   9.765   7.184 -0.1235  0.4415  0.1012
   49MOL0     C 6507  12.261   9.819   7.069  0.9752 -0.3374  0.2313
   49MOL0     C 6508  12.399   9.816   7.070  0.0966  0.0512  0.0173
   49MOL0     C 6509  12.478   9.869   6.957  0.0147  0.1998 -1.2432
   49MOL0     O 6510  12.609   9.829   6.949 -0.1161  0.4634 -0.1833
   49MOL0     C 6511  12.709   9.920   6.923  0.1419  0.2020  0.3269
   49MOL0     C 6512  12.690  10.052   6.863 -0.7080  0.2141  0.3559
   49MOL0     C 6513  12.800  10.141   6.845  0.0547 -0.9266  0.1745
   49MOL0     C 6514  12.933  10.092   6.862  0.0773 -0.3444  0.8168
   49MOL0     O 6515  13.047  10.164   6.843  0.2959 -0.0735  0.2835
   49MOL0     C 6516  13.024  10.289   6.767  0.4147  0.5500 -0.2928
   49MOL0     C 6517  13.166  10.339   6.733  0.6756 -0.1480  0.2228
   49MOL0     C 6518  13.151  10.472   6.668  0.5425  0.6216 -0.1620
   49MOL0     C 6519  13.289  10.522   6.604  0.9459  0.1305  0.6868
   49MOL0     C 6520  13.255  10.646   6.521  0.9742 -0.3395 -0.0855
   49MOL0     C 6521  13.368  10.712   6.454  0.6618  0.0194 -1.1150
   49MOL0     C 6522  13.424  10.830   6.543  0.0204  0.2029  0.0022
   49MOL0     C 6523  13.548  10.893   6.494 -0.5438  0.0445 -1.4376
   49MOL0    Cl 6524  13.685  10.885   6.617 -0.2374  0.2955  0.6121
   49MOL0     C 6525  12.943   9.963   6.930 -1.2108  0.0501  1.1050
   49MOL0     C 6526  12.831   9.883   6.967 -1.3089  1.0878 -0.0553
   49MOL0     O 6527  12.421   9.925   6.866 -0.0902 -0.9718 -0.3916
   49MOL0     C 6528  12.468   9.762   7.180 -0.1123 -0.4086 -0.4850
   49MOL0     C 6529  12.397   9.698   7.286  0.1922  0.1286 -0.3482
   49MOL0     N 6530  11.567   9.427   7.292  0.3353 -0.1076  0.3153
   49MOL0     N 6531  11.455   9.405   7.239  0.1483  0.4401 -0.3815
   49MOL0     C 6532  10.668   9.300   6.876 -0.3744 -0.2417 -0.1314
   49MOL0     C 6533  10.609   9.255   6.987  0.4688  0.0745 -0.1393
   49MOL0     C 6534  10.269   9.040   7.213 -0.1084  0.7505  0.2281
   49MOL0     C 6535  10.372   8.976   7.273 -0.8308  0.8725 -0.4347
   49MOL0     C 6536  10.361   8.891   7.375 -0.0840  0.3606 -0.3681
   49MOL0     C 6537  10.228   8.862   7.434 -0.7182  1.1009 -0.7286
   49MOL0     O 6538  10.217   8.763   7.528  0.0531  0.1792 -0.5594
   49MOL0     C 6539  10.209   8.819   7.659 -0.3609 -0.4703  1.1768
   49MOL0     C 6540  10.068   8.874   7.690  0.1675  0.0018 -0.1331
   49MOL0     C 6541   9.962   8.756   7.680 -0.1092 -1.1259 -0.0709
   49MOL0     C 6542   9.826   8.824   7.710 -0.2827 -0.2604  0.4653
   49MOL0     C 6543   9.794   8.917   7.603 -0.8424  0.4270  1.1594
   49MOL0     C 6544   9.757   8.992   7.512  0.3515  0.3530  0.6716
   49MOL0     C 6545  10.120   8.930   7.370  0.4110  0.0137 -0.3502
   49MOL0     C 6546  10.136   9.027   7.269 -0.5380  0.0056 -0.4069
   49MOL0     C 6547  10.012   9.092   7.220  0.7241  0.0225 -0.1723
   49MOL0     H 6548  10.364   9.070   6.834 -0.7877  0.1673  2.7078
   49MOL0     H 6549  10.488   9.160   6.627 -0.2620  1.9372  0.6805
   49MOL0     H 6550  10.641   9.194   6.500 -0.3292  1.2420 -2.4937
   49MOL0     H 6551  10.727   9.340   6.443  1.2392 -0.8146 -1.4812
   49MOL0     H 6552  10.853   9.129   6.439 -0.3407 -1.1276  1.7100
   49MOL0     H 6553  10.837   9.112   6.607  2.4842 -0.6130 -0.4120
   49MOL0     H 6554  10.960   9.365   6.518 -0.6538 -0.7285 -2.0013
   49MOL0     H 6555  11.064   9.217   6.504 -0.9743 -1.4593  0.6948
   49MOL0     H 6556  10.922   9.315   6.758  2.2238  3.4118  1.7037
   49MOL0     H 6557  11.021   9.168   6.738 -2.3425 -1.1437 -1.6592
   49MOL0     H 6558  11.206   9.343   6.655 -1.0273 -0.6496 -0.4694
   49MOL0     H 6559  11.115   9.459   6.742  0.5573 -0.2317  1.0403
   49MOL0     H 6560  11.124   9.305   6.942  0.4045 -0.5540  0.5128
   49MOL0     H 6561  11.223   9.192   6.853  0.8034 -0.2052 -0.7862
   49MOL0     H 6562  11.279   9.479   6.931 -0.7081  0.5012 -0.7277
   49MOL0     H 6563  11.397   9.367   6.841 -2.0101 -0.6076 -1.3470
   49MOL0     H 6564  11.265   9.306   7.104 -2.0946  0.9747 -2.4510
   49MOL0     H 6565  11.375   9.207   7.001  0.0251  0.5469 -1.7598
   49MOL0     H 6566  11.641   9.320   6.987 -1.6768  1.6570 -0.7212
   49MOL0     H 6567  11.841   9.308   7.246 -1.9242 -0.1342  1.5078
   49MOL0     H 6568  11.861   9.420   7.113  1.1053 -1.3954  0.5720
   49MOL0     H 6569  11.817   9.610   7.258  2.2340  2.3528  2.3487
   49MOL0     H 6570  11.817   9.490   7.400  3.9271 -0.7539  1.6373
   49MOL0     H 6571  12.065   9.506   7.224  1.9959 -2.5374  1.4506
   49MOL0     H 6572  12.034   9.421   7.363  0.2073  0.5167  1.9415
   49MOL0     H 6573  12.022   9.597   7.512 -1.1566 -1.4429 -1.0051
   49MOL0     H 6574  12.004   9.717   7.390 -1.9637 -1.4996 -1.5328
   49MOL0     H 6575  12.084   9.762   7.186 -0.1193 -1.9768 -0.5206
   49MOL0     H 6576  12.211   9.866   6.985 -0.2060 -0.6823  0.7159
   49MOL0     H 6577  12.599  10.090   6.820  0.1279 -1.8447 -3.6861
   49MOL0     H 6578  12.778  10.233   6.792  0.2296  0.1008  1.8109
   49MOL0     H 6579  12.970  10.264   6.675 -1.7423  0.4589  0.9480
   49MOL0     H 6580  12.977  10.369   6.825  0.9423 -0.3967  1.5202
   49MOL0     H 6581  13.228  10.345   6.822  2.8086 -4.8313 -0.6123
   49MOL0     H 6582  13.214  10.265   6.668  1.1032 -1.4755  1.9792
   49MOL0     H 6583  13.074  10.466   6.591  0.2878 -1.9923  0.2188
   49MOL0     H 6584  13.111  10.541   6.743 -1.7760 -3.4880  2.7116
   49MOL0     H 6585  13.335  10.448   6.538 -2.0106 -3.7174  2.5569
   49MOL0     H 6586  13.355  10.557   6.684 -1.2022  0.5272  2.3888
   49MOL0     H 6587  13.194  10.713   6.583 -0.8829 -0.9916 -1.1150
   49MOL0     H 6588  13.190  10.615   6.439  1.0947  0.7785 -0.6350
   49MOL0     H 6589  13.439  10.636   6.422 -0.0334 -0.8920 -0.5464
   49MOL0     H 6590  13.336  10.751   6.356  2.9106 -1.0594 -2.3452
   49MOL0     H 6591  13.428  10.800   6.649 -0.4426 -0.2008 -0.0902
   49MOL0     H 6592  13.344  10.903   6.531 -0.7740 -0.7984 -0.9171
   49MOL0     H 6593  13.577  10.866   6.393  4.5673  0.9671 -0.4750
   49MOL0     H 6594  13.538  11.002   6.494 -1.7039 -0.0351 -0.5339
   49MOL0     H 6595  13.034   9.909   6.956 -3.2619 -3.8534  0.9435
   49MOL0     H 6596  12.851   9.788   7.015  1.7452  1.7984  0.2715
   49MOL0     H 6597  12.574   9.769   7.203 -0.8697 -1.7002  4.8727
   49MOL0     H 6598  12.439   9.654   7.376  1.8491 -0.8663 -1.5528
   49MOL0     H 6599  10.754   9.361   6.902 -1.3933  1.2405 -0.0604
   49MOL0     H 6600  10.635   9.271   7.091 -1.2831 -1.4721  0.5892
   49MOL0     H 6601  10.474   8.985   7.237 -0.4568  1.8465  0.8186
   49MOL0     H 6602  10.447   8.837   7.414 -1.0946  0.8797  2.9640
   49MOL0     H 6603  10.284   8.899   7.659  0.0871 -0.7775 -2.0014
   49MOL0     H 6604  10.240   8.743   7.731 -1.0716 -1.6334  0.2947
   49MOL0     H 6605  10.046   8.953   7.617  0.6042 -1.5127 -1.9828
   49MOL0     H 6606  10.080   8.915   7.790  0.9354  1.3394 -0.7497
   49MOL0     H 6607   9.995   8.681   7.754 -0.7792  0.1481  1.5929
   49MOL0     H 6608   9.957   8.708   7.582  0.0047  0.2326 -0.7543
   49MOL0     H 6609   9.746   8.749   7.705 -0.1588 -0.4443  1.2150
   49MOL0     H 6610   9.817   8.876   7.805 -1.2991  2.2330 -0.9062
   49MOL0     H 6611   9.705   9.049   7.437  0.2866 -1.1444 -0.4783
   49MOL0     H 6612  10.018   8.927   7.407  0.5329 -1.1378 -0.0675
   49MOL0     H 6613   9.983   9.043   7.127  0.8394 -3.3721  1.4019
   49MOL0     H 6614   9.927   9.084   7.289  0.0036  0.8713 -0.9411
   49MOL0     H 6615  10.024   9.199   7.199 -2.4782  1.0368  2.3392
   50MOL0     O 6616   9.138   4.140   0.405  0.3884 -0.2773 -0.1431
   50MOL0     C 6617   9.212   4.082   0.328 -0.0519 -1.1748 -0.1237
   50MOL0     O 6618   9.325   4.006   0.362 -0.1177 -0.5465 -0.2842
   50MOL0     C 6619   9.401   4.039   0.475 -0.5311  0.8004  0.4284
   50MOL0     C 6620   9.520   3.960   0.493 -0.3714 -0.3501  0.1527
   50MOL0     C 6621   9.612   3.989   0.591  0.2506 -0.1615 -0.1460
   50MOL0     C 6622   9.609   4.104   0.664  0.1649 -0.0182 -0.4423
   50MOL0     O 6623   9.705   4.148   0.758 -0.1169 -0.3435 -0.4652
   50MOL0     C 6624   9.792   4.040   0.805  0.3183 -0.0829 -0.1397
   50MOL0     C 6625   9.871   4.096   0.924  0.1509 -0.4967  0.4730
   50MOL0     C 6626   9.953   4.218   0.882  0.8346  0.2553 -0.4259
   50MOL0     C 6627  10.006   4.283   1.011  0.4015 -0.3094 -0.0821
   50MOL0     C 6628  10.104   4.401   0.972 -0.2729  0.4184 -0.1862
   50MOL0     C 6629  10.226   4.351   0.896  0.6834  0.0531  0.0662
   50MOL0     C 6630  10.329   4.463   0.868  0.0768  0.4624 -0.1726
   50MOL0     C 6631  10.456   4.425   0.783 -0.2974 -0.4201  0.1388
   50MOL0     N 6632  10.544   4.332   0.858  0.2263 -0.4534  1.0272
   50MOL0     C 6633  10.678   4.365   0.877  0.5904  0.7583  0.0905
   50MOL0     C 6634  10.723   4.281   0.970  1.5946  0.4419  0.0292
   50MOL0     C 6635  10.849   4.274   1.044 -0.1677  0.2161 -0.8710
   50MOL0     C 6636  10.966   4.229   0.946 -0.0518 -0.2627  0.2663
   50MOL0     C 6637  11.003   4.317   0.829 -0.6982  0.5775 -0.2023
   50MOL0     C 6638  11.052   4.456   0.875 -0.3861 -0.2434 -0.9588
   50MOL0     O 6639  11.048   4.553   0.761  0.2568  0.8590 -0.3930
   50MOL0     C 6640  11.145   4.547   0.673 -0.9410  0.8991 -1.0452
   50MOL0     C 6641  11.101   4.537   0.539 -0.1220 -0.0762  0.3587
   50MOL0     C 6642  11.188   4.498   0.435  0.1079  0.0303  0.4474
   50MOL0     C 6643  11.320   4.472   0.462 -0.5521  0.1079  0.7486
   50MOL0     C 6644  11.409   4.429   0.353 -0.0150  0.7858  0.2465
   50MOL0     O 6645  11.358   4.405   0.231 -0.3606 -0.1262 -0.3707
   50MOL0     C 6646  11.441   4.384   0.122  0.1873  0.9272  0.5964
   50MOL0     C 6647  11.423   4.460   0.003  0.6075  0.3316 -0.1015
   50MOL0     C 6648  11.509   4.440  -0.104 -0.4659 -0.2151  0.2642
   50MOL0     C 6649  11.597   4.322  -0.099  0.0323 -0.2946  0.5398
   50MOL0     O 6650  11.685   4.308  -0.210  0.7709  0.7036  0.2056
   50MOL0     C 6651  11.811   4.237  -0.200  0.6213 -0.5126  0.3840
   50MOL0     C 6652  11.914   4.299  -0.298  0.6962 -0.0025  0.6141
   50MOL0     C 6653  12.034   4.200  -0.318  1.3390 -0.7601 -0.2803
   50MOL0     C 6654  12.147   4.226  -0.215 -0.0219 -0.8317 -0.1680
   50MOL0     C 6655  12.284   4.161  -0.232 -0.5403 -0.6588 -0.1644
   50MOL0     C 6656  12.376   4.193  -0.113  0.4886  0.3354  0.4274
   50MOL0     C 6657  12.508   4.121  -0.122 -0.0515  0.1257 -0.2434
   50MOL0     C 6658  12.573   4.106   0.013  0.2637  1.3219 -0.8955
   50MOL0    Cl 6659  12.488   3.982   0.112  0.4422  0.2281 -0.0099
   50MOL0     C 6660  11.608   4.236   0.003 -0.0077  0.5295 -0.4590
   50MOL0     C 6661  11.526   4.272   0.115 -0.9131  0.0488 -0.3515
   50MOL0     O 6662  11.525   4.433   0.379  1.1109  0.2342  0.2885
   50MOL0     C 6663  11.365   4.503   0.594  0.3369 -0.0411  0.7869
   50MOL0     C 6664  11.275   4.535   0.701  0.0592  0.3788  0.1835
   50MOL0     N 6665  10.623   4.186   1.001  0.6826  0.5708 -0.2418
   50MOL0     N 6666  10.518   4.223   0.934  0.0288  0.3531  0.1516
   50MOL0     C 6667   9.495   4.181   0.650 -0.0122 -0.2676  0.6791
   50MOL0     C 6668   9.384   4.138   0.560  0.1234  0.2287  0.0802
   50MOL0     C 6669   9.152   4.068   0.191  0.5279 -0.0622 -0.2013
   50MOL0     C 6670   9.090   4.171   0.131 -0.1825 -0.7886  0.2169
   50MOL0     C 6671   9.032   4.168   0.004  0.1577 -0.6409 -0.3351
   50MOL0     C 6672   9.039   4.055  -0.070 -0.0955  0.4537  0.2278
   50MOL0     O 6673   8.974   4.066  -0.192  0.8760  0.5385  0.2615
   50MOL0     C 6674   8.958   3.951  -0.275 -1.1931  0.2438 -0.5373
   50MOL0     C 6675   8.872   3.971  -0.401  0.0730  0.1997  0.1798
   50MOL0     C 6676   8.829   3.828  -0.456 -0.5720 -0.2877 -1.0624
   50MOL0     C 6677   8.760   3.838  -0.594 -0.9068 -0.9630  0.2928
   50MOL0     C 6678   8.864   3.864  -0.697 -0.0058 -0.3506  0.2689
   50MOL0     C 6679   8.961   3.876  -0.770 -0.1253 -0.2897 -0.3855
   50MOL0     C 6680   9.100   3.941  -0.014 -0.3035  0.4489 -0.1646
   50MOL0     C 6681   9.167   3.953   0.110 -0.4380 -0.2020 -0.6459
   50MOL0     C 6682   9.238   3.826   0.150 -0.9268  0.5253  0.0738
   50MOL0     H 6683   9.553   3.881   0.425 -0.0602 -0.3069  0.2512
   50MOL0     H 6684   9.699   3.924   0.591  1.5253  1.4827  0.0561
   50MOL0     H 6685   9.729   3.958   0.841  1.7613 -0.0819  2.5977
   50MOL0     H 6686   9.863   4.024   0.724  0.0347  1.5140 -0.7526
   50MOL0     H 6687   9.934   4.021   0.973  0.6911 -0.4089 -0.0778
   50MOL0     H 6688   9.800   4.131   1.000 -0.6632  1.9458 -1.2961
   50MOL0     H 6689   9.902   4.293   0.821  4.3519  1.0328 -2.6971
   50MOL0     H 6690  10.034   4.178   0.821  3.0538  2.7710  0.6573
   50MOL0     H 6691   9.921   4.324   1.065  1.1230  1.7071 -0.4088
   50MOL0     H 6692  10.064   4.209   1.067 -1.6749 -0.7555  1.6030
   50MOL0     H 6693  10.050   4.465   0.903  0.3073  0.8683 -0.2380
   50MOL0     H 6694  10.133   4.455   1.063 -1.7060 -2.2638  2.0395
   50MOL0     H 6695  10.275   4.281   0.964  0.3766  1.8429  2.2470
   50MOL0     H 6696  10.192   4.308   0.801 -1.3137 -1.2203  1.2814
   50MOL0     H 6697  10.364   4.482   0.970 -0.1338  0.0935 -0.0280
   50MOL0     H 6698  10.289   4.555   0.822  0.9044  0.3210 -1.2074
   50MOL0     H 6699  10.443   4.387   0.681 -1.8430 -0.7229  0.4302
   50MOL0     H 6700  10.509   4.519   0.766  0.3953 -0.8710 -0.2814
   50MOL0     H 6701  10.729   4.450   0.832  1.4563 -0.3855 -1.1244
   50MOL0     H 6702  10.881   4.369   1.088 -0.0157 -1.4139  2.9192
   50MOL0     H 6703  10.848   4.197   1.122  0.2456  2.4973  1.5441
   50MOL0     H 6704  11.053   4.221   1.012  0.0508 -1.9961 -0.0506
   50MOL0     H 6705  10.941   4.132   0.903  0.0826 -0.6724  1.0890
   50MOL0     H 6706  10.920   4.323   0.758  1.0411 -0.6737 -2.4598
   50MOL0     H 6707  11.089   4.273   0.779  1.3998 -0.5957  4.0029
   50MOL0     H 6708  11.152   4.447   0.917 -0.4765 -3.8233 -1.2456
   50MOL0     H 6709  10.982   4.493   0.951 -0.4596  0.7481 -1.4943
   50MOL0     H 6710  10.992   4.533   0.533 -0.2511  0.8183  1.6372
   50MOL0     H 6711  11.142   4.470   0.340 -1.0231 -2.6481  1.6707
   50MOL0     H 6712  11.343   4.534  -0.003 -0.2210 -0.4020  1.3346
   50MOL0     H 6713  11.504   4.499  -0.195  0.3779  0.5133  0.6764
   50MOL0     H 6714  11.850   4.253  -0.099 -0.0901  2.4007  0.2698
   50MOL0     H 6715  11.798   4.128  -0.210 -2.3327 -0.2920  1.0403
   50MOL0     H 6716  11.862   4.315  -0.393 -0.9073  2.5470  1.8156
   50MOL0     H 6717  11.955   4.393  -0.261  0.1368 -0.0047  1.2699
   50MOL0     H 6718  11.994   4.100  -0.301 -0.1395  0.2070  2.6695
   50MOL0     H 6719  12.069   4.208  -0.421 -2.1227 -3.7840 -1.9199
   50MOL0     H 6720  12.114   4.198  -0.115 -2.9114 -0.4998 -0.9354
   50MOL0     H 6721  12.164   4.334  -0.215  0.9724 -0.9030 -2.8144
   50MOL0     H 6722  12.324   4.192  -0.329 -1.9134  2.3401  0.1276
   50MOL0     H 6723  12.261   4.055  -0.245  1.3833 -0.9485 -1.6110
   50MOL0     H 6724  12.379   4.302  -0.108  1.7615  0.3599 -0.5588
   50MOL0     H 6725  12.331   4.152  -0.021  1.2646 -0.8668  0.2784
   50MOL0     H 6726  12.566   4.188  -0.186  0.5410  0.2962  0.4540
   50MOL0     H 6727  12.500   4.025  -0.173  1.4835 -1.4317  2.2342
   50MOL0     H 6728  12.676   4.076  -0.008  0.8182  1.6990  1.0662
   50MOL0     H 6729  12.572   4.199   0.071  2.1848  0.5326  0.5345
   50MOL0     H 6730  11.669   4.147  -0.005  0.4964  0.9285 -1.1153
   50MOL0     H 6731  11.527   4.204   0.199  3.1561 -2.1114 -1.8680
   50MOL0     H 6732  11.473   4.507   0.610  0.2642  0.4051  1.2186
   50MOL0     H 6733  11.320   4.535   0.800  3.1279  0.8847 -1.1253
   50MOL0     H 6734   9.483   4.267   0.716  1.4079 -1.1726  2.2001
   50MOL0     H 6735   9.292   4.194   0.558 -2.2021 -3.2612  0.2925
   50MOL0     H 6736   9.090   4.271   0.174  0.1639 -1.1904  1.1801
   50MOL0     H 6737   8.982   4.255  -0.039  2.3746  1.4482  1.0420
   50MOL0     H 6738   8.920   3.876  -0.205  1.3073  1.2992  2.1853
   50MOL0     H 6739   9.055   3.908  -0.303 -0.2550  1.7716  0.2313
   50MOL0     H 6740   8.927   4.035  -0.471 -0.4508  0.4512 -0.0037
   50MOL0     H 6741   8.784   4.027  -0.367 -0.0847 -0.7402  1.4098
   50MOL0     H 6742   8.760   3.783  -0.384  2.2726 -2.2699  0.6826
   50MOL0     H 6743   8.914   3.760  -0.466 -1.9144 -2.0547 -0.9647
   50MOL0     H 6744   8.723   3.739  -0.623 -2.1826 -0.7733  1.2095
   50MOL0     H 6745   8.682   3.915  -0.596  0.8879  0.9645  1.0983
   50MOL0     H 6746   9.047   3.891  -0.832  1.2592  3.0592  2.0366
   50MOL0     H 6747   9.094   3.845  -0.063 -1.3610 -0.2005  1.1856
   50MOL0     H 6748   9.256   3.751   0.072  4.1844 -0.9813  2.2649
   50MOL0     H 6749   9.342   3.846   0.180  0.5987  0.6596 -4.4633
   50MOL0     H 6750   9.184   3.770   0.227  0.4785  2.5017  2.6753
   51MOL0     O 6751   2.762   8.365   0.675  0.5515 -0.1301 -0.2244
   51MOL0     C 6752   2.692   8.301   0.758  0.4232  0.1443  0.5574
   51MOL0     O 6753   2.746   8.234   0.871 -0.1690  0.4763  0.0999
   51MOL0     C 6754   2.881   8.213   0.902 -0.1621 -1.0836 -0.5839
   51MOL0     C 6755   2.989   8.240   0.820 -0.0496 -0.9952 -0.4017
   51MOL0     C 6756   3.125   8.245   0.858  0.0686 -0.3910 -0.1416
   51MOL0     C 6757   3.153   8.211   0.986 -0.1032 -0.1265  0.1470
   51MOL0     O 6758   3.284   8.205   1.030 -0.1572  0.1887  1.0259
   51MOL0     C 6759   3.393   8.216   0.928  0.5467 -0.0579  0.1820
   51MOL0     C 6760   3.527   8.196   1.002 -0.2711  0.1030  1.0337
   51MOL0     C 6761   3.652   8.206   0.911  1.1998  0.8491  0.5530
   51MOL0     C 6762   3.771   8.246   0.996 -0.6385 -1.1599  0.0241
   51MOL0     C 6763   3.886   8.292   0.897  0.1504  1.1628 -0.5694
   51MOL0     C 6764   4.006   8.335   0.985  0.4461  0.9270 -0.1131
   51MOL0     C 6765   4.108   8.407   0.896 -0.0046  0.7678  0.0279
   51MOL0     C 6766   4.072   8.557   0.872 -0.4545 -0.3015  1.1107
   51MOL0     N 6767   4.189   8.634   0.811 -0.4569  1.0884  0.2762
   51MOL0     C 6768   4.288   8.699   0.877  0.0911  0.1900 -0.2806
   51MOL0     C 6769   4.367   8.758   0.789 -0.0490  0.8336  0.2173
   51MOL0     C 6770   4.484   8.854   0.826 -0.4127  0.1313 -1.0558
   51MOL0     C 6771   4.615   8.803   0.764 -0.1219  0.4574  0.4545
   51MOL0     C 6772   4.654   8.658   0.791 -0.3134  0.8766 -0.0813
   51MOL0     C 6773   4.640   8.592   0.925 -0.7813 -0.0425  0.3209
   51MOL0     O 6774   4.713   8.469   0.925 -0.4138 -0.8412  0.1445
   51MOL0     C 6775   4.849   8.473   0.934  0.6941  0.0614 -0.6131
   51MOL0     C 6776   4.932   8.582   0.945  0.3667 -0.1222  0.4612
   51MOL0     C 6777   5.067   8.569   0.955 -0.2546  0.1575  0.0007
   51MOL0     C 6778   5.129   8.442   0.944  0.0704  0.1947  0.4736
   51MOL0     C 6779   5.282   8.426   0.947 -0.1285 -0.1372  0.2818
   51MOL0     O 6780   5.356   8.534   0.911  0.2506 -0.0893 -0.7611
   51MOL0     C 6781   5.492   8.521   0.914 -0.0084  0.4958 -0.2336
   51MOL0     C 6782   5.556   8.555   0.798  0.5480 -0.3396 -0.3908
   51MOL0     C 6783   5.691   8.539   0.777 -1.0952  0.2473  0.5406
   51MOL0     C 6784   5.771   8.502   0.878  0.3682 -0.0343 -0.4055
   51MOL0     O 6785   5.905   8.507   0.863 -0.9848  0.3875  0.1677
   51MOL0     C 6786   5.990   8.496   0.978  0.6913 -0.0051  0.1865
   51MOL0     C 6787   6.135   8.489   0.937  0.3911  0.4903  0.0364
   51MOL0     C 6788   6.225   8.461   1.052  0.3100 -0.6196 -0.4354
   51MOL0     C 6789   6.276   8.590   1.115 -1.4861 -0.0610 -0.0852
   51MOL0     C 6790   6.352   8.565   1.243  0.6592 -0.4099 -0.7341
   51MOL0     C 6791   6.487   8.492   1.218 -0.3205  1.0643 -0.0952
   51MOL0     C 6792   6.567   8.483   1.347  0.0529  0.2609  0.8884
   51MOL0     C 6793   6.700   8.402   1.328  0.3359 -2.0139  0.2862
   51MOL0    Cl 6794   6.683   8.250   1.231 -0.5820 -0.0978 -0.2076
   51MOL0     C 6795   5.711   8.474   1.005 -0.5715  0.3652  0.4023
   51MOL0     C 6796   5.571   8.482   1.019  0.2244  0.1735 -0.2579
   51MOL0     O 6797   5.320   8.314   0.959  0.6014  0.9008  0.1627
   51MOL0     C 6798   5.048   8.331   0.931  0.1416 -0.4825  1.1373
   51MOL0     C 6799   4.907   8.347   0.928  0.3406  0.3065 -0.1633
   51MOL0     N 6800   4.313   8.738   0.665 -1.3219 -0.2125 -0.2138
   51MOL0     N 6801   4.205   8.669   0.682  0.4974 -0.1726 -0.4255
   51MOL0     C 6802   3.050   8.179   1.070  0.5192 -0.5160  0.1420
   51MOL0     C 6803   2.915   8.181   1.031  0.4236 -0.7059  0.5588
   51MOL0     C 6804   2.548   8.292   0.729  0.7150  0.2925  0.0155
   51MOL0     C 6805   2.472   8.194   0.804  0.7937 -0.1854  0.5397
   51MOL0     C 6806   2.334   8.173   0.772  0.0817  0.0975 -0.1046
   51MOL0     C 6807   2.270   8.245   0.677 -0.9054 -0.1637  0.1270
   51MOL0     O 6808   2.138   8.227   0.663 -0.4534  0.6873  0.1907
   51MOL0     C 6809   2.056   8.301   0.574 -0.2177  0.6515 -0.2249
   51MOL0     C 6810   1.912   8.266   0.622 -0.5423  1.1725 -0.3464
   51MOL0     C 6811   1.804   8.286   0.519  0.8096  0.5070  0.8754
   51MOL0     C 6812   1.790   8.429   0.472 -0.7745 -0.4412  1.2493
   51MOL0     C 6813   1.845   8.458   0.337 -0.0187  0.6669 -0.5256
   51MOL0     C 6814   1.914   8.486   0.241 -0.0893 -0.6965 -0.5569
   51MOL0     C 6815   2.345   8.341   0.597  0.0026  0.3941 -0.5493
   51MOL0     C 6816   2.481   8.369   0.627  0.2573 -0.0978 -0.1655
   51MOL0     C 6817   2.538   8.487   0.545  0.2147 -0.5582 -0.0442
   51MOL0     H 6818   2.968   8.261   0.715 -1.5147 -0.7211 -0.0851
   51MOL0     H 6819   3.196   8.287   0.788  0.2689  2.0936  1.4270
   51MOL0     H 6820   3.377   8.133   0.858  0.4016  0.0781  0.0546
   51MOL0     H 6821   3.397   8.307   0.867 -0.7180 -0.6723 -0.8783
   51MOL0     H 6822   3.536   8.097   1.047  0.2624 -3.3261 -5.3585
   51MOL0     H 6823   3.530   8.261   1.089  2.0374  1.4127  0.0720
   51MOL0     H 6824   3.633   8.281   0.834  5.1489  0.4130 -1.0722
   51MOL0     H 6825   3.669   8.110   0.861  1.0007  0.3843  1.3579
   51MOL0     H 6826   3.750   8.335   1.057 -3.6443 -2.6819  1.4221
   51MOL0     H 6827   3.785   8.157   1.059 -0.2188 -2.2790 -1.6042
   51MOL0     H 6828   3.918   8.213   0.829 -2.4679 -0.4457 -0.0851
   51MOL0     H 6829   3.851   8.368   0.826  1.0653  0.7412 -1.4933
   51MOL0     H 6830   3.981   8.401   1.067  1.6159  1.7221 -0.3652
   51MOL0     H 6831   4.051   8.244   1.026  0.4170  0.8368 -0.2763
   51MOL0     H 6832   4.116   8.356   0.800  2.2894  0.5233  0.2886
   51MOL0     H 6833   4.206   8.402   0.946 -0.4925  1.6494  1.1160
   51MOL0     H 6834   3.989   8.569   0.801 -1.5504 -0.1247  2.3886
   51MOL0     H 6835   4.035   8.601   0.965  1.5668  2.4072  0.7867
   51MOL0     H 6836   4.303   8.693   0.985 -0.0187  2.0714 -0.1332
   51MOL0     H 6837   4.478   8.959   0.794  1.4354  0.3934 -0.6729
   51MOL0     H 6838   4.491   8.856   0.935 -1.0763  1.2395 -1.0114
   51MOL0     H 6839   4.621   8.814   0.655  1.7377 -1.0765  0.3455
   51MOL0     H 6840   4.693   8.866   0.808  1.7515 -2.9554  2.4147
   51MOL0     H 6841   4.754   8.639   0.752 -0.0674 -0.7868  1.2374
   51MOL0     H 6842   4.608   8.590   0.719  2.7612  0.9439 -2.2886
   51MOL0     H 6843   4.532   8.582   0.936 -1.0290  0.9813 -0.9247
   51MOL0     H 6844   4.678   8.667   0.995 -2.4049  0.0121  1.1823
   51MOL0     H 6845   4.889   8.682   0.938  1.3292  0.1575 -3.1483
   51MOL0     H 6846   5.130   8.658   0.963  1.7370 -1.1388 -0.4405
   51MOL0     H 6847   5.505   8.596   0.711 -2.3189 -0.7054  0.9918
   51MOL0     H 6848   5.739   8.575   0.686 -2.2700  1.0833  0.2418
   51MOL0     H 6849   5.996   8.590   1.034  1.1503  1.3967 -2.0720
   51MOL0     H 6850   5.960   8.417   1.048  0.6220  0.9890  1.3111
   51MOL0     H 6851   6.138   8.402   0.871 -2.2121 -0.3802  0.9692
   51MOL0     H 6852   6.169   8.582   0.889  0.2279 -0.0650 -1.1856
   51MOL0     H 6853   6.175   8.394   1.123  0.5011 -0.1923  0.1122
   51MOL0     H 6854   6.318   8.413   1.019  0.9982 -0.1725  0.7846
   51MOL0     H 6855   6.192   8.648   1.155 -0.7828 -0.0479  1.4465
   51MOL0     H 6856   6.330   8.644   1.036 -0.5690 -0.2278  0.4097
   51MOL0     H 6857   6.292   8.499   1.306 -1.1840  1.1163 -0.8057
   51MOL0     H 6858   6.353   8.657   1.302 -1.7599 -1.6998  1.4840
   51MOL0     H 6859   6.472   8.390   1.183  0.9239  1.1550 -0.9947
   51MOL0     H 6860   6.552   8.544   1.147  0.1747  0.3874 -0.1488
   51MOL0     H 6861   6.500   8.423   1.410 -0.0276  0.3733  0.9088
   51MOL0     H 6862   6.599   8.569   1.406  1.0543 -0.7047  1.8115
   51MOL0     H 6863   6.767   8.463   1.268  3.6022 -3.3801  2.2514
   51MOL0     H 6864   6.758   8.395   1.421  4.0461  2.6969 -1.2675
   51MOL0     H 6865   5.768   8.436   1.089  0.7614 -1.4211 -1.2355
   51MOL0     H 6866   5.528   8.457   1.115 -1.0844 -1.4886 -1.2187
   51MOL0     H 6867   5.087   8.230   0.923  0.8048 -0.1635  0.1928
   51MOL0     H 6868   4.842   8.259   0.931 -3.1520  2.6921  1.1290
   51MOL0     H 6869   3.086   8.152   1.169 -0.2787 -1.4726  0.1994
   51MOL0     H 6870   2.830   8.167   1.097 -1.2612 -0.2116 -1.4123
   51MOL0     H 6871   2.514   8.133   0.883  0.2811  1.5295  2.2122
   51MOL0     H 6872   2.262   8.106   0.818 -0.4092  0.3173 -0.5474
   51MOL0     H 6873   2.088   8.281   0.471  0.8029  0.5103  0.1027
   51MOL0     H 6874   2.065   8.410   0.579 -0.7491  0.7419 -1.1134
   51MOL0     H 6875   1.874   8.328   0.704 -2.6950 -1.5628  0.9089
   51MOL0     H 6876   1.914   8.161   0.653  3.2536  1.6005  1.4894
   51MOL0     H 6877   1.710   8.254   0.563  2.1945 -1.7976  2.3221
   51MOL0     H 6878   1.819   8.215   0.436 -0.2593 -1.2777  2.1555
   51MOL0     H 6879   1.683   8.446   0.456 -0.3694  0.1168 -1.3764
   51MOL0     H 6880   1.817   8.500   0.550 -0.3146 -1.7396  2.3136
   51MOL0     H 6881   1.976   8.521   0.162 -0.2938 -0.3608 -0.5677
   51MOL0     H 6882   2.302   8.405   0.521 -0.0962 -0.3974 -1.1678
   51MOL0     H 6883   2.561   8.570   0.611 -1.8935  1.7427 -1.9921
   51MOL0     H 6884   2.635   8.463   0.500  0.6411  2.2942 -0.8307
   51MOL0     H 6885   2.471   8.517   0.463  0.3115  1.6411  0.6365
   52MOL0     O 6886   6.196   8.048   3.621 -0.5540  0.9326 -0.3236
   52MOL0     C 6887   6.162   7.936   3.670 -1.0263 -0.2321 -0.5307
   52MOL0     O 6888   6.237   7.869   3.774  0.5921 -0.1446  0.1817
   52MOL0     C 6889   6.364   7.916   3.783 -0.0159 -0.7860 -0.3454
   52MOL0     C 6890   6.472   7.874   3.706 -0.4263  0.4764  0.0145
   52MOL0     C 6891   6.603   7.922   3.722  0.3209  0.1475  0.0575
   52MOL0     C 6892   6.632   8.010   3.823 -0.1260 -0.9815  0.6247
   52MOL0     O 6893   6.758   8.065   3.851 -0.2545 -0.0898  0.0370
   52MOL0     C 6894   6.870   7.999   3.778 -0.3558  0.2836 -0.2808
   52MOL0     C 6895   6.930   8.106   3.679 -0.0939 -0.4261  0.0442
   52MOL0     C 6896   7.068   8.064   3.630 -0.6925 -0.1916  0.2538
   52MOL0     C 6897   7.129   8.164   3.535  0.2176  0.1876 -0.3493
   52MOL0     C 6898   7.266   8.128   3.477 -0.1651 -0.0235 -0.0306
   52MOL0     C 6899   7.382   8.135   3.583  0.7162 -0.7099 -0.3468
   52MOL0     C 6900   7.523   8.104   3.535 -0.5427  0.2590 -0.4113
   52MOL0     C 6901   7.636   8.133   3.638  0.2889 -0.2055 -0.0703
   52MOL0     N 6902   7.763   8.104   3.573 -0.7495 -0.2258  0.1520
   52MOL0     C 6903   7.817   7.985   3.567 -0.1903  0.4810 -0.4962
   52MOL0     C 6904   7.940   8.013   3.518  0.3631 -0.2571 -0.9837
   52MOL0     C 6905   8.038   7.904   3.483 -1.2457 -0.3505 -0.3763
   52MOL0     C 6906   8.118   7.845   3.602 -0.2516 -0.2853  0.2441
   52MOL0     C 6907   8.161   7.961   3.700  0.3491 -0.0075 -0.7064
   52MOL0     C 6908   8.308   7.964   3.738  0.1065  0.3686  0.9079
   52MOL0     O 6909   8.308   8.036   3.864 -0.8984 -0.7089 -0.0620
   52MOL0     C 6910   8.435   8.048   3.911 -0.3423  0.3011  0.1689
   52MOL0     C 6911   8.462   8.015   4.043 -0.1517 -0.0227  0.9756
   52MOL0     C 6912   8.591   8.021   4.091  0.4388  0.8823 -0.2605
   52MOL0     C 6913   8.696   8.074   4.017 -0.5090 -0.6784  0.1266
   52MOL0     C 6914   8.830   8.079   4.058 -0.0378  0.1638 -0.1846
   52MOL0     O 6915   8.904   8.181   4.012  0.6022  0.1544  0.5301
   52MOL0     C 6916   9.029   8.185   4.070  1.1121 -0.0453  0.0313
   52MOL0     C 6917   9.046   8.263   4.180 -0.3653 -0.0388 -0.1207
   52MOL0     C 6918   9.167   8.270   4.254  0.2283  0.0033  0.5982
   52MOL0     C 6919   9.275   8.189   4.195  0.4871  0.2940  0.5175
   52MOL0     O 6920   9.401   8.185   4.241  0.4976  0.0939 -0.5034
   52MOL0     C 6921   9.441   8.263   4.362 -0.4307 -0.9962  0.8388
   52MOL0     C 6922   9.406   8.194   4.493 -0.4717  1.1361  0.0200
   52MOL0     C 6923   9.489   8.072   4.523 -1.5568  0.2741  0.3903
   52MOL0     C 6924   9.411   7.967   4.608  0.2885 -1.2796  0.7303
   52MOL0     C 6925   9.500   7.849   4.643  0.3390 -0.9012 -0.2025
   52MOL0     C 6926   9.411   7.726   4.675  0.1240 -0.4557 -0.2079
   52MOL0     C 6927   9.362   7.652   4.547 -0.0488 -0.4504  0.9937
   52MOL0     C 6928   9.238   7.584   4.565  0.5888  0.8561  0.0998
   52MOL0    Cl 6929   9.114   7.698   4.617  0.1817 -0.3380 -0.0835
   52MOL0     C 6930   9.257   8.102   4.084  0.3161 -0.5592 -0.5761
   52MOL0     C 6931   9.130   8.112   4.016 -0.7003 -0.1246 -1.0331
   52MOL0     O 6932   8.868   7.988   4.131  0.5691  0.4186 -0.1533
   52MOL0     C 6933   8.667   8.125   3.886 -0.4033 -0.0553 -0.4366
   52MOL0     C 6934   8.536   8.103   3.835  0.0249 -0.1240 -0.0529
   52MOL0     N 6935   7.962   8.144   3.493 -0.7575  0.2495 -0.0280
   52MOL0     N 6936   7.855   8.198   3.532 -0.8460  0.4851  0.3663
   52MOL0     C 6937   6.531   8.064   3.899  0.3197  0.8791 -0.5714
   52MOL0     C 6938   6.393   8.015   3.879  0.3153  0.0154  0.4346
   52MOL0     C 6939   6.021   7.886   3.650 -0.7762  0.5718  0.2208
   52MOL0     C 6940   5.979   7.794   3.741 -1.1009 -0.4567  0.5790
   52MOL0     C 6941   5.854   7.731   3.737  0.4007 -0.8475  0.0339
   52MOL0     C 6942   5.770   7.759   3.628  0.7859  0.5094 -0.0999
   52MOL0     O 6943   5.636   7.717   3.617 -0.4859  0.1940 -0.7958
   52MOL0     C 6944   5.580   7.614   3.706 -0.2962  0.5907  0.5802
   52MOL0     C 6945   5.426   7.588   3.672 -0.5827 -0.5280  0.5411
   52MOL0     C 6946   5.409   7.484   3.558  0.3172 -0.2632 -0.3080
   52MOL0     C 6947   5.365   7.353   3.601 -0.6150  0.0729 -0.3065
   52MOL0     C 6948   5.458   7.285   3.685 -0.4412 -0.8144 -0.1627
   52MOL0     C 6949   5.530   7.231   3.778  0.8265  0.1078 -0.1265
   52MOL0     C 6950   5.807   7.860   3.540 -0.2297 -0.4960 -0.0132
   52MOL0     C 6951   5.935   7.928   3.550  1.3324 -0.2770  0.3009
   52MOL0     C 6952   5.969   8.021   3.434 -0.1029 -0.2704  0.0312
   52MOL0     H 6953   6.440   7.799   3.635 -0.7679  2.0903 -1.6268
   52MOL0     H 6954   6.673   7.880   3.651  1.1515  1.2456  0.1996
   52MOL0     H 6955   6.935   7.972   3.862 -1.9779  2.0069  1.6580
   52MOL0     H 6956   6.843   7.908   3.723  0.7796  0.6235 -1.4490
   52MOL0     H 6957   6.924   8.203   3.730  0.5004 -1.6676  2.6753
   52MOL0     H 6958   6.867   8.116   3.590 -1.7508  1.6239  1.3410
   52MOL0     H 6959   7.057   7.970   3.576 -1.6361 -1.5945  2.7173
   52MOL0     H 6960   7.134   8.050   3.716 -1.6294 -2.2527  0.6847
   52MOL0     H 6961   7.051   8.178   3.460 -1.4688  4.0395  1.8040
   52MOL0     H 6962   7.144   8.257   3.591  0.7367 -0.5540  0.7800
   52MOL0     H 6963   7.264   8.030   3.428  1.4525  0.6857 -1.6029
   52MOL0     H 6964   7.288   8.204   3.401  0.6334 -1.7703 -1.6295
   52MOL0     H 6965   7.377   8.238   3.620 -0.2283 -0.6028 -0.7252
   52MOL0     H 6966   7.353   8.069   3.666  0.1547 -2.1622 -1.6374
   52MOL0     H 6967   7.556   8.145   3.438  2.1837  1.1178  0.7809
   52MOL0     H 6968   7.540   7.996   3.531  2.7675  0.6521  0.1823
   52MOL0     H 6969   7.624   8.232   3.684 -1.8794 -1.4946  2.3558
   52MOL0     H 6970   7.633   8.061   3.720  1.5518  0.7537  0.8404
   52MOL0     H 6971   7.778   7.886   3.584 -0.4822  0.5573 -0.7095
   52MOL0     H 6972   7.981   7.827   3.431 -1.7785  1.6706 -2.9881
   52MOL0     H 6973   8.099   7.930   3.396 -1.5178 -0.2900 -0.5522
   52MOL0     H 6974   8.045   7.782   3.654  1.5037 -1.6559  1.1360
   52MOL0     H 6975   8.198   7.778   3.571 -2.3005 -2.6499 -0.3282
   52MOL0     H 6976   8.091   7.951   3.784 -1.2488 -3.8195 -2.2168
   52MOL0     H 6977   8.148   8.056   3.648 -0.9836  1.8041  2.6545
   52MOL0     H 6978   8.363   8.013   3.657  2.3973 -0.2800  1.9765
   52MOL0     H 6979   8.337   7.859   3.726 -1.0280  0.1267  0.1565
   52MOL0     H 6980   8.386   7.997   4.117  0.9747  0.0271  2.1824
   52MOL0     H 6981   8.605   7.985   4.192 -1.3115  2.3792  0.5761
   52MOL0     H 6982   8.976   8.341   4.207 -0.4072 -0.4513  0.9915
   52MOL0     H 6983   9.188   8.333   4.340  1.6457 -2.2700  2.0273
   52MOL0     H 6984   9.547   8.291   4.359 -0.8459  0.9549  2.0414
   52MOL0     H 6985   9.387   8.359   4.359 -0.5002 -1.0238  1.2410
   52MOL0     H 6986   9.420   8.264   4.576  1.4449 -1.7597  2.3313
   52MOL0     H 6987   9.302   8.161   4.480  0.2496 -0.7823 -1.4816
   52MOL0     H 6988   9.516   8.012   4.435  0.2306  0.3811  0.8207
   52MOL0     H 6989   9.579   8.100   4.578 -0.4882 -3.9551  1.1514
   52MOL0     H 6990   9.327   7.929   4.551  0.4197 -3.0202  1.6230
   52MOL0     H 6991   9.364   8.020   4.691  0.3133 -1.0444  0.5969
   52MOL0     H 6992   9.570   7.863   4.726  1.0734 -3.1101 -0.3696
   52MOL0     H 6993   9.564   7.827   4.557 -2.1019 -3.8726 -1.4681
   52MOL0     H 6994   9.478   7.657   4.727  0.7416  0.3090  0.0451
   52MOL0     H 6995   9.330   7.748   4.746  1.4714 -0.5578  1.4229
   52MOL0     H 6996   9.432   7.573   4.518 -0.2957 -0.9076  1.6168
   52MOL0     H 6997   9.364   7.726   4.467  0.8172 -0.6928  0.7778
   52MOL0     H 6998   9.206   7.527   4.477 -3.3840 -0.4435  2.0950
   52MOL0     H 6999   9.239   7.516   4.651 -1.9674 -1.2316 -1.3627
   52MOL0     H 7000   9.341   8.046   4.046  1.9532  1.2747  0.1564
   52MOL0     H 7001   9.111   8.046   3.932 -1.1067  0.0612 -1.0926
   52MOL0     H 7002   8.749   8.163   3.825  0.7494  2.0187  2.2157
   52MOL0     H 7003   8.517   8.128   3.731  1.0942  0.6260 -0.0797
   52MOL0     H 7004   6.556   8.135   3.977 -0.0732 -0.4299  0.7836
   52MOL0     H 7005   6.307   8.062   3.926 -0.4535 -0.4465 -0.4726
   52MOL0     H 7006   6.049   7.764   3.818  0.7000 -2.0357 -1.5440
   52MOL0     H 7007   5.824   7.667   3.819 -1.9148  1.3873  1.0720
   52MOL0     H 7008   5.588   7.662   3.804  0.0903  2.2968 -0.2498
   52MOL0     H 7009   5.632   7.517   3.705 -2.4395 -0.6393 -0.5966
   52MOL0     H 7010   5.382   7.676   3.625 -1.6344 -0.8444  0.9052
   52MOL0     H 7011   5.364   7.567   3.760  1.4662  1.3614  2.5660
   52MOL0     H 7012   5.503   7.478   3.502  0.8353 -0.5639  0.5750
   52MOL0     H 7013   5.334   7.521   3.488  1.8611  1.3448 -1.2121
   52MOL0     H 7014   5.274   7.367   3.660  0.5968  0.8675  1.4720
   52MOL0     H 7015   5.349   7.283   3.519  6.2819 -1.5894 -0.9135
   52MOL0     H 7016   5.593   7.187   3.853 -1.8304 -1.5797  1.2614
   52MOL0     H 7017   5.730   7.892   3.470 -1.6149  1.8876  2.4132
   52MOL0     H 7018   5.948   8.124   3.464  0.5515  0.1672 -0.9554
   52MOL0     H 7019   6.067   8.007   3.388 -1.7491 -3.5842 -2.9591
   52MOL0     H 7020   5.910   8.009   3.343  2.2678 -0.3113 -1.6076
   53MOL0     O 7021   3.326   2.094   2.471  0.1313 -0.6815  0.2622
   53MOL0     C 7022   3.314   2.117   2.349  0.7120 -0.0427  0.8186
   53MOL0     O 7023   3.424   2.115   2.263  0.2203 -0.0663  0.3346
   53MOL0     C 7024   3.541   2.062   2.302 -0.3048 -0.7179 -0.1640
   53MOL0     C 7025   3.554   1.930   2.342  0.3538 -0.8336 -0.3827
   53MOL0     C 7026   3.670   1.890   2.402  1.1575 -0.5300 -0.6269
   53MOL0     C 7027   3.776   1.971   2.415  0.0405 -0.7342  0.7070
   53MOL0     O 7028   3.888   1.911   2.457 -0.0898  0.2823  0.1053
   53MOL0     C 7029   4.013   1.986   2.454  0.4406  0.8113 -0.5712
   53MOL0     C 7030   4.131   1.904   2.508 -0.3589  0.6169 -0.3831
   53MOL0     C 7031   4.265   1.978   2.501 -0.2944 -0.4139  0.5911
   53MOL0     C 7032   4.275   2.109   2.572 -0.3279 -0.1722 -1.4920
   53MOL0     C 7033   4.227   2.115   2.720  0.4328 -0.2546 -0.2245
   53MOL0     C 7034   4.250   2.256   2.790 -0.4034 -0.0138  1.2788
   53MOL0     C 7035   4.185   2.263   2.932  0.5932  0.0203  0.1831
   53MOL0     C 7036   4.236   2.386   3.013  0.1355 -0.7694  0.0927
   53MOL0     N 7037   4.219   2.516   2.939 -0.2547  0.2870 -0.3599
   53MOL0     C 7038   4.115   2.545   2.858  0.0018 -0.2410  0.4356
   53MOL0     C 7039   4.149   2.661   2.804 -0.1912 -1.0538  0.0934
   53MOL0     C 7040   4.058   2.737   2.712 -0.7157  0.0367  0.7635
   53MOL0     C 7041   4.127   2.756   2.571  0.1727  0.1814 -0.2358
   53MOL0     C 7042   4.156   2.628   2.495 -0.2486  0.0107  0.0507
   53MOL0     C 7043   4.027   2.563   2.438  0.0872 -0.4909  1.0519
   53MOL0     O 7044   4.003   2.633   2.316  0.0203  0.1005  0.5572
   53MOL0     C 7045   3.879   2.605   2.265 -0.5448  0.0848  0.1420
   53MOL0     C 7046   3.778   2.689   2.300  0.1429  0.4816 -0.0139
   53MOL0     C 7047   3.646   2.665   2.253 -0.4590  0.8423 -0.2928
   53MOL0     C 7048   3.622   2.548   2.176 -0.0917  0.3920 -1.1714
   53MOL0     C 7049   3.488   2.527   2.123 -0.2218  0.5830  0.6858
   53MOL0     O 7050   3.395   2.616   2.160  0.2589  0.5977  1.3864
   53MOL0     C 7051   3.287   2.651   2.081  0.5491  0.4535  0.1819
   53MOL0     C 7052   3.184   2.697   2.157  0.0267 -0.7353 -0.0282
   53MOL0     C 7053   3.070   2.741   2.097  0.2119  0.2379 -0.6666
   53MOL0     C 7054   3.054   2.734   1.956  0.2296 -0.7289  0.2678
   53MOL0     O 7055   2.935   2.782   1.896  0.3712  0.3156  0.2257
   53MOL0     C 7056   2.899   2.754   1.765 -0.2117  0.1724  0.2093
   53MOL0     C 7057   2.758   2.813   1.738 -1.5758  0.5524 -0.1294
   53MOL0     C 7058   2.685   2.763   1.613 -0.0601 -1.1894 -0.5624
   53MOL0     C 7059   2.553   2.837   1.608  0.5945 -0.5982  0.6273
   53MOL0     C 7060   2.439   2.752   1.542 -0.7895  0.1573  0.8251
   53MOL0     C 7061   2.472   2.710   1.396 -0.4253 -0.4692  0.2025
   53MOL0     C 7062   2.367   2.615   1.328  0.0115  0.7962 -0.4500
   53MOL0     C 7063   2.224   2.666   1.331  0.8873 -0.7679  0.0337
   53MOL0    Cl 7064   2.141   2.643   1.497 -0.1772  0.0629  0.0513
   53MOL0     C 7065   3.161   2.683   1.881 -0.3866 -1.0691  1.0551
   53MOL0     C 7066   3.275   2.643   1.947 -0.0780 -0.5220 -0.6048
   53MOL0     O 7067   3.474   2.444   2.032  0.0809 -0.1420  0.2593
   53MOL0     C 7068   3.730   2.469   2.149  0.6397  0.1481  1.4737
   53MOL0     C 7069   3.857   2.499   2.180  0.0269  0.0446 -0.0837
   53MOL0     N 7070   4.273   2.700   2.858 -0.8403 -0.2634  0.2207
   53MOL0     N 7071   4.320   2.612   2.933 -0.0700  0.5421  0.1110
   53MOL0     C 7072   3.770   2.102   2.376  1.2854 -0.9051 -0.4050
   53MOL0     C 7073   3.647   2.153   2.317 -0.1192  0.3281  0.3162
   53MOL0     C 7074   3.180   2.160   2.281  0.1156 -0.0585  0.3930
   53MOL0     C 7075   3.188   2.264   2.190  0.3916  0.1368  0.6665
   53MOL0     C 7076   3.077   2.293   2.107 -1.2170  0.7213  0.2125
   53MOL0     C 7077   2.950   2.238   2.130  0.2194  0.4009  0.0862
   53MOL0     O 7078   2.841   2.284   2.060  0.5101 -0.0770 -0.8718
   53MOL0     C 7079   2.844   2.411   2.002  0.7831 -0.0193  0.5677
   53MOL0     C 7080   2.704   2.450   1.954  0.1410  0.2321 -0.4200
   53MOL0     C 7081   2.683   2.373   1.820 -0.0203 -0.0731 -0.1815
   53MOL0     C 7082   2.540   2.387   1.769  1.5388  0.4789  0.8703
   53MOL0     C 7083   2.524   2.343   1.626 -0.2919 -0.2608  0.0006
   53MOL0     C 7084   2.521   2.310   1.509  0.3841 -0.5987 -0.3301
   53MOL0     C 7085   2.944   2.133   2.214 -0.0182  0.2463 -0.1265
   53MOL0     C 7086   3.055   2.085   2.296 -0.0892  0.4805 -0.5786
   53MOL0     C 7087   3.017   1.988   2.409 -0.3406  0.4247 -0.1173
   53MOL0     H 7088   3.470   1.862   2.334  0.5306 -1.5410  2.5923
   53MOL0     H 7089   3.654   1.787   2.433 -1.2880  0.0386  0.2251
   53MOL0     H 7090   4.043   2.028   2.357  0.6692  0.1754 -0.7820
   53MOL0     H 7091   4.004   2.068   2.525  1.6188 -2.0108  3.1609
   53MOL0     H 7092   4.141   1.809   2.454  1.5212  0.3391  0.3497
   53MOL0     H 7093   4.106   1.871   2.610 -1.3324  2.1331 -0.1042
   53MOL0     H 7094   4.290   2.006   2.398  0.3365  2.3453  1.4008
   53MOL0     H 7095   4.352   1.921   2.534  0.7393  0.8197  0.0787
   53MOL0     H 7096   4.380   2.139   2.575 -1.1464  3.0374  0.5390
   53MOL0     H 7097   4.222   2.180   2.508 -0.7124  1.2737  0.3627
   53MOL0     H 7098   4.123   2.083   2.719  0.4726 -0.3592 -1.2029
   53MOL0     H 7099   4.288   2.036   2.765  0.9870  1.7073  2.7829
   53MOL0     H 7100   4.358   2.267   2.805 -0.2270 -1.8030  1.6101
   53MOL0     H 7101   4.220   2.331   2.716  0.1855 -0.3155  0.7251
   53MOL0     H 7102   4.186   2.172   2.992  2.1982  1.7241  2.9540
   53MOL0     H 7103   4.077   2.276   2.917  0.6321  0.8266  0.5533
   53MOL0     H 7104   4.197   2.393   3.115 -1.5956 -0.5292 -0.5493
   53MOL0     H 7105   4.343   2.372   3.028  0.2083 -1.2273 -0.7656
   53MOL0     H 7106   4.053   2.473   2.806 -0.2675  1.0267 -1.0741
   53MOL0     H 7107   3.958   2.693   2.703 -1.5086  1.7685  0.8005
   53MOL0     H 7108   4.050   2.836   2.756  2.5714  0.1870  1.2767
   53MOL0     H 7109   4.069   2.830   2.515 -1.1136  0.6601  1.6194
   53MOL0     H 7110   4.222   2.802   2.600 -0.0310 -0.6175  1.8359
   53MOL0     H 7111   4.200   2.556   2.564 -0.9721  0.1076  0.6219
   53MOL0     H 7112   4.235   2.658   2.426 -1.0328  0.8162 -0.5210
   53MOL0     H 7113   3.944   2.573   2.509 -0.8677  0.5628 -0.1732
   53MOL0     H 7114   4.039   2.460   2.404 -0.2289 -0.4405  0.7809
   53MOL0     H 7115   3.807   2.772   2.364 -2.1392  0.3332  1.3343
   53MOL0     H 7116   3.564   2.736   2.262 -3.5041 -2.2335 -1.2773
   53MOL0     H 7117   3.199   2.702   2.265 -2.4917 -0.9489  0.3819
   53MOL0     H 7118   2.993   2.775   2.166  1.0499 -0.8900  0.9092
   53MOL0     H 7119   2.969   2.813   1.705 -0.1233 -1.1236 -0.9986
   53MOL0     H 7120   2.894   2.647   1.743 -2.7825  0.7230 -2.4776
   53MOL0     H 7121   2.704   2.780   1.828 -0.3268 -0.3998  0.3026
   53MOL0     H 7122   2.760   2.921   1.757 -3.7285  0.3137  1.9922
   53MOL0     H 7123   2.738   2.794   1.522 -1.8103 -0.8684 -1.5194
   53MOL0     H 7124   2.684   2.654   1.604  0.4612 -1.1336 -1.5158
   53MOL0     H 7125   2.565   2.932   1.555  0.7168 -1.5461 -1.1216
   53MOL0     H 7126   2.516   2.854   1.710  3.1687 -1.1121  1.7532
   53MOL0     H 7127   2.344   2.806   1.537 -0.2606  0.9948 -1.4239
   53MOL0     H 7128   2.449   2.661   1.603  0.9362  0.6620  1.3433
   53MOL0     H 7129   2.468   2.800   1.335  1.7378  0.3134  1.1142
   53MOL0     H 7130   2.573   2.667   1.389 -0.8405 -1.5108  0.3696
   53MOL0     H 7131   2.370   2.522   1.385 -2.2716 -0.9048 -2.9266
   53MOL0     H 7132   2.379   2.600   1.221 -0.9792  0.7107 -0.5498
   53MOL0     H 7133   2.224   2.773   1.311 -0.8690 -0.2862  2.2063
   53MOL0     H 7134   2.171   2.615   1.250 -1.8258  1.6516  0.1484
   53MOL0     H 7135   3.166   2.698   1.774 -2.2565  1.7770  1.2716
   53MOL0     H 7136   3.367   2.630   1.891  2.2211  0.7819  2.5622
   53MOL0     H 7137   3.717   2.379   2.090  0.0727  0.3957  1.2114
   53MOL0     H 7138   3.942   2.432   2.168  0.2141  0.2589  0.0300
   53MOL0     H 7139   3.845   2.178   2.396 -2.9724  2.9787  3.4042
   53MOL0     H 7140   3.629   2.259   2.300  0.1359  0.1624 -1.1554
   53MOL0     H 7141   3.279   2.318   2.167 -0.6626  1.5097 -0.5269
   53MOL0     H 7142   3.093   2.384   2.049  0.7631 -0.6204 -1.4861
   53MOL0     H 7143   2.910   2.401   1.916 -1.0637 -3.5593 -0.6442
   53MOL0     H 7144   2.877   2.493   2.067 -2.6501  2.8744 -0.9803
   53MOL0     H 7145   2.700   2.558   1.940  2.4456  0.5870  1.0224
   53MOL0     H 7146   2.625   2.420   2.023  0.0838 -2.5446 -1.5296
   53MOL0     H 7147   2.704   2.267   1.841  1.4416  0.1769 -0.2721
   53MOL0     H 7148   2.746   2.410   1.739 -0.2254 -1.4624 -1.0039
   53MOL0     H 7149   2.462   2.333   1.824 -0.8815  1.0127 -1.8105
   53MOL0     H 7150   2.509   2.491   1.779  0.3510  0.2224  0.0389
   53MOL0     H 7151   2.526   2.278   1.407  0.1302  3.3991 -1.7512
   53MOL0     H 7152   2.847   2.085   2.213  0.4973 -0.8220 -0.2690
   53MOL0     H 7153   2.910   1.969   2.409 -0.1395 -0.8001 -0.4456
   53MOL0     H 7154   3.060   1.888   2.400 -0.0862  0.3746  1.4010
   53MOL0     H 7155   3.033   2.020   2.512 -0.9299 -1.6377  0.6536
   54MOL0     O 7156   9.279   1.407  11.129 -0.1710 -1.0764  0.5005
   54MOL0     C 7157   9.201   1.496  11.149  0.2491 -0.1938  0.9691
   54MOL0     O 7158   9.230   1.637  11.150  1.0170  0.3765 -0.3239
   54MOL0     C 7159   9.356   1.692  11.141 -0.0008  0.3201  0.2116
   54MOL0     C 7160   9.463   1.634  11.207 -0.8509 -0.6204  0.0601
   54MOL0     C 7161   9.581   1.696  11.205  0.3689 -0.0550  0.1658
   54MOL0     C 7162   9.602   1.798  11.115  0.0166  0.5164  0.1588
   54MOL0     O 7163   9.730   1.846  11.095 -0.3359  0.2961  0.2523
   54MOL0     C 7164   9.770   1.905  10.973 -0.0115 -0.2481 -0.1736
   54MOL0     C 7165   9.923   1.881  10.931  0.1975  0.1053 -0.4800
   54MOL0     C 7166  10.031   1.953  11.017  0.5653  0.0846  0.8637
   54MOL0     C 7167  10.037   2.109  10.999 -0.0493 -0.0058  0.5038
   54MOL0     C 7168  10.123   2.172  10.884 -0.0658  0.5248 -1.0866
   54MOL0     C 7169  10.148   2.324  10.895  0.0960  1.5223  0.3698
   54MOL0     C 7170  10.255   2.363  10.791 -0.0650 -0.0995 -0.6104
   54MOL0     C 7171  10.268   2.509  10.787 -0.6585  0.2105  0.4185
   54MOL0     N 7172  10.389   2.543  10.863 -0.1829  0.5264  0.2019
   54MOL0     C 7173  10.506   2.475  10.883  0.2271  0.8034 -0.1791
   54MOL0     C 7174  10.570   2.554  10.970  0.1772  1.0196  0.5284
   54MOL0     C 7175  10.713   2.550  11.006 -0.0458  0.3939  0.2727
   54MOL0     C 7176  10.804   2.588  10.894 -0.0553  0.3407  0.6602
   54MOL0     C 7177  10.946   2.596  10.946  0.0280 -0.8078 -0.0643
   54MOL0     C 7178  11.052   2.653  10.843  0.2878  0.3437 -0.3026
   54MOL0     O 7179  11.143   2.738  10.915 -0.5610 -0.5971 -0.0309
   54MOL0     C 7180  11.268   2.700  10.964  0.3032 -0.8371  0.8381
   54MOL0     C 7181  11.336   2.586  10.920  0.8230  1.0384 -0.7924
   54MOL0     C 7182  11.457   2.544  10.978 -0.8957  0.3013 -0.2507
   54MOL0     C 7183  11.520   2.616  11.080 -0.1013  0.3223 -0.1742
   54MOL0     C 7184  11.648   2.586  11.138  1.1354  0.4190  0.0559
   54MOL0     O 7185  11.712   2.693  11.194  0.4562  0.3598 -0.9510
   54MOL0     C 7186  11.822   2.669  11.281  0.4627  0.1428  0.3610
   54MOL0     C 7187  11.937   2.615  11.229 -0.1058  0.4316  0.2731
   54MOL0     C 7188  12.051   2.599  11.302  1.4128  0.0708  0.0410
   54MOL0     C 7189  12.053   2.646  11.437 -0.0539 -0.2518  0.6424
   54MOL0     O 7190  12.156   2.651  11.523  0.3356  0.3501 -0.1351
   54MOL0     C 7191  12.289   2.632  11.472 -0.4401  0.9173  0.4656
   54MOL0     C 7192  12.387   2.638  11.586  0.6225  0.7075 -0.8228
   54MOL0     C 7193  12.526   2.646  11.529 -0.1934 -0.3090 -0.0237
   54MOL0     C 7194  12.641   2.616  11.626 -0.1534  0.7557 -0.2207
   54MOL0     C 7195  12.773   2.649  11.572 -0.2405 -0.5231  0.4376
   54MOL0     C 7196  12.787   2.769  11.482 -0.3140  0.5360  0.2364
   54MOL0     C 7197  12.933   2.797  11.446  0.0087  0.4389  0.1011
   54MOL0     C 7198  12.964   2.731  11.313 -0.4014  0.1751  0.6992
   54MOL0    Cl 7199  13.138   2.752  11.279 -0.0548  0.2561 -0.4190
   54MOL0     C 7200  11.943   2.701  11.492  0.0693 -1.1354 -0.2491
   54MOL0     C 7201  11.822   2.714  11.416 -0.4876 -0.5566  0.0825
   54MOL0     O 7202  11.692   2.473  11.130  0.3746  0.2401  0.2118
   54MOL0     C 7203  11.455   2.732  11.118 -0.0865  0.2494  0.0699
   54MOL0     C 7204  11.335   2.776  11.060  0.0774 -0.2978 -0.1522
   54MOL0     N 7205  10.486   2.653  11.015  0.7750  0.1915 -0.0096
   54MOL0     N 7206  10.372   2.647  10.953 -0.4361  0.8877 -0.1713
   54MOL0     C 7207   9.500   1.854  11.049  0.5992  0.2093  0.3937
   54MOL0     C 7208   9.371   1.805  11.066  0.3118 -0.7659 -0.1126
   54MOL0     C 7209   9.070   1.455  11.203  1.0527  0.8529 -0.9106
   54MOL0     C 7210   8.958   1.532  11.162 -0.1716  0.2013  0.2286
   54MOL0     C 7211   8.834   1.511  11.207 -0.1205  0.8580 -0.3996
   54MOL0     C 7212   8.810   1.393  11.287 -0.4858 -0.4305  0.0378
   54MOL0     O 7213   8.689   1.350  11.322 -0.4839 -0.0102 -0.1215
   54MOL0     C 7214   8.642   1.410  11.438 -0.2149 -0.7616  0.3620
   54MOL0     C 7215   8.520   1.502  11.417 -0.0407 -0.4826 -0.1617
   54MOL0     C 7216   8.380   1.444  11.393  0.3255 -0.1146 -0.0844
   54MOL0     C 7217   8.327   1.365  11.514 -0.5626 -0.7232  0.5214
   54MOL0     C 7218   8.312   1.457  11.628  0.4735  1.1157  0.1246
   54MOL0     C 7219   8.307   1.521  11.727  0.9582 -0.3890 -0.6146
   54MOL0     C 7220   8.919   1.305  11.325  0.6517 -0.7145  0.5346
   54MOL0     C 7221   9.047   1.335  11.280 -0.5168  0.2224 -0.6183
   54MOL0     C 7222   9.166   1.250  11.332  0.1369 -0.4061  0.6364
   54MOL0     H 7223   9.455   1.534  11.249  0.2717 -0.6694  0.1844
   54MOL0     H 7224   9.660   1.672  11.276 -0.4768  0.7524  1.4026
   54MOL0     H 7225   9.711   1.865  10.890 -3.0034  1.6860  0.8678
   54MOL0     H 7226   9.756   2.013  10.981  1.4445 -0.1274  1.2782
   54MOL0     H 7227   9.935   1.905  10.825  3.8848 -1.3484 -0.5240
   54MOL0     H 7228   9.951   1.776  10.935  1.8708  0.5482  0.8321
   54MOL0     H 7229  10.126   1.910  10.981  0.2891  2.0093 -2.6732
   54MOL0     H 7230  10.027   1.928  11.123 -1.6168 -2.1483  0.3409
   54MOL0     H 7231   9.937   2.151  10.990 -1.3272 -3.0865 -1.8054
   54MOL0     H 7232  10.078   2.145  11.094 -1.6641 -0.6063  1.4644
   54MOL0     H 7233  10.220   2.120  10.881 -0.3758 -0.0804 -0.7523
   54MOL0     H 7234  10.068   2.145  10.794  0.0876  0.8810 -1.2906
   54MOL0     H 7235  10.052   2.377  10.893  0.1739  1.8229  2.1365
   54MOL0     H 7236  10.184   2.348  10.996  2.2125  0.6709 -0.1347
   54MOL0     H 7237  10.204   2.322  10.703 -0.5919 -0.9967  0.0950
   54MOL0     H 7238  10.345   2.305  10.810 -0.6137  0.2181  4.3816
   54MOL0     H 7239  10.276   2.532  10.680  1.3780  0.9391  0.6737
   54MOL0     H 7240  10.180   2.566  10.819 -2.1579 -1.2118 -0.9514
   54MOL0     H 7241  10.549   2.393  10.826  1.3258  1.0556  0.2641
   54MOL0     H 7242  10.724   2.614  11.094  0.8967 -0.5281  0.8501
   54MOL0     H 7243  10.722   2.446  11.039 -0.2994 -0.6844 -2.7933
   54MOL0     H 7244  10.803   2.512  10.815  1.3486 -1.2068  2.0435
   54MOL0     H 7245  10.765   2.674  10.838 -0.2866 -0.0089  0.2769
   54MOL0     H 7246  10.984   2.498  10.977  2.1677  0.2215  0.8254
   54MOL0     H 7247  10.937   2.665  11.030 -3.7177  1.2021 -1.8511
   54MOL0     H 7248  11.004   2.718  10.770  2.1317  0.1163 -1.7791
   54MOL0     H 7249  11.101   2.568  10.794 -2.3586 -0.2500 -2.1338
   54MOL0     H 7250  11.303   2.514  10.846  0.5482  0.6910 -0.3404
   54MOL0     H 7251  11.508   2.461  10.930 -0.2886  0.8875 -0.6328
   54MOL0     H 7252  11.940   2.580  11.126 -0.3963  2.3595 -0.4267
   54MOL0     H 7253  12.135   2.543  11.262  0.3820 -1.3282 -0.2448
   54MOL0     H 7254  12.289   2.528  11.439  3.4708  1.3299 -1.4282
   54MOL0     H 7255  12.323   2.702  11.394 -0.4246 -1.5286 -1.8822
   54MOL0     H 7256  12.361   2.718  11.655 -0.4491  2.0104 -2.6425
   54MOL0     H 7257  12.375   2.544  11.641  0.2026  1.1814 -0.0977
   54MOL0     H 7258  12.533   2.576  11.445 -1.3047  0.6989 -0.9950
   54MOL0     H 7259  12.538   2.746  11.487  2.1391 -0.2540  0.6328
   54MOL0     H 7260  12.623   2.515  11.663 -1.7828  1.8141  2.1239
   54MOL0     H 7261  12.629   2.678  11.715 -0.2524  0.2977  0.0856
   54MOL0     H 7262  12.802   2.557  11.521  0.5560 -2.1998  3.5937
   54MOL0     H 7263  12.838   2.663  11.659  0.8430 -0.3060 -0.3886
   54MOL0     H 7264  12.724   2.751  11.395 -0.7683 -3.1124  1.1551
   54MOL0     H 7265  12.747   2.854  11.537 -1.6892  0.1987 -0.2077
   54MOL0     H 7266  13.010   2.754  11.512  1.3069 -1.6597 -2.5739
   54MOL0     H 7267  12.945   2.906  11.444 -1.7867  0.6700 -1.9817
   54MOL0     H 7268  12.925   2.629  11.304  2.3618 -1.0406  1.4038
   54MOL0     H 7269  12.914   2.788  11.235  2.1895  2.2306  0.3898
   54MOL0     H 7270  11.951   2.726  11.598  0.0678 -1.7242 -0.1060
   54MOL0     H 7271  11.737   2.772  11.452 -0.1281  0.4522 -0.6430
   54MOL0     H 7272  11.504   2.797  11.190  3.0580 -1.9786  0.1469
   54MOL0     H 7273  11.297   2.877  11.076 -0.3928 -0.3650 -0.7917
   54MOL0     H 7274   9.518   1.935  10.979 -1.4363 -1.1267 -1.8452
   54MOL0     H 7275   9.294   1.851  11.006 -0.9208  0.2396  2.1113
   54MOL0     H 7276   8.969   1.615  11.093 -4.4690 -0.6175 -1.7470
   54MOL0     H 7277   8.749   1.564  11.167  0.4049  2.2845  0.3087
   54MOL0     H 7278   8.713   1.479  11.483 -2.3576  1.4317  0.5685
   54MOL0     H 7279   8.614   1.336  11.514 -1.3472 -1.9719 -1.1528
   54MOL0     H 7280   8.537   1.569  11.331 -1.1594 -1.2604 -1.0122
   54MOL0     H 7281   8.508   1.572  11.500  0.7412  3.7276 -3.2043
   54MOL0     H 7282   8.381   1.387  11.300  1.0995 -1.5240  0.7507
   54MOL0     H 7283   8.311   1.524  11.366 -2.1431 -2.1405 -0.0407
   54MOL0     H 7284   8.235   1.325  11.471 -0.6490 -0.2284  0.2400
   54MOL0     H 7285   8.387   1.281  11.550 -0.6969 -0.5030  1.2884
   54MOL0     H 7286   8.297   1.579  11.816 -0.5704 -1.1884 -0.2300
   54MOL0     H 7287   8.895   1.222  11.391  2.2557 -1.4466  0.2604
   54MOL0     H 7288   9.141   1.149  11.363  1.6540 -1.1389 -0.3873
   54MOL0     H 7289   9.235   1.232  11.249 -2.4337 -1.2088 -1.4826
   54MOL0     H 7290   9.207   1.310  11.413 -1.9037  0.6869  0.9344
   55MOL0     O 7291   0.074   4.549   3.761 -0.0293 -0.4772 -0.3765
   55MOL0     C 7292   0.028   4.609   3.659 -0.0802  0.2300  0.6117
   55MOL0     O 7293   0.103   4.659   3.550 -0.7710 -0.2119  0.3414
   55MOL0     C 7294   0.238   4.644   3.550  0.3178 -0.0509 -0.0677
   55MOL0     C 7295   0.324   4.671   3.662  1.0794 -0.4888  0.5167
   55MOL0     C 7296   0.455   4.645   3.661  0.0742 -0.5444  0.0422
   55MOL0     C 7297   0.513   4.615   3.539  0.8566 -0.5253  0.2644
   55MOL0     O 7298   0.648   4.595   3.534 -0.3047 -0.0211 -0.4698
   55MOL0     C 7299   0.736   4.619   3.649  0.4759  0.5958  0.7946
   55MOL0     C 7300   0.870   4.667   3.603 -0.4536 -0.1320  0.5357
   55MOL0     C 7301   0.967   4.688   3.719 -0.3151  0.3363 -0.0239
   55MOL0     C 7302   1.109   4.720   3.668 -0.3717 -0.1375  0.1994
   55MOL0     C 7303   1.217   4.686   3.763 -0.4517  0.0025  0.9044
   55MOL0     C 7304   1.354   4.762   3.725 -0.1225 -0.3883 -0.3707
   55MOL0     C 7305   1.386   4.785   3.570  0.2013 -0.5059 -0.1712
   55MOL0     C 7306   1.401   4.656   3.488 -0.8901  0.0312  0.2084
   55MOL0     N 7307   1.541   4.599   3.495  0.4890 -0.7565 -0.1527
   55MOL0     C 7308   1.581   4.493   3.584  0.0428 -0.3347  0.1227
   55MOL0     C 7309   1.700   4.455   3.539  0.5057  0.3463  0.0408
   55MOL0     C 7310   1.783   4.349   3.598 -0.8562 -0.3051  0.4388
   55MOL0     C 7311   1.866   4.410   3.708 -0.2867  0.2167  0.2959
   55MOL0     C 7312   1.977   4.316   3.751  0.5094 -0.5638  0.1082
   55MOL0     C 7313   2.089   4.388   3.818 -0.2007 -0.4554  0.6800
   55MOL0     O 7314   2.185   4.292   3.870  0.0920 -0.4335 -0.3324
   55MOL0     C 7315   2.306   4.256   3.800 -0.2857  0.2370 -0.0304
   55MOL0     C 7316   2.329   4.280   3.664 -0.0401  0.1141  0.1665
   55MOL0     C 7317   2.443   4.222   3.605 -0.2566 -0.6171 -0.1889
   55MOL0     C 7318   2.537   4.148   3.683  0.0569 -0.3199 -1.0536
   55MOL0     C 7319   2.659   4.106   3.629 -0.0862  0.0286  0.4453
   55MOL0     O 7320   2.681   4.136   3.500  0.1276  0.4634  0.5051
   55MOL0     C 7321   2.801   4.121   3.436 -0.1371  1.2782  1.3723
   55MOL0     C 7322   2.915   4.187   3.490 -0.7267  0.2385 -0.9280
   55MOL0     C 7323   3.034   4.172   3.414 -0.8283  0.0108 -0.9161
   55MOL0     C 7324   3.046   4.095   3.300  0.4363 -0.4378  0.9052
   55MOL0     O 7325   3.163   4.062   3.236  0.8085 -0.2085  0.0152
   55MOL0     C 7326   3.293   4.086   3.294  0.2682  0.0198 -1.2240
   55MOL0     C 7327   3.408   4.024   3.214 -0.2807 -0.1973  0.7345
   55MOL0     C 7328   3.537   4.079   3.251 -0.2380  0.1616 -0.2692
   55MOL0     C 7329   3.658   4.013   3.192 -1.0680  0.3822  0.4480
   55MOL0     C 7330   3.792   4.072   3.227 -0.6843 -0.1508  0.0285
   55MOL0     C 7331   3.897   3.998   3.147  0.3940 -0.2671  0.2519
   55MOL0     C 7332   4.044   4.043   3.184 -0.7676 -0.2543  0.5230
   55MOL0     C 7333   4.136   4.035   3.057  0.9514  0.3106 -0.3193
   55MOL0    Cl 7334   4.100   3.876   2.981 -0.8115  0.2776  0.0012
   55MOL0     C 7335   2.919   4.040   3.248 -0.1149  0.6224  0.5559
   55MOL0     C 7336   2.806   4.055   3.316  0.5473 -0.1069  0.3871
   55MOL0     O 7337   2.739   4.058   3.702 -0.4192 -0.7706 -0.0621
   55MOL0     C 7338   2.514   4.124   3.818  0.7258 -0.0878 -0.3992
   55MOL0     C 7339   2.399   4.178   3.876  0.4273 -0.9484 -0.0926
   55MOL0     N 7340   1.742   4.530   3.435  0.4308  0.0296 -0.2968
   55MOL0     N 7341   1.642   4.612   3.401  0.6400 -0.7128  0.8271
   55MOL0     C 7342   0.437   4.605   3.420 -0.6143 -0.2129  0.3271
   55MOL0     C 7343   0.301   4.608   3.432  0.1740  0.2595 -0.2307
   55MOL0     C 7344  -0.122   4.637   3.663  0.4617 -0.1014 -0.3503
   55MOL0     C 7345  -0.184   4.665   3.537  0.7777 -0.0896  0.4127
   55MOL0     C 7346  -0.321   4.680   3.530  0.2725  0.3934 -0.5387
   55MOL0     C 7347  -0.399   4.672   3.640 -0.7594 -0.0018 -0.1483
   55MOL0     O 7348  -0.530   4.676   3.633  0.3157 -0.2121  0.1708
   55MOL0     C 7349  -0.585   4.552   3.590  0.9447 -0.4517 -1.6137
   55MOL0     C 7350  -0.736   4.567   3.606  0.1957  0.9096 -0.6609
   55MOL0     C 7351  -0.822   4.624   3.487 -1.0528 -0.1513 -0.2235
   55MOL0     C 7352  -0.923   4.525   3.431 -0.3850  0.5436  0.5140
   55MOL0     C 7353  -1.009   4.591   3.340  0.7782  0.2300  0.3558
   55MOL0     C 7354  -1.070   4.654   3.256  0.4842  0.7437  0.6102
   55MOL0     C 7355  -0.343   4.640   3.761  0.8731 -1.1665  0.4208
   55MOL0     C 7356  -0.203   4.627   3.780  1.1058 -0.7522  0.3999
   55MOL0     C 7357  -0.157   4.600   3.917 -0.4594  0.4639  1.0476
   55MOL0     H 7358   0.280   4.703   3.756  0.0951 -1.1549  0.3060
   55MOL0     H 7359   0.512   4.635   3.753  2.2372  1.2040 -1.0098
   55MOL0     H 7360   0.691   4.693   3.715 -1.9624  0.0691 -0.1935
   55MOL0     H 7361   0.756   4.532   3.713 -0.9121  1.9420  3.2094
   55MOL0     H 7362   0.858   4.758   3.544 -3.4746  0.7824  2.3513
   55MOL0     H 7363   0.919   4.595   3.537 -3.1486 -0.5240 -1.1992
   55MOL0     H 7364   0.964   4.593   3.773 -0.8027 -0.2855 -1.1076
   55MOL0     H 7365   0.930   4.774   3.776 -1.3640  0.9020 -1.4951
   55MOL0     H 7366   1.114   4.664   3.575 -1.9574 -0.4154  0.2483
   55MOL0     H 7367   1.124   4.826   3.643  3.1940 -0.2669  1.2129
   55MOL0     H 7368   1.195   4.709   3.867  1.0508 -3.8426  2.2413
   55MOL0     H 7369   1.238   4.578   3.764  1.7951  0.3383 -1.1441
   55MOL0     H 7370   1.352   4.863   3.768  1.3697  0.0040 -1.1637
   55MOL0     H 7371   1.432   4.702   3.773  0.4646  0.9541  0.3905
   55MOL0     H 7372   1.477   4.845   3.556 -0.6289  1.1085  0.9866
   55MOL0     H 7373   1.306   4.841   3.520  1.0409 -0.1961 -1.2098
   55MOL0     H 7374   1.342   4.578   3.537 -1.2383 -0.5031 -1.0076
   55MOL0     H 7375   1.369   4.656   3.383 -1.9699 -0.1679  0.5197
   55MOL0     H 7376   1.530   4.455   3.672 -0.6987  2.6624  1.1197
   55MOL0     H 7377   1.709   4.276   3.634 -2.5686  1.6653  1.0857
   55MOL0     H 7378   1.856   4.308   3.528  2.3435  2.7028  1.7264
   55MOL0     H 7379   1.899   4.513   3.688  1.3688 -0.4931 -0.8047
   55MOL0     H 7380   1.803   4.424   3.797  0.6524 -3.3758  1.6731
   55MOL0     H 7381   2.029   4.278   3.662 -1.1532  1.3418 -1.7805
   55MOL0     H 7382   1.943   4.234   3.815 -1.7598  2.8754  3.7354
   55MOL0     H 7383   2.051   4.431   3.911  1.5877  0.5186  1.0128
   55MOL0     H 7384   2.138   4.463   3.756  1.6600 -0.3445  2.1971
   55MOL0     H 7385   2.250   4.335   3.613 -0.8261 -1.6315 -0.5878
   55MOL0     H 7386   2.469   4.242   3.502  3.1864  1.3178  0.8809
   55MOL0     H 7387   2.906   4.241   3.584  0.4502  1.8513 -1.7035
   55MOL0     H 7388   3.123   4.220   3.453  0.4910 -1.8626 -1.5110
   55MOL0     H 7389   3.307   4.195   3.294  1.4470 -0.0935  0.6165
   55MOL0     H 7390   3.299   4.043   3.394 -4.4321 -2.0840 -1.5833
   55MOL0     H 7391   3.409   3.914   3.207 -2.7441 -0.1630 -1.5243
   55MOL0     H 7392   3.397   4.059   3.112 -0.2157  2.8695  1.6941
   55MOL0     H 7393   3.543   4.181   3.215  0.9817  0.3922  0.5089
   55MOL0     H 7394   3.543   4.077   3.361 -0.9561  0.5665 -0.2211
   55MOL0     H 7395   3.648   4.008   3.083 -0.1988 -0.2620  0.3910
   55MOL0     H 7396   3.657   3.907   3.219  1.5946 -0.6712 -2.8917
   55MOL0     H 7397   3.801   4.057   3.335 -0.2473  1.7444  0.2843
   55MOL0     H 7398   3.798   4.178   3.201  1.7112 -0.4117 -0.7743
   55MOL0     H 7399   3.886   3.889   3.146 -0.2396 -0.2175 -1.6070
   55MOL0     H 7400   3.868   4.033   3.048 -1.0412  0.6794  0.9724
   55MOL0     H 7401   4.083   3.993   3.273  0.3117 -1.0234 -0.3596
   55MOL0     H 7402   4.039   4.148   3.213 -0.4558 -0.4666  1.3641
   55MOL0     H 7403   4.101   4.108   2.983 -0.7879 -2.6765 -2.7144
   55MOL0     H 7404   4.239   4.056   3.087  1.9209 -0.8157 -2.6108
   55MOL0     H 7405   2.912   3.973   3.162 -0.1812  1.7756 -0.3540
   55MOL0     H 7406   2.717   4.011   3.271 -0.7592  0.7397  2.0420
   55MOL0     H 7407   2.584   4.069   3.880  1.9278  0.4215 -1.2795
   55MOL0     H 7408   2.390   4.182   3.984 -2.5418  2.6038 -0.3004
   55MOL0     H 7409   0.483   4.590   3.322 -2.2369 -1.9928 -0.2294
   55MOL0     H 7410   0.239   4.594   3.343  1.7207  0.0685 -1.3087
   55MOL0     H 7411  -0.126   4.683   3.448  1.5205 -1.6600  0.5399
   55MOL0     H 7412  -0.363   4.710   3.435  0.3360  0.8011 -0.4407
   55MOL0     H 7413  -0.545   4.471   3.652 -0.3999 -0.2429 -0.4074
   55MOL0     H 7414  -0.558   4.527   3.487  0.4751 -2.7778 -1.2162
   55MOL0     H 7415  -0.757   4.632   3.692  0.1557 -0.4450  0.3966
   55MOL0     H 7416  -0.769   4.467   3.637  0.3224  0.6025 -1.4853
   55MOL0     H 7417  -0.754   4.664   3.411 -0.1391 -0.2367  0.5303
   55MOL0     H 7418  -0.888   4.705   3.520 -1.9246 -0.6450 -0.7176
   55MOL0     H 7419  -0.867   4.439   3.393  0.5889  0.3773  2.2239
   55MOL0     H 7420  -0.990   4.484   3.507 -0.5601 -0.7440 -0.3040
   55MOL0     H 7421  -1.136   4.709   3.191 -1.1585 -1.7265  0.0561
   55MOL0     H 7422  -0.404   4.642   3.850  2.3197 -1.9605  1.4666
   55MOL0     H 7423  -0.057   4.644   3.923 -0.1159  0.4384 -2.6090
   55MOL0     H 7424  -0.216   4.636   4.001 -0.9951  0.8367  0.5104
   55MOL0     H 7425  -0.143   4.493   3.936 -1.6748  0.3086  1.1231
   56MOL0     O 7426   9.340   0.915  10.973  0.6203  0.0106  0.6996
   56MOL0     C 7427   9.287   0.872  10.878  0.7466  0.1458  0.3495
   56MOL0     O 7428   9.341   0.851  10.754 -0.2782 -0.2211 -0.0773
   56MOL0     C 7429   9.478   0.863  10.744  0.7114 -0.2114  0.1031
   56MOL0     C 7430   9.528   0.992  10.777 -1.2117  0.0319 -0.4368
   56MOL0     C 7431   9.660   1.025  10.737  0.3109  0.0391  0.0458
   56MOL0     C 7432   9.741   0.938  10.673  0.1388 -0.0825  0.6055
   56MOL0     O 7433   9.868   0.991  10.635 -0.6228 -0.2376  0.1747
   56MOL0     C 7434   9.951   0.916  10.547  0.7139 -1.1523  0.5396
   56MOL0     C 7435   9.916   0.914  10.393  0.5315 -0.0609 -0.5240
   56MOL0     C 7436  10.041   0.899  10.306  0.9766  1.1536 -0.9356
   56MOL0     C 7437  10.006   0.902  10.159 -0.1890  0.4147  0.3683
   56MOL0     C 7438  10.129   0.877  10.063 -0.7677  0.1250 -0.9410
   56MOL0     C 7439  10.185   0.738  10.088 -0.4708 -0.3574  1.0168
   56MOL0     C 7440  10.328   0.736  10.020  0.3226 -0.8260 -0.4559
   56MOL0     C 7441  10.396   0.611  10.054 -0.3990  1.7897 -0.4141
   56MOL0     N 7442  10.538   0.608  10.015  0.1276  0.1134  0.0061
   56MOL0     C 7443  10.644   0.578  10.089 -0.1806 -0.4394  0.1401
   56MOL0     C 7444  10.751   0.610  10.015 -0.2520  0.5762 -0.5055
   56MOL0     C 7445  10.882   0.556  10.062  0.2013  0.6467 -0.1324
   56MOL0     C 7446  10.991   0.567   9.956 -0.4710 -0.1824  0.3490
   56MOL0     C 7447  11.120   0.490   9.999 -0.0539  0.1258 -0.0364
   56MOL0     C 7448  11.218   0.580  10.076  0.8357 -0.3642 -0.4586
   56MOL0     O 7449  11.304   0.494  10.151 -0.1373  0.3883  0.1193
   56MOL0     C 7450  11.385   0.410  10.076 -0.1799 -0.8331  0.4723
   56MOL0     C 7451  11.419   0.299  10.142 -0.7190 -0.6606  0.2760
   56MOL0     C 7452  11.511   0.208  10.090 -0.1640 -1.0035  0.3270
   56MOL0     C 7453  11.555   0.220   9.949 -0.9770 -0.2796 -0.0215
   56MOL0     C 7454  11.651   0.116   9.890  0.6883 -1.2252 -0.0213
   56MOL0     O 7455  11.686   0.141   9.759 -0.0522  0.7456  0.1430
   56MOL0     C 7456  11.771   0.049   9.707 -0.4740 -0.3430  0.6049
   56MOL0     C 7457  11.723  -0.080   9.676  0.4688  0.3135  0.8513
   56MOL0     C 7458  11.820  -0.163   9.607 -0.3936  0.0540  0.2479
   56MOL0     C 7459  11.941  -0.112   9.552 -0.7820 -0.7247 -0.4564
   56MOL0     O 7460  12.015  -0.203   9.482  0.2563  0.2876 -0.3109
   56MOL0     C 7461  12.136  -0.163   9.423 -0.6136  0.0456 -0.2730
   56MOL0     C 7462  12.247  -0.153   9.525 -0.6241 -0.6547  0.3082
   56MOL0     C 7463  12.308  -0.293   9.546  0.7814 -0.5356 -0.7123
   56MOL0     C 7464  12.430  -0.286   9.636 -0.3499 -0.1434  0.1699
   56MOL0     C 7465  12.509  -0.418   9.652  0.1663 -0.5419 -0.0491
   56MOL0     C 7466  12.524  -0.457   9.798 -0.4554 -0.1421 -0.3956
   56MOL0     C 7467  12.397  -0.523   9.840  0.2756 -0.3600  0.7459
   56MOL0     C 7468  12.404  -0.545   9.993  0.5960 -0.0589 -0.1981
   56MOL0    Cl 7469  12.410  -0.393  10.080 -0.0108  0.1718  0.0865
   56MOL0     C 7470  11.969   0.027   9.583 -0.1647  0.7545 -0.0273
   56MOL0     C 7471  11.888   0.103   9.656 -0.6404  0.4693 -0.8492
   56MOL0     O 7472  11.692   0.023   9.952 -0.3486  0.0244 -0.6028
   56MOL0     C 7473  11.504   0.331   9.878  0.4107 -0.1269  0.5002
   56MOL0     C 7474  11.425   0.426   9.942 -0.3753  0.3285  0.0164
   56MOL0     N 7475  10.707   0.651   9.893 -0.5679  0.6570  0.7866
   56MOL0     N 7476  10.577   0.654   9.897 -0.7836 -0.1990  0.0282
   56MOL0     C 7477   9.691   0.812  10.648 -0.2892  0.6863  0.1332
   56MOL0     C 7478   9.565   0.767  10.686 -0.7639  0.6166 -0.6138
   56MOL0     C 7479   9.132   0.865  10.877 -0.2774  0.4030  0.6425
   56MOL0     C 7480   9.080   0.767  10.790  0.5331 -0.2176 -0.3221
   56MOL0     C 7481   8.947   0.741  10.777  0.1773  0.5402 -0.9644
   56MOL0     C 7482   8.859   0.807  10.865 -0.5865 -0.3253 -0.1987
   56MOL0     O 7483   8.724   0.780  10.821  0.9169  0.3816  0.1434
   56MOL0     C 7484   8.614   0.821  10.905  0.5875 -0.0978 -0.1895
   56MOL0     C 7485   8.523   0.707  10.912  0.0059  0.3368 -0.9097
   56MOL0     C 7486   8.442   0.679  10.789 -0.1019 -0.4558  0.3213
   56MOL0     C 7487   8.358   0.545  10.808 -0.4538  0.5161  0.3068
   56MOL0     C 7488   8.446   0.424  10.812 -0.6093  0.6120  0.1817
   56MOL0     C 7489   8.512   0.319  10.815 -0.1851 -0.9324  0.1865
   56MOL0     C 7490   8.907   0.898  10.966 -0.0872 -0.5593  0.2999
   56MOL0     C 7491   9.043   0.931  10.970 -0.3070  0.8202 -1.2601
   56MOL0     C 7492   9.081   1.025  11.082 -0.0198 -0.4336 -0.6096
   56MOL0     H 7493   9.458   1.064  10.819 -2.0035 -2.0139  2.0259
   56MOL0     H 7494   9.697   1.126  10.750 -0.0150  0.6313 -2.9480
   56MOL0     H 7495  10.052   0.955  10.566 -0.0415  0.2091  1.9852
   56MOL0     H 7496   9.959   0.815  10.588 -3.6012 -2.3884 -1.1576
   56MOL0     H 7497   9.859   1.004  10.369  0.5663 -0.1595 -0.9798
   56MOL0     H 7498   9.851   0.826  10.386 -0.5604  0.7542 -0.8919
   56MOL0     H 7499  10.092   0.812  10.346 -1.8756 -0.4727 -0.5650
   56MOL0     H 7500  10.102   0.990  10.307 -0.1828  2.1211 -4.2206
   56MOL0     H 7501   9.917   0.840  10.145  0.5633 -1.1510  1.9936
   56MOL0     H 7502   9.967   0.999  10.129 -0.1250  0.1223 -0.6937
   56MOL0     H 7503  10.104   0.894   9.958  1.6134 -0.3482 -1.6311
   56MOL0     H 7504  10.203   0.954  10.088 -0.8740  0.3076 -1.1864
   56MOL0     H 7505  10.202   0.720  10.194 -3.3746 -2.1449  1.2893
   56MOL0     H 7506  10.119   0.662  10.044  1.1631 -1.7803  0.8809
   56MOL0     H 7507  10.382   0.823  10.060 -1.5443 -0.1047  0.6366
   56MOL0     H 7508  10.318   0.745   9.911  1.2154 -1.4508 -0.6003
   56MOL0     H 7509  10.403   0.592  10.162  2.7593  3.1371 -0.2705
   56MOL0     H 7510  10.346   0.523  10.014  0.5954  0.4446  1.1910
   56MOL0     H 7511  10.640   0.541  10.191 -1.2555  1.2622  0.7646
   56MOL0     H 7512  10.902   0.625  10.145 -4.8439  0.8666  1.1926
   56MOL0     H 7513  10.877   0.452  10.096  4.3464  0.8821  1.8664
   56MOL0     H 7514  10.945   0.520   9.868 -0.4648 -2.2735  1.4107
   56MOL0     H 7515  11.011   0.672   9.935  2.0688 -0.3042  1.7646
   56MOL0     H 7516  11.179   0.470   9.908  2.3753  5.3562  0.0202
   56MOL0     H 7517  11.087   0.402  10.055 -0.7447  1.5162  1.8203
   56MOL0     H 7518  11.161   0.645  10.143  1.4608  0.8130 -1.0235
   56MOL0     H 7519  11.266   0.647  10.003 -0.6784 -2.0829 -3.1877
   56MOL0     H 7520  11.378   0.297  10.243 -1.0540 -0.3506  0.1464
   56MOL0     H 7521  11.543   0.124  10.150  0.8047 -1.0088 -0.1768
   56MOL0     H 7522  11.621  -0.106   9.703 -1.3004  4.3349 -1.0510
   56MOL0     H 7523  11.795  -0.264   9.574 -2.8015  1.2104 -1.8750
   56MOL0     H 7524  12.156  -0.246   9.355  3.2906  0.4075  0.1788
   56MOL0     H 7525  12.118  -0.070   9.369  0.3566 -0.3832 -1.3678
   56MOL0     H 7526  12.327  -0.084   9.497 -0.9678  0.4643  1.9429
   56MOL0     H 7527  12.204  -0.108   9.615  0.3224 -0.1675  0.5358
   56MOL0     H 7528  12.232  -0.357   9.592  1.7555 -2.0727 -1.1546
   56MOL0     H 7529  12.330  -0.350   9.455  3.4820  0.6402 -0.8793
   56MOL0     H 7530  12.403  -0.241   9.732  1.6338 -1.4620  1.4350
   56MOL0     H 7531  12.496  -0.207   9.600 -1.2433  1.0650  1.1013
   56MOL0     H 7532  12.609  -0.401   9.611  0.5776 -1.0839  0.7049
   56MOL0     H 7533  12.476  -0.499   9.587  0.9100 -1.0163  0.1517
   56MOL0     H 7534  12.608  -0.526   9.806  0.4355  1.0943  2.2386
   56MOL0     H 7535  12.554  -0.368   9.854  1.6642 -1.3126  0.4496
   56MOL0     H 7536  12.393  -0.618   9.787  1.2063  0.6094 -1.1544
   56MOL0     H 7537  12.317  -0.460   9.798  1.4419  0.1142 -0.8656
   56MOL0     H 7538  12.315  -0.603  10.019 -0.1835 -0.0301 -2.5572
   56MOL0     H 7539  12.495  -0.603  10.012 -1.7456 -3.1988  2.6771
   56MOL0     H 7540  12.068   0.065   9.561 -0.8313  2.2361 -0.5853
   56MOL0     H 7541  11.932   0.196   9.692  1.2640  0.8365 -3.7079
   56MOL0     H 7542  11.525   0.346   9.772 -0.9951  0.2215  0.2548
   56MOL0     H 7543  11.389   0.507   9.878  0.8191 -1.0402 -2.5343
   56MOL0     H 7544   9.742   0.740  10.585 -0.9905 -3.0753  3.4778
   56MOL0     H 7545   9.536   0.669  10.649  0.8944  1.0617 -3.3811
   56MOL0     H 7546   9.140   0.712  10.717 -1.5036 -2.1898 -0.6309
   56MOL0     H 7547   8.904   0.671  10.705 -1.4067 -0.6720  1.0301
   56MOL0     H 7548   8.566   0.910  10.862  2.2357  0.5437 -0.8101
   56MOL0     H 7549   8.649   0.837  11.007 -1.3804 -3.0563  1.0877
   56MOL0     H 7550   8.460   0.724  10.999 -0.0672 -1.2764 -0.6214
   56MOL0     H 7551   8.576   0.613  10.928 -0.3218  0.2685 -0.2311
   56MOL0     H 7552   8.512   0.671  10.705  1.3125  3.5716  0.9115
   56MOL0     H 7553   8.373   0.763  10.775  0.9226  0.1131 -1.8259
   56MOL0     H 7554   8.307   0.544  10.905  1.8739 -1.2518  1.6270
   56MOL0     H 7555   8.291   0.541  10.722  2.4340  0.3037 -2.0758
   56MOL0     H 7556   8.566   0.227  10.807 -1.0907 -1.4835  0.3134
   56MOL0     H 7557   8.832   0.949  11.026  0.4256  3.6118 -2.1692
   56MOL0     H 7558   9.129   1.115  11.043 -1.6739  0.8923  0.2546
   56MOL0     H 7559   8.996   1.056  11.144 -1.6397  1.1279 -3.3804
   56MOL0     H 7560   9.148   0.963  11.142  0.8465  1.5527  0.5499
   57MOL0     O 7561   5.195   2.814   9.952 -0.4449 -0.1733 -0.4707
   57MOL0     C 7562   5.191   2.730   9.857  0.8931 -0.6598 -0.6133
   57MOL0     O 7563   5.291   2.672   9.791 -0.0271 -0.1271 -0.2365
   57MOL0     C 7564   5.411   2.691   9.856  0.5133  0.2020 -0.0729
   57MOL0     C 7565   5.452   2.611   9.960 -0.9402  0.0967  0.2139
   57MOL0     C 7566   5.579   2.639  10.009  0.5274 -0.2045 -0.1191
   57MOL0     C 7567   5.660   2.744   9.962 -0.9473 -0.7844  0.2535
   57MOL0     O 7568   5.780   2.760  10.035 -0.3775 -0.0800 -0.6069
   57MOL0     C 7569   5.878   2.852  10.003 -0.3311 -0.6276 -0.9337
   57MOL0     C 7570   5.985   2.857  10.111 -0.3290 -0.6040 -0.5295
   57MOL0     C 7571   6.091   2.967  10.082 -0.5985  0.3547  0.8606
   57MOL0     C 7572   6.196   2.931   9.974 -0.2362 -0.3108  0.1134
   57MOL0     C 7573   6.291   3.046   9.953 -0.8282 -0.4581  0.0769
   57MOL0     C 7574   6.384   3.022   9.828 -0.3863 -0.2186 -1.1208
   57MOL0     C 7575   6.509   3.116   9.819  0.0155  0.3284 -0.8763
   57MOL0     C 7576   6.463   3.257   9.782 -0.4742  0.7829 -0.6329
   57MOL0     N 7577   6.586   3.341   9.787  0.2275 -0.1359  0.4983
   57MOL0     C 7578   6.588   3.465   9.850  0.4950 -0.3177 -0.2947
   57MOL0     C 7579   6.707   3.516   9.826 -0.1478  0.5969 -0.5643
   57MOL0     C 7580   6.752   3.655   9.874 -0.3188 -0.5322  0.4343
   57MOL0     C 7581   6.880   3.648   9.950 -0.1528  1.2393 -0.3596
   57MOL0     C 7582   7.003   3.653   9.853  0.6738  0.1478 -0.9291
   57MOL0     C 7583   7.125   3.608   9.924  0.9902 -0.0800 -0.0176
   57MOL0     O 7584   7.242   3.637   9.843 -0.7525  0.5827  0.3052
   57MOL0     C 7585   7.367   3.650   9.898 -0.0812 -0.9256  1.1360
   57MOL0     C 7586   7.418   3.619  10.019 -0.5259 -0.1516 -1.0992
   57MOL0     C 7587   7.549   3.655  10.053 -0.0219 -0.8346 -0.0765
   57MOL0     C 7588   7.631   3.720   9.957 -0.4654  1.0214  1.1055
   57MOL0     C 7589   7.767   3.751   9.980 -0.5812  0.7918 -0.1217
   57MOL0     O 7590   7.817   3.712  10.100 -0.3713  0.4249 -0.6974
   57MOL0     C 7591   7.938   3.751  10.143 -0.7997 -0.8476 -0.4948
   57MOL0     C 7592   8.047   3.670  10.146  0.2437 -0.8232 -0.3172
   57MOL0     C 7593   8.175   3.712  10.172  0.6494  0.5874  0.1020
   57MOL0     C 7594   8.206   3.840  10.223 -0.0930  0.3706 -0.1320
   57MOL0     O 7595   8.331   3.881  10.260 -0.3019 -0.2854  0.0609
   57MOL0     C 7596   8.443   3.789  10.272 -0.6452 -0.5358 -0.3734
   57MOL0     C 7597   8.558   3.855  10.337 -0.5301 -0.8959  0.6494
   57MOL0     C 7598   8.594   4.006  10.294  0.5163 -0.2332  1.2512
   57MOL0     C 7599   8.616   4.019  10.143 -0.2813  0.6056  0.0511
   57MOL0     C 7600   8.652   4.165  10.121  0.0003  0.3269 -0.3094
   57MOL0     C 7601   8.643   4.193   9.976  0.2307  0.7274 -0.4914
   57MOL0     C 7602   8.690   4.321   9.932  0.0774 -0.4018  0.0849
   57MOL0     C 7603   8.637   4.347   9.787  0.4131  1.0599  0.6328
   57MOL0    Cl 7604   8.695   4.220   9.674  0.2878  0.5126  0.3724
   57MOL0     C 7605   8.096   3.928  10.233  0.5539  0.2526  0.1464
   57MOL0     C 7606   7.966   3.889  10.185 -0.5344  0.3293  0.1338
   57MOL0     O 7607   7.838   3.798   9.892  0.3246 -0.8831  0.0984
   57MOL0     C 7608   7.579   3.752   9.834  0.6469 -0.1995  0.4380
   57MOL0     C 7609   7.445   3.720   9.807  0.3887 -0.0505  0.3958
   57MOL0     N 7610   6.777   3.427   9.741  0.2699  0.5593  0.3617
   57MOL0     N 7611   6.704   3.325   9.722 -0.7431  0.7164  0.0840
   57MOL0     C 7612   5.612   2.825   9.862 -0.5622  0.1614  0.1710
   57MOL0     C 7613   5.487   2.795   9.802  0.4232 -0.5258  0.3329
   57MOL0     C 7614   5.059   2.691   9.827  0.0104  0.0711 -0.1359
   57MOL0     C 7615   4.953   2.788   9.828  0.6465  0.6883 -0.5109
   57MOL0     C 7616   4.818   2.763   9.790  0.1964  0.1162 -0.5166
   57MOL0     C 7617   4.786   2.629   9.753 -0.0936 -0.0646 -0.2977
   57MOL0     O 7618   4.671   2.575   9.700  0.3951 -0.8932 -0.2958
   57MOL0     C 7619   4.566   2.673   9.679 -0.8928  0.2961 -0.0059
   57MOL0     C 7620   4.436   2.615   9.614  0.9822  0.5553 -0.5825
   57MOL0     C 7621   4.353   2.546   9.721  0.1959  1.0911 -0.1807
   57MOL0     C 7622   4.410   2.399   9.767  0.3239  0.1021  0.2417
   57MOL0     C 7623   4.411   2.294   9.656  0.0378 -0.3081 -0.3170
   57MOL0     C 7624   4.393   2.214   9.569  0.5678  1.1956 -0.0890
   57MOL0     C 7625   4.885   2.532   9.759 -0.6973  0.6057  0.3099
   57MOL0     C 7626   5.021   2.557   9.798 -0.3174 -0.2639 -0.1148
   57MOL0     C 7627   5.113   2.439   9.790 -0.7590 -0.5362 -0.3878
   57MOL0     H 7628   5.385   2.536  10.001 -0.3932 -0.8299 -0.5157
   57MOL0     H 7629   5.610   2.568  10.085  0.1040  0.2374  0.4796
   57MOL0     H 7630   5.922   2.828   9.906  1.1861 -0.1225 -0.3925
   57MOL0     H 7631   5.836   2.953  10.007 -0.4327 -0.6626  2.8427
   57MOL0     H 7632   6.037   2.761  10.114 -0.9693 -0.9685 -0.7248
   57MOL0     H 7633   5.946   2.874  10.212 -0.6353 -0.4696 -0.6682
   57MOL0     H 7634   6.150   2.971  10.175 -0.0830 -3.8639  0.9062
   57MOL0     H 7635   6.043   3.063  10.061  1.0532  0.8376 -1.0672
   57MOL0     H 7636   6.245   2.837  10.004 -2.5164 -1.1169  1.5517
   57MOL0     H 7637   6.155   2.908   9.876 -0.8847 -0.2277  0.3618
   57MOL0     H 7638   6.228   3.134   9.941 -1.2993 -1.0738 -2.5461
   57MOL0     H 7639   6.353   3.065  10.041 -1.1257  4.9753 -0.5515
   57MOL0     H 7640   6.416   2.918   9.833  0.1438 -0.0746 -1.4891
   57MOL0     H 7641   6.328   3.032   9.734  0.0258 -1.4578 -1.5144
   57MOL0     H 7642   6.591   3.082   9.756 -0.0421  2.6363 -2.2939
   57MOL0     H 7643   6.559   3.124   9.917 -0.1248  1.4485 -0.8743
   57MOL0     H 7644   6.418   3.249   9.683 -3.6993  1.5280  0.6331
   57MOL0     H 7645   6.383   3.295   9.846 -1.9934 -0.0626 -1.9727
   57MOL0     H 7646   6.505   3.515   9.900 -0.8975  1.6505 -4.1815
   57MOL0     H 7647   6.777   3.719   9.789  2.2149 -2.8761 -0.7429
   57MOL0     H 7648   6.684   3.706   9.943  0.0012  1.6753 -0.7714
   57MOL0     H 7649   6.892   3.733  10.017  1.3149  0.2772  0.6715
   57MOL0     H 7650   6.875   3.566  10.022 -0.4127  2.1757  0.7107
   57MOL0     H 7651   7.007   3.756   9.818 -0.7466  0.2029 -1.0094
   57MOL0     H 7652   6.984   3.589   9.765  2.0142 -2.2679  0.4261
   57MOL0     H 7653   7.126   3.504   9.957 -1.2735  0.5880  2.5885
   57MOL0     H 7654   7.151   3.665  10.014 -1.4449  0.5232  0.3707
   57MOL0     H 7655   7.357   3.573  10.095 -0.5885 -0.2942 -1.2373
   57MOL0     H 7656   7.592   3.622  10.147 -0.1185 -1.6709 -0.3159
   57MOL0     H 7657   8.029   3.566  10.118  1.3379 -0.4789 -2.5436
   57MOL0     H 7658   8.257   3.640  10.168  0.9687  1.0017 -1.6168
   57MOL0     H 7659   8.394   3.709  10.328 -5.2105  2.1790  0.0197
   57MOL0     H 7660   8.470   3.758  10.170 -0.4875  2.3611 -1.3025
   57MOL0     H 7661   8.543   3.857  10.446  1.1743 -1.4095  0.9194
   57MOL0     H 7662   8.652   3.800  10.337 -0.7825 -1.3333  0.3178
   57MOL0     H 7663   8.505   4.063  10.321 -3.0169 -4.0448 -1.2267
   57MOL0     H 7664   8.680   4.034  10.357 -0.7060  0.3413  2.7210
   57MOL0     H 7665   8.529   3.974  10.095  1.0486 -2.0275 -0.0639
   57MOL0     H 7666   8.700   3.957  10.112 -1.1264 -0.9787  0.7739
   57MOL0     H 7667   8.752   4.179  10.163  0.7505  0.8432 -2.1623
   57MOL0     H 7668   8.580   4.228  10.176 -0.3150 -2.2758  2.5514
   57MOL0     H 7669   8.703   4.118   9.923  0.6755  0.3695  0.4893
   57MOL0     H 7670   8.537   4.176   9.953 -0.3148  1.8145  1.0647
   57MOL0     H 7671   8.798   4.338   9.922 -0.2547  1.6836 -0.5054
   57MOL0     H 7672   8.652   4.403   9.994  1.3274  0.9122 -0.8138
   57MOL0     H 7673   8.529   4.332   9.796  0.4036 -0.0838 -0.9966
   57MOL0     H 7674   8.664   4.446   9.748 -1.8573  1.9286  1.1140
   57MOL0     H 7675   8.101   4.032  10.263 -2.3444  0.3697  0.4773
   57MOL0     H 7676   7.880   3.956  10.181  0.5367  1.7553  0.2025
   57MOL0     H 7677   7.633   3.808   9.757 -0.3728  0.0319 -0.1206
   57MOL0     H 7678   7.400   3.760   9.717  0.1845  0.6742  0.8140
   57MOL0     H 7679   5.680   2.904   9.832  0.4784 -0.1291  1.6457
   57MOL0     H 7680   5.450   2.848   9.715 -0.7947 -0.5527  0.7991
   57MOL0     H 7681   4.972   2.892   9.850 -1.2914  0.5117  2.7947
   57MOL0     H 7682   4.750   2.847   9.785  2.3070  2.1422  1.9312
   57MOL0     H 7683   4.602   2.740   9.600 -0.4901 -0.6814 -0.6824
   57MOL0     H 7684   4.545   2.726   9.772  0.1014 -1.1621  1.0958
   57MOL0     H 7685   4.466   2.543   9.537  4.1042  1.3312 -0.2227
   57MOL0     H 7686   4.367   2.691   9.578 -0.6757 -0.3478  0.5616
   57MOL0     H 7687   4.255   2.543   9.672 -0.6525 -0.1122  1.4854
   57MOL0     H 7688   4.353   2.613   9.807  2.6778  0.0937  0.6772
   57MOL0     H 7689   4.509   2.407   9.811  0.0677 -2.7471  1.5449
   57MOL0     H 7690   4.346   2.357   9.845 -0.8909 -2.4259 -1.9662
   57MOL0     H 7691   4.388   2.137   9.495  1.4206  0.1888  0.8776
   57MOL0     H 7692   4.870   2.430   9.725 -0.4992  0.4629  0.6455
   57MOL0     H 7693   5.066   2.342   9.806  1.2529 -2.1378 -3.2099
   57MOL0     H 7694   5.155   2.444   9.689  1.4539  1.3814  0.5502
   57MOL0     H 7695   5.199   2.460   9.855 -0.5468  3.9001 -1.8121
   58MOL0     O 7696   5.051   5.566  11.113 -0.2595 -0.6067 -0.1946
   58MOL0     C 7697   5.008   5.461  11.160 -0.0870  0.1596 -0.0362
   58MOL0     O 7698   5.074   5.336  11.154 -0.2419 -0.4177  0.5796
   58MOL0     C 7699   5.208   5.349  11.134 -0.5196 -0.4149  0.9097
   58MOL0     C 7700   5.259   5.363  11.003  0.3514 -1.1414  0.1875
   58MOL0     C 7701   5.399   5.379  10.987 -0.6905  0.4440  0.9522
   58MOL0     C 7702   5.487   5.380  11.092 -0.2009  0.9803  0.7862
   58MOL0     O 7703   5.618   5.387  11.064  0.0698  0.6135 -0.4558
   58MOL0     C 7704   5.690   5.468  11.154  0.2726 -0.4499  0.6488
   58MOL0     C 7705   5.810   5.514  11.060  0.5770  0.8461  0.1899
   58MOL0     C 7706   5.758   5.606  10.951  0.2124 -0.7209 -0.2780
   58MOL0     C 7707   5.879   5.649  10.858 -0.1092  0.0609 -0.3262
   58MOL0     C 7708   5.854   5.748  10.741 -0.6084 -0.5141 -0.5604
   58MOL0     C 7709   5.995   5.799  10.700 -0.3878  0.2002  0.3235
   58MOL0     C 7710   5.997   5.870  10.568 -1.2783 -0.9835 -0.3175
   58MOL0     C 7711   5.929   6.013  10.581 -0.2581  0.5201  0.3853
   58MOL0     N 7712   5.940   6.076  10.448 -0.3197 -0.0105  0.1115
   58MOL0     C 7713   5.834   6.105  10.364 -0.4757  0.1198 -0.8301
   58MOL0     C 7714   5.891   6.153  10.250 -0.8597  0.1960  0.3380
   58MOL0     C 7715   5.821   6.182  10.130  1.0892 -0.1178  0.3497
   58MOL0     C 7716   5.815   6.062  10.033 -0.1879 -0.5453  0.2177
   58MOL0     C 7717   5.743   6.110   9.909  0.7952 -0.6379 -0.4591
   58MOL0     C 7718   5.679   5.992   9.832 -0.3062 -0.2872  0.4377
   58MOL0     O 7719   5.568   5.933   9.903 -0.4426 -0.5405  0.2346
   58MOL0     C 7720   5.440   5.977   9.882  0.5492  1.0970  0.0958
   58MOL0     C 7721   5.333   5.905   9.937 -0.1886 -0.3502  0.2447
   58MOL0     C 7722   5.197   5.929   9.905  0.4086 -0.3849  1.4532
   58MOL0     C 7723   5.174   6.032   9.813  0.4849  0.0162  0.1061
   58MOL0     C 7724   5.034   6.059   9.761 -0.2548 -0.7376 -0.6511
   58MOL0     O 7725   4.929   5.977   9.797  0.8436 -0.6563 -0.2736
   58MOL0     C 7726   4.815   5.980   9.727 -0.3570  1.4813 -0.3751
   58MOL0     C 7727   4.810   5.999   9.586  0.0432  0.4861  0.1223
   58MOL0     C 7728   4.690   5.974   9.522  0.3937 -0.2097  0.4914
   58MOL0     C 7729   4.572   5.939   9.588  0.3759 -0.4386  0.0373
   58MOL0     O 7730   4.456   5.942   9.515 -0.3477  0.1906 -0.1395
   58MOL0     C 7731   4.331   5.898   9.576  0.6051  0.1217  0.3303
   58MOL0     C 7732   4.319   5.743   9.567  0.1922  1.3075 -0.3159
   58MOL0     C 7733   4.203   5.699   9.651 -0.2257  0.0034  0.3639
   58MOL0     C 7734   4.076   5.720   9.572 -0.3902 -0.2079 -0.4576
   58MOL0     C 7735   3.959   5.721   9.674 -0.8965 -0.2862  0.0684
   58MOL0     C 7736   3.935   5.582   9.732 -0.0049 -0.8751 -0.2317
   58MOL0     C 7737   3.804   5.567   9.800  0.1250  0.5888 -0.0771
   58MOL0     C 7738   3.801   5.616   9.941 -0.5496  0.4304  0.3229
   58MOL0    Cl 7739   3.643   5.573  10.018  0.2872  0.0908  0.1913
   58MOL0     C 7740   4.580   5.919   9.729  1.0949 -0.4069  0.5694
   58MOL0     C 7741   4.696   5.940   9.795  1.1162  0.3162  0.8768
   58MOL0     O 7742   5.019   6.150   9.684 -0.2560 -0.0969  0.2532
   58MOL0     C 7743   5.275   6.117   9.765 -0.6382 -0.3475  0.5928
   58MOL0     C 7744   5.413   6.084   9.787  0.2207 -0.1049  0.0794
   58MOL0     N 7745   6.029   6.161  10.271 -0.4260  0.1060 -0.0540
   58MOL0     N 7746   6.052   6.108  10.376 -0.2389  0.2274 -0.8954
   58MOL0     C 7747   5.429   5.366  11.217  0.4903 -0.5518 -0.6765
   58MOL0     C 7748   5.291   5.335  11.236  0.1439 -0.5990 -0.5157
   58MOL0     C 7749   4.870   5.456  11.216  0.4963 -0.7424  0.1931
   58MOL0     C 7750   4.765   5.519  11.151  0.2301  1.4540  0.5932
   58MOL0     C 7751   4.628   5.493  11.177  0.0439  0.7348  0.3058
   58MOL0     C 7752   4.597   5.403  11.282 -0.1778 -0.0947  0.8636
   58MOL0     O 7753   4.470   5.362  11.318  0.5533 -0.0483 -0.3371
   58MOL0     C 7754   4.352   5.418  11.258 -0.0916  0.0447 -0.9281
   58MOL0     C 7755   4.230   5.360  11.324  0.5491  0.1003  0.2390
   58MOL0     C 7756   4.107   5.385  11.231 -0.5753 -0.8930 -0.2020
   58MOL0     C 7757   3.977   5.342  11.302  0.4547 -0.0778 -0.0964
   58MOL0     C 7758   3.858   5.366  11.227  0.4166  0.0669 -0.2488
   58MOL0     C 7759   3.760   5.414  11.180 -0.2314 -0.3647  0.2135
   58MOL0     C 7760   4.698   5.361  11.363 -0.4919 -0.0725  0.4372
   58MOL0     C 7761   4.837   5.375  11.333  0.5966  0.2129 -0.1358
   58MOL0     C 7762   4.941   5.312  11.429 -0.3786  0.1376  0.1887
   58MOL0     H 7763   5.184   5.363  10.924 -0.3334  1.2465  0.7545
   58MOL0     H 7764   5.440   5.400  10.889  0.8045  1.4454  1.7485
   58MOL0     H 7765   5.640   5.560  11.186 -2.0431 -0.7879 -1.7080
   58MOL0     H 7766   5.729   5.409  11.238  3.4236  1.1324  0.4498
   58MOL0     H 7767   5.858   5.429  11.011 -0.1748  0.2089  0.5296
   58MOL0     H 7768   5.889   5.562  11.118  2.9236 -1.4816 -0.8852
   58MOL0     H 7769   5.716   5.696  10.997 -1.4756 -1.6088 -0.0204
   58MOL0     H 7770   5.678   5.567  10.888 -0.5209 -0.6498  0.5881
   58MOL0     H 7771   5.953   5.697  10.922 -0.5161 -0.9840  0.9811
   58MOL0     H 7772   5.928   5.561  10.815  1.8703  1.5426 -1.1987
   58MOL0     H 7773   5.820   5.689  10.655  0.7416 -0.4223 -1.1795
   58MOL0     H 7774   5.783   5.826  10.769  1.4072  0.2042  3.1470
   58MOL0     H 7775   6.048   5.855  10.777 -1.9225  3.5520 -0.8298
   58MOL0     H 7776   6.062   5.714  10.687 -2.0944 -0.9561 -1.5031
   58MOL0     H 7777   5.952   5.813  10.486 -0.9620 -1.2669 -0.2911
   58MOL0     H 7778   6.098   5.896  10.536 -1.8757 -0.0886 -1.5844
   58MOL0     H 7779   5.826   5.992  10.610 -0.4543  0.8125 -0.0848
   58MOL0     H 7780   5.981   6.083  10.648 -0.9688  0.7278  0.7277
   58MOL0     H 7781   5.729   6.083  10.377 -1.1853  1.9571 -2.7843
   58MOL0     H 7782   5.718   6.214  10.148  0.7191 -0.1662 -1.5350
   58MOL0     H 7783   5.863   6.273  10.087 -0.7975  0.1252 -1.1030
   58MOL0     H 7784   5.912   6.019  10.006  0.6379  1.4493 -0.1593
   58MOL0     H 7785   5.751   5.982  10.072 -0.9563 -1.6732 -2.9771
   58MOL0     H 7786   5.823   6.150   9.846  0.5125  0.7811  0.0358
   58MOL0     H 7787   5.676   6.195   9.928  1.7873  0.7842 -2.7565
   58MOL0     H 7788   5.761   5.922   9.810 -0.1222  0.2887 -0.7664
   58MOL0     H 7789   5.647   6.026   9.733  0.1631  1.5908  0.9011
   58MOL0     H 7790   5.339   5.825  10.010 -2.8524  0.2189  1.2177
   58MOL0     H 7791   5.122   5.865   9.950 -0.2378  1.9577  3.9710
   58MOL0     H 7792   4.894   6.029   9.525 -0.5994 -1.4087 -1.8092
   58MOL0     H 7793   4.675   5.992   9.416  0.3795  0.9768  0.6763
   58MOL0     H 7794   4.319   5.935   9.679 -2.4561  0.5062 -0.0638
   58MOL0     H 7795   4.248   5.951   9.527  0.6881  0.2914  0.3718
   58MOL0     H 7796   4.306   5.713   9.462 -2.2869  4.0808 -0.9388
   58MOL0     H 7797   4.402   5.700   9.622  0.5609  1.0213 -1.0871
   58MOL0     H 7798   4.216   5.591   9.665  0.3025 -0.0891 -0.7403
   58MOL0     H 7799   4.213   5.749   9.748  1.0224  0.0096  0.2562
   58MOL0     H 7800   4.072   5.650   9.488  0.4648  0.1068 -0.7732
   58MOL0     H 7801   4.079   5.823   9.535 -1.0277 -1.0644 -3.0548
   58MOL0     H 7802   3.865   5.752   9.627 -0.9038 -1.8825 -1.0616
   58MOL0     H 7803   3.986   5.800   9.745  0.5811 -2.0874  1.5975
   58MOL0     H 7804   3.926   5.499   9.662  0.7367 -0.7924 -0.4337
   58MOL0     H 7805   4.026   5.547   9.783  1.6334  2.9034 -0.1783
   58MOL0     H 7806   3.779   5.460   9.802  1.9070  0.0970 -1.1568
   58MOL0     H 7807   3.718   5.609   9.748 -0.9468 -1.4433 -0.0691
   58MOL0     H 7808   3.877   5.570  10.004 -3.2181  1.3604  4.6762
   58MOL0     H 7809   3.825   5.722   9.950 -3.3831  1.0364  2.0739
   58MOL0     H 7810   4.493   5.901   9.791 -0.9647 -0.5001 -2.1540
   58MOL0     H 7811   4.705   5.920   9.902 -1.5771 -0.7175  0.9694
   58MOL0     H 7812   5.247   6.195   9.695  0.3235 -0.6452 -0.1569
   58MOL0     H 7813   5.495   6.145   9.750  1.3333 -0.4141  1.9077
   58MOL0     H 7814   5.473   5.370  11.316  2.5592  1.2229 -1.5835
   58MOL0     H 7815   5.259   5.300  11.333 -0.7574 -0.9428 -0.9203
   58MOL0     H 7816   4.784   5.583  11.066 -1.9398  0.9897 -0.2966
   58MOL0     H 7817   4.548   5.535  11.116  1.2501  0.4289 -1.5827
   58MOL0     H 7818   4.351   5.398  11.150 -2.8175  1.2268 -1.1926
   58MOL0     H 7819   4.354   5.526  11.276 -0.1399 -0.2504  1.0800
   58MOL0     H 7820   4.216   5.413  11.419 -3.5924  1.3651 -0.8622
   58MOL0     H 7821   4.243   5.253  11.340 -0.4083  0.0375  0.6464
   58MOL0     H 7822   4.130   5.331  11.139 -2.4010  0.3930 -1.4875
   58MOL0     H 7823   4.091   5.492  11.211  1.0251 -0.2483  1.5822
   58MOL0     H 7824   3.992   5.235  11.320  3.7506  0.4352  0.8819
   58MOL0     H 7825   3.973   5.393  11.398 -2.6252  2.5213 -1.4273
   58MOL0     H 7826   3.679   5.475  11.145  2.4880  3.0230 -0.6779
   58MOL0     H 7827   4.673   5.287  11.438 -1.8791  0.4982  0.5773
   58MOL0     H 7828   4.953   5.203  11.419  2.1967  0.3531  0.2593
   58MOL0     H 7829   5.042   5.349  11.408  0.3536 -1.7667  0.1314
   58MOL0     H 7830   4.916   5.327  11.534  0.3991  0.8028  0.2892
   59MOL0     O 7831  10.981   7.887   1.796 -0.4257 -0.2509 -0.0593
   59MOL0     C 7832  10.980   8.006   1.812  1.3246  0.6008 -0.7269
   59MOL0     O 7833  11.088   8.094   1.791  0.2240 -0.5027  0.5674
   59MOL0     C 7834  11.218   8.062   1.787 -1.3458  0.7416  1.3494
   59MOL0     C 7835  11.269   7.937   1.750  0.7277  0.5571 -0.3107
   59MOL0     C 7836  11.406   7.914   1.738 -0.6097  0.2687 -0.4075
   59MOL0     C 7837  11.498   8.013   1.774  1.3457  0.2111  0.4885
   59MOL0     O 7838  11.630   7.988   1.757 -0.4857 -0.4222 -0.1754
   59MOL0     C 7839  11.711   8.018   1.886 -0.5679  0.8750  1.4795
   59MOL0     C 7840  11.854   7.961   1.869 -0.8068  0.6352  0.0625
   59MOL0     C 7841  11.923   7.935   2.003 -0.4313 -0.8546  0.2192
   59MOL0     C 7842  12.062   7.866   1.988  0.6800  0.5306  0.1853
   59MOL0     C 7843  12.131   7.856   2.124 -0.6708 -0.4150  0.2313
   59MOL0     C 7844  12.274   7.789   2.105 -0.0064  0.5734  0.2721
   59MOL0     C 7845  12.282   7.662   2.191 -0.2439 -0.2319 -0.1932
   59MOL0     C 7846  12.412   7.595   2.153  0.0825  0.0628 -0.2023
   59MOL0     N 7847  12.531   7.678   2.122  0.2338 -0.1551 -0.4781
   59MOL0     C 7848  12.568   7.729   1.993 -0.2551  0.3526  0.2544
   59MOL0     C 7849  12.683   7.800   2.015 -0.3497  0.3182 -0.0703
   59MOL0     C 7850  12.782   7.863   1.918 -1.0345 -0.0850 -0.4926
   59MOL0     C 7851  12.920   7.786   1.935 -0.0771  0.0445 -0.6074
   59MOL0     C 7852  13.027   7.830   1.839 -0.2133 -0.5311  0.2589
   59MOL0     C 7853  13.159   7.757   1.880  0.0333  0.2697 -0.7990
   59MOL0     O 7854  13.154   7.622   1.831  0.3514  0.8399 -0.7167
   59MOL0     C 7855  13.268   7.555   1.824 -0.5057 -0.2416  0.3997
   59MOL0     C 7856  13.275   7.442   1.737  0.9179 -0.0902 -0.7519
   59MOL0     C 7857  13.390   7.365   1.722 -0.5895  0.4446 -0.7181
   59MOL0     C 7858  13.499   7.404   1.806 -0.8815 -0.2119 -0.1085
   59MOL0     C 7859  13.634   7.332   1.789  0.0257  0.9999  0.1231
   59MOL0     O 7860  13.669   7.275   1.660 -0.6712 -0.1466 -0.3136
   59MOL0     C 7861  13.804   7.226   1.662 -0.0956 -0.3036  0.4224
   59MOL0     C 7862  13.908   7.310   1.630  0.8539 -0.6059 -0.7475
   59MOL0     C 7863  14.037   7.258   1.621 -0.2829 -0.0696 -0.2859
   59MOL0     C 7864  14.074   7.125   1.641  0.6191  0.7710 -0.6643
   59MOL0     O 7865  14.203   7.082   1.629  0.3681 -0.1399 -0.3936
   59MOL0     C 7866  14.234   6.958   1.566  0.0241  0.3837  0.3497
   59MOL0     C 7867  14.381   6.944   1.541 -0.3918 -0.1014  0.5539
   59MOL0     C 7868  14.452   7.062   1.476  0.7546 -0.1093  0.1155
   59MOL0     C 7869  14.604   7.034   1.490  0.0643  0.0712  0.1248
   59MOL0     C 7870  14.668   7.045   1.630  0.9792  0.7078  0.4009
   59MOL0     C 7871  14.812   7.086   1.637 -0.4740  0.2958  0.0371
   59MOL0     C 7872  14.829   7.231   1.608 -1.2423  0.5243  0.6641
   59MOL0     C 7873  14.974   7.262   1.593 -0.3225 -0.0177  0.2944
   59MOL0    Cl 7874  15.017   7.229   1.421 -0.2736  0.5622 -0.2908
   59MOL0     C 7875  13.965   7.045   1.673  0.4383 -0.1700 -1.0652
   59MOL0     C 7876  13.831   7.094   1.686 -0.1546 -0.0995  0.4938
   59MOL0     O 7877  13.707   7.335   1.886 -0.5759 -0.2323  0.2010
   59MOL0     C 7878  13.497   7.513   1.901  0.1697 -0.1746  0.8228
   59MOL0     C 7879  13.379   7.580   1.910  0.4944  0.3236 -0.2864
   59MOL0     N 7880  12.702   7.808   2.155  0.0364  0.4512  0.5666
   59MOL0     N 7881  12.615   7.740   2.219 -0.3920 -0.3099 -0.8159
   59MOL0     C 7882  11.450   8.136   1.816  0.2849 -0.2599 -1.0338
   59MOL0     C 7883  11.314   8.159   1.812  0.2471  0.3222 -0.4100
   59MOL0     C 7884  10.840   8.055   1.851 -0.2292  0.3850 -0.1487
   59MOL0     C 7885  10.725   7.996   1.805 -0.2518 -0.5624  0.7880
   59MOL0     C 7886  10.601   8.036   1.847  0.4848  0.5439  0.4598
   59MOL0     C 7887  10.591   8.123   1.949  1.1032  0.5146  0.3063
   59MOL0     O 7888  10.472   8.173   1.993 -0.6827 -0.4024 -0.1872
   59MOL0     C 7889  10.343   8.125   1.958 -0.2953 -0.3884 -0.3176
   59MOL0     C 7890  10.228   8.203   2.041  0.3992  1.4448  0.4077
   59MOL0     C 7891  10.090   8.137   2.020  0.3769  0.1006  0.1999
   59MOL0     C 7892  10.041   8.151   1.871  0.3534  0.5436 -0.3488
   59MOL0     C 7893   9.899   8.117   1.864  0.2546 -0.4469 -0.2417
   59MOL0     C 7894   9.773   8.108   1.858  0.0930  0.5868 -0.2635
   59MOL0     C 7895  10.701   8.187   1.994 -0.1921  0.4281 -0.3526
   59MOL0     C 7896  10.827   8.160   1.940  0.6070 -0.4658 -0.4759
   59MOL0     C 7897  10.935   8.243   2.002  0.3182  0.3663  1.0149
   59MOL0     H 7898  11.200   7.859   1.720 -1.1193  1.2012  1.9797
   59MOL0     H 7899  11.450   7.824   1.696  1.2193  1.2008 -0.5660
   59MOL0     H 7900  11.716   8.127   1.901 -0.7010  1.3859 -1.6040
   59MOL0     H 7901  11.667   7.968   1.973  0.5136 -1.2168  0.8633
   59MOL0     H 7902  11.919   8.025   1.808  0.3185 -0.3644  0.1732
   59MOL0     H 7903  11.849   7.865   1.817  1.2128  0.4225  0.1734
   59MOL0     H 7904  11.862   7.877   2.073 -0.8423 -1.5228 -0.6769
   59MOL0     H 7905  11.939   8.031   2.054  0.5818 -1.3886  0.9334
   59MOL0     H 7906  12.060   7.780   1.920 -0.0101  1.1704 -0.6332
   59MOL0     H 7907  12.124   7.930   1.924  1.3748 -2.1095 -1.9681
   59MOL0     H 7908  12.146   7.952   2.174  0.2498  0.1923 -1.1785
   59MOL0     H 7909  12.070   7.795   2.192  1.8143 -1.9167  1.2494
   59MOL0     H 7910  12.300   7.774   2.000  1.8718  0.3967  0.7246
   59MOL0     H 7911  12.353   7.845   2.156  0.3474 -2.0441  2.8583
   59MOL0     H 7912  12.195   7.596   2.180  0.0414 -0.5406 -0.6358
   59MOL0     H 7913  12.294   7.692   2.295 -0.6602  0.0615 -0.2248
   59MOL0     H 7914  12.420   7.530   2.240  1.2696  1.8643  1.1008
   59MOL0     H 7915  12.396   7.526   2.070  0.3606 -2.1552  1.5030
   59MOL0     H 7916  12.525   7.697   1.899  0.4362 -0.4233  0.1925
   59MOL0     H 7917  12.738   7.858   1.817  1.8905 -0.5641 -1.8533
   59MOL0     H 7918  12.798   7.969   1.938 -0.7241 -0.5971  2.3866
   59MOL0     H 7919  12.952   7.813   2.036  0.2721 -2.4758  0.0224
   59MOL0     H 7920  12.903   7.678   1.930  0.2524 -0.1125  1.0665
   59MOL0     H 7921  13.034   7.938   1.852 -3.2022 -0.2783  0.4619
   59MOL0     H 7922  12.996   7.809   1.736 -0.1219  1.2361 -0.1594
   59MOL0     H 7923  13.167   7.758   1.989 -1.7334 -1.7826 -0.5821
   59MOL0     H 7924  13.243   7.808   1.832  1.4442  0.7438  1.9980
   59MOL0     H 7925  13.188   7.431   1.673 -0.9588 -1.4487  1.8516
   59MOL0     H 7926  13.407   7.294   1.642  2.1790 -0.6522  0.6890
   59MOL0     H 7927  13.891   7.413   1.603  3.1289 -0.7590 -3.1505
   59MOL0     H 7928  14.124   7.321   1.604  0.7286 -1.5236 -0.7047
   59MOL0     H 7929  14.203   6.873   1.628 -3.5889  1.1695 -0.1564
   59MOL0     H 7930  14.163   6.943   1.484 -1.0764 -2.1399  1.6604
   59MOL0     H 7931  14.416   6.942   1.645  0.3839  0.0702  0.3048
   59MOL0     H 7932  14.387   6.852   1.482 -0.0698  0.4358 -0.2743
   59MOL0     H 7933  14.420   7.071   1.371  1.6519  1.0059 -0.0805
   59MOL0     H 7934  14.424   7.154   1.529  1.0785  0.4395 -0.6363
   59MOL0     H 7935  14.647   7.108   1.423  0.3927 -0.5157 -0.3177
   59MOL0     H 7936  14.634   6.937   1.450  1.0541  0.2105  0.5093
   59MOL0     H 7937  14.662   6.944   1.669 -0.8678  0.4604 -0.3814
   59MOL0     H 7938  14.598   7.105   1.690 -1.4195 -2.1350  0.6491
   59MOL0     H 7939  14.855   7.063   1.735 -2.0010  0.0196  0.6711
   59MOL0     H 7940  14.877   7.036   1.565 -1.0463  0.9414 -0.9490
   59MOL0     H 7941  14.793   7.289   1.693  0.9046  2.9824  0.0082
   59MOL0     H 7942  14.776   7.270   1.520  0.9757  2.2723  0.0294
   59MOL0     H 7943  14.975   7.370   1.610 -1.8406  0.1142 -0.3493
   59MOL0     H 7944  15.032   7.203   1.665  0.3329  0.7900  0.4378
   59MOL0     H 7945  13.966   6.938   1.691 -3.3743 -0.0076  0.9426
   59MOL0     H 7946  13.743   7.035   1.710  0.9522 -2.9263 -1.8070
   59MOL0     H 7947  13.588   7.542   1.953  0.9199 -0.9753  0.0061
   59MOL0     H 7948  13.383   7.662   1.981  1.7789  1.9212 -2.1056
   59MOL0     H 7949  11.527   8.208   1.844 -2.5340  1.2260  4.2244
   59MOL0     H 7950  11.287   8.263   1.822 -1.0794 -0.1237  1.1661
   59MOL0     H 7951  10.747   7.921   1.730 -0.0684  0.0976  0.1742
   59MOL0     H 7952  10.521   7.968   1.822 -0.6749  1.9792  0.1588
   59MOL0     H 7953  10.343   8.019   1.984  2.6918 -0.3334  0.2909
   59MOL0     H 7954  10.325   8.132   1.850 -2.9098  3.4792  0.1732
   59MOL0     H 7955  10.224   8.306   2.003 -1.8136  1.1140 -0.4021
   59MOL0     H 7956  10.264   8.195   2.144  1.6078 -2.0987 -0.1506
   59MOL0     H 7957  10.017   8.175   2.093 -1.4201 -0.3968 -1.2701
   59MOL0     H 7958  10.110   8.033   2.046 -0.8859 -0.8605 -2.3588
   59MOL0     H 7959  10.064   8.250   1.830 -1.7159  1.3165  0.2251
   59MOL0     H 7960  10.086   8.083   1.798 -0.4651  1.8409 -2.1233
   59MOL0     H 7961   9.667   8.119   1.867  0.0827  0.1944  0.1758
   59MOL0     H 7962  10.697   8.260   2.074  3.2556 -1.0906  1.4062
   59MOL0     H 7963  10.986   8.174   2.070 -0.8602 -1.5105  0.0846
   59MOL0     H 7964  10.997   8.289   1.925  1.0472  0.6526  1.7606
   59MOL0     H 7965  10.889   8.322   2.062  0.6353 -0.6138  2.6061
   60MOL0     O 7966   2.522   5.711  10.377  0.9895  0.5617 -0.4508
   60MOL0     C 7967   2.548   5.599  10.351  0.8777 -0.6028  0.3041
   60MOL0     O 7968   2.469   5.509  10.292 -0.7799 -0.5211  0.3240
   60MOL0     C 7969   2.329   5.531  10.280  0.4992  0.1293  1.1872
   60MOL0     C 7970   2.261   5.632  10.215 -0.8083 -0.0856  0.1667
   60MOL0     C 7971   2.121   5.634  10.184  0.1127  1.4490 -0.6683
   60MOL0     C 7972   2.039   5.536  10.240 -0.2201  0.7284  0.1839
   60MOL0     O 7973   1.900   5.531  10.235 -0.6393  0.0967  0.8263
   60MOL0     C 7974   1.841   5.566  10.105 -0.5125 -0.7542 -0.2886
   60MOL0     C 7975   1.718   5.652  10.119 -0.2458 -0.7071  0.6615
   60MOL0     C 7976   1.650   5.674   9.984 -0.1083  0.3510  0.1516
   60MOL0     C 7977   1.545   5.569   9.979 -0.1008 -0.8275 -0.1810
   60MOL0     C 7978   1.511   5.536   9.835 -0.2077  0.0380 -0.4110
   60MOL0     C 7979   1.375   5.481   9.826  0.1918 -0.3969 -0.9775
   60MOL0     C 7980   1.312   5.470   9.685 -0.3062 -0.2366 -0.0643
   60MOL0     C 7981   1.199   5.372   9.661 -0.4476  0.6517 -0.1557
   60MOL0     N 7982   1.125   5.405   9.544  1.1524  1.0885  0.2007
   60MOL0     C 7983   1.155   5.483   9.441 -0.2436  0.0817  0.0863
   60MOL0     C 7984   1.050   5.477   9.358  0.3206  0.5873  0.6449
   60MOL0     C 7985   1.029   5.547   9.218 -0.4587  1.0578  0.1306
   60MOL0     C 7986   1.155   5.613   9.163 -0.4503 -0.6942  0.4929
   60MOL0     C 7987   1.113   5.697   9.043 -0.5738 -0.3998  0.5598
   60MOL0     C 7988   1.228   5.725   8.944 -0.7429  0.0193 -0.8176
   60MOL0     O 7989   1.299   5.849   8.972 -0.1099 -0.5679 -0.5690
   60MOL0     C 7990   1.249   5.968   8.914 -0.1256  0.2995 -0.1210
   60MOL0     C 7991   1.126   5.981   8.852 -0.5326  0.4176 -0.8417
   60MOL0     C 7992   1.084   6.104   8.796 -0.1042 -0.2648  0.7593
   60MOL0     C 7993   1.164   6.216   8.795 -0.0080 -0.3849  0.3738
   60MOL0     C 7994   1.111   6.340   8.732 -0.9052  0.3598 -0.3117
   60MOL0     O 7995   0.975   6.350   8.711  0.3416 -0.2427  0.1636
   60MOL0     C 7996   0.943   6.461   8.644 -1.0765  0.9517 -0.2541
   60MOL0     C 7997   0.983   6.501   8.518  0.1470  0.5531  0.2805
   60MOL0     C 7998   0.948   6.624   8.465 -0.0248  0.2864 -0.3953
   60MOL0     C 7999   0.860   6.708   8.539 -0.3536  0.3547  0.9757
   60MOL0     O 8000   0.812   6.831   8.498  0.0888 -0.1681  0.9693
   60MOL0     C 8001   0.780   6.841   8.356 -0.8175 -0.0745 -0.3774
   60MOL0     C 8002   0.651   6.924   8.346 -0.3211 -0.5957  0.6199
   60MOL0     C 8003   0.512   6.856   8.393  0.1006 -0.6643 -0.7043
   60MOL0     C 8004   0.392   6.906   8.302 -0.5515  0.4851 -0.1791
   60MOL0     C 8005   0.357   7.051   8.319  0.3909 -0.0059  0.2521
   60MOL0     C 8006   0.220   7.092   8.242 -0.0188 -0.2923 -0.0852
   60MOL0     C 8007   0.247   7.099   8.093  0.4888  0.3860  0.6792
   60MOL0     C 8008   0.119   7.134   8.023 -0.1833 -0.8840 -0.6546
   60MOL0    Cl 8009   0.149   7.194   7.863  0.2241 -0.3841 -0.2197
   60MOL0     C 8010   0.826   6.675   8.665  0.0131 -0.2869 -0.7581
   60MOL0     C 8011   0.863   6.548   8.717  0.4246 -0.7950  1.0079
   60MOL0     O 8012   1.193   6.426   8.706 -0.1951 -0.8979  0.0287
   60MOL0     C 8013   1.293   6.199   8.849  0.1168  0.5433  0.2351
   60MOL0     C 8014   1.332   6.077   8.908  1.1317  1.1819 -0.1714
   60MOL0     N 8015   0.951   5.393   9.415  0.1013  0.4800  0.1138
   60MOL0     N 8016   0.997   5.346   9.527 -1.2581 -0.6643  0.0600
   60MOL0     C 8017   2.100   5.436  10.320  0.3073  0.6060  0.4234
   60MOL0     C 8018   2.245   5.430  10.334 -0.2572  0.4206 -0.0074
   60MOL0     C 8019   2.694   5.574  10.373  0.4998 -0.2570  1.0940
   60MOL0     C 8020   2.773   5.695  10.386  0.4238  0.5848 -0.2479
   60MOL0     C 8021   2.915   5.678  10.405  0.8086 -0.4163 -1.0155
   60MOL0     C 8022   2.979   5.553  10.398  1.1093  0.3918  0.0110
   60MOL0     O 8023   3.114   5.523  10.407 -0.2576 -0.2680  0.0242
   60MOL0     C 8024   3.211   5.622  10.368  0.9538 -0.5146  0.3972
   60MOL0     C 8025   3.289   5.574  10.235 -0.1337  0.6607 -0.1316
   60MOL0     C 8026   3.196   5.594  10.117 -0.0065 -0.4117  0.4893
   60MOL0     C 8027   3.278   5.582   9.987  0.4052 -0.1799  0.2985
   60MOL0     C 8028   3.176   5.572   9.881 -0.3803  0.3754 -1.0540
   60MOL0     C 8029   3.094   5.578   9.785  0.3948 -0.0102 -0.5450
   60MOL0     C 8030   2.896   5.441  10.382 -0.3780 -0.2846 -0.7937
   60MOL0     C 8031   2.750   5.442  10.384 -0.1387 -0.5292  0.0392
   60MOL0     C 8032   2.676   5.315  10.396 -0.8904  0.2674 -0.2004
   60MOL0     H 8033   2.318   5.715  10.175  2.5536 -1.8353  0.8992
   60MOL0     H 8034   2.083   5.724  10.137  2.0943  2.5880 -0.2278
   60MOL0     H 8035   1.908   5.614  10.033  0.9692 -0.3873  1.2684
   60MOL0     H 8036   1.820   5.466  10.066 -3.2320 -0.9660  1.4688
   60MOL0     H 8037   1.756   5.752  10.143 -0.7368 -0.1360 -0.7950
   60MOL0     H 8038   1.642   5.630  10.195 -0.6252  1.0586  0.8481
   60MOL0     H 8039   1.716   5.661   9.897 -0.5744 -2.9483  0.1917
   60MOL0     H 8040   1.607   5.774   9.971  0.9004  0.8454  0.4781
   60MOL0     H 8041   1.569   5.472  10.025  1.2173 -0.3946  0.0641
   60MOL0     H 8042   1.453   5.611  10.021 -1.4622 -0.0781 -3.6197
   60MOL0     H 8043   1.532   5.611   9.758 -3.0129 -1.1825 -2.5427
   60MOL0     H 8044   1.571   5.447   9.813 -1.6084 -1.5670  1.8856
   60MOL0     H 8045   1.357   5.394   9.889 -1.7416  0.0111 -0.9082
   60MOL0     H 8046   1.311   5.559   9.868  2.4564  1.0219  0.0924
   60MOL0     H 8047   1.394   5.455   9.614  0.2125  2.2505 -0.0879
   60MOL0     H 8048   1.273   5.570   9.666  1.2995  0.5873  0.7457
   60MOL0     H 8049   1.246   5.275   9.641 -0.3833  1.2130 -3.2696
   60MOL0     H 8050   1.133   5.365   9.748 -2.6072  0.3814 -1.7188
   60MOL0     H 8051   1.244   5.538   9.411 -1.1874  1.4696 -0.2928
   60MOL0     H 8052   0.992   5.475   9.145  1.9833 -0.9950  0.8073
   60MOL0     H 8053   0.950   5.623   9.230 -1.6856 -0.4249  2.2035
   60MOL0     H 8054   1.206   5.680   9.234 -2.4263  1.0238  0.3814
   60MOL0     H 8055   1.229   5.539   9.131  1.5643  1.4981 -0.2910
   60MOL0     H 8056   1.058   5.784   9.077 -3.1956 -1.5113 -0.5285
   60MOL0     H 8057   1.036   5.645   8.985 -1.8841  0.7629  1.2178
   60MOL0     H 8058   1.191   5.726   8.841 -0.9613 -1.2245 -0.7734
   60MOL0     H 8059   1.310   5.652   8.943  1.7458  2.5783  1.1929
   60MOL0     H 8060   1.060   5.895   8.857  1.7327 -1.4642 -1.6948
   60MOL0     H 8061   0.986   6.126   8.755  0.4154  0.0654 -0.3667
   60MOL0     H 8062   1.040   6.429   8.459 -1.1877  0.3126 -0.7660
   60MOL0     H 8063   0.969   6.653   8.363 -2.4078 -0.4555 -1.1589
   60MOL0     H 8064   0.861   6.896   8.307  1.3480 -1.6046  1.2916
   60MOL0     H 8065   0.773   6.745   8.305  0.0292  1.5868 -4.0017
   60MOL0     H 8066   0.675   7.024   8.383 -0.2560  0.1508 -1.3206
   60MOL0     H 8067   0.646   6.940   8.238  1.9469  2.8087  0.8753
   60MOL0     H 8068   0.527   6.748   8.384  1.6214 -0.6921  1.3996
   60MOL0     H 8069   0.489   6.879   8.497 -0.4379 -1.4816 -0.6324
   60MOL0     H 8070   0.309   6.837   8.322 -0.8421  0.2147 -2.1366
   60MOL0     H 8071   0.403   6.896   8.193 -1.9073  1.5875 -0.4447
   60MOL0     H 8072   0.442   7.113   8.291  0.7883 -0.5917  0.1378
   60MOL0     H 8073   0.348   7.072   8.426 -1.2419  2.1833 -0.2404
   60MOL0     H 8074   0.139   7.020   8.256 -0.3804 -0.0392 -0.8481
   60MOL0     H 8075   0.194   7.189   8.284  0.2084 -0.4795  0.5007
   60MOL0     H 8076   0.288   7.006   8.054 -0.7476 -0.4315  1.2771
   60MOL0     H 8077   0.320   7.177   8.067  2.1367 -0.6952  1.8774
   60MOL0     H 8078   0.051   7.048   8.029 -1.4876  0.1915  0.9385
   60MOL0     H 8079   0.072   7.220   8.072 -1.7651 -1.4564 -1.0867
   60MOL0     H 8080   0.763   6.741   8.723  0.2518  0.6287 -1.5133
   60MOL0     H 8081   0.844   6.519   8.820 -1.1838  3.6501  2.1536
   60MOL0     H 8082   1.364   6.280   8.858  2.5332 -1.5142  0.6438
   60MOL0     H 8083   1.433   6.076   8.949  0.9614  0.6718  0.2375
   60MOL0     H 8084   2.032   5.361  10.359  0.3680  1.8633  3.1918
   60MOL0     H 8085   2.281   5.346  10.391  3.8879  1.4379 -0.8226
   60MOL0     H 8086   2.733   5.794  10.406  0.0560  0.6598 -1.3134
   60MOL0     H 8087   2.975   5.766  10.424 -3.0204  2.1804  0.2746
   60MOL0     H 8088   3.270   5.626  10.461 -0.1192  0.0166  1.0771
   60MOL0     H 8089   3.157   5.715  10.350 -3.0754 -2.9612 -1.5948
   60MOL0     H 8090   3.320   5.469  10.241 -1.7946  0.1849  0.9567
   60MOL0     H 8091   3.379   5.632  10.214  0.8974 -0.6487  0.5333
   60MOL0     H 8092   3.162   5.697  10.132  0.1911 -0.0384 -1.3794
   60MOL0     H 8093   3.112   5.524  10.120  1.1852 -1.8643  3.2454
   60MOL0     H 8094   3.343   5.669   9.978 -0.1337  0.1223 -0.8427
   60MOL0     H 8095   3.342   5.493   9.990 -0.9977 -1.1931  1.1541
   60MOL0     H 8096   3.029   5.590   9.700 -1.5132  0.3837  0.9173
   60MOL0     H 8097   2.943   5.344  10.393 -1.4438 -0.7746 -0.4359
   60MOL0     H 8098   2.574   5.333  10.431 -0.9510 -0.4903  0.0179
   60MOL0     H 8099   2.676   5.259  10.302  3.7838  2.9564 -2.1961
   60MOL0     H 8100   2.729   5.255  10.470 -3.1477 -0.5739  0.8208
   61MOL0     O 8101   5.081   6.080   1.025  0.0809 -0.2598  0.0219
   61MOL0     C 8102   5.055   6.160   1.110  1.0731  0.2446 -0.8445
   61MOL0     O 8103   5.139   6.239   1.178 -0.4200  0.3156  0.3658
   61MOL0     C 8104   5.272   6.259   1.146 -0.1694  0.4049 -0.1931
   61MOL0     C 8105   5.321   6.387   1.127 -0.0123 -0.0310 -0.0918
   61MOL0     C 8106   5.458   6.410   1.108 -0.5098  0.9443  0.1867
   61MOL0     C 8107   5.552   6.303   1.076  0.2431 -0.1945 -0.5314
   61MOL0     O 8108   5.686   6.320   1.047 -0.0107  0.1090  0.4002
   61MOL0     C 8109   5.750   6.443   1.036  0.1838 -0.5412  0.9280
   61MOL0     C 8110   5.904   6.429   1.066 -0.6236 -2.2229  0.2911
   61MOL0     C 8111   5.994   6.550   1.052  0.3323 -0.2311 -0.5826
   61MOL0     C 8112   6.135   6.484   1.063  0.5781  0.0741  0.0553
   61MOL0     C 8113   6.244   6.583   1.075  0.0543 -0.0510 -0.0103
   61MOL0     C 8114   6.382   6.515   1.104  0.0892 -0.3886  0.0532
   61MOL0     C 8115   6.482   6.629   1.096 -0.8075 -0.1241  0.7132
   61MOL0     C 8116   6.500   6.712   1.229 -0.0063 -1.0450 -0.1768
   61MOL0     N 8117   6.586   6.840   1.210  0.0205 -0.1558  0.4309
   61MOL0     C 8118   6.644   6.876   1.088  0.2073 -0.2376  0.2552
   61MOL0     C 8119   6.731   6.979   1.123  0.4532  0.8269 -0.6005
   61MOL0     C 8120   6.843   7.029   1.039  0.2768  0.1086  0.8217
   61MOL0     C 8121   6.980   7.034   1.121  0.3216  0.4836  0.5441
   61MOL0     C 8122   6.997   7.166   1.196 -0.4090 -0.0857 -0.7235
   61MOL0     C 8123   7.141   7.188   1.246 -0.4655 -0.3500  0.4626
   61MOL0     O 8124   7.242   7.211   1.138  0.5381  0.3186  0.3666
   61MOL0     C 8125   7.364   7.248   1.171 -0.0331 -1.5037  0.7460
   61MOL0     C 8126   7.446   7.287   1.059  0.2632  0.6301 -0.0836
   61MOL0     C 8127   7.580   7.315   1.071 -0.2624  0.0333  0.3464
   61MOL0     C 8128   7.643   7.303   1.192  0.7963  0.7215 -0.0951
   61MOL0     C 8129   7.790   7.323   1.210  0.3955 -0.4377  0.3019
   61MOL0     O 8130   7.877   7.265   1.114  0.7794 -0.4662  0.0557
   61MOL0     C 8131   8.019   7.274   1.132  0.7652 -0.4686 -0.4239
   61MOL0     C 8132   8.087   7.210   1.025  0.7078 -0.3662 -0.5200
   61MOL0     C 8133   8.228   7.200   1.018 -1.3105 -0.3443  0.1012
   61MOL0     C 8134   8.305   7.267   1.119 -0.5286  1.1466  0.2122
   61MOL0     O 8135   8.445   7.256   1.106  0.2814  0.3064  0.1231
   61MOL0     C 8136   8.529   7.318   1.199 -0.1169 -0.6978  0.5084
   61MOL0     C 8137   8.531   7.472   1.179  0.2932  1.1198  0.0491
   61MOL0     C 8138   8.611   7.559   1.268 -0.1796  0.1241 -0.6547
   61MOL0     C 8139   8.549   7.701   1.271 -0.2383 -0.5831 -0.0852
   61MOL0     C 8140   8.632   7.816   1.348 -0.3309 -0.0690  1.1604
   61MOL0     C 8141   8.632   7.787   1.493  0.2350 -0.4251  0.0932
   61MOL0     C 8142   8.733   7.891   1.542 -1.1414 -0.2467  0.1458
   61MOL0     C 8143   8.742   7.901   1.691 -0.5869  0.4347  0.2585
   61MOL0    Cl 8144   8.807   7.738   1.745 -0.0200 -0.2646  0.1925
   61MOL0     C 8145   8.238   7.327   1.223  0.3074  0.7624  0.5802
   61MOL0     C 8146   8.094   7.319   1.242  0.7966 -0.1828  0.1841
   61MOL0     O 8147   7.819   7.379   1.314  0.0071  0.1806 -0.8687
   61MOL0     C 8148   7.572   7.265   1.311  0.8369  0.2912 -0.8167
   61MOL0     C 8149   7.430   7.239   1.299 -0.6962 -0.1674  0.1150
   61MOL0     N 8150   6.711   7.010   1.258  0.1207 -0.4865  0.4559
   61MOL0     N 8151   6.628   6.916   1.313 -0.1678 -0.0681 -0.6132
   61MOL0     C 8152   5.498   6.167   1.074  1.0637 -0.2642  0.7041
   61MOL0     C 8153   5.362   6.142   1.118  0.1246 -0.8195  1.0752
   61MOL0     C 8154   4.912   6.165   1.134 -0.4390 -0.7498 -0.5069
   61MOL0     C 8155   4.829   6.166   1.023  0.2260 -1.1789  0.1612
   61MOL0     C 8156   4.687   6.160   1.036  0.5902  0.1220 -0.1068
   61MOL0     C 8157   4.627   6.162   1.161  0.4263 -1.1602 -0.1110
   61MOL0     O 8158   4.485   6.161   1.187 -0.5953  0.1236  0.1084
   61MOL0     C 8159   4.406   6.257   1.108 -1.1940  0.3496  0.0491
   61MOL0     C 8160   4.365   6.379   1.187  0.3386 -0.1477  0.1515
   61MOL0     C 8161   4.286   6.334   1.305 -0.1892  0.5573  0.5479
   61MOL0     C 8162   4.218   6.456   1.360 -0.5789 -1.1200  0.9510
   61MOL0     C 8163   4.124   6.429   1.472  0.3106  0.3709 -0.2971
   61MOL0     C 8164   4.035   6.412   1.559  0.3715  0.8664  0.2007
   61MOL0     C 8165   4.709   6.183   1.269  0.1311  0.0061 -0.2622
   61MOL0     C 8166   4.848   6.176   1.257 -0.7866  0.3661  0.2831
   61MOL0     C 8167   4.923   6.186   1.397  0.2331 -0.0669  0.2372
   61MOL0     H 8168   5.263   6.475   1.150  0.7390 -0.1061  2.4509
   61MOL0     H 8169   5.494   6.511   1.094  0.3512  0.6068 -0.0753
   61MOL0     H 8170   5.727   6.473   0.933  2.0458  0.2626  0.7041
   61MOL0     H 8171   5.704   6.524   1.094 -0.7695 -0.1516 -0.3162
   61MOL0     H 8172   5.943   6.358   0.992  2.3446 -1.1052  0.6543
   61MOL0     H 8173   5.902   6.398   1.171  1.2861  1.3095  1.5345
   61MOL0     H 8174   5.978   6.624   1.131 -2.3666 -0.7913 -0.4890
   61MOL0     H 8175   5.970   6.605   0.960  1.3071 -5.7390 -4.6199
   61MOL0     H 8176   6.139   6.435   1.160  0.4262  1.4402  0.7708
   61MOL0     H 8177   6.145   6.425   0.971 -2.1507 -1.4311  0.6161
   61MOL0     H 8178   6.246   6.644   0.985  0.1111  1.6425  1.0873
   61MOL0     H 8179   6.215   6.659   1.148 -1.5868 -0.7588  0.1105
   61MOL0     H 8180   6.372   6.479   1.207 -0.6260  1.2922  0.6028
   61MOL0     H 8181   6.400   6.439   1.028  1.5370  1.0695 -1.1281
   61MOL0     H 8182   6.463   6.703   1.018 -1.1695 -0.6156  0.3334
   61MOL0     H 8183   6.583   6.597   1.070 -1.7794  0.2362 -4.4979
   61MOL0     H 8184   6.399   6.741   1.259  0.6451  1.3993 -0.1121
   61MOL0     H 8185   6.542   6.648   1.308  1.9717 -0.2894 -0.5411
   61MOL0     H 8186   6.635   6.822   0.993 -1.4057  0.3636  0.0353
   61MOL0     H 8187   6.859   6.971   0.948 -1.1850  2.7287 -1.2270
   61MOL0     H 8188   6.822   7.131   1.006 -0.1394 -0.6121 -1.2848
   61MOL0     H 8189   6.985   6.946   1.185 -0.0447  0.6363  0.7858
   61MOL0     H 8190   7.062   7.022   1.050 -1.5667 -1.9878 -1.4231
   61MOL0     H 8191   6.928   7.158   1.281 -0.2405 -0.3323 -0.6066
   61MOL0     H 8192   6.965   7.253   1.138  0.6506  1.8554  1.4436
   61MOL0     H 8193   7.177   7.112   1.315 -2.2377 -2.1060 -0.4275
   61MOL0     H 8194   7.147   7.281   1.304 -1.1470  1.4490 -2.1610
   61MOL0     H 8195   7.404   7.288   0.959  2.4813 -1.2325 -1.1300
   61MOL0     H 8196   7.637   7.348   0.985  3.3897  0.3839  2.6903
   61MOL0     H 8197   8.023   7.168   0.948 -0.5583 -0.2865  0.4533
   61MOL0     H 8198   8.277   7.141   0.941 -0.2293  0.3899  0.1878
   61MOL0     H 8199   8.502   7.292   1.302 -0.3804  0.6030  0.7919
   61MOL0     H 8200   8.627   7.271   1.185 -0.4571 -1.5021  0.7969
   61MOL0     H 8201   8.565   7.489   1.076  1.2838 -0.0694  0.1571
   61MOL0     H 8202   8.428   7.509   1.188  0.1248  1.1010 -1.5096
   61MOL0     H 8203   8.614   7.514   1.367  0.9051 -0.3727 -0.9031
   61MOL0     H 8204   8.710   7.563   1.222  0.2574  1.4100  0.3594
   61MOL0     H 8205   8.446   7.707   1.307 -0.4827 -3.1939 -0.0910
   61MOL0     H 8206   8.561   7.721   1.164  0.6143 -2.4616 -0.3923
   61MOL0     H 8207   8.580   7.910   1.332 -0.4103 -0.4362 -1.0801
   61MOL0     H 8208   8.734   7.817   1.306 -0.2887 -0.3199  1.2509
   61MOL0     H 8209   8.534   7.799   1.540 -1.2857 -1.6926 -2.4842
   61MOL0     H 8210   8.674   7.686   1.498  1.5926  0.0988 -0.3985
   61MOL0     H 8211   8.711   7.993   1.511 -0.5762  1.2176  4.0175
   61MOL0     H 8212   8.821   7.863   1.483 -3.9511 -2.2854 -3.4768
   61MOL0     H 8213   8.802   7.987   1.723  1.0390 -0.1027 -1.2101
   61MOL0     H 8214   8.650   7.929   1.743 -0.7715 -0.5267  0.4626
   61MOL0     H 8215   8.287   7.377   1.306  1.7521 -2.0248  1.5361
   61MOL0     H 8216   8.049   7.361   1.330 -1.6209 -1.0278 -0.5856
   61MOL0     H 8217   7.611   7.263   1.412 -4.6679  0.9233  1.7112
   61MOL0     H 8218   7.376   7.207   1.388 -0.5154 -0.6595  0.0476
   61MOL0     H 8219   5.551   6.079   1.038 -0.0386 -1.0519  0.9562
   61MOL0     H 8220   5.332   6.038   1.114  1.9850 -1.3560 -0.6953
   61MOL0     H 8221   4.871   6.166   0.923 -1.4729 -1.0336 -0.5861
   61MOL0     H 8222   4.637   6.138   0.942 -0.0162  2.3944 -0.3578
   61MOL0     H 8223   4.321   6.198   1.072  1.3963 -3.9962  0.3651
   61MOL0     H 8224   4.469   6.283   1.022 -0.8470 -1.1992 -0.1871
   61MOL0     H 8225   4.307   6.447   1.125  2.2704  2.0050  0.5431
   61MOL0     H 8226   4.448   6.441   1.223 -1.3509  1.2058  1.9735
   61MOL0     H 8227   4.352   6.292   1.381 -0.0745 -3.3039 -1.4514
   61MOL0     H 8228   4.215   6.255   1.280 -2.1906  2.2126  0.7160
   61MOL0     H 8229   4.299   6.520   1.399 -1.5694  1.4068 -0.8864
   61MOL0     H 8230   4.159   6.506   1.283 -1.0369 -1.3071  1.1766
   61MOL0     H 8231   3.954   6.413   1.629  2.0018  2.2007  2.1774
   61MOL0     H 8232   4.656   6.186   1.364 -0.4799  1.6346 -0.6168
   61MOL0     H 8233   4.956   6.290   1.409 -1.2856  0.2698  1.9749
   61MOL0     H 8234   4.853   6.164   1.478 -0.8933  1.5547 -0.2289
   61MOL0     H 8235   5.003   6.114   1.409 -1.9358 -2.8146 -0.7530
   62MOL0     O 8236   5.911   7.909   4.989  0.3477 -0.0603 -0.2209
   62MOL0     C 8237   5.846   7.919   5.093 -0.0470 -0.1354 -0.6745
   62MOL0     O 8238   5.882   8.002   5.197 -0.2881  1.3559 -0.1797
   62MOL0     C 8239   5.994   8.070   5.193 -0.1239 -0.0123  0.5625
   62MOL0     C 8240   6.091   8.041   5.287 -0.4694  0.9236 -0.0781
   62MOL0     C 8241   6.205   8.125   5.293  0.2479 -0.7485 -0.9972
   62MOL0     C 8242   6.229   8.229   5.203 -0.4026 -0.1102 -0.8111
   62MOL0     O 8243   6.341   8.304   5.216  0.2915  0.0408  0.0317
   62MOL0     C 8244   6.391   8.355   5.096 -1.1980 -0.3512 -0.0706
   62MOL0     C 8245   6.544   8.374   5.099  0.3010  0.0098  0.0325
   62MOL0     C 8246   6.581   8.497   5.187 -0.2634  0.4744  0.5334
   62MOL0     C 8247   6.726   8.522   5.195 -0.2971 -0.2199  0.2645
   62MOL0     C 8248   6.809   8.403   5.234 -1.1917  0.4823  0.1650
   62MOL0     C 8249   6.824   8.379   5.382  0.5636  0.7755 -0.8672
   62MOL0     C 8250   6.879   8.239   5.424 -0.1063  0.3303  0.4170
   62MOL0     C 8251   6.760   8.155   5.463 -0.4879  0.2358  0.1043
   62MOL0     N 8252   6.809   8.015   5.481  0.1742 -0.1553 -0.6145
   62MOL0     C 8253   6.761   7.894   5.423  0.3780 -0.5423 -0.0333
   62MOL0     C 8254   6.850   7.802   5.473  0.2837 -1.1728  0.3805
   62MOL0     C 8255   6.827   7.656   5.470 -0.5393  0.1918  0.7664
   62MOL0     C 8256   6.866   7.603   5.322 -0.0359  0.2707  0.0099
   62MOL0     C 8257   6.896   7.448   5.320  0.4976  0.4765  0.2681
   62MOL0     C 8258   6.765   7.352   5.349 -0.2414 -0.6331  1.1787
   62MOL0     O 8259   6.654   7.415   5.278 -0.3683 -0.0435 -0.5211
   62MOL0     C 8260   6.526   7.371   5.296 -0.1402 -0.3169  0.5887
   62MOL0     C 8261   6.428   7.413   5.206  0.1853  0.5008  0.1736
   62MOL0     C 8262   6.301   7.363   5.217  0.1598  0.3116 -1.2202
   62MOL0     C 8263   6.260   7.282   5.327  0.1629 -0.3608 -0.1638
   62MOL0     C 8264   6.122   7.247   5.334 -0.4703 -0.2554 -0.8017
   62MOL0     O 8265   6.029   7.284   5.242 -0.1014 -0.0216 -0.0019
   62MOL0     C 8266   5.903   7.248   5.255  0.1535 -0.1450 -1.1494
   62MOL0     C 8267   5.796   7.338   5.232 -0.6616 -0.7633 -0.6914
   62MOL0     C 8268   5.667   7.292   5.240  0.1077  0.1951  0.0328
   62MOL0     C 8269   5.637   7.159   5.277  0.7919 -0.0502 -0.6652
   62MOL0     O 8270   5.506   7.114   5.274 -0.3884  1.1084  0.4051
   62MOL0     C 8271   5.435   7.137   5.154 -0.4258  0.1354 -0.5704
   62MOL0     C 8272   5.337   7.024   5.138  0.0225 -0.5387  0.6225
   62MOL0     C 8273   5.236   7.053   5.030 -0.3856  0.9567  0.4637
   62MOL0     C 8274   5.174   6.925   4.966 -0.0594  0.4456  0.1066
   62MOL0     C 8275   5.082   6.963   4.840 -0.2737 -0.5998 -0.7041
   62MOL0     C 8276   5.170   6.994   4.718  1.0300 -0.2535 -0.3675
   62MOL0     C 8277   5.088   6.948   4.597  0.1182  0.5784  0.4773
   62MOL0     C 8278   4.939   6.992   4.573  0.8257  0.9250  0.3261
   62MOL0    Cl 8279   4.887   6.959   4.408 -0.3158 -0.1610 -0.2325
   62MOL0     C 8280   5.742   7.075   5.308  1.3468 -0.5300  0.7763
   62MOL0     C 8281   5.869   7.116   5.287 -0.1631 -0.2899 -0.2253
   62MOL0     O 8282   6.094   7.181   5.436 -1.0334 -0.4862 -0.7056
   62MOL0     C 8283   6.353   7.253   5.422  0.5489  0.1669 -0.5221
   62MOL0     C 8284   6.487   7.290   5.412 -0.2393  0.6271  0.1048
   62MOL0     N 8285   6.941   7.865   5.554 -0.7681 -0.9119  0.4938
   62MOL0     N 8286   6.909   7.986   5.567  0.5032  0.5085 -0.0241
   62MOL0     C 8287   6.128   8.255   5.108  0.2283 -0.0888  0.2565
   62MOL0     C 8288   6.004   8.185   5.109 -0.3541 -0.0489 -0.3548
   62MOL0     C 8289   5.728   7.826   5.116 -0.5820  1.3779 -0.8848
   62MOL0     C 8290   5.721   7.710   5.027  0.3669  0.1251  0.4943
   62MOL0     C 8291   5.615   7.620   5.044  0.6181  0.6001 -0.1875
   62MOL0     C 8292   5.518   7.640   5.142 -0.5995  0.7031 -0.1435
   62MOL0     O 8293   5.400   7.568   5.143 -0.3250  0.6689 -0.0690
   62MOL0     C 8294   5.355   7.500   5.023 -0.4107 -0.6218 -0.0349
   62MOL0     C 8295   5.215   7.463   5.035  0.5496 -0.5065 -0.0268
   62MOL0     C 8296   5.155   7.404   4.901 -0.0654  0.5340 -0.9755
   62MOL0     C 8297   5.005   7.376   4.910  0.4353 -0.2649  0.8347
   62MOL0     C 8298   4.935   7.505   4.904  0.5012  0.5273  0.5383
   62MOL0     C 8299   4.882   7.613   4.889 -0.4751  0.6750  0.4514
   62MOL0     C 8300   5.527   7.746   5.227 -0.1734 -0.0710  0.1921
   62MOL0     C 8301   5.627   7.849   5.213  0.3258  0.2215  0.8714
   62MOL0     C 8302   5.615   7.965   5.304  0.5232  0.0656  0.5835
   62MOL0     H 8303   6.084   7.955   5.353  3.0653  1.0811  0.6755
   62MOL0     H 8304   6.278   8.108   5.372 -2.9214  1.3043  2.7559
   62MOL0     H 8305   6.392   8.278   5.019  0.2616 -0.5822  0.1344
   62MOL0     H 8306   6.339   8.447   5.067  0.8736  1.0733  0.4391
   62MOL0     H 8307   6.605   8.390   5.010  0.8661 -1.4493  0.1230
   62MOL0     H 8308   6.585   8.282   5.142  0.9879  0.3102  0.0308
   62MOL0     H 8309   6.541   8.483   5.287  0.7479 -3.7859  0.5596
   62MOL0     H 8310   6.537   8.588   5.145 -0.8509  0.9611  2.1620
   62MOL0     H 8311   6.752   8.542   5.091 -0.1751 -0.0651  0.3237
   62MOL0     H 8312   6.739   8.615   5.251 -2.1282  2.5765 -3.4828
   62MOL0     H 8313   6.792   8.311   5.178 -1.3767 -0.2262  1.3532
   62MOL0     H 8314   6.908   8.434   5.200 -1.8371 -1.2927 -3.9262
   62MOL0     H 8315   6.896   8.452   5.420  0.5790  0.0841  0.4774
   62MOL0     H 8316   6.728   8.401   5.429  0.2943 -1.6777 -0.1615
   62MOL0     H 8317   6.960   8.242   5.497 -0.8926 -4.4870  1.8581
   62MOL0     H 8318   6.926   8.196   5.335 -0.5021  1.6222 -0.4555
   62MOL0     H 8319   6.719   8.196   5.555  1.8913  0.7809  0.9768
   62MOL0     H 8320   6.678   8.163   5.390 -0.1039 -2.0374 -0.6835
   62MOL0     H 8321   6.671   7.876   5.365  0.4305  0.8287 -0.5704
   62MOL0     H 8322   6.895   7.613   5.544 -0.0841  0.4534  0.5034
   62MOL0     H 8323   6.720   7.640   5.489 -1.6243  3.3032 -1.8411
   62MOL0     H 8324   6.783   7.617   5.252  0.4231  0.4462 -0.5069
   62MOL0     H 8325   6.958   7.655   5.294 -0.4527  1.1922  0.3134
   62MOL0     H 8326   6.977   7.426   5.389  1.5843  1.1142 -0.7671
   62MOL0     H 8327   6.935   7.421   5.222  2.2207  1.9171  0.4905
   62MOL0     H 8328   6.760   7.341   5.457 -0.5353 -0.6211  1.1683
   62MOL0     H 8329   6.777   7.251   5.308 -0.2136  0.4059 -1.6530
   62MOL0     H 8330   6.464   7.464   5.118  0.2547 -0.4488 -0.3575
   62MOL0     H 8331   6.234   7.401   5.140 -3.7856 -2.0145  0.7371
   62MOL0     H 8332   5.804   7.441   5.200 -0.6646 -1.5724 -3.5084
   62MOL0     H 8333   5.587   7.357   5.208 -0.3900 -0.5232 -0.1969
   62MOL0     H 8334   5.386   7.234   5.168  1.2683  1.2935 -2.1806
   62MOL0     H 8335   5.496   7.140   5.064 -0.7000  0.6002 -0.7409
   62MOL0     H 8336   5.400   6.939   5.107  1.9865  0.4990  1.5477
   62MOL0     H 8337   5.290   6.994   5.232 -1.8925  0.5993  0.0795
   62MOL0     H 8338   5.152   7.111   5.069  0.3307  0.9575  2.1070
   62MOL0     H 8339   5.294   7.114   4.960 -0.4550  0.8791  0.3380
   62MOL0     H 8340   5.107   6.879   5.039  0.6363  1.6217  1.5356
   62MOL0     H 8341   5.248   6.849   4.942 -3.2037 -3.0163  0.4088
   62MOL0     H 8342   5.026   7.053   4.868  3.1837  1.0784  1.4884
   62MOL0     H 8343   5.022   6.872   4.831  0.0174 -0.9566  0.7918
   62MOL0     H 8344   5.192   7.101   4.712  0.7848 -0.2458 -1.2794
   62MOL0     H 8345   5.261   6.935   4.724 -0.0793 -1.9849  0.4132
   62MOL0     H 8346   5.086   6.839   4.608 -2.5121  0.7854  3.4767
   62MOL0     H 8347   5.148   6.976   4.510 -1.4761  0.0859 -0.8372
   62MOL0     H 8348   4.868   6.944   4.640  0.0737  0.6852 -0.6233
   62MOL0     H 8349   4.934   7.100   4.587 -0.3801  1.0847 -1.1507
   62MOL0     H 8350   5.724   6.969   5.325 -2.9351 -0.0959  0.2045
   62MOL0     H 8351   5.952   7.048   5.300 -0.5383 -0.5677  0.7541
   62MOL0     H 8352   6.320   7.211   5.516  2.3083  1.6180  0.8148
   62MOL0     H 8353   6.564   7.274   5.487 -0.3403 -0.6730 -0.0422
   62MOL0     H 8354   6.130   8.335   5.035  0.1966 -0.6591 -0.3822
   62MOL0     H 8355   5.919   8.195   5.042 -0.2220 -1.8656 -0.8600
   62MOL0     H 8356   5.800   7.684   4.958 -0.6232  1.6873 -1.3118
   62MOL0     H 8357   5.614   7.539   4.972 -2.4080 -0.1133  0.5061
   62MOL0     H 8358   5.412   7.407   5.031  0.9429  0.1115 -0.8275
   62MOL0     H 8359   5.380   7.555   4.932  0.9157 -0.7190  0.2508
   62MOL0     H 8360   5.156   7.555   5.042  0.4642 -0.5466 -0.1980
   62MOL0     H 8361   5.199   7.395   5.119 -2.5505 -0.3265 -0.3562
   62MOL0     H 8362   5.208   7.312   4.878 -1.4553 -0.4656 -0.2908
   62MOL0     H 8363   5.169   7.484   4.827 -2.3203  2.2237  0.2838
   62MOL0     H 8364   4.980   7.316   4.822  2.3175  1.2598 -0.8322
   62MOL0     H 8365   4.978   7.332   5.007 -0.7333  1.6158  1.4426
   62MOL0     H 8366   4.838   7.711   4.892 -1.2676  0.3118  1.6590
   62MOL0     H 8367   5.442   7.748   5.294 -0.4384 -2.2681 -0.0033
   62MOL0     H 8368   5.692   8.000   5.373  0.8821  0.2959  0.0755
   62MOL0     H 8369   5.578   8.050   5.246  1.5170 -1.0002 -1.7120
   62MOL0     H 8370   5.524   7.941   5.360 -0.7652 -0.9068 -1.8105
   63MOL0     O 8371   5.098   7.775  10.470 -0.5215  0.0540  1.0972
   63MOL0     C 8372   5.104   7.758  10.347  0.4937 -0.0629  0.8220
   63MOL0     O 8373   5.187   7.824  10.263  0.2938  0.4474  0.8073
   63MOL0     C 8374   5.253   7.928  10.316 -1.0941  0.4586  0.1311
   63MOL0     C 8375   5.384   7.926  10.357  0.6250 -0.3234  0.3319
   63MOL0     C 8376   5.444   8.033  10.425  0.3754 -0.9595  0.9208
   63MOL0     C 8377   5.373   8.153  10.449 -0.5310 -0.2625 -0.2533
   63MOL0     O 8378   5.425   8.265  10.509 -0.1537  0.3739  0.2404
   63MOL0     C 8379   5.566   8.256  10.546 -0.0365 -0.3950  0.2435
   63MOL0     C 8380   5.610   8.378  10.626 -0.0727  0.3969 -0.6953
   63MOL0     C 8381   5.579   8.518  10.554  0.0513  0.3179  0.2720
   63MOL0     C 8382   5.647   8.647  10.608 -0.2483 -0.3178 -0.8846
   63MOL0     C 8383   5.610   8.663  10.759 -0.2547 -0.5166  0.1889
   63MOL0     C 8384   5.680   8.775  10.817 -0.4231 -0.6759 -0.6193
   63MOL0     C 8385   5.834   8.751  10.837  0.2139 -0.1673 -0.3074
   63MOL0     C 8386   5.902   8.873  10.895  0.4686  0.8126 -0.5729
   63MOL0     N 8387   6.042   8.845  10.894  0.6694 -0.1191  0.7362
   63MOL0     C 8388   6.106   8.794  11.000 -0.1391 -0.1267  1.1054
   63MOL0     C 8389   6.239   8.814  10.964 -0.0069 -0.1386 -0.3712
   63MOL0     C 8390   6.351   8.758  11.051 -0.1331  0.3061 -0.8526
   63MOL0     C 8391   6.477   8.762  10.958 -0.2463 -0.4983  0.4636
   63MOL0     C 8392   6.600   8.704  11.014 -0.1264  0.6258 -0.8754
   63MOL0     C 8393   6.655   8.793  11.123  0.6132 -1.3282 -0.0781
   63MOL0     O 8394   6.795   8.781  11.157 -0.7197  0.4634  1.5253
   63MOL0     C 8395   6.883   8.868  11.088 -0.6624 -0.3645  0.3214
   63MOL0     C 8396   6.994   8.916  11.162  0.1797  0.5779  0.4776
   63MOL0     C 8397   7.083   9.011  11.116  0.3831  0.2654 -0.5571
   63MOL0     C 8398   7.066   9.066  10.985 -0.4315 -0.5367 -1.0384
   63MOL0     C 8399   7.165   9.168  10.940  0.2391 -0.9710  0.1520
   63MOL0     O 8400   7.257   9.211  11.034  0.5621  0.0369 -0.0504
   63MOL0     C 8401   7.362   9.293  10.997  0.1185  0.1872  0.2997
   63MOL0     C 8402   7.395   9.398  11.088 -0.1841  1.0618  0.1870
   63MOL0     C 8403   7.508   9.475  11.051  0.2933  0.6063  0.0297
   63MOL0     C 8404   7.580   9.451  10.936 -0.4893 -1.0392  0.0050
   63MOL0     O 8405   7.686   9.531  10.908 -0.0523  0.0607 -0.6109
   63MOL0     C 8406   7.685   9.574  10.776 -0.8448 -0.6832 -0.4947
   63MOL0     C 8407   7.780   9.697  10.764  0.2680 -0.0513 -1.0043
   63MOL0     C 8408   7.777   9.756  10.621  0.3977 -0.4988  1.1699
   63MOL0     C 8409   7.849   9.889  10.619  0.2438  0.0093 -0.2359
   63MOL0     C 8410   7.869   9.951  10.484 -1.3902  0.1999 -1.3537
   63MOL0     C 8411   7.938  10.088  10.488  0.0812 -0.3683 -0.5895
   63MOL0     C 8412   7.999  10.115  10.354  0.1292  0.1894  0.4241
   63MOL0     C 8413   8.070  10.253  10.367  1.3740  0.0394  0.0875
   63MOL0    Cl 8414   7.944  10.392  10.415 -0.2167  0.1584  0.1144
   63MOL0     C 8415   7.549   9.340  10.857  0.1908 -0.5057 -0.1288
   63MOL0     C 8416   7.441   9.254  10.890 -0.3468  0.7913  0.2158
   63MOL0     O 8417   7.162   9.209  10.821  0.5139  0.0268  0.4980
   63MOL0     C 8418   6.962   9.012  10.907 -0.5722 -0.1239 -0.0196
   63MOL0     C 8419   6.868   8.919  10.958 -0.4330  0.0892 -1.1154
   63MOL0     N 8420   6.249   8.865  10.834 -0.1746  0.2398 -0.4707
   63MOL0     N 8421   6.131   8.886  10.794 -0.1898 -0.2987 -0.7206
   63MOL0     C 8422   5.245   8.164  10.399  0.4599  0.2835 -0.4457
   63MOL0     C 8423   5.188   8.055  10.333 -0.2229  0.7495 -0.4794
   63MOL0     C 8424   5.035   7.642  10.288 -0.5727 -0.0736  0.4397
   63MOL0     C 8425   5.109   7.572  10.198 -0.7435  0.0047 -0.7604
   63MOL0     C 8426   5.046   7.478  10.111  0.2802  0.6776 -0.6608
   63MOL0     C 8427   4.904   7.457  10.113 -0.7644  0.3602 -0.4359
   63MOL0     O 8428   4.829   7.376  10.028 -0.2059 -0.0077 -0.1198
   63MOL0     C 8429   4.846   7.409   9.896  0.0766 -0.0676  0.9645
   63MOL0     C 8430   4.718   7.482   9.850 -0.8468 -0.0882 -0.6133
   63MOL0     C 8431   4.604   7.401   9.854  0.5649  0.4173 -1.1797
   63MOL0     C 8432   4.603   7.299   9.734  0.4031 -0.6613  0.0721
   63MOL0     C 8433   4.562   7.364   9.604 -0.3236 -0.0339  0.3960
   63MOL0     C 8434   4.537   7.425   9.504  0.8541  1.2429 -0.1836
   63MOL0     C 8435   4.839   7.530  10.209 -0.4834 -0.3938  0.4321
   63MOL0     C 8436   4.902   7.624  10.293 -0.3439 -0.4908 -0.3244
   63MOL0     C 8437   4.816   7.729  10.361 -0.0266  0.3813  0.1694
   63MOL0     H 8438   5.436   7.832  10.366  1.7209  0.3394  1.1099
   63MOL0     H 8439   5.547   8.025  10.457  0.5313 -2.6101  0.1053
   63MOL0     H 8440   5.576   8.177  10.621  0.4293 -3.0936 -2.4800
   63MOL0     H 8441   5.634   8.250  10.461  1.5382  2.3699  1.1773
   63MOL0     H 8442   5.718   8.367  10.636 -0.4079 -0.6429  3.0752
   63MOL0     H 8443   5.565   8.375  10.726  0.1163 -1.4484 -0.6244
   63MOL0     H 8444   5.471   8.536  10.549  0.0368  0.4155  0.9032
   63MOL0     H 8445   5.603   8.509  10.448  0.9132  0.5582  0.4377
   63MOL0     H 8446   5.754   8.622  10.610  0.7461  3.1966  1.5950
   63MOL0     H 8447   5.630   8.742  10.557  0.7629  0.0268 -0.6052
   63MOL0     H 8448   5.503   8.685  10.765 -0.3062 -0.4211 -0.8690
   63MOL0     H 8449   5.639   8.577  10.820  2.6992  0.5735  0.4955
   63MOL0     H 8450   5.658   8.862  10.755 -0.5748 -1.0113 -1.0358
   63MOL0     H 8451   5.624   8.789  10.910 -0.6080 -1.8121 -0.5442
   63MOL0     H 8452   5.890   8.726  10.747  0.0702 -2.0990  0.0967
   63MOL0     H 8453   5.844   8.670  10.910 -0.6619  0.8374  0.9787
   63MOL0     H 8454   5.881   8.959  10.830  1.9662  2.4253  0.9741
   63MOL0     H 8455   5.864   8.902  10.994  0.5640  0.0061 -0.2919
   63MOL0     H 8456   6.059   8.751  11.088  1.4214 -0.5079  1.7875
   63MOL0     H 8457   6.361   8.814  11.145 -0.0930 -2.4266  0.8784
   63MOL0     H 8458   6.332   8.655  11.080  1.6500  0.1720 -0.0130
   63MOL0     H 8459   6.455   8.695  10.874  1.9996 -1.4521  0.5542
   63MOL0     H 8460   6.490   8.863  10.920 -0.4030  0.0786  1.8843
   63MOL0     H 8461   6.675   8.685  10.937 -2.7470 -4.7401 -2.5948
   63MOL0     H 8462   6.580   8.605  11.055  1.0648 -0.5620 -3.0169
   63MOL0     H 8463   6.595   8.766  11.210 -1.9363  0.6232 -1.1088
   63MOL0     H 8464   6.628   8.897  11.106  0.4349 -1.4451 -0.5277
   63MOL0     H 8465   7.008   8.879  11.263  0.1406 -0.2407  0.1880
   63MOL0     H 8466   7.163   9.046  11.181 -1.3094  1.3660  1.0209
   63MOL0     H 8467   7.330   9.422  11.172  1.0942  0.8953  1.2554
   63MOL0     H 8468   7.537   9.563  11.106  2.9950  1.0359 -1.8663
   63MOL0     H 8469   7.734   9.499  10.712  1.4243  0.3629 -0.1000
   63MOL0     H 8470   7.586   9.606  10.744 -0.2039  0.7765 -1.1263
   63MOL0     H 8471   7.754   9.776  10.835  0.6614 -1.6303  0.9756
   63MOL0     H 8472   7.876   9.655  10.797  0.0443  1.3758  1.7464
   63MOL0     H 8473   7.832   9.689  10.554  0.2267 -0.3503  0.8752
   63MOL0     H 8474   7.674   9.769  10.586  1.2053  0.7333 -0.9298
   63MOL0     H 8475   7.942   9.860  10.667  0.7371  2.7706  0.6253
   63MOL0     H 8476   7.803   9.964  10.684  3.9568  1.2634  1.1741
   63MOL0     H 8477   7.769   9.952  10.439 -1.8344 -2.2001 -0.5610
   63MOL0     H 8478   7.937   9.884  10.431 -1.3105  0.7853 -2.0106
   63MOL0     H 8479   7.863  10.163  10.512 -0.3209 -1.2028  0.9036
   63MOL0     H 8480   8.015  10.110  10.564  1.1116  1.4339 -2.0733
   63MOL0     H 8481   7.929  10.104  10.270 -1.3617 -2.2026  1.8544
   63MOL0     H 8482   8.075  10.039  10.337 -0.7358 -1.2262  2.5703
   63MOL0     H 8483   8.150  10.248  10.441  1.0673 -4.8390  0.3975
   63MOL0     H 8484   8.128  10.278  10.278  2.5003  1.1862  1.1067
   63MOL0     H 8485   7.614   9.311  10.776  1.6138  1.6247  0.1724
   63MOL0     H 8486   7.422   9.168  10.827  0.3015 -0.8239  2.1426
   63MOL0     H 8487   6.951   9.044  10.804  1.9226 -0.6855 -0.5071
   63MOL0     H 8488   6.780   8.891  10.901 -2.2789  0.0147  1.6136
   63MOL0     H 8489   5.187   8.255  10.398  2.1989  1.5003 -3.0012
   63MOL0     H 8490   5.090   8.074  10.289 -0.0520  3.8787  0.2639
   63MOL0     H 8491   5.215   7.586  10.178 -0.5512 -1.3911 -0.8330
   63MOL0     H 8492   5.107   7.419  10.043 -0.5581 -0.7539 -0.2287
   63MOL0     H 8493   4.853   7.317   9.838  0.7607  0.7611 -0.3319
   63MOL0     H 8494   4.933   7.471   9.871 -0.7564  0.6951 -0.1817
   63MOL0     H 8495   4.722   7.516   9.745 -0.1365 -0.2665 -0.6481
   63MOL0     H 8496   4.707   7.579   9.899  0.1691 -0.6198  0.7067
   63MOL0     H 8497   4.511   7.458   9.850 -0.1738 -0.6112  0.3864
   63MOL0     H 8498   4.602   7.352   9.952  0.0169  1.9589 -0.3856
   63MOL0     H 8499   4.693   7.239   9.718  1.3245  0.6266  0.2413
   63MOL0     H 8500   4.526   7.227   9.760  1.2078 -0.9931  1.6406
   63MOL0     H 8501   4.536   7.482   9.413  0.5595  1.8601  0.2022
   63MOL0     H 8502   4.733   7.514  10.194  0.0075 -1.0918 -3.1597
   63MOL0     H 8503   4.831   7.832  10.326 -0.9242 -0.5503 -3.2487
   63MOL0     H 8504   4.714   7.694  10.344  0.5199 -0.1807 -2.2851
   63MOL0     H 8505   4.844   7.743  10.466 -0.9526 -3.3044  1.0350
   64MOL0     O 8506   8.530   4.295   0.008  0.6791 -0.4220 -0.2261
   64MOL0     C 8507   8.599   4.279  -0.092 -0.2744 -0.9532  0.1305
   64MOL0     O 8508   8.626   4.165  -0.155  0.0099 -0.3765  0.5551
   64MOL0     C 8509   8.610   4.047  -0.094 -0.3195 -0.1233 -0.4874
   64MOL0     C 8510   8.508   3.956  -0.152 -0.9971 -0.6619  0.2359
   64MOL0     C 8511   8.489   3.831  -0.096  0.1639 -0.6709 -0.2719
   64MOL0     C 8512   8.572   3.779   0.000  0.2897  0.1435 -0.4709
   64MOL0     O 8513   8.530   3.658   0.041 -0.5292  0.1752 -0.0558
   64MOL0     C 8514   8.628   3.592   0.119 -0.1394 -0.7127 -0.0822
   64MOL0     C 8515   8.549   3.468   0.170  0.0523  0.2841  0.6753
   64MOL0     C 8516   8.569   3.360   0.061 -0.1956  0.1753  0.5681
   64MOL0     C 8517   8.574   3.212   0.123  0.1582  0.4518  0.8218
   64MOL0     C 8518   8.698   3.190   0.204  0.7022 -0.3341 -0.7542
   64MOL0     C 8519   8.748   3.050   0.215 -0.0976  0.1988  0.1525
   64MOL0     C 8520   8.876   3.035   0.297  0.8115 -0.3994 -0.2167
   64MOL0     C 8521   8.921   2.891   0.283  1.4266  1.1127  0.0764
   64MOL0     N 8522   9.059   2.874   0.290 -0.0662 -0.4465 -0.2166
   64MOL0     C 8523   9.153   2.938   0.220  0.4657 -0.3019 -0.4938
   64MOL0     C 8524   9.275   2.886   0.259 -0.7662 -0.6880 -0.4128
   64MOL0     C 8525   9.414   2.932   0.208 -0.4546  0.5079 -0.4493
   64MOL0     C 8526   9.517   2.917   0.321 -0.2739  0.1047  0.1223
   64MOL0     C 8527   9.645   2.988   0.270 -1.3063  0.2039  1.0615
   64MOL0     C 8528   9.772   2.965   0.351 -0.5740  0.6400 -0.7535
   64MOL0     O 8529   9.783   2.830   0.350  0.0172  0.5339  0.2365
   64MOL0     C 8530   9.895   2.775   0.393 -0.7602  0.4792 -1.1958
   64MOL0     C 8531  10.019   2.841   0.432 -0.9834 -0.4028 -0.4952
   64MOL0     C 8532  10.129   2.764   0.477  0.0504 -0.0678 -0.7285
   64MOL0     C 8533  10.107   2.627   0.510  0.6486 -0.7497 -0.0886
   64MOL0     C 8534  10.213   2.553   0.577  0.2763  0.7442 -0.6808
   64MOL0     O 8535  10.320   2.625   0.615 -0.3035  0.6619 -0.7179
   64MOL0     C 8536  10.427   2.555   0.670  0.0918  0.2115 -0.2310
   64MOL0     C 8537  10.450   2.595   0.803 -1.3414  0.4492 -0.6707
   64MOL0     C 8538  10.570   2.539   0.872  1.3894 -0.8227  0.8393
   64MOL0     C 8539  10.647   2.444   0.811 -0.3055  0.0643 -0.2224
   64MOL0     O 8540  10.766   2.389   0.872 -0.0100 -0.6439  0.1613
   64MOL0     C 8541  10.887   2.416   0.797 -0.0457 -0.4167  0.1054
   64MOL0     C 8542  11.008   2.391   0.898 -0.3809 -0.6185  0.6459
   64MOL0     C 8543  11.143   2.430   0.827  0.1496  0.6153 -1.1920
   64MOL0     C 8544  11.269   2.370   0.902  0.4497 -0.7745 -0.3457
   64MOL0     C 8545  11.397   2.378   0.818  0.3164  0.8594  0.5088
   64MOL0     C 8546  11.491   2.267   0.862 -0.6815 -0.5805  1.1296
   64MOL0     C 8547  11.626   2.290   0.784 -0.4911  0.4231  0.8179
   64MOL0     C 8548  11.755   2.252   0.859  0.3164  1.0162  0.8412
   64MOL0    Cl 8549  11.894   2.277   0.749  0.0695 -0.2803  0.2946
   64MOL0     C 8550  10.610   2.404   0.677  0.3530 -0.1123  0.5505
   64MOL0     C 8551  10.502   2.461   0.603 -0.3315  0.4691 -0.0805
   64MOL0     O 8552  10.200   2.432   0.605 -0.3360 -0.6630  0.9910
   64MOL0     C 8553   9.988   2.565   0.478 -0.2327 -0.3740  0.0922
   64MOL0     C 8554   9.887   2.636   0.412  0.0115  0.3668 -0.0421
   64MOL0     N 8555   9.258   2.796   0.357  0.5031 -0.3016 -0.4601
   64MOL0     N 8556   9.129   2.788   0.374  0.4924  0.4089 -0.8038
   64MOL0     C 8557   8.681   3.862   0.045 -0.4768  0.0826 -0.3850
   64MOL0     C 8558   8.693   3.998   0.012 -0.5105  0.4152  0.3973
   64MOL0     C 8559   8.638   4.413  -0.142  0.6355  0.4825  0.5149
   64MOL0     C 8560   8.602   4.533  -0.081  0.2943 -0.3898 -0.2591
   64MOL0     C 8561   8.626   4.659  -0.128  0.0296  0.6448 -0.0811
   64MOL0     C 8562   8.706   4.665  -0.246  0.0473  0.4400 -0.0604
   64MOL0     O 8563   8.744   4.790  -0.276  0.3293  0.1848  0.3222
   64MOL0     C 8564   8.690   4.841  -0.399  0.8428  0.3860 -0.7789
   64MOL0     C 8565   8.682   4.996  -0.398 -0.0285 -0.1167 -0.3084
   64MOL0     C 8566   8.609   5.062  -0.282  0.2933 -0.2199 -0.3293
   64MOL0     C 8567   8.452   5.051  -0.278 -0.8610  0.3239 -0.2745
   64MOL0     C 8568   8.376   5.115  -0.389 -0.4016 -0.4165 -0.4172
   64MOL0     C 8569   8.302   5.163  -0.469  0.7306 -0.0638 -0.1031
   64MOL0     C 8570   8.738   4.548  -0.319  0.9403  0.9147  0.2535
   64MOL0     C 8571   8.709   4.423  -0.266 -0.2050 -0.4167  0.8120
   64MOL0     C 8572   8.786   4.316  -0.341  0.4833 -0.5322 -0.2167
   64MOL0     H 8573   8.452   3.984  -0.240  1.6049  1.7524 -0.8195
   64MOL0     H 8574   8.401   3.785  -0.139  0.1630 -1.6186  0.6787
   64MOL0     H 8575   8.717   3.569   0.060  0.5253 -0.2795  0.7140
   64MOL0     H 8576   8.658   3.660   0.200  0.2901  3.3161 -3.2698
   64MOL0     H 8577   8.442   3.484   0.182 -0.2184  0.1366 -1.1800
   64MOL0     H 8578   8.598   3.436   0.262  0.9224 -0.3860  0.0011
   64MOL0     H 8579   8.648   3.376  -0.012  0.8447 -1.9010  1.1514
   64MOL0     H 8580   8.478   3.367   0.001 -2.4092 -2.7261  3.2328
   64MOL0     H 8581   8.481   3.182   0.172  0.7869 -2.9199  0.2316
   64MOL0     H 8582   8.579   3.142   0.039  2.4808  0.0958  1.2003
   64MOL0     H 8583   8.776   3.262   0.176  0.0175  1.2202  1.1313
   64MOL0     H 8584   8.672   3.218   0.306  0.5019  1.0762 -1.1721
   64MOL0     H 8585   8.676   2.976   0.252  0.3576 -0.7602 -0.8314
   64MOL0     H 8586   8.772   3.014   0.114 -0.7888 -0.0427  0.0641
   64MOL0     H 8587   8.841   3.061   0.398 -2.7015 -2.8310 -0.5964
   64MOL0     H 8588   8.955   3.101   0.259  0.8358 -1.1484 -1.5116
   64MOL0     H 8589   8.882   2.821   0.357  0.6693  1.5573  0.1083
   64MOL0     H 8590   8.900   2.850   0.183  2.1137 -1.5347  0.9266
   64MOL0     H 8591   9.132   3.016   0.148 -2.0738  1.8186  2.3023
   64MOL0     H 8592   9.453   2.876   0.123 -0.5327  2.8713 -2.1492
   64MOL0     H 8593   9.410   3.040   0.188  0.7230  1.5919  3.9249
   64MOL0     H 8594   9.471   2.971   0.405 -1.4202  1.3408 -1.2462
   64MOL0     H 8595   9.533   2.811   0.347 -2.1311 -0.4581 -0.8347
   64MOL0     H 8596   9.630   3.095   0.253 -3.5734  0.1272  2.0921
   64MOL0     H 8597   9.672   2.954   0.170 -3.3583  1.9539 -0.1604
   64MOL0     H 8598   9.767   3.000   0.454 -2.0720  1.6893 -1.1430
   64MOL0     H 8599   9.851   3.026   0.306  0.9830  0.3625  1.4938
   64MOL0     H 8600  10.023   2.949   0.420 -1.2892 -0.1538  1.3640
   64MOL0     H 8601  10.221   2.817   0.499  0.2233 -0.5158 -0.3388
   64MOL0     H 8602  10.386   2.662   0.860 -0.7865  0.1579  0.3078
   64MOL0     H 8603  10.594   2.589   0.966  0.0839  0.0975  0.7018
   64MOL0     H 8604  10.898   2.368   0.699 -1.2122 -2.2271  0.8151
   64MOL0     H 8605  10.873   2.524   0.789 -1.1818 -0.3026  2.7346
   64MOL0     H 8606  11.000   2.459   0.983  0.6815  0.9710 -0.4691
   64MOL0     H 8607  11.005   2.286   0.930  2.6747 -1.3149 -0.9053
   64MOL0     H 8608  11.145   2.391   0.725 -3.5622 -0.1829 -1.1028
   64MOL0     H 8609  11.145   2.539   0.826  2.6561  0.6960  1.4335
   64MOL0     H 8610  11.245   2.267   0.932  2.8842 -1.6899 -1.2984
   64MOL0     H 8611  11.286   2.430   0.992 -1.6018 -1.4019  0.5336
   64MOL0     H 8612  11.435   2.477   0.843 -0.1020  1.0386  0.4380
   64MOL0     H 8613  11.361   2.370   0.715 -1.9076 -1.8931  1.3617
   64MOL0     H 8614  11.512   2.271   0.970  2.4728 -2.0744  0.6680
   64MOL0     H 8615  11.443   2.171   0.845  1.3707 -1.2224 -1.6577
   64MOL0     H 8616  11.632   2.391   0.741 -0.0302 -0.1980 -0.6375
   64MOL0     H 8617  11.615   2.220   0.701  0.5098 -1.5230  2.2508
   64MOL0     H 8618  11.784   2.312   0.946 -0.8814 -0.0290  2.0165
   64MOL0     H 8619  11.747   2.149   0.898 -1.4544  0.4896 -0.7697
   64MOL0     H 8620  10.664   2.332   0.615 -1.1249  0.4134 -1.4514
   64MOL0     H 8621  10.485   2.442   0.498 -0.2246  4.2697 -0.9318
   64MOL0     H 8622   9.966   2.459   0.488 -1.4462 -0.3230 -1.5206
   64MOL0     H 8623   9.790   2.596   0.384 -0.4844  0.6682  1.1955
   64MOL0     H 8624   8.738   3.839   0.135 -3.3744  3.8561  2.7945
   64MOL0     H 8625   8.767   4.069   0.047  2.4505 -2.6689  0.9276
   64MOL0     H 8626   8.549   4.528   0.013  0.2342  0.5115 -0.2315
   64MOL0     H 8627   8.599   4.755  -0.084 -2.5780 -1.6731  4.0179
   64MOL0     H 8628   8.588   4.805  -0.413  0.5797  0.2969  1.0926
   64MOL0     H 8629   8.748   4.804  -0.483  0.2145 -0.9082 -0.6576
   64MOL0     H 8630   8.641   5.027  -0.495  2.4485  0.9070 -1.0958
   64MOL0     H 8631   8.785   5.033  -0.404  1.0247 -2.9588 -1.6189
   64MOL0     H 8632   8.638   5.167  -0.266 -1.0416 -0.1929  2.7040
   64MOL0     H 8633   8.653   5.011  -0.195 -0.5020  1.6656  1.2610
   64MOL0     H 8634   8.417   4.947  -0.275 -0.7677  0.2912 -0.3021
   64MOL0     H 8635   8.419   5.100  -0.186  1.4860  0.1820  0.7164
   64MOL0     H 8636   8.228   5.197  -0.539 -1.6118 -1.7019  1.4416
   64MOL0     H 8637   8.785   4.574  -0.413 -0.0102  1.0225 -0.2033
   64MOL0     H 8638   8.865   4.274  -0.278 -0.8239  0.8302  2.4928
   64MOL0     H 8639   8.716   4.235  -0.365 -1.8781  1.0370  0.9769
   64MOL0     H 8640   8.830   4.350  -0.435 -2.4422  0.3786 -1.3632
   65MOL0     O 8641  10.474   5.019   6.512 -0.1326  0.0736  0.0109
   65MOL0     C 8642  10.386   5.093   6.469 -0.0623  0.1941  0.0236
   65MOL0     O 8643  10.411   5.225   6.422 -0.1442  0.9040  0.8914
   65MOL0     C 8644  10.534   5.282   6.444  0.2683  1.1961 -0.1146
   65MOL0     C 8645  10.564   5.329   6.569 -0.4007 -0.9713  0.4906
   65MOL0     C 8646  10.695   5.376   6.603 -0.0521 -0.1625  1.1153
   65MOL0     C 8647  10.800   5.353   6.511 -0.1920  0.5425  0.6320
   65MOL0     O 8648  10.931   5.389   6.534  0.8691  0.2898  0.3520
   65MOL0     C 8649  10.975   5.329   6.657  0.4806  0.2419  0.4501
   65MOL0     C 8650  11.126   5.279   6.629  0.9974  0.0811 -0.2415
   65MOL0     C 8651  11.188   5.210   6.746  0.0742  0.0959 -0.8086
   65MOL0     C 8652  11.334   5.174   6.714  0.4455 -0.9217  0.1274
   65MOL0     C 8653  11.412   5.113   6.835 -0.0459  0.7842  0.6105
   65MOL0     C 8654  11.357   4.985   6.884  0.2570  0.1486 -0.9489
   65MOL0     C 8655  11.448   4.949   7.003  0.2294 -0.2305 -0.3881
   65MOL0     C 8656  11.377   4.855   7.097 -0.0339  0.2963  0.4403
   65MOL0     N 8657  11.470   4.831   7.209  0.0372 -0.1210  0.4110
   65MOL0     C 8658  11.471   4.898   7.331  0.3236 -0.1566  0.5110
   65MOL0     C 8659  11.589   4.865   7.391  0.2253  0.4183  0.6046
   65MOL0     C 8660  11.652   4.909   7.521  0.4266  0.0810  0.2230
   65MOL0     C 8661  11.704   5.054   7.511 -0.0445 -0.4751  0.3257
   65MOL0     C 8662  11.823   5.065   7.409  0.3188 -0.1283 -0.6608
   65MOL0     C 8663  11.897   5.197   7.400 -0.2507  0.1043  0.9975
   65MOL0     O 8664  12.025   5.182   7.355  0.0215 -0.0630  0.8047
   65MOL0     C 8665  12.090   5.288   7.300 -0.2475  0.1448 -0.4355
   65MOL0     C 8666  12.198   5.257   7.220  0.1611 -0.9185  0.4673
   65MOL0     C 8667  12.281   5.360   7.176  0.0621  0.5707  0.0571
   65MOL0     C 8668  12.271   5.486   7.222  0.8619 -0.0867  0.1434
   65MOL0     C 8669  12.361   5.588   7.181 -0.1622  0.4796 -0.3317
   65MOL0     O 8670  12.338   5.712   7.237  0.2810 -0.0655 -0.3372
   65MOL0     C 8671  12.423   5.817   7.201  0.0384  1.5086  1.6331
   65MOL0     C 8672  12.388   5.884   7.085 -0.1564 -0.1015 -0.6121
   65MOL0     C 8673  12.476   5.975   7.029 -0.1736  0.7624  0.1522
   65MOL0     C 8674  12.605   6.000   7.097 -0.3096  0.1116  0.8935
   65MOL0     O 8675  12.701   6.092   7.056 -0.2670  0.3242  0.0922
   65MOL0     C 8676  12.669   6.183   6.951  0.6526  0.1649  0.2646
   65MOL0     C 8677  12.742   6.130   6.825 -0.7531 -0.2571 -0.5237
   65MOL0     C 8678  12.893   6.115   6.852  0.3052  0.5094 -0.6356
   65MOL0     C 8679  12.953   6.250   6.844  0.8013 -0.1929  0.1851
   65MOL0     C 8680  13.099   6.258   6.885 -0.8798  0.0596 -0.3292
   65MOL0     C 8681  13.203   6.195   6.804  0.0392  1.1260 -0.1449
   65MOL0     C 8682  13.197   6.252   6.654 -0.2830 -0.1027 -0.1486
   65MOL0     C 8683  13.333   6.246   6.580  0.0510  0.4705 -0.0421
   65MOL0    Cl 8684  13.444   6.355   6.671  0.0204  0.2733 -0.5134
   65MOL0     C 8685  12.632   5.939   7.217  0.3333 -0.6715  0.3310
   65MOL0     C 8686  12.548   5.841   7.264 -0.7948  0.0893  0.7679
   65MOL0     O 8687  12.453   5.560   7.103 -0.3517  0.4506  0.8631
   65MOL0     C 8688  12.155   5.521   7.289 -0.3942 -0.9799 -0.3915
   65MOL0     C 8689  12.061   5.422   7.335 -0.0221 -0.3470 -0.1084
   65MOL0     N 8690  11.650   4.773   7.307 -0.8892  0.6115 -0.0350
   65MOL0     N 8691  11.590   4.758   7.194 -0.1217 -0.9518  0.2049
   65MOL0     C 8692  10.772   5.295   6.389 -0.0861  0.0538  0.3267
   65MOL0     C 8693  10.645   5.255   6.355  0.0766 -1.0922  0.9054
   65MOL0     C 8694  10.259   5.028   6.449  0.5021 -0.1534 -0.2300
   65MOL0     C 8695  10.238   4.905   6.511  1.3935  1.0602  0.4014
   65MOL0     C 8696  10.114   4.836   6.495 -0.2972  0.1269  0.4745
   65MOL0     C 8697  10.017   4.885   6.399 -0.7085  0.8770 -0.6788
   65MOL0     O 8698   9.922   4.811   6.334 -0.4635 -0.5474  0.1819
   65MOL0     C 8699   9.899   4.667   6.362  0.3188  0.0080 -0.1497
   65MOL0     C 8700   9.756   4.621   6.330  0.2917  0.4244 -0.5419
   65MOL0     C 8701   9.641   4.662   6.432  0.1089 -0.5752  0.1994
   65MOL0     C 8702   9.516   4.602   6.374 -0.3560  0.3149 -0.5438
   65MOL0     C 8703   9.424   4.662   6.470 -0.2168 -0.2369 -0.4623
   65MOL0     C 8704   9.344   4.705   6.553 -0.7324  0.5317 -0.6066
   65MOL0     C 8705  10.038   4.999   6.340 -0.1946 -0.5971 -0.1789
   65MOL0     C 8706  10.151   5.080   6.370 -0.4375  0.3390 -0.3514
   65MOL0     C 8707  10.145   5.222   6.308 -0.0519 -0.1993 -0.3607
   65MOL0     H 8708  10.481   5.342   6.638 -0.9527  1.9210 -0.6053
   65MOL0     H 8709  10.720   5.414   6.701 -1.6702  2.8049  0.5098
   65MOL0     H 8710  10.968   5.392   6.746  0.3055 -2.2042  2.3009
   65MOL0     H 8711  10.917   5.240   6.682  0.7452  0.3610  1.5921
   65MOL0     H 8712  11.179   5.374   6.619  1.0443  0.0427 -0.3477
   65MOL0     H 8713  11.135   5.209   6.546 -0.9977 -4.0944  2.7377
   65MOL0     H 8714  11.135   5.117   6.770  1.6315 -0.7949 -0.6916
   65MOL0     H 8715  11.188   5.276   6.834  0.6909  0.0046 -0.7337
   65MOL0     H 8716  11.334   5.106   6.629 -0.9198  0.6634 -1.2097
   65MOL0     H 8717  11.381   5.269   6.687 -1.2586  0.2068  0.9248
   65MOL0     H 8718  11.517   5.099   6.809  0.1667  4.3298 -0.9203
   65MOL0     H 8719  11.410   5.191   6.911 -1.6908  1.8041 -0.4070
   65MOL0     H 8720  11.256   5.001   6.921  1.2074  0.3404  1.8067
   65MOL0     H 8721  11.363   4.908   6.806 -0.1487 -0.4550 -0.3901
   65MOL0     H 8722  11.458   5.042   7.060 -2.9388 -0.7453  1.2358
   65MOL0     H 8723  11.551   4.925   6.975 -0.1073 -0.0752 -1.8262
   65MOL0     H 8724  11.280   4.895   7.128 -0.7981 -1.2298  0.1351
   65MOL0     H 8725  11.350   4.761   7.047  0.3224  1.1927 -1.5068
   65MOL0     H 8726  11.406   4.976   7.369  0.2661  0.5385 -0.9401
   65MOL0     H 8727  11.586   4.902   7.608  0.9113 -1.2636  0.5110
   65MOL0     H 8728  11.743   4.852   7.542 -0.2509 -0.2302  2.5971
   65MOL0     H 8729  11.620   5.116   7.480 -0.2039 -2.3277 -3.5167
   65MOL0     H 8730  11.738   5.091   7.608  3.3616 -0.7938 -0.6205
   65MOL0     H 8731  11.791   5.031   7.310 -2.2047 -0.8455  0.3358
   65MOL0     H 8732  11.901   4.993   7.436  1.3229  0.9604 -0.5970
   65MOL0     H 8733  11.891   5.232   7.503  1.4479  1.5010  0.6553
   65MOL0     H 8734  11.842   5.264   7.333  0.5407 -0.1678  0.0600
   65MOL0     H 8735  12.216   5.154   7.192  2.2649 -0.6945  0.8196
   65MOL0     H 8736  12.355   5.331   7.103 -1.4228  0.1098 -1.3158
   65MOL0     H 8737  12.292   5.859   7.041 -1.0388  0.7885  0.7327
   65MOL0     H 8738  12.448   6.012   6.930  0.3732  0.2523 -0.2013
   65MOL0     H 8739  12.562   6.200   6.936  0.1239 -1.7633  1.5857
   65MOL0     H 8740  12.700   6.286   6.974  0.2589  1.2053 -3.2094
   65MOL0     H 8741  12.694   6.037   6.794 -1.7364  0.2530 -0.5958
   65MOL0     H 8742  12.719   6.196   6.740  0.4294  0.1110 -0.5727
   65MOL0     H 8743  12.916   6.059   6.943  0.1942  4.8201  2.3565
   65MOL0     H 8744  12.932   6.057   6.768  0.9058  0.9745 -0.6823
   65MOL0     H 8745  12.907   6.320   6.914  2.3106  1.6368 -0.5469
   65MOL0     H 8746  12.939   6.299   6.747  2.1770  1.2252  0.6538
   65MOL0     H 8747  13.111   6.207   6.981  2.7101 -1.4585 -1.4250
   65MOL0     H 8748  13.122   6.365   6.881 -0.8102  0.1231  1.1874
   65MOL0     H 8749  13.301   6.211   6.850 -0.2585  2.8523 -0.0640
   65MOL0     H 8750  13.172   6.090   6.801  0.2481  1.0357  0.5162
   65MOL0     H 8751  13.174   6.359   6.652 -1.0257 -0.2361  0.5890
   65MOL0     H 8752  13.117   6.202   6.599  0.7963 -1.9409 -0.1405
   65MOL0     H 8753  13.374   6.146   6.560  0.7176  1.0285 -1.6051
   65MOL0     H 8754  13.323   6.300   6.486  1.5026  1.5606  0.3888
   65MOL0     H 8755  12.734   5.946   7.253  1.3638 -0.2261 -2.4205
   65MOL0     H 8756  12.583   5.781   7.348  0.7424 -0.4451 -0.2103
   65MOL0     H 8757  12.133   5.624   7.315 -0.6021 -1.5121  1.6889
   65MOL0     H 8758  11.975   5.443   7.398 -0.2868 -1.4822 -0.0839
   65MOL0     H 8759  10.855   5.287   6.320 -0.8044  1.3290 -0.7304
   65MOL0     H 8760  10.619   5.194   6.268 -3.6067  0.1012  0.9789
   65MOL0     H 8761  10.312   4.869   6.583  3.7753 -0.1008 -2.4335
   65MOL0     H 8762  10.097   4.742   6.546  0.8985 -0.7371 -0.6416
   65MOL0     H 8763   9.915   4.642   6.468  3.8043  0.2959 -0.4969
   65MOL0     H 8764   9.968   4.603   6.307  1.3978 -0.6827  1.8775
   65MOL0     H 8765   9.760   4.511   6.334  0.6591  0.4621  0.6077
   65MOL0     H 8766   9.722   4.643   6.229 -2.2150 -2.0872 -0.3713
   65MOL0     H 8767   9.632   4.771   6.426  1.7839 -0.4690 -1.2012
   65MOL0     H 8768   9.656   4.615   6.529 -1.1391 -0.4507  0.4699
   65MOL0     H 8769   9.489   4.638   6.274 -0.7032  3.2356  0.5018
   65MOL0     H 8770   9.500   4.494   6.364 -2.7790  0.7741 -3.1597
   65MOL0     H 8771   9.278   4.737   6.631  0.9083  0.2301  0.9544
   65MOL0     H 8772   9.962   5.038   6.273  1.6419  2.0016 -0.9085
   65MOL0     H 8773  10.140   5.311   6.371 -1.9797 -0.3688 -0.2124
   65MOL0     H 8774  10.234   5.229   6.245 -0.1101  0.4601 -0.3816
   65MOL0     H 8775  10.056   5.225   6.244  0.4129  0.2360 -0.9952
   66MOL0     O 8776   3.173   1.873   0.593  0.0731 -0.1929 -0.0112
   66MOL0     C 8777   3.102   1.946   0.527  0.3388  1.2158 -0.4505
   66MOL0     O 8778   3.114   1.959   0.391 -0.5596 -0.3637 -0.2730
   66MOL0     C 8779   3.226   1.926   0.314 -0.1523 -0.0019 -0.5050
   66MOL0     C 8780   3.362   1.932   0.350  0.6209 -0.4546  0.1607
   66MOL0     C 8781   3.461   1.915   0.258 -0.3423  1.1697 -0.5636
   66MOL0     C 8782   3.423   1.885   0.126 -0.1031 -0.7639 -0.7172
   66MOL0     O 8783   3.518   1.869   0.031 -0.6491  0.1031  0.4213
   66MOL0     C 8784   3.512   1.940  -0.095 -0.5989  0.6164  0.2219
   66MOL0     C 8785   3.608   1.890  -0.205  0.2834 -1.3181  0.7274
   66MOL0     C 8786   3.574   1.746  -0.241  0.0141  0.5289  0.4545
   66MOL0     C 8787   3.676   1.697  -0.343  0.8000  0.3883 -0.0990
   66MOL0     C 8788   3.626   1.567  -0.409  0.0039  0.0932  0.3781
   66MOL0     C 8789   3.575   1.454  -0.318 -0.9513 -0.1033  0.5223
   66MOL0     C 8790   3.535   1.329  -0.403 -0.9836 -0.0358  0.0016
   66MOL0     C 8791   3.472   1.218  -0.332 -0.4080  0.4671  0.1197
   66MOL0     N 8792   3.574   1.135  -0.258 -0.5219 -0.0341 -0.5934
   66MOL0     C 8793   3.677   1.063  -0.311  0.2425  0.0110 -0.2775
   66MOL0     C 8794   3.744   1.020  -0.199  1.2680 -0.0885  0.6254
   66MOL0     C 8795   3.843   0.907  -0.190  0.0580 -0.6119  0.4094
   66MOL0     C 8796   3.795   0.790  -0.101 -0.5512  0.4091 -0.4543
   66MOL0     C 8797   3.686   0.704  -0.166 -0.4496 -0.2986 -0.1733
   66MOL0     C 8798   3.550   0.772  -0.170  0.3705 -1.2556  0.2463
   66MOL0     O 8799   3.508   0.801  -0.313  0.3995 -0.3328  0.2545
   66MOL0     C 8800   3.384   0.853  -0.332  1.0017  0.2854 -0.3579
   66MOL0     C 8801   3.343   0.860  -0.461 -0.0370  0.1587  0.0466
   66MOL0     C 8802   3.231   0.934  -0.497 -0.3478 -0.2184 -0.0535
   66MOL0     C 8803   3.148   0.997  -0.392 -0.7692 -0.4955 -0.1843
   66MOL0     C 8804   3.016   1.061  -0.430  0.1081  0.6518 -0.6532
   66MOL0     O 8805   2.983   1.057  -0.557  0.0945  0.4787  0.3024
   66MOL0     C 8806   2.854   1.019  -0.583  0.9120  0.0675  1.5119
   66MOL0     C 8807   2.828   0.915  -0.676 -0.2856 -1.0938 -0.6109
   66MOL0     C 8808   2.693   0.891  -0.717 -0.6488 -0.6448  0.7994
   66MOL0     C 8809   2.586   0.962  -0.657 -1.1465  0.9398 -0.0497
   66MOL0     O 8810   2.450   0.950  -0.668  0.0604 -0.5526  0.0153
   66MOL0     C 8811   2.391   0.860  -0.767 -0.3722  0.0944 -0.0461
   66MOL0     C 8812   2.342   0.735  -0.700 -0.3546  0.9113 -1.1277
   66MOL0     C 8813   2.241   0.760  -0.586 -0.3962  0.5441 -0.9615
   66MOL0     C 8814   2.108   0.698  -0.623 -0.3686 -0.2332  0.1729
   66MOL0     C 8815   2.010   0.692  -0.504  0.8844  0.2353  0.2006
   66MOL0     C 8816   1.881   0.598  -0.535 -0.2498 -0.1910 -0.0514
   66MOL0     C 8817   1.824   0.536  -0.419  0.7048  0.6418 -0.0309
   66MOL0     C 8818   1.763   0.637  -0.324  0.5983 -0.0310  0.4493
   66MOL0    Cl 8819   1.664   0.763  -0.404 -0.2044 -0.0627 -0.1611
   66MOL0     C 8820   2.614   1.074  -0.585  0.6243  0.1460  0.0541
   66MOL0     C 8821   2.744   1.102  -0.548  0.5534 -0.4783  0.7568
   66MOL0     O 8822   2.943   1.092  -0.337 -0.0015  1.0085  0.7360
   66MOL0     C 8823   3.206   1.007  -0.267 -0.1690 -0.1815 -0.4690
   66MOL0     C 8824   3.320   0.935  -0.231  0.7482  0.3901  0.0259
   66MOL0     N 8825   3.698   1.087  -0.080  0.2207  0.4824  0.2170
   66MOL0     N 8826   3.600   1.149  -0.121  0.6215 -0.4963  0.3474
   66MOL0     C 8827   3.285   1.881   0.093  0.1371  0.8830 -0.2718
   66MOL0     C 8828   3.186   1.894   0.187 -0.7113  0.2598 -0.1874
   66MOL0     C 8829   3.002   2.020   0.594  0.5052  0.5062  1.3122
   66MOL0     C 8830   2.885   1.956   0.644  0.2265 -0.6900 -0.9124
   66MOL0     C 8831   2.769   2.019   0.676 -0.3633  0.8673 -1.0670
   66MOL0     C 8832   2.756   2.160   0.671 -0.1801  0.3040  0.8478
   66MOL0     O 8833   2.635   2.216   0.703 -0.4890 -0.5832 -0.2178
   66MOL0     C 8834   2.617   2.353   0.662  0.4440  0.0763  0.2803
   66MOL0     C 8835   2.474   2.403   0.641  0.1406 -0.0887  0.5953
   66MOL0     C 8836   2.391   2.430   0.759 -0.1388 -0.3938 -0.1350
   66MOL0     C 8837   2.245   2.463   0.730  0.4394 -1.2480  0.0416
   66MOL0     C 8838   2.217   2.603   0.684  0.1457  0.4611 -0.0669
   66MOL0     C 8839   2.181   2.710   0.640 -0.0498 -0.8617 -0.3216
   66MOL0     C 8840   2.869   2.222   0.621 -0.2562 -0.2695  0.5111
   66MOL0     C 8841   2.990   2.156   0.586  0.4727  0.2234  0.2409
   66MOL0     C 8842   3.098   2.249   0.531  0.5407  0.1298 -0.1049
   66MOL0     H 8843   3.394   1.943   0.453  1.0082 -0.4498  0.0423
   66MOL0     H 8844   3.566   1.917   0.287  0.4582 -3.2244 -2.3601
   66MOL0     H 8845   3.409   1.942  -0.133 -0.6331 -0.2251  0.2416
   66MOL0     H 8846   3.546   2.043  -0.082  2.6654 -0.0824 -1.7188
   66MOL0     H 8847   3.710   1.896  -0.165 -0.2746 -2.1338  2.3714
   66MOL0     H 8848   3.584   1.944  -0.297 -3.6078 -1.9589  1.1703
   66MOL0     H 8849   3.476   1.738  -0.290  1.1041  0.9316 -1.9819
   66MOL0     H 8850   3.577   1.686  -0.150  0.8740 -2.0598 -1.1729
   66MOL0     H 8851   3.709   1.771  -0.416 -0.0549  1.1506  0.2604
   66MOL0     H 8852   3.764   1.664  -0.286 -1.3015  0.1592  3.2863
   66MOL0     H 8853   3.549   1.597  -0.479  1.1437  1.3264 -0.3975
   66MOL0     H 8854   3.711   1.531  -0.469 -0.5209 -1.4133  0.4945
   66MOL0     H 8855   3.658   1.439  -0.249 -0.9464 -3.2563 -0.0326
   66MOL0     H 8856   3.482   1.486  -0.269 -0.4814 -1.1169  2.1285
   66MOL0     H 8857   3.618   1.284  -0.459 -0.7377  0.8064 -0.3157
   66MOL0     H 8858   3.467   1.373  -0.476  1.2008  2.3823 -0.7327
   66MOL0     H 8859   3.404   1.250  -0.254 -0.1251  1.3572  0.0126
   66MOL0     H 8860   3.416   1.160  -0.406 -0.5967  1.6385 -0.6947
   66MOL0     H 8861   3.702   1.025  -0.410 -2.0260  0.2322 -0.9962
   66MOL0     H 8862   3.878   0.873  -0.289 -1.3865 -0.4477 -0.1832
   66MOL0     H 8863   3.930   0.949  -0.139 -0.6660  1.2288  0.1949
   66MOL0     H 8864   3.873   0.714  -0.095 -0.7650 -0.1263 -3.3228
   66MOL0     H 8865   3.776   0.826   0.001 -0.5593  0.1452 -0.3628
   66MOL0     H 8866   3.677   0.613  -0.105  2.0077 -3.7892 -4.4120
   66MOL0     H 8867   3.712   0.670  -0.267 -2.4844  1.0945 -1.2439
   66MOL0     H 8868   3.553   0.860  -0.106 -0.1707 -0.3569 -0.9332
   66MOL0     H 8869   3.469   0.707  -0.135 -1.4407 -1.5215 -3.7572
   66MOL0     H 8870   3.409   0.804  -0.527  1.7630 -1.2299  2.8119
   66MOL0     H 8871   3.195   0.911  -0.597  4.5591 -2.4682 -1.6619
   66MOL0     H 8872   2.901   0.841  -0.707  0.7644 -0.4757  0.3340
   66MOL0     H 8873   2.685   0.812  -0.791  4.3329 -0.2495 -0.4894
   66MOL0     H 8874   2.302   0.900  -0.818 -0.8955 -0.4733  0.4077
   66MOL0     H 8875   2.460   0.852  -0.852  0.2639  2.8159  0.1444
   66MOL0     H 8876   2.295   0.676  -0.779 -0.5435  0.1111 -0.4282
   66MOL0     H 8877   2.435   0.683  -0.671  0.8833  3.0922 -0.9497
   66MOL0     H 8878   2.279   0.722  -0.491  0.4140 -0.0263 -1.4942
   66MOL0     H 8879   2.232   0.866  -0.563 -3.2388  0.2400 -0.3496
   66MOL0     H 8880   2.111   0.598  -0.667  2.6747 -0.1247 -0.0807
   66MOL0     H 8881   2.062   0.765  -0.697  0.3737 -1.9815 -1.9917
   66MOL0     H 8882   1.984   0.794  -0.475  0.4625 -0.2264  1.5221
   66MOL0     H 8883   2.067   0.656  -0.417 -2.0413  0.2907  2.3197
   66MOL0     H 8884   1.806   0.659  -0.585  1.7062  1.3690 -1.1869
   66MOL0     H 8885   1.915   0.511  -0.592  2.0269  0.6442 -0.0657
   66MOL0     H 8886   1.902   0.472  -0.378  1.5040  2.3787  1.3148
   66MOL0     H 8887   1.750   0.468  -0.462  1.0203  2.1206 -3.2165
   66MOL0     H 8888   1.696   0.588  -0.253  1.7291  1.0654  2.3555
   66MOL0     H 8889   1.836   0.689  -0.262  4.2855 -1.0665 -2.6638
   66MOL0     H 8890   2.534   1.137  -0.548 -0.8120 -0.8973 -1.1646
   66MOL0     H 8891   2.762   1.193  -0.492  0.4266 -0.3058  0.5174
   66MOL0     H 8892   3.154   1.066  -0.192  0.4099  2.2187 -1.8532
   66MOL0     H 8893   3.351   0.934  -0.127  1.0125 -0.9046 -0.0425
   66MOL0     H 8894   3.256   1.849  -0.007 -1.8218  2.9209 -0.4482
   66MOL0     H 8895   3.080   1.875   0.169 -0.7399 -1.1833  1.2990
   66MOL0     H 8896   2.901   1.849   0.652  2.1574 -0.6127 -2.9291
   66MOL0     H 8897   2.684   1.963   0.714  1.6000 -0.0868  2.3196
   66MOL0     H 8898   2.669   2.372   0.568 -0.0729  2.2687  0.3781
   66MOL0     H 8899   2.657   2.425   0.734 -0.7806 -0.1684  1.2359
   66MOL0     H 8900   2.421   2.330   0.579 -0.9281  1.3674 -0.2853
   66MOL0     H 8901   2.482   2.491   0.577  1.4248 -3.1472 -3.9285
   66MOL0     H 8902   2.446   2.519   0.793  0.1134  2.0661 -5.8296
   66MOL0     H 8903   2.399   2.346   0.828 -4.3537 -0.9264 -0.0708
   66MOL0     H 8904   2.214   2.404   0.644  1.0364 -1.9824  0.3115
   66MOL0     H 8905   2.172   2.435   0.807 -1.0410  3.6656  0.7817
   66MOL0     H 8906   2.158   2.802   0.591 -0.2466 -0.1665  1.0123
   66MOL0     H 8907   2.877   2.330   0.627 -1.9299 -0.1057  0.1988
   66MOL0     H 8908   3.108   2.226   0.424 -2.3037 -0.5349 -0.3081
   66MOL0     H 8909   3.074   2.354   0.551  0.4531 -0.0260  0.6235
   66MOL0     H 8910   3.192   2.234   0.584  0.1095  3.2049  1.7237
   67MOL0     O 8911   7.475  10.422   2.241  0.7056 -0.6981 -0.0940
   67MOL0     C 8912   7.464  10.430   2.117  0.1075  0.4273 -0.1914
   67MOL0     O 8913   7.547  10.490   2.034  0.0254 -0.0143 -0.6311
   67MOL0     C 8914   7.649  10.564   2.088 -0.2553 -0.1097 -0.4079
   67MOL0     C 8915   7.763  10.497   2.106 -0.3291  0.1362  0.4838
   67MOL0     C 8916   7.877  10.551   2.162  0.5931  0.0899  0.4395
   67MOL0     C 8917   7.868  10.679   2.212  0.4578  0.0596 -0.0911
   67MOL0     O 8918   7.962  10.743   2.286  0.4440  0.4537 -0.5338
   67MOL0     C 8919   8.094  10.758   2.241 -0.7485 -0.2622  0.4818
   67MOL0     C 8920   8.123  10.901   2.191  0.4071 -0.0688 -0.4052
   67MOL0     C 8921   8.113  11.003   2.305  0.4984 -0.3268  0.3180
   67MOL0     C 8922   8.128  11.143   2.248 -0.5223  0.0235  0.1904
   67MOL0     C 8923   8.185  11.232   2.359  0.0028  0.8164  0.4756
   67MOL0     C 8924   8.204  11.381   2.331  0.1867 -0.8158  0.5336
   67MOL0     C 8925   8.063  11.454   2.337 -0.2570  0.2193  1.1936
   67MOL0     C 8926   8.065  11.597   2.382 -0.2945 -0.0255  0.4641
   67MOL0     N 8927   8.143  11.680   2.288  0.2778  0.5255  0.3225
   67MOL0     C 8928   8.101  11.772   2.189  0.2276 -0.0288 -0.0446
   67MOL0     C 8929   8.207  11.852   2.162 -0.9045 -1.0818  0.5877
   67MOL0     C 8930   8.215  11.985   2.093 -0.1275 -0.2893  1.1648
   67MOL0     C 8931   8.230  11.971   1.940  0.1316 -0.9199  0.4810
   67MOL0     C 8932   8.265  12.106   1.866  0.0690  0.2561  0.0888
   67MOL0     C 8933   8.141  12.196   1.851 -1.6018 -0.2459 -0.1222
   67MOL0     O 8934   8.075  12.236   1.969  0.1685 -0.0580 -0.0692
   67MOL0     C 8935   7.951  12.308   1.963 -0.9003  0.0160 -0.4304
   67MOL0     C 8936   7.895  12.350   1.838 -0.3652  0.7123  0.8217
   67MOL0     C 8937   7.760  12.412   1.841  0.3928  0.3766 -0.5221
   67MOL0     C 8938   7.692  12.431   1.971 -0.8908 -1.1159  0.1269
   67MOL0     C 8939   7.557  12.502   1.985 -0.3845 -0.9960  0.3925
   67MOL0     O 8940   7.512  12.562   1.870  0.5083 -0.2212 -0.5194
   67MOL0     C 8941   7.387  12.616   1.853  0.4192 -0.0386  0.4626
   67MOL0     C 8942   7.280  12.597   1.932  1.4208  0.3407 -0.1560
   67MOL0     C 8943   7.161  12.656   1.894 -0.0446 -0.8378 -0.4642
   67MOL0     C 8944   7.141  12.735   1.778 -0.6138 -0.2714  0.2162
   67MOL0     O 8945   7.025  12.790   1.760  0.4119  0.5654  0.8400
   67MOL0     C 8946   6.993  12.841   1.629  0.8174 -0.4830  0.1538
   67MOL0     C 8947   6.840  12.864   1.611 -0.7505  0.2157 -0.8996
   67MOL0     C 8948   6.764  12.745   1.666  0.8014  0.1313 -1.1679
   67MOL0     C 8949   6.623  12.740   1.603  0.4563 -0.0456  1.1303
   67MOL0     C 8950   6.529  12.629   1.632  0.7864 -0.3073 -0.4188
   67MOL0     C 8951   6.474  12.637   1.779  0.3759  0.2198  0.6396
   67MOL0     C 8952   6.374  12.522   1.798 -0.0206 -0.0258 -0.3428
   67MOL0     C 8953   6.294  12.504   1.934  0.1448 -0.9196 -0.1799
   67MOL0    Cl 8954   6.209  12.661   1.980 -0.0371  0.0957 -0.0991
   67MOL0     C 8955   7.253  12.760   1.703  0.7168 -0.2976  0.2474
   67MOL0     C 8956   7.376  12.705   1.735  0.3945 -0.3575 -0.3192
   67MOL0     O 8957   7.511  12.521   2.099 -0.2554 -0.1940 -0.5946
   67MOL0     C 8958   7.755  12.386   2.091 -0.3652  0.3091 -0.7083
   67MOL0     C 8959   7.885  12.331   2.083 -0.0736 -0.5752 -1.3391
   67MOL0     N 8960   8.311  11.801   2.246 -0.1649  0.6374 -0.0187
   67MOL0     N 8961   8.268  11.714   2.326  0.5526 -0.8861  0.2248
   67MOL0     C 8962   7.759  10.757   2.179  0.5937  0.1221 -0.2705
   67MOL0     C 8963   7.646  10.698   2.116 -0.0348 -0.3980 -0.2803
   67MOL0     C 8964   7.364  10.341   2.060  0.3091 -0.5269  0.0008
   67MOL0     C 8965   7.391  10.291   1.933 -0.2438  0.7320  0.5643
   67MOL0     C 8966   7.294  10.225   1.854  0.5807 -0.5331 -0.2085
   67MOL0     C 8967   7.164  10.215   1.907  0.3211 -0.6455 -0.2652
   67MOL0     O 8968   7.076  10.150   1.835  0.8772 -0.5974  0.5732
   67MOL0     C 8969   7.021  10.233   1.729 -0.6999 -0.5214  0.3926
   67MOL0     C 8970   6.885  10.178   1.685  0.7583 -0.0483  0.4622
   67MOL0     C 8971   6.825  10.259   1.567 -0.0479  0.3382  0.0742
   67MOL0     C 8972   6.889  10.230   1.434  0.1099 -1.0480 -0.6352
   67MOL0     C 8973   6.877  10.086   1.398  0.7827 -0.3443  0.5958
   67MOL0     C 8974   6.869   9.968   1.366 -0.2582 -0.4786 -0.0956
   67MOL0     C 8975   7.139  10.248   2.041 -0.2845 -0.2750 -0.7260
   67MOL0     C 8976   7.230  10.324   2.115  0.1805  0.6723 -0.2556
   67MOL0     C 8977   7.197  10.380   2.250 -0.3938 -0.3455  0.3523
   67MOL0     H 8978   7.767  10.395   2.070  0.5245  0.1421  0.5366
   67MOL0     H 8979   7.964  10.490   2.179  1.2045  0.2970 -1.6659
   67MOL0     H 8980   8.158  10.750   2.329  0.9309  1.0192 -0.5441
   67MOL0     H 8981   8.121  10.687   2.162 -1.2471  1.4029 -1.2898
   67MOL0     H 8982   8.055  10.916   2.106 -2.5904 -0.0810  1.8549
   67MOL0     H 8983   8.227  10.892   2.158  0.7959 -0.2026  0.8301
   67MOL0     H 8984   8.189  10.976   2.380  1.3567 -1.1097 -0.7909
   67MOL0     H 8985   8.015  10.996   2.354 -0.7127 -0.0313 -1.9548
   67MOL0     H 8986   8.202  11.120   2.170  0.2309 -3.8512  1.7852
   67MOL0     H 8987   8.041  11.187   2.197  0.6233  0.7338 -1.2561
   67MOL0     H 8988   8.123  11.208   2.446 -0.0144 -2.7219 -0.3449
   67MOL0     H 8989   8.282  11.196   2.393  0.1508  1.7035  1.0053
   67MOL0     H 8990   8.272  11.412   2.410 -0.5278 -0.4845  1.0337
   67MOL0     H 8991   8.252  11.388   2.233 -0.0140 -1.2901  0.3972
   67MOL0     H 8992   8.010  11.402   2.416  2.7799 -2.9991  1.3676
   67MOL0     H 8993   8.002  11.431   2.249 -3.2226  1.3982  2.8305
   67MOL0     H 8994   7.963  11.636   2.378  0.1224  1.2791 -4.5949
   67MOL0     H 8995   8.095  11.595   2.487  0.2832  2.9122  0.4578
   67MOL0     H 8996   8.000  11.801   2.162 -1.1020 -2.7785  1.5031
   67MOL0     H 8997   8.131  12.052   2.116 -0.9572 -0.4968 -0.9381
   67MOL0     H 8998   8.303  12.035   2.133 -0.5199  0.8434  0.6687
   67MOL0     H 8999   8.304  11.892   1.930  0.6579 -0.1368 -3.5740
   67MOL0     H 9000   8.136  11.939   1.894  0.4301  2.8549 -3.4334
   67MOL0     H 9001   8.299  12.074   1.766 -0.1956 -3.0336  0.9326
   67MOL0     H 9002   8.348  12.162   1.911  1.6114 -0.4156 -1.7530
   67MOL0     H 9003   8.074  12.139   1.786 -1.1185 -0.9321 -0.0336
   67MOL0     H 9004   8.159  12.284   1.788 -3.2254  0.0686 -0.1908
   67MOL0     H 9005   7.936  12.339   1.739 -4.9001 -0.8570 -1.1647
   67MOL0     H 9006   7.707  12.454   1.757 -3.6275  1.8558  2.4473
   67MOL0     H 9007   7.283  12.529   2.016  0.3811  1.8347  1.1354
   67MOL0     H 9008   7.077  12.631   1.958  2.1971 -4.2750  1.4620
   67MOL0     H 9009   7.055  12.929   1.612  1.2942 -0.6580  0.9301
   67MOL0     H 9010   7.013  12.763   1.555  0.2282 -0.3286 -0.1748
   67MOL0     H 9011   6.814  12.956   1.664  0.6896 -0.0134  0.2423
   67MOL0     H 9012   6.814  12.886   1.507  1.3634  0.0359 -1.5183
   67MOL0     H 9013   6.812  12.651   1.636 -2.8142 -1.9985 -0.8395
   67MOL0     H 9014   6.756  12.747   1.775  2.2372 -1.0483 -1.0065
   67MOL0     H 9015   6.648  12.724   1.498  2.9898 -1.8969  1.9127
   67MOL0     H 9016   6.568  12.834   1.610  0.9715  0.2471  1.3178
   67MOL0     H 9017   6.570  12.528   1.628  0.2159 -0.4888 -2.3126
   67MOL0     H 9018   6.437  12.635   1.574 -1.7196  1.0277  3.2697
   67MOL0     H 9019   6.551  12.628   1.857 -1.3274 -0.0666  2.3494
   67MOL0     H 9020   6.423  12.731   1.801 -0.5248 -0.8348  3.6160
   67MOL0     H 9021   6.426  12.426   1.785 -1.0527 -0.9345  1.7137
   67MOL0     H 9022   6.305  12.540   1.715 -1.0719 -1.0400  0.2639
   67MOL0     H 9023   6.214  12.431   1.918 -2.0712  1.4900 -1.0557
   67MOL0     H 9024   6.367  12.467   2.006  0.9853  0.0842 -0.4916
   67MOL0     H 9025   7.247  12.822   1.614 -0.7301 -2.1065 -0.9888
   67MOL0     H 9026   7.462  12.737   1.677 -1.4883  4.1064 -1.0099
   67MOL0     H 9027   7.710  12.412   2.187  0.6695  0.7655 -0.3285
   67MOL0     H 9028   7.931  12.298   2.176  0.4110  0.1517 -1.3147
   67MOL0     H 9029   7.747  10.855   2.223  0.1210 -0.2343  0.4106
   67MOL0     H 9030   7.550  10.747   2.108  0.2875 -0.0722 -3.1432
   67MOL0     H 9031   7.485  10.311   1.883  0.1064  0.7132  1.2004
   67MOL0     H 9032   7.316  10.197   1.751 -1.8966  0.0804 -0.9868
   67MOL0     H 9033   7.085  10.218   1.642 -1.6829  0.5234 -0.5387
   67MOL0     H 9034   7.022  10.336   1.765  3.2436 -0.8425  1.7156
   67MOL0     H 9035   6.824  10.185   1.775 -0.6827 -2.4147 -0.2311
   67MOL0     H 9036   6.891  10.075   1.648 -2.8180  0.7299 -2.8495
   67MOL0     H 9037   6.839  10.362   1.602  3.7003 -0.8308  2.6010
   67MOL0     H 9038   6.718  10.235   1.566 -0.0831  0.5005 -0.1288
   67MOL0     H 9039   6.859  10.307   1.362  2.5031  1.3962  0.8139
   67MOL0     H 9040   6.997  10.242   1.436  0.0045  0.3503 -1.6325
   67MOL0     H 9041   6.858   9.871   1.321  2.8231  0.2585 -2.8710
   67MOL0     H 9042   7.034  10.241   2.068 -0.8082  0.7133 -2.3617
   67MOL0     H 9043   7.206  10.489   2.260 -1.5207 -0.2986  1.1217
   67MOL0     H 9044   7.093  10.366   2.281 -0.2133 -2.0722  0.2813
   67MOL0     H 9045   7.257  10.335   2.329  1.2795  0.2766 -0.5088
   68MOL0     O 9046   1.707   1.189   5.692  0.1420 -0.1390 -0.2943
   68MOL0     C 9047   1.642   1.153   5.792  0.2770  0.2874  0.3489
   68MOL0     O 9048   1.631   1.226   5.907  0.2099 -0.0966 -0.1903
   68MOL0     C 9049   1.722   1.328   5.939  0.0032  0.5225  0.9557
   68MOL0     C 9050   1.729   1.444   5.863  0.1242  0.5101 -0.1097
   68MOL0     C 9051   1.837   1.534   5.881  0.7888 -0.0979 -0.4640
   68MOL0     C 9052   1.937   1.506   5.977 -0.1579 -0.6775  0.1637
   68MOL0     O 9053   2.044   1.596   5.999  0.0541 -0.5543  0.1719
   68MOL0     C 9054   2.174   1.547   6.005  0.4218 -0.1380 -0.7926
   68MOL0     C 9055   2.257   1.664   6.063 -0.1313  0.2687  0.2504
   68MOL0     C 9056   2.401   1.641   6.019 -0.5517  0.1379 -0.8958
   68MOL0     C 9057   2.470   1.773   5.979  0.7251 -0.2431  0.3515
   68MOL0     C 9058   2.609   1.747   5.912 -0.0368 -1.0959 -0.2781
   68MOL0     C 9059   2.684   1.872   5.890  1.2881 -0.6996  0.1430
   68MOL0     C 9060   2.823   1.845   5.834 -0.3429  1.3385 -0.3704
   68MOL0     C 9061   2.883   1.954   5.767  0.1497  0.4833  0.8328
   68MOL0     N 9062   3.026   1.930   5.766 -0.2955 -0.0246  0.6467
   68MOL0     C 9063   3.099   1.882   5.663 -0.9129  1.0722 -1.0076
   68MOL0     C 9064   3.228   1.865   5.707  0.7857 -0.2224 -0.4157
   68MOL0     C 9065   3.335   1.819   5.618 -0.3360 -0.6956  0.0190
   68MOL0     C 9066   3.475   1.824   5.682  0.2777  0.5316  0.3396
   68MOL0     C 9067   3.540   1.955   5.688  0.8763 -0.3278 -0.2515
   68MOL0     C 9068   3.694   1.941   5.685  0.2771  0.4895  0.1035
   68MOL0     O 9069   3.746   1.866   5.570 -0.3579  0.5917 -0.0083
   68MOL0     C 9070   3.856   1.792   5.585  0.1573  0.1045 -0.1628
   68MOL0     C 9071   3.956   1.824   5.677  0.0081  0.3732  0.0606
   68MOL0     C 9072   4.067   1.736   5.688  0.3587  0.2377  0.3379
   68MOL0     C 9073   4.073   1.616   5.621 -0.9244  0.3819  0.0890
   68MOL0     C 9074   4.187   1.524   5.636  0.2928  0.0066  0.7778
   68MOL0     O 9075   4.300   1.574   5.703  0.1902  0.6918  0.4281
   68MOL0     C 9076   4.429   1.533   5.674 -0.5906 -0.0719 -0.6797
   68MOL0     C 9077   4.466   1.445   5.570  0.9934  0.0843 -0.0797
   68MOL0     C 9078   4.601   1.433   5.550 -0.3779  0.1189  0.1063
   68MOL0     C 9079   4.704   1.485   5.636  0.4810  0.5203  0.6187
   68MOL0     O 9080   4.831   1.444   5.593 -0.3610  0.0288 -0.2031
   68MOL0     C 9081   4.943   1.465   5.676 -0.3239  0.1197 -0.4530
   68MOL0     C 9082   5.055   1.429   5.586 -0.0666 -0.4352 -0.0470
   68MOL0     C 9083   5.191   1.429   5.667  0.0505  0.0304 -0.2977
   68MOL0     C 9084   5.321   1.409   5.580 -0.6538 -0.3820  0.5130
   68MOL0     C 9085   5.438   1.367   5.654 -0.3353  0.2405  0.0187
   68MOL0     C 9086   5.444   1.216   5.672  0.2143  0.1142 -0.6113
   68MOL0     C 9087   5.588   1.182   5.737  0.6618 -1.0611  0.1455
   68MOL0     C 9088   5.586   1.035   5.776 -0.3995  0.1201 -0.8633
   68MOL0    Cl 9089   5.571   0.910   5.635 -0.0941 -0.1395  0.1414
   68MOL0     C 9090   4.667   1.561   5.743  0.1090 -0.0536  0.0104
   68MOL0     C 9091   4.530   1.581   5.762  0.3485  0.4933  0.0712
   68MOL0     O 9092   4.175   1.408   5.591 -0.5992  0.4933  0.3953
   68MOL0     C 9093   3.973   1.594   5.528 -0.2855  0.5142 -0.7661
   68MOL0     C 9094   3.866   1.678   5.515 -0.8678 -0.1523 -0.9553
   68MOL0     N 9095   3.237   1.923   5.833 -0.8413 -0.2609 -0.2861
   68MOL0     N 9096   3.119   1.951   5.863 -0.3286  0.1845 -0.0364
   68MOL0     C 9097   1.931   1.399   6.064  0.2953 -0.1833 -0.1490
   68MOL0     C 9098   1.821   1.310   6.039 -0.1882  0.4660 -0.2686
   68MOL0     C 9099   1.566   1.024   5.779 -0.6196 -0.5063  0.5706
   68MOL0     C 9100   1.546   0.957   5.905  0.0021 -0.5426  0.9541
   68MOL0     C 9101   1.477   0.844   5.905  0.5479  0.1263 -0.0683
   68MOL0     C 9102   1.411   0.788   5.797 -0.3901 -0.9437  0.0757
   68MOL0     O 9103   1.342   0.676   5.827  0.6565 -0.0193 -0.2050
   68MOL0     C 9104   1.297   0.594   5.720  0.6001 -0.2279 -0.1869
   68MOL0     C 9105   1.258   0.456   5.785  0.8892  0.6025  0.7560
   68MOL0     C 9106   1.366   0.395   5.877 -0.5973 -0.3235  0.4883
   68MOL0     C 9107   1.454   0.281   5.822 -0.3626 -0.4253 -0.4280
   68MOL0     C 9108   1.536   0.326   5.700  0.2039  0.5059  0.1778
   68MOL0     C 9109   1.588   0.339   5.586  1.1768  0.4196 -0.0617
   68MOL0     C 9110   1.422   0.857   5.676 -0.0315  0.3318  0.1271
   68MOL0     C 9111   1.506   0.976   5.658  0.1541 -0.5033 -0.7257
   68MOL0     C 9112   1.534   1.018   5.519  0.7279  0.5401 -1.0030
   68MOL0     H 9113   1.655   1.474   5.789 -1.2543 -0.7321  0.7047
   68MOL0     H 9114   1.859   1.623   5.822  0.9486 -0.5331 -1.0599
   68MOL0     H 9115   2.198   1.470   6.079  2.9166 -0.4311 -1.8035
   68MOL0     H 9116   2.212   1.517   5.907 -1.3446  2.1288 -2.2850
   68MOL0     H 9117   2.249   1.658   6.172  4.2449  0.4919  0.7512
   68MOL0     H 9118   2.232   1.761   6.019  0.5983  1.1485  1.6862
   68MOL0     H 9119   2.400   1.565   5.940 -0.5809 -3.2960  2.1549
   68MOL0     H 9120   2.458   1.593   6.099 -3.6653  0.4330  1.7295
   68MOL0     H 9121   2.415   1.825   5.900  1.8638  0.1756 -0.1973
   68MOL0     H 9122   2.479   1.852   6.054  1.0352  0.7822 -0.7348
   68MOL0     H 9123   2.665   1.682   5.980 -1.1385 -2.8737 -0.9890
   68MOL0     H 9124   2.591   1.694   5.818 -1.8435 -1.4400  0.2134
   68MOL0     H 9125   2.629   1.927   5.813 -0.2330 -1.6115  0.5441
   68MOL0     H 9126   2.686   1.928   5.984 -0.5914  0.1034 -0.2634
   68MOL0     H 9127   2.818   1.761   5.764  2.5274  1.4644 -0.8432
   68MOL0     H 9128   2.887   1.824   5.920 -0.6454 -3.9171 -1.0789
   68MOL0     H 9129   2.828   1.967   5.673 -1.0743 -3.3294  0.8499
   68MOL0     H 9130   2.859   2.049   5.815 -2.4607  0.9861 -1.2029
   68MOL0     H 9131   3.066   1.846   5.566  0.6614  3.5903 -2.5739
   68MOL0     H 9132   3.306   1.718   5.587 -5.8070  0.1905  1.1870
   68MOL0     H 9133   3.332   1.885   5.531 -2.3259  1.5532  1.6447
   68MOL0     H 9134   3.473   1.782   5.783  0.0160 -1.5128 -0.4691
   68MOL0     H 9135   3.530   1.753   5.619 -2.9646  0.1942 -2.3849
   68MOL0     H 9136   3.507   2.013   5.774 -1.4242 -2.0328  0.1177
   68MOL0     H 9137   3.524   2.009   5.594 -3.3379 -2.3045 -0.8634
   68MOL0     H 9138   3.717   1.884   5.775 -3.4464 -1.1555  0.2004
   68MOL0     H 9139   3.749   2.036   5.687  1.6510 -0.2899  0.6736
   68MOL0     H 9140   3.952   1.915   5.736  1.6336  1.0613 -0.8256
   68MOL0     H 9141   4.148   1.764   5.755  0.4009 -1.5707  1.0729
   68MOL0     H 9142   4.396   1.382   5.515  2.2046 -1.1234 -0.2976
   68MOL0     H 9143   4.627   1.362   5.472 -1.3335 -2.8659  2.3354
   68MOL0     H 9144   4.948   1.569   5.710 -1.4261 -0.4218  1.5250
   68MOL0     H 9145   4.935   1.398   5.762  0.5931  1.3105  0.6228
   68MOL0     H 9146   5.051   1.325   5.553 -1.5427 -0.7783  1.0803
   68MOL0     H 9147   5.055   1.494   5.498 -1.3429 -1.1005 -0.5745
   68MOL0     H 9148   5.189   1.521   5.725 -0.3236  1.6280 -2.7040
   68MOL0     H 9149   5.194   1.352   5.744  0.9143 -0.2062 -0.5549
   68MOL0     H 9150   5.344   1.507   5.536  3.0493 -0.2778  2.2466
   68MOL0     H 9151   5.301   1.332   5.505 -1.4471 -0.7944  1.1346
   68MOL0     H 9152   5.453   1.418   5.750  2.6208  1.2053 -0.8557
   68MOL0     H 9153   5.526   1.394   5.595 -1.7067  0.7921 -1.8970
   68MOL0     H 9154   5.367   1.176   5.738  0.7598 -2.0817 -1.1925
   68MOL0     H 9155   5.419   1.167   5.577 -0.3654  1.4441 -1.1653
   68MOL0     H 9156   5.616   1.251   5.816 -0.7200  0.1408 -0.3729
   68MOL0     H 9157   5.672   1.197   5.669  0.9195 -4.3695 -0.4554
   68MOL0     H 9158   5.685   1.037   5.823  0.0871  3.5144 -1.7432
   68MOL0     H 9159   5.502   1.021   5.845  0.4770 -1.7490 -0.1331
   68MOL0     H 9160   4.739   1.599   5.815  1.4767 -0.6770 -0.9802
   68MOL0     H 9161   4.500   1.647   5.843 -2.5164  0.0693 -0.5663
   68MOL0     H 9162   3.969   1.503   5.470 -2.1483 -0.0266  0.1487
   68MOL0     H 9163   3.784   1.659   5.446 -0.3043 -0.6813 -1.4892
   68MOL0     H 9164   1.990   1.373   6.151 -1.8151 -4.0532  0.3593
   68MOL0     H 9165   1.809   1.223   6.102  0.7597  0.4237 -0.1195
   68MOL0     H 9166   1.595   1.003   5.991  1.0591  1.1238 -0.4750
   68MOL0     H 9167   1.461   0.793   5.999  1.3367 -2.8990 -1.4480
   68MOL0     H 9168   1.367   0.585   5.636 -1.6886 -0.7638 -2.1529
   68MOL0     H 9169   1.205   0.641   5.685 -0.4232 -1.5734  0.6533
   68MOL0     H 9170   1.231   0.398   5.696 -0.3621  0.8408  0.9671
   68MOL0     H 9171   1.167   0.479   5.842  1.2597  0.9188  1.2267
   68MOL0     H 9172   1.311   0.351   5.960  0.7040 -2.5489  0.2557
   68MOL0     H 9173   1.427   0.477   5.918 -2.4371  1.4209 -0.1004
   68MOL0     H 9174   1.522   0.248   5.901 -1.2602  0.1005  0.6003
   68MOL0     H 9175   1.392   0.196   5.792 -0.4023 -0.1486 -1.1484
   68MOL0     H 9176   1.629   0.371   5.492  1.0955  3.8345  0.9378
   68MOL0     H 9177   1.365   0.833   5.587 -1.5502  1.1410  0.8509
   68MOL0     H 9178   1.643   1.017   5.507  0.7488 -1.9596 -1.0895
   68MOL0     H 9179   1.495   0.947   5.446 -2.7005 -0.8186  1.8655
   68MOL0     H 9180   1.486   1.116   5.507 -0.7126  0.2204  1.5132
   69MOL0     O 9181   8.159   9.756   4.379  0.5037  0.3689  0.2068
   69MOL0     C 9182   8.133   9.663   4.458  1.2392  0.8652  0.3258
   69MOL0     O 9183   8.220   9.566   4.505  0.1916  0.3526  0.8123
   69MOL0     C 9184   8.334   9.534   4.430 -0.6365  0.1543 -0.7382
   69MOL0     C 9185   8.454   9.600   4.457  0.7605  0.1747  1.1338
   69MOL0     C 9186   8.570   9.572   4.379 -0.5941 -0.3280 -0.3923
   69MOL0     C 9187   8.570   9.454   4.298 -0.2398  0.3373 -0.5427
   69MOL0     O 9188   8.691   9.413   4.245 -1.0441  0.5010  0.1968
   69MOL0     C 9189   8.805   9.494   4.255  0.2612  0.6711 -1.1219
   69MOL0     C 9190   8.918   9.425   4.182  0.0610  0.1194  0.1474
   69MOL0     C 9191   9.038   9.518   4.182  0.3097  0.2243  0.4549
   69MOL0     C 9192   9.062   9.581   4.038  0.2078 -0.9233  0.1392
   69MOL0     C 9193   9.187   9.677   4.036 -0.1582  0.7978  0.0946
   69MOL0     C 9194   9.217   9.735   3.907 -0.6381 -0.1913 -0.0610
   69MOL0     C 9195   9.339   9.826   3.929 -0.1599 -0.5563 -0.9582
   69MOL0     C 9196   9.479   9.751   3.954  0.0266 -0.7865 -0.0806
   69MOL0     N 9197   9.519   9.679   3.830  0.3124 -0.4116 -0.3770
   69MOL0     C 9198   9.570   9.727   3.712  0.2393  0.6348  0.3132
   69MOL0     C 9199   9.563   9.626   3.622 -0.3941 -0.7273 -0.4650
   69MOL0     C 9200   9.616   9.620   3.471  0.1519 -0.6702 -1.3567
   69MOL0     C 9201   9.755   9.683   3.454  0.6985 -0.3138  0.4549
   69MOL0     C 9202   9.757   9.726   3.306 -0.4670  0.4770 -0.9049
   69MOL0     C 9203   9.896   9.786   3.291  0.0685  0.6159 -1.3096
   69MOL0     O 9204   9.939   9.882   3.390 -0.3962  0.1174 -0.0599
   69MOL0     C 9205  10.069   9.925   3.379 -0.1504  0.5841  0.2180
   69MOL0     C 9206  10.167   9.854   3.304  0.6825  0.4953 -0.2713
   69MOL0     C 9207  10.296   9.877   3.337 -0.8724 -0.0973 -0.9705
   69MOL0     C 9208  10.338   9.990   3.415 -0.3635  0.8302  0.7512
   69MOL0     C 9209  10.480  10.018   3.427  0.1677 -0.2920  0.3446
   69MOL0     O 9210  10.512  10.135   3.493  0.0544  0.1681  0.0660
   69MOL0     C 9211  10.646  10.165   3.507 -0.1154  0.0802 -0.8886
   69MOL0     C 9212  10.712  10.133   3.632 -0.5883  0.2163  0.2403
   69MOL0     C 9213  10.848  10.169   3.652  0.0662  0.1175 -0.4002
   69MOL0     C 9214  10.924  10.233   3.551 -1.2528 -0.2692 -0.2175
   69MOL0     O 9215  11.060  10.253   3.553  0.0833  0.1328  0.2337
   69MOL0     C 9216  11.106  10.290   3.681 -1.5683 -0.2545 -0.1994
   69MOL0     C 9217  11.252  10.331   3.663  0.3236  0.1456  1.0887
   69MOL0     C 9218  11.257  10.456   3.571 -1.1408 -0.4127 -0.2615
   69MOL0     C 9219  11.398  10.528   3.565  0.1387 -0.5566  0.1599
   69MOL0     C 9220  11.438  10.596   3.692  0.4688 -0.6722 -0.5085
   69MOL0     C 9221  11.577  10.668   3.680  0.8554  0.1538 -0.9342
   69MOL0     C 9222  11.651  10.668   3.817  0.8099 -0.1935 -0.2333
   69MOL0     C 9223  11.810  10.680   3.809 -0.0888 -0.3600  0.0658
   69MOL0    Cl 9224  11.885  10.712   3.972 -0.0004  0.0102  0.0232
   69MOL0     C 9225  10.857  10.266   3.434  0.5061 -0.8062  0.5284
   69MOL0     C 9226  10.721  10.238   3.415  0.6681  0.3959 -0.6363
   69MOL0     O 9227  10.561   9.936   3.383  0.2988 -0.1884 -0.2036
   69MOL0     C 9228  10.238  10.063   3.484  0.4123  0.6270 -0.0428
   69MOL0     C 9229  10.104  10.025   3.464 -0.6437  0.2792 -0.3414
   69MOL0     N 9230   9.522   9.520   3.691  0.2860  0.4017  0.1789
   69MOL0     N 9231   9.493   9.551   3.815 -0.5814  0.2755  0.6774
   69MOL0     C 9232   8.451   9.379   4.288  1.0478  0.4503  0.4652
   69MOL0     C 9233   8.331   9.425   4.346 -0.4487  0.4814  0.6294
   69MOL0     C 9234   7.999   9.655   4.529  0.0138 -0.2972 -0.6522
   69MOL0     C 9235   7.976   9.604   4.662 -0.2709  0.5911 -0.4918
   69MOL0     C 9236   7.854   9.590   4.718  0.3146 -0.6843 -0.5055
   69MOL0     C 9237   7.739   9.625   4.646 -0.2455  0.3080  1.1194
   69MOL0     O 9238   7.622   9.596   4.713 -0.4998 -0.6724  0.3759
   69MOL0     C 9239   7.510   9.572   4.629 -0.1736 -0.7694  0.8721
   69MOL0     C 9240   7.396   9.505   4.694  0.4040 -0.2503 -0.5131
   69MOL0     C 9241   7.443   9.387   4.787 -0.2529  0.3365  0.4064
   69MOL0     C 9242   7.341   9.270   4.799  0.5453 -0.5079 -0.0523
   69MOL0     C 9243   7.418   9.161   4.848  0.1016 -0.0793 -1.1187
   69MOL0     C 9244   7.484   9.086   4.909  0.0809  0.1308 -0.6743
   69MOL0     C 9245   7.757   9.685   4.519 -0.5673  0.2136 -0.0610
   69MOL0     C 9246   7.888   9.696   4.460 -0.1873 -0.8207  0.4070
   69MOL0     C 9247   7.883   9.747   4.316 -0.5860  0.5604 -0.0908
   69MOL0     H 9248   8.452   9.685   4.525 -2.3155 -0.7233  2.3478
   69MOL0     H 9249   8.660   9.631   4.388 -1.2459  1.7112 -4.7025
   69MOL0     H 9250   8.782   9.586   4.200  2.8675  1.0401 -1.7140
   69MOL0     H 9251   8.840   9.518   4.355 -2.7744  1.8459 -0.2156
   69MOL0     H 9252   8.882   9.399   4.082 -0.4127  2.0624 -0.2144
   69MOL0     H 9253   8.937   9.328   4.229 -1.7385 -1.2681 -1.7787
   69MOL0     H 9254   9.128   9.463   4.209  2.6058  2.0158 -2.7260
   69MOL0     H 9255   9.023   9.599   4.254 -1.4432  1.4039 -1.1054
   69MOL0     H 9256   9.079   9.515   3.953 -1.3549  1.4036 -2.1447
   69MOL0     H 9257   8.970   9.631   4.008 -0.1171 -0.7397  1.4026
   69MOL0     H 9258   9.169   9.753   4.113  0.6379  0.4492  0.6374
   69MOL0     H 9259   9.267   9.616   4.078  0.1047  1.8793  1.2114
   69MOL0     H 9260   9.239   9.660   3.831 -0.3349  0.6129 -0.7853
   69MOL0     H 9261   9.134   9.803   3.885  0.5388  0.2990 -3.4744
   69MOL0     H 9262   9.322   9.891   4.016 -3.1673  0.0654 -1.8960
   69MOL0     H 9263   9.353   9.902   3.852  1.5523  3.5672  2.9418
   69MOL0     H 9264   9.558   9.820   3.986 -2.2413  2.3834 -0.8841
   69MOL0     H 9265   9.460   9.685   4.040  0.1254  0.9490  1.3303
   69MOL0     H 9266   9.609   9.826   3.688  2.8361  0.0243  1.6686
   69MOL0     H 9267   9.629   9.517   3.435  1.7924 -0.8305 -0.4254
   69MOL0     H 9268   9.535   9.664   3.413  0.4942 -0.0900 -1.4009
   69MOL0     H 9269   9.768   9.766   3.523 -3.1275  0.9271 -0.0998
   69MOL0     H 9270   9.833   9.606   3.462 -0.7280 -2.0860 -1.4197
   69MOL0     H 9271   9.681   9.802   3.289 -1.8719 -0.0049  2.4235
   69MOL0     H 9272   9.738   9.645   3.235 -2.2360 -0.6503  0.7620
   69MOL0     H 9273   9.912   9.835   3.195  0.5126 -1.0985 -2.1585
   69MOL0     H 9274   9.966   9.702   3.291  0.8965  1.2408  0.7919
   69MOL0     H 9275  10.145   9.775   3.233  0.8260 -0.4392  0.7166
   69MOL0     H 9276  10.375   9.819   3.290 -0.0285 -0.9559  1.3223
   69MOL0     H 9277  10.661  10.068   3.702 -0.9923 -1.1721 -1.2882
   69MOL0     H 9278  10.885  10.132   3.748  1.2400  1.8369 -0.1420
   69MOL0     H 9279  11.039  10.370   3.715 -1.5661  0.4162 -1.6867
   69MOL0     H 9280  11.096  10.206   3.749 -2.6459 -1.3798 -1.6879
   69MOL0     H 9281  11.296  10.366   3.756 -0.9552  0.7236  1.4947
   69MOL0     H 9282  11.298  10.237   3.631 -1.5603  0.0707 -1.7848
   69MOL0     H 9283  11.224  10.434   3.469 -0.7943 -0.9410 -0.2633
   69MOL0     H 9284  11.189  10.526   3.620 -0.2396  4.0543 -4.5862
   69MOL0     H 9285  11.404  10.594   3.478 -1.2745 -0.1587  0.3282
   69MOL0     H 9286  11.480  10.457   3.551 -0.7864 -1.9010  1.3323
   69MOL0     H 9287  11.443  10.522   3.772 -0.6536 -0.1082  0.0983
   69MOL0     H 9288  11.359  10.669   3.713  0.4026 -0.6570 -0.8054
   69MOL0     H 9289  11.630  10.612   3.602 -0.7764 -1.7639 -0.7346
   69MOL0     H 9290  11.558  10.769   3.644 -1.2684  0.6440  1.3397
   69MOL0     H 9291  11.630  10.572   3.866  1.8488 -2.1248 -3.2583
   69MOL0     H 9292  11.611  10.748   3.879 -2.2482 -0.9540 -1.0817
   69MOL0     H 9293  11.853  10.588   3.768 -1.0482 -0.5387 -0.5710
   69MOL0     H 9294  11.832  10.760   3.737  2.1542 -0.5250  0.4749
   69MOL0     H 9295  10.908  10.319   3.355 -2.2279 -1.2468 -1.6736
   69MOL0     H 9296  10.672  10.262   3.321  0.6381 -1.1046 -1.0429
   69MOL0     H 9297  10.249  10.149   3.550  1.9001 -0.7139  1.5265
   69MOL0     H 9298  10.033  10.086   3.518  1.0475  1.3405  0.8124
   69MOL0     H 9299   8.449   9.294   4.221 -0.0997  0.0436  0.9995
   69MOL0     H 9300   8.244   9.361   4.337 -0.8142  1.0972 -0.3824
   69MOL0     H 9301   8.064   9.567   4.714  0.2460  1.1517 -0.9307
   69MOL0     H 9302   7.835   9.557   4.820 -0.3763 -1.7608 -0.9675
   69MOL0     H 9303   7.543   9.504   4.550 -1.6890 -0.2470 -0.2818
   69MOL0     H 9304   7.486   9.669   4.583 -0.8510 -1.0101  0.7028
   69MOL0     H 9305   7.314   9.490   4.623  0.7506  3.1436 -1.8488
   69MOL0     H 9306   7.353   9.584   4.756  0.7741 -1.2528  1.0616
   69MOL0     H 9307   7.466   9.430   4.884 -3.4262 -0.7982  1.7953
   69MOL0     H 9308   7.532   9.340   4.744  1.0774  0.6322  2.6879
   69MOL0     H 9309   7.269   9.296   4.878  1.6872  1.4378  0.3934
   69MOL0     H 9310   7.297   9.249   4.701  0.0827  2.2315 -0.4946
   69MOL0     H 9311   7.532   9.013   4.971 -0.5334  0.3920  0.1381
   69MOL0     H 9312   7.667   9.695   4.460 -0.5177  0.3008 -0.1225
   69MOL0     H 9313   7.896   9.669   4.241 -2.5151 -0.0487  0.1482
   69MOL0     H 9314   7.780   9.778   4.295 -0.0747  1.4559 -1.3918
   69MOL0     H 9315   7.948   9.831   4.291 -2.8885  2.0472 -1.4151
   70MOL0     O 9316   4.278  10.331   3.373 -0.0416 -0.2616 -0.2152
   70MOL0     C 9317   4.169  10.289   3.341 -0.1540  0.0687  0.6292
   70MOL0     O 9318   4.129  10.260   3.212 -0.0241  0.0045 -0.3091
   70MOL0     C 9319   4.225  10.227   3.119  1.0234  0.4116  0.8056
   70MOL0     C 9320   4.345  10.164   3.141 -0.1311  0.3996  0.0356
   70MOL0     C 9321   4.439  10.156   3.034  0.6955  0.5880 -0.5394
   70MOL0     C 9322   4.413  10.180   2.902 -0.4211 -0.5526  0.8477
   70MOL0     O 9323   4.510  10.148   2.813 -0.5358 -0.0073  0.1917
   70MOL0     C 9324   4.530  10.228   2.692  0.3754  0.4568 -0.2018
   70MOL0     C 9325   4.672  10.218   2.644 -0.8618  0.2270  0.6288
   70MOL0     C 9326   4.704  10.357   2.572 -0.0683  1.1170  0.0377
   70MOL0     C 9327   4.836  10.345   2.496  0.0396  0.4782 -0.3050
   70MOL0     C 9328   4.881  10.467   2.413 -0.4716  0.4549  0.1022
   70MOL0     C 9329   5.020  10.439   2.356 -0.3680 -0.1396 -0.0405
   70MOL0     C 9330   5.062  10.553   2.259 -0.7167 -0.0793 -0.4697
   70MOL0     C 9331   5.036  10.527   2.111  0.1285  0.1783 -0.2293
   70MOL0     N 9332   5.084  10.643   2.028  0.1300 -0.4708 -0.2210
   70MOL0     C 9333   5.151  10.643   1.914 -0.5870 -0.4219 -0.2231
   70MOL0     C 9334   5.161  10.769   1.863 -0.1783  0.1514  1.4222
   70MOL0     C 9335   5.229  10.807   1.738 -0.5005  1.0439 -1.3490
   70MOL0     C 9336   5.134  10.813   1.615 -0.1939  0.5116 -0.4303
   70MOL0     C 9337   5.190  10.913   1.521  0.6347 -0.6626 -1.1268
   70MOL0     C 9338   5.315  10.858   1.456 -0.8021  0.1129 -0.8821
   70MOL0     O 9339   5.426  10.884   1.549 -0.4151  0.4785 -0.5546
   70MOL0     C 9340   5.552  10.846   1.510 -0.4115 -1.0373  0.2820
   70MOL0     C 9341   5.584  10.779   1.398  0.2197  0.3455  0.4054
   70MOL0     C 9342   5.713  10.754   1.354  0.0773 -0.0180  1.1399
   70MOL0     C 9343   5.824  10.802   1.423 -0.3355  0.5315  0.9539
   70MOL0     C 9344   5.960  10.795   1.375  0.5285  0.0936  0.8234
   70MOL0     O 9345   5.989  10.732   1.255 -0.4299  0.3292 -0.5018
   70MOL0     C 9346   6.119  10.746   1.198  1.0232 -0.6202 -0.0902
   70MOL0     C 9347   6.218  10.653   1.222 -0.1521 -0.1528 -0.0402
   70MOL0     C 9348   6.343  10.673   1.177 -0.1102 -0.6145 -0.1029
   70MOL0     C 9349   6.385  10.789   1.105 -0.5476  0.1749 -0.3442
   70MOL0     O 9350   6.515  10.819   1.045 -0.4475 -0.6859 -0.4420
   70MOL0     C 9351   6.601  10.714   1.006  0.1283  0.0147 -0.0387
   70MOL0     C 9352   6.708  10.774   0.927  0.2823  0.3225 -0.6611
   70MOL0     C 9353   6.667  10.853   0.807  0.4306  0.0816 -0.0278
   70MOL0     C 9354   6.787  10.936   0.765  0.1924  0.3174  0.1809
   70MOL0     C 9355   6.889  10.858   0.678  0.1041 -0.1888  0.2960
   70MOL0     C 9356   7.011  10.953   0.630  0.4385  0.5105 -0.1601
   70MOL0     C 9357   7.122  10.984   0.732 -0.4600 -0.2657  0.0657
   70MOL0     C 9358   7.222  11.095   0.676 -0.2654  0.0147  0.5803
   70MOL0    Cl 9359   7.292  11.059   0.514  0.0506  0.1190 -0.4407
   70MOL0     C 9360   6.285  10.885   1.094  0.0346  0.2571  0.2215
   70MOL0     C 9361   6.156  10.867   1.134  0.3748  0.4012  0.3707
   70MOL0     O 9362   6.042  10.851   1.441  0.5658 -0.4178  0.4993
   70MOL0     C 9363   5.794  10.866   1.545  0.3434  0.5473 -0.3825
   70MOL0     C 9364   5.662  10.888   1.587 -0.5704  0.4410 -0.6789
   70MOL0     N 9365   5.087  10.848   1.947 -0.1278  1.1453  0.2865
   70MOL0     N 9366   5.045  10.772   2.046  0.3061  0.4526 -1.0255
   70MOL0     C 9367   4.289  10.232   2.876  0.4453  0.4423  0.0981
   70MOL0     C 9368   4.190  10.254   2.978  0.2946  0.6079 -0.3711
   70MOL0     C 9369   4.059  10.274   3.445 -0.7101  0.0313  0.4957
   70MOL0     C 9370   3.926  10.266   3.400 -0.3928 -0.2317 -0.2732
   70MOL0     C 9371   3.811  10.280   3.487 -0.4359 -0.4105 -0.7104
   70MOL0     C 9372   3.836  10.290   3.625  0.2668  0.0269 -0.4922
   70MOL0     O 9373   3.732  10.315   3.711  0.2010 -0.9852  0.0235
   70MOL0     C 9374   3.594  10.324   3.671  1.0041 -0.2278  0.2130
   70MOL0     C 9375   3.537  10.452   3.593  0.0314  1.1009  0.2006
   70MOL0     C 9376   3.560  10.584   3.671  0.0809  0.2466  0.2681
   70MOL0     C 9377   3.487  10.700   3.601 -0.5522  0.0834  0.2959
   70MOL0     C 9378   3.349  10.700   3.636 -0.5921 -0.8192  0.6539
   70MOL0     C 9379   3.236  10.708   3.675 -0.5657 -0.2368  0.7463
   70MOL0     C 9380   3.970  10.288   3.662  0.3711  0.1526  0.2061
   70MOL0     C 9381   4.078  10.282   3.578 -0.0776  0.1518  0.5934
   70MOL0     C 9382   4.221  10.267   3.643  0.3237 -0.3693  0.6507
   70MOL0     H 9383   4.363  10.133   3.243  0.1476  0.7034  0.0811
   70MOL0     H 9384   4.543  10.130   3.051  0.3343 -0.7520 -0.3014
   70MOL0     H 9385   4.452  10.190   2.625 -1.0007  1.0356  1.0226
   70MOL0     H 9386   4.505  10.333   2.710  1.1031  0.2376  2.4654
   70MOL0     H 9387   4.697  10.139   2.573  1.9811  0.3173  1.3917
   70MOL0     H 9388   4.749  10.217   2.722  1.0388  0.3772 -1.1523
   70MOL0     H 9389   4.703  10.430   2.654 -0.2871  1.0534  0.0930
   70MOL0     H 9390   4.623  10.371   2.499 -1.1192 -0.2152  0.9011
   70MOL0     H 9391   4.910  10.319   2.573 -1.7180  1.5193  1.8715
   70MOL0     H 9392   4.830  10.260   2.428  0.0312  1.8715 -2.1246
   70MOL0     H 9393   4.823  10.494   2.325 -0.1372 -0.7077 -0.4849
   70MOL0     H 9394   4.877  10.552   2.482  2.9094 -1.7514  3.4107
   70MOL0     H 9395   5.095  10.436   2.435  2.0117 -0.7869 -2.2104
   70MOL0     H 9396   4.995  10.345   2.305  0.1730  0.2590 -1.0752
   70MOL0     H 9397   5.169  10.566   2.275 -0.6626  1.5265 -1.8820
   70MOL0     H 9398   5.026  10.650   2.295  4.1444  1.4221  1.1398
   70MOL0     H 9399   5.082  10.438   2.066 -1.3276 -1.7455  1.8319
   70MOL0     H 9400   4.929  10.510   2.100 -0.1270 -1.4826  3.4990
   70MOL0     H 9401   5.209  10.569   1.860  0.0125  1.7687 -2.7665
   70MOL0     H 9402   5.277  10.902   1.764 -0.0628  0.2301  1.1352
   70MOL0     H 9403   5.303  10.728   1.724 -1.4434 -0.4457  1.3319
   70MOL0     H 9404   5.109  10.716   1.571 -2.0095  0.6941  0.0958
   70MOL0     H 9405   5.043  10.860   1.654 -1.5262 -0.4382 -2.2104
   70MOL0     H 9406   5.205  11.012   1.565 -0.1921 -1.6213  1.5328
   70MOL0     H 9407   5.117  10.915   1.439 -1.6338 -1.1955  0.7618
   70MOL0     H 9408   5.345  10.909   1.364  3.1984  0.3902  0.3529
   70MOL0     H 9409   5.313  10.752   1.432 -0.1389  0.2504 -1.5794
   70MOL0     H 9410   5.503  10.743   1.336 -0.7990  1.7746  0.8488
   70MOL0     H 9411   5.726  10.709   1.256 -0.5028  2.6053 -0.2223
   70MOL0     H 9412   6.204  10.560   1.276 -0.1076 -0.9346 -1.3359
   70MOL0     H 9413   6.407  10.588   1.201 -0.9650 -0.6271  2.3941
   70MOL0     H 9414   6.631  10.653   1.091  0.4028  2.0619  1.4231
   70MOL0     H 9415   6.552  10.649   0.934 -2.0584 -0.2559  1.6203
   70MOL0     H 9416   6.775  10.825   0.996  2.5943 -2.2334 -0.8356
   70MOL0     H 9417   6.769  10.687   0.900  0.2303  0.5529 -1.5587
   70MOL0     H 9418   6.625  10.800   0.721  1.0975  0.6177 -0.7014
   70MOL0     H 9419   6.592  10.924   0.843 -1.1469 -0.5901 -1.8356
   70MOL0     H 9420   6.834  10.982   0.853 -0.2334 -0.1593  0.6600
   70MOL0     H 9421   6.766  11.028   0.709  1.5281 -0.2874 -1.3950
   70MOL0     H 9422   6.824  10.835   0.594 -3.0146  1.8504  1.9609
   70MOL0     H 9423   6.931  10.773   0.733 -0.6758 -0.9197 -0.2289
   70MOL0     H 9424   7.058  10.900   0.546 -3.1713 -0.9310 -1.4502
   70MOL0     H 9425   6.979  11.048   0.586  2.5410  0.8030 -1.2053
   70MOL0     H 9426   7.168  10.890   0.763 -1.8268 -0.4939  1.4953
   70MOL0     H 9427   7.086  11.034   0.822  0.4348  1.3569 -0.4210
   70MOL0     H 9428   7.177  11.193   0.662  1.8777  0.9882  0.1171
   70MOL0     H 9429   7.310  11.105   0.741 -0.5663 -1.1329  1.2030
   70MOL0     H 9430   6.324  10.976   1.048  2.0010 -0.1545  0.9643
   70MOL0     H 9431   6.082  10.945   1.124 -0.0695 -0.0241  0.2654
   70MOL0     H 9432   5.877  10.907   1.602  0.6834  0.7422 -1.0119
   70MOL0     H 9433   5.652  10.939   1.682  1.1498  0.4824 -0.4863
   70MOL0     H 9434   4.250  10.245   2.776  0.2276  0.1165  0.1404
   70MOL0     H 9435   4.094  10.303   2.966 -0.8813 -1.1952  0.9914
   70MOL0     H 9436   3.910  10.279   3.293  1.6748  0.2930 -0.5777
   70MOL0     H 9437   3.715  10.284   3.437 -0.0782 -0.5717 -1.4149
   70MOL0     H 9438   3.537  10.307   3.763  1.9018 -0.4884  0.7336
   70MOL0     H 9439   3.561  10.236   3.616 -1.5686 -0.6114  2.1700
   70MOL0     H 9440   3.433  10.423   3.576  0.8526 -2.2412  0.1487
   70MOL0     H 9441   3.584  10.456   3.495  0.3419 -1.1342  0.1974
   70MOL0     H 9442   3.666  10.610   3.674  0.7049 -2.0986  2.9018
   70MOL0     H 9443   3.521  10.569   3.772 -2.8197 -2.2231 -1.0459
   70MOL0     H 9444   3.537  10.794   3.628  1.3584 -1.0148  0.7654
   70MOL0     H 9445   3.494  10.700   3.491  1.8644 -2.2606  0.3421
   70MOL0     H 9446   3.141  10.715   3.724 -1.0900 -3.6294  0.4634
   70MOL0     H 9447   3.982  10.290   3.770 -3.7959 -1.6718  0.9063
   70MOL0     H 9448   4.285  10.344   3.599  1.3695 -2.7675 -2.4391
   70MOL0     H 9449   4.232  10.263   3.752 -1.9162  1.9904  1.0372
   70MOL0     H 9450   4.275  10.182   3.600 -1.3684 -0.1533 -2.1547
   71MOL0     O 9451   8.182   5.977   2.305  0.1089  0.3131 -0.3341
   71MOL0     C 9452   8.238   5.948   2.412 -0.4741 -0.0965  0.1122
   71MOL0     O 9453   8.179   5.917   2.527 -0.4715 -0.3360  0.4817
   71MOL0     C 9454   8.050   5.922   2.537  0.8652 -0.3040  0.3496
   71MOL0     C 9455   7.970   6.031   2.502  0.4373 -0.6123 -0.6377
   71MOL0     C 9456   7.837   6.046   2.541  0.5497  0.8226 -0.3771
   71MOL0     C 9457   7.774   5.949   2.623 -0.7165 -0.1503  0.2073
   71MOL0     O 9458   7.644   5.960   2.673 -0.3189  0.2146 -0.7009
   71MOL0     C 9459   7.582   6.086   2.662  0.6189 -0.5160  0.1231
   71MOL0     C 9460   7.453   6.087   2.739  0.2196  0.5020 -0.6911
   71MOL0     C 9461   7.455   6.113   2.892 -0.0864  0.2718 -0.0505
   71MOL0     C 9462   7.450   5.987   2.981  0.1723 -0.0480  0.1822
   71MOL0     C 9463   7.461   6.029   3.131  0.2188 -0.9105  0.9395
   71MOL0     C 9464   7.481   5.909   3.218  0.9498 -0.2567  0.1798
   71MOL0     C 9465   7.354   5.826   3.230 -0.2521  0.4719  0.6289
   71MOL0     C 9466   7.261   5.866   3.347  0.2247  0.8221  0.3492
   71MOL0     N 9467   7.146   5.779   3.368 -0.3170  0.1432  0.6894
   71MOL0     C 9468   7.079   5.677   3.289  0.9793 -1.0521  0.1623
   71MOL0     C 9469   6.978   5.647   3.375 -0.0496  0.3086  0.4268
   71MOL0     C 9470   6.864   5.551   3.348 -0.8985  0.0950  0.3283
   71MOL0     C 9471   6.888   5.411   3.417 -0.2346  0.6766  0.1676
   71MOL0     C 9472   6.963   5.327   3.315 -0.4140 -1.3374 -0.4566
   71MOL0     C 9473   7.008   5.189   3.376  0.4217  0.0923 -1.0781
   71MOL0     O 9474   7.058   5.204   3.513 -0.5563 -0.8970  0.4198
   71MOL0     C 9475   7.193   5.196   3.534  0.7796  0.0705  0.0825
   71MOL0     C 9476   7.297   5.242   3.447 -0.3584 -0.6571 -0.0804
   71MOL0     C 9477   7.433   5.251   3.472 -0.0448  0.5152 -0.5654
   71MOL0     C 9478   7.472   5.195   3.595 -0.2305 -0.1939  0.3525
   71MOL0     C 9479   7.614   5.181   3.635  0.8382  0.0009  0.4747
   71MOL0     O 9480   7.657   5.133   3.755  0.3812 -0.3046  0.2096
   71MOL0     C 9481   7.790   5.105   3.769  0.2865 -0.9605 -0.0679
   71MOL0     C 9482   7.866   5.042   3.670 -0.2854 -0.1807  0.4389
   71MOL0     C 9483   7.998   5.007   3.697  0.5386 -0.2228 -0.1493
   71MOL0     C 9484   8.055   5.024   3.830  0.4801  0.1030  1.3277
   71MOL0     O 9485   8.191   5.009   3.834 -0.8255  0.0735 -0.9162
   71MOL0     C 9486   8.262   5.091   3.917 -0.9825  0.9691 -0.1718
   71MOL0     C 9487   8.404   5.122   3.850  0.3156  0.0798  0.0107
   71MOL0     C 9488   8.375   5.239   3.747 -0.8762 -0.2670  0.5098
   71MOL0     C 9489   8.507   5.277   3.680 -0.4372 -1.0898 -0.2455
   71MOL0     C 9490   8.558   5.410   3.718 -0.5861 -0.4738 -0.5564
   71MOL0     C 9491   8.693   5.437   3.643  0.0283 -0.0051 -1.4385
   71MOL0     C 9492   8.741   5.575   3.655  0.5703  1.0252  0.6841
   71MOL0     C 9493   8.875   5.597   3.588 -0.4774  0.1576  0.3506
   71MOL0    Cl 9494   8.999   5.544   3.700  0.4210  0.2353 -0.1939
   71MOL0     C 9495   7.972   5.074   3.929  0.1285  0.0105 -0.1843
   71MOL0     C 9496   7.842   5.118   3.892  0.2259  0.4025  0.0702
   71MOL0     O 9497   7.686   5.240   3.555 -0.0923 -0.4075 -0.2936
   71MOL0     C 9498   7.370   5.153   3.686  0.6136 -0.2026 -0.3894
   71MOL0     C 9499   7.234   5.160   3.661 -0.1994  0.1048 -0.3145
   71MOL0     N 9500   6.971   5.720   3.485 -0.2344  0.0627 -0.3675
   71MOL0     N 9501   7.071   5.797   3.482 -0.0407  0.0995  0.1204
   71MOL0     C 9502   7.858   5.849   2.676 -0.3379 -1.2076  0.3694
   71MOL0     C 9503   7.991   5.835   2.623  0.8687  0.7261 -0.0756
   71MOL0     C 9504   8.382   5.954   2.404 -0.1406  0.0371 -0.0527
   71MOL0     C 9505   8.452   6.049   2.326  0.2606 -0.6242 -0.1273
   71MOL0     C 9506   8.588   6.069   2.336 -0.5718  0.5518  0.1601
   71MOL0     C 9507   8.666   5.990   2.417 -0.4608  0.0389  0.5621
   71MOL0     O 9508   8.801   6.021   2.417  0.2629 -0.1859 -0.4948
   71MOL0     C 9509   8.880   6.038   2.540  0.2606 -0.5137  0.4921
   71MOL0     C 9510   9.025   6.060   2.486 -0.3451  1.1223  0.6055
   71MOL0     C 9511   9.125   6.048   2.596 -0.9999 -0.3751 -0.4982
   71MOL0     C 9512   9.263   6.063   2.545  0.6443  1.0459 -0.9622
   71MOL0     C 9513   9.363   6.104   2.643 -0.3592  0.2060  0.2363
   71MOL0     C 9514   9.449   6.140   2.721  0.1263 -0.0751  0.2258
   71MOL0     C 9515   8.604   5.882   2.474 -0.5558  0.3881 -0.4188
   71MOL0     C 9516   8.461   5.861   2.473  0.2476  0.7367  1.3016
   71MOL0     C 9517   8.407   5.736   2.542  0.2297  0.6433 -0.3096
   71MOL0     H 9518   8.025   6.120   2.473  3.4946 -3.4651 -4.8679
   71MOL0     H 9519   7.790   6.139   2.508  1.5343  1.4895  0.0599
   71MOL0     H 9520   7.657   6.159   2.692 -1.1134  0.9929  0.9884
   71MOL0     H 9521   7.548   6.110   2.561 -3.7864  3.6474  2.2012
   71MOL0     H 9522   7.395   5.997   2.713 -0.7063  0.4099  1.4548
   71MOL0     H 9523   7.396   6.174   2.706 -2.0721  0.1367  1.8929
   71MOL0     H 9524   7.365   6.169   2.919  0.0973 -0.3708  2.0585
   71MOL0     H 9525   7.534   6.185   2.915  1.2516 -1.3804  0.7350
   71MOL0     H 9526   7.356   5.934   2.965 -0.9638  1.8686  0.3400
   71MOL0     H 9527   7.536   5.920   2.971  0.0086 -0.2631  0.2040
   71MOL0     H 9528   7.543   6.101   3.139 -0.5994  0.1002  0.4998
   71MOL0     H 9529   7.372   6.075   3.175  0.9849 -2.4236  4.4687
   71MOL0     H 9530   7.553   5.834   3.183  0.2100 -1.0502  0.3167
   71MOL0     H 9531   7.520   5.941   3.315  1.2519 -1.2924  0.4196
   71MOL0     H 9532   7.390   5.724   3.244 -0.3206  0.5819  1.7393
   71MOL0     H 9533   7.298   5.833   3.136  1.6535 -1.8198 -0.7853
   71MOL0     H 9534   7.321   5.872   3.438 -1.3289  0.3542  1.4582
   71MOL0     H 9535   7.234   5.970   3.326  2.0158  1.2360 -0.0275
   71MOL0     H 9536   7.086   5.647   3.185  0.4710 -0.6882  0.0167
   71MOL0     H 9537   6.769   5.598   3.371 -1.1527  1.7687 -3.4107
   71MOL0     H 9538   6.847   5.548   3.240 -1.1793  2.1963  0.2811
   71MOL0     H 9539   6.940   5.430   3.512 -0.3603  1.5064  0.0784
   71MOL0     H 9540   6.797   5.359   3.447 -1.1863  2.8777  1.3637
   71MOL0     H 9541   7.054   5.378   3.281 -3.1658  3.5900 -1.3377
   71MOL0     H 9542   6.905   5.295   3.228 -2.5515  0.1497  0.3480
   71MOL0     H 9543   7.091   5.132   3.332 -1.7733 -5.5128  1.0217
   71MOL0     H 9544   6.922   5.122   3.373  2.5604 -2.8921 -0.6484
   71MOL0     H 9545   7.262   5.287   3.355 -0.1785  2.8511  1.4131
   71MOL0     H 9546   7.504   5.283   3.396 -1.1026  0.2015 -1.7336
   71MOL0     H 9547   7.828   5.031   3.569  2.4186  2.2302 -0.9925
   71MOL0     H 9548   8.070   4.973   3.624  2.6170  0.8566  1.2815
   71MOL0     H 9549   8.208   5.183   3.939 -1.1571  0.9971 -0.7075
   71MOL0     H 9550   8.271   5.046   4.016 -1.0484 -0.3416 -0.7385
   71MOL0     H 9551   8.466   5.159   3.933  0.1591 -1.6005  0.9089
   71MOL0     H 9552   8.454   5.032   3.812  4.7126  1.1820  2.4641
   71MOL0     H 9553   8.293   5.219   3.677  1.0952  0.0191 -2.0284
   71MOL0     H 9554   8.332   5.319   3.807 -2.6764  0.8326 -2.0389
   71MOL0     H 9555   8.502   5.273   3.571  1.9869  2.1945 -0.6246
   71MOL0     H 9556   8.586   5.204   3.705  1.9251  1.1673 -0.6445
   71MOL0     H 9557   8.570   5.416   3.827  1.0895  1.1661 -0.7665
   71MOL0     H 9558   8.478   5.475   3.680 -1.7402 -0.7066  1.3611
   71MOL0     H 9559   8.768   5.366   3.680 -0.8934 -0.5780 -0.6062
   71MOL0     H 9560   8.683   5.407   3.538 -0.7686 -0.4178 -1.2511
   71MOL0     H 9561   8.762   5.600   3.759  0.9577  0.3185  0.7777
   71MOL0     H 9562   8.670   5.642   3.604  1.4244  0.9970 -0.5728
   71MOL0     H 9563   8.871   5.537   3.496 -2.0115 -2.5140  2.0290
   71MOL0     H 9564   8.890   5.701   3.556  1.3386 -0.6188 -1.5405
   71MOL0     H 9565   8.008   5.094   4.030  0.1731 -0.4910 -0.1006
   71MOL0     H 9566   7.791   5.161   3.978  0.7230 -0.8551  1.0297
   71MOL0     H 9567   7.408   5.127   3.785  0.7735  3.6861  0.7376
   71MOL0     H 9568   7.161   5.111   3.726 -1.5308 -1.7892 -3.0152
   71MOL0     H 9569   7.825   5.773   2.747 -1.3510 -0.5896  0.5941
   71MOL0     H 9570   8.045   5.748   2.659 -0.5088 -0.5989 -1.0365
   71MOL0     H 9571   8.391   6.125   2.278  2.5162  0.2713 -1.7902
   71MOL0     H 9572   8.648   6.147   2.290 -1.1250  0.6356 -0.4478
   71MOL0     H 9573   8.884   5.947   2.600 -0.2137  0.2143  1.6876
   71MOL0     H 9574   8.837   6.113   2.608 -0.2181 -2.4403  2.4118
   71MOL0     H 9575   9.035   6.164   2.453  1.9048  0.4002 -1.2376
   71MOL0     H 9576   9.049   6.000   2.399  0.6189  1.1150  0.8660
   71MOL0     H 9577   9.118   5.954   2.651  1.6293  1.6821  3.9462
   71MOL0     H 9578   9.107   6.121   2.675  1.2233 -2.4139  2.0737
   71MOL0     H 9579   9.284   5.962   2.508  0.3967 -0.5126  2.7834
   71MOL0     H 9580   9.267   6.135   2.463  2.2395  1.3852 -0.5995
   71MOL0     H 9581   9.536   6.165   2.779 -0.3269  1.8517  0.1327
   71MOL0     H 9582   8.657   5.803   2.526 -2.0988 -1.1421 -1.0832
   71MOL0     H 9583   8.469   5.646   2.538  0.6304  0.4086  4.5153
   71MOL0     H 9584   8.387   5.761   2.647 -0.0321  1.5394 -0.5645
   71MOL0     H 9585   8.306   5.712   2.508 -0.9033  2.5888  1.4517
   72MOL0     O 9586   9.396   2.455  11.092 -0.1243 -0.3166 -0.2885
   72MOL0     C 9587   9.419   2.380  11.004  0.2142  0.1017  1.2245
   72MOL0     O 9588   9.532   2.376  10.937  0.0682  0.7214  0.2368
   72MOL0     C 9589   9.634   2.442  10.990 -0.1497 -0.4828 -0.6584
   72MOL0     C 9590   9.639   2.580  10.979  0.5307  0.0348  0.5895
   72MOL0     C 9591   9.751   2.653  11.026 -0.1080  1.0201  1.0385
   72MOL0     C 9592   9.861   2.580  11.083 -0.2263  0.2908  0.1599
   72MOL0     O 9593   9.976   2.647  11.116 -0.5358 -0.1178 -0.3054
   72MOL0     C 9594   9.960   2.769  11.192  0.2777 -0.3240  0.3462
   72MOL0     C 9595  10.084   2.812  11.268 -0.7662 -0.2705 -0.3834
   72MOL0     C 9596  10.084   2.962  11.305  0.3257  0.0924 -0.6727
   72MOL0     C 9597   9.962   2.996  11.401 -0.2921  0.7094  0.8502
   72MOL0     C 9598   9.948   3.146  11.424  0.4472  0.0639 -0.1609
   72MOL0     C 9599  10.070   3.206  11.493 -0.5525  0.0229  0.6590
   72MOL0     C 9600  10.044   3.362  11.516  1.5399 -0.5256 -0.7841
   72MOL0     C 9601   9.946   3.404  11.627 -0.2039 -0.2739 -0.9254
   72MOL0     N 9602   9.989   3.346  11.756  0.2342  0.0505  0.2784
   72MOL0     C 9603  10.100   3.385  11.829  0.5826 -0.4759 -1.2924
   72MOL0     C 9604  10.097   3.292  11.937  0.5503  0.2507 -0.7467
   72MOL0     C 9605  10.194   3.299  12.050  0.3927 -0.1739  0.5112
   72MOL0     C 9606  10.144   3.254  12.192  0.1822  0.0484  0.4524
   72MOL0     C 9607  10.240   3.257  12.309 -0.4876 -0.6972 -0.1096
   72MOL0     C 9608  10.362   3.174  12.277 -0.1482  0.0177 -0.5521
   72MOL0     O 9609  10.330   3.058  12.196  1.2767 -0.3074  0.6720
   72MOL0     C 9610  10.429   2.985  12.133  0.3116  0.1547  0.7444
   72MOL0     C 9611  10.414   2.952  11.998 -0.6018  0.1007  0.8042
   72MOL0     C 9612  10.511   2.887  11.917 -1.2377 -0.6156 -0.5292
   72MOL0     C 9613  10.625   2.836  11.980 -0.0048  0.3620  0.2687
   72MOL0     C 9614  10.711   2.735  11.913  0.0383  0.9029  0.7031
   72MOL0     O 9615  10.841   2.715  11.960 -0.0803  0.0769 -0.2399
   72MOL0     C 9616  10.930   2.648  11.883  0.2774  0.4399  0.6776
   72MOL0     C 9617  11.058   2.697  11.901 -0.1103 -1.2050  1.0587
   72MOL0     C 9618  11.167   2.635  11.841  0.1715  0.1493 -0.1803
   72MOL0     C 9619  11.152   2.517  11.770  0.0095 -0.8788  0.3711
   72MOL0     O 9620  11.271   2.459  11.748 -0.7348 -0.0802 -0.0259
   72MOL0     C 9621  11.290   2.325  11.779  0.6113 -0.8209  1.0784
   72MOL0     C 9622  11.446   2.290  11.765  0.6916  1.0244  0.5528
   72MOL0     C 9623  11.477   2.138  11.778  0.6259  0.4098 -0.5935
   72MOL0     C 9624  11.618   2.130  11.739  0.1105  0.3218 -0.2509
   72MOL0     C 9625  11.688   1.998  11.787  0.7164  0.0260  0.0057
   72MOL0     C 9626  11.824   1.986  11.715  0.5899  1.0749  0.5542
   72MOL0     C 9627  11.931   1.901  11.781  0.3450 -0.3442 -0.6025
   72MOL0     C 9628  11.966   1.949  11.925  0.1277 -0.4097 -0.8416
   72MOL0    Cl 9629  12.097   1.852  11.993 -0.1578  0.2283 -0.3473
   72MOL0     C 9630  11.020   2.463  11.761 -0.0876 -0.8611 -0.1942
   72MOL0     C 9631  10.913   2.528  11.817  0.7450  1.2259  0.3387
   72MOL0     O 9632  10.666   2.691  11.808 -0.0064 -0.1892  0.7550
   72MOL0     C 9633  10.644   2.863  12.115 -0.3564  0.0382 -0.1166
   72MOL0     C 9634  10.538   2.926  12.190  0.1006  0.9564  0.3092
   72MOL0     N 9635   9.998   3.206  11.923  0.3983  0.2007  0.5613
   72MOL0     N 9636   9.924   3.245  11.824 -0.7153 -0.3663  0.1292
   72MOL0     C 9637   9.856   2.441  11.094  0.0818  0.1591  1.0380
   72MOL0     C 9638   9.734   2.379  11.057  0.3627  0.4490  0.0877
   72MOL0     C 9639   9.301   2.299  10.961 -0.5335 -0.7456 -0.1878
   72MOL0     C 9640   9.338   2.172  10.900 -0.2486  0.6777 -0.3957
   72MOL0     C 9641   9.249   2.096  10.826 -0.1416 -0.0578  0.4286
   72MOL0     C 9642   9.117   2.132  10.828  0.7447  0.0114 -0.0547
   72MOL0     O 9643   9.013   2.080  10.757 -0.0209 -0.0212 -0.1612
   72MOL0     C 9644   9.037   1.957  10.692  0.0182 -0.7773  0.1859
   72MOL0     C 9645   8.900   1.901  10.648 -0.4163 -0.2227 -0.0350
   72MOL0     C 9646   8.915   1.789  10.538  0.5401  0.0265  0.3405
   72MOL0     C 9647   8.779   1.718  10.524  0.0613  0.6179 -0.0918
   72MOL0     C 9648   8.686   1.797  10.446  0.8675  0.5968 -0.6283
   72MOL0     C 9649   8.599   1.852  10.375  0.5612 -0.4434 -1.0916
   72MOL0     C 9650   9.074   2.248  10.898  0.6023 -0.0318 -0.5093
   72MOL0     C 9651   9.163   2.333  10.965 -0.4707 -0.4690 -1.2053
   72MOL0     C 9652   9.112   2.469  11.016 -0.0978  1.3933 -0.3462
   72MOL0     H 9653   9.567   2.633  10.918  2.3128  0.2159 -1.4732
   72MOL0     H 9654   9.749   2.762  11.026 -2.7298  1.0334  1.3072
   72MOL0     H 9655   9.939   2.848  11.120  3.2618  1.1781  0.9546
   72MOL0     H 9656   9.878   2.758  11.264  0.4155  0.5960  0.6611
   72MOL0     H 9657  10.170   2.802  11.201  0.4633  4.0606  0.2025
   72MOL0     H 9658  10.093   2.751  11.358  1.1467  2.6895  1.6129
   72MOL0     H 9659  10.071   3.016  11.211  0.0693 -1.1210 -1.3486
   72MOL0     H 9660  10.177   2.989  11.357  0.2932  0.2072 -0.6734
   72MOL0     H 9661   9.870   2.959  11.355  0.0094  0.5331  0.3880
   72MOL0     H 9662   9.977   2.939  11.493  0.0493 -1.1793 -0.3194
   72MOL0     H 9663   9.947   3.197  11.327  2.2684 -2.1031 -1.4082
   72MOL0     H 9664   9.857   3.159  11.483  0.0508  0.9238 -0.9366
   72MOL0     H 9665  10.115   3.160  11.581 -2.1607 -2.0159  0.4813
   72MOL0     H 9666  10.144   3.198  11.412 -3.4703 -3.6892 -1.9798
   72MOL0     H 9667  10.002   3.402  11.423 -1.2121  2.3288  1.4848
   72MOL0     H 9668  10.137   3.419  11.531 -0.1521  2.8361 -2.0633
   72MOL0     H 9669   9.940   3.513  11.627  0.3180 -0.1293  2.4716
   72MOL0     H 9670   9.844   3.366  11.610 -0.2890 -0.9803  0.9056
   72MOL0     H 9671  10.163   3.471  11.809 -1.0022  1.0182 -0.1761
   72MOL0     H 9672  10.276   3.233  12.021 -1.2365 -2.3488  0.5845
   72MOL0     H 9673  10.231   3.401  12.064  1.3164 -0.3183 -0.7451
   72MOL0     H 9674  10.051   3.305  12.218 -0.9007  0.2752 -3.3143
   72MOL0     H 9675  10.101   3.155  12.171  1.2568 -0.5770  1.0990
   72MOL0     H 9676  10.191   3.204  12.391  0.5665 -3.6698 -1.2434
   72MOL0     H 9677  10.255   3.358  12.349 -1.0617 -1.1492  1.2902
   72MOL0     H 9678  10.402   3.128  12.368 -2.8518  1.5460  1.5574
   72MOL0     H 9679  10.434   3.244  12.233 -0.8395  3.1133  2.8083
   72MOL0     H 9680  10.335   2.987  11.932  0.3158  2.4094  0.8386
   72MOL0     H 9681  10.481   2.863  11.815 -2.3475  2.0349 -0.9167
   72MOL0     H 9682  11.081   2.787  11.958  0.2468 -0.8193  0.3268
   72MOL0     H 9683  11.264   2.677  11.865  0.4340 -1.1779  1.2731
   72MOL0     H 9684  11.274   2.294  11.883  1.2126 -0.9341  1.1404
   72MOL0     H 9685  11.236   2.265  11.705 -0.1459  1.3834 -0.2496
   72MOL0     H 9686  11.480   2.340  11.675 -1.2794  2.5386  0.5838
   72MOL0     H 9687  11.501   2.338  11.846  0.1661 -0.6534  1.9837
   72MOL0     H 9688  11.459   2.112  11.882 -2.2472  1.6679 -0.6549
   72MOL0     H 9689  11.410   2.074  11.719 -0.8998 -1.2015  2.6705
   72MOL0     H 9690  11.671   2.217  11.779  0.4961  0.1161 -0.3206
   72MOL0     H 9691  11.623   2.123  11.630  2.7273 -0.1812 -0.1422
   72MOL0     H 9692  11.622   1.914  11.768 -2.4393  2.5138 -0.9765
   72MOL0     H 9693  11.702   2.014  11.895  1.0248 -0.8863  0.1057
   72MOL0     H 9694  11.803   1.934  11.621 -0.0874  1.6939  0.3518
   72MOL0     H 9695  11.861   2.085  11.685  1.1129  0.2609 -1.6899
   72MOL0     H 9696  12.018   1.897  11.715  2.4441 -0.2547  2.0028
   72MOL0     H 9697  11.891   1.801  11.801 -3.9145  1.4910  1.4363
   72MOL0     H 9698  11.998   2.053  11.929 -2.0031  0.3508 -1.8754
   72MOL0     H 9699  11.880   1.931  11.991  1.2049  2.1130  1.4217
   72MOL0     H 9700  11.006   2.370  11.706 -0.9945 -0.6983 -0.2689
   72MOL0     H 9701  10.819   2.477  11.803  1.5877 -0.1710 -0.4898
   72MOL0     H 9702  10.724   2.820  12.174  0.1847  1.3192  0.1133
   72MOL0     H 9703  10.535   2.926  12.299 -2.7614  0.5052  0.3173
   72MOL0     H 9704   9.938   2.384  11.136  2.6503 -0.4672 -4.0976
   72MOL0     H 9705   9.728   2.271  11.062  1.5977  0.4165  1.6713
   72MOL0     H 9706   9.443   2.144  10.901 -0.7615 -1.5612 -1.5895
   72MOL0     H 9707   9.275   2.010  10.765 -1.9132 -0.2972 -0.0418
   72MOL0     H 9708   9.096   1.886  10.750  2.7743  0.2291 -1.2007
   72MOL0     H 9709   9.093   1.984  10.602  2.0183  0.7251  1.7924
   72MOL0     H 9710   8.848   1.974  10.586  1.7280  0.0365 -1.6653
   72MOL0     H 9711   8.842   1.862  10.733  0.7603 -0.6031  0.6191
   72MOL0     H 9712   8.987   1.713  10.569  1.3054  0.8942  0.7637
   72MOL0     H 9713   8.947   1.831  10.442  0.3167 -0.9312 -0.1567
   72MOL0     H 9714   8.785   1.618  10.482 -0.4733 -0.1854  1.6537
   72MOL0     H 9715   8.736   1.714  10.625 -1.7717  1.5793 -0.7882
   72MOL0     H 9716   8.505   1.870  10.327 -0.1322 -1.3630 -0.1307
   72MOL0     H 9717   8.975   2.293  10.893  0.7266  0.1468 -1.7371
   72MOL0     H 9718   9.007   2.484  10.991  0.1807  3.5434 -0.4683
   72MOL0     H 9719   9.145   2.489  11.118  1.5587  0.3313 -0.6398
   72MOL0     H 9720   9.164   2.547  10.958 -3.4205  1.5838 -3.4512
   73MOL0     O 9721   1.501   9.628   2.297  0.0312  0.4114  0.3743
   73MOL0     C 9722   1.548   9.675   2.397  0.9786 -0.1413 -0.0549
   73MOL0     O 9723   1.679   9.674   2.422 -0.0738 -0.2879  0.7943
   73MOL0     C 9724   1.769   9.661   2.320 -0.1842  0.4781 -0.0453
   73MOL0     C 9725   1.884   9.587   2.344  0.1358  0.1955  0.1512
   73MOL0     C 9726   1.990   9.571   2.257  0.2550  0.4055  0.7608
   73MOL0     C 9727   1.974   9.625   2.133  0.3821  0.2530  1.3194
   73MOL0     O 9728   2.065   9.597   2.028 -0.4003  0.1609 -0.1892
   73MOL0     C 9729   2.188   9.534   2.065 -0.1236  1.0634  0.6530
   73MOL0     C 9730   2.294   9.561   1.960  0.1274  0.8265  0.4301
   73MOL0     C 9731   2.426   9.526   2.018 -0.4059 -0.1031  0.0998
   73MOL0     C 9732   2.547   9.546   1.917  0.0075 -0.5632 -0.0550
   73MOL0     C 9733   2.645   9.425   1.921  0.4490  0.9932  0.2230
   73MOL0     C 9734   2.790   9.465   1.874  0.6958 -0.1094  0.9321
   73MOL0     C 9735   2.889   9.350   1.860  0.5815  0.2873  0.7647
   73MOL0     C 9736   3.029   9.395   1.822  0.3999 -0.7206 -0.1397
   73MOL0     N 9737   3.110   9.268   1.823 -0.3797 -0.1835  0.0797
   73MOL0     C 9738   3.137   9.200   1.710 -0.5387  0.2189  0.2448
   73MOL0     C 9739   3.195   9.088   1.764  1.2159 -0.5220  0.4755
   73MOL0     C 9740   3.236   8.969   1.683  0.2625 -0.1072 -0.3915
   73MOL0     C 9741   3.379   8.988   1.637 -0.2061 -0.5160 -0.5857
   73MOL0     C 9742   3.480   8.990   1.760  0.8828  0.5350 -0.2383
   73MOL0     C 9743   3.618   8.926   1.733  0.7897 -0.0872  0.3412
   73MOL0     O 9744   3.689   8.895   1.854  1.0690  0.0736 -0.2509
   73MOL0     C 9745   3.819   8.866   1.852  0.8303 -0.3799 -0.4038
   73MOL0     C 9746   3.898   8.893   1.739 -0.3294  0.6010  0.3616
   73MOL0     C 9747   4.036   8.862   1.741 -0.1960 -0.4962 -0.1301
   73MOL0     C 9748   4.103   8.825   1.858  0.2199 -0.4416  0.0559
   73MOL0     C 9749   4.248   8.827   1.870 -0.2155  0.9401 -0.6017
   73MOL0     O 9750   4.317   8.812   1.749  0.8133  0.4892 -0.0658
   73MOL0     C 9751   4.454   8.840   1.739 -0.4638 -0.8234  0.4431
   73MOL0     C 9752   4.533   8.748   1.666 -0.6197 -0.7356  0.1479
   73MOL0     C 9753   4.667   8.766   1.648 -0.4564  1.0846 -1.2796
   73MOL0     C 9754   4.731   8.866   1.711 -0.0926  0.6328  0.0656
   73MOL0     O 9755   4.865   8.873   1.690 -0.4597 -0.5371  0.3489
   73MOL0     C 9756   4.913   9.005   1.696  1.0188 -0.2935  0.1712
   73MOL0     C 9757   5.044   9.021   1.633 -1.2386  0.3473  0.5300
   73MOL0     C 9758   5.138   8.900   1.645 -0.3199 -0.5834  0.6590
   73MOL0     C 9759   5.179   8.884   1.793  0.0877  1.0008  0.2546
   73MOL0     C 9760   5.301   8.798   1.800 -0.1246 -0.1117  0.4135
   73MOL0     C 9761   5.319   8.749   1.939  0.2643  0.1254  0.0349
   73MOL0     C 9762   5.447   8.672   1.949 -0.7097 -0.2823 -0.3121
   73MOL0     C 9763   5.488   8.649   2.100  0.0086  0.0527  0.0061
   73MOL0    Cl 9764   5.653   8.586   2.130 -0.3069  0.1527 -0.0198
   73MOL0     C 9765   4.660   8.954   1.797  0.7075  0.3388 -0.5356
   73MOL0     C 9766   4.516   8.936   1.819  0.3391 -0.1347 -0.1203
   73MOL0     O 9767   4.298   8.824   1.980 -0.1017  0.3499 -0.0348
   73MOL0     C 9768   4.018   8.801   1.969  0.0751 -0.2590 -0.3704
   73MOL0     C 9769   3.874   8.812   1.961  0.1060  1.2148  0.2762
   73MOL0     N 9770   3.231   9.107   1.897  0.6658  0.3747  0.6078
   73MOL0     N 9771   3.167   9.214   1.932 -0.9655  0.4552 -0.6277
   73MOL0     C 9772   1.865   9.701   2.101 -0.8704  0.2045  0.7186
   73MOL0     C 9773   1.764   9.721   2.189  0.0302 -0.1846 -0.0225
   73MOL0     C 9774   1.453   9.682   2.513 -0.6326  0.8001 -0.1886
   73MOL0     C 9775   1.326   9.622   2.495  0.0191  0.1685 -0.0756
   73MOL0     C 9776   1.229   9.647   2.586 -0.5191 -0.8173  0.3343
   73MOL0     C 9777   1.237   9.736   2.695 -0.7302  0.2127  0.3930
   73MOL0     O 9778   1.131   9.750   2.771 -0.0885  0.1044  0.1094
   73MOL0     C 9779   1.134   9.822   2.893 -0.2993  0.0899  1.0083
   73MOL0     C 9780   0.997   9.789   2.953 -0.4461 -0.5183 -0.3357
   73MOL0     C 9781   0.961   9.895   3.048 -0.4533 -1.0474 -0.4190
   73MOL0     C 9782   0.836   9.851   3.121  0.0254  0.2423  0.0413
   73MOL0     C 9783   0.795   9.939   3.224  0.0962 -0.3603 -0.0512
   73MOL0     C 9784   0.769  10.015   3.316 -0.2172  0.7065  0.3995
   73MOL0     C 9785   1.362   9.793   2.719  0.0902 -0.4147  0.2109
   73MOL0     C 9786   1.471   9.768   2.627  0.2347 -0.2337 -0.1365
   73MOL0     C 9787   1.591   9.866   2.636  1.1758  0.3540  0.1042
   73MOL0     H 9788   1.876   9.550   2.445 -2.3963 -0.5329 -0.2363
   73MOL0     H 9789   2.080   9.514   2.279  0.6015  0.9577  0.8030
   73MOL0     H 9790   2.226   9.577   2.158 -0.6989 -2.7097  2.8425
   73MOL0     H 9791   2.164   9.427   2.075 -3.5322  1.5684 -0.6849
   73MOL0     H 9792   2.296   9.667   1.934 -0.9686  0.1477 -2.9781
   73MOL0     H 9793   2.283   9.506   1.866  0.6539  0.7931  0.3829
   73MOL0     H 9794   2.421   9.422   2.052 -1.6954  0.4912  1.8781
   73MOL0     H 9795   2.455   9.597   2.097  0.0832  2.1541 -1.9785
   73MOL0     H 9796   2.504   9.543   1.816  0.3515 -0.2722 -0.2132
   73MOL0     H 9797   2.581   9.648   1.937 -1.4730 -0.4146  2.0654
   73MOL0     H 9798   2.664   9.390   2.023  2.2449  1.1265 -0.0336
   73MOL0     H 9799   2.595   9.347   1.862 -0.6312  1.0680  1.0040
   73MOL0     H 9800   2.789   9.504   1.771  1.7377 -1.2085  0.4879
   73MOL0     H 9801   2.816   9.549   1.939 -0.9794  2.0811 -1.0178
   73MOL0     H 9802   2.853   9.287   1.779 -2.2732 -0.7473  2.6979
   73MOL0     H 9803   2.888   9.303   1.959 -4.0052  1.1700  1.3556
   73MOL0     H 9804   3.040   9.443   1.724 -1.5534  0.0809 -0.0115
   73MOL0     H 9805   3.055   9.459   1.906  2.0393 -1.9442  0.3535
   73MOL0     H 9806   3.093   9.220   1.613  0.0155 -0.5296 -0.1715
   73MOL0     H 9807   3.229   8.879   1.745  4.3310 -0.9453 -0.8785
   73MOL0     H 9808   3.168   8.957   1.598 -2.2478  0.3199  1.4102
   73MOL0     H 9809   3.407   8.902   1.574 -1.0069 -1.4618  0.3182
   73MOL0     H 9810   3.398   9.080   1.580  0.2261  0.2731  0.7874
   73MOL0     H 9811   3.435   8.942   1.847 -0.0699 -1.7020 -1.8445
   73MOL0     H 9812   3.502   9.092   1.790 -2.5754  1.9635 -1.9824
   73MOL0     H 9813   3.673   8.999   1.674 -1.1190  2.8541  1.9420
   73MOL0     H 9814   3.596   8.834   1.678 -2.7974  0.2813  0.9145
   73MOL0     H 9815   3.869   8.951   1.652  0.5353  1.1572  0.4274
   73MOL0     H 9816   4.102   8.877   1.655 -1.1340 -3.2127 -1.4355
   73MOL0     H 9817   4.483   8.664   1.617  0.5365 -2.4985  1.8394
   73MOL0     H 9818   4.715   8.689   1.589  0.8192  0.8249  0.0596
   73MOL0     H 9819   4.849   9.085   1.656  0.9753 -1.4646 -2.3170
   73MOL0     H 9820   4.932   9.022   1.802  1.7432 -2.5095  0.4316
   73MOL0     H 9821   5.026   9.043   1.527 -0.3972  0.2813  0.3722
   73MOL0     H 9822   5.088   9.111   1.676 -0.2756 -0.6590  1.7386
   73MOL0     H 9823   5.090   8.806   1.614 -1.2251  0.2520 -0.5225
   73MOL0     H 9824   5.225   8.918   1.583 -0.9053  1.0232  0.2722
   73MOL0     H 9825   5.107   8.816   1.841  0.7213  0.3953  0.3529
   73MOL0     H 9826   5.183   8.968   1.863  0.0308 -0.2967  1.8962
   73MOL0     H 9827   5.386   8.862   1.773  1.6643 -2.6936 -0.5557
   73MOL0     H 9828   5.311   8.714   1.731 -1.4703 -0.3225  0.4485
   73MOL0     H 9829   5.304   8.826   2.015  2.1789 -0.3001  0.8971
   73MOL0     H 9830   5.244   8.670   1.951 -0.7510  1.0956  0.2075
   73MOL0     H 9831   5.529   8.729   1.905 -0.9460  1.5143  1.4651
   73MOL0     H 9832   5.437   8.573   1.903  0.9187  0.8026 -3.3082
   73MOL0     H 9833   5.466   8.742   2.154 -2.5133  0.2781 -1.2339
   73MOL0     H 9834   5.411   8.588   2.147  1.3663 -1.0332  0.8679
   73MOL0     H 9835   4.712   9.022   1.864  0.1483 -1.3070  1.7238
   73MOL0     H 9836   4.468   9.002   1.890  1.1498 -0.8208  1.1220
   73MOL0     H 9837   4.046   8.778   2.072 -2.9503 -2.4711  0.0950
   73MOL0     H 9838   3.808   8.778   2.041  0.6846 -0.8275 -0.0601
   73MOL0     H 9839   1.862   9.752   2.005 -1.0422  1.4591  1.3797
   73MOL0     H 9840   1.687   9.793   2.164 -3.8438 -3.1797  2.0399
   73MOL0     H 9841   1.302   9.566   2.404  1.9220 -4.3483  1.8876
   73MOL0     H 9842   1.127   9.618   2.561 -0.2776 -1.3302 -0.0867
   73MOL0     H 9843   1.142   9.925   2.857 -0.5455 -0.4081 -0.5129
   73MOL0     H 9844   1.211   9.780   2.958 -1.6756 -1.1775  1.8953
   73MOL0     H 9845   1.000   9.691   3.000  2.4337 -0.6560 -0.6381
   73MOL0     H 9846   0.916   9.790   2.879 -1.2003  2.6208  0.3432
   73MOL0     H 9847   0.935   9.991   3.004 -0.6431 -0.3553  1.1419
   73MOL0     H 9848   1.044   9.909   3.118 -1.5506 -1.0299  0.9392
   73MOL0     H 9849   0.759   9.852   3.044  3.0311  0.7438 -3.1876
   73MOL0     H 9850   0.844   9.749   3.160  0.3780 -0.4926 -1.8396
   73MOL0     H 9851   0.756  10.081   3.399 -0.1515  1.1660  0.0499
   73MOL0     H 9852   1.384   9.859   2.802  1.7698 -0.0121 -0.5133
   73MOL0     H 9853   1.670   9.814   2.692  1.1400  1.1192  0.8915
   73MOL0     H 9854   1.638   9.879   2.538  2.5448  0.7454  0.7764
   73MOL0     H 9855   1.558   9.959   2.684 -3.0829 -2.2704  2.9200
   74MOL0     O 9856   4.676   1.196   2.822  0.6120 -0.2815  0.1893
   74MOL0     C 9857   4.741   1.172   2.720  0.4331 -0.1486  0.5167
   74MOL0     O 9858   4.875   1.155   2.723  0.0637 -0.3087  0.5063
   74MOL0     C 9859   4.912   1.063   2.821 -0.0202 -0.7511  0.2843
   74MOL0     C 9860   5.043   1.073   2.874  0.9168 -0.1642 -0.3918
   74MOL0     C 9861   5.091   0.978   2.966 -0.4929  1.0714 -0.4956
   74MOL0     C 9862   5.019   0.865   2.987 -0.5912 -0.0722 -0.8476
   74MOL0     O 9863   5.093   0.761   3.049  0.4467  0.0041  0.0703
   74MOL0     C 9864   5.081   0.627   2.991  0.6000  0.2095 -0.4517
   74MOL0     C 9865   5.141   0.609   2.853  0.1434  0.4331  0.3498
   74MOL0     C 9866   5.299   0.591   2.849 -0.2815  0.3945 -1.2533
   74MOL0     C 9867   5.349   0.563   2.711  0.2558 -0.5248  0.1240
   74MOL0     C 9868   5.503   0.529   2.726  0.6180  0.6200  1.0018
   74MOL0     C 9869   5.524   0.385   2.766  0.2687 -0.6076 -1.5318
   74MOL0     C 9870   5.658   0.317   2.729 -0.1326 -0.4616 -0.2714
   74MOL0     C 9871   5.683   0.198   2.818  0.0038 -0.4129 -0.0475
   74MOL0     N 9872   5.801   0.128   2.775 -0.0498 -0.2753 -0.3844
   74MOL0     C 9873   5.922   0.146   2.824 -0.2340 -1.1421 -0.2936
   74MOL0     C 9874   6.011   0.067   2.755  0.3516 -0.1604  0.6271
   74MOL0     C 9875   6.162   0.070   2.755 -0.6917 -0.2580  0.3610
   74MOL0     C 9876   6.222  -0.051   2.690  0.1124  0.4075 -0.5604
   74MOL0     C 9877   6.375  -0.064   2.715  0.8859  0.7674 -0.0255
   74MOL0     C 9878   6.439  -0.187   2.648 -0.5900 -0.6995  0.5279
   74MOL0     O 9879   6.501  -0.272   2.743 -0.4114 -0.6676  0.1893
   74MOL0     C 9880   6.617  -0.237   2.803  0.0836  0.3416 -0.3181
   74MOL0     C 9881   6.645  -0.308   2.921  0.6417 -0.4551 -0.6215
   74MOL0     C 9882   6.762  -0.280   2.991 -0.9840 -0.0991  0.0430
   74MOL0     C 9883   6.861  -0.193   2.929 -0.0096 -0.7336 -0.3474
   74MOL0     C 9884   6.997  -0.178   2.987 -0.5022 -0.6082  1.1391
   74MOL0     O 9885   7.030  -0.255   3.095  0.3920 -0.3345 -0.4527
   74MOL0     C 9886   7.147  -0.261   3.168  0.0859 -1.2912 -0.3536
   74MOL0     C 9887   7.250  -0.160   3.166  0.0199 -0.3995 -0.2136
   74MOL0     C 9888   7.368  -0.184   3.240 -0.7754  0.3499 -0.1838
   74MOL0     C 9889   7.389  -0.301   3.312  0.2736  0.3728 -0.8796
   74MOL0     O 9890   7.510  -0.312   3.380 -0.1790 -0.0647 -0.9597
   74MOL0     C 9891   7.519  -0.436   3.457 -0.8373  0.4196  0.0233
   74MOL0     C 9892   7.658  -0.448   3.532  1.2632 -0.2858 -0.3264
   74MOL0     C 9893   7.672  -0.383   3.663 -0.4737 -0.0549 -0.1281
   74MOL0     C 9894   7.813  -0.423   3.723  0.1240 -0.3991 -0.2611
   74MOL0     C 9895   7.830  -0.364   3.857  0.4659  0.2451 -0.0100
   74MOL0     C 9896   7.978  -0.374   3.899 -0.2902 -0.0903  0.2213
   74MOL0     C 9897   8.002  -0.402   4.047  0.2844 -0.0998 -0.1623
   74MOL0     C 9898   8.155  -0.419   4.079  0.2194 -0.1186  0.3839
   74MOL0    Cl 9899   8.237  -0.269   4.033 -0.1990  0.2151  0.0978
   74MOL0     C 9900   7.291  -0.410   3.303 -0.1430  0.0114  0.4166
   74MOL0     C 9901   7.176  -0.386   3.235 -0.5155 -0.6389 -0.1117
   74MOL0     O 9902   7.073  -0.092   2.932 -0.5225  0.9177 -0.2692
   74MOL0     C 9903   6.816  -0.103   2.825 -0.7071  0.5475  0.4523
   74MOL0     C 9904   6.699  -0.132   2.754 -0.7152  0.2110  0.3184
   74MOL0     N 9905   5.931  -0.012   2.669 -0.4301 -0.9083  0.0346
   74MOL0     N 9906   5.802   0.018   2.691 -0.0524  0.3432 -0.5491
   74MOL0     C 9907   4.888   0.855   2.933 -0.3986  0.4364 -0.0965
   74MOL0     C 9908   4.833   0.950   2.856 -1.1213 -0.4803 -0.4525
   74MOL0     C 9909   4.667   1.203   2.592  0.2053 -0.4584 -0.5470
   74MOL0     C 9910   4.742   1.254   2.484  0.3878 -0.7042 -0.5290
   74MOL0     C 9911   4.674   1.292   2.366 -0.2831  0.5784 -0.0118
   74MOL0     C 9912   4.543   1.261   2.341 -0.6146 -0.0575 -0.4195
   74MOL0     O 9913   4.497   1.289   2.211 -0.1838  0.4591  0.1758
   74MOL0     C 9914   4.367   1.242   2.169 -0.5755 -0.6750  0.8461
   74MOL0     C 9915   4.364   1.104   2.097  0.2552 -0.4925 -0.3237
   74MOL0     C 9916   4.467   1.110   1.975 -0.9847  0.7418  0.4137
   74MOL0     C 9917   4.400   1.078   1.840  0.3038  0.5478  0.1277
   74MOL0     C 9918   4.389   0.935   1.813  0.1371 -0.6202 -0.0122
   74MOL0     C 9919   4.404   0.821   1.783 -0.1200  0.1671 -0.1260
   74MOL0     C 9920   4.471   1.204   2.444  0.3427  0.4324 -0.6041
   74MOL0     C 9921   4.521   1.183   2.578 -0.6200 -0.6983  0.7273
   74MOL0     C 9922   4.431   1.127   2.685 -0.1702 -1.2622 -1.0643
   74MOL0     H 9923   5.104   1.159   2.847  0.1557  0.6974  0.5602
   74MOL0     H 9924   5.186   0.988   3.017 -1.1118 -0.5072  1.0550
   74MOL0     H 9925   5.121   0.549   3.056 -0.2891  2.8663  3.7674
   74MOL0     H 9926   4.973   0.609   2.982  0.2455  0.2005  2.6752
   74MOL0     H 9927   5.119   0.700   2.797  0.8698 -0.0711 -0.8006
   74MOL0     H 9928   5.101   0.522   2.800  5.7000 -1.3942 -1.5256
   74MOL0     H 9929   5.328   0.515   2.922  0.9890  0.9211 -1.1909
   74MOL0     H 9930   5.338   0.689   2.878  0.0922 -0.0988 -0.0161
   74MOL0     H 9931   5.292   0.477   2.673  3.5634 -4.6856  3.5272
   74MOL0     H 9932   5.337   0.657   2.656 -1.9189 -0.5643  0.4417
   74MOL0     H 9933   5.548   0.547   2.628 -0.5305  2.7503  0.7848
   74MOL0     H 9934   5.554   0.605   2.787  1.8935 -0.4091  1.2566
   74MOL0     H 9935   5.511   0.374   2.874 -3.1286 -0.7328 -1.8429
   74MOL0     H 9936   5.442   0.323   2.728  0.6227 -2.3814  0.4002
   74MOL0     H 9937   5.731   0.398   2.733 -2.3863  1.7050 -0.3647
   74MOL0     H 9938   5.661   0.284   2.625  2.7237  1.1247 -0.8157
   74MOL0     H 9939   5.686   0.223   2.924  1.6180 -0.7997  0.0196
   74MOL0     H 9940   5.610   0.117   2.809 -1.1693  0.2259  2.7695
   74MOL0     H 9941   5.949   0.229   2.888 -0.3856 -1.0184 -0.3900
   74MOL0     H 9942   6.191   0.161   2.701 -2.5723  0.4808  0.5140
   74MOL0     H 9943   6.203   0.078   2.856 -2.6504 -2.5926  1.4494
   74MOL0     H 9944   6.167  -0.137   2.730 -0.5182  0.9054 -0.3226
   74MOL0     H 9945   6.200  -0.062   2.584 -0.1349 -2.0826 -0.3164
   74MOL0     H 9946   6.384  -0.082   2.823  0.9078  2.6841  0.3409
   74MOL0     H 9947   6.435   0.021   2.680  3.5116 -2.0940 -3.1919
   74MOL0     H 9948   6.510  -0.157   2.570 -0.8155 -1.0324  0.1913
   74MOL0     H 9949   6.353  -0.234   2.598 -2.1137  2.0550  0.3711
   74MOL0     H 9950   6.585  -0.386   2.967 -0.5166  1.0814  0.6125
   74MOL0     H 9951   6.784  -0.334   3.082  0.6470  1.1070  0.4153
   74MOL0     H 9952   7.245  -0.069   3.107  0.2477 -1.0567 -1.2759
   74MOL0     H 9953   7.450  -0.113   3.247 -0.7525  0.5002 -1.6746
   74MOL0     H 9954   7.435  -0.455   3.523 -0.5443  0.1135  0.3110
   74MOL0     H 9955   7.529  -0.514   3.381 -0.7868 -0.4025  0.8552
   74MOL0     H 9956   7.662  -0.554   3.558 -2.2320  0.0249  2.2425
   74MOL0     H 9957   7.738  -0.410   3.469  1.9370  0.1870  0.7919
   74MOL0     H 9958   7.665  -0.275   3.648  1.0293 -0.2575 -3.0692
   74MOL0     H 9959   7.596  -0.422   3.731  0.4543 -0.0911  0.9140
   74MOL0     H 9960   7.893  -0.383   3.659  0.3395 -2.5555 -1.4084
   74MOL0     H 9961   7.826  -0.531   3.735  0.8945 -0.2472  0.3465
   74MOL0     H 9962   7.765  -0.422   3.923  2.4457 -1.4234  0.5921
   74MOL0     H 9963   7.781  -0.267   3.866 -0.4256  0.0684 -2.2489
   74MOL0     H 9964   8.041  -0.443   3.842  3.0091  2.0303  1.0143
   74MOL0     H 9965   8.011  -0.271   3.884  0.0684 -0.4941 -2.0464
   74MOL0     H 9966   7.949  -0.490   4.083  1.7983 -2.0543 -2.4026
   74MOL0     H 9967   7.945  -0.332   4.110  0.0841 -0.3036 -0.1183
   74MOL0     H 9968   8.159  -0.436   4.187 -3.0602 -0.9338  0.4912
   74MOL0     H 9969   8.210  -0.495   4.025  1.2381  0.4889  0.5410
   74MOL0     H 9970   7.306  -0.512   3.337 -2.4639 -0.7819 -0.7268
   74MOL0     H 9971   7.099  -0.462   3.224 -1.4388  0.3646 -0.7996
   74MOL0     H 9972   6.871  -0.010   2.814  0.1518  0.0359  0.3243
   74MOL0     H 9973   6.661  -0.057   2.685  1.3484 -0.0930 -1.2648
   74MOL0     H 9974   4.824   0.768   2.936 -1.5625  1.2582 -0.5985
   74MOL0     H 9975   4.734   0.930   2.814 -1.2528  1.0605 -0.9154
   74MOL0     H 9976   4.850   1.260   2.492  0.2351  2.1898  0.7934
   74MOL0     H 9977   4.734   1.348   2.295 -0.6178  0.8739 -0.0681
   74MOL0     H 9978   4.335   1.318   2.097 -1.1833  0.8433  2.6383
   74MOL0     H 9979   4.292   1.256   2.247 -2.9971 -2.0841 -1.0540
   74MOL0     H 9980   4.258   1.085   2.076 -0.6862  2.3409  1.2382
   74MOL0     H 9981   4.389   1.038   2.180 -1.8654  2.3353  2.8447
   74MOL0     H 9982   4.558   1.054   1.999  0.3401  2.5365 -0.2361
   74MOL0     H 9983   4.511   1.209   1.964 -3.4416  1.9532  0.8657
   74MOL0     H 9984   4.300   1.120   1.826  0.5226  0.2024 -3.5965
   74MOL0     H 9985   4.466   1.112   1.760  1.0451 -1.1455 -0.0367
   74MOL0     H 9986   4.412   0.716   1.763 -1.9260 -0.5247  2.3738
   74MOL0     H 9987   4.368   1.171   2.443  1.1680 -2.3562 -1.5065
   74MOL0     H 9988   4.482   1.061   2.756 -3.0491  0.4760  3.0585
   74MOL0     H 9989   4.384   1.212   2.736  0.2840 -1.6798  0.0710
   74MOL0     H 9990   4.351   1.070   2.636 -2.2143 -1.9351  2.6576
   75MOL0     O 9991   8.408   8.163   8.757 -0.6125 -0.1208 -0.3762
   75MOL0     C 9992   8.362   8.237   8.846  0.2649  0.2614  0.9386
   75MOL0     O 9993   8.436   8.313   8.931  0.2025 -0.4259 -0.2444
   75MOL0     C 9994   8.563   8.362   8.905 -0.0431  0.5778 -0.3998
   75MOL0     C 9995   8.618   8.364   8.780 -0.0793  0.7137  1.5639
   75MOL0     C 9996   8.737   8.422   8.754  0.4273 -0.5709  0.3708
   75MOL0     C 9997   8.810   8.484   8.854 -0.4841 -0.0646  0.6935
   75MOL0     O 9998   8.921   8.558   8.822 -0.4410 -0.4670 -0.1351
   75MOL0     C 9999   8.910   8.690   8.761  0.7772 -0.2588 -0.2931
   75MOL0     C10000   8.995   8.730   8.636  0.6239  1.1829 -0.1274
   75MOL0     C10001   9.145   8.709   8.647  0.1847  0.1717 -0.7901
   75MOL0     C10002   9.213   8.695   8.514  1.2161  0.4603 -0.5018
   75MOL0     C10003   9.363   8.666   8.517 -1.0040 -0.4877  0.0693
   75MOL0     C10004   9.387   8.521   8.564  0.5467 -0.4110 -0.7688
   75MOL0     C10005   9.531   8.480   8.578 -0.2711  0.2988  0.0029
   75MOL0     C10006   9.614   8.522   8.456 -0.5933 -1.2424 -0.7990
   75MOL0     N10007   9.754   8.485   8.476 -0.3019  0.1673  0.6371
   75MOL0     C10008   9.808   8.363   8.455 -0.5388  0.0753 -0.9943
   75MOL0     C10009   9.937   8.379   8.505 -0.1309  0.5459  0.1001
   75MOL0     C10010  10.035   8.282   8.499 -0.9897  0.1726  0.3509
   75MOL0     C10011  10.160   8.335   8.432 -0.1547  0.1733  0.4274
   75MOL0     C10012  10.278   8.236   8.414  0.6244 -0.4514 -0.3344
   75MOL0     C10013  10.403   8.304   8.384 -0.9853 -0.5209  0.0670
   75MOL0     O10014  10.491   8.272   8.493 -0.2722  0.0086 -0.5294
   75MOL0     C10015  10.625   8.243   8.462  0.0504  0.3567 -0.3109
   75MOL0     C10016  10.720   8.219   8.563  1.2858 -0.5509 -0.2149
   75MOL0     C10017  10.855   8.202   8.546 -0.5276  0.1119 -0.0554
   75MOL0     C10018  10.915   8.214   8.417 -0.6586  0.0330 -0.3392
   75MOL0     C10019  11.065   8.193   8.399 -0.1317  0.3437  0.7517
   75MOL0     O10020  11.115   8.188   8.276  0.3497  0.0586 -0.2375
   75MOL0     C10021  11.249   8.191   8.257 -1.2404 -0.3126 -0.4073
   75MOL0     C10022  11.331   8.283   8.327 -0.1222  0.4757  0.7097
   75MOL0     C10023  11.473   8.282   8.303 -0.2469  0.1329  0.1578
   75MOL0     C10024  11.528   8.190   8.213 -0.1483 -0.1565 -0.0238
   75MOL0     O10025  11.661   8.188   8.178  0.1196 -0.2715 -0.7451
   75MOL0     C10026  11.748   8.292   8.209  0.3068 -0.5350  0.1925
   75MOL0     C10027  11.871   8.266   8.136 -0.1965 -0.3298  0.2790
   75MOL0     C10028  11.856   8.272   7.981  0.0501  0.3877 -0.4247
   75MOL0     C10029  11.988   8.271   7.910  0.0337 -0.4798 -0.3364
   75MOL0     C10030  11.996   8.325   7.770 -0.0662 -0.0113  0.4311
   75MOL0     C10031  11.933   8.213   7.676  0.3659 -0.2218  0.0220
   75MOL0     C10032  11.932   8.240   7.524 -0.3850 -0.9039  0.0948
   75MOL0     C10033  11.920   8.108   7.439  0.0242 -0.1629  0.5106
   75MOL0    Cl10034  11.758   8.032   7.486 -0.1310 -0.2078 -0.2867
   75MOL0     C10035  11.442   8.105   8.148 -0.2007 -0.4155  0.0476
   75MOL0     C10036  11.303   8.102   8.174 -0.2806  1.1066  0.2238
   75MOL0     O10037  11.132   8.197   8.507 -0.8941  0.1931  0.0677
   75MOL0     C10038  10.831   8.249   8.317  0.3617  0.0184  0.6144
   75MOL0     C10039  10.689   8.259   8.333  0.4620  0.3051 -0.1652
   75MOL0     N10040   9.952   8.501   8.559  0.0155  0.8748 -0.0028
   75MOL0     N10041   9.833   8.562   8.548 -0.4479 -0.4467 -0.1999
   75MOL0     C10042   8.760   8.482   8.988  0.1238  0.0285  0.4074
   75MOL0     C10043   8.635   8.421   9.010 -0.1093  0.5464  1.0585
   75MOL0     C10044   8.213   8.248   8.856 -0.7071  0.6810  0.0798
   75MOL0     C10045   8.162   8.267   8.985 -0.0814  0.2401 -0.5469
   75MOL0     C10046   8.017   8.283   8.998  0.1096  0.4078 -0.0795
   75MOL0     C10047   7.919   8.260   8.898  0.0177 -0.3091  0.6786
   75MOL0     O10048   7.782   8.281   8.899 -0.5116 -0.2833 -0.4247
   75MOL0     C10049   7.720   8.351   9.007 -0.3679  0.2149 -0.1480
   75MOL0     C10050   7.737   8.500   8.978  0.4818  0.6260 -0.4669
   75MOL0     C10051   7.734   8.590   9.093 -0.2080 -0.0385 -0.2026
   75MOL0     C10052   7.727   8.729   9.021  0.4135 -0.3729  0.2213
   75MOL0     C10053   7.782   8.831   9.116 -0.4727 -0.4531  0.6008
   75MOL0     C10054   7.815   8.911   9.197  0.1286  0.2707 -0.5402
   75MOL0     C10055   7.972   8.223   8.775  0.3361 -0.2968  0.0414
   75MOL0     C10056   8.116   8.213   8.755  0.1286 -0.4560  0.6925
   75MOL0     C10057   8.156   8.178   8.615  0.1488  0.1645  0.8874
   75MOL0     H10058   8.568   8.324   8.693  1.3557  2.1216  0.0357
   75MOL0     H10059   8.778   8.397   8.657 -0.8765 -0.9690 -0.0952
   75MOL0     H10060   8.806   8.717   8.736 -0.2786 -3.6918 -0.0878
   75MOL0     H10061   8.954   8.765   8.827 -1.6561  0.9738  0.0515
   75MOL0     H10062   8.987   8.837   8.612  3.5103  1.1806 -1.5263
   75MOL0     H10063   8.956   8.669   8.554 -2.1608  2.3801  0.1734
   75MOL0     H10064   9.158   8.611   8.696  3.7453  1.0726  0.3687
   75MOL0     H10065   9.201   8.783   8.705  1.5713  1.4356 -3.5653
   75MOL0     H10066   9.168   8.618   8.452  1.4414 -0.3680  0.3376
   75MOL0     H10067   9.199   8.793   8.467 -1.2999  1.1830  1.5667
   75MOL0     H10068   9.396   8.683   8.414  0.4353 -0.5386  0.4939
   75MOL0     H10069   9.401   8.751   8.575 -0.9451 -1.2540  1.2054
   75MOL0     H10070   9.334   8.506   8.658 -0.4200  2.8520 -0.6634
   75MOL0     H10071   9.338   8.459   8.489 -2.2420  1.2310 -0.4388
   75MOL0     H10072   9.540   8.372   8.593  3.0849  0.7690  2.5736
   75MOL0     H10073   9.560   8.527   8.673 -0.7253 -2.7635  1.8110
   75MOL0     H10074   9.577   8.480   8.362 -1.1020  1.2981 -1.8138
   75MOL0     H10075   9.619   8.630   8.439 -0.7413 -1.2726 -1.0573
   75MOL0     H10076   9.762   8.280   8.402 -0.6593  0.5191 -1.5945
   75MOL0     H10077  10.060   8.236   8.595  0.9334  0.3369 -0.0326
   75MOL0     H10078  10.006   8.197   8.436  1.8491  0.8346 -2.0953
   75MOL0     H10079  10.137   8.364   8.329 -0.9897  2.0287  1.0926
   75MOL0     H10080  10.192   8.430   8.477 -3.4792  2.4155 -1.4688
   75MOL0     H10081  10.254   8.164   8.335 -1.3565 -1.6648  1.2955
   75MOL0     H10082  10.288   8.178   8.506  0.0131  0.8999  0.6050
   75MOL0     H10083  10.385   8.409   8.361 -0.8828 -0.3274  0.8797
   75MOL0     H10084  10.431   8.263   8.286 -1.5773 -0.0610 -0.3093
   75MOL0     H10085  10.689   8.208   8.667  0.2497 -0.2648 -0.4842
   75MOL0     H10086  10.902   8.170   8.638 -1.1453 -0.1803  0.1651
   75MOL0     H10087  11.275   8.349   8.392 -1.2727  0.4721 -0.2289
   75MOL0     H10088  11.534   8.352   8.359 -2.8400  2.0105  0.8216
   75MOL0     H10089  11.700   8.385   8.177  3.4659  1.4488  0.7802
   75MOL0     H10090  11.768   8.299   8.317  2.3479  1.7379 -0.2675
   75MOL0     H10091  11.944   8.342   8.166 -0.6237  0.2676 -0.1778
   75MOL0     H10092  11.906   8.164   8.151  1.0707 -0.0533 -0.6382
   75MOL0     H10093  11.802   8.186   7.940  0.0879 -0.0460  0.4216
   75MOL0     H10094  11.800   8.363   7.959  0.5347  0.1830 -2.8193
   75MOL0     H10095  12.000   8.162   7.917 -4.8956 -1.1961  0.6371
   75MOL0     H10096  12.064   8.327   7.966  0.9308 -0.3560 -1.6235
   75MOL0     H10097  12.100   8.348   7.742  1.3449 -3.2863  2.4222
   75MOL0     H10098  11.947   8.423   7.770  1.7488  0.9571  1.6363
   75MOL0     H10099  11.999   8.128   7.693 -2.2531 -2.6415 -1.0212
   75MOL0     H10100  11.833   8.186   7.713  0.6512 -0.8012  0.3879
   75MOL0     H10101  12.023   8.293   7.496  0.6835 -2.4782  0.4712
   75MOL0     H10102  11.847   8.302   7.496  0.0741  0.4060  1.5293
   75MOL0     H10103  11.924   8.127   7.331  0.8804 -3.2927 -0.1184
   75MOL0     H10104  12.005   8.044   7.461  1.3769  1.5653  0.4789
   75MOL0     H10105  11.487   8.036   8.078 -0.4679 -0.5273 -0.0173
   75MOL0     H10106  11.237   8.035   8.120 -0.9444  2.6694 -0.9773
   75MOL0     H10107  10.849   8.251   8.210 -0.7948  0.3266  0.4125
   75MOL0     H10108  10.632   8.290   8.246  1.3706  4.1880  0.4637
   75MOL0     H10109   8.829   8.515   9.066  1.6090  2.1153 -1.6333
   75MOL0     H10110   8.596   8.421   9.112 -0.4052  0.3150  0.9450
   75MOL0     H10111   8.234   8.290   9.063 -2.2943  1.8910  1.1482
   75MOL0     H10112   7.982   8.324   9.092 -0.0700  0.9352 -0.3714
   75MOL0     H10113   7.762   8.322   9.104  3.7348  1.2316 -1.3841
   75MOL0     H10114   7.612   8.336   9.007 -0.5803  1.5244 -0.9245
   75MOL0     H10115   7.671   8.530   8.897  1.3523  0.0914 -1.4039
   75MOL0     H10116   7.834   8.522   8.931  0.2237 -0.6613 -1.6584
   75MOL0     H10117   7.822   8.593   9.157 -1.9430  4.7963  2.4870
   75MOL0     H10118   7.649   8.576   9.161  0.7426 -1.0686  0.8123
   75MOL0     H10119   7.777   8.738   8.923 -2.4740 -1.9802 -1.5453
   75MOL0     H10120   7.625   8.756   8.991  1.1770  0.8373 -1.4866
   75MOL0     H10121   7.839   8.987   9.269  1.8476  1.3764 -2.1828
   75MOL0     H10122   7.906   8.201   8.692 -1.1484  0.2221  1.0415
   75MOL0     H10123   8.196   8.076   8.612  1.0327  0.4602  1.9569
   75MOL0     H10124   8.079   8.198   8.540  1.7792  2.1586 -0.3603
   75MOL0     H10125   8.234   8.250   8.590 -1.7387  1.5056 -1.6589
   76MOL0     O10126   9.494   9.135   5.006  0.7477  0.2401 -0.1751
   76MOL0     C10127   9.529   9.046   4.931 -0.5595  0.0981  0.0029
   76MOL0     O10128   9.649   9.040   4.861 -0.3209  0.1930 -0.2010
   76MOL0     C10129   9.714   9.159   4.847 -0.4945  0.4384 -0.0361
   76MOL0     C10130   9.712   9.223   4.722  0.8924 -0.7193  0.7285
   76MOL0     C10131   9.762   9.357   4.705  0.8104  0.0455 -0.3366
   76MOL0     C10132   9.808   9.434   4.816 -0.2122 -0.2313  0.2385
   76MOL0     O10133   9.848   9.562   4.813 -0.0764 -0.3455 -0.4757
   76MOL0     C10134   9.981   9.584   4.755 -0.6777  0.0605  1.0638
   76MOL0     C10135  10.095   9.532   4.840 -1.0625 -0.2322 -1.1570
   76MOL0     C10136  10.133   9.634   4.950  0.3209  0.1736 -0.5457
   76MOL0     C10137  10.016   9.643   5.043  0.5444  0.2110 -0.3394
   76MOL0     C10138  10.062   9.728   5.167 -0.5603  0.4716  0.5393
   76MOL0     C10139  10.084   9.874   5.130  0.1044  0.6047  0.5626
   76MOL0     C10140  10.111   9.954   5.263  0.5484 -0.7204 -1.0399
   76MOL0     C10141  10.213  10.070   5.236 -0.0228 -0.3564 -0.8064
   76MOL0     N10142  10.354  10.022   5.206  0.3257  0.0047 -0.7161
   76MOL0     C10143  10.450  10.097   5.141 -0.6276  0.5987  0.1268
   76MOL0     C10144  10.563  10.016   5.141  0.8078  0.6655 -0.1146
   76MOL0     C10145  10.711  10.040   5.095 -0.9885  0.6926 -0.4102
   76MOL0     C10146  10.806  10.095   5.208 -0.3554  1.3202 -0.0598
   76MOL0     C10147  10.797  10.012   5.338 -0.0817  0.6850  0.1537
   76MOL0     C10148  10.937   9.993   5.401  0.3738 -0.4673 -0.0189
   76MOL0     O10149  10.998  10.118   5.434 -0.3412  0.3538 -0.4045
   76MOL0     C10150  11.130  10.095   5.486 -0.0033 -0.8191  0.0034
   76MOL0     C10151  11.206  10.206   5.462  0.0115 -0.2064 -0.4072
   76MOL0     C10152  11.346  10.208   5.496  0.5364 -0.1600 -0.3190
   76MOL0     C10153  11.395  10.101   5.575 -0.4095  0.3981  0.6537
   76MOL0     C10154  11.541  10.097   5.604  0.3094 -0.6659  0.5027
   76MOL0     O10155  11.611  10.185   5.522 -0.2878 -0.0904  0.2864
   76MOL0     C10156  11.745  10.183   5.512 -0.8356  1.0526 -0.4715
   76MOL0     C10157  11.815  10.281   5.587  0.5074 -0.5484 -0.4290
   76MOL0     C10158  11.959  10.276   5.582  0.9339 -0.3469  0.8683
   76MOL0     C10159  12.029  10.198   5.499  0.0201  0.5604  0.9912
   76MOL0     O10160  12.158  10.223   5.471 -0.0895 -0.0831  0.3192
   76MOL0     C10161  12.246  10.115   5.486  1.0039  0.0454  0.8515
   76MOL0     C10162  12.391  10.167   5.482 -0.4349 -0.2330 -0.4445
   76MOL0     C10163  12.493  10.047   5.481 -0.0346 -1.2864  0.2345
   76MOL0     C10164  12.635  10.113   5.468  0.2021  0.4030 -0.4506
   76MOL0     C10165  12.731   9.997   5.476  0.3647  0.2765  0.5046
   76MOL0     C10166  12.877  10.044   5.446 -1.3312  0.6669 -0.0487
   76MOL0     C10167  12.968   9.916   5.414 -0.2304 -0.2396  0.2300
   76MOL0     C10168  13.120   9.945   5.375  0.2968  0.0132 -0.1909
   76MOL0    Cl10169  13.222  10.030   5.500 -0.0677 -0.0308 -0.3260
   76MOL0     C10170  11.959  10.095   5.423  0.7304  0.3978  0.2380
   76MOL0     C10171  11.814  10.084   5.433 -0.2956 -0.5508 -0.3937
   76MOL0     O10172  11.579  10.024   5.686  0.6368 -0.9956 -0.1196
   76MOL0     C10173  11.314   9.990   5.607  0.6466  0.0096 -0.3700
   76MOL0     C10174  11.178   9.986   5.566  0.7333  0.1522  0.5440
   76MOL0     N10175  10.532   9.893   5.196  0.0753  0.5288  0.5492
   76MOL0     N10176  10.405   9.897   5.234 -0.0110  0.2702  0.7082
   76MOL0     C10177   9.807   9.364   4.941  0.6938 -0.1269  0.1020
   76MOL0     C10178   9.773   9.230   4.950  0.4957 -0.0563  0.2643
   76MOL0     C10179   9.443   8.920   4.937  0.2023 -0.6036 -0.2992
   76MOL0     C10180   9.507   8.805   4.884 -0.7163  1.3226 -0.3864
   76MOL0     C10181   9.445   8.680   4.887 -0.3470 -0.2601 -0.0974
   76MOL0     C10182   9.316   8.667   4.937  0.0314  0.5073  0.0031
   76MOL0     O10183   9.273   8.546   4.941 -0.6792 -0.0028 -0.7263
   76MOL0     C10184   9.143   8.515   4.988  0.5301 -0.2897 -0.6344
   76MOL0     C10185   9.051   8.518   4.868 -0.2584  0.4135  0.0341
   76MOL0     C10186   8.899   8.503   4.896  0.3505  0.1715  0.6327
   76MOL0     C10187   8.846   8.362   4.912 -0.7184  0.4985  0.1672
   76MOL0     C10188   8.706   8.357   4.962  0.5378 -0.9322  0.0069
   76MOL0     C10189   8.580   8.360   4.971  0.2444 -0.7532 -0.1853
   76MOL0     C10190   9.251   8.784   4.982 -0.4536  0.1966 -0.3510
   76MOL0     C10191   9.311   8.907   4.990 -0.3095 -0.5388 -0.1890
   76MOL0     C10192   9.230   9.022   5.053  0.2785 -0.2049 -1.1388
   76MOL0     H10193   9.674   9.171   4.634 -0.7491  0.5622  0.6310
   76MOL0     H10194   9.765   9.384   4.600 -0.0604 -0.4582 -0.5017
   76MOL0     H10195   9.971   9.528   4.661 -0.6624 -0.0198  1.1098
   76MOL0     H10196   9.996   9.689   4.730 -3.1138  0.1125 -0.5828
   76MOL0     H10197  10.185   9.514   4.780  0.4038 -0.1785  0.9196
   76MOL0     H10198  10.063   9.432   4.871 -2.5282 -0.5162 -3.3396
   76MOL0     H10199  10.153   9.729   4.898  4.0233  0.2907  0.7839
   76MOL0     H10200  10.224   9.603   5.002 -0.6648 -1.0132  0.5042
   76MOL0     H10201   9.924   9.684   5.000  0.3368  0.6624  0.5140
   76MOL0     H10202   9.990   9.543   5.078 -0.2439  0.5857  0.1752
   76MOL0     H10203   9.975   9.732   5.233 -0.3284 -1.9781  1.1022
   76MOL0     H10204  10.147   9.678   5.214  0.8622  4.2735  2.4206
   76MOL0     H10205  10.164   9.867   5.056 -3.1989  0.4761 -3.3978
   76MOL0     H10206   9.998   9.920   5.080  1.5694  3.5926  0.5428
   76MOL0     H10207  10.148   9.881   5.335  0.8279  1.8170  1.5695
   76MOL0     H10208  10.024  10.007   5.301  1.4528 -1.2895  2.0543
   76MOL0     H10209  10.174  10.124   5.149  1.0681  1.2191 -0.3650
   76MOL0     H10210  10.194  10.139   5.318 -2.4619 -1.1915 -0.6035
   76MOL0     H10211  10.447  10.201   5.110 -4.0530 -0.2673 -3.2282
   76MOL0     H10212  10.755   9.951   5.048  0.0961  0.7211  0.5165
   76MOL0     H10213  10.710  10.120   5.021 -3.0919  0.4840 -0.6693
   76MOL0     H10214  10.904  10.099   5.160 -1.6474  1.6181 -2.9187
   76MOL0     H10215  10.773  10.198   5.228  1.0285  2.5101 -3.1959
   76MOL0     H10216  10.762   9.910   5.320  1.6447  0.0575  0.1609
   76MOL0     H10217  10.734  10.063   5.411  1.3680 -0.8332  2.5949
   76MOL0     H10218  11.000   9.942   5.327  0.0723  0.0714 -0.6548
   76MOL0     H10219  10.912   9.931   5.488 -1.2611  2.4750  1.7494
   76MOL0     H10220  11.163  10.290   5.408  3.0305  1.2584 -0.7396
   76MOL0     H10221  11.415  10.287   5.467  0.3772 -0.7421 -2.5106
   76MOL0     H10222  11.776  10.352   5.660 -1.2817 -2.5342  0.6618
   76MOL0     H10223  11.997  10.354   5.647 -3.9450  2.1186  1.2142
   76MOL0     H10224  12.228  10.070   5.584  0.7879  0.5727  1.0563
   76MOL0     H10225  12.229  10.027   5.422  0.5970  0.5522  0.2511
   76MOL0     H10226  12.412  10.214   5.386 -0.1891 -0.1715 -0.3610
   76MOL0     H10227  12.411  10.223   5.574  0.1498 -4.1354  2.1033
   76MOL0     H10228  12.487   9.989   5.573  1.2792 -2.2524 -0.2459
   76MOL0     H10229  12.469   9.982   5.396 -2.7285 -2.3818  1.7169
   76MOL0     H10230  12.654  10.190   5.543 -0.7903  1.7922 -1.5702
   76MOL0     H10231  12.652  10.156   5.368  1.0037 -0.0250 -0.5087
   76MOL0     H10232  12.691   9.915   5.415  2.1955 -1.6103  1.6792
   76MOL0     H10233  12.725   9.958   5.578 -3.9302 -0.4798  0.1796
   76MOL0     H10234  12.885  10.100   5.352 -1.5486 -0.6766 -0.8947
   76MOL0     H10235  12.932  10.087   5.530 -1.9169  0.0499  0.6676
   76MOL0     H10236  12.908   9.869   5.337 -3.4494  3.4118  0.2167
   76MOL0     H10237  12.972   9.850   5.501  1.1649  0.5767  0.8208
   76MOL0     H10238  13.170   9.851   5.348  1.0409  0.2360  0.3611
   76MOL0     H10239  13.106  10.005   5.285 -4.4028 -0.3372  0.0685
   76MOL0     H10240  12.016  10.017   5.375  0.2326 -0.7809  1.4831
   76MOL0     H10241  11.760  10.008   5.379  0.8446 -1.8833  0.2826
   76MOL0     H10242  11.341   9.909   5.673 -1.6820 -0.1728  0.4318
   76MOL0     H10243  11.109   9.906   5.586  1.8663 -1.4689 -1.5935
   76MOL0     H10244   9.830   9.419   5.032  0.5908  1.4253 -0.7644
   76MOL0     H10245   9.770   9.181   5.047 -1.7821 -0.6603 -0.0331
   76MOL0     H10246   9.605   8.802   4.838  0.1153  1.4917  1.2920
   76MOL0     H10247   9.502   8.592   4.857  1.7459  1.0489 -0.1925
   76MOL0     H10248   9.107   8.582   5.067 -1.3808 -2.4776  0.4397
   76MOL0     H10249   9.154   8.417   5.036 -0.7446 -0.3881 -0.5224
   76MOL0     H10250   9.087   8.440   4.801 -2.3125 -0.0809 -0.5738
   76MOL0     H10251   9.072   8.603   4.803 -1.4144  1.2343  0.6942
   76MOL0     H10252   8.858   8.534   4.800 -0.3817 -1.6916  0.3056
   76MOL0     H10253   8.873   8.563   4.984 -1.3854  1.1593 -0.4979
   76MOL0     H10254   8.849   8.323   4.810  2.0520  0.4195  0.1886
   76MOL0     H10255   8.913   8.307   4.979 -1.2672  0.1937  0.4728
   76MOL0     H10256   8.479   8.393   4.981  0.3369  0.0868 -1.7425
   76MOL0     H10257   9.154   8.776   5.031  0.4643  1.5269  1.8232
   76MOL0     H10258   9.162   8.969   5.120  0.2451  0.9468 -0.2206
   76MOL0     H10259   9.282   9.098   5.112  0.0892 -1.8278  1.2799
   76MOL0     H10260   9.168   9.083   4.987 -1.7093 -0.6875  0.1856
   77MOL0     O10261   6.097   9.336   1.289  0.8047 -0.0877 -0.2020
   77MOL0     C10262   6.079   9.434   1.358  0.3528 -0.0528  0.0869
   77MOL0     O10263   6.164   9.534   1.366 -0.4062 -0.7468  0.7908
   77MOL0     C10264   6.283   9.544   1.293 -0.3082 -0.6228 -0.1815
   77MOL0     C10265   6.389   9.600   1.352 -0.8085  1.0095 -0.3486
   77MOL0     C10266   6.513   9.607   1.285  0.0148  0.2161  1.1942
   77MOL0     C10267   6.533   9.541   1.159 -0.5315 -0.5417 -0.6699
   77MOL0     O10268   6.650   9.551   1.090  0.7259  0.0635  0.0667
   77MOL0     C10269   6.771   9.603   1.136 -0.0499 -0.4415 -0.1271
   77MOL0     C10270   6.892   9.604   1.039 -0.0321 -0.5125 -0.5935
   77MOL0     C10271   7.030   9.592   1.092 -0.3473 -0.3342 -0.6627
   77MOL0     C10272   7.080   9.720   1.152  0.1827  0.4509  0.9368
   77MOL0     C10273   7.225   9.698   1.185  0.2495 -0.3357  0.5623
   77MOL0     C10274   7.270   9.821   1.257  0.1370  0.4828 -0.0146
   77MOL0     C10275   7.245   9.826   1.414 -0.1445  0.1603 -0.1188
   77MOL0     C10276   7.368   9.902   1.472  0.4130  0.1904 -0.2255
   77MOL0     N10277   7.383  10.046   1.427 -0.3804  0.1615  0.2863
   77MOL0     C10278   7.447  10.094   1.313  0.7407 -0.1156  0.1604
   77MOL0     C10279   7.401  10.222   1.309  0.0349 -0.1847  0.4092
   77MOL0     C10280   7.451  10.322   1.208 -0.6522  0.0152  0.4993
   77MOL0     C10281   7.388  10.455   1.238 -0.6003  0.9660  0.2391
   77MOL0     C10282   7.424  10.555   1.133  0.4049  0.5787  0.6279
   77MOL0     C10283   7.556  10.625   1.132  0.6057 -0.8779  0.3353
   77MOL0     O10284   7.655  10.521   1.085 -0.5790 -0.1971  0.3766
   77MOL0     C10285   7.784  10.556   1.063  0.4973  1.0482 -0.0543
   77MOL0     C10286   7.872  10.449   1.063 -0.2398 -0.3757  0.2401
   77MOL0     C10287   8.009  10.474   1.038  0.3527 -0.1035 -0.6416
   77MOL0     C10288   8.054  10.594   0.999 -0.3869 -1.1083  0.3035
   77MOL0     C10289   8.198  10.614   0.958  0.5940 -0.3225  0.6446
   77MOL0     O10290   8.231  10.725   0.889  0.2115  1.0110 -0.0314
   77MOL0     C10291   8.366  10.735   0.841 -0.0106  0.7013  0.0758
   77MOL0     C10292   8.458  10.816   0.905  0.4202  0.4174  0.0878
   77MOL0     C10293   8.590  10.825   0.853  0.3431  0.1630  0.5367
   77MOL0     C10294   8.632  10.741   0.748  0.7121 -0.3588 -0.2120
   77MOL0     O10295   8.763  10.732   0.698 -0.0014 -0.5195  0.5585
   77MOL0     C10296   8.867  10.815   0.742  0.7977 -0.0160  0.3146
   77MOL0     C10297   9.002  10.752   0.681  0.1415  0.1534  0.9003
   77MOL0     C10298   9.124  10.822   0.749  0.1784  0.1497 -0.4344
   77MOL0     C10299   9.249  10.808   0.661 -0.1875 -1.1570 -0.9077
   77MOL0     C10300   9.364  10.883   0.743  0.3328 -0.3559 -0.0621
   77MOL0     C10301   9.509  10.873   0.679  0.9680 -0.7574 -0.3918
   77MOL0     C10302   9.535  10.945   0.548 -0.4234  0.5939  0.4917
   77MOL0     C10303   9.500  11.092   0.554 -0.0776 -1.0554 -0.2157
   77MOL0    Cl10304   9.532  11.186   0.401 -0.1541 -0.2362 -0.2261
   77MOL0     C10305   8.526  10.661   0.687 -0.2179 -0.7807  0.2097
   77MOL0     C10306   8.398  10.668   0.728  0.3276 -0.6658  0.2264
   77MOL0     O10307   8.270  10.517   0.978  0.1336 -0.4360 -0.1140
   77MOL0     C10308   7.958  10.699   0.991 -0.0065  0.4837  0.5334
   77MOL0     C10309   7.823  10.682   1.019  1.0302  1.0387 -0.0952
   77MOL0     N10310   7.310  10.251   1.407 -0.1496  1.2107  0.5447
   77MOL0     N10311   7.313  10.148   1.484 -0.2360 -0.0979 -0.0981
   77MOL0     C10312   6.423   9.484   1.098 -0.9189  0.3346  0.3122
   77MOL0     C10313   6.306   9.493   1.165 -0.1712 -0.5005  0.0665
   77MOL0     C10314   5.956   9.442   1.439 -0.5074 -0.1766 -0.3932
   77MOL0     C10315   5.917   9.571   1.482  0.1323 -0.0990 -0.0767
   77MOL0     C10316   5.814   9.581   1.572 -0.2506  0.1043 -0.0135
   77MOL0     C10317   5.753   9.464   1.627 -0.2333 -0.4745 -0.1171
   77MOL0     O10318   5.662   9.470   1.728  0.3629 -0.9516  0.3343
   77MOL0     C10319   5.529   9.503   1.670  1.0235  0.1031  0.2786
   77MOL0     C10320   5.467   9.388   1.600 -0.0141 -1.3089 -0.4347
   77MOL0     C10321   5.440   9.277   1.696  0.1279  1.1935 -0.0842
   77MOL0     C10322   5.383   9.144   1.628 -0.7182  1.0298 -0.2321
   77MOL0     C10323   5.466   9.082   1.522  0.7039  0.4457 -0.1836
   77MOL0     C10324   5.521   9.030   1.427  0.3906 -1.0856 -0.2359
   77MOL0     C10325   5.797   9.329   1.592  0.3980 -1.0116  0.2701
   77MOL0     C10326   5.896   9.323   1.493 -0.1121  0.3226  0.6631
   77MOL0     C10327   5.932   9.179   1.458 -0.5991 -0.7323 -0.8758
   77MOL0     H10328   6.395   9.636   1.454 -0.0499 -1.2384  0.4540
   77MOL0     H10329   6.585   9.675   1.330  1.6003 -1.0748  0.6813
   77MOL0     H10330   6.740   9.707   1.154 -2.1778 -0.9003 -0.9241
   77MOL0     H10331   6.797   9.567   1.236  0.7103 -0.7749 -0.4352
   77MOL0     H10332   6.876   9.691   0.975  1.7246  1.5881  1.6720
   77MOL0     H10333   6.882   9.521   0.968 -1.2431  0.7442 -1.9492
   77MOL0     H10334   7.100   9.564   1.012  1.9658 -0.2145  1.2146
   77MOL0     H10335   7.021   9.515   1.169 -3.8133 -0.5097 -1.0620
   77MOL0     H10336   7.068   9.807   1.087 -0.1877  1.7675  2.6954
   77MOL0     H10337   7.030   9.732   1.248 -0.5451  0.0676  0.6121
   77MOL0     H10338   7.248   9.604   1.236  2.6254 -0.4189 -0.5099
   77MOL0     H10339   7.282   9.679   1.093 -0.1357 -1.1643  0.4829
   77MOL0     H10340   7.376   9.833   1.234 -0.3031  1.0200 -1.9485
   77MOL0     H10341   7.243   9.914   1.205  1.1344  1.2276  0.7561
   77MOL0     H10342   7.245   9.722   1.447 -1.5395  0.9455  2.6398
   77MOL0     H10343   7.157   9.881   1.447 -0.1075  0.0413  0.1779
   77MOL0     H10344   7.374   9.905   1.581  0.4110 -1.3073 -0.1651
   77MOL0     H10345   7.457   9.845   1.442  0.5098  0.2749 -0.0965
   77MOL0     H10346   7.515  10.034   1.253 -1.7814 -5.4746  2.0853
   77MOL0     H10347   7.560  10.326   1.205 -0.7016  2.8253 -1.6132
   77MOL0     H10348   7.440  10.287   1.105  0.6070  1.3704 -0.1237
   77MOL0     H10349   7.279  10.447   1.240 -0.7483  1.4234 -2.6685
   77MOL0     H10350   7.419  10.487   1.338 -0.0480  2.6449 -0.4392
   77MOL0     H10351   7.347  10.633   1.143  1.3279  1.6886 -0.5860
   77MOL0     H10352   7.404  10.512   1.034  1.8917 -0.0588  0.5742
   77MOL0     H10353   7.594  10.650   1.231  1.3744 -0.8776  0.0467
   77MOL0     H10354   7.556  10.717   1.073  0.7106 -0.4255  1.0249
   77MOL0     H10355   7.833  10.354   1.098  0.2568  0.1454  2.3520
   77MOL0     H10356   8.079  10.391   1.045 -1.4129 -1.8205 -2.1726
   77MOL0     H10357   8.417  10.862   0.995 -1.5846  0.5815 -0.8635
   77MOL0     H10358   8.657  10.890   0.908 -1.3978  0.5811  2.2806
   77MOL0     H10359   8.841  10.915   0.708  0.7246 -0.4693 -1.0005
   77MOL0     H10360   8.873  10.825   0.851 -4.7965  3.1185  0.6916
   77MOL0     H10361   9.019  10.644   0.682 -0.5210  0.0307 -0.0311
   77MOL0     H10362   9.006  10.774   0.574 -1.6375 -0.1592  0.7471
   77MOL0     H10363   9.112  10.929   0.768  1.0878  0.0312  0.9673
   77MOL0     H10364   9.140  10.765   0.842 -0.2806 -2.1899 -1.6971
   77MOL0     H10365   9.240  10.858   0.564 -0.2574 -2.6924 -1.7120
   77MOL0     H10366   9.278  10.704   0.647 -6.3783 -3.6578  1.4560
   77MOL0     H10367   9.364  10.838   0.842 -1.1783  1.1398  0.6594
   77MOL0     H10368   9.341  10.985   0.772 -0.1890  0.4571 -3.0007
   77MOL0     H10369   9.586  10.897   0.752  4.0695  0.9928 -3.8718
   77MOL0     H10370   9.523  10.769   0.646 -0.3857 -1.7855  2.0702
   77MOL0     H10371   9.477  10.885   0.478  0.7668 -1.0078  0.8141
   77MOL0     H10372   9.642  10.927   0.529  0.0831 -0.4475  3.6778
   77MOL0     H10373   9.394  11.106   0.577  0.1908 -0.2233  0.5647
   77MOL0     H10374   9.556  11.138   0.635 -1.9978  0.1439  0.5150
   77MOL0     H10375   8.561  10.606   0.600  0.1600  0.9503 -0.7657
   77MOL0     H10376   8.324  10.621   0.664 -0.6390 -0.6786  1.3435
   77MOL0     H10377   7.992  10.800   0.972  0.7756  0.6577  2.6319
   77MOL0     H10378   7.756  10.766   1.004  1.9981  1.6340 -1.2327
   77MOL0     H10379   6.426   9.434   1.002  0.5276  1.4057 -0.2480
   77MOL0     H10380   6.232   9.449   1.098 -2.2000  0.2917  1.6799
   77MOL0     H10381   5.971   9.660   1.451 -1.1635  0.6075 -0.3647
   77MOL0     H10382   5.787   9.680   1.608  0.7183  1.3596 -2.5044
   77MOL0     H10383   5.538   9.587   1.600 -0.0235 -2.0793 -2.6543
   77MOL0     H10384   5.460   9.534   1.750 -0.4885  0.7021 -1.2042
   77MOL0     H10385   5.538   9.365   1.520  0.1328 -0.8850 -0.4304
   77MOL0     H10386   5.369   9.418   1.561 -1.4304 -1.4487  2.7468
   77MOL0     H10387   5.375   9.311   1.777 -1.6230  0.9834 -1.3423
   77MOL0     H10388   5.540   9.257   1.737 -0.2248  0.3598  0.4039
   77MOL0     H10389   5.388   9.069   1.707 -1.6427  3.6332  2.5251
   77MOL0     H10390   5.279   9.155   1.596 -0.6921  0.2022 -0.6121
   77MOL0     H10391   5.570   8.981   1.346 -0.0533 -0.5356 -0.8551
   77MOL0     H10392   5.759   9.251   1.656  0.2684 -1.9568 -0.9235
   77MOL0     H10393   6.038   9.157   1.472 -0.5385  0.6682  1.4653
   77MOL0     H10394   5.875   9.107   1.519 -0.1359  1.3328  2.2016
   77MOL0     H10395   5.910   9.171   1.351  1.7667 -3.2741 -1.2734
   78MOL0     O10396   4.715   9.263   6.689  0.2632  0.9344  0.4012
   78MOL0     C10397   4.641   9.256   6.789  0.3444 -0.4224 -1.2458
   78MOL0     O10398   4.646   9.343   6.906 -0.0962  0.4974  0.1507
   78MOL0     C10399   4.760   9.417   6.919  0.7191 -0.0776  0.5364
   78MOL0     C10400   4.762   9.557   6.952  0.0772  0.7999 -0.1404
   78MOL0     C10401   4.880   9.619   6.982  0.6853  0.1785 -0.0503
   78MOL0     C10402   5.000   9.545   6.980 -0.1465 -0.7238  0.7549
   78MOL0     O10403   5.110   9.611   7.018 -0.2718  0.3180  0.0144
   78MOL0     C10404   5.234   9.547   6.988 -0.1337  0.8705 -0.4486
   78MOL0     C10405   5.354   9.630   7.023 -0.2318  1.2759 -0.4101
   78MOL0     C10406   5.477   9.535   7.032 -0.5135  1.2702  0.0808
   78MOL0     C10407   5.598   9.604   7.095 -0.6337 -0.0363 -1.0535
   78MOL0     C10408   5.732   9.525   7.085 -0.5530  0.1840 -0.0327
   78MOL0     C10409   5.745   9.400   7.171 -0.9928  1.0798 -0.4206
   78MOL0     C10410   5.878   9.320   7.136  0.4205  0.0529  0.9588
   78MOL0     C10411   5.913   9.209   7.227 -0.2806  0.1856 -1.5029
   78MOL0     N10412   6.033   9.138   7.181 -0.0810 -0.4949 -0.6469
   78MOL0     C10413   6.159   9.175   7.205  1.1698 -0.5955 -0.1669
   78MOL0     C10414   6.235   9.083   7.145 -0.4157 -0.6515 -0.4913
   78MOL0     C10415   6.388   9.078   7.121 -0.5229  0.4165 -0.7480
   78MOL0     C10416   6.468   8.998   7.231  0.2352  0.6249  0.0296
   78MOL0     C10417   6.406   9.017   7.372 -0.2254  0.3674  0.4480
   78MOL0     C10418   6.495   8.938   7.472  0.6250  0.5434  0.1524
   78MOL0     O10419   6.454   8.985   7.601 -0.0043 -0.2221 -0.2978
   78MOL0     C10420   6.506   8.917   7.711 -0.2787  0.0084 -0.6716
   78MOL0     C10421   6.483   8.970   7.833  0.1891 -0.1165 -0.2565
   78MOL0     C10422   6.526   8.911   7.954  0.7190 -0.3567  0.4133
   78MOL0     C10423   6.603   8.790   7.947  0.6018  0.3232  0.4651
   78MOL0     C10424   6.660   8.730   8.069 -0.4892 -0.0598 -0.1727
   78MOL0     O10425   6.611   8.783   8.188  0.2656  0.7643 -0.6028
   78MOL0     C10426   6.678   8.753   8.299 -0.1506  1.3170  1.4310
   78MOL0     C10427   6.668   8.627   8.358  0.7644  0.1329 -0.1239
   78MOL0     C10428   6.745   8.585   8.467 -0.5369 -0.1536 -0.6110
   78MOL0     C10429   6.840   8.676   8.520 -0.0087 -0.3421 -0.0763
   78MOL0     O10430   6.914   8.629   8.619  0.3117 -0.3920 -0.0692
   78MOL0     C10431   6.972   8.734   8.699 -0.8140 -0.5978  0.6494
   78MOL0     C10432   7.062   8.673   8.806  0.0139  0.5384  0.5030
   78MOL0     C10433   7.184   8.611   8.741  1.0420  0.0353 -0.6547
   78MOL0     C10434   7.282   8.562   8.853 -0.0563 -0.3604  0.5968
   78MOL0     C10435   7.369   8.450   8.801  0.3618 -0.7920 -0.5214
   78MOL0     C10436   7.451   8.497   8.685 -0.1201 -0.7489  0.4884
   78MOL0     C10437   7.557   8.402   8.654 -0.5231  0.5967 -0.2297
   78MOL0     C10438   7.650   8.475   8.553 -0.3096  0.1553  0.4715
   78MOL0    Cl10439   7.806   8.392   8.543 -0.2920  0.0885 -0.5087
   78MOL0     C10440   6.840   8.799   8.466 -0.2567  0.3373  1.1675
   78MOL0     C10441   6.763   8.843   8.354  0.5040  1.0811 -0.9375
   78MOL0     O10442   6.752   8.650   8.060 -0.0915  0.4904 -0.8419
   78MOL0     C10443   6.626   8.731   7.822  0.1464 -0.5191  0.4367
   78MOL0     C10444   6.583   8.802   7.705 -0.5049  2.3387  0.1176
   78MOL0     N10445   6.152   8.996   7.077 -0.7303 -0.0465 -0.1362
   78MOL0     N10446   6.033   9.048   7.082  0.8413  0.0981 -0.5312
   78MOL0     C10447   4.998   9.409   6.933  0.4481 -0.6241 -0.8757
   78MOL0     C10448   4.876   9.342   6.914 -0.6091  0.5015  0.1785
   78MOL0     C10449   4.540   9.157   6.787  0.8770  0.0631  1.0432
   78MOL0     C10450   4.524   9.081   6.904  0.6677 -0.3034  0.0113
   78MOL0     C10451   4.422   8.976   6.902 -0.6760  0.2856 -0.3402
   78MOL0     C10452   4.326   8.966   6.806 -0.2538  0.5292  0.3552
   78MOL0     O10453   4.227   8.881   6.835 -0.0281  0.0931 -0.5496
   78MOL0     C10454   4.100   8.874   6.776  0.8846  0.0849 -0.4193
   78MOL0     C10455   4.033   8.757   6.836 -0.0985  0.3963 -0.2946
   78MOL0     C10456   3.882   8.727   6.785 -0.2548 -0.0111 -0.4169
   78MOL0     C10457   3.841   8.589   6.835  1.0276  0.5321  0.4508
   78MOL0     C10458   3.732   8.597   6.943  0.6449  0.1555  0.1152
   78MOL0     C10459   3.640   8.608   7.021 -0.5040  0.1919 -0.6025
   78MOL0     C10460   4.343   9.041   6.686  0.0393  0.5057 -0.3497
   78MOL0     C10461   4.445   9.138   6.676  0.2804 -0.9220 -0.7067
   78MOL0     C10462   4.429   9.241   6.562  0.6209 -0.2972 -0.4070
   78MOL0     H10463   4.666   9.606   6.938 -1.9774 -2.8983 -0.3714
   78MOL0     H10464   4.875   9.719   7.024  2.4002  1.3320 -2.3684
   78MOL0     H10465   5.234   9.454   7.046 -0.2652  1.5842  0.7347
   78MOL0     H10466   5.242   9.530   6.880  0.4394 -2.0045 -0.0138
   78MOL0     H10467   5.336   9.668   7.124 -0.4129  0.8337 -0.2715
   78MOL0     H10468   5.374   9.718   6.961 -0.3602  2.0663  0.6400
   78MOL0     H10469   5.510   9.493   6.937  3.1765 -0.8057  2.0758
   78MOL0     H10470   5.441   9.447   7.085 -4.3713  0.6011 -3.1348
   78MOL0     H10471   5.616   9.704   7.053  0.4083  0.8080  1.2481
   78MOL0     H10472   5.586   9.619   7.203  0.8390 -1.9983 -0.5504
   78MOL0     H10473   5.739   9.492   6.981 -0.9865 -1.8697  0.5597
   78MOL0     H10474   5.805   9.602   7.112 -0.0174 -0.2436 -0.2355
   78MOL0     H10475   5.744   9.427   7.277 -3.5098  3.5219 -0.9549
   78MOL0     H10476   5.664   9.331   7.149 -1.1749 -0.1976  3.4805
   78MOL0     H10477   5.965   9.387   7.131 -0.8960  1.7349 -1.2788
   78MOL0     H10478   5.875   9.290   7.031  0.4414  3.0759 -0.0085
   78MOL0     H10479   5.936   9.243   7.329  2.2128  0.0367 -1.9533
   78MOL0     H10480   5.833   9.136   7.239 -1.9441  2.1367  0.2351
   78MOL0     H10481   6.195   9.268   7.247  1.3390  0.1364 -1.8572
   78MOL0     H10482   6.395   9.036   7.020 -1.7422 -0.3793 -0.5329
   78MOL0     H10483   6.432   9.178   7.125  0.9118 -0.0448  5.4013
   78MOL0     H10484   6.469   8.891   7.208 -2.1817  1.0904 -2.8252
   78MOL0     H10485   6.572   9.030   7.239  0.5359  0.2314 -1.7873
   78MOL0     H10486   6.309   8.967   7.367  1.0087 -2.0399 -1.3460
   78MOL0     H10487   6.409   9.122   7.402 -1.2909  0.7009 -0.5265
   78MOL0     H10488   6.601   8.948   7.448  0.8048  0.5799  0.9067
   78MOL0     H10489   6.478   8.831   7.457  1.1093  0.3078  1.1709
   78MOL0     H10490   6.420   9.057   7.853  2.2057  0.7838  2.8185
   78MOL0     H10491   6.515   8.955   8.053 -0.2878 -1.3930  0.7829
   78MOL0     H10492   6.583   8.568   8.324  0.2810  1.0739 -0.5968
   78MOL0     H10493   6.718   8.486   8.504  1.1759 -0.8692 -1.1703
   78MOL0     H10494   7.041   8.789   8.634 -1.0254  1.9851  2.4580
   78MOL0     H10495   6.902   8.807   8.741 -0.2873 -0.9973  2.3071
   78MOL0     H10496   7.106   8.752   8.868  0.5318  0.3513  0.3812
   78MOL0     H10497   7.003   8.596   8.856  0.1859  0.5690  0.7519
   78MOL0     H10498   7.148   8.537   8.669  1.0939  1.4751 -2.2252
   78MOL0     H10499   7.231   8.686   8.677  0.0375  2.7767  1.5938
   78MOL0     H10500   7.215   8.525   8.931  0.0921 -3.3789 -0.5744
   78MOL0     H10501   7.343   8.647   8.884  1.0808 -1.2348  0.8382
   78MOL0     H10502   7.316   8.364   8.760 -1.3187 -0.2164  0.3682
   78MOL0     H10503   7.431   8.418   8.886 -0.7070  0.6837  0.8784
   78MOL0     H10504   7.388   8.501   8.596  0.3541  2.1231  0.1762
   78MOL0     H10505   7.483   8.599   8.712 -0.2298  0.1986 -2.5819
   78MOL0     H10506   7.525   8.310   8.606  2.7520  0.1759 -1.8842
   78MOL0     H10507   7.615   8.388   8.746 -0.2006 -0.9420 -0.6467
   78MOL0     H10508   7.607   8.487   8.453  0.8542 -1.5523 -0.2773
   78MOL0     H10509   7.680   8.574   8.587  1.8346 -0.9646  2.0703
   78MOL0     H10510   6.902   8.886   8.485 -2.1080  1.7490  0.9711
   78MOL0     H10511   6.778   8.943   8.314  2.5169  0.7449 -1.1116
   78MOL0     H10512   6.687   8.644   7.803 -0.5011 -0.3700 -3.0498
   78MOL0     H10513   6.606   8.745   7.616 -0.2055 -0.5799  1.9299
   78MOL0     H10514   5.092   9.355   6.924  1.5791  0.9939  0.6658
   78MOL0     H10515   4.869   9.234   6.906  3.2234 -0.4722  5.0784
   78MOL0     H10516   4.586   9.097   6.992  1.5363  1.8320 -0.9138
   78MOL0     H10517   4.406   8.921   6.994 -2.6393 -1.1182 -1.4427
   78MOL0     H10518   4.112   8.867   6.667 -0.1828 -0.2763 -0.5246
   78MOL0     H10519   4.035   8.960   6.794 -1.1624 -1.4435 -0.1458
   78MOL0     H10520   4.034   8.760   6.945 -0.4904 -3.5582 -0.0422
   78MOL0     H10521   4.094   8.671   6.810  0.0037  0.7529 -1.2796
   78MOL0     H10522   3.892   8.726   6.676  2.6082  2.1901 -0.2818
   78MOL0     H10523   3.813   8.804   6.822  0.0106  0.4722 -0.9177
   78MOL0     H10524   3.795   8.535   6.751  1.1868  2.3584 -0.8665
   78MOL0     H10525   3.925   8.526   6.866  0.2979 -2.0504 -2.3042
   78MOL0     H10526   3.567   8.637   7.095 -0.6600  2.2335 -1.4838
   78MOL0     H10527   4.263   9.035   6.612 -0.4961 -1.0094  0.3182
   78MOL0     H10528   4.395   9.179   6.479 -1.0834 -1.6816  1.2505
   78MOL0     H10529   4.340   9.295   6.595  0.1928 -1.9928  1.3343
   78MOL0     H10530   4.506   9.319   6.555 -0.9515  1.4847  1.0987
   79MOL0     O10531   3.180   6.465  10.274  0.0822 -0.4633 -0.1392
   79MOL0     C10532   3.093   6.540  10.328  0.4737  0.9462  0.3863
   79MOL0     O10533   3.112   6.664  10.379 -0.4464  1.3430  0.1080
   79MOL0     C10534   3.244   6.694  10.399  0.4016 -0.4294  0.9260
   79MOL0     C10535   3.324   6.769  10.302 -0.3450 -0.3803  0.8271
   79MOL0     C10536   3.455   6.813  10.327  0.5233 -0.6493  0.3529
   79MOL0     C10537   3.508   6.786  10.454 -0.8287 -0.0126  0.7614
   79MOL0     O10538   3.637   6.822  10.485  0.5962 -0.0767  0.4798
   79MOL0     C10539   3.734   6.724  10.446 -1.7230 -0.2711  0.4903
   79MOL0     C10540   3.868   6.800  10.412  0.0520 -0.6881 -0.5649
   79MOL0     C10541   3.846   6.919  10.319  0.0116  0.2608 -0.7132
   79MOL0     C10542   3.988   6.967  10.276  0.0642 -0.3389  0.2496
   79MOL0     C10543   3.963   7.084  10.186  0.3626 -0.7779 -0.0068
   79MOL0     C10544   4.094   7.151  10.141 -0.0935 -0.0109 -0.0274
   79MOL0     C10545   4.044   7.260  10.044 -0.7013  0.5318 -0.1277
   79MOL0     C10546   4.170   7.331  10.000 -0.9384  0.3735 -0.3986
   79MOL0     N10547   4.155   7.398   9.871 -0.0263 -0.3529 -1.2943
   79MOL0     C10548   4.151   7.536   9.836  0.7160 -0.0594  0.1496
   79MOL0     C10549   4.175   7.542   9.702 -0.1576  0.4953 -0.4396
   79MOL0     C10550   4.175   7.667   9.613  0.2879  0.3873 -0.8811
   79MOL0     C10551   4.239   7.780   9.693  0.4030  0.8905  0.6860
   79MOL0     C10552   4.385   7.760   9.744  0.3706  0.0997  0.3623
   79MOL0     C10553   4.456   7.891   9.748  1.1879  0.7610 -0.3585
   79MOL0     O10554   4.598   7.853   9.738  0.5952 -0.3477  0.5052
   79MOL0     C10555   4.681   7.948   9.789  0.2624  0.2022  0.7525
   79MOL0     C10556   4.736   7.926   9.920  0.4605  0.4672  1.1635
   79MOL0     C10557   4.812   8.026   9.978  0.8792  0.1126  0.5918
   79MOL0     C10558   4.834   8.153   9.911  0.2171  0.5051  0.1327
   79MOL0     C10559   4.903   8.264   9.977 -0.6593  0.2220 -0.3853
   79MOL0     O10560   4.931   8.239  10.102 -0.3379 -0.0984  0.1077
   79MOL0     C10561   4.985   8.329  10.190  0.0311 -0.3233  0.0987
   79MOL0     C10562   4.923   8.346  10.314  0.2901  0.7152  0.6397
   79MOL0     C10563   4.972   8.431  10.419 -0.3292  0.3413  0.8081
   79MOL0     C10564   5.089   8.498  10.391  0.7627 -1.6564  0.1515
   79MOL0     O10565   5.131   8.594  10.486  0.5992  0.8356 -0.6917
   79MOL0     C10566   5.187   8.719  10.440 -0.1685  0.1098  1.2412
   79MOL0     C10567   5.153   8.825  10.541 -0.0296  0.7021  0.1183
   79MOL0     C10568   5.262   8.824  10.658 -0.1057 -0.7545 -1.0332
   79MOL0     C10569   5.259   8.954  10.741 -0.3403  0.3982 -0.4996
   79MOL0     C10570   5.362   8.940  10.850 -0.1857  1.0055 -0.4694
   79MOL0     C10571   5.343   9.031  10.967 -0.1980 -0.2811 -0.2723
   79MOL0     C10572   5.456   9.023  11.079  0.5801  0.7148  0.0438
   79MOL0     C10573   5.479   9.156  11.147 -0.0258  0.3277 -0.1002
   79MOL0    Cl10574   5.575   9.266  11.045 -0.2787 -0.3363 -0.0172
   79MOL0     C10575   5.148   8.492  10.264  0.7985  0.0171  1.1835
   79MOL0     C10576   5.094   8.412  10.157 -1.5516 -0.3834 -0.4996
   79MOL0     O10577   4.921   8.374   9.919 -0.2191  0.1114  0.1151
   79MOL0     C10578   4.793   8.158   9.776 -0.2539  1.0904 -0.7052
   79MOL0     C10579   4.706   8.060   9.722 -0.2902  0.6832  0.1640
   79MOL0     N10580   4.220   7.419   9.659 -0.5907 -0.0050 -0.0306
   79MOL0     N10581   4.200   7.337   9.761  0.1014 -0.0254 -0.5153
   79MOL0     C10582   3.432   6.702  10.549 -0.3703 -0.2632 -1.0379
   79MOL0     C10583   3.299   6.668  10.520 -1.2746  1.0880 -0.5417
   79MOL0     C10584   2.955   6.485  10.327 -0.3228  0.0984 -1.3080
   79MOL0     C10585   2.939   6.349  10.297  0.1584  0.8729 -0.3461
   79MOL0     C10586   2.812   6.288  10.305  0.2416  1.0626  0.7031
   79MOL0     C10587   2.697   6.354  10.340  0.5809  0.1880  0.2121
   79MOL0     O10588   2.583   6.280  10.332 -0.1687  0.0282 -0.3822
   79MOL0     C10589   2.457   6.330  10.393  0.2339 -1.2923  0.4025
   79MOL0     C10590   2.346   6.230  10.404  0.1658  0.0401 -0.5024
   79MOL0     C10591   2.347   6.122  10.290 -0.4892  0.5210 -0.3555
   79MOL0     C10592   2.223   6.036  10.300  0.1798  0.5397 -0.1583
   79MOL0     C10593   2.094   6.100  10.271  0.5403 -0.3218 -0.0231
   79MOL0     C10594   1.987   6.146  10.238  0.5903 -0.3792 -0.1392
   79MOL0     C10595   2.716   6.482  10.380  0.3300 -0.2038  0.1590
   79MOL0     C10596   2.835   6.550  10.373 -0.3595  0.4507 -1.0181
   79MOL0     C10597   2.829   6.694  10.425 -0.5120  0.1051 -0.2767
   79MOL0     H10598   3.283   6.792  10.205 -0.0568 -0.5624  0.6618
   79MOL0     H10599   3.511   6.858  10.246 -1.0356 -1.0738 -1.0111
   79MOL0     H10600   3.746   6.649  10.525  0.6817  1.4090  1.8491
   79MOL0     H10601   3.703   6.667  10.357  0.7214 -3.2881  1.3703
   79MOL0     H10602   3.947   6.733  10.375  1.0566  0.6114 -0.8462
   79MOL0     H10603   3.915   6.836  10.505 -1.9063  0.9609 -0.1426
   79MOL0     H10604   3.792   6.999  10.371  2.5046  2.5007 -1.3328
   79MOL0     H10605   3.791   6.888  10.229 -0.6007  1.5051 -0.7946
   79MOL0     H10606   4.042   6.988  10.369  0.9560 -0.7941 -0.1552
   79MOL0     H10607   4.034   6.894  10.209 -2.3242 -0.3349 -1.5439
   79MOL0     H10608   3.906   7.046  10.102  1.1024 -2.1930  0.0940
   79MOL0     H10609   3.895   7.153  10.238 -0.2822 -1.0870 -0.4344
   79MOL0     H10610   4.145   7.200  10.224  0.6413 -0.9049  0.0570
   79MOL0     H10611   4.157   7.072  10.100  0.7759  0.3018  0.6854
   79MOL0     H10612   3.986   7.333  10.101 -0.3763 -1.1007  2.4037
   79MOL0     H10613   3.990   7.221   9.957 -0.4353  1.5366 -0.7675
   79MOL0     H10614   4.201   7.400  10.079  1.8319  2.4225 -3.0390
   79MOL0     H10615   4.250   7.259   9.980  1.6802  3.3071 -1.1494
   79MOL0     H10616   4.116   7.620   9.897  1.6678  3.1604 -3.3337
   79MOL0     H10617   4.207   7.653   9.510 -0.9698 -1.5911 -1.0714
   79MOL0     H10618   4.069   7.693   9.607  0.4450  1.5043  0.6002
   79MOL0     H10619   4.237   7.866   9.625 -0.1224 -0.7128 -1.4250
   79MOL0     H10620   4.165   7.796   9.772 -1.4757 -2.4725 -0.1976
   79MOL0     H10621   4.435   7.691   9.675 -0.4693  1.0319 -1.2445
   79MOL0     H10622   4.377   7.715   9.844  1.0435  0.2260  0.4743
   79MOL0     H10623   4.441   7.941   9.844  0.7883 -0.6455  0.3265
   79MOL0     H10624   4.423   7.959   9.668 -2.2363 -0.6477 -0.3044
   79MOL0     H10625   4.720   7.827   9.961  1.3052  0.0846  0.5972
   79MOL0     H10626   4.862   7.993  10.069 -2.0862 -1.3289  1.8274
   79MOL0     H10627   4.833   8.294  10.344  0.8350  0.0734  1.2148
   79MOL0     H10628   4.914   8.447  10.509  1.1592 -0.8083  2.0199
   79MOL0     H10629   5.296   8.709  10.431 -0.2057 -2.8875  2.8680
   79MOL0     H10630   5.148   8.752  10.343  1.0578 -1.0164  0.3292
   79MOL0     H10631   5.148   8.917  10.481 -4.9299 -0.1397 -1.1753
   79MOL0     H10632   5.052   8.807  10.578  0.9628 -2.7298  1.5102
   79MOL0     H10633   5.255   8.735  10.722  0.4641  0.5039  0.8849
   79MOL0     H10634   5.357   8.821  10.603  2.3895  2.1807  2.5089
   79MOL0     H10635   5.161   8.977  10.782  0.5804 -0.3976  2.4045
   79MOL0     H10636   5.292   9.033  10.672  0.8416  1.0193  0.7198
   79MOL0     H10637   5.463   8.953  10.810 -0.0933 -1.3146 -1.0871
   79MOL0     H10638   5.348   8.844  10.900 -0.9853  1.1704 -0.3584
   79MOL0     H10639   5.356   9.129  10.919  2.8530 -1.0690 -1.2949
   79MOL0     H10640   5.248   9.020  11.019  1.2871 -2.6825  2.1913
   79MOL0     H10641   5.549   8.981  11.039  0.3122  1.5348 -1.5239
   79MOL0     H10642   5.425   8.944  11.148  0.2525  0.4816 -0.3637
   79MOL0     H10643   5.382   9.200  11.172 -0.5606 -1.5298  1.2846
   79MOL0     H10644   5.537   9.133  11.236 -2.1246 -1.6656  0.8689
   79MOL0     H10645   5.230   8.560  10.242  0.7139 -0.3981 -0.5483
   79MOL0     H10646   5.142   8.419  10.060 -0.5659  2.7488  0.1145
   79MOL0     H10647   4.819   8.241   9.711  1.9253 -0.3586 -1.7914
   79MOL0     H10648   4.669   8.090   9.624  0.3731  4.3029  0.8607
   79MOL0     H10649   3.479   6.676  10.644 -1.2774  0.2664 -0.4347
   79MOL0     H10650   3.238   6.612  10.589 -1.2290  2.8822  1.0457
   79MOL0     H10651   3.021   6.284  10.268  0.5207  1.8439 -1.5529
   79MOL0     H10652   2.813   6.183  10.277  4.4289  1.4650 -1.4989
   79MOL0     H10653   2.423   6.411  10.328  1.9185 -0.1012  0.9422
   79MOL0     H10654   2.485   6.361  10.494 -1.0487 -1.6112  0.8835
   79MOL0     H10655   2.254   6.288  10.399 -1.0097 -1.7869 -1.7731
   79MOL0     H10656   2.363   6.186  10.503  2.2625 -0.6863 -1.1182
   79MOL0     H10657   2.438   6.063  10.277 -0.4073  0.3903  0.7834
   79MOL0     H10658   2.335   6.180  10.197 -0.8260 -1.5822 -1.6934
   79MOL0     H10659   2.242   5.951  10.234 -0.5602 -0.3108  0.6994
   79MOL0     H10660   2.216   5.987  10.397 -2.0188 -2.3537 -1.6292
   79MOL0     H10661   1.896   6.195  10.212 -0.6618 -1.2146  2.3356
   79MOL0     H10662   2.626   6.537  10.406 -0.9597  0.7984 -5.1252
   79MOL0     H10663   2.862   6.754  10.340 -0.1951  0.6621  0.2310
   79MOL0     H10664   2.733   6.734  10.458 -0.2041  0.1177  0.6334
   79MOL0     H10665   2.899   6.702  10.508 -0.9810 -1.4792  0.3025
   80MOL0     O10666   2.188   0.466   5.888 -0.0446  0.5915  0.1298
   80MOL0     C10667   2.178   0.580   5.939 -0.4276 -0.2052 -0.7780
   80MOL0     O10668   2.084   0.633   6.028  0.5039 -0.2162 -0.6811
   80MOL0     C10669   1.969   0.564   6.049 -0.4948 -0.8197  0.3228
   80MOL0     C10670   1.894   0.486   5.961  0.8724 -0.0733  0.1449
   80MOL0     C10671   1.778   0.412   6.004 -0.3423 -0.0073  1.0760
   80MOL0     C10672   1.753   0.401   6.139 -0.3264 -0.5821 -1.3430
   80MOL0     O10673   1.637   0.346   6.175 -0.0562 -0.7305 -0.5857
   80MOL0     C10674   1.635   0.291   6.304  1.0343 -0.4645  0.2346
   80MOL0     C10675   1.562   0.152   6.304 -0.6671 -0.6491  0.0789
   80MOL0     C10676   1.414   0.173   6.278 -0.2119  0.0224  0.1912
   80MOL0     C10677   1.334   0.049   6.289  0.3020 -0.1633 -0.1832
   80MOL0     C10678   1.192   0.073   6.227 -0.3272 -0.2970 -0.0872
   80MOL0     C10679   1.106   0.146   6.334 -0.1666  0.0031 -0.5811
   80MOL0     C10680   0.960   0.154   6.286 -1.6003  0.2137 -0.2651
   80MOL0     C10681   0.862   0.207   6.392 -0.2235  0.6988 -0.4513
   80MOL0     N10682   0.722   0.213   6.342 -0.2447 -0.2466  0.1134
   80MOL0     C10683   0.616   0.174   6.410 -0.3244  0.5144 -0.0566
   80MOL0     C10684   0.520   0.197   6.318  0.1578 -0.7249 -0.9345
   80MOL0     C10685   0.380   0.160   6.344  0.0999  0.7859  0.7989
   80MOL0     C10686   0.274   0.142   6.226 -0.8289  0.3435 -0.2245
   80MOL0     C10687   0.315   0.013   6.158  0.4772 -0.4937  0.7412
   80MOL0     C10688   0.251   0.013   6.016 -0.5526 -0.0662 -0.4163
   80MOL0     O10689   0.109   0.035   6.027  0.1217 -0.5508  0.0176
   80MOL0     C10690   0.024  -0.063   6.057 -0.2706 -1.1882 -0.0948
   80MOL0     C10691   0.066  -0.194   6.081 -0.3555  0.2672  0.1976
   80MOL0     C10692  -0.026  -0.290   6.123  0.8366 -0.1489  0.4010
   80MOL0     C10693  -0.164  -0.265   6.125 -0.7068 -0.6269  0.1978
   80MOL0     C10694  -0.268  -0.362   6.152 -0.0208  0.4466  0.0058
   80MOL0     O10695  -0.395  -0.315   6.152  0.3024  0.4983  0.0559
   80MOL0     C10696  -0.502  -0.407   6.162 -0.6558 -0.7676  0.3551
   80MOL0     C10697  -0.586  -0.405   6.050 -0.4107  0.2750 -0.5517
   80MOL0     C10698  -0.687  -0.500   6.048 -0.2339  0.5253 -0.2618
   80MOL0     C10699  -0.714  -0.573   6.167  0.1118 -0.6735  0.7527
   80MOL0     O10700  -0.817  -0.661   6.179 -0.5855 -0.1344  0.6468
   80MOL0     C10701  -0.919  -0.658   6.075 -0.5364  1.5536  0.1730
   80MOL0     C10702  -1.024  -0.768   6.104 -0.4238  0.1030 -0.2301
   80MOL0     C10703  -1.095  -0.739   6.236  1.1832 -0.4362  0.6931
   80MOL0     C10704  -1.218  -0.826   6.243 -0.9049  0.0284  0.1228
   80MOL0     C10705  -1.290  -0.788   6.370  0.4662 -0.4275  0.7717
   80MOL0     C10706  -1.411  -0.877   6.388 -0.4938  0.1914  0.1210
   80MOL0     C10707  -1.519  -0.882   6.272  0.0296 -0.6480 -0.0227
   80MOL0     C10708  -1.623  -0.989   6.304  0.5799  0.3151  0.1947
   80MOL0    Cl10709  -1.703  -1.059   6.164 -0.1384 -0.5032 -0.3463
   80MOL0     C10710  -0.626  -0.570   6.270  0.3962 -0.5207 -0.6555
   80MOL0     C10711  -0.517  -0.485   6.275  0.8746  0.6496  0.2225
   80MOL0     O10712  -0.233  -0.480   6.167  0.1643 -0.5413  0.5390
   80MOL0     C10713  -0.198  -0.134   6.096  0.1338 -0.4889  0.4697
   80MOL0     C10714  -0.108  -0.031   6.062  0.0707  0.0468 -0.7917
   80MOL0     N10715   0.571   0.250   6.199  0.7558 -0.7323  0.1975
   80MOL0     N10716   0.698   0.259   6.216 -0.5730  0.3396  0.1690
   80MOL0     C10717   1.823   0.491   6.224  0.6616  0.7690 -0.6045
   80MOL0     C10718   1.937   0.561   6.186 -0.0013  0.0462  0.1674
   80MOL0     C10719   2.305   0.668   5.925  0.1356 -0.7605  0.1331
   80MOL0     C10720   2.331   0.759   6.035 -0.3437  0.5196  0.5701
   80MOL0     C10721   2.448   0.836   6.039 -0.8600  0.9217 -0.3441
   80MOL0     C10722   2.530   0.832   5.917 -0.0752 -0.6178  0.5736
   80MOL0     O10723   2.658   0.879   5.906 -0.1222  0.3376  0.0998
   80MOL0     C10724   2.728   0.934   6.021 -0.0650 -0.0538  0.2210
   80MOL0     C10725   2.875   0.942   5.997 -0.2080 -0.1057  0.1827
   80MOL0     C10726   2.940   1.065   6.065 -0.4058 -0.6579  0.0367
   80MOL0     C10727   3.076   1.019   6.121  0.5624 -0.5483 -0.6415
   80MOL0     C10728   3.140   1.126   6.191 -0.2810 -0.6480 -0.0076
   80MOL0     C10729   3.188   1.223   6.248 -0.8404 -0.1801  0.4926
   80MOL0     C10730   2.496   0.757   5.801 -0.3457  0.2429 -0.2050
   80MOL0     C10731   2.384   0.676   5.807 -0.4651  0.3888 -0.1544
   80MOL0     C10732   2.352   0.588   5.681  0.0777 -0.3060  0.7660
   80MOL0     H10733   1.913   0.501   5.855 -0.2190  1.6801  0.1607
   80MOL0     H10734   1.717   0.370   5.925  0.6969  1.4680 -0.5937
   80MOL0     H10735   1.736   0.276   6.344 -0.1600 -2.6947  2.7831
   80MOL0     H10736   1.579   0.364   6.363  2.2891  0.3497  0.4769
   80MOL0     H10737   1.578   0.101   6.399  1.6679  0.6229  0.4335
   80MOL0     H10738   1.599   0.091   6.220  0.6738 -0.9406  0.8579
   80MOL0     H10739   1.420   0.201   6.172  2.9473 -0.7891  0.0538
   80MOL0     H10740   1.366   0.250   6.340 -0.7137 -1.7523  2.1016
   80MOL0     H10741   1.383  -0.036   6.239 -0.2297  1.0370 -2.9411
   80MOL0     H10742   1.332   0.020   6.394  0.2692  4.1583  1.1902
   80MOL0     H10743   1.188   0.131   6.135 -2.6545 -0.3849 -0.1087
   80MOL0     H10744   1.137  -0.020   6.212 -0.9304 -0.2591  1.6595
   80MOL0     H10745   1.113   0.108   6.437  0.6405  2.5774  0.3906
   80MOL0     H10746   1.141   0.249   6.330 -1.1089  0.3485 -0.1350
   80MOL0     H10747   0.923   0.054   6.260 -1.2360 -0.0211  0.1038
   80MOL0     H10748   0.958   0.212   6.193  2.0284 -0.5967 -1.0010
   80MOL0     H10749   0.863   0.138   6.477  0.9539  3.3003  1.7952
   80MOL0     H10750   0.901   0.305   6.421  1.3725  0.6827 -2.3124
   80MOL0     H10751   0.594   0.119   6.501 -2.0098  0.8786 -0.2055
   80MOL0     H10752   0.393   0.064   6.396  2.8585 -0.4764 -1.9072
   80MOL0     H10753   0.340   0.237   6.411 -3.4660  0.3587 -0.6670
   80MOL0     H10754   0.173   0.138   6.267 -1.4297 -0.4975 -1.7254
   80MOL0     H10755   0.276   0.231   6.162  0.4430 -0.3724 -1.2338
   80MOL0     H10756   0.291  -0.073   6.221  0.4239 -0.4621  0.7636
   80MOL0     H10757   0.424   0.021   6.147  0.3273 -0.6470 -1.2192
   80MOL0     H10758   0.275  -0.074   5.955  0.0653 -2.0215  2.4438
   80MOL0     H10759   0.298   0.098   5.966  0.0101 -0.3908 -0.4460
   80MOL0     H10760   0.169  -0.225   6.070 -0.4019  0.4378 -0.8152
   80MOL0     H10761   0.006  -0.391   6.146 -0.2327 -0.6642 -0.2634
   80MOL0     H10762  -0.557  -0.347   5.963  2.1250 -0.8669 -0.5600
   80MOL0     H10763  -0.750  -0.520   5.962 -4.6894  0.1905  2.7248
   80MOL0     H10764  -0.961  -0.557   6.077 -2.3425  0.8465  2.1168
   80MOL0     H10765  -0.874  -0.684   5.979  0.1452  3.1559  0.0253
   80MOL0     H10766  -1.090  -0.761   6.017  1.5958  1.7393 -1.7370
   80MOL0     H10767  -0.987  -0.871   6.106 -0.3828  0.1284  0.8007
   80MOL0     H10768  -1.037  -0.761   6.325  0.1004 -1.7697  1.1201
   80MOL0     H10769  -1.135  -0.637   6.243 -1.5664 -1.3542 -0.1551
   80MOL0     H10770  -1.184  -0.930   6.250  1.7745  0.7838 -0.5566
   80MOL0     H10771  -1.275  -0.810   6.151 -2.6140  2.5932  1.5061
   80MOL0     H10772  -1.333  -0.688   6.353 -0.7791 -1.2055 -1.0604
   80MOL0     H10773  -1.233  -0.773   6.462 -1.6665 -0.0005  2.0999
   80MOL0     H10774  -1.378  -0.978   6.414 -0.8109  0.5112  1.9012
   80MOL0     H10775  -1.466  -0.836   6.473  0.2854  0.6223  0.4160
   80MOL0     H10776  -1.464  -0.907   6.181 -0.8177  0.6572 -0.9323
   80MOL0     H10777  -1.573  -0.787   6.265 -2.6900 -2.1344 -0.5140
   80MOL0     H10778  -1.574  -1.068   6.361  2.1613 -1.9437 -3.8556
   80MOL0     H10779  -1.702  -0.946   6.366 -0.7627  2.3428 -2.6874
   80MOL0     H10780  -0.645  -0.635   6.355  1.0986 -0.1456 -0.2130
   80MOL0     H10781  -0.456  -0.482   6.365  0.1672  0.7561  0.7047
   80MOL0     H10782  -0.303  -0.108   6.095  0.7614  2.7367 -2.1014
   80MOL0     H10783  -0.145   0.065   6.030 -1.5644 -0.7935 -1.5593
   80MOL0     H10784   1.786   0.505   6.326 -3.6352 -0.3802 -1.7951
   80MOL0     H10785   1.997   0.617   6.256  2.5268 -1.6814 -0.4825
   80MOL0     H10786   2.284   0.758   6.133  1.0719  1.3402  1.2872
   80MOL0     H10787   2.472   0.898   6.125 -3.3348 -0.3187  1.3743
   80MOL0     H10788   2.717   0.867   6.107  2.3844 -0.1134  0.5678
   80MOL0     H10789   2.680   1.031   6.037  0.4747 -0.0496  2.1094
   80MOL0     H10790   2.901   0.953   5.891 -1.7237 -5.6778 -1.0798
   80MOL0     H10791   2.914   0.846   6.032 -1.3924 -0.0485  1.7861
   80MOL0     H10792   2.880   1.115   6.141 -2.4065 -2.3126 -0.3303
   80MOL0     H10793   2.958   1.138   5.986  1.7659 -1.2210 -0.0430
   80MOL0     H10794   3.074   0.934   6.189 -1.5802  0.1418  0.2543
   80MOL0     H10795   3.139   0.994   6.036  2.1220 -0.3389  0.4072
   80MOL0     H10796   3.240   1.308   6.289 -3.5588  1.7757  0.1995
   80MOL0     H10797   2.566   0.746   5.719 -1.8932  1.9451 -1.8317
   80MOL0     H10798   2.392   0.641   5.594  0.8035 -1.8771  0.0872
   80MOL0     H10799   2.393   0.486   5.684 -1.8390 -1.1674 -0.2960
   80MOL0     H10800   2.243   0.580   5.677 -0.0974 -0.1403  3.4746
   81MOL0     O10801  10.354   0.050  11.270 -0.0976 -0.1191  0.1496
   81MOL0     C10802  10.237   0.092  11.279  0.2129  0.3429 -0.0779
   81MOL0     O10803  10.166   0.138  11.179  0.5836  0.2073  1.1076
   81MOL0     C10804  10.240   0.159  11.063 -0.5669  0.5543 -1.1238
   81MOL0     C10805  10.352   0.246  11.047 -0.2417 -0.8946  0.6316
   81MOL0     C10806  10.410   0.260  10.927 -0.5180  0.8071  0.0642
   81MOL0     C10807  10.364   0.197  10.815  0.0569 -0.2786  0.3887
   81MOL0     O10808  10.426   0.210  10.696 -0.2222 -0.2441  0.4742
   81MOL0     C10809  10.559   0.154  10.680 -0.1734 -0.0866 -0.5526
   81MOL0     C10810  10.556   0.032  10.591 -1.1724 -0.0481  0.0225
   81MOL0     C10811  10.690  -0.046  10.596  0.9876 -0.3274  0.9850
   81MOL0     C10812  10.693  -0.145  10.478 -0.4099 -0.3395 -0.6060
   81MOL0     C10813  10.818  -0.237  10.485  0.7222  0.1846 -0.4317
   81MOL0     C10814  10.935  -0.155  10.438  0.1238 -0.2430  0.1371
   81MOL0     C10815  11.049  -0.231  10.399  0.1464 -0.1804  0.2571
   81MOL0     C10816  11.107  -0.311  10.514  0.5943  0.5660 -1.0757
   81MOL0     N10817  11.237  -0.372  10.477 -0.5325  0.2934  0.0117
   81MOL0     C10818  11.245  -0.503  10.421 -1.0080 -0.0889 -0.6771
   81MOL0     C10819  11.374  -0.508  10.384  0.1013  0.0256  0.1057
   81MOL0     C10820  11.437  -0.618  10.309 -0.1353 -0.1175  0.3307
   81MOL0     C10821  11.582  -0.597  10.312 -1.2852  0.3611  0.1645
   81MOL0     C10822  11.665  -0.716  10.253  0.2294 -0.3340  0.4429
   81MOL0     C10823  11.812  -0.682  10.236  0.7485 -0.3291  0.4942
   81MOL0     O10824  11.876  -0.802  10.202  0.1290  0.1622 -0.1936
   81MOL0     C10825  12.010  -0.813  10.229  0.0879 -0.6024  0.3185
   81MOL0     C10826  12.072  -0.939  10.225  0.3431  0.5734  1.0195
   81MOL0     C10827  12.210  -0.951  10.260 -0.0715  0.7665  0.6745
   81MOL0     C10828  12.287  -0.844  10.301 -0.7085 -0.4486 -0.1875
   81MOL0     C10829  12.429  -0.850  10.339  0.6363  0.5638  0.3662
   81MOL0     O10830  12.501  -0.740  10.339 -0.1213  0.3204 -0.4177
   81MOL0     C10831  12.633  -0.744  10.393  0.8063 -0.8613  0.2790
   81MOL0     C10832  12.734  -0.825  10.337 -1.0248 -0.2918 -0.5878
   81MOL0     C10833  12.859  -0.831  10.401 -0.4860  0.2205 -0.3911
   81MOL0     C10834  12.895  -0.755  10.515  0.2274  0.2629 -0.1652
   81MOL0     O10835  13.014  -0.751  10.579 -0.8375 -0.1909  0.6870
   81MOL0     C10836  13.116  -0.838  10.534  0.3438  0.4889  0.3974
   81MOL0     C10837  13.229  -0.851  10.629  0.3110 -0.1105 -0.4361
   81MOL0     C10838  13.327  -0.739  10.659 -0.0293 -0.1986 -0.5988
   81MOL0     C10839  13.378  -0.728  10.807 -0.5020 -0.7218 -0.3584
   81MOL0     C10840  13.442  -0.596  10.834  0.1903 -0.8601 -0.7140
   81MOL0     C10841  13.550  -0.608  10.932 -0.9338  0.0084  0.0712
   81MOL0     C10842  13.591  -0.485  11.004 -0.4641  0.6544 -0.5285
   81MOL0     C10843  13.737  -0.441  10.967 -0.5422  0.3838 -0.5304
   81MOL0    Cl10844  13.864  -0.536  11.051  0.4399  0.1617  0.2791
   81MOL0     C10845  12.798  -0.676  10.571 -1.3118 -0.1068 -0.1422
   81MOL0     C10846  12.670  -0.675  10.509  0.6994 -0.1046  0.2963
   81MOL0     O10847  12.470  -0.962  10.366  0.5341 -0.2716 -0.2927
   81MOL0     C10848  12.224  -0.715  10.298  0.5323  0.7252 -0.3596
   81MOL0     C10849  12.089  -0.702  10.264  0.3704 -0.5904  0.8123
   81MOL0     N10850  11.439  -0.385  10.411  0.2991 -0.7621  0.1678
   81MOL0     N10851  11.356  -0.312  10.476 -0.3416  1.0794  0.2266
   81MOL0     C10852  10.257   0.110  10.825 -0.4715  0.0038  0.2715
   81MOL0     C10853  10.197   0.091  10.952  0.4862  0.2968  0.8879
   81MOL0     C10854  10.184   0.071  11.422  0.0175  0.1802 -0.4745
   81MOL0     C10855  10.275   0.044  11.529  0.2321  0.3491 -0.7176
   81MOL0     C10856  10.225   0.021  11.657  0.2474 -0.6572 -0.6407
   81MOL0     C10857  10.087   0.018  11.682  0.5226  0.2909  0.6518
   81MOL0     O10858  10.031  -0.007  11.803  0.3210 -0.0205 -0.4959
   81MOL0     C10859  10.110  -0.003  11.922 -0.2904  0.4776 -0.3544
   81MOL0     C10860  10.009  -0.015  12.040  0.3335  0.3645 -0.9861
   81MOL0     C10861   9.901   0.097  12.044 -0.1588  1.0992  0.0677
   81MOL0     C10862   9.845   0.124  12.179 -0.7748 -0.4588 -0.5278
   81MOL0     C10863   9.729   0.035  12.207 -0.4708 -1.2725  0.2686
   81MOL0     C10864   9.629  -0.022  12.213 -0.3550  0.6015 -0.4664
   81MOL0     C10865  10.002   0.042  11.582  0.7281  0.0318 -0.1690
   81MOL0     C10866  10.051   0.088  11.454  0.9606  0.3141  1.5327
   81MOL0     C10867   9.938   0.128  11.356  0.3284  0.0351  0.1037
   81MOL0     H10868  10.391   0.311  11.124 -0.4074 -0.1195  0.0752
   81MOL0     H10869  10.500   0.321  10.924  0.9500 -1.1448  1.8116
   81MOL0     H10870  10.629   0.230  10.645  2.7051 -2.5486 -0.5443
   81MOL0     H10871  10.611   0.126  10.772  0.7217  0.3738 -0.9091
   81MOL0     H10872  10.520   0.058  10.491  1.7429  0.9960 -0.8402
   81MOL0     H10873  10.483  -0.033  10.641  0.5276 -0.5605  1.9753
   81MOL0     H10874  10.715  -0.108  10.683  0.1383 -3.6889 -0.9896
   81MOL0     H10875  10.763   0.033  10.576 -0.2067  1.1288  2.1491
   81MOL0     H10876  10.608  -0.212  10.500  1.0051 -2.4973 -1.3743
   81MOL0     H10877  10.662  -0.104  10.382  0.8186  2.1236 -0.0235
   81MOL0     H10878  10.828  -0.276  10.587 -0.1294  1.0553 -0.0048
   81MOL0     H10879  10.795  -0.316  10.412 -2.2872  2.4566 -2.1780
   81MOL0     H10880  10.907  -0.091  10.354  0.6184  0.9095  0.8219
   81MOL0     H10881  10.965  -0.088  10.520 -0.1211  1.3699 -1.0527
   81MOL0     H10882  11.128  -0.168  10.358 -1.3945  2.8306  1.5723
   81MOL0     H10883  11.001  -0.298  10.328 -2.2996  1.1238  0.5739
   81MOL0     H10884  11.128  -0.253  10.604  0.4235 -2.6080  1.1813
   81MOL0     H10885  11.033  -0.383  10.550  4.0671 -3.2270 -0.7283
   81MOL0     H10886  11.186  -0.593  10.402  1.0910 -1.6647 -0.1357
   81MOL0     H10887  11.420  -0.715  10.355  1.0435 -0.6981 -0.4212
   81MOL0     H10888  11.417  -0.625  10.201  2.9560  0.1112 -0.3428
   81MOL0     H10889  11.616  -0.504  10.265  0.7079  1.2208  3.0093
   81MOL0     H10890  11.626  -0.596  10.412  0.1607 -2.1341 -0.3493
   81MOL0     H10891  11.620  -0.746  10.157  2.0050 -0.3917 -0.4126
   81MOL0     H10892  11.655  -0.805  10.316 -4.9094 -0.5185 -0.1718
   81MOL0     H10893  11.843  -0.633  10.329 -1.9612  0.8082  0.8811
   81MOL0     H10894  11.815  -0.607  10.156 -0.0345  0.2989  1.0363
   81MOL0     H10895  12.011  -1.020  10.187  3.6970 -0.3177 -3.1313
   81MOL0     H10896  12.245  -1.053  10.261 -2.7580 -0.3233 -1.8351
   81MOL0     H10897  12.704  -0.868  10.242 -0.9228  3.2363 -2.3743
   81MOL0     H10898  12.932  -0.905  10.369  0.7205  1.0684  0.2948
   81MOL0     H10899  13.076  -0.936  10.508  0.0640  0.9195 -0.8694
   81MOL0     H10900  13.160  -0.813  10.437 -2.5358 -2.3019 -1.8172
   81MOL0     H10901  13.188  -0.876  10.727 -0.3483  1.3598 -0.3108
   81MOL0     H10902  13.278  -0.943  10.596 -0.6044 -1.3318  1.4214
   81MOL0     H10903  13.402  -0.742  10.579  2.4749 -2.2734  1.6331
   81MOL0     H10904  13.266  -0.648  10.652 -2.6112 -1.7036  0.9006
   81MOL0     H10905  13.443  -0.812  10.832  0.7141  0.4131  0.4423
   81MOL0     H10906  13.301  -0.726  10.884 -0.6758  1.8950 -0.5193
   81MOL0     H10907  13.367  -0.520  10.857  0.5159 -0.2157 -1.7320
   81MOL0     H10908  13.487  -0.558  10.742  0.9284  1.8769  0.6831
   81MOL0     H10909  13.511  -0.679  11.006 -3.3633 -0.0513 -1.1859
   81MOL0     H10910  13.635  -0.652  10.879 -0.2194  0.2303  1.0033
   81MOL0     H10911  13.604  -0.509  11.110 -0.9457  0.5030 -0.4988
   81MOL0     H10912  13.514  -0.407  11.001  0.5232  1.9669  3.3059
   81MOL0     H10913  13.757  -0.446  10.859  1.2987  0.1167 -0.2094
   81MOL0     H10914  13.750  -0.336  10.997 -0.9878  0.7198 -1.4644
   81MOL0     H10915  12.821  -0.610  10.654 -0.1544  0.0398 -0.5626
   81MOL0     H10916  12.591  -0.605  10.537  0.3085  0.4126 -1.9056
   81MOL0     H10917  12.286  -0.627  10.312  1.9646 -0.3705  0.3806
   81MOL0     H10918  12.063  -0.597  10.260  0.7792 -0.4572  1.5128
   81MOL0     H10919  10.236   0.062  10.730 -0.6050  1.3965 -0.4323
   81MOL0     H10920  10.118   0.019  10.974  1.0078 -0.1316  1.4075
   81MOL0     H10921  10.381   0.027  11.510  0.2425  1.2604 -1.5413
   81MOL0     H10922  10.285  -0.008  11.743 -1.3573  0.9828  1.1274
   81MOL0     H10923  10.185   0.076  11.930  0.5790 -0.3764  0.2105
   81MOL0     H10924  10.163  -0.099  11.921 -4.5745 -2.3068  3.2459
   81MOL0     H10925  10.066  -0.007  12.133 -1.4440 -0.5465  0.2366
   81MOL0     H10926   9.956  -0.110  12.042  1.9604 -0.5945  1.2653
   81MOL0     H10927   9.824   0.068  11.972  0.5261 -3.5776  0.8955
   81MOL0     H10928   9.957   0.183  12.007 -0.4133  0.4973 -1.8461
   81MOL0     H10929   9.922   0.130  12.256 -2.0153  2.2462  0.6408
   81MOL0     H10930   9.811   0.228  12.179  1.9125  0.5361 -1.8995
   81MOL0     H10931   9.538  -0.079  12.213 -0.8540  1.0709  3.8701
   81MOL0     H10932   9.898   0.052  11.610  0.6496  1.2321 -0.8027
   81MOL0     H10933   9.842   0.127  11.408 -0.5185 -0.4189 -1.4036
   81MOL0     H10934   9.939   0.232  11.319  1.2076  0.3611  1.0112
   81MOL0     H10935   9.930   0.049  11.282 -0.3802 -1.2183  1.4710
   82MOL0     O10936   8.141   5.793  10.734 -0.1866 -0.6109 -0.5026
   82MOL0     C10937   8.097   5.828  10.625  0.4292 -0.1257  0.4692
   82MOL0     O10938   8.143   5.938  10.559  0.0958  0.2604 -0.8267
   82MOL0     C10939   8.237   6.007  10.629  0.3548 -0.2768 -1.0071
   82MOL0     C10940   8.203   6.084  10.740  0.4844  0.3643  0.2570
   82MOL0     C10941   8.311   6.153  10.808 -0.1564  0.1335 -0.3169
   82MOL0     C10942   8.443   6.141  10.766 -0.8191 -0.3374  0.3609
   82MOL0     O10943   8.547   6.224  10.803 -0.2979 -0.0572  0.2231
   82MOL0     C10944   8.548   6.284  10.933 -0.3971 -0.3440 -0.0949
   82MOL0     C10945   8.682   6.353  10.950 -0.1710  0.1292 -0.1284
   82MOL0     C10946   8.798   6.252  10.933 -0.7224  0.3290 -0.5220
   82MOL0     C10947   8.933   6.313  10.968 -0.5892  0.0470 -0.3126
   82MOL0     C10948   9.051   6.218  10.962 -0.2329  0.5257 -0.0544
   82MOL0     C10949   9.179   6.251  11.044  0.5381 -0.1144 -0.2994
   82MOL0     C10950   9.302   6.164  11.012 -0.4470 -0.3160 -0.3793
   82MOL0     C10951   9.358   6.175  10.867 -0.1500 -1.4378 -1.1261
   82MOL0     N10952   9.479   6.102  10.837 -0.6979  0.9324  0.2048
   82MOL0     C10953   9.498   6.018  10.730 -0.2434  0.0697  0.5688
   82MOL0     C10954   9.612   5.948  10.753  0.3112 -0.6482 -0.2826
   82MOL0     C10955   9.671   5.854  10.662  0.0636  0.3949  0.3876
   82MOL0     C10956   9.749   5.746  10.738 -0.1757 -0.2950 -0.1360
   82MOL0     C10957   9.768   5.602  10.671  0.4010  0.4412 -0.2561
   82MOL0     C10958   9.839   5.615  10.538  0.0500  0.2878  0.3734
   82MOL0     O10959   9.977   5.577  10.553 -0.3769  0.1099 -0.3807
   82MOL0     C10960  10.025   5.457  10.582 -0.6934 -0.0168  0.5141
   82MOL0     C10961  10.162   5.448  10.608  0.1190 -0.2343 -0.3505
   82MOL0     C10962  10.226   5.331  10.631 -0.2584 -0.1157  0.8229
   82MOL0     C10963  10.148   5.218  10.661  0.1087 -0.3978 -0.3086
   82MOL0     C10964  10.213   5.098  10.715  0.0509 -0.5720 -0.2046
   82MOL0     O10965  10.137   5.025  10.804  0.7222 -0.5651  0.1792
   82MOL0     C10966  10.165   4.890  10.828  0.6746  0.0882 -0.6876
   82MOL0     C10967  10.244   4.803  10.740 -0.4389  0.2881 -0.1850
   82MOL0     C10968  10.260   4.671  10.774  0.3932  1.0198  0.5600
   82MOL0     C10969  10.192   4.611  10.881  0.0700 -0.1953 -0.5820
   82MOL0     O10970  10.204   4.481  10.923  0.0328  0.0384 -0.0362
   82MOL0     C10971  10.328   4.410  10.891 -0.1524 -0.2920  0.0371
   82MOL0     C10972  10.324   4.271  10.946 -0.4132 -0.1848  0.4912
   82MOL0     C10973  10.450   4.193  10.915 -0.1789 -0.2807 -0.0482
   82MOL0     C10974  10.435   4.064  10.997  0.3261  0.9181 -0.2194
   82MOL0     C10975  10.511   3.943  10.932  0.7498 -1.1377 -0.1036
   82MOL0     C10976  10.521   3.821  11.024 -0.1489  0.4715  0.0748
   82MOL0     C10977  10.675   3.816  11.052  0.5138 -0.1913  0.0683
   82MOL0     C10978  10.759   3.747  10.945 -0.3393 -0.1080 -0.0229
   82MOL0    Cl10979  10.706   3.576  10.909 -0.4021 -0.2204 -0.3656
   82MOL0     C10980  10.112   4.699  10.963 -0.3054  0.6636 -0.2077
   82MOL0     C10981  10.095   4.834  10.934  0.1096  0.2697  0.6030
   82MOL0     O10982  10.333   5.073  10.683 -0.4053  0.0320  0.4141
   82MOL0     C10983  10.002   5.225  10.660  0.2368 -0.5785  0.5595
   82MOL0     C10984   9.947   5.346  10.625  0.0823 -0.9550  1.4556
   82MOL0     N10985   9.650   5.984  10.879 -0.1473  0.3242  0.4749
   82MOL0     N10986   9.578   6.080  10.923 -0.3106  0.0018  0.2772
   82MOL0     C10987   8.475   6.061  10.652  0.3038  0.6919  0.1368
   82MOL0     C10988   8.367   6.003  10.586 -0.0313 -1.2082 -0.4976
   82MOL0     C10989   7.988   5.752  10.567 -0.1545 -0.0743  0.3250
   82MOL0     C10990   7.988   5.612  10.575  0.6904  0.0907  0.8174
   82MOL0     C10991   7.881   5.537  10.514 -0.2949 -0.0504  0.4560
   82MOL0     C10992   7.784   5.595  10.450  0.8200 -0.1415  0.3775
   82MOL0     O10993   7.672   5.531  10.398 -0.1364  0.2587  0.1670
   82MOL0     C10994   7.617   5.416  10.469 -0.0123 -1.1034  0.7797
   82MOL0     C10995   7.533   5.335  10.367  0.3989 -0.7018 -0.2663
   82MOL0     C10996   7.414   5.403  10.304  0.1005 -0.1788 -0.8871
   82MOL0     C10997   7.352   5.340  10.187 -0.0362 -0.3429 -1.4337
   82MOL0     C10998   7.421   5.402  10.069  0.2022  0.5979 -0.0854
   82MOL0     C10999   7.459   5.454   9.966  0.5530  0.9456  0.1343
   82MOL0     C11000   7.788   5.732  10.423  0.0751 -0.2163  0.0387
   82MOL0     C11001   7.887   5.806  10.481 -0.1905 -0.6615  0.8650
   82MOL0     C11002   7.881   5.954  10.473  0.8408  0.8037  0.0683
   82MOL0     H11003   8.103   6.113  10.770  1.1722  1.2245  1.8616
   82MOL0     H11004   8.287   6.227  10.883  1.0279  0.1474  0.0757
   82MOL0     H11005   8.469   6.359  10.943  1.4053  2.1683 -3.1638
   82MOL0     H11006   8.531   6.208  11.011  1.1343  1.0430  1.6741
   82MOL0     H11007   8.679   6.376  11.057  3.8077  0.0348  0.1832
   82MOL0     H11008   8.698   6.447  10.897 -1.7142  1.5961  1.8631
   82MOL0     H11009   8.803   6.214  10.830 -2.5305 -3.7135  0.6754
   82MOL0     H11010   8.770   6.169  10.998  0.3822  0.9735  0.8254
   82MOL0     H11011   8.963   6.396  10.903  1.4300 -1.0682 -0.8589
   82MOL0     H11012   8.922   6.352  11.070  2.3051  1.4524 -0.4513
   82MOL0     H11013   9.021   6.119  10.996  1.9701  0.3544  1.5675
   82MOL0     H11014   9.087   6.201  10.860  2.1754 -3.0747  1.2118
   82MOL0     H11015   9.205   6.358  11.041  0.9550 -0.0415  2.6602
   82MOL0     H11016   9.165   6.232  11.151  0.5394  2.3121  0.1939
   82MOL0     H11017   9.288   6.057  11.030 -0.4009 -0.5371 -1.5596
   82MOL0     H11018   9.389   6.197  11.069  2.8223 -1.0491 -4.4589
   82MOL0     H11019   9.282   6.134  10.800 -0.0289 -0.7267 -1.7033
   82MOL0     H11020   9.369   6.279  10.836 -1.6835 -0.2285  1.8756
   82MOL0     H11021   9.435   6.010  10.642  0.8187 -0.6666 -0.1448
   82MOL0     H11022   9.580   5.806  10.624  0.8070 -1.2388  0.5799
   82MOL0     H11023   9.728   5.898  10.579 -1.4327  0.3921 -0.6891
   82MOL0     H11024   9.850   5.788  10.735 -0.2597 -0.1406 -1.8857
   82MOL0     H11025   9.716   5.735  10.842 -0.3647 -2.2518 -0.3671
   82MOL0     H11026   9.664   5.568  10.659 -0.6622  3.2513  0.1887
   82MOL0     H11027   9.822   5.545  10.746  0.8610  2.0326  0.6584
   82MOL0     H11028   9.845   5.719  10.505  1.6763  1.4147  3.8326
   82MOL0     H11029   9.794   5.553  10.460  1.5201 -0.2677 -0.0711
   82MOL0     H11030  10.210   5.544  10.592 -2.0946  0.9017 -0.5371
   82MOL0     H11031  10.335   5.330  10.629 -0.1672  2.6271 -0.8954
   82MOL0     H11032  10.292   4.839  10.649 -1.5251  0.3706 -0.7334
   82MOL0     H11033  10.339   4.624  10.717 -3.2008 -2.5921 -2.0909
   82MOL0     H11034  10.345   4.430  10.785  0.1974  3.3631  0.6529
   82MOL0     H11035  10.405   4.462  10.949 -1.0081  1.7741 -0.5740
   82MOL0     H11036  10.306   4.271  11.054 -0.7893  3.0041  0.5363
   82MOL0     H11037  10.231   4.228  10.907 -0.7846  1.4497 -0.5434
   82MOL0     H11038  10.466   4.175  10.808 -1.5511 -0.5235 -0.2283
   82MOL0     H11039  10.535   4.251  10.951 -0.7792  1.3275 -1.1374
   82MOL0     H11040  10.335   4.025  11.014  0.7245 -0.5218 -1.0424
   82MOL0     H11041  10.472   4.095  11.095  0.6640 -0.8312  0.2231
   82MOL0     H11042  10.608   3.984  10.903  0.2917 -0.0877 -0.2190
   82MOL0     H11043  10.459   3.915  10.840 -0.1308  1.9694 -0.6932
   82MOL0     H11044  10.475   3.848  11.119  1.2276  1.6222  0.4545
   82MOL0     H11045  10.472   3.729  10.991  0.1235 -1.5449  4.5201
   82MOL0     H11046  10.680   3.760  11.146 -2.1629  2.8684  2.2586
   82MOL0     H11047  10.714   3.914  11.081  1.7764 -0.6367 -0.0611
   82MOL0     H11048  10.753   3.804  10.852  0.1325 -2.2075 -1.4093
   82MOL0     H11049  10.865   3.751  10.973  0.1898 -1.1708 -1.7269
   82MOL0     H11050  10.063   4.648  11.046 -2.0006  0.6563 -1.1717
   82MOL0     H11051  10.024   4.900  10.982  0.2193  2.9262 -2.5269
   82MOL0     H11052   9.939   5.143  10.692 -1.9673  0.8106 -0.0101
   82MOL0     H11053   9.839   5.344  10.626 -0.1022  0.4693 -1.7814
   82MOL0     H11054   8.579   6.058  10.619  0.8170  2.0693  1.4527
   82MOL0     H11055   8.389   5.929  10.510  2.5552 -0.3380 -0.6926
   82MOL0     H11056   8.077   5.569  10.620  0.6809  0.2949  1.0380
   82MOL0     H11057   7.880   5.429  10.530 -2.2964 -0.3360 -1.1371
   82MOL0     H11058   7.556   5.454  10.552  0.1397  2.4518 -0.5607
   82MOL0     H11059   7.688   5.347  10.516 -2.0549 -1.2541  4.0015
   82MOL0     H11060   7.503   5.239  10.409 -0.8816 -0.8368 -1.4279
   82MOL0     H11061   7.604   5.308  10.289  0.8270  0.1974 -0.2085
   82MOL0     H11062   7.444   5.507  10.286  2.7015 -0.4810  1.1915
   82MOL0     H11063   7.341   5.407  10.385 -1.7027 -0.0867 -2.4281
   82MOL0     H11064   7.365   5.232  10.200 -1.5558 -0.2475  1.9645
   82MOL0     H11065   7.245   5.362  10.181 -0.0731  0.0905  0.3342
   82MOL0     H11066   7.504   5.485   9.874  3.5452 -2.3371  0.2620
   82MOL0     H11067   7.717   5.786  10.361  1.7792  0.7416 -1.1722
   82MOL0     H11068   7.888   5.997  10.574 -2.6363  0.2954  0.6513
   82MOL0     H11069   7.968   5.983  10.413  3.3188 -3.5269  1.1221
   82MOL0     H11070   7.786   5.983  10.428  0.5416 -1.7743 -1.1738
   83MOL0     O11071   4.730   5.715   3.494 -0.9796 -0.0193 -0.3953
   83MOL0     C11072   4.705   5.653   3.397  0.0778  0.8597 -0.5169
   83MOL0     O11073   4.790   5.590   3.318  0.2169  0.5080  0.1450
   83MOL0     C11074   4.925   5.624   3.322  0.0940 -0.1846 -0.6592
   83MOL0     C11075   4.968   5.698   3.211  0.2146  0.1103  0.3064
   83MOL0     C11076   5.100   5.740   3.196  0.8537 -0.0524  0.0344
   83MOL0     C11077   5.197   5.718   3.297 -0.2518  0.0580 -0.0100
   83MOL0     O11078   5.323   5.766   3.277 -0.3175  0.2148 -0.6734
   83MOL0     C11079   5.418   5.721   3.380 -0.3712  0.5134 -0.1533
   83MOL0     C11080   5.541   5.809   3.382 -0.0080  0.5490  0.8988
   83MOL0     C11081   5.600   5.818   3.236  0.2506 -0.2983  0.1330
   83MOL0     C11082   5.677   5.950   3.216 -0.3375 -0.6604  0.6030
   83MOL0     C11083   5.805   5.949   3.300 -0.7215  0.6510  0.0023
   83MOL0     C11084   5.891   6.072   3.292  0.0161  0.3026  0.0245
   83MOL0     C11085   6.015   6.051   3.377  0.1542  0.3630  0.6375
   83MOL0     C11086   6.106   6.171   3.383 -0.4019 -0.0220  1.1696
   83MOL0     N11087   6.039   6.276   3.459 -0.4737  0.6116  0.2592
   83MOL0     C11088   6.040   6.262   3.595 -0.3302 -0.0211 -0.0737
   83MOL0     C11089   6.024   6.390   3.650  0.0761  0.1491  0.4444
   83MOL0     C11090   6.007   6.426   3.798 -0.8712 -0.4553  0.2386
   83MOL0     C11091   6.101   6.539   3.838  0.1385 -0.6362 -1.1855
   83MOL0     C11092   6.248   6.485   3.817 -0.0710 -0.4683  1.0431
   83MOL0     C11093   6.345   6.601   3.847 -0.5890  0.6664 -0.3318
   83MOL0     O11094   6.478   6.561   3.809 -0.2718 -0.2986 -0.4994
   83MOL0     C11095   6.575   6.641   3.870  0.0105  0.6374  0.0413
   83MOL0     C11096   6.706   6.591   3.887 -0.2463  0.7357 -0.1600
   83MOL0     C11097   6.810   6.679   3.921  0.6314 -1.3649 -0.1521
   83MOL0     C11098   6.787   6.816   3.960  0.4577  0.0518  0.5791
   83MOL0     C11099   6.905   6.903   3.985  1.0353  0.0901 -0.0330
   83MOL0     O11100   7.016   6.870   3.915  0.5641 -0.2934  0.2412
   83MOL0     C11101   7.130   6.943   3.938  0.2243 -0.7780  0.5034
   83MOL0     C11102   7.207   6.952   3.827  0.2046 -0.0646  0.5572
   83MOL0     C11103   7.336   7.005   3.839  0.1011 -0.0858  0.1224
   83MOL0     C11104   7.381   7.061   3.960  1.0353  0.7223 -0.6856
   83MOL0     O11105   7.499   7.124   3.978 -0.1244  0.4698 -0.2784
   83MOL0     C11106   7.613   7.049   3.931  0.3145  0.8271  0.2319
   83MOL0     C11107   7.751   7.121   3.947 -0.1013 -0.5751  0.0901
   83MOL0     C11108   7.776   7.239   3.851  0.2077 -0.7069 -0.5044
   83MOL0     C11109   7.928   7.252   3.838 -0.6219 -0.1698  0.9139
   83MOL0     C11110   7.970   7.366   3.745  0.0879 -0.4139  0.2312
   83MOL0     C11111   8.122   7.357   3.720 -0.3495  0.0691 -0.2024
   83MOL0     C11112   8.162   7.468   3.621 -0.2233  0.4544 -0.6170
   83MOL0     C11113   8.319   7.480   3.617  0.2342 -0.3169  0.5508
   83MOL0    Cl11114   8.386   7.555   3.771  0.4421  0.2321 -0.1900
   83MOL0     C11115   7.292   7.053   4.072  0.1474 -0.7539 -0.8728
   83MOL0     C11116   7.171   7.001   4.058 -1.0747 -0.2856 -0.9547
   83MOL0     O11117   6.884   7.007   4.050 -0.3006 -0.4561 -0.9028
   83MOL0     C11118   6.657   6.857   3.968  0.2469  0.2832  0.3860
   83MOL0     C11119   6.556   6.776   3.921 -0.0369  0.0000 -0.0374
   83MOL0     N11120   6.016   6.472   3.537  0.1592  0.3992  0.9109
   83MOL0     N11121   6.031   6.406   3.430  0.1508  0.0881  0.2812
   83MOL0     C11122   5.159   5.637   3.409  0.1280  0.8376 -0.2394
   83MOL0     C11123   5.026   5.588   3.420  0.3997  0.0432 -0.0050
   83MOL0     C11124   4.564   5.623   3.374 -0.1820 -0.5722 -0.2100
   83MOL0     C11125   4.511   5.697   3.267  0.1425 -0.5877  0.0412
   83MOL0     C11126   4.372   5.692   3.234 -0.2627  1.3578  0.8015
   83MOL0     C11127   4.295   5.594   3.305  0.3468  0.0371  0.5440
   83MOL0     O11128   4.160   5.583   3.292  0.1966 -0.4884 -0.4220
   83MOL0     C11129   4.100   5.682   3.208 -0.5415  0.9644 -0.4532
   83MOL0     C11130   3.951   5.670   3.207 -0.6401 -0.4125  0.5161
   83MOL0     C11131   3.882   5.736   3.079  0.3082 -0.5969  0.2219
   83MOL0     C11132   3.933   5.871   3.033  1.6471 -0.0465 -0.3110
   83MOL0     C11133   3.951   5.970   3.135 -0.6973 -0.0090  0.1851
   83MOL0     C11134   3.976   6.056   3.221  0.5618 -0.3061 -0.5967
   83MOL0     C11135   4.353   5.520   3.408  0.1151  0.9051  0.6427
   83MOL0     C11136   4.486   5.531   3.442  0.1440 -0.4656 -0.4990
   83MOL0     C11137   4.539   5.443   3.552 -0.3010  1.2379 -0.1689
   83MOL0     H11138   4.891   5.720   3.138  1.0067 -1.7360 -1.1581
   83MOL0     H11139   5.129   5.798   3.109  1.2374  0.9349  0.8129
   83MOL0     H11140   5.376   5.731   3.480 -0.9592  2.5967 -0.5545
   83MOL0     H11141   5.437   5.614   3.366  0.9714  0.7743 -0.5775
   83MOL0     H11142   5.618   5.760   3.443  0.6140  1.0122  0.5046
   83MOL0     H11143   5.518   5.904   3.431  0.5018  0.3615  1.5263
   83MOL0     H11144   5.513   5.832   3.171 -0.0754  3.5944  1.1312
   83MOL0     H11145   5.653   5.727   3.209 -2.3429 -2.0654  0.5833
   83MOL0     H11146   5.715   5.947   3.114 -1.7717  0.2286  0.0067
   83MOL0     H11147   5.621   6.042   3.235  1.5469  0.2589  2.1029
   83MOL0     H11148   5.781   5.932   3.406 -0.8479  1.6071  0.1367
   83MOL0     H11149   5.853   5.858   3.261 -0.3789  0.7995  0.0672
   83MOL0     H11150   5.923   6.092   3.190  2.0523  1.1929  0.7893
   83MOL0     H11151   5.829   6.155   3.326 -0.7130  0.0284 -0.6074
   83MOL0     H11152   6.067   5.974   3.319 -0.4749 -0.3934  1.0524
   83MOL0     H11153   5.996   6.000   3.472  2.8573 -0.4967  0.7827
   83MOL0     H11154   6.205   6.145   3.424  0.5655  1.5178 -0.0689
   83MOL0     H11155   6.127   6.203   3.281 -0.6136 -0.2147  1.0656
   83MOL0     H11156   6.046   6.167   3.647  1.0832 -0.4180 -0.9090
   83MOL0     H11157   5.901   6.444   3.814 -0.8724 -1.4570  1.6288
   83MOL0     H11158   6.034   6.337   3.857  1.2091 -0.6551 -0.9166
   83MOL0     H11159   6.080   6.627   3.776 -0.2489  1.0776  1.2780
   83MOL0     H11160   6.080   6.567   3.941  1.4480 -1.4465 -0.6671
   83MOL0     H11161   6.264   6.464   3.711 -0.6259  3.5766  0.0063
   83MOL0     H11162   6.268   6.396   3.878 -0.9129 -0.8971  0.7133
   83MOL0     H11163   6.330   6.623   3.953  2.0034  0.0009  0.2322
   83MOL0     H11164   6.320   6.691   3.788  0.1054  1.1164  0.0443
   83MOL0     H11165   6.714   6.490   3.848  2.3471  0.7987  0.0371
   83MOL0     H11166   6.912   6.643   3.921  1.5488  0.8471  2.3739
   83MOL0     H11167   7.167   6.917   3.732 -1.3138 -1.7396  1.7557
   83MOL0     H11168   7.395   7.013   3.748  1.1179  1.9933  0.8868
   83MOL0     H11169   7.630   6.956   3.986  4.4540  0.6901 -0.9696
   83MOL0     H11170   7.604   7.023   3.825 -0.6323 -0.3851  0.5802
   83MOL0     H11171   7.765   7.162   4.047 -0.1916 -1.9084  0.6585
   83MOL0     H11172   7.842   7.062   3.934  1.6448  2.0626 -0.4882
   83MOL0     H11173   7.740   7.226   3.748  3.0165 -1.3449 -1.5201
   83MOL0     H11174   7.724   7.328   3.888 -0.7096 -2.7685  3.7253
   83MOL0     H11175   7.950   7.160   3.785  0.2997  1.5309 -1.8276
   83MOL0     H11176   7.987   7.271   3.928  2.4326 -0.7693 -0.8308
   83MOL0     H11177   7.941   7.465   3.782  0.2554  0.6634 -2.3260
   83MOL0     H11178   7.922   7.361   3.647  1.6647  0.8082 -0.6544
   83MOL0     H11179   8.170   7.358   3.818  1.9253 -1.8257 -1.2015
   83MOL0     H11180   8.141   7.254   3.687 -2.8418 -1.0490  1.4836
   83MOL0     H11181   8.110   7.557   3.657 -3.1066 -2.1300  2.2478
   83MOL0     H11182   8.126   7.438   3.522 -0.0706 -0.8305 -0.2969
   83MOL0     H11183   8.363   7.381   3.605 -0.2673 -0.4543 -0.1366
   83MOL0     H11184   8.348   7.552   3.540  1.6402  0.1199  1.4411
   83MOL0     H11185   7.336   7.101   4.160  2.0647 -0.8372 -1.7383
   83MOL0     H11186   7.114   7.005   4.150  0.1907  0.1493 -0.1676
   83MOL0     H11187   6.617   6.949   4.009 -1.6563  0.0451 -0.7780
   83MOL0     H11188   6.458   6.822   3.922 -0.3170 -0.5513 -1.1650
   83MOL0     H11189   5.218   5.613   3.497 -2.2103  0.3890  1.2976
   83MOL0     H11190   5.002   5.527   3.506 -0.5838 -0.0258 -0.3211
   83MOL0     H11191   4.575   5.771   3.220 -0.1296 -0.4113 -0.0553
   83MOL0     H11192   4.323   5.739   3.150 -1.2014  0.8209  1.0279
   83MOL0     H11193   4.144   5.664   3.109  1.0884 -1.2748  0.6116
   83MOL0     H11194   4.118   5.786   3.236 -0.7548  0.8147  0.2468
   83MOL0     H11195   3.911   5.710   3.300  0.0791 -0.4185  0.8373
   83MOL0     H11196   3.927   5.563   3.210  2.4609 -1.1975  2.9897
   83MOL0     H11197   3.779   5.757   3.111  1.1507  0.1228  2.6581
   83MOL0     H11198   3.885   5.661   2.999 -1.5175 -2.5863  1.8696
   83MOL0     H11199   4.027   5.863   2.978  0.5897  2.7017 -2.7891
   83MOL0     H11200   3.854   5.899   2.963  0.6367  0.3655  0.9562
   83MOL0     H11201   4.014   6.137   3.279  0.4356 -1.9053  1.8680
   83MOL0     H11202   4.286   5.455   3.463  2.2737 -0.8900  1.3102
   83MOL0     H11203   4.590   5.500   3.631  0.6315  0.7008 -0.3659
   83MOL0     H11204   4.460   5.382   3.596 -0.9186 -0.1530 -2.9978
   83MOL0     H11205   4.607   5.368   3.510 -0.7246  0.9151 -0.2796
   84MOL0     O11206   7.014   8.445   3.043 -0.4342  0.0977 -0.0857
   84MOL0     C11207   7.046   8.442   3.166  0.5605 -0.6311  0.4523
   84MOL0     O11208   7.171   8.429   3.219 -0.2663  0.8190 -0.2433
   84MOL0     C11209   7.284   8.399   3.147 -0.1802 -0.1945 -0.6231
   84MOL0     C11210   7.393   8.397   3.228 -0.4808 -0.1585  0.0902
   84MOL0     C11211   7.520   8.383   3.177 -0.1651 -0.8422 -0.1794
   84MOL0     C11212   7.543   8.367   3.039  0.0767 -0.5445  0.1379
   84MOL0     O11213   7.676   8.361   3.001 -0.4502  0.0542  0.0121
   84MOL0     C11214   7.714   8.354   2.867 -0.8526 -0.2190  0.6266
   84MOL0     C11215   7.837   8.462   2.850  0.0411 -0.1983  0.2298
   84MOL0     C11216   7.945   8.456   2.970  0.6293  1.1829  0.3700
   84MOL0     C11217   8.043   8.566   2.982  0.1300  0.4537 -0.3609
   84MOL0     C11218   8.181   8.524   3.024 -0.6668 -0.3255  0.4420
   84MOL0     C11219   8.284   8.650   3.023 -0.7157 -0.3023 -0.1049
   84MOL0     C11220   8.421   8.618   3.091  0.6769 -0.2171  0.5052
   84MOL0     C11221   8.535   8.720   3.077  0.3791  0.0772 -1.0681
   84MOL0     N11222   8.632   8.691   2.972 -0.0215 -0.1108 -0.3083
   84MOL0     C11223   8.728   8.590   2.989 -0.6403  0.4264  0.9528
   84MOL0     C11224   8.809   8.604   2.884 -0.4274 -0.2778 -0.3914
   84MOL0     C11225   8.927   8.529   2.847  0.2185 -0.5387 -0.0165
   84MOL0     C11226   8.959   8.403   2.934 -0.2740  0.3034  0.2354
   84MOL0     C11227   9.043   8.308   2.857  0.2748 -0.3275  0.5522
   84MOL0     C11228   9.147   8.366   2.757 -0.5172  0.1341  0.0376
   84MOL0     O11229   9.223   8.469   2.827 -0.7255 -0.9956  1.0606
   84MOL0     C11230   9.357   8.458   2.852 -0.2019  0.4071  0.4480
   84MOL0     C11231   9.437   8.338   2.832 -0.5847 -0.1115  0.7462
   84MOL0     C11232   9.560   8.323   2.895  0.9262  0.1991 -0.1476
   84MOL0     C11233   9.617   8.426   2.973 -0.7496 -0.6126 -0.8151
   84MOL0     C11234   9.759   8.420   3.016  0.1081  0.5531 -0.1381
   84MOL0     O11235   9.833   8.541   3.004  0.7535  0.8721  0.0341
   84MOL0     C11236   9.966   8.551   3.004  0.0444 -0.0802 -0.6257
   84MOL0     C11237  10.054   8.450   2.957  0.3806 -0.6664  0.2005
   84MOL0     C11238  10.188   8.476   2.967 -0.7641 -0.1324  0.0262
   84MOL0     C11239  10.233   8.605   3.007  0.1713 -0.2534 -0.4683
   84MOL0     O11240  10.368   8.618   3.001  0.6465 -0.2112  0.2735
   84MOL0     C11241  10.433   8.644   3.125  0.0423  0.1770 -0.4665
   84MOL0     C11242  10.582   8.666   3.102  0.5468 -0.3958 -0.3193
   84MOL0     C11243  10.671   8.687   3.225 -0.3079  0.3686 -0.5452
   84MOL0     C11244  10.789   8.776   3.187  0.0642 -0.2231  0.8630
   84MOL0     C11245  10.881   8.805   3.317 -0.0415 -0.0489  0.2184
   84MOL0     C11246  10.967   8.930   3.284 -1.0371  1.1587 -0.1868
   84MOL0     C11247  11.043   8.976   3.419  0.2229  0.0933  0.0583
   84MOL0     C11248  11.123   9.099   3.398 -0.4293 -0.2866  0.0342
   84MOL0    Cl11249  11.206   9.147   3.544 -0.3976 -0.5095 -0.4297
   84MOL0     C11250  10.147   8.703   3.047 -0.4698 -0.9028 -0.1226
   84MOL0     C11251  10.009   8.683   3.052  0.3126  0.2942  1.2325
   84MOL0     O11252   9.811   8.309   3.015  0.6879  0.0407  0.5777
   84MOL0     C11253   9.551   8.544   2.972  0.4779  0.1329 -0.3398
   84MOL0     C11254   9.417   8.562   2.922  0.0362  0.3301 -0.4834
   84MOL0     N11255   8.759   8.713   2.807  0.1378  0.7941 -0.0362
   84MOL0     N11256   8.663   8.766   2.865 -0.7065  0.2321  0.2894
   84MOL0     C11257   7.428   8.373   2.959  0.4473  0.9038  0.2871
   84MOL0     C11258   7.294   8.386   3.006 -0.9271 -0.3822 -0.2716
   84MOL0     C11259   6.932   8.440   3.261  0.0420  0.8398  0.3744
   84MOL0     C11260   6.809   8.381   3.234  0.5334 -0.7023 -0.1153
   84MOL0     C11261   6.715   8.355   3.331  0.5284 -0.5294 -0.6553
   84MOL0     C11262   6.738   8.393   3.464 -0.3168  0.1342  0.5485
   84MOL0     O11263   6.665   8.372   3.579  0.5613  0.5276 -0.2884
   84MOL0     C11264   6.538   8.316   3.570  1.2655  0.1398  0.7071
   84MOL0     C11265   6.452   8.355   3.698 -0.1667  0.1953 -0.3909
   84MOL0     C11266   6.436   8.506   3.722  0.4567  0.8045 -0.0133
   84MOL0     C11267   6.345   8.547   3.844  0.2280 -0.0085  0.3050
   84MOL0     C11268   6.310   8.689   3.841  0.3491 -0.9398  0.4187
   84MOL0     C11269   6.286   8.808   3.822 -0.1618  1.7335 -0.1801
   84MOL0     C11270   6.855   8.448   3.487  0.4892 -0.1789 -0.0637
   84MOL0     C11271   6.956   8.482   3.395  0.9618 -0.3453  0.2494
   84MOL0     C11272   7.080   8.566   3.445  0.4623  0.0039 -0.6768
   84MOL0     H11273   7.391   8.422   3.333 -1.1229  4.5423 -0.7966
   84MOL0     H11274   7.608   8.378   3.241 -0.5897  0.4148  0.5435
   84MOL0     H11275   7.763   8.260   2.843  0.6756  0.7147 -0.0874
   84MOL0     H11276   7.633   8.376   2.797 -0.8273 -0.4333  0.5289
   84MOL0     H11277   7.791   8.561   2.849  0.8016  0.1749  1.5504
   84MOL0     H11278   7.890   8.429   2.760  1.2057 -2.6755  1.7178
   84MOL0     H11279   7.986   8.355   2.963 -4.0058 -0.9155 -0.6562
   84MOL0     H11280   7.896   8.460   3.067  1.2142  1.7380  0.6449
   84MOL0     H11281   8.053   8.625   2.890 -3.6926  0.2473 -1.0557
   84MOL0     H11282   8.013   8.641   3.055  3.3907 -0.1689  1.8639
   84MOL0     H11283   8.182   8.484   3.126  2.7813  0.1996  0.7388
   84MOL0     H11284   8.222   8.448   2.957  0.3904  1.8711 -1.5734
   84MOL0     H11285   8.304   8.675   2.918  1.6853 -2.3400 -0.2220
   84MOL0     H11286   8.228   8.730   3.073 -0.6628 -0.0662 -0.4200
   84MOL0     H11287   8.443   8.517   3.056 -3.6058 -0.9164 -0.8054
   84MOL0     H11288   8.405   8.603   3.198  1.3063 -2.0169  0.3724
   84MOL0     H11289   8.489   8.816   3.049  0.5718 -0.1486 -2.2279
   84MOL0     H11290   8.588   8.728   3.172  2.1899 -1.9468 -1.8421
   84MOL0     H11291   8.738   8.515   3.067  1.7383 -0.3535 -0.0011
   84MOL0     H11292   8.914   8.517   2.739 -1.3016  2.1806 -0.2252
   84MOL0     H11293   9.010   8.601   2.857  0.1728 -0.3392 -0.9686
   84MOL0     H11294   8.999   8.432   3.032  2.1481  2.6784 -1.3148
   84MOL0     H11295   8.866   8.347   2.945 -1.3831  2.2584  1.4092
   84MOL0     H11296   8.980   8.239   2.802 -1.8358  0.8121  1.4189
   84MOL0     H11297   9.104   8.259   2.934  0.3552  2.7615  2.6835
   84MOL0     H11298   9.089   8.423   2.684 -0.8445 -0.5635 -0.2605
   84MOL0     H11299   9.207   8.292   2.703 -0.0400  0.8942 -0.4948
   84MOL0     H11300   9.383   8.251   2.796 -0.2416 -0.5384  1.2436
   84MOL0     H11301   9.617   8.230   2.898  2.7782  1.2942  0.1153
   84MOL0     H11302  10.015   8.357   2.918 -4.0780  1.0690  0.0014
   84MOL0     H11303  10.267   8.405   2.945  0.3987  0.2776  2.5354
   84MOL0     H11304  10.407   8.728   3.190  1.6345  0.4221 -0.0922
   84MOL0     H11305  10.424   8.551   3.183 -1.6627 -1.4271 -3.0850
   84MOL0     H11306  10.621   8.592   3.031  2.5201 -0.9596  1.2505
   84MOL0     H11307  10.577   8.764   3.054 -0.8863  0.9134  2.2941
   84MOL0     H11308  10.611   8.743   3.297  0.2544 -0.5338  0.6624
   84MOL0     H11309  10.690   8.586   3.264 -1.3210 -0.3962 -1.9294
   84MOL0     H11310  10.745   8.872   3.160  3.2465  1.0329 -0.2725
   84MOL0     H11311  10.843   8.749   3.096 -0.8540 -0.2442  0.3079
   84MOL0     H11312  10.946   8.720   3.338 -0.4547 -0.9216 -1.7631
   84MOL0     H11313  10.813   8.818   3.402 -0.1356 -2.4558  0.5903
   84MOL0     H11314  11.040   8.891   3.213  0.0634 -1.3923  2.1444
   84MOL0     H11315  10.917   9.013   3.235  0.6502  2.9283  0.9273
   84MOL0     H11316  11.116   8.904   3.460  0.1752 -1.2418 -2.0649
   84MOL0     H11317  10.969   8.995   3.497  1.1762 -0.7287  1.2066
   84MOL0     H11318  11.202   9.086   3.323 -1.0426 -2.4827 -0.3241
   84MOL0     H11319  11.068   9.184   3.359 -0.5868 -0.2333  0.3680
   84MOL0     H11320  10.176   8.802   3.080 -1.7002 -1.1045  1.7146
   84MOL0     H11321   9.927   8.746   3.084 -0.4814 -0.8514  1.5075
   84MOL0     H11322   9.587   8.626   3.034  1.5672 -1.7319  1.6412
   84MOL0     H11323   9.362   8.652   2.949 -2.2068 -1.5483  1.6641
   84MOL0     H11324   7.440   8.353   2.852 -2.0953 -1.5246  0.3324
   84MOL0     H11325   7.213   8.388   2.934 -1.4217 -3.8756 -0.0182
   84MOL0     H11326   6.781   8.346   3.135 -0.3208 -4.4003  1.2679
   84MOL0     H11327   6.624   8.302   3.308 -0.0920  0.6805 -1.1026
   84MOL0     H11328   6.550   8.208   3.557 -0.5416  0.1552 -1.6054
   84MOL0     H11329   6.476   8.338   3.484  0.2447  2.9084  2.0257
   84MOL0     H11330   6.510   8.320   3.785 -2.0389  0.6626  1.0995
   84MOL0     H11331   6.354   8.309   3.686 -1.3012  2.8280 -1.9266
   84MOL0     H11332   6.375   8.538   3.637 -1.3233  0.0305  0.9008
   84MOL0     H11333   6.531   8.559   3.728  0.2833  1.0649  0.5627
   84MOL0     H11334   6.253   8.489   3.832  0.4370  0.2393 -3.7514
   84MOL0     H11335   6.388   8.516   3.940  0.2990  0.2755  0.3687
   84MOL0     H11336   6.250   8.909   3.822 -1.7864  1.2708 -3.0731
   84MOL0     H11337   6.862   8.471   3.593  2.0827 -0.2334 -0.1379
   84MOL0     H11338   7.172   8.508   3.437  1.1174  0.9813 -0.4649
   84MOL0     H11339   7.084   8.658   3.385  0.2080 -1.4961 -3.1539
   84MOL0     H11340   7.068   8.611   3.544 -2.3280  1.2575 -1.4661
   85MOL0     O11341   6.734   3.171   7.252  1.0791  0.0548  0.2332
   85MOL0     C11342   6.726   3.222   7.141 -0.1559  0.6227 -0.5651
   85MOL0     O11343   6.833   3.252   7.058  0.1718 -0.4316 -0.0870
   85MOL0     C11344   6.962   3.273   7.111  0.6597 -0.6128 -0.8201
   85MOL0     C11345   7.064   3.182   7.074 -0.1738  0.3678  0.0823
   85MOL0     C11346   7.197   3.207   7.115 -0.2527 -0.5717 -0.4326
   85MOL0     C11347   7.229   3.324   7.183  0.4256 -0.4004 -0.2927
   85MOL0     O11348   7.366   3.347   7.193 -0.3574 -0.2554  0.5559
   85MOL0     C11349   7.432   3.406   7.304  0.4548 -0.0020 -0.2492
   85MOL0     C11350   7.436   3.314   7.420 -0.3016 -0.5113  0.1694
   85MOL0     C11351   7.454   3.172   7.384 -0.4324 -0.7364 -0.8901
   85MOL0     C11352   7.588   3.143   7.303  0.2556  0.2085  0.4310
   85MOL0     C11353   7.585   2.993   7.247  0.1969  0.0052  0.2247
   85MOL0     C11354   7.580   2.892   7.360 -0.2775  0.5003  0.0597
   85MOL0     C11355   7.578   2.754   7.289  0.5970 -1.4606 -0.3632
   85MOL0     C11356   7.538   2.641   7.386  0.2325 -0.1448 -0.3632
   85MOL0     N11357   7.529   2.512   7.304 -0.6435  0.8398  0.1243
   85MOL0     C11358   7.634   2.425   7.286 -0.5965  0.5077 -0.4098
   85MOL0     C11359   7.578   2.317   7.235  0.4351 -0.3532  0.4561
   85MOL0     C11360   7.636   2.186   7.186  0.2312 -0.8134  0.0978
   85MOL0     C11361   7.771   2.190   7.117 -0.0422 -0.0714 -0.5420
   85MOL0     C11362   7.809   2.050   7.071 -0.4624 -0.4096 -0.4697
   85MOL0     C11363   7.914   2.062   6.961  0.6072  0.3154 -1.1374
   85MOL0     O11364   7.958   1.930   6.929 -0.6506 -0.7464 -0.4617
   85MOL0     C11365   8.043   1.904   6.830 -0.3096 -0.9113  0.9219
   85MOL0     C11366   8.055   1.988   6.722  0.6811  0.3488 -0.5257
   85MOL0     C11367   8.143   1.962   6.618  0.3301 -0.5636  0.9055
   85MOL0     C11368   8.221   1.849   6.624  0.1897  0.0662  0.6937
   85MOL0     C11369   8.324   1.830   6.519 -0.5863  0.2212  0.7298
   85MOL0     O11370   8.395   1.712   6.536 -0.6839  0.3055  0.4371
   85MOL0     C11371   8.488   1.671   6.440 -0.1390 -1.0392 -0.0643
   85MOL0     C11372   8.617   1.664   6.489  0.7144  0.5437  0.4886
   85MOL0     C11373   8.724   1.616   6.407 -0.1017  0.8197  0.2425
   85MOL0     C11374   8.696   1.585   6.276 -0.0674  0.1178 -0.4055
   85MOL0     O11375   8.802   1.539   6.195 -0.1659  0.0721  0.6846
   85MOL0     C11376   8.768   1.493   6.058 -0.8454 -0.1318 -0.9181
   85MOL0     C11377   8.898   1.443   5.997 -0.4069  0.6587  0.1046
   85MOL0     C11378   8.888   1.373   5.861 -0.1243  0.4361 -0.2244
   85MOL0     C11379   9.026   1.327   5.799  0.4048 -0.3485 -0.7409
   85MOL0     C11380   9.098   1.242   5.894 -0.2960 -0.1799 -0.2444
   85MOL0     C11381   9.221   1.187   5.831 -0.1203 -0.1436  0.2821
   85MOL0     C11382   9.297   1.100   5.937 -1.1195 -0.3843  0.3512
   85MOL0     C11383   9.428   1.042   5.883 -0.2222  0.3060  0.5951
   85MOL0    Cl11384   9.422   0.927   5.746  0.2318  0.1305 -0.0938
   85MOL0     C11385   8.561   1.589   6.227 -0.7419 -0.8271 -0.4845
   85MOL0     C11386   8.452   1.634   6.308 -0.8462  0.1231 -0.2358
   85MOL0     O11387   8.338   1.910   6.419 -0.0448  0.5347 -0.7769
   85MOL0     C11388   8.211   1.759   6.730  0.2613  0.5213  0.3070
   85MOL0     C11389   8.125   1.790   6.834  0.3404  0.0311  0.1874
   85MOL0     N11390   7.442   2.340   7.217  0.6307 -0.3118 -0.3305
   85MOL0     N11391   7.411   2.461   7.253 -0.1689  0.4954 -0.2308
   85MOL0     C11392   7.129   3.421   7.213  0.1220 -0.1471  1.2818
   85MOL0     C11393   6.994   3.398   7.169 -0.2586 -1.1621 -0.6020
   85MOL0     C11394   6.588   3.237   7.080 -0.2586  1.0067 -0.1820
   85MOL0     C11395   6.567   3.196   6.949  1.4424 -0.0253 -0.5821
   85MOL0     C11396   6.451   3.233   6.880  1.0099  0.0902  0.4599
   85MOL0     C11397   6.348   3.292   6.956  0.3094  0.8174  0.0850
   85MOL0     O11398   6.237   3.350   6.897 -0.1516 -0.1590  0.5442
   85MOL0     C11399   6.203   3.302   6.761 -0.3933  0.1063 -1.2869
   85MOL0     C11400   6.073   3.355   6.713  0.2042 -0.5490 -0.7726
   85MOL0     C11401   5.945   3.304   6.786 -1.0572 -0.0532  0.4410
   85MOL0     C11402   5.834   3.281   6.685 -0.3509  0.1764  0.1274
   85MOL0     C11403   5.868   3.184   6.583  1.2885  0.3866  0.9280
   85MOL0     C11404   5.895   3.107   6.495 -0.1859 -0.1668 -0.7524
   85MOL0     C11405   6.362   3.320   7.090 -0.2532 -0.0207  0.3235
   85MOL0     C11406   6.484   3.293   7.155  0.4481 -0.7255 -0.7769
   85MOL0     C11407   6.496   3.324   7.302 -0.6346 -0.7496 -1.0094
   85MOL0     H11408   7.053   3.093   7.012 -1.1503  0.9166 -0.5613
   85MOL0     H11409   7.274   3.136   7.088  1.5753  0.1968  2.3362
   85MOL0     H11410   7.537   3.432   7.282  1.0123 -1.1183  0.9748
   85MOL0     H11411   7.375   3.496   7.329 -2.2628 -1.9157  0.8912
   85MOL0     H11412   7.347   3.332   7.482  0.4657  0.3163  1.0519
   85MOL0     H11413   7.516   3.341   7.488 -0.7126 -1.8539  1.2242
   85MOL0     H11414   7.363   3.139   7.331 -0.3525 -2.6295  0.0765
   85MOL0     H11415   7.458   3.122   7.481 -1.2410  1.3942  0.3067
   85MOL0     H11416   7.587   3.196   7.208 -2.5718 -2.4321 -1.1786
   85MOL0     H11417   7.676   3.173   7.361 -0.1458  0.9140  0.6781
   85MOL0     H11418   7.502   2.972   7.180  1.0552 -1.5271 -0.4210
   85MOL0     H11419   7.672   2.977   7.182 -0.6973 -1.1715 -0.7203
   85MOL0     H11420   7.673   2.904   7.417 -0.5673  1.9494  0.2817
   85MOL0     H11421   7.498   2.907   7.431  0.1277 -0.9237  0.8677
   85MOL0     H11422   7.665   2.744   7.223 -0.5384  0.3930 -2.2982
   85MOL0     H11423   7.492   2.760   7.221  1.0969 -4.4121 -1.4057
   85MOL0     H11424   7.609   2.642   7.470 -1.9657  0.3259  1.5788
   85MOL0     H11425   7.445   2.671   7.435  0.3107 -0.1126 -0.2332
   85MOL0     H11426   7.730   2.453   7.328 -1.2610  0.4951  1.1827
   85MOL0     H11427   7.643   2.118   7.272 -4.6084  0.4303  1.7996
   85MOL0     H11428   7.554   2.158   7.118 -2.7026 -0.3366  3.1783
   85MOL0     H11429   7.763   2.262   7.034 -3.6113 -1.1354 -1.2921
   85MOL0     H11430   7.857   2.221   7.176  2.0024 -0.7721 -2.9598
   85MOL0     H11431   7.727   1.998   7.022 -0.9052 -0.5452  0.4069
   85MOL0     H11432   7.854   1.995   7.154  2.0578  0.8482 -0.8855
   85MOL0     H11433   8.003   2.111   7.002  0.6105 -0.9402  0.4414
   85MOL0     H11434   7.871   2.122   6.881 -0.7074 -0.4830 -1.0501
   85MOL0     H11435   7.989   2.074   6.713  0.0285 -0.1856 -0.9709
   85MOL0     H11436   8.159   2.041   6.546 -0.2852  1.5555  2.9673
   85MOL0     H11437   8.644   1.704   6.586 -0.6415  0.1442  1.0491
   85MOL0     H11438   8.823   1.613   6.450  0.0446  1.0693 -0.0770
   85MOL0     H11439   8.708   1.401   6.059  0.7092 -1.1939 -1.3644
   85MOL0     H11440   8.708   1.567   6.006 -1.6846  1.1061  1.6593
   85MOL0     H11441   8.963   1.530   5.983 -2.7521  2.5379  0.2181
   85MOL0     H11442   8.936   1.361   6.058 -2.3945 -1.2324 -1.0493
   85MOL0     H11443   8.818   1.289   5.859 -0.9759  1.0066  2.2209
   85MOL0     H11444   8.845   1.441   5.787  1.3872 -0.0403 -1.6014
   85MOL0     H11445   9.081   1.421   5.782 -0.2551  1.1717  4.0168
   85MOL0     H11446   9.015   1.277   5.703  0.5762  0.9555 -1.4702
   85MOL0     H11447   9.038   1.161   5.936  0.1056 -0.2851  0.1343
   85MOL0     H11448   9.136   1.303   5.977 -0.4872 -2.9731  2.0766
   85MOL0     H11449   9.199   1.129   5.741  0.7030  1.1387 -0.7772
   85MOL0     H11450   9.283   1.272   5.800  0.5746 -1.6425 -2.7780
   85MOL0     H11451   9.231   1.022   5.976  0.5868 -0.6264  2.9786
   85MOL0     H11452   9.321   1.151   6.031 -4.3247  1.5018  0.3267
   85MOL0     H11453   9.493   1.127   5.864 -1.2221  0.5707 -1.9483
   85MOL0     H11454   9.463   0.978   5.965 -0.0349  0.6461  0.7825
   85MOL0     H11455   8.534   1.574   6.124 -1.5751 -1.3802 -0.1944
   85MOL0     H11456   8.353   1.647   6.266 -1.0619  2.7198  0.9046
   85MOL0     H11457   8.280   1.676   6.736 -0.0844 -0.0091 -2.1200
   85MOL0     H11458   8.136   1.757   6.936  0.6922  0.6075  0.3444
   85MOL0     H11459   7.158   3.516   7.258  0.4034  0.5764 -0.3821
   85MOL0     H11460   6.916   3.472   7.177  0.2017 -0.6893 -0.4502
   85MOL0     H11461   6.648   3.143   6.899  2.1155  1.4672 -1.1147
   85MOL0     H11462   6.435   3.213   6.775 -0.1886  2.5310  0.1210
   85MOL0     H11463   6.205   3.192   6.758  2.3276  0.0388  0.1988
   85MOL0     H11464   6.285   3.322   6.692  0.5493  2.3088  0.3292
   85MOL0     H11465   6.070   3.344   6.604  4.3387 -1.2783 -0.9808
   85MOL0     H11466   6.074   3.464   6.728 -0.0765 -0.1113 -3.4829
   85MOL0     H11467   5.917   3.378   6.861 -1.2672 -1.5623  1.9209
   85MOL0     H11468   5.964   3.207   6.832  1.6745 -0.4808 -1.3142
   85MOL0     H11469   5.742   3.254   6.736  0.5600  1.3102  2.5531
   85MOL0     H11470   5.817   3.374   6.629  3.0682  0.1957 -1.1484
   85MOL0     H11471   5.904   3.033   6.419  2.5794 -0.3418 -0.3904
   85MOL0     H11472   6.279   3.367   7.141 -0.6893 -0.1349 -0.2752
   85MOL0     H11473   6.412   3.383   7.338  0.7119  1.7933 -1.7791
   85MOL0     H11474   6.501   3.234   7.364 -4.4914 -1.3434 -1.3536
   85MOL0     H11475   6.584   3.388   7.317 -1.0812 -0.2434 -0.5169
   86MOL0     O11476   5.579   1.550   9.083 -0.1329  0.5307 -1.3473
   86MOL0     C11477   5.676   1.624   9.082  0.8849 -0.9315  0.1566
   86MOL0     O11478   5.681   1.749   9.023 -0.2989  0.3621  0.3617
   86MOL0     C11479   5.569   1.812   8.973  0.7108 -0.6193  0.2718
   86MOL0     C11480   5.578   1.886   8.850  0.2482 -0.3379 -0.0857
   86MOL0     C11481   5.468   1.950   8.794  0.3713  0.4178 -0.1946
   86MOL0     C11482   5.342   1.945   8.852  0.3724 -0.0119 -0.3222
   86MOL0     O11483   5.227   2.004   8.788 -0.5893  0.4934 -0.1367
   86MOL0     C11484   5.250   2.120   8.710 -0.0116 -0.0502 -0.3953
   86MOL0     C11485   5.126   2.212   8.719  0.1160  0.3206 -0.8273
   86MOL0     C11486   5.015   2.156   8.632 -0.8378 -0.1740  0.4166
   86MOL0     C11487   4.893   2.256   8.645 -0.3970  0.0199  0.2894
   86MOL0     C11488   4.907   2.385   8.556 -0.5775  0.8221  0.0331
   86MOL0     C11489   4.786   2.401   8.464 -0.1583 -0.7963  0.4595
   86MOL0     C11490   4.805   2.521   8.368  0.3120  0.1903 -0.4229
   86MOL0     C11491   4.665   2.579   8.315  0.0965  0.2206  0.6397
   86MOL0     N11492   4.590   2.474   8.246  0.4728  0.2213 -0.3580
   86MOL0     C11493   4.615   2.451   8.117 -0.8116  0.2668  0.2300
   86MOL0     C11494   4.510   2.378   8.080 -0.4994 -0.9849  0.7048
   86MOL0     C11495   4.509   2.344   7.940  0.5314  0.1549 -0.1378
   86MOL0     C11496   4.423   2.222   7.913 -1.1259 -0.2377 -0.0688
   86MOL0     C11497   4.368   2.223   7.773 -0.4331  0.6331  0.0223
   86MOL0     C11498   4.319   2.082   7.734 -0.3502 -0.7884  0.3728
   86MOL0     O11499   4.412   1.978   7.718 -0.0171  0.2523 -0.5422
   86MOL0     C11500   4.511   1.991   7.634 -0.5338 -0.3790  0.1632
   86MOL0     C11501   4.619   1.908   7.661 -0.2586 -0.9719 -0.5825
   86MOL0     C11502   4.739   1.919   7.584  0.4529  0.3073 -1.0896
   86MOL0     C11503   4.755   2.011   7.482 -0.3918 -0.1200 -0.9498
   86MOL0     C11504   4.882   2.035   7.406 -0.1485 -0.3020 -0.3643
   86MOL0     O11505   4.996   1.974   7.450 -0.1097 -0.5200 -0.3501
   86MOL0     C11506   5.112   2.026   7.401 -0.1109 -0.2700  0.1047
   86MOL0     C11507   5.171   2.139   7.450  0.0295 -0.7275 -1.0819
   86MOL0     C11508   5.289   2.191   7.395  0.3391 -0.5046  0.0251
   86MOL0     C11509   5.350   2.142   7.282  0.0725 -0.7336 -0.3153
   86MOL0     O11510   5.458   2.199   7.226 -0.1061  0.7630  0.5491
   86MOL0     C11511   5.480   2.203   7.089  0.5369  0.1138  0.4025
   86MOL0     C11512   5.621   2.251   7.082 -0.5345 -0.1046  0.3417
   86MOL0     C11513   5.679   2.239   6.936  0.1095 -0.9446 -0.1958
   86MOL0     C11514   5.578   2.282   6.821  0.6284  0.1683  0.1597
   86MOL0     C11515   5.644   2.283   6.682  1.3652 -0.2074 -0.2865
   86MOL0     C11516   5.538   2.301   6.569 -0.2126  0.2142  0.6464
   86MOL0     C11517   5.609   2.303   6.435  0.1537  0.3890  0.2730
   86MOL0     C11518   5.685   2.426   6.403  0.4106 -0.8707  0.5049
   86MOL0    Cl11519   5.735   2.433   6.222  0.4867 -0.4160 -0.0936
   86MOL0     C11520   5.287   2.026   7.228  0.8573  0.3151  0.2420
   86MOL0     C11521   5.169   1.968   7.292 -0.5012  0.5173  0.4361
   86MOL0     O11522   4.878   2.120   7.318 -0.1356 -0.1511 -0.9435
   86MOL0     C11523   4.637   2.088   7.443  0.0372  0.8414 -1.0598
   86MOL0     C11524   4.518   2.073   7.516 -0.5511  0.3224  0.7779
   86MOL0     N11525   4.419   2.358   8.184  0.1293  0.3767 -0.4062
   86MOL0     N11526   4.476   2.412   8.295  0.8833  0.0434 -0.1699
   86MOL0     C11527   5.325   1.872   8.974  0.3322  0.4691 -0.1820
   86MOL0     C11528   5.436   1.803   9.033 -0.9438 -1.0116 -0.4089
   86MOL0     C11529   5.809   1.588   9.147  0.9035  0.0857 -0.3530
   86MOL0     C11530   5.912   1.678   9.160  0.0341  0.2328 -0.6105
   86MOL0     C11531   6.032   1.646   9.211 -0.1419  1.7050  0.3568
   86MOL0     C11532   6.050   1.514   9.276 -0.6327 -0.9206  0.4809
   86MOL0     O11533   6.173   1.492   9.342 -0.3320  0.4687  0.1878
   86MOL0     C11534   6.212   1.362   9.381  0.4546  0.1998  0.5977
   86MOL0     C11535   6.331   1.376   9.478 -0.3408 -0.3737  0.2748
   86MOL0     C11536   6.383   1.231   9.523  0.2470 -0.3208  1.3119
   86MOL0     C11537   6.490   1.223   9.625  0.3729  0.2575  0.3632
   86MOL0     C11538   6.614   1.255   9.564 -0.3734 -0.4454  0.3164
   86MOL0     C11539   6.707   1.287   9.489  0.7040  0.1436 -0.3104
   86MOL0     C11540   5.947   1.420   9.262 -0.1018  0.5840  0.4643
   86MOL0     C11541   5.830   1.452   9.187  0.3556 -0.1539  0.4164
   86MOL0     C11542   5.738   1.333   9.169  0.4885  0.1067 -0.0167
   86MOL0     H11543   5.670   1.880   8.792 -0.0044  0.4129 -0.5796
   86MOL0     H11544   5.487   1.994   8.697 -1.7985  1.3958 -0.2253
   86MOL0     H11545   5.334   2.181   8.743 -1.6891  3.0609 -1.4637
   86MOL0     H11546   5.277   2.088   8.609  0.9093 -0.8084  0.0738
   86MOL0     H11547   5.150   2.310   8.675  0.7254  0.2896 -0.5728
   86MOL0     H11548   5.093   2.225   8.823  0.3039  3.4466 -1.0525
   86MOL0     H11549   4.985   2.058   8.670 -3.2094 -0.5458 -2.1493
   86MOL0     H11550   5.057   2.146   8.532  1.6678  2.3610  1.0565
   86MOL0     H11551   4.807   2.198   8.609  1.3649 -1.9190 -1.0622
   86MOL0     H11552   4.876   2.293   8.746 -1.6553 -0.1816  0.1780
   86MOL0     H11553   4.929   2.473   8.616 -1.8172  1.3065 -0.2038
   86MOL0     H11554   4.991   2.368   8.488 -0.1017  0.7676  0.6225
   86MOL0     H11555   4.772   2.314   8.398  0.2384 -0.8695  0.4723
   86MOL0     H11556   4.699   2.422   8.527 -0.6203 -0.6525 -0.2039
   86MOL0     H11557   4.864   2.494   8.280  1.4218  2.3111 -0.3908
   86MOL0     H11558   4.866   2.588   8.428 -0.0358 -1.3117  1.7252
   86MOL0     H11559   4.598   2.601   8.398  0.5396 -0.8453  1.3067
   86MOL0     H11560   4.671   2.670   8.254  1.4797  1.2972  2.2805
   86MOL0     H11561   4.703   2.498   8.075 -0.3967  0.9041  1.7443
   86MOL0     H11562   4.470   2.425   7.878  2.8573  1.0454 -0.5062
   86MOL0     H11563   4.611   2.326   7.907  0.2340  2.0493 -2.3004
   86MOL0     H11564   4.486   2.133   7.908 -1.1353 -0.2173 -0.7766
   86MOL0     H11565   4.347   2.211   7.991 -0.6492 -1.0395  0.2965
   86MOL0     H11566   4.440   2.264   7.701 -1.2168 -0.5448 -1.4823
   86MOL0     H11567   4.292   2.301   7.780 -0.9944  0.2153 -1.0605
   86MOL0     H11568   4.266   2.083   7.639  1.5367  0.2022 -0.7180
   86MOL0     H11569   4.247   2.050   7.810 -0.9603  0.9019  0.5373
   86MOL0     H11570   4.599   1.830   7.734 -2.5210 -0.3754 -0.4786
   86MOL0     H11571   4.826   1.856   7.597  0.6941  0.6920 -0.7959
   86MOL0     H11572   5.142   2.196   7.537  1.7631 -1.1750 -0.1565
   86MOL0     H11573   5.317   2.281   7.448  0.0798 -1.0152  1.0647
   86MOL0     H11574   5.477   2.103   7.044  6.5779  0.3002 -1.2550
   86MOL0     H11575   5.422   2.285   7.045  1.0798  2.4481  3.6990
   86MOL0     H11576   5.635   2.354   7.115 -1.7183  0.3301 -0.4549
   86MOL0     H11577   5.684   2.180   7.136  0.4392  0.7340  0.3451
   86MOL0     H11578   5.752   2.320   6.923 -1.4205  1.2053  3.2060
   86MOL0     H11579   5.732   2.145   6.921 -0.4472 -1.3456  0.3488
   86MOL0     H11580   5.526   2.376   6.836  1.9256  1.0032 -0.4011
   86MOL0     H11581   5.502   2.204   6.826  1.9159 -1.1402  0.1888
   86MOL0     H11582   5.712   2.198   6.672  0.3058 -1.1422  0.3115
   86MOL0     H11583   5.711   2.368   6.703 -1.0213  2.0027 -1.0275
   86MOL0     H11584   5.471   2.215   6.573  1.1086 -0.9435 -0.7902
   86MOL0     H11585   5.467   2.382   6.585 -1.5453 -1.2468  2.6890
   86MOL0     H11586   5.536   2.285   6.356  0.8073  2.9900 -1.0354
   86MOL0     H11587   5.670   2.213   6.419 -2.9223 -1.5754 -1.3539
   86MOL0     H11588   5.624   2.515   6.423 -1.3033 -2.0709  0.9331
   86MOL0     H11589   5.772   2.423   6.469  1.7376 -1.2850 -1.1897
   86MOL0     H11590   5.327   1.971   7.143  1.8531 -0.0218  0.9043
   86MOL0     H11591   5.117   1.881   7.253 -0.3769 -1.4633  4.1860
   86MOL0     H11592   4.646   2.149   7.353 -2.5704  1.8369 -0.7461
   86MOL0     H11593   4.438   2.138   7.484  0.7770  1.4093 -0.4819
   86MOL0     H11594   5.225   1.874   9.016  0.8290  1.8800  0.9904
   86MOL0     H11595   5.405   1.747   9.121 -2.0909  1.2072  0.6848
   86MOL0     H11596   5.895   1.777   9.118  0.2314 -0.4554 -2.4018
   86MOL0     H11597   6.118   1.713   9.214  0.4832  1.0608 -1.4078
   86MOL0     H11598   6.236   1.301   9.294  0.6744  1.6346 -0.3721
   86MOL0     H11599   6.126   1.317   9.433  0.3259  0.7579  0.8686
   86MOL0     H11600   6.316   1.434   9.570  1.4469 -2.6558  2.1686
   86MOL0     H11601   6.403   1.432   9.418 -2.2123  1.6816 -0.1794
   86MOL0     H11602   6.422   1.174   9.438  0.3242  0.6722  0.6587
   86MOL0     H11603   6.298   1.175   9.562 -2.1436  1.5073 -0.8992
   86MOL0     H11604   6.475   1.297   9.703  3.0454  2.1135 -0.7371
   86MOL0     H11605   6.493   1.123   9.668  0.6039 -0.5652 -1.4513
   86MOL0     H11606   6.786   1.323   9.426  0.0763  1.3978 -0.4275
   86MOL0     H11607   5.961   1.315   9.286 -0.5963 -0.0203 -1.6590
   86MOL0     H11608   5.719   1.335   9.061 -4.1993  3.1708  0.6214
   86MOL0     H11609   5.781   1.242   9.211  1.6952  1.6964  2.4528
   86MOL0     H11610   5.649   1.343   9.231  0.7209  2.3170  0.0476
   87MOL0     O11611   2.452  10.503   9.858  0.2106  0.4306 -0.6477
   87MOL0     C11612   2.342  10.470   9.892 -0.4492  0.9076 -0.6790
   87MOL0     O11613   2.305  10.434  10.014  0.6549  0.0604 -0.5144
   87MOL0     C11614   2.398  10.437  10.114 -0.6602  0.2775 -0.9353
   87MOL0     C11615   2.441  10.551  10.185 -0.1713  1.3337  0.2616
   87MOL0     C11616   2.527  10.537  10.287 -0.9654  0.1387 -0.7947
   87MOL0     C11617   2.595  10.412  10.322  1.2464  0.6115 -0.1229
   87MOL0     O11618   2.654  10.380  10.440 -0.1710 -0.9544 -0.2691
   87MOL0     C11619   2.780  10.455  10.442  0.4636  0.5542 -0.5119
   87MOL0     C11620   2.884  10.345  10.485  0.4712  0.1834  0.0210
   87MOL0     C11621   3.006  10.419  10.543  0.4155  0.1406  0.3299
   87MOL0     C11622   3.098  10.312  10.615  0.8671  0.7492  1.1913
   87MOL0     C11623   3.224  10.380  10.670  0.3016  0.4728  0.3661
   87MOL0     C11624   3.334  10.283  10.719  0.7376 -0.6590  0.9744
   87MOL0     C11625   3.433  10.365  10.803  0.0192 -0.1109  0.6023
   87MOL0     C11626   3.537  10.281  10.867 -0.2134  0.4911  0.0140
   87MOL0     N11627   3.613  10.362  10.973 -0.5754 -0.0306 -0.2752
   87MOL0     C11628   3.569  10.359  11.111 -0.6339  1.5372  0.1343
   87MOL0     C11629   3.656  10.445  11.169  0.6253  0.2836  0.3138
   87MOL0     C11630   3.670  10.485  11.314  0.7114  0.5319 -0.5620
   87MOL0     C11631   3.788  10.409  11.373  0.9616  0.6434  0.8769
   87MOL0     C11632   3.822  10.453  11.517 -1.0391 -0.4254  0.7431
   87MOL0     C11633   3.951  10.386  11.567  0.9386 -0.6344 -0.2530
   87MOL0     O11634   4.067  10.470  11.529  0.9996  0.6061 -0.1970
   87MOL0     C11635   4.199  10.427  11.557 -0.0197  0.4141 -0.5755
   87MOL0     C11636   4.310  10.494  11.503 -0.0230  0.4647  0.5073
   87MOL0     C11637   4.436  10.449  11.539 -1.3831 -0.5541  0.3275
   87MOL0     C11638   4.463  10.337  11.619  0.9560 -0.3321  0.0648
   87MOL0     C11639   4.598  10.288  11.645  0.0663  0.0459  0.6453
   87MOL0     O11640   4.702  10.356  11.587 -0.0186  0.5213  0.2353
   87MOL0     C11641   4.832  10.299  11.582  0.3219 -0.0683 -0.1386
   87MOL0     C11642   4.941  10.377  11.546 -0.2287 -0.4204  0.5967
   87MOL0     C11643   5.071  10.317  11.517 -0.1573  0.5256  0.1685
   87MOL0     C11644   5.093  10.173  11.534 -0.3440  0.0628  0.4022
   87MOL0     O11645   5.217  10.104  11.522  0.6757 -0.9686 -0.2695
   87MOL0     C11646   5.318  10.166  11.609 -1.0261 -0.5341  0.0722
   87MOL0     C11647   5.371  10.059  11.705 -0.7689  0.5679  0.4519
   87MOL0     C11648   5.475   9.972  11.640  0.1385  0.7019  0.4662
   87MOL0     C11649   5.536   9.862  11.735 -1.1730 -0.1657  0.2162
   87MOL0     C11650   5.653   9.780  11.684 -0.4377  0.7050 -0.1174
   87MOL0     C11651   5.783   9.857  11.696  0.2748 -0.0757  0.1734
   87MOL0     C11652   5.906   9.779  11.646  0.3269  0.4681  0.1978
   87MOL0     C11653   5.995   9.720  11.759  0.3813 -0.3083  0.6344
   87MOL0    Cl11654   5.903   9.583  11.836 -0.4446 -0.3250  0.2508
   87MOL0     C11655   4.980  10.098  11.574  0.5340 -0.5284 -0.0607
   87MOL0     C11656   4.851  10.160  11.587  0.1631  0.2860  0.6031
   87MOL0     O11657   4.610  10.197  11.733 -0.6641  0.5122 -0.4282
   87MOL0     C11658   4.347  10.273  11.679 -0.4932  0.7528 -0.0792
   87MOL0     C11659   4.225  10.322  11.650 -0.5469 -0.0074  0.7995
   87MOL0     N11660   3.745  10.502  11.071  0.5008  0.9941 -0.0180
   87MOL0     N11661   3.716  10.449  10.959  0.5942  0.3134  0.2984
   87MOL0     C11662   2.553  10.303  10.250  0.2085  0.2970 -0.3181
   87MOL0     C11663   2.457  10.308  10.156  0.6091 -0.3957  1.2371
   87MOL0     C11664   2.244  10.450   9.779  0.3798 -0.2159 -0.0678
   87MOL0     C11665   2.111  10.424   9.804  0.1357  0.0346 -0.2340
   87MOL0     C11666   2.018  10.394   9.703 -0.3622  0.1421  0.8936
   87MOL0     C11667   2.061  10.375   9.576 -0.6913 -0.2610  0.2169
   87MOL0     O11668   1.967  10.323   9.496  0.1040  0.8141 -0.1623
   87MOL0     C11669   2.016  10.252   9.379 -0.0774  0.6926 -0.9057
   87MOL0     C11670   2.009  10.345   9.255  0.2213  0.3751  0.7116
   87MOL0     C11671   1.876  10.416   9.230  0.3289  0.6957 -0.0821
   87MOL0     C11672   1.762  10.312   9.234  0.2518  0.1458  0.0219
   87MOL0     C11673   1.639  10.381   9.195  0.5276  0.1555 -0.1640
   87MOL0     C11674   1.551  10.451   9.156  0.1540  0.1180 -0.0764
   87MOL0     C11675   2.194  10.403   9.542  0.1964  0.1635  0.7778
   87MOL0     C11676   2.284  10.440   9.643 -0.7281 -0.8023  0.2524
   87MOL0     C11677   2.420  10.473   9.588  0.1406 -0.0517  1.0898
   87MOL0     H11678   2.411  10.648  10.144 -0.3418  1.7228  1.2886
   87MOL0     H11679   2.560  10.616  10.353  0.9315 -0.7704 -0.5699
   87MOL0     H11680   2.796  10.493  10.341 -1.2467 -0.7774 -1.3348
   87MOL0     H11681   2.769  10.535  10.517 -1.1320 -1.2041  1.2374
   87MOL0     H11682   2.901  10.278  10.400 -1.4390 -2.2238  1.4000
   87MOL0     H11683   2.839  10.282  10.562  0.1224  0.2183 -0.1513
   87MOL0     H11684   2.979  10.498  10.614  0.4234  0.5803 -0.1513
   87MOL0     H11685   3.067  10.469  10.467  1.1303  0.6987  1.2494
   87MOL0     H11686   3.043  10.257  10.691 -2.0854 -1.7039 -2.3592
   87MOL0     H11687   3.125  10.241  10.536 -0.8510 -0.5226  1.6920
   87MOL0     H11688   3.263  10.452  10.597  0.3721 -0.1496 -0.2238
   87MOL0     H11689   3.196  10.438  10.758  0.8876  0.6641  0.4339
   87MOL0     H11690   3.289  10.200  10.775  0.1842 -1.9295 -1.2272
   87MOL0     H11691   3.378  10.244  10.627  0.8829  1.6952 -0.0295
   87MOL0     H11692   3.375  10.421  10.877  1.1383 -0.4219  1.7323
   87MOL0     H11693   3.491  10.439  10.747 -0.2022 -0.4531 -0.0938
   87MOL0     H11694   3.500  10.195  10.923 -1.2364  1.5643  1.0609
   87MOL0     H11695   3.607  10.239  10.795  2.3308  3.7848  0.3089
   87MOL0     H11696   3.491  10.299  11.155 -1.5353  1.7388 -1.1358
   87MOL0     H11697   3.675  10.594  11.310 -0.7074  0.8816  3.0943
   87MOL0     H11698   3.580  10.464  11.372  0.5034  0.0036 -1.0640
   87MOL0     H11699   3.764  10.303  11.372  0.1647  0.8152  0.0917
   87MOL0     H11700   3.868  10.420  11.300 -1.0052 -2.7476 -2.0990
   87MOL0     H11701   3.736  10.436  11.582 -0.1996 -0.5368  1.8480
   87MOL0     H11702   3.846  10.559  11.519  1.2975 -0.8916  0.9550
   87MOL0     H11703   3.952  10.289  11.516  0.9605  0.3859 -2.2857
   87MOL0     H11704   3.942  10.386  11.676  0.4998 -0.6169 -0.2874
   87MOL0     H11705   4.300  10.582  11.439 -1.6925 -0.0396  0.0125
   87MOL0     H11706   4.514  10.505  11.488 -1.2446 -1.2204 -0.2164
   87MOL0     H11707   4.920  10.483  11.535  2.3059  0.6193  3.9570
   87MOL0     H11708   5.158  10.373  11.485  0.2450 -0.1082  0.1365
   87MOL0     H11709   5.396  10.210  11.546 -4.2007  1.4167 -2.8950
   87MOL0     H11710   5.281  10.254  11.662  0.1384  0.3368 -0.5190
   87MOL0     H11711   5.426  10.098  11.792  1.1582  0.3794 -0.6415
   87MOL0     H11712   5.282  10.003  11.736 -0.1550 -0.3226  0.6371
   87MOL0     H11713   5.432   9.922  11.553 -1.7330  3.1682 -0.1344
   87MOL0     H11714   5.556  10.040  11.610 -2.0674  2.5841 -1.5690
   87MOL0     H11715   5.458   9.786  11.738 -0.9683 -0.5207 -1.8169
   87MOL0     H11716   5.557   9.905  11.833 -1.4568 -1.9608  1.0976
   87MOL0     H11717   5.636   9.762  11.578  0.8758 -2.1033  0.0635
   87MOL0     H11718   5.661   9.680  11.727  1.3844  1.0820  0.5039
   87MOL0     H11719   5.772   9.946  11.633  0.1347 -0.0713  0.2038
   87MOL0     H11720   5.793   9.890  11.799  1.4420  2.1746 -0.6006
   87MOL0     H11721   5.973   9.848  11.594  1.6283 -1.6010 -1.0256
   87MOL0     H11722   5.874   9.698  11.579 -3.5354 -0.1033  2.3953
   87MOL0     H11723   6.088   9.676  11.722 -0.7474 -2.6640  0.4019
   87MOL0     H11724   6.022   9.797  11.832  0.3909 -0.1685  0.4835
   87MOL0     H11725   5.000  10.000  11.617  0.3510 -0.1716  0.8579
   87MOL0     H11726   4.768  10.092  11.604 -0.0782 -0.4331 -2.7005
   87MOL0     H11727   4.346  10.189  11.748  0.9943  0.0024 -0.9365
   87MOL0     H11728   4.142  10.263  11.690 -0.8590  0.4573  0.8443
   87MOL0     H11729   2.591  10.209  10.291 -0.1290  0.0161 -0.6429
   87MOL0     H11730   2.413  10.217  10.118  0.0728  0.7009 -0.9610
   87MOL0     H11731   2.071  10.445   9.903 -3.0072  0.8905 -1.5447
   87MOL0     H11732   1.913  10.389   9.730 -1.1378  0.6805 -1.7001
   87MOL0     H11733   1.949  10.167   9.366  0.3750 -0.0923  1.4318
   87MOL0     H11734   2.116  10.210   9.393 -0.5899 -0.1890  0.3570
   87MOL0     H11735   2.027  10.295   9.159 -0.4920 -0.4139  0.9881
   87MOL0     H11736   2.088  10.418   9.277  0.4007  0.0969  1.0000
   87MOL0     H11737   1.874  10.462   9.130 -0.3268 -3.8740 -2.4166
   87MOL0     H11738   1.854  10.493   9.305 -0.7905 -0.9839  1.3963
   87MOL0     H11739   1.782  10.232   9.162 -1.6063 -2.0109  1.7649
   87MOL0     H11740   1.747  10.262   9.330 -0.1228 -0.8628 -0.5551
   87MOL0     H11741   1.471  10.520   9.138 -1.5033 -0.9486  2.5242
   87MOL0     H11742   2.227  10.385   9.441 -0.3765  0.9849  0.4339
   87MOL0     H11743   2.492  10.395   9.617  0.3226  0.6923  2.7133
   87MOL0     H11744   2.427  10.474   9.479  1.3591 -0.8750  1.1318
   87MOL0     H11745   2.460  10.568   9.624 -1.2069  0.9246  0.0921
   88MOL0     O11746   5.922   1.418   8.515 -0.0288 -0.2274 -0.0588
   88MOL0     C11747   5.864   1.456   8.620 -0.0083  0.0198  0.2579
   88MOL0     O11748   5.925   1.539   8.719  0.7994  0.3187 -0.3039
   88MOL0     C11749   6.058   1.519   8.718  0.8135  0.3263 -0.4065
   88MOL0     C11750   6.142   1.623   8.674 -0.6070 -0.6166  0.4509
   88MOL0     C11751   6.280   1.606   8.673 -0.0396 -0.0253  0.3083
   88MOL0     C11752   6.337   1.493   8.727  0.7785  0.8833 -0.0017
   88MOL0     O11753   6.480   1.467   8.740  0.0352 -0.1557  0.5408
   88MOL0     C11754   6.574   1.570   8.700 -1.2332 -0.6616 -0.8641
   88MOL0     C11755   6.586   1.556   8.544 -0.2441  1.5765 -0.1248
   88MOL0     C11756   6.672   1.430   8.499  0.3795  0.5103  0.3269
   88MOL0     C11757   6.674   1.420   8.343  0.7970 -0.4784  1.1281
   88MOL0     C11758   6.760   1.309   8.297  0.1197  0.2452  0.6305
   88MOL0     C11759   6.768   1.295   8.143 -0.5119 -0.5163  0.2902
   88MOL0     C11760   6.877   1.186   8.113  0.4556 -0.2527  0.9330
   88MOL0     C11761   6.879   1.142   7.962  0.2799 -0.1791 -0.8751
   88MOL0     N11762   6.991   1.051   7.924  0.0084  0.8822  0.0448
   88MOL0     C11763   7.049   0.964   8.007 -0.0670  1.1401  0.1090
   88MOL0     C11764   7.153   0.918   7.936 -0.0444  0.7680 -0.3818
   88MOL0     C11765   7.258   0.814   7.971  0.6576  0.1348  1.2583
   88MOL0     C11766   7.397   0.877   7.993 -0.4727 -0.1171 -0.0926
   88MOL0     C11767   7.456   0.957   7.872 -1.2561  0.3656 -0.4259
   88MOL0     C11768   7.603   0.994   7.907 -1.2499  0.6665 -1.0984
   88MOL0     O11769   7.637   1.105   7.819 -0.4259  0.3278  0.3737
   88MOL0     C11770   7.762   1.147   7.788 -0.0877  0.2857  0.5362
   88MOL0     C11771   7.785   1.255   7.707  0.2563  0.4260 -0.1145
   88MOL0     C11772   7.914   1.294   7.675 -0.5709 -0.1523 -0.1223
   88MOL0     C11773   8.026   1.225   7.727  0.4386  0.3403  0.2905
   88MOL0     C11774   8.167   1.242   7.680  0.9825 -0.4107 -0.6373
   88MOL0     O11775   8.184   1.366   7.634 -0.3301 -0.4728  0.3048
   88MOL0     C11776   8.316   1.391   7.590  0.0938 -0.6494 -1.4289
   88MOL0     C11777   8.357   1.334   7.471  0.4440  0.2915  0.6420
   88MOL0     C11778   8.484   1.358   7.412  0.5802  0.6727 -0.2407
   88MOL0     C11779   8.568   1.452   7.475  0.1814 -0.3023  0.2226
   88MOL0     O11780   8.688   1.486   7.415 -0.1520  0.8711 -0.1413
   88MOL0     C11781   8.732   1.427   7.297  0.8418  0.1740  0.5552
   88MOL0     C11782   8.879   1.453   7.286 -0.0602  0.4731 -0.5030
   88MOL0     C11783   8.930   1.429   7.148  0.0310 -0.3846 -0.2614
   88MOL0     C11784   9.074   1.432   7.151 -0.8853 -0.2293  0.2366
   88MOL0     C11785   9.127   1.407   7.009 -0.2900 -0.9723  0.6985
   88MOL0     C11786   9.274   1.347   6.996  0.6470  0.4625  0.9028
   88MOL0     C11787   9.384   1.431   7.062 -0.2186  1.0043  0.1241
   88MOL0     C11788   9.515   1.394   7.021 -0.0572 -0.9455  0.7243
   88MOL0    Cl11789   9.561   1.471   6.873 -0.1161 -0.2919  0.3313
   88MOL0     C11790   8.524   1.513   7.594 -0.3914  0.2523 -0.9682
   88MOL0     C11791   8.399   1.485   7.649  0.8482 -0.2508 -0.8264
   88MOL0     O11792   8.257   1.155   7.696 -0.0596  0.4527 -0.4869
   88MOL0     C11793   7.994   1.112   7.814 -0.9830 -0.7194 -0.4350
   88MOL0     C11794   7.870   1.085   7.852  0.9447 -0.0873 -0.5486
   88MOL0     N11795   7.153   0.966   7.809  0.8645  0.8556 -0.1784
   88MOL0     N11796   7.058   1.052   7.807 -0.0165  0.0762  0.2097
   88MOL0     C11797   6.253   1.397   8.775  0.3785  0.9349  0.2981
   88MOL0     C11798   6.113   1.402   8.762  0.4310  0.5073  0.1987
   88MOL0     C11799   5.716   1.447   8.644 -0.2750  0.3521  0.3605
   88MOL0     C11800   5.642   1.525   8.740 -0.1931 -0.3077  0.7195
   88MOL0     C11801   5.506   1.520   8.762 -0.0237  1.0945  0.9016
   88MOL0     C11802   5.433   1.412   8.702  0.3648 -1.3149  0.3313
   88MOL0     O11803   5.298   1.379   8.729  0.4113 -0.0731 -0.2769
   88MOL0     C11804   5.250   1.415   8.855 -0.0875  0.2475  0.5196
   88MOL0     C11805   5.305   1.334   8.969 -0.5627 -0.2724 -0.1683
   88MOL0     C11806   5.257   1.381   9.098 -0.7478 -0.0772  0.3200
   88MOL0     C11807   5.292   1.298   9.216  0.8034 -0.5863 -0.2770
   88MOL0     C11808   5.209   1.186   9.219 -0.1189  0.2309  0.2790
   88MOL0     C11809   5.141   1.087   9.218 -0.8420  0.7603  0.2103
   88MOL0     C11810   5.501   1.331   8.606 -0.1023 -0.3254  0.6027
   88MOL0     C11811   5.641   1.345   8.577 -1.2311 -0.2460 -0.0697
   88MOL0     C11812   5.696   1.232   8.494  0.3117  0.0063  0.4328
   88MOL0     H11813   6.109   1.712   8.622  3.1319  0.0601 -1.0748
   88MOL0     H11814   6.342   1.684   8.632 -0.2060  0.7863  1.5522
   88MOL0     H11815   6.530   1.666   8.728  0.1076 -0.8730  2.3811
   88MOL0     H11816   6.668   1.551   8.752  1.8303 -0.8069 -5.7618
   88MOL0     H11817   6.643   1.642   8.509 -0.5790  2.2097  0.8439
   88MOL0     H11818   6.491   1.553   8.490  0.2287  5.0259 -1.3667
   88MOL0     H11819   6.635   1.336   8.541 -1.5971  2.7492  4.1351
   88MOL0     H11820   6.777   1.443   8.527  0.4467 -1.3929  1.0802
   88MOL0     H11821   6.574   1.398   8.304  1.4054  0.0802 -0.9138
   88MOL0     H11822   6.696   1.519   8.302 -0.6006 -1.1141 -1.4084
   88MOL0     H11823   6.859   1.330   8.339 -0.9852 -1.0245  4.1947
   88MOL0     H11824   6.724   1.217   8.345 -0.1927 -0.4654 -0.8759
   88MOL0     H11825   6.676   1.261   8.095 -0.8624  2.3140 -1.2628
   88MOL0     H11826   6.792   1.390   8.093 -3.9904 -0.3421 -1.3160
   88MOL0     H11827   6.851   1.093   8.163 -0.6945 -0.6331 -0.3051
   88MOL0     H11828   6.978   1.221   8.138 -0.0327  1.1971  0.9991
   88MOL0     H11829   6.780   1.110   7.927 -0.3860  2.4673 -1.6576
   88MOL0     H11830   6.890   1.221   7.887  1.5583 -1.6515 -2.3196
   88MOL0     H11831   7.006   0.940   8.104 -0.7426  0.9439 -0.2390
   88MOL0     H11832   7.225   0.755   8.056  0.2179  0.6949  1.4852
   88MOL0     H11833   7.251   0.754   7.880  1.6352 -1.4020  2.1506
   88MOL0     H11834   7.379   0.946   8.076 -2.1410 -1.1273  0.4329
   88MOL0     H11835   7.464   0.796   8.024 -1.4533 -0.0409  2.5494
   88MOL0     H11836   7.404   1.052   7.859 -1.9711 -0.1528 -1.4135
   88MOL0     H11837   7.452   0.900   7.779  0.2807 -0.0674 -0.2629
   88MOL0     H11838   7.675   0.913   7.892  0.3768  1.7099  0.6058
   88MOL0     H11839   7.602   1.030   8.010 -0.9197  0.0635 -0.8782
   88MOL0     H11840   7.699   1.313   7.672  0.7295  0.0706 -1.9680
   88MOL0     H11841   7.941   1.377   7.611 -3.9402 -0.6532 -2.4755
   88MOL0     H11842   8.290   1.270   7.415  0.1430 -2.3046  3.6980
   88MOL0     H11843   8.512   1.293   7.331  0.7363 -0.5109  0.7356
   88MOL0     H11844   8.719   1.320   7.280 -0.9612  0.4900 -0.2500
   88MOL0     H11845   8.681   1.482   7.219 -1.7724 -3.2154 -0.3568
   88MOL0     H11846   8.902   1.555   7.319  0.7969 -0.1996  1.0878
   88MOL0     H11847   8.924   1.385   7.359 -0.6800  0.8986  0.3025
   88MOL0     H11848   8.889   1.329   7.134 -2.6793  0.7323 -0.8709
   88MOL0     H11849   8.893   1.497   7.071 -1.6191  0.0520  0.8766
   88MOL0     H11850   9.125   1.364   7.220 -1.2137 -0.5436  0.1721
   88MOL0     H11851   9.100   1.533   7.181 -1.3061 -0.3680  1.1061
   88MOL0     H11852   9.124   1.504   6.958 -2.7819 -0.4838  1.5991
   88MOL0     H11853   9.054   1.349   6.951  0.2681 -0.0145 -1.0456
   88MOL0     H11854   9.269   1.251   7.049  2.2573  0.0518  0.3721
   88MOL0     H11855   9.295   1.338   6.889  2.8459 -2.6123  1.4433
   88MOL0     H11856   9.378   1.406   7.169  0.5122 -1.5975 -0.3785
   88MOL0     H11857   9.355   1.535   7.047 -2.8551  0.3552  0.1004
   88MOL0     H11858   9.592   1.416   7.095  0.6899  1.2360 -0.5980
   88MOL0     H11859   9.507   1.286   7.007  2.1281 -1.0627  0.0265
   88MOL0     H11860   8.592   1.576   7.651  0.0512 -1.3311  0.3412
   88MOL0     H11861   8.373   1.538   7.740  2.9608  0.0109 -0.3247
   88MOL0     H11862   8.074   1.057   7.863  1.9751  3.3761 -0.0969
   88MOL0     H11863   7.853   1.002   7.919 -0.2358  1.0445  0.6263
   88MOL0     H11864   6.295   1.309   8.823 -1.7917 -1.2964 -1.6271
   88MOL0     H11865   6.053   1.321   8.801  2.5224 -0.8163  0.8119
   88MOL0     H11866   5.701   1.603   8.787 -0.4463 -0.8743  2.0053
   88MOL0     H11867   5.467   1.587   8.837 -0.1095  1.1562  0.8026
   88MOL0     H11868   5.140   1.411   8.850 -0.1593 -1.1570  2.2549
   88MOL0     H11869   5.268   1.521   8.876  1.2751 -0.0580  0.9657
   88MOL0     H11870   5.411   1.305   8.970 -0.4489  0.1361  1.4592
   88MOL0     H11871   5.252   1.239   8.959  0.2627 -0.5034 -4.6528
   88MOL0     H11872   5.149   1.399   9.099 -0.5483  1.1616  0.2415
   88MOL0     H11873   5.303   1.479   9.111 -0.2831 -0.1688 -0.5214
   88MOL0     H11874   5.396   1.265   9.200  0.5511 -0.2722 -3.0877
   88MOL0     H11875   5.278   1.369   9.297 -0.7001  1.3166 -2.0978
   88MOL0     H11876   5.075   1.006   9.244 -4.2325  2.2194 -2.9672
   88MOL0     H11877   5.446   1.254   8.554  0.0955  0.3359 -0.6426
   88MOL0     H11878   5.615   1.169   8.456  0.9496  0.9871 -2.8555
   88MOL0     H11879   5.748   1.273   8.407  3.2002  0.9689  2.4643
   88MOL0     H11880   5.760   1.156   8.541  0.6652 -1.0438 -1.5993
   89MOL0     O11881   0.898   2.828   2.072  0.4550  0.2995 -0.0147
   89MOL0     C11882   0.880   2.938   2.115  0.7099 -0.1133  0.7637
   89MOL0     O11883   0.974   3.039   2.112  0.4676  0.3632 -0.8800
   89MOL0     C11884   1.103   2.991   2.107 -0.4075  0.8799  1.0113
   89MOL0     C11885   1.167   3.011   1.990 -1.3274 -0.1540  0.3646
   89MOL0     C11886   1.297   2.981   1.973 -1.1303 -0.0027 -0.6411
   89MOL0     C11887   1.374   2.941   2.084 -0.6373 -0.0921  0.2767
   89MOL0     O11888   1.507   2.900   2.055 -0.2246  0.4048 -0.5985
   89MOL0     C11889   1.601   2.909   2.166 -0.7544  1.2027  0.2254
   89MOL0     C11890   1.749   2.921   2.108  0.6209  0.3553 -0.4811
   89MOL0     C11891   1.840   2.919   2.239  0.3411  0.5458 -0.1636
   89MOL0     C11892   1.990   2.912   2.203 -0.1467  0.0197 -0.9316
   89MOL0     C11893   2.068   2.950   2.330 -0.9681  0.2660  0.0447
   89MOL0     C11894   2.219   2.927   2.308 -0.2254 -0.5436 -0.2024
   89MOL0     C11895   2.314   2.976   2.419 -0.1860  0.2806 -0.4802
   89MOL0     C11896   2.459   2.984   2.354  1.6355 -0.3118 -1.2027
   89MOL0     N11897   2.563   2.980   2.450 -0.5002  0.8121 -0.6487
   89MOL0     C11898   2.684   2.908   2.429 -0.5650 -0.3727  0.0261
   89MOL0     C11899   2.766   2.966   2.520 -0.7658  0.0085 -0.7557
   89MOL0     C11900   2.914   2.920   2.521 -0.8380  0.4419 -0.3441
   89MOL0     C11901   3.014   3.020   2.452  0.2114 -0.1532 -0.6906
   89MOL0     C11902   3.164   2.980   2.456  0.0607  0.4119 -0.1259
   89MOL0     C11903   3.246   3.057   2.355  0.2799 -0.0950 -0.1871
   89MOL0     O11904   3.233   3.006   2.216  0.9333  0.0511  0.3045
   89MOL0     C11905   3.332   3.040   2.121  0.6456  0.4658  0.3523
   89MOL0     C11906   3.451   3.118   2.147  0.1585  0.0197  0.8020
   89MOL0     C11907   3.551   3.138   2.053  0.1373 -0.5294  0.2283
   89MOL0     C11908   3.527   3.094   1.918 -0.3122  0.2281 -1.0331
   89MOL0     C11909   3.624   3.112   1.811  0.6771  0.7454 -0.3384
   89MOL0     O11910   3.738   3.161   1.858 -0.2422 -0.2046  0.0772
   89MOL0     C11911   3.836   3.182   1.764  0.1957 -0.4436 -0.2014
   89MOL0     C11912   3.825   3.291   1.673 -0.5516 -0.2241 -0.2453
   89MOL0     C11913   3.916   3.296   1.567 -0.7968 -0.6350 -0.3603
   89MOL0     C11914   4.025   3.207   1.562  1.0953 -0.0593  0.3033
   89MOL0     O11915   4.117   3.207   1.462  0.0021 -0.3577  0.9071
   89MOL0     C11916   4.163   3.341   1.417 -0.5974  0.4777  0.0597
   89MOL0     C11917   4.267   3.314   1.317  0.0267 -0.6592  0.8685
   89MOL0     C11918   4.330   3.446   1.280 -0.1746 -1.1055 -0.3734
   89MOL0     C11919   4.460   3.418   1.206  0.2052 -0.4485  0.0650
   89MOL0     C11920   4.559   3.532   1.184 -0.6421  0.4535 -0.8119
   89MOL0     C11921   4.614   3.602   1.309  0.7408 -0.1535  0.1735
   89MOL0     C11922   4.682   3.729   1.256 -0.8801 -1.4042 -0.3351
   89MOL0     C11923   4.728   3.806   1.385 -0.9716  0.2051  0.5919
   89MOL0    Cl11924   4.842   3.720   1.473  0.0827 -0.2855  0.3155
   89MOL0     C11925   4.031   3.102   1.662 -1.1900  0.0824  0.4141
   89MOL0     C11926   3.940   3.091   1.763  0.5461  0.3070 -0.8010
   89MOL0     O11927   3.597   3.066   1.702 -0.4383 -0.2054  0.3370
   89MOL0     C11928   3.408   3.027   1.892 -0.2474  0.6163 -0.2854
   89MOL0     C11929   3.311   2.996   1.986 -0.4833  0.6150  0.7931
   89MOL0     N11930   2.703   3.050   2.602  0.3540  0.1167  0.1241
   89MOL0     N11931   2.585   3.070   2.550  0.5473 -0.4544  0.0421
   89MOL0     C11932   1.314   2.927   2.208 -1.3912  0.1203  0.2866
   89MOL0     C11933   1.176   2.939   2.216 -0.2351 -0.2405  0.2805
   89MOL0     C11934   0.738   2.988   2.135  1.0840  0.3637  0.7184
   89MOL0     C11935   0.718   3.111   2.207 -0.1160 -0.6527  0.1432
   89MOL0     C11936   0.585   3.163   2.221 -0.8902  0.3973 -1.1985
   89MOL0     C11937   0.475   3.099   2.178  0.9417 -0.4855 -0.2876
   89MOL0     O11938   0.353   3.170   2.180  0.5556  0.1252 -0.4495
   89MOL0     C11939   0.226   3.089   2.156  0.0815 -0.6817  0.4901
   89MOL0     C11940   0.098   3.178   2.178  0.3162  0.2829  0.6189
   89MOL0     C11941  -0.020   3.070   2.191  0.0131 -0.5258 -0.2449
   89MOL0     C11942  -0.136   3.113   2.277 -0.3302 -0.4472 -0.1106
   89MOL0     C11943  -0.248   3.182   2.212  0.4592 -0.3215  0.5166
   89MOL0     C11944  -0.351   3.231   2.162  0.1047 -0.0998  0.7617
   89MOL0     C11945   0.499   2.986   2.103 -0.3325  0.2150  0.1960
   89MOL0     C11946   0.624   2.933   2.077 -0.5061  1.1351 -0.2342
   89MOL0     C11947   0.629   2.818   1.974 -0.0271 -0.1162  0.4736
   89MOL0     H11948   1.115   3.075   1.919  1.5116  1.5177 -0.3505
   89MOL0     H11949   1.363   2.999   1.889  1.2517  1.1816  1.3516
   89MOL0     H11950   1.576   2.982   2.244  0.6198  1.5847  0.3351
   89MOL0     H11951   1.597   2.813   2.220  0.0234  1.8952  1.5786
   89MOL0     H11952   1.764   3.009   2.046  1.1677 -1.3074 -2.8189
   89MOL0     H11953   1.787   2.831   2.059  0.9261 -1.0705  2.1877
   89MOL0     H11954   1.819   2.837   2.308  3.9822 -0.6512 -0.2776
   89MOL0     H11955   1.813   3.008   2.297  0.8224  1.4018 -1.2283
   89MOL0     H11956   2.010   2.810   2.168 -0.4587 -0.9654  1.5689
   89MOL0     H11957   2.009   2.985   2.124  0.3401 -1.1483 -1.9219
   89MOL0     H11958   2.046   3.051   2.367  1.3331 -0.3610  3.5266
   89MOL0     H11959   2.045   2.878   2.409 -0.7425 -1.0022 -1.0081
   89MOL0     H11960   2.239   2.821   2.290 -0.2462 -0.9832  2.0294
   89MOL0     H11961   2.243   2.988   2.221 -2.4336  0.0212 -0.4594
   89MOL0     H11962   2.320   2.911   2.506 -1.0283  0.3893 -0.3281
   89MOL0     H11963   2.275   3.072   2.455  2.1689  0.1832  2.7092
   89MOL0     H11964   2.484   2.906   2.282  0.3243 -2.4706  0.5369
   89MOL0     H11965   2.463   3.087   2.316 -1.5321 -0.1266 -1.3558
   89MOL0     H11966   2.704   2.834   2.352  1.6663 -0.9272  1.0585
   89MOL0     H11967   2.950   2.908   2.623  2.3909 -0.5186 -1.4868
   89MOL0     H11968   2.935   2.827   2.469  1.7986  0.9522 -0.3472
   89MOL0     H11969   2.984   3.025   2.347 -1.5567  1.4472 -0.1698
   89MOL0     H11970   2.985   3.115   2.498  0.6499 -0.7607  0.9255
   89MOL0     H11971   3.181   2.874   2.433 -0.6087  0.4717 -0.9396
   89MOL0     H11972   3.197   2.989   2.560  0.1752  0.4617 -0.1657
   89MOL0     H11973   3.351   3.062   2.386  0.5028  4.0777 -0.9180
   89MOL0     H11974   3.213   3.161   2.358  3.3312  1.0375 -1.5876
   89MOL0     H11975   3.452   3.161   2.247 -2.3683 -0.3924  1.0730
   89MOL0     H11976   3.627   3.212   2.077 -1.5905  1.9774 -1.4613
   89MOL0     H11977   3.734   3.351   1.677 -1.3003 -1.3990  1.4967
   89MOL0     H11978   3.880   3.369   1.495 -1.6789  0.7553  1.4274
   89MOL0     H11979   4.082   3.405   1.380  0.4965  1.7524 -0.2062
   89MOL0     H11980   4.207   3.384   1.508 -1.1324 -0.1720  0.6386
   89MOL0     H11981   4.338   3.244   1.361 -1.9046 -2.0417  1.9273
   89MOL0     H11982   4.213   3.281   1.228  0.0260  0.6615  0.3533
   89MOL0     H11983   4.260   3.505   1.222  0.4756 -1.9703 -2.1072
   89MOL0     H11984   4.339   3.507   1.370 -1.3294 -0.3081 -0.7733
   89MOL0     H11985   4.439   3.382   1.105 -0.5055 -1.8940  0.6963
   89MOL0     H11986   4.504   3.340   1.270 -2.9788 -1.2440  1.4941
   89MOL0     H11987   4.501   3.604   1.125 -2.1373 -0.2529 -0.2626
   89MOL0     H11988   4.643   3.498   1.123  2.1313 -0.6239  3.1740
   89MOL0     H11989   4.528   3.624   1.373  0.1527  0.8930 -0.9414
   89MOL0     H11990   4.686   3.534   1.356  1.5997  1.3276  1.0794
   89MOL0     H11991   4.616   3.795   1.200 -0.8203  0.8361  2.0515
   89MOL0     H11992   4.773   3.701   1.202 -1.5414 -3.0765 -0.6433
   89MOL0     H11993   4.773   3.896   1.341 -1.3145 -0.5390 -1.3841
   89MOL0     H11994   4.635   3.822   1.440 -1.8694 -3.1884  0.2811
   89MOL0     H11995   4.103   3.021   1.658 -3.0544 -1.6001 -2.1307
   89MOL0     H11996   3.959   3.026   1.848  4.8555  1.5653 -0.5684
   89MOL0     H11997   3.396   2.984   1.793 -0.7272 -1.0467  0.4558
   89MOL0     H11998   3.222   2.936   1.970  1.0677 -2.7056  3.2632
   89MOL0     H11999   1.370   2.900   2.297  0.9607  1.1382 -0.8184
   89MOL0     H12000   1.128   2.920   2.312  1.7880 -1.8664  1.0368
   89MOL0     H12001   0.803   3.169   2.243 -0.6021  0.4114 -0.3651
   89MOL0     H12002   0.592   3.260   2.269 -3.2901  0.2668 -0.4598
   89MOL0     H12003   0.236   2.998   2.215 -0.3666  0.0643  1.7638
   89MOL0     H12004   0.227   3.049   2.055 -0.6364  0.6150 -0.0595
   89MOL0     H12005   0.077   3.239   2.090 -0.3728 -1.9848 -0.8990
   89MOL0     H12006   0.109   3.233   2.272  2.8591 -1.0390  1.1970
   89MOL0     H12007   0.028   2.983   2.237 -0.4079 -0.3714  0.4843
   89MOL0     H12008  -0.048   3.037   2.090 -0.7103 -0.6748  0.0028
   89MOL0     H12009  -0.187   3.027   2.323  1.3523 -0.1661  2.4799
   89MOL0     H12010  -0.095   3.179   2.354 -0.4376 -2.2347  1.5827
   89MOL0     H12011  -0.436   3.283   2.124 -0.1820  0.0978  1.6472
   89MOL0     H12012   0.421   2.953   2.034 -0.2394  1.8914 -0.7802
   89MOL0     H12013   0.700   2.841   1.894 -0.4853  0.8295  0.3270
   89MOL0     H12014   0.650   2.719   2.015  0.3108  0.3996  1.5811
   89MOL0     H12015   0.536   2.813   1.916 -0.6931 -0.9825  1.5795
   90MOL0     O12016   1.526   6.988   4.904  0.0093 -0.2623  0.0134
   90MOL0     C12017   1.501   7.051   4.797 -0.2445  0.4200 -0.3393
   90MOL0     O12018   1.598   7.098   4.711  0.5786  0.2577 -0.1410
   90MOL0     C12019   1.732   7.071   4.717  1.2009 -0.0273 -1.2460
   90MOL0     C12020   1.796   7.103   4.843 -0.0777  0.2054 -0.0556
   90MOL0     C12021   1.937   7.092   4.855 -0.2076 -0.1184 -0.9320
   90MOL0     C12022   2.008   7.027   4.749 -0.2278  0.6813 -0.7872
   90MOL0     O12023   2.138   7.005   4.771  0.2540  0.0627  0.1729
   90MOL0     C12024   2.216   6.953   4.662 -0.4209 -0.8236  0.9304
   90MOL0     C12025   2.371   6.943   4.694  0.3934  0.7119  0.5478
   90MOL0     C12026   2.449   7.067   4.724  0.7762  0.0730  0.6090
   90MOL0     C12027   2.600   7.040   4.760 -0.3573 -0.3016  0.7744
   90MOL0     C12028   2.675   7.170   4.776 -0.2636  1.1075 -0.0483
   90MOL0     C12029   2.748   7.198   4.651 -0.2774  0.4373 -0.4540
   90MOL0     C12030   2.821   7.332   4.657  0.1566  0.2296  0.4298
   90MOL0     C12031   2.910   7.363   4.544 -0.6500 -0.0779  0.4105
   90MOL0     N12032   3.052   7.318   4.552 -0.6853  0.1573 -0.3479
   90MOL0     C12033   3.163   7.385   4.605 -0.3545 -0.0391  0.0585
   90MOL0     C12034   3.261   7.287   4.609 -0.3920  0.6164 -0.6480
   90MOL0     C12035   3.402   7.308   4.663 -0.6351 -0.4140 -0.7564
   90MOL0     C12036   3.487   7.399   4.568  1.0444 -0.3966 -0.5057
   90MOL0     C12037   3.640   7.374   4.594  0.2946  0.9107 -0.5578
   90MOL0     C12038   3.681   7.428   4.729 -0.1457 -0.5114 -0.5098
   90MOL0     O12039   3.663   7.325   4.820 -0.0844 -0.4129 -0.0562
   90MOL0     C12040   3.760   7.218   4.829  0.1329 -0.1158  0.3229
   90MOL0     C12041   3.728   7.110   4.912 -0.0819  1.0677  0.1696
   90MOL0     C12042   3.822   7.016   4.953 -0.4315  0.2488 -0.7006
   90MOL0     C12043   3.952   7.016   4.888 -0.2386  0.9208 -0.3320
   90MOL0     C12044   4.047   6.907   4.925 -1.7218 -0.9545 -0.0979
   90MOL0     O12045   4.030   6.843   5.046 -0.9522 -0.3139  0.0748
   90MOL0     C12046   4.112   6.751   5.092 -0.5944 -0.2001  0.5637
   90MOL0     C12047   4.142   6.634   5.021  0.2121  0.0091 -0.4315
   90MOL0     C12048   4.211   6.535   5.080 -0.4469 -0.2472  0.7051
   90MOL0     C12049   4.261   6.543   5.208 -0.5557  0.4438 -0.2401
   90MOL0     O12050   4.330   6.436   5.265 -0.6188  0.0002  0.0657
   90MOL0     C12051   4.424   6.368   5.183 -0.3385  0.1571 -0.3686
   90MOL0     C12052   4.529   6.314   5.281 -0.1001 -0.6701  0.6614
   90MOL0     C12053   4.640   6.225   5.217 -0.0334  0.2476 -0.1933
   90MOL0     C12054   4.721   6.291   5.110 -0.7507  0.7228  0.6862
   90MOL0     C12055   4.847   6.216   5.066 -0.1162  0.5836  0.2694
   90MOL0     C12056   4.848   6.110   4.951  0.1860 -0.7297  0.2537
   90MOL0     C12057   4.752   5.992   4.983 -1.0453 -0.7437 -0.3539
   90MOL0     C12058   4.743   5.904   4.855 -0.1852 -0.0221  0.3823
   90MOL0    Cl12059   4.615   5.781   4.865  0.1845  0.0537 -0.1586
   90MOL0     C12060   4.234   6.657   5.270  0.2347  0.0029 -0.4020
   90MOL0     C12061   4.160   6.760   5.221 -0.0762  0.0667 -0.4677
   90MOL0     O12062   4.151   6.888   4.861  0.6331 -0.3404  0.1078
   90MOL0     C12063   3.978   7.111   4.789 -0.5082  0.0135 -0.1238
   90MOL0     C12064   3.884   7.212   4.764 -0.0463  0.1077 -0.2647
   90MOL0     N12065   3.214   7.169   4.568 -0.1330 -0.1160  0.8780
   90MOL0     N12066   3.089   7.199   4.528 -0.4207  0.0777 -1.4202
   90MOL0     C12067   1.942   6.989   4.630  0.1545  0.2617 -0.6774
   90MOL0     C12068   1.803   7.015   4.612  0.4383 -0.3842 -0.1638
   90MOL0     C12069   1.358   7.063   4.768 -0.6715 -0.4091  0.1777
   90MOL0     C12070   1.267   7.032   4.867 -0.6347  0.1846 -0.3103
   90MOL0     C12071   1.137   6.993   4.824  0.1574  0.3232 -0.4553
   90MOL0     C12072   1.094   6.994   4.691 -0.5536  0.6589  0.6037
   90MOL0     O12073   0.970   6.975   4.645 -0.5842  0.3485 -0.5031
   90MOL0     C12074   0.879   6.889   4.711  0.2130 -0.1182  0.2274
   90MOL0     C12075   0.748   6.866   4.623  0.6229  0.7651 -0.8589
   90MOL0     C12076   0.760   6.767   4.513  0.2151  0.0012  0.1871
   90MOL0     C12077   0.854   6.819   4.406  0.5881 -0.5626  0.6004
   90MOL0     C12078   0.791   6.927   4.330 -0.0169  0.3897 -0.0614
   90MOL0     C12079   0.734   7.014   4.266 -0.3220 -0.2549  0.4683
   90MOL0     C12080   1.192   7.033   4.596  0.5218 -1.1314  0.5076
   90MOL0     C12081   1.317   7.070   4.631 -0.4154 -1.2251  0.0973
   90MOL0     C12082   1.409   7.125   4.523 -0.3953 -0.5154  0.3492
   90MOL0     H12083   1.734   7.154   4.916 -0.1891 -1.0601  0.7576
   90MOL0     H12084   1.984   7.128   4.946  0.6091 -2.3814 -0.3833
   90MOL0     H12085   2.170   6.860   4.629 -3.0263  1.3651 -2.3064
   90MOL0     H12086   2.196   7.017   4.575 -1.4760 -2.1232  0.1854
   90MOL0     H12087   2.411   6.881   4.612  0.5659 -1.1741  1.9883
   90MOL0     H12088   2.378   6.878   4.782  0.6598  0.5351  0.3992
   90MOL0     H12089   2.410   7.110   4.817  4.2258 -2.4083  3.4779
   90MOL0     H12090   2.437   7.145   4.648 -2.2410  0.7382  1.6067
   90MOL0     H12091   2.591   6.986   4.855  0.0537 -1.6330  0.0898
   90MOL0     H12092   2.636   6.977   4.678 -1.4063  2.8163 -2.3366
   90MOL0     H12093   2.606   7.254   4.790 -1.5435 -0.0001  0.5110
   90MOL0     H12094   2.742   7.141   4.857 -0.7716 -1.2206 -0.4143
   90MOL0     H12095   2.820   7.116   4.652  0.3023  0.8606  2.8167
   90MOL0     H12096   2.668   7.202   4.576 -1.1608 -1.7909  0.2674
   90MOL0     H12097   2.883   7.337   4.748  0.2017  3.2638  0.3358
   90MOL0     H12098   2.751   7.416   4.659 -1.1830 -0.8422 -0.0785
   90MOL0     H12099   2.869   7.316   4.455  0.9844  2.0090 -1.5520
   90MOL0     H12100   2.919   7.471   4.533  0.0233 -0.1050  0.6197
   90MOL0     H12101   3.173   7.488   4.638  1.0438 -0.6210  1.5981
   90MOL0     H12102   3.391   7.350   4.764  0.6442 -3.9305  1.0245
   90MOL0     H12103   3.459   7.215   4.673  0.3446  0.2090 -0.4251
   90MOL0     H12104   3.466   7.385   4.461  1.5997 -0.1300 -0.6519
   90MOL0     H12105   3.470   7.505   4.590  1.3755 -0.7699  1.7731
   90MOL0     H12106   3.699   7.434   4.524  1.1309 -1.0234 -1.5883
   90MOL0     H12107   3.671   7.271   4.575 -0.3799  0.3715  1.0814
   90MOL0     H12108   3.621   7.516   4.754 -0.3160 -1.4778  2.8939
   90MOL0     H12109   3.785   7.464   4.732 -0.4216  0.3116 -0.4303
   90MOL0     H12110   3.628   7.103   4.953 -0.7357  2.1544 -1.1640
   90MOL0     H12111   3.800   6.933   5.020 -1.9438  2.4658  1.7711
   90MOL0     H12112   4.108   6.610   4.921 -0.8014 -2.7154  0.4700
   90MOL0     H12113   4.202   6.441   5.027  0.8849  0.8726 -1.6303
   90MOL0     H12114   4.387   6.286   5.121  1.1876 -0.6869 -0.1975
   90MOL0     H12115   4.474   6.440   5.117  1.2535 -0.3600  0.2240
   90MOL0     H12116   4.593   6.394   5.318  4.1201 -2.9709 -0.9459
   90MOL0     H12117   4.481   6.270   5.369  1.3055 -1.4727  1.0767
   90MOL0     H12118   4.710   6.186   5.291  0.9421 -1.7126 -2.0257
   90MOL0     H12119   4.581   6.139   5.183  1.5235 -0.8096 -0.3067
   90MOL0     H12120   4.765   6.388   5.136  2.0211  0.5395 -2.5123
   90MOL0     H12121   4.660   6.316   5.022 -1.1652  1.3029  1.1295
   90MOL0     H12122   4.899   6.170   5.151  0.9888  1.2502 -0.0223
   90MOL0     H12123   4.910   6.296   5.027  0.8609 -0.8740 -1.3304
   90MOL0     H12124   4.817   6.160   4.860 -1.5072 -4.3894 -1.3904
   90MOL0     H12125   4.952   6.079   4.934  0.6956 -0.2245  2.1806
   90MOL0     H12126   4.647   6.018   4.999 -1.1087 -1.4707  0.5295
   90MOL0     H12127   4.787   5.939   5.072  0.3205  2.3235  1.0910
   90MOL0     H12128   4.724   5.970   4.770  2.2076  2.4883  1.6400
   90MOL0     H12129   4.840   5.854   4.846 -0.4034 -0.9555  2.6127
   90MOL0     H12130   4.271   6.673   5.371 -0.3800  2.0982 -0.4608
   90MOL0     H12131   4.122   6.844   5.279  1.4548 -1.0077  2.2949
   90MOL0     H12132   4.073   7.122   4.739 -0.0203  0.9357  0.9642
   90MOL0     H12133   3.906   7.293   4.695  0.7526  2.4153  2.5255
   90MOL0     H12134   1.988   6.940   4.545 -0.8152  1.9216 -2.2375
   90MOL0     H12135   1.753   6.994   4.519 -1.8703  0.3804  0.8265
   90MOL0     H12136   1.299   7.021   4.970  1.9005 -0.4495 -1.0867
   90MOL0     H12137   1.061   6.971   4.898  0.6855  2.3854  0.7922
   90MOL0     H12138   0.844   6.941   4.800 -2.4717  0.4540 -1.0734
   90MOL0     H12139   0.921   6.794   4.745  2.9271  0.7659 -0.3323
   90MOL0     H12140   0.701   6.959   4.589  0.7462  1.0626 -0.2384
   90MOL0     H12141   0.671   6.823   4.688 -0.8856  3.5024 -0.6941
   90MOL0     H12142   0.660   6.756   4.471 -0.8816  5.3639  0.6954
   90MOL0     H12143   0.809   6.678   4.553  3.8059  0.8619 -1.8375
   90MOL0     H12144   0.953   6.849   4.443 -0.1981  0.8721  1.6319
   90MOL0     H12145   0.854   6.744   4.326  0.7308  1.9021 -1.8673
   90MOL0     H12146   0.680   7.089   4.212 -0.0010 -1.2736 -1.3098
   90MOL0     H12147   1.173   7.034   4.489  3.2535 -0.2033 -0.0455
   90MOL0     H12148   1.494   7.058   4.505 -1.0100 -1.3718  0.5704
   90MOL0     H12149   1.345   7.124   4.434 -3.3017  0.7336  2.2858
   90MOL0     H12150   1.458   7.221   4.541  2.1356 -2.0508  2.2148
   91MOL0     O12151   0.444  11.307   3.288 -0.3807  0.6425  0.5044
   91MOL0     C12152   0.427  11.406   3.352  0.1545 -0.0884 -0.3331
   91MOL0     O12153   0.520  11.496   3.389  0.4888 -0.2790  0.0199
   91MOL0     C12154   0.655  11.481   3.373 -0.2768  0.2684  0.7596
   91MOL0     C12155   0.705  11.461   3.246 -0.4814 -0.7589  0.1156
   91MOL0     C12156   0.847  11.437   3.230 -0.1657 -0.4771 -0.1623
   91MOL0     C12157   0.932  11.446   3.339 -0.6144  0.0628 -0.3715
   91MOL0     O12158   1.069  11.428   3.318 -0.0082 -0.2143  0.3808
   91MOL0     C12159   1.174  11.465   3.406  0.2659 -0.2859 -0.8264
   91MOL0     C12160   1.302  11.419   3.336 -0.5013  0.3243 -0.3453
   91MOL0     C12161   1.326  11.271   3.342  0.1789  0.7268 -0.7626
   91MOL0     C12162   1.422  11.215   3.243  0.5031 -0.4720  0.3742
   91MOL0     C12163   1.555  11.179   3.311  0.7643  0.5733  0.5055
   91MOL0     C12164   1.631  11.302   3.360 -0.4870  0.3789  0.0056
   91MOL0     C12165   1.767  11.260   3.427 -0.5529 -0.4729 -0.1435
   91MOL0     C12166   1.769  11.194   3.567 -0.5157 -0.2541  0.4616
   91MOL0     N12167   1.905  11.161   3.589  0.1334 -0.0027  0.7584
   91MOL0     C12168   1.944  11.038   3.627 -0.0555 -0.6334  0.3404
   91MOL0     C12169   2.068  11.053   3.676 -1.1140  0.4232 -0.3939
   91MOL0     C12170   2.154  10.944   3.732 -0.1636 -0.4640  0.8044
   91MOL0     C12171   2.124  10.924   3.881  0.2341  0.5370  0.6576
   91MOL0     C12172   2.122  11.054   3.968  0.4140  0.2332  0.0107
   91MOL0     C12173   1.979  11.116   3.999 -0.1968  0.2683  0.0053
   91MOL0     O12174   1.913  11.011   4.073  0.3282  0.1505 -0.2301
   91MOL0     C12175   1.792  11.047   4.107 -0.0761  0.2561 -0.0983
   91MOL0     C12176   1.728  11.169   4.098 -0.1825 -0.7184 -0.6432
   91MOL0     C12177   1.594  11.190   4.154  0.3776  0.4306  0.3982
   91MOL0     C12178   1.519  11.080   4.207 -1.1256 -0.5878 -0.2987
   91MOL0     C12179   1.377  11.094   4.236  0.9682 -0.5535 -0.0219
   91MOL0     O12180   1.302  11.183   4.161  0.5330 -0.1414  0.6273
   91MOL0     C12181   1.161  11.148   4.164 -1.1553 -0.4549  0.3378
   91MOL0     C12182   1.079  11.221   4.253  1.5610  0.4775  0.1027
   91MOL0     C12183   0.940  11.181   4.267 -0.1521  0.5684 -0.8773
   91MOL0     C12184   0.889  11.064   4.205 -0.2977 -0.9670  0.0211
   91MOL0     O12185   0.776  11.002   4.237 -0.9918 -0.5154  0.5360
   91MOL0     C12186   0.671  11.038   4.149  0.2860 -0.1800  0.8340
   91MOL0     C12187   0.538  11.001   4.210 -0.4784 -0.0809 -0.7793
   91MOL0     C12188   0.514  11.054   4.352  0.3795  0.3115 -1.0754
   91MOL0     C12189   0.371  11.045   4.397  0.1518  1.6026  1.3833
   91MOL0     C12190   0.314  10.913   4.460  0.2064  0.7101  0.3234
   91MOL0     C12191   0.167  10.924   4.502 -0.2751 -0.1296 -0.2772
   91MOL0     C12192   0.068  10.956   4.390 -0.5439  0.8845  0.0713
   91MOL0     C12193  -0.071  10.904   4.429  0.4916  0.5806 -0.4945
   91MOL0    Cl12194  -0.082  10.723   4.429  0.4980 -0.1174 -0.3225
   91MOL0     C12195   0.976  10.991   4.124 -0.4800 -0.4333  0.9215
   91MOL0     C12196   1.114  11.039   4.098  0.6524  0.7880  0.0957
   91MOL0     O12197   1.333  11.001   4.301 -0.2450  0.2578  0.2162
   91MOL0     C12198   1.589  10.961   4.216  0.5097  0.4890 -0.3572
   91MOL0     C12199   1.717  10.943   4.176  0.3346 -0.8285 -0.1963
   91MOL0     N12200   2.103  11.184   3.664  0.0890 -0.1689  0.0944
   91MOL0     N12201   2.000  11.251   3.626 -1.0900  0.2978 -0.3299
   91MOL0     C12202   0.878  11.478   3.466  0.7834 -0.2076 -0.9652
   91MOL0     C12203   0.741  11.493   3.477 -0.5567  0.2888 -0.3890
   91MOL0     C12204   0.288  11.442   3.390 -0.2464 -0.0749  0.2890
   91MOL0     C12205   0.196  11.460   3.289  0.0503  0.3473  0.4342
   91MOL0     C12206   0.064  11.497   3.311 -0.0010  0.3918  0.2619
   91MOL0     C12207   0.018  11.515   3.442  0.1661 -0.0365 -0.1056
   91MOL0     O12208  -0.116  11.539   3.470 -0.3100  0.0464  0.2368
   91MOL0     C12209  -0.206  11.600   3.379  0.7829  0.0334 -0.1244
   91MOL0     C12210  -0.298  11.708   3.439  0.7373  0.4041  0.1014
   91MOL0     C12211  -0.219  11.833   3.485  0.2373 -0.1873  0.0031
   91MOL0     C12212  -0.315  11.932   3.566  0.3414 -0.7263 -0.2654
   91MOL0     C12213  -0.441  11.964   3.492 -0.3868 -0.0360  0.1377
   91MOL0     C12214  -0.529  11.987   3.409 -0.0880 -1.0648 -0.2207
   91MOL0     C12215   0.106  11.505   3.546 -0.5918  0.1947  0.1807
   91MOL0     C12216   0.240  11.473   3.516  0.1068  0.1610 -0.0838
   91MOL0     C12217   0.339  11.481   3.631  0.4191  0.4089 -0.3781
   91MOL0     H12218   0.642  11.445   3.159 -1.9907 -2.6246  1.4934
   91MOL0     H12219   0.892  11.409   3.135 -0.9006  0.3102 -0.7537
   91MOL0     H12220   1.184  11.574   3.411  4.3121 -0.5691  0.1660
   91MOL0     H12221   1.177  11.432   3.510  1.0571  2.6973  0.2006
   91MOL0     H12222   1.381  11.476   3.386 -1.3320 -0.6954  2.2919
   91MOL0     H12223   1.307  11.462   3.236 -0.2219  0.6165 -0.2083
   91MOL0     H12224   1.232  11.217   3.331 -1.5418  3.3847  0.0269
   91MOL0     H12225   1.360  11.237   3.440  1.8101  0.5013 -1.3715
   91MOL0     H12226   1.382  11.120   3.208  0.5185 -0.0569 -0.8375
   91MOL0     H12227   1.430  11.282   3.156  0.2961 -0.8650  0.0539
   91MOL0     H12228   1.536  11.127   3.405 -0.8250  2.5182  1.3214
   91MOL0     H12229   1.618  11.124   3.240  1.7892  2.9721 -0.5735
   91MOL0     H12230   1.657  11.363   3.273 -0.8750  0.2820 -0.1773
   91MOL0     H12231   1.573  11.369   3.424  1.8255  4.1243 -1.4999
   91MOL0     H12232   1.824  11.352   3.442 -2.3924  0.4190  1.9233
   91MOL0     H12233   1.810  11.193   3.352 -1.3163  0.1856 -1.2142
   91MOL0     H12234   1.738  11.271   3.639  1.9989 -0.9889  2.4908
   91MOL0     H12235   1.701  11.108   3.573  0.1561 -0.8013  0.3019
   91MOL0     H12236   1.883  10.948   3.626  2.0676 -2.1603  0.4416
   91MOL0     H12237   2.143  10.850   3.677  0.5665 -1.1926  1.8662
   91MOL0     H12238   2.261  10.967   3.731  0.7557 -3.7113  3.6196
   91MOL0     H12239   2.025  10.878   3.896  0.3783 -0.1275 -0.3503
   91MOL0     H12240   2.197  10.852   3.919 -1.3637 -2.2364 -1.1724
   91MOL0     H12241   2.186  11.133   3.927 -1.6774  1.8048 -0.4043
   91MOL0     H12242   2.162  11.039   4.069  0.6764  0.8759  0.0078
   91MOL0     H12243   1.921  11.127   3.907 -2.7448  0.2181  1.5018
   91MOL0     H12244   1.999  11.206   4.057  3.7398 -0.9405  0.8226
   91MOL0     H12245   1.772  11.258   4.056  0.6372  0.8342  3.1079
   91MOL0     H12246   1.548  11.288   4.144 -3.0015 -0.9787  0.9782
   91MOL0     H12247   1.119  11.307   4.307 -1.3329 -0.2392  3.8235
   91MOL0     H12248   0.873  11.231   4.336 -0.3211 -2.7551  1.6148
   91MOL0     H12249   0.669  11.145   4.127 -1.4798 -0.4165 -0.4145
   91MOL0     H12250   0.692  10.986   4.055  5.0483  1.2477  0.8706
   91MOL0     H12251   0.455  11.025   4.142  0.5417 -0.2367 -2.1089
   91MOL0     H12252   0.536  10.892   4.221  1.3399  0.0533  1.3272
   91MOL0     H12253   0.572  11.008   4.434 -1.1759  1.1655  0.5776
   91MOL0     H12254   0.533  11.160   4.368 -0.8241  0.1774  2.0336
   91MOL0     H12255   0.307  11.062   4.310  1.7051  1.5644  0.1647
   91MOL0     H12256   0.362  11.129   4.467  1.7840  1.9709  1.2043
   91MOL0     H12257   0.374  10.887   4.548 -1.8599 -2.0627  1.0675
   91MOL0     H12258   0.319  10.838   4.381  0.0589  0.3770  0.6292
   91MOL0     H12259   0.144  10.830   4.553  1.7354 -1.3376 -1.4567
   91MOL0     H12260   0.154  11.010   4.568  4.3583  1.4171 -1.0313
   91MOL0     H12261   0.091  10.904   4.296 -1.1574 -1.2002  1.0140
   91MOL0     H12262   0.054  11.062   4.369 -1.6983  0.4550 -1.5734
   91MOL0     H12263  -0.099  10.941   4.528  0.8415  1.6774 -0.7904
   91MOL0     H12264  -0.139  10.945   4.353  0.1488  0.3538 -0.3160
   91MOL0     H12265   0.938  10.905   4.071 -1.3054  0.4083  0.1021
   91MOL0     H12266   1.183  10.980   4.039  0.6573  0.5421  0.3466
   91MOL0     H12267   1.552  10.879   4.277 -0.4460  1.0993 -0.0904
   91MOL0     H12268   1.764  10.845   4.176  0.4615 -0.7704 -0.6603
   91MOL0     H12269   0.934  11.471   3.559 -0.8714 -0.5009  0.0522
   91MOL0     H12270   0.692  11.515   3.572 -1.7289  0.8753 -1.0962
   91MOL0     H12271   0.239  11.461   3.189 -1.2457  0.7909 -0.1403
   91MOL0     H12272  -0.002  11.508   3.225  1.0316  0.0565 -0.5909
   91MOL0     H12273  -0.272  11.531   3.326  1.5492 -2.3386  1.8555
   91MOL0     H12274  -0.149  11.653   3.301 -0.3830 -0.2142 -1.1781
   91MOL0     H12275  -0.349  11.674   3.530  0.7606 -0.5864 -0.2508
   91MOL0     H12276  -0.378  11.735   3.369 -0.4202  0.1745  1.2933
   91MOL0     H12277  -0.185  11.888   3.397 -0.6924 -0.2171 -0.3890
   91MOL0     H12278  -0.136  11.795   3.545  0.5014 -1.6412 -1.2401
   91MOL0     H12279  -0.335  11.899   3.668  2.4815  2.7763  1.5172
   91MOL0     H12280  -0.256  12.023   3.582 -1.3483  0.6177 -1.3967
   91MOL0     H12281  -0.596  12.032   3.338  1.1165  2.4034  0.6458
   91MOL0     H12282   0.069  11.523   3.647  0.7167 -0.4440  0.7954
   91MOL0     H12283   0.392  11.386   3.644  0.3960  0.2345 -1.4767
   91MOL0     H12284   0.416  11.558   3.621 -1.7624  2.4818 -3.0650
   91MOL0     H12285   0.284  11.497   3.724 -2.3331 -4.2315 -0.9016
   92MOL0     O12286   5.617   2.605   5.719 -0.0232  0.1704 -0.0342
   92MOL0     C12287   5.624   2.645   5.831  0.2044 -0.2588  0.0323
   92MOL0     O12288   5.736   2.662   5.896  1.0776  0.4706 -0.2921
   92MOL0     C12289   5.859   2.630   5.839 -0.8618 -0.1067 -1.3266
   92MOL0     C12290   5.902   2.492   5.819  0.9851  0.2051  0.1021
   92MOL0     C12291   6.040   2.468   5.785 -0.1803 -1.0374  0.8199
   92MOL0     C12292   6.136   2.574   5.781  0.6932 -1.7430  0.1708
   92MOL0     O12293   6.259   2.542   5.737 -0.0128 -0.6919 -0.0102
   92MOL0     C12294   6.352   2.652   5.700  0.1829  0.3772 -0.6440
   92MOL0     C12295   6.437   2.700   5.815  0.0504 -0.3360 -0.0020
   92MOL0     C12296   6.538   2.802   5.762  0.8058  0.4447  0.3663
   92MOL0     C12297   6.664   2.828   5.847 -0.5103  0.5222 -0.3930
   92MOL0     C12298   6.754   2.913   5.760  0.5624  0.1365  0.2421
   92MOL0     C12299   6.878   2.957   5.830  0.5670  0.1644 -1.3480
   92MOL0     C12300   6.954   3.058   5.745  0.3892  0.6106 -0.4104
   92MOL0     C12301   7.088   3.096   5.813  0.0822 -0.6295  0.4012
   92MOL0     N12302   7.169   3.164   5.713 -0.4655  0.2038  0.1427
   92MOL0     C12303   7.300   3.131   5.690  0.1521  0.6759 -0.7733
   92MOL0     C12304   7.333   3.229   5.609  0.0080 -0.1129  0.4930
   92MOL0     C12305   7.454   3.247   5.527  0.0633  0.2742  0.0931
   92MOL0     C12306   7.587   3.287   5.611  0.1125 -0.5810 -0.4869
   92MOL0     C12307   7.697   3.333   5.518  0.2819 -0.2062 -1.1424
   92MOL0     C12308   7.822   3.383   5.593  1.1287  0.8383  0.4807
   92MOL0     O12309   7.937   3.394   5.510 -0.2743  0.2496 -0.2270
   92MOL0     C12310   8.047   3.461   5.556  0.2001  0.0107  0.1800
   92MOL0     C12311   8.151   3.467   5.465 -0.5741 -0.2567  0.0926
   92MOL0     C12312   8.279   3.522   5.494 -0.6856  0.4754 -0.7616
   92MOL0     C12313   8.301   3.572   5.629 -0.7611  0.6250  0.6140
   92MOL0     C12314   8.434   3.634   5.664  0.4563  0.3246 -0.6382
   92MOL0     O12315   8.533   3.623   5.576 -0.5969  0.1849 -0.1479
   92MOL0     C12316   8.659   3.677   5.584 -0.0868  0.1751  0.9551
   92MOL0     C12317   8.720   3.729   5.694 -0.8922  0.1788 -0.0238
   92MOL0     C12318   8.829   3.808   5.697  0.6834 -0.5647  0.7908
   92MOL0     C12319   8.902   3.815   5.577 -0.2232 -0.2717 -0.6376
   92MOL0     O12320   9.023   3.875   5.564 -0.8229  0.1907  0.0571
   92MOL0     C12321   9.078   3.945   5.679  1.1088 -0.2022 -0.4664
   92MOL0     C12322   9.200   4.024   5.649 -0.4218  0.4786  0.3335
   92MOL0     C12323   9.258   4.096   5.772  0.5907  0.3174 -0.7101
   92MOL0     C12324   9.386   4.175   5.741 -0.0177 -0.5237 -0.1835
   92MOL0     C12325   9.506   4.080   5.733  0.7100  0.8561 -0.2306
   92MOL0     C12326   9.639   4.155   5.718 -0.0289  0.3368  0.1704
   92MOL0     C12327   9.760   4.079   5.689 -0.4609  0.9212  0.3846
   92MOL0     C12328   9.874   4.179   5.702 -0.1471 -0.6874 -0.3504
   92MOL0    Cl12329  10.020   4.090   5.632 -0.1167  0.3365 -0.1099
   92MOL0     C12330   8.848   3.763   5.462 -0.6753  0.2656  0.0634
   92MOL0     C12331   8.734   3.692   5.467 -0.1069 -0.7027  0.0553
   92MOL0     O12332   8.433   3.703   5.767  0.1551 -0.3054 -0.4097
   92MOL0     C12333   8.195   3.564   5.717 -0.2635 -0.0701  0.6493
   92MOL0     C12334   8.067   3.505   5.682 -0.7911 -0.1772  0.3417
   92MOL0     N12335   7.226   3.306   5.575  0.4005 -0.4791 -1.2478
   92MOL0     N12336   7.125   3.274   5.652 -0.2004  0.0031 -0.1495
   92MOL0     C12337   6.092   2.703   5.835 -0.7581  0.3800  0.2669
   92MOL0     C12338   5.955   2.728   5.856 -0.2145 -0.1926  0.4865
   92MOL0     C12339   5.497   2.663   5.905  0.0437 -0.1690  0.2743
   92MOL0     C12340   5.497   2.639   6.037  0.0099 -0.6282  1.0401
   92MOL0     C12341   5.376   2.657   6.114 -0.4291  0.2462 -0.6570
   92MOL0     C12342   5.248   2.689   6.058  0.0277  0.3075 -0.1428
   92MOL0     O12343   5.135   2.699   6.135  1.8996 -0.0409 -0.2220
   92MOL0     C12344   5.136   2.697   6.279 -0.0086 -0.4754 -0.6299
   92MOL0     C12345   4.989   2.680   6.328 -0.6630 -0.2371 -1.2128
   92MOL0     C12346   4.950   2.531   6.307 -0.5597 -0.2652  1.0386
   92MOL0     C12347   4.803   2.503   6.354 -0.1115 -0.1039  0.2492
   92MOL0     C12348   4.786   2.540   6.492 -0.0994  0.0026  0.1834
   92MOL0     C12349   4.782   2.554   6.608 -0.3034  0.4020 -0.9016
   92MOL0     C12350   5.258   2.711   5.921  0.0460  0.1004 -0.1067
   92MOL0     C12351   5.377   2.701   5.846  0.9892  0.8492  0.3681
   92MOL0     C12352   5.353   2.739   5.698  0.6969 -0.0246  0.3892
   92MOL0     H12353   5.840   2.403   5.826 -1.0792  1.1858 -3.4090
   92MOL0     H12354   6.070   2.366   5.763 -0.0360 -0.7057 -0.6484
   92MOL0     H12355   6.425   2.613   5.629 -0.0363 -1.1142 -0.0874
   92MOL0     H12356   6.308   2.741   5.653  0.1807  1.4543  1.2896
   92MOL0     H12357   6.488   2.610   5.850  0.4243 -0.0471  0.2029
   92MOL0     H12358   6.379   2.750   5.892  0.7239 -2.1578  1.7809
   92MOL0     H12359   6.501   2.904   5.764  0.8211  0.4614  2.6230
   92MOL0     H12360   6.564   2.772   5.660  0.3679 -0.3781  0.4822
   92MOL0     H12361   6.649   2.871   5.946 -2.1323 -0.8069 -0.0012
   92MOL0     H12362   6.721   2.735   5.856 -2.4293 -0.5914  1.0509
   92MOL0     H12363   6.786   2.851   5.675 -0.1060  0.4802 -0.2718
   92MOL0     H12364   6.705   3.005   5.727 -0.4421 -1.1959 -2.2020
   92MOL0     H12365   6.848   3.014   5.918  2.3333 -0.5805 -0.2057
   92MOL0     H12366   6.939   2.871   5.860 -0.6183  0.0029  0.7796
   92MOL0     H12367   6.888   3.143   5.730 -2.3691 -1.0616  1.2337
   92MOL0     H12368   6.978   3.003   5.654  2.5278 -1.4156  1.2293
   92MOL0     H12369   7.078   3.147   5.909  3.7971 -0.3438  0.7681
   92MOL0     H12370   7.133   3.000   5.840  0.9804 -0.3536 -0.0687
   92MOL0     H12371   7.359   3.054   5.739 -0.0268  2.1856  2.0547
   92MOL0     H12372   7.468   3.146   5.487 -0.5888  0.3094 -0.2407
   92MOL0     H12373   7.446   3.315   5.442  0.6246  0.8861  0.5184
   92MOL0     H12374   7.567   3.371   5.678 -0.4255  0.9342 -2.4823
   92MOL0     H12375   7.613   3.192   5.660 -2.9975 -1.4771 -0.3829
   92MOL0     H12376   7.662   3.419   5.460  1.0795  0.7229 -0.2938
   92MOL0     H12377   7.726   3.248   5.455  0.5797 -0.3530 -0.8141
   92MOL0     H12378   7.841   3.313   5.675 -0.2935  2.6265  2.4574
   92MOL0     H12379   7.809   3.483   5.635  1.4951  0.5876  1.1969
   92MOL0     H12380   8.128   3.453   5.360  0.3270  2.6238 -0.5717
   92MOL0     H12381   8.365   3.535   5.429  0.4420 -0.1758  0.5451
   92MOL0     H12382   8.681   3.703   5.792 -0.5720  0.0005  0.0589
   92MOL0     H12383   8.877   3.842   5.788  2.3597 -0.7257  0.0117
   92MOL0     H12384   9.018   4.021   5.729  2.4222  0.9943 -0.6570
   92MOL0     H12385   9.104   3.874   5.758  1.1253  0.8174  0.4575
   92MOL0     H12386   9.278   3.955   5.617  0.0885  1.2644 -0.1327
   92MOL0     H12387   9.179   4.096   5.570  1.4111 -0.9947 -1.6069
   92MOL0     H12388   9.197   4.181   5.804  0.4677 -0.4758  1.3536
   92MOL0     H12389   9.255   4.032   5.861  0.0552 -0.5527 -1.3428
   92MOL0     H12390   9.406   4.246   5.822 -0.0974  0.0698 -0.6753
   92MOL0     H12391   9.377   4.221   5.642  1.0943 -2.9907 -1.5174
   92MOL0     H12392   9.488   4.012   5.648 -2.9955  0.8256  0.4285
   92MOL0     H12393   9.514   4.014   5.820 -1.7235 -2.2702 -2.1536
   92MOL0     H12394   9.635   4.227   5.635  1.0695  1.5056  1.0981
   92MOL0     H12395   9.653   4.208   5.813 -0.7637 -0.0124  0.4845
   92MOL0     H12396   9.755   4.035   5.589  1.1120  0.3963  0.5031
   92MOL0     H12397   9.771   3.993   5.755  1.7119 -1.0317 -2.2695
   92MOL0     H12398   9.868   4.266   5.636  2.3967 -0.2760 -0.1271
   92MOL0     H12399   9.891   4.206   5.807 -0.0103 -0.4793 -0.4238
   92MOL0     H12400   8.908   3.774   5.372  0.9872 -1.1250  0.9535
   92MOL0     H12401   8.684   3.674   5.373 -2.6542  1.9916  0.7300
   92MOL0     H12402   8.191   3.596   5.821 -0.8467 -0.6736  0.8161
   92MOL0     H12403   7.995   3.467   5.754 -1.1001  1.2925  0.8482
   92MOL0     H12404   6.164   2.784   5.833 -0.8768  0.4769 -0.4868
   92MOL0     H12405   5.934   2.833   5.876  1.3401  0.5201 -1.3794
   92MOL0     H12406   5.588   2.627   6.094  0.5979 -0.7422  0.0969
   92MOL0     H12407   5.389   2.652   6.222 -2.5699 -0.9826 -0.3984
   92MOL0     H12408   5.175   2.794   6.312  1.3089 -1.4149  0.7623
   92MOL0     H12409   5.199   2.627   6.336  0.4489  1.1927  1.0265
   92MOL0     H12410   4.922   2.743   6.269 -1.0332 -0.0523 -0.6001
   92MOL0     H12411   4.985   2.713   6.432  3.1967  2.0365 -1.6114
   92MOL0     H12412   5.028   2.477   6.361  1.0783  2.2668  1.3860
   92MOL0     H12413   4.950   2.501   6.202 -2.2363 -0.4459  1.0664
   92MOL0     H12414   4.731   2.546   6.284 -1.5116 -1.2825  0.9199
   92MOL0     H12415   4.777   2.397   6.346 -3.8528  0.8450 -3.5110
   92MOL0     H12416   4.781   2.564   6.715  1.0701 -2.9383 -0.4378
   92MOL0     H12417   5.161   2.746   5.886 -1.5002 -0.1631  3.4972
   92MOL0     H12418   5.416   2.686   5.626  1.3829 -0.1238  1.0473
   92MOL0     H12419   5.250   2.733   5.663  1.2422  2.2133 -1.9027
   92MOL0     H12420   5.384   2.844   5.690  1.0064 -0.2477 -2.0821
   93MOL0     O12421   1.809   6.275   3.893 -0.2502  0.2930 -0.0154
   93MOL0     C12422   1.869   6.374   3.935  0.1983  0.2114  0.2148
   93MOL0     O12423   1.925   6.384   4.058 -1.2608  0.7067 -1.0454
   93MOL0     C12424   1.956   6.268   4.133 -0.1333  0.3223  0.2532
   93MOL0     C12425   1.915   6.258   4.266 -0.2206 -0.1989 -0.1629
   93MOL0     C12426   1.944   6.151   4.345 -0.6107 -0.4722 -0.1726
   93MOL0     C12427   1.991   6.034   4.287  0.3237  0.4141 -0.2486
   93MOL0     O12428   2.000   5.914   4.359 -0.5272  0.3991 -0.4161
   93MOL0     C12429   1.998   5.912   4.506  0.0306  0.5395  0.5862
   93MOL0     C12430   2.023   5.763   4.548 -0.1635  0.5218  0.1928
   93MOL0     C12431   2.050   5.737   4.693  0.9262  0.8334 -0.9242
   93MOL0     C12432   2.068   5.591   4.726  0.0511  0.0120 -0.2351
   93MOL0     C12433   2.124   5.569   4.866  0.0702  0.1911  0.3833
   93MOL0     C12434   2.155   5.419   4.884 -0.1691 -0.5969 -0.5232
   93MOL0     C12435   2.270   5.386   4.973  0.2718 -0.2143  0.3477
   93MOL0     C12436   2.396   5.420   4.905  0.3663  0.5918 -0.6600
   93MOL0     N12437   2.424   5.350   4.777  0.0392 -0.5745  0.6893
   93MOL0     C12438   2.505   5.241   4.759 -0.4283 -1.0990 -0.8134
   93MOL0     C12439   2.545   5.241   4.628  0.0871 -0.2114  0.6632
   93MOL0     C12440   2.628   5.128   4.567  0.3233 -0.0693  0.2290
   93MOL0     C12441   2.777   5.147   4.557  0.4966 -0.7478  0.4069
   93MOL0     C12442   2.850   5.021   4.520  0.0957  0.1918  0.0289
   93MOL0     C12443   3.006   5.043   4.489  0.1119 -0.1152 -0.0470
   93MOL0     O12444   3.032   5.091   4.358  0.8235  0.2271  0.4540
   93MOL0     C12445   3.148   5.155   4.329  0.1161  0.1963 -0.3667
   93MOL0     C12446   3.153   5.248   4.228  0.4041  0.2033  0.6221
   93MOL0     C12447   3.267   5.306   4.185 -0.1204 -0.2305 -0.0992
   93MOL0     C12448   3.384   5.289   4.260 -0.1246 -1.0148  0.5769
   93MOL0     C12449   3.506   5.377   4.237  0.1986 -1.4321  0.0589
   93MOL0     O12450   3.556   5.391   4.111  0.1494 -1.2848 -0.4342
   93MOL0     C12451   3.688   5.446   4.082  1.2367  1.5103 -0.1369
   93MOL0     C12452   3.753   5.381   3.971 -0.0861  0.9847  0.3301
   93MOL0     C12453   3.881   5.429   3.929 -0.4179 -0.1705 -1.0040
   93MOL0     C12454   3.941   5.543   3.996 -0.1018  0.0108  1.4829
   93MOL0     O12455   4.069   5.575   3.968  0.1206  0.0490 -0.3944
   93MOL0     C12456   4.145   5.504   3.871 -0.1209 -0.1024 -0.8464
   93MOL0     C12457   4.299   5.544   3.884 -0.2869 -0.4632  0.4873
   93MOL0     C12458   4.331   5.691   3.862  0.6185  0.2915  1.2342
   93MOL0     C12459   4.325   5.725   3.711  0.0586  0.0770  0.0369
   93MOL0     C12460   4.336   5.876   3.676 -1.0022 -0.5024  0.2619
   93MOL0     C12461   4.218   5.908   3.591 -0.7627 -0.0503 -0.0606
   93MOL0     C12462   4.232   6.050   3.535 -0.5603  0.3514 -0.1370
   93MOL0     C12463   4.371   6.062   3.457 -0.1042  0.1801  0.2722
   93MOL0    Cl12464   4.330   6.193   3.337 -0.2155  0.2704 -0.2426
   93MOL0     C12465   3.877   5.594   4.112 -0.0678  0.0323  1.3295
   93MOL0     C12466   3.744   5.552   4.149 -0.5082 -0.2096 -0.1412
   93MOL0     O12467   3.555   5.422   4.337 -0.0977 -0.2261  0.0070
   93MOL0     C12468   3.389   5.198   4.364 -0.9400 -0.2160  0.0927
   93MOL0     C12469   3.277   5.121   4.395 -0.0861 -0.0190  0.1977
   93MOL0     N12470   2.491   5.357   4.570 -0.3859  0.4632 -0.7226
   93MOL0     N12471   2.403   5.405   4.651  1.0938  0.6099 -0.0526
   93MOL0     C12472   2.022   6.028   4.155  0.2809 -0.3678  1.0938
   93MOL0     C12473   2.012   6.147   4.080 -1.2024  0.0203 -0.5890
   93MOL0     C12474   1.887   6.491   3.847  0.4532 -0.4598  0.6335
   93MOL0     C12475   2.015   6.548   3.847 -0.1514 -0.3858  0.8226
   93MOL0     C12476   2.046   6.663   3.776  0.4871 -0.2946  1.3930
   93MOL0     C12477   1.958   6.724   3.685 -0.3471 -0.9427  0.1932
   93MOL0     O12478   1.985   6.843   3.624 -0.0078 -0.3671  0.0668
   93MOL0     C12479   1.983   6.854   3.486 -0.3951 -0.2228 -0.1377
   93MOL0     C12480   2.119   6.792   3.425 -0.1530  0.3472 -0.1882
   93MOL0     C12481   2.240   6.868   3.481 -0.0302  0.1291 -0.5447
   93MOL0     C12482   2.364   6.782   3.451  0.0205  0.0021  0.1411
   93MOL0     C12483   2.487   6.858   3.479  0.0882 -0.4553  0.0070
   93MOL0     C12484   2.591   6.910   3.507 -0.4918  0.1225 -0.0938
   93MOL0     C12485   1.833   6.662   3.679 -0.0210  0.2231 -0.2801
   93MOL0     C12486   1.799   6.547   3.753  0.6735 -0.2214 -0.5506
   93MOL0     C12487   1.661   6.493   3.732 -0.3658 -0.3986 -0.5631
   93MOL0     H12488   1.876   6.348   4.313 -0.9075 -1.5015  1.8979
   93MOL0     H12489   1.919   6.163   4.450 -1.7654 -0.5045 -0.4346
   93MOL0     H12490   2.072   5.974   4.557  2.6544 -2.0881  0.2092
   93MOL0     H12491   1.893   5.937   4.527 -0.7007 -0.4416 -1.6150
   93MOL0     H12492   2.105   5.723   4.489 -0.3888 -2.6046  1.7827
   93MOL0     H12493   1.934   5.713   4.507 -0.0859  0.9244 -0.4787
   93MOL0     H12494   1.974   5.771   4.764  2.6505  6.0440 -1.1264
   93MOL0     H12495   2.145   5.784   4.719 -0.9806  3.5712  1.7793
   93MOL0     H12496   1.973   5.538   4.732 -0.1762  0.4262 -0.0824
   93MOL0     H12497   2.136   5.544   4.655  0.1787 -0.6009  0.2803
   93MOL0     H12498   2.214   5.629   4.884 -1.2298  2.2059  0.4795
   93MOL0     H12499   2.059   5.605   4.946  1.8994  0.6988  1.7229
   93MOL0     H12500   2.080   5.349   4.920  3.6960 -4.4741  0.9449
   93MOL0     H12501   2.171   5.381   4.782  1.8268 -0.2895 -0.3779
   93MOL0     H12502   2.276   5.278   4.989  0.1863  0.0767  2.5484
   93MOL0     H12503   2.258   5.445   5.064 -0.6306  2.5137 -1.4097
   93MOL0     H12504   2.395   5.529   4.899  0.2396  0.6948  0.8293
   93MOL0     H12505   2.477   5.403   4.977 -0.1135 -0.7089 -0.3911
   93MOL0     H12506   2.516   5.167   4.837 -1.9118 -2.0204 -1.4212
   93MOL0     H12507   2.610   5.033   4.617 -1.8061 -0.4514 -1.1419
   93MOL0     H12508   2.589   5.111   4.466  0.6760 -0.6459  0.1849
   93MOL0     H12509   2.787   5.226   4.483  0.5691 -0.5574  0.6204
   93MOL0     H12510   2.827   5.182   4.647  0.9175 -2.1011  0.7316
   93MOL0     H12511   2.815   4.977   4.426 -0.5129 -0.0459  0.3647
   93MOL0     H12512   2.854   4.947   4.600  2.8872  1.9501  1.6954
   93MOL0     H12513   3.057   4.946   4.492  0.6152  0.1096 -0.8793
   93MOL0     H12514   3.052   5.105   4.566 -0.0998  0.9691 -0.7721
   93MOL0     H12515   3.065   5.287   4.178  1.9556  2.1924 -0.6903
   93MOL0     H12516   3.263   5.390   4.116 -3.5121 -0.4340 -0.3358
   93MOL0     H12517   3.707   5.296   3.921 -0.8444  1.5093  0.1226
   93MOL0     H12518   3.931   5.376   3.849 -1.1530 -1.8179 -0.4134
   93MOL0     H12519   4.141   5.398   3.895  1.3792  0.2530  1.2991
   93MOL0     H12520   4.106   5.523   3.771  1.4510  1.5782 -1.2015
   93MOL0     H12521   4.333   5.525   3.986 -1.3576  1.5674  1.2822
   93MOL0     H12522   4.346   5.474   3.815 -1.8756 -0.1397 -1.0033
   93MOL0     H12523   4.254   5.747   3.915 -1.7549 -2.1784  0.5719
   93MOL0     H12524   4.429   5.719   3.904  1.0470  1.9818 -0.7590
   93MOL0     H12525   4.229   5.684   3.679  0.4901  0.1234 -1.3662
   93MOL0     H12526   4.403   5.669   3.660  0.6928 -0.7766  1.8614
   93MOL0     H12527   4.431   5.889   3.623 -2.3273 -0.3842 -2.2438
   93MOL0     H12528   4.324   5.939   3.764  0.0245 -0.7843  0.6169
   93MOL0     H12529   4.214   5.839   3.505 -1.0580 -2.8372  2.0496
   93MOL0     H12530   4.128   5.890   3.649  0.8716 -0.6526  2.4240
   93MOL0     H12531   4.236   6.122   3.616 -0.6136 -3.3014  3.4522
   93MOL0     H12532   4.144   6.076   3.475  0.4048  0.5856 -1.4792
   93MOL0     H12533   4.455   6.099   3.517  1.4038 -0.7341 -1.1833
   93MOL0     H12534   4.397   5.976   3.395 -3.6928  1.7337 -3.9067
   93MOL0     H12535   3.937   5.667   4.165  2.2390  0.4080 -1.4962
   93MOL0     H12536   3.699   5.596   4.236  2.2148 -1.3421  2.0035
   93MOL0     H12537   3.482   5.192   4.421  1.4940  1.0577 -3.3987
   93MOL0     H12538   3.283   5.045   4.473 -0.7859  0.6549  0.9283
   93MOL0     H12539   2.045   5.933   4.106  1.0704  1.3355 -2.1686
   93MOL0     H12540   2.046   6.142   3.977  2.6540 -0.0014  0.5135
   93MOL0     H12541   2.093   6.512   3.914  0.9374 -1.6243 -1.0031
   93MOL0     H12542   2.148   6.699   3.779  0.1129  0.7293  2.8717
   93MOL0     H12543   1.972   6.960   3.462 -1.0328 -0.5101 -1.1662
   93MOL0     H12544   1.899   6.807   3.435 -1.0395  1.2025 -0.4132
   93MOL0     H12545   2.119   6.817   3.319 -1.6344  1.9704  0.1485
   93MOL0     H12546   2.129   6.687   3.455  0.9721  0.7320  0.8767
   93MOL0     H12547   2.236   6.896   3.586  1.4498 -0.9727 -0.1536
   93MOL0     H12548   2.237   6.961   3.423  0.3653 -1.6286 -3.5774
   93MOL0     H12549   2.355   6.698   3.521 -3.0023  2.0939  2.5756
   93MOL0     H12550   2.364   6.736   3.352 -4.0129  1.6848 -0.8114
   93MOL0     H12551   2.677   6.971   3.527 -0.2752 -0.1364 -0.2210
   93MOL0     H12552   1.753   6.702   3.618  1.4003  1.6035 -1.3118
   93MOL0     H12553   1.590   6.533   3.806  1.2659 -0.9793  1.3993
   93MOL0     H12554   1.612   6.531   3.641  1.4385  0.2173 -1.3131
   93MOL0     H12555   1.659   6.384   3.729 -2.2330 -0.3936 -1.5262
   94MOL0     O12556   9.045   0.988   3.522  1.1594  1.4143 -0.5545
   94MOL0     C12557   9.028   0.864   3.546  0.4475 -0.2015  0.1930
   94MOL0     O12558   9.114   0.776   3.503  0.3852 -0.2787  0.4012
   94MOL0     C12559   9.225   0.810   3.427 -0.7573 -0.4672 -0.3476
   94MOL0     C12560   9.219   0.874   3.304  0.5585  0.7656 -0.3202
   94MOL0     C12561   9.326   0.891   3.221 -0.0937 -0.3242  0.0001
   94MOL0     C12562   9.454   0.851   3.274  0.3200 -0.1599 -0.0651
   94MOL0     O12563   9.566   0.870   3.196  0.4632  0.1654 -0.1838
   94MOL0     C12564   9.578   1.000   3.124  0.0123  0.5213 -0.1081
   94MOL0     C12565   9.693   0.980   3.015 -0.0152 -0.0183  1.1460
   94MOL0     C12566   9.834   0.970   3.080  0.2540  0.3935  0.0508
   94MOL0     C12567   9.954   1.022   3.001  0.4228  0.2890  0.1545
   94MOL0     C12568  10.060   1.102   3.076 -1.1343 -0.1355  1.3243
   94MOL0     C12569  10.178   1.128   2.983  0.6490  0.3040  0.3821
   94MOL0     C12570  10.269   1.244   3.035  0.4347 -0.2188 -0.6382
   94MOL0     C12571  10.204   1.386   3.031  0.3775  1.1275  0.1860
   94MOL0     N12572  10.308   1.490   3.057  0.4080  0.1924  0.6606
   94MOL0     C12573  10.423   1.484   3.138  0.3455 -0.2448  0.3520
   94MOL0     C12574  10.478   1.606   3.137  0.3353  0.4669  0.1447
   94MOL0     C12575  10.598   1.652   3.207  0.0539  0.5185 -1.1379
   94MOL0     C12576  10.722   1.624   3.127  0.2279 -0.2341  0.1580
   94MOL0     C12577  10.749   1.467   3.108 -0.5948  0.5602 -0.2421
   94MOL0     C12578  10.884   1.450   3.026  0.2700 -0.1801 -0.6544
   94MOL0     O12579  11.006   1.508   3.097  0.5806 -0.2067 -0.0183
   94MOL0     C12580  11.129   1.479   3.039  0.5409 -0.2046  0.1081
   94MOL0     C12581  11.153   1.389   2.930  0.6655 -0.7324 -0.5080
   94MOL0     C12582  11.278   1.381   2.875  0.0892  0.3946 -0.2303
   94MOL0     C12583  11.387   1.454   2.930 -0.6089 -0.5308 -0.1749
   94MOL0     C12584  11.531   1.446   2.872  0.3898  0.7677 -0.2934
   94MOL0     O12585  11.534   1.359   2.765 -0.4928  0.5663 -0.0508
   94MOL0     C12586  11.640   1.343   2.684 -0.2910  0.7290 -1.1028
   94MOL0     C12587  11.771   1.326   2.728  0.2010 -0.2103  0.2857
   94MOL0     C12588  11.878   1.311   2.642 -0.2425  0.6382 -0.0421
   94MOL0     C12589  11.842   1.301   2.507 -0.3917 -0.6281 -0.7931
   94MOL0     O12590  11.938   1.260   2.407 -0.3051  0.0592 -0.2137
   94MOL0     C12591  12.072   1.208   2.449  0.3365  0.3280  0.3345
   94MOL0     C12592  12.144   1.130   2.336  0.0689 -0.2151  0.3619
   94MOL0     C12593  12.294   1.134   2.359 -0.5334  0.1577 -0.3341
   94MOL0     C12594  12.366   1.056   2.246  0.2997 -0.2012  0.3068
   94MOL0     C12595  12.510   1.106   2.233  1.5375 -0.4935 -0.5167
   94MOL0     C12596  12.596   1.017   2.149 -0.2845 -0.7926 -0.4699
   94MOL0     C12597  12.661   0.916   2.229 -0.1196  0.2407 -0.3175
   94MOL0     C12598  12.768   0.836   2.153 -0.1932 -0.4098  0.1261
   94MOL0    Cl12599  12.917   0.927   2.160  0.4280 -0.3728 -0.1394
   94MOL0     C12600  11.720   1.329   2.462 -0.1435 -0.8464  0.0548
   94MOL0     C12601  11.615   1.360   2.553 -0.7276 -0.6197  0.4080
   94MOL0     O12602  11.618   1.507   2.922 -0.4728 -0.0238  0.1640
   94MOL0     C12603  11.367   1.543   3.033 -0.9504 -0.5203  0.1241
   94MOL0     C12604  11.239   1.559   3.075  0.2269  0.2083 -0.0900
   94MOL0     N12605  10.406   1.684   3.051 -0.0287 -0.3592 -0.9102
   94MOL0     N12606  10.306   1.612   3.003  0.0995  0.2768  0.8867
   94MOL0     C12607   9.470   0.790   3.391  0.0095 -0.3495 -0.6598
   94MOL0     C12608   9.348   0.770   3.472 -1.1419 -0.4479  0.2843
   94MOL0     C12609   8.911   0.823   3.638  0.4538  0.0589 -0.1386
   94MOL0     C12610   8.900   0.681   3.661  0.4638  0.0768  0.2298
   94MOL0     C12611   8.796   0.623   3.739  0.8614  0.8710  0.4465
   94MOL0     C12612   8.703   0.705   3.804  0.5250  0.1558  1.3716
   94MOL0     O12613   8.599   0.654   3.876  0.0167  1.0869  0.6536
   94MOL0     C12614   8.469   0.676   3.828  0.1504 -0.6750 -0.3595
   94MOL0     C12615   8.434   0.591   3.707  0.0024  0.3722 -0.6435
   94MOL0     C12616   8.482   0.635   3.573 -0.0843  0.3521 -0.1620
   94MOL0     C12617   8.480   0.520   3.470 -0.0543  1.0528  0.5621
   94MOL0     C12618   8.595   0.419   3.489 -0.4154 -0.4311 -0.3002
   94MOL0     C12619   8.691   0.344   3.498 -0.0781 -0.8170  0.0082
   94MOL0     C12620   8.720   0.849   3.792  0.0225  0.2908  0.5339
   94MOL0     C12621   8.824   0.910   3.714 -0.2145  0.5229 -0.0309
   94MOL0     C12622   8.822   1.061   3.699 -0.3007 -0.7319  0.6392
   94MOL0     H12623   9.122   0.911   3.271  0.8025 -1.0136 -3.3842
   94MOL0     H12624   9.308   0.932   3.122 -0.0679  0.3483  0.2676
   94MOL0     H12625   9.481   1.016   3.075  1.1156  0.9565 -2.2532
   94MOL0     H12626   9.590   1.091   3.182 -0.7337  0.5874 -0.0502
   94MOL0     H12627   9.702   1.075   2.962 -2.3475 -0.7127 -0.6137
   94MOL0     H12628   9.682   0.896   2.946 -1.8148  1.3326 -0.3058
   94MOL0     H12629   9.864   0.865   3.082 -1.8694 -0.2558 -0.4868
   94MOL0     H12630   9.825   1.003   3.184 -1.6952 -3.2983  1.2124
   94MOL0     H12631  10.005   0.938   2.952 -0.0609  0.0686  0.0296
   94MOL0     H12632   9.920   1.090   2.922 -0.5776 -2.7404 -2.2188
   94MOL0     H12633  10.014   1.195   3.111 -1.1178  0.0056  0.9791
   94MOL0     H12634  10.104   1.038   3.153 -0.9962  0.5451  1.8244
   94MOL0     H12635  10.233   1.034   2.966 -0.4798 -0.6328  1.7236
   94MOL0     H12636  10.137   1.166   2.889 -0.2836  1.3321  1.1826
   94MOL0     H12637  10.351   1.239   2.963  0.2811 -2.4969 -0.7191
   94MOL0     H12638  10.309   1.224   3.135 -0.6592  3.7022  0.7885
   94MOL0     H12639  10.151   1.395   2.936 -0.1837  0.3986  0.4191
   94MOL0     H12640  10.128   1.389   3.111  2.5366  2.0069  2.3273
   94MOL0     H12641  10.458   1.406   3.204  4.9583  2.1113  1.0594
   94MOL0     H12642  10.603   1.759   3.230  1.8080  0.0211  1.2849
   94MOL0     H12643  10.597   1.590   3.297 -0.4862  0.7341 -0.9926
   94MOL0     H12644  10.717   1.671   3.028  2.0736  0.5712  0.4089
   94MOL0     H12645  10.803   1.672   3.184  0.7857 -0.6435 -0.2886
   94MOL0     H12646  10.660   1.428   3.057 -1.3519  0.3776  1.1588
   94MOL0     H12647  10.763   1.418   3.205  1.2276 -0.2861 -0.8900
   94MOL0     H12648  10.877   1.494   2.926 -2.1350 -0.5127 -0.6855
   94MOL0     H12649  10.899   1.342   3.013  0.9714 -0.0406 -1.0441
   94MOL0     H12650  11.072   1.328   2.890 -0.1892  0.7642 -1.1520
   94MOL0     H12651  11.298   1.307   2.798  2.6847  1.2562 -0.5074
   94MOL0     H12652  11.786   1.295   2.831  1.6123 -2.3474 -0.4961
   94MOL0     H12653  11.976   1.294   2.684 -0.3793  1.9873  0.8932
   94MOL0     H12654  12.131   1.298   2.471  1.1594  0.2475 -1.4343
   94MOL0     H12655  12.055   1.139   2.531 -2.7996 -1.3196 -1.5294
   94MOL0     H12656  12.109   1.027   2.351  0.4973 -0.5654 -0.9031
   94MOL0     H12657  12.114   1.162   2.236  2.1468 -0.8279 -0.5230
   94MOL0     H12658  12.329   1.237   2.354  0.2039 -0.1426 -2.0778
   94MOL0     H12659  12.313   1.104   2.462  1.0873  1.7128 -0.1444
   94MOL0     H12660  12.315   1.079   2.153 -0.8311  0.3857  1.0448
   94MOL0     H12661  12.349   0.951   2.269 -1.2024  0.2232  1.2654
   94MOL0     H12662  12.549   1.100   2.335 -1.0034 -1.0087  0.5070
   94MOL0     H12663  12.506   1.209   2.198 -0.4385 -0.8994 -1.6974
   94MOL0     H12664  12.544   0.979   2.061 -1.6051  0.4060 -0.2381
   94MOL0     H12665  12.675   1.085   2.117 -0.2312  0.2091  1.5898
   94MOL0     H12666  12.583   0.844   2.256 -0.4391  0.0455 -1.6633
   94MOL0     H12667  12.711   0.962   2.314 -2.4013 -1.3944  2.0417
   94MOL0     H12668  12.785   0.744   2.210  0.9180 -3.2390 -4.2945
   94MOL0     H12669  12.733   0.802   2.055 -0.8921  1.7798 -0.4461
   94MOL0     H12670  11.712   1.320   2.354  1.3642 -0.4924 -0.0984
   94MOL0     H12671  11.517   1.375   2.509  0.0930  1.7866 -0.7773
   94MOL0     H12672  11.446   1.614   3.058 -0.4422 -0.5032 -1.4356
   94MOL0     H12673  11.216   1.644   3.138  2.4621  1.0271 -0.2944
   94MOL0     H12674   9.568   0.754   3.420  0.1502  0.8123  0.3874
   94MOL0     H12675   9.355   0.725   3.571 -0.9441 -1.0209  0.0163
   94MOL0     H12676   8.965   0.611   3.609  0.0402 -0.8798  0.9387
   94MOL0     H12677   8.785   0.516   3.756  2.0821  0.3336 -1.7421
   94MOL0     H12678   8.447   0.783   3.814 -0.5877 -0.7678  0.0094
   94MOL0     H12679   8.411   0.644   3.915 -0.0925  1.2555  0.2505
   94MOL0     H12680   8.328   0.571   3.688 -0.7202  2.8129  0.4493
   94MOL0     H12681   8.489   0.499   3.727 -2.4493 -0.8368  1.0573
   94MOL0     H12682   8.587   0.661   3.587  0.2289 -1.2058  0.6903
   94MOL0     H12683   8.422   0.722   3.546 -1.0368 -0.3284 -0.2945
   94MOL0     H12684   8.381   0.473   3.460 -0.8345  3.0047 -2.3557
   94MOL0     H12685   8.494   0.564   3.370 -0.5298  1.1210  0.5233
   94MOL0     H12686   8.773   0.277   3.515 -2.4632 -3.9226  0.3105
   94MOL0     H12687   8.645   0.908   3.842 -0.0514  0.5959  0.0697
   94MOL0     H12688   8.919   1.093   3.738 -1.1262 -1.1733  3.2368
   94MOL0     H12689   8.793   1.097   3.599 -0.8833  2.0673  1.7089
   94MOL0     H12690   8.752   1.115   3.764  1.5516  0.0700  2.0592
   95MOL0     O12691   2.258  10.948   0.093  0.3212 -0.2007  0.5907
   95MOL0     C12692   2.138  10.935   0.110  0.4577  0.4910 -0.8239
   95MOL0     O12693   2.051  11.019   0.176 -0.5580 -0.4496  1.1330
   95MOL0     C12694   2.102  11.123   0.259  0.5506 -0.5689 -0.0945
   95MOL0     C12695   2.011  11.221   0.303  0.2505 -1.1704 -0.3686
   95MOL0     C12696   2.046  11.331   0.389  0.1966 -0.0549  0.1044
   95MOL0     C12697   2.174  11.345   0.430 -0.1507  0.5430  0.3850
   95MOL0     O12698   2.219  11.446   0.509  0.0156  0.1528  0.1165
   95MOL0     C12699   2.168  11.467   0.634  0.0642  0.5074 -0.1598
   95MOL0     C12700   2.243  11.586   0.701 -0.3444 -0.2497 -0.5222
   95MOL0     C12701   2.397  11.549   0.687 -0.0731 -0.6861 -0.2232
   95MOL0     C12702   2.484  11.619   0.796 -0.4704 -0.0760 -0.2457
   95MOL0     C12703   2.630  11.560   0.781 -0.0352 -0.2983 -0.2843
   95MOL0     C12704   2.715  11.628   0.891  0.9938 -0.6970 -0.5177
   95MOL0     C12705   2.855  11.568   0.913  0.1590  0.1123  0.7655
   95MOL0     C12706   2.860  11.477   1.036  0.3469  1.0163 -0.1087
   95MOL0     N12707   2.994  11.424   1.052 -0.0879  0.2289  0.3594
   95MOL0     C12708   3.070  11.465   1.157 -0.3817 -0.4149  0.3586
   95MOL0     C12709   3.165  11.369   1.169 -0.4683  0.1985 -0.7462
   95MOL0     C12710   3.268  11.384   1.277 -0.5129  0.4931 -0.2025
   95MOL0     C12711   3.380  11.287   1.253 -0.1068 -0.2312 -0.0061
   95MOL0     C12712   3.468  11.346   1.147 -0.2946 -1.1837  0.6814
   95MOL0     C12713   3.604  11.281   1.128 -0.4608  0.1123 -0.0450
   95MOL0     O12714   3.678  11.337   1.021 -0.3582 -0.4066  0.7729
   95MOL0     C12715   3.816  11.310   1.012 -0.4805  0.2972 -0.2060
   95MOL0     C12716   3.883  11.343   0.900  0.2960 -0.4701  0.0901
   95MOL0     C12717   4.018  11.316   0.863 -0.3654  0.3016 -0.5072
   95MOL0     C12718   4.093  11.247   0.960 -0.1732 -1.1943 -0.0663
   95MOL0     C12719   4.238  11.210   0.927 -0.3051 -0.7182 -1.3756
   95MOL0     O12720   4.290  11.238   0.804  0.8435 -0.6212  0.2054
   95MOL0     C12721   4.424  11.244   0.777  0.2755 -0.2140  0.5525
   95MOL0     C12722   4.515  11.258   0.877  0.6565  0.0993  0.8244
   95MOL0     C12723   4.647  11.282   0.845  0.0998 -0.3816  0.0109
   95MOL0     C12724   4.697  11.279   0.719  0.4280 -0.3951  0.4617
   95MOL0     O12725   4.834  11.287   0.700  0.2326  0.1453  1.0445
   95MOL0     C12726   4.881  11.299   0.554 -0.3420  0.5178 -0.4069
   95MOL0     C12727   5.019  11.343   0.549  0.4419 -0.1724 -0.3761
   95MOL0     C12728   5.047  11.469   0.631  0.4484  0.0766 -1.0233
   95MOL0     C12729   5.197  11.513   0.629  0.1433  0.2842 -0.6516
   95MOL0     C12730   5.276  11.447   0.742  0.6681 -0.4273 -0.5022
   95MOL0     C12731   5.342  11.546   0.844  0.1813 -0.0448  0.2464
   95MOL0     C12732   5.460  11.476   0.912 -0.1706  0.2674 -0.0214
   95MOL0     C12733   5.559  11.575   0.971 -0.9887 -0.4246  0.8161
   95MOL0    Cl12734   5.722  11.511   0.949 -0.1463  0.2312 -0.0540
   95MOL0     C12735   4.604  11.261   0.612  0.3945  0.3845  0.0305
   95MOL0     C12736   4.464  11.249   0.636 -0.7810  0.4582 -1.1993
   95MOL0     O12737   4.301  11.144   1.011 -0.3300  0.2419  0.2323
   95MOL0     C12738   4.034  11.208   1.087 -0.4320  0.0991 -0.4693
   95MOL0     C12739   3.892  11.239   1.106  0.3804  0.7188 -0.7687
   95MOL0     N12740   3.139  11.268   1.081 -0.4081  0.2227  0.1074
   95MOL0     N12741   3.039  11.298   1.012  0.2632  0.2555  0.2316
   95MOL0     C12742   2.267  11.240   0.407  0.4686 -0.7164  0.1456
   95MOL0     C12743   2.228  11.135   0.324 -0.0460  0.2229  0.7313
   95MOL0     C12744   2.070  10.813   0.053  0.2523  0.2187  0.7100
   95MOL0     C12745   1.928  10.809   0.050  0.3111 -0.3226 -0.8602
   95MOL0     C12746   1.856  10.705  -0.003  0.1608  0.5539  0.5021
   95MOL0     C12747   1.913  10.597  -0.056  0.5597  0.3550  0.1877
   95MOL0     O12748   1.830  10.502  -0.100  0.4910 -0.3642  0.7415
   95MOL0     C12749   1.886  10.376  -0.145  0.2948 -0.5609  0.0930
   95MOL0     C12750   1.774  10.281  -0.161  0.1009  0.9875 -0.9254
   95MOL0     C12751   1.687  10.272  -0.032 -0.3618 -0.3916  0.3480
   95MOL0     C12752   1.739  10.167   0.071 -0.4585  0.4546 -0.0747
   95MOL0     C12753   1.854  10.208   0.156 -0.2423 -0.5152  0.3243
   95MOL0     C12754   1.939  10.230   0.236  0.2818 -0.3130  0.2162
   95MOL0     C12755   2.053  10.589  -0.040 -0.2877 -0.6132  0.0244
   95MOL0     C12756   2.131  10.696   0.005  1.1351 -0.7877  0.2274
   95MOL0     C12757   2.281  10.665   0.016  0.6120 -0.0673 -0.0010
   95MOL0     H12758   1.909  11.213   0.266  0.5228 -1.5413 -1.0505
   95MOL0     H12759   1.980  11.414   0.415  1.3737  0.5828  1.1382
   95MOL0     H12760   2.059  11.473   0.643 -0.4799 -2.4186 -2.8286
   95MOL0     H12761   2.186  11.377   0.692  0.8704 -0.3594 -1.6804
   95MOL0     H12762   2.219  11.611   0.805  0.9921 -0.7090 -0.0857
   95MOL0     H12763   2.206  11.682   0.664  2.3173  2.2825  2.7192
   95MOL0     H12764   2.437  11.597   0.597  0.4336  0.6230  0.6709
   95MOL0     H12765   2.418  11.441   0.687  1.0069 -0.5378 -2.4245
   95MOL0     H12766   2.474  11.728   0.789 -1.4801 -0.1918 -0.6675
   95MOL0     H12767   2.459  11.585   0.897  0.3822  0.8559  0.3117
   95MOL0     H12768   2.642  11.455   0.807  2.4685 -0.1661 -0.7388
   95MOL0     H12769   2.664  11.582   0.679  1.5662  4.1886  0.9749
   95MOL0     H12770   2.711  11.731   0.855 -1.5864 -0.6815 -0.3977
   95MOL0     H12771   2.652  11.629   0.980  1.8440  1.4812  0.1278
   95MOL0     H12772   2.924  11.651   0.929 -3.5865  3.6036  0.3875
   95MOL0     H12773   2.890  11.515   0.824  0.6689 -2.5219  2.4039
   95MOL0     H12774   2.837  11.537   1.125 -0.2433  1.0419 -0.2786
   95MOL0     H12775   2.784  11.399   1.033  0.8054  0.5493  0.1635
   95MOL0     H12776   3.063  11.552   1.222  1.2670  0.9364 -1.1767
   95MOL0     H12777   3.303  11.487   1.280 -0.3632  0.4280  0.3176
   95MOL0     H12778   3.236  11.362   1.379 -0.4480 -0.2725 -0.3409
   95MOL0     H12779   3.441  11.281   1.344  2.2793  0.2226 -1.4738
   95MOL0     H12780   3.354  11.187   1.217  0.3498  1.0296 -4.4176
   95MOL0     H12781   3.493  11.451   1.167 -2.5597  0.0982 -2.4407
   95MOL0     H12782   3.417  11.344   1.051  1.0059  2.0422 -0.2248
   95MOL0     H12783   3.597  11.174   1.112 -0.6756 -0.5218  3.4153
   95MOL0     H12784   3.666  11.286   1.218  2.1523 -0.0874 -1.7449
   95MOL0     H12785   3.825  11.402   0.828  2.3483 -0.1921 -1.4302
   95MOL0     H12786   4.059  11.338   0.765 -1.6050 -3.1188 -1.9478
   95MOL0     H12787   4.497  11.240   0.982 -0.7793 -2.3027  0.2499
   95MOL0     H12788   4.712  11.275   0.932  1.5371 -1.8412 -1.1051
   95MOL0     H12789   4.882  11.209   0.493 -1.1743  0.3856 -0.2358
   95MOL0     H12790   4.824  11.376   0.500  1.7192  0.5485 -2.7440
   95MOL0     H12791   5.083  11.261   0.583  0.1669 -0.5231 -0.6836
   95MOL0     H12792   5.033  11.359   0.442 -2.9972 -1.7302 -1.2054
   95MOL0     H12793   4.983  11.550   0.594  0.7693  1.5419  1.3470
   95MOL0     H12794   5.015  11.452   0.735 -0.2273 -0.2279 -1.2740
   95MOL0     H12795   5.211  11.621   0.634  1.1701  0.1448  3.4731
   95MOL0     H12796   5.242  11.491   0.532  0.0081 -1.9305 -0.2766
   95MOL0     H12797   5.363  11.397   0.699  1.1608 -1.0119  1.0856
   95MOL0     H12798   5.225  11.371   0.802  2.7626  0.8388  3.1800
   95MOL0     H12799   5.381  11.627   0.782  0.7798 -0.8473 -0.4491
   95MOL0     H12800   5.268  11.590   0.912 -0.9316 -1.0827 -0.2602
   95MOL0     H12801   5.512  11.401   0.852  0.2688  0.8273 -0.3561
   95MOL0     H12802   5.423  11.422   0.999  1.4978 -0.7630  0.1000
   95MOL0     H12803   5.541  11.669   0.918 -1.7855 -2.0815 -2.0953
   95MOL0     H12804   5.555  11.605   1.076 -2.5921  0.7795  0.4514
   95MOL0     H12805   4.627  11.283   0.508  1.6557  0.6391  0.3442
   95MOL0     H12806   4.387  11.234   0.561 -3.7514  0.7292  1.5525
   95MOL0     H12807   4.089  11.169   1.171  0.4851  1.1186 -0.5787
   95MOL0     H12808   3.841  11.196   1.191  0.6267  0.6703 -0.6436
   95MOL0     H12809   2.366  11.242   0.454  1.0161 -0.4480 -0.9919
   95MOL0     H12810   2.303  11.058   0.309 -2.1078 -1.9436  1.1230
   95MOL0     H12811   1.869  10.895   0.078  2.5666  0.9709  0.1615
   95MOL0     H12812   1.749  10.716  -0.020 -0.0331  0.1050  1.3794
   95MOL0     H12813   1.965  10.342  -0.077  0.1285 -1.1336  0.0057
   95MOL0     H12814   1.939  10.387  -0.240  0.1810 -1.1370 -0.0413
   95MOL0     H12815   1.816  10.181  -0.175 -1.4408  0.1833 -0.0758
   95MOL0     H12816   1.707  10.303  -0.244  2.7423 -1.9683 -4.1704
   95MOL0     H12817   1.594  10.221  -0.057 -0.2718 -1.5245  2.1521
   95MOL0     H12818   1.685  10.370   0.015  2.4912  2.3869 -4.5137
   95MOL0     H12819   1.655  10.138   0.134 -1.3371 -1.8274 -2.1249
   95MOL0     H12820   1.761  10.070   0.025  1.0517  1.4153 -1.4723
   95MOL0     H12821   2.019  10.251   0.304  1.0067 -0.5757 -0.5413
   95MOL0     H12822   2.108  10.498  -0.062 -2.4143 -2.5156  2.0679
   95MOL0     H12823   2.315  10.594  -0.061 -0.8805 -0.5521 -0.2446
   95MOL0     H12824   2.331  10.759  -0.008 -1.2197  1.1147  0.6523
   95MOL0     H12825   2.315  10.628   0.113  0.4319  0.6115  0.3242
   96MOL0     O12826   0.874   4.192   1.261  0.0459  0.0310 -0.2110
   96MOL0     C12827   0.907   4.167   1.379 -0.0272 -0.3951  0.0711
   96MOL0     O12828   0.821   4.159   1.483 -0.2208 -0.0283  0.1469
   96MOL0     C12829   0.683   4.144   1.453 -0.1181  1.6250 -0.0126
   96MOL0     C12830   0.626   4.047   1.362  0.8501  0.5497  0.2053
   96MOL0     C12831   0.495   4.034   1.336  0.4294  0.3439 -0.7639
   96MOL0     C12832   0.403   4.118   1.399  0.8515 -0.0305  1.1595
   96MOL0     O12833   0.262   4.113   1.376 -0.3202 -0.6354 -0.3904
   96MOL0     C12834   0.241   4.144   1.239  0.3662  0.6919  0.2306
   96MOL0     C12835   0.086   4.163   1.244  0.2952 -0.8151 -0.7219
   96MOL0     C12836   0.037   4.219   1.113 -0.2136 -0.0950  0.5901
   96MOL0     C12837   0.058   4.123   0.997  0.4475 -0.2621 -0.1761
   96MOL0     C12838   0.005   4.184   0.868  0.2343  0.2184 -0.2632
   96MOL0     C12839   0.092   4.144   0.747 -0.2046 -0.5189  0.7914
   96MOL0     C12840   0.019   4.124   0.616  0.0800 -0.3964 -0.2227
   96MOL0     C12841   0.097   4.089   0.485  0.3882 -0.1160 -0.6743
   96MOL0     N12842   0.018   4.035   0.377  0.0305  0.6080  0.4119
   96MOL0     C12843   0.068   3.939   0.280  0.4557 -0.9243  0.2513
   96MOL0     C12844  -0.036   3.926   0.195 -0.0178  0.0848  0.1799
   96MOL0     C12845  -0.054   3.828   0.079 -0.2904 -0.3209  0.8593
   96MOL0     C12846   0.067   3.742   0.046 -0.4146  0.1780 -0.2512
   96MOL0     C12847   0.027   3.618  -0.040  0.0188 -0.6786  0.7341
   96MOL0     C12848   0.154   3.551  -0.104  0.5694 -0.0147 -0.5974
   96MOL0     O12849   0.220   3.489   0.001 -0.7440  1.0779  0.3386
   96MOL0     C12850   0.351   3.505  -0.003  0.0116 -0.9795 -0.2799
   96MOL0     C12851   0.432   3.433  -0.097 -0.3722 -0.6729  0.8403
   96MOL0     C12852   0.566   3.431  -0.083 -0.0660 -0.7735 -0.3524
   96MOL0     C12853   0.633   3.491   0.033 -0.0778  0.1494 -0.0563
   96MOL0     C12854   0.780   3.468   0.067  0.0268 -0.1001 -0.2573
   96MOL0     O12855   0.828   3.526   0.183  0.0602 -0.2437  0.6707
   96MOL0     C12856   0.961   3.555   0.202  0.4875 -0.3633 -0.3610
   96MOL0     C12857   0.987   3.676   0.269  0.5356 -0.9154 -1.0071
   96MOL0     C12858   1.119   3.713   0.291  0.1960 -0.1321  0.3879
   96MOL0     C12859   1.221   3.634   0.251  0.0917  0.5032 -0.2495
   96MOL0     O12860   1.345   3.674   0.289 -0.4377  0.2803  0.0373
   96MOL0     C12861   1.465   3.605   0.241 -0.6292  0.3879 -0.1208
   96MOL0     C12862   1.490   3.635   0.097 -0.4210 -0.0323  0.5136
   96MOL0     C12863   1.565   3.524   0.031 -0.4552  0.3063 -0.3328
   96MOL0     C12864   1.569   3.536  -0.122 -0.3867 -0.2859  1.0236
   96MOL0     C12865   1.651   3.409  -0.171  0.9201  0.8250  0.0598
   96MOL0     C12866   1.796   3.430  -0.211 -0.1031  0.4516  0.1706
   96MOL0     C12867   1.816   3.473  -0.350  0.4203  0.3877  0.0337
   96MOL0     C12868   1.954   3.439  -0.411 -0.2779  0.2183 -0.2859
   96MOL0    Cl12869   2.084   3.524  -0.313  0.4608 -0.2076 -0.3678
   96MOL0     C12870   1.190   3.516   0.182  0.4426  0.3020  0.5857
   96MOL0     C12871   1.062   3.472   0.165 -0.1132 -0.3958 -0.7799
   96MOL0     O12872   0.845   3.396  -0.009  0.0982 -0.1613  0.8063
   96MOL0     C12873   0.544   3.553   0.127  0.1277  0.5685  0.1283
   96MOL0     C12874   0.412   3.562   0.106 -0.3550  0.2097 -0.0269
   96MOL0     N12875  -0.140   4.013   0.232 -0.0359 -0.1189  0.2466
   96MOL0     N12876  -0.099   4.076   0.334 -0.1328 -0.6210 -0.1396
   96MOL0     C12877   0.453   4.208   1.497  0.3673 -0.1746 -0.3912
   96MOL0     C12878   0.598   4.222   1.519  0.6332 -0.4198 -0.0312
   96MOL0     C12879   1.054   4.182   1.412  0.1731 -0.2119  0.1513
   96MOL0     C12880   1.136   4.235   1.315  0.8875  0.0797 -0.6456
   96MOL0     C12881   1.278   4.246   1.330  0.4514  0.6802  0.5564
   96MOL0     C12882   1.336   4.223   1.457  0.3515 -0.7978 -0.4917
   96MOL0     O12883   1.467   4.252   1.461  0.2213  0.3448  0.0300
   96MOL0     C12884   1.544   4.186   1.565 -0.4194  0.1525  0.1952
   96MOL0     C12885   1.675   4.263   1.583  0.1140 -0.8023  0.5477
   96MOL0     C12886   1.764   4.180   1.683  0.3027  0.1391 -0.7566
   96MOL0     C12887   1.897   4.258   1.711 -0.8518 -0.5376  0.1070
   96MOL0     C12888   1.991   4.182   1.792  0.7202 -0.0061 -0.4462
   96MOL0     C12889   2.074   4.134   1.864  1.2978  0.1625 -1.2788
   96MOL0     C12890   1.256   4.166   1.553  0.2295 -1.4262 -0.1054
   96MOL0     C12891   1.116   4.133   1.533  0.3743 -0.0563  0.0635
   96MOL0     C12892   1.045   4.051   1.646  0.2098 -0.8256 -0.2907
   96MOL0     H12893   0.698   3.999   1.296 -0.8972 -0.9370 -0.7153
   96MOL0     H12894   0.465   3.951   1.273  5.4238 -1.0623 -1.6700
   96MOL0     H12895   0.301   4.226   1.199  1.2913 -1.1164 -2.3309
   96MOL0     H12896   0.260   4.055   1.180 -1.2474  0.7914 -0.4812
   96MOL0     H12897   0.069   4.241   1.319  0.1574 -0.2015 -1.3810
   96MOL0     H12898   0.025   4.078   1.275  0.5468 -1.0052 -0.7489
   96MOL0     H12899   0.088   4.314   1.092  1.2393 -1.1216 -0.8451
   96MOL0     H12900  -0.070   4.234   1.127 -0.1744  1.0278 -0.1481
   96MOL0     H12901   0.167   4.116   0.994  0.7849  1.8829  2.7271
   96MOL0     H12902   0.031   4.020   1.023 -1.2260 -0.1014 -1.1007
   96MOL0     H12903  -0.094   4.140   0.849  0.3109 -1.0252  1.8314
   96MOL0     H12904  -0.008   4.292   0.872 -1.6293  0.0028  0.4558
   96MOL0     H12905   0.153   4.233   0.730 -2.2831  1.0635  1.1928
   96MOL0     H12906   0.158   4.064   0.781  1.3374  0.7553  0.8717
   96MOL0     H12907  -0.043   4.214   0.611  0.5289  0.1413  2.5015
   96MOL0     H12908  -0.048   4.037   0.617  1.1040 -1.2073 -0.0262
   96MOL0     H12909   0.154   4.174   0.449 -2.6844  1.8462 -1.2139
   96MOL0     H12910   0.160   4.010   0.529 -1.8058 -4.0949 -3.9747
   96MOL0     H12911   0.172   3.912   0.265  2.0792  3.2951  2.4113
   96MOL0     H12912  -0.140   3.764   0.103 -2.8013  2.2343 -0.6437
   96MOL0     H12913  -0.083   3.885  -0.010  1.0518 -1.0877 -0.1064
   96MOL0     H12914   0.144   3.803  -0.002 -0.5082 -0.1335 -0.7968
   96MOL0     H12915   0.109   3.702   0.139  0.1033 -2.0351 -1.3675
   96MOL0     H12916  -0.049   3.650  -0.112 -0.5257  1.9334  2.3174
   96MOL0     H12917  -0.023   3.541   0.020  0.4976 -2.7800 -1.4290
   96MOL0     H12918   0.211   3.631  -0.152 -0.7316  3.2767  2.8479
   96MOL0     H12919   0.119   3.476  -0.176  1.5285  0.1424 -1.2412
   96MOL0     H12920   0.400   3.369  -0.178  0.8345  0.9113 -0.9993
   96MOL0     H12921   0.624   3.390  -0.165  2.2257 -0.9861  1.2777
   96MOL0     H12922   0.896   3.725   0.304 -0.0472 -3.0954  0.8174
   96MOL0     H12923   1.141   3.802   0.349  2.4934  0.9848 -2.0283
   96MOL0     H12924   1.547   3.645   0.302 -0.7295  0.1277  0.1875
   96MOL0     H12925   1.464   3.496   0.254 -1.3432  0.3430 -0.5207
   96MOL0     H12926   1.403   3.661   0.036  1.9984  3.0972 -1.9774
   96MOL0     H12927   1.559   3.719   0.092 -1.0590  0.4659 -3.1969
   96MOL0     H12928   1.666   3.527   0.071 -1.2563 -0.9257  1.9814
   96MOL0     H12929   1.521   3.430   0.066 -0.6996  0.2215 -0.8627
   96MOL0     H12930   1.598   3.637  -0.151 -0.5979  0.0173  1.8249
   96MOL0     H12931   1.469   3.523  -0.166 -0.2265  2.0400 -0.1675
   96MOL0     H12932   1.596   3.351  -0.245 -2.2329  1.3024  1.8452
   96MOL0     H12933   1.641   3.336  -0.090  1.2382  0.3133 -0.3518
   96MOL0     H12934   1.838   3.501  -0.139  1.3896 -0.5460  0.3335
   96MOL0     H12935   1.851   3.336  -0.198  1.4572  1.4504  1.2275
   96MOL0     H12936   1.811   3.581  -0.363 -2.6656  0.3330  0.1968
   96MOL0     H12937   1.735   3.435  -0.414  0.7349  0.4543 -0.4125
   96MOL0     H12938   1.977   3.333  -0.425 -0.0904  0.1297  0.6300
   96MOL0     H12939   1.951   3.480  -0.512 -1.4418 -0.7359 -0.6567
   96MOL0     H12940   1.259   3.447   0.134 -0.8824 -0.2635 -0.5438
   96MOL0     H12941   1.047   3.381   0.107  0.4442 -1.3260  0.4827
   96MOL0     H12942   0.596   3.599   0.210 -1.4218  1.5164  0.5938
   96MOL0     H12943   0.351   3.610   0.182  2.1685  0.8860  1.6888
   96MOL0     H12944   0.387   4.275   1.551  2.1023  0.1351  1.4544
   96MOL0     H12945   0.633   4.299   1.587 -1.9130 -1.1763  2.2704
   96MOL0     H12946   1.096   4.276   1.222  0.7350 -1.5198 -1.3204
   96MOL0     H12947   1.325   4.285   1.240  0.1394 -1.5012 -0.6138
   96MOL0     H12948   1.566   4.081   1.544  3.2837  0.7828  0.2786
   96MOL0     H12949   1.482   4.189   1.655 -1.4235 -3.2826 -0.2292
   96MOL0     H12950   1.657   4.358   1.634 -1.9612 -0.9866  0.2433
   96MOL0     H12951   1.726   4.278   1.488 -2.1335 -1.4164 -0.8249
   96MOL0     H12952   1.783   4.082   1.639  1.1933  0.4045 -0.9714
   96MOL0     H12953   1.715   4.161   1.780  1.7698  0.3420  0.0553
   96MOL0     H12954   1.938   4.295   1.617 -0.4208  1.6220  1.0861
   96MOL0     H12955   1.880   4.358   1.752  2.0349  0.8201 -1.6654
   96MOL0     H12956   2.156   4.091   1.918 -0.2082  0.3290  1.2924
   96MOL0     H12957   1.304   4.149   1.649  0.9631  0.2622 -0.1237
   96MOL0     H12958   0.959   3.990   1.617 -0.2440 -0.1408 -0.4252
   96MOL0     H12959   1.102   3.971   1.693 -0.4249 -1.3293 -0.3766
   96MOL0     H12960   1.015   4.126   1.720  0.3306  0.0387 -1.0924
   97MOL0     O12961   1.460   7.440   8.429  0.6287  0.5420  0.9892
   97MOL0     C12962   1.367   7.520   8.431  0.0887  0.1266 -0.6776
   97MOL0     O12963   1.382   7.653   8.469  0.2726 -0.0541 -0.0040
   97MOL0     C12964   1.501   7.712   8.498 -0.5408  0.8951 -0.5438
   97MOL0     C12965   1.496   7.824   8.580  0.1412  0.4899  0.2421
   97MOL0     C12966   1.611   7.907   8.609 -0.0886 -0.1085 -0.2085
   97MOL0     C12967   1.731   7.877   8.539  0.0024 -1.0143  0.2777
   97MOL0     O12968   1.826   7.976   8.534  0.6167 -0.3150  0.4683
   97MOL0     C12969   1.879   8.000   8.403  0.6219 -0.4250 -0.6595
   97MOL0     C12970   1.971   8.129   8.409  0.2069  0.0795 -0.0892
   97MOL0     C12971   2.072   8.150   8.527 -0.0795  0.5977  0.7017
   97MOL0     C12972   2.122   8.290   8.524  0.0594 -0.0709 -0.3804
   97MOL0     C12973   2.213   8.315   8.648 -0.1588  0.4194  0.2675
   97MOL0     C12974   2.248   8.461   8.645 -0.3884 -0.2346 -0.0589
   97MOL0     C12975   2.290   8.505   8.785 -0.2937  0.7875  0.3015
   97MOL0     C12976   2.352   8.644   8.774  0.3468 -0.3638 -0.0853
   97MOL0     N12977   2.250   8.738   8.729  0.5890  0.0232  0.1542
   97MOL0     C12978   2.148   8.786   8.801  0.1357  0.1539 -0.3685
   97MOL0     C12979   2.070   8.859   8.717 -0.2628 -0.5922 -0.5944
   97MOL0     C12980   1.935   8.903   8.744  0.0623 -0.7286  0.9466
   97MOL0     C12981   1.842   8.801   8.690 -0.6484 -0.2793  0.5506
   97MOL0     C12982   1.833   8.677   8.777 -0.1198 -0.7916  0.1120
   97MOL0     C12983   1.715   8.585   8.748  0.9781  0.1156  0.5646
   97MOL0     O12984   1.715   8.564   8.601  0.0988  0.4213  0.2566
   97MOL0     C12985   1.621   8.462   8.572  0.0164 -0.6548  0.4603
   97MOL0     C12986   1.499   8.435   8.639 -0.8305 -0.7218  0.0238
   97MOL0     C12987   1.428   8.319   8.602  0.6189 -0.5301 -0.0316
   97MOL0     C12988   1.456   8.235   8.493 -0.0748 -0.0464  0.1753
   97MOL0     C12989   1.371   8.122   8.459  0.4138  0.1389  0.0397
   97MOL0     O12990   1.413   8.063   8.337  0.2757 -0.5529  0.3763
   97MOL0     C12991   1.345   7.974   8.256  0.2502 -0.0131  0.9284
   97MOL0     C12992   1.423   7.897   8.164  0.1879  0.8341 -0.2855
   97MOL0     C12993   1.360   7.814   8.071 -0.1704  0.9855  0.0054
   97MOL0     C12994   1.218   7.816   8.042  0.7677 -0.8462 -0.0339
   97MOL0     O12995   1.163   7.737   7.946 -0.2125 -0.0373 -0.7203
   97MOL0     C12996   1.018   7.746   7.941 -0.0666  0.2027  0.5261
   97MOL0     C12997   0.976   7.674   7.813 -0.1158  0.1478 -0.4868
   97MOL0     C12998   0.830   7.670   7.790  0.4784 -1.0559  0.2044
   97MOL0     C12999   0.789   7.575   7.673 -0.3194  0.5895  0.2723
   97MOL0     C13000   0.643   7.566   7.639  0.2082  0.9007  0.4556
   97MOL0     C13001   0.574   7.492   7.748 -0.1727 -0.1675 -0.1834
   97MOL0     C13002   0.425   7.459   7.709  0.7308 -0.1061  0.2296
   97MOL0     C13003   0.340   7.487   7.826 -0.1796  0.9607  0.1230
   97MOL0    Cl13004   0.178   7.499   7.768  0.1967 -0.0288  0.0144
   97MOL0     C13005   1.150   7.893   8.137  0.5828  0.4332  0.2620
   97MOL0     C13006   1.210   7.955   8.247 -0.1530 -0.2143  1.5983
   97MOL0     O13007   1.271   8.087   8.524  0.4188 -0.1817  0.5570
   97MOL0     C13008   1.574   8.265   8.425  0.0207 -0.0044  0.6739
   97MOL0     C13009   1.649   8.382   8.458  0.2140  0.3043 -0.7476
   97MOL0     N13010   2.131   8.857   8.597 -0.4909 -0.6940 -0.0039
   97MOL0     N13011   2.239   8.786   8.596 -0.6365 -0.2065 -0.2162
   97MOL0     C13012   1.736   7.758   8.467  0.4062 -0.1512 -0.0093
   97MOL0     C13013   1.627   7.674   8.444 -0.1807  0.8420 -0.8784
   97MOL0     C13014   1.245   7.468   8.368  0.0081  0.3351 -0.1483
   97MOL0     C13015   1.161   7.567   8.309  0.3441  0.5923  0.4265
   97MOL0     C13016   1.042   7.522   8.244  0.0063  0.5658  0.1756
   97MOL0     C13017   1.005   7.389   8.245 -0.1198  1.1556  0.5383
   97MOL0     O13018   0.887   7.353   8.174 -0.0922  0.2570 -0.4334
   97MOL0     C13019   0.871   7.224   8.111  0.6488 -0.5088  0.7720
   97MOL0     C13020   0.771   7.248   7.995 -1.0783 -0.1888  0.1575
   97MOL0     C13021   0.686   7.117   7.974  0.2433 -0.3613  0.2410
   97MOL0     C13022   0.775   6.992   7.958 -0.7217  0.0449  0.6294
   97MOL0     C13023   0.689   6.871   7.937  0.2341 -0.1465 -0.8725
   97MOL0     C13024   0.630   6.767   7.921 -0.1364 -0.7850  0.3704
   97MOL0     C13025   1.082   7.292   8.318 -0.3095  0.1340  0.2789
   97MOL0     C13026   1.198   7.332   8.383 -0.0402 -0.7879  1.8992
   97MOL0     C13027   1.286   7.228   8.444  0.0444  0.0210 -0.0463
   97MOL0     H13028   1.403   7.872   8.609  0.4544  1.8534 -0.9006
   97MOL0     H13029   1.590   7.999   8.663 -1.4126 -1.2556  1.3356
   97MOL0     H13030   1.948   7.916   8.388  2.8158  0.8884  1.2810
   97MOL0     H13031   1.798   8.010   8.331 -1.6111  0.0319  1.7835
   97MOL0     H13032   1.908   8.218   8.411  1.1278  0.7334  0.6698
   97MOL0     H13033   2.027   8.128   8.315  1.0647  1.2274  0.3801
   97MOL0     H13034   2.152   8.079   8.506  0.7342  1.3042  1.3502
   97MOL0     H13035   2.027   8.115   8.620  0.8453 -2.6571  0.0510
   97MOL0     H13036   2.177   8.298   8.430 -0.7000  3.9740 -0.6531
   97MOL0     H13037   2.042   8.365   8.523  2.5163  2.8055  1.5090
   97MOL0     H13038   2.167   8.285   8.743 -1.1823 -1.8794 -0.8529
   97MOL0     H13039   2.309   8.265   8.634  1.3634  3.9352 -4.2507
   97MOL0     H13040   2.329   8.474   8.573 -0.3750  3.4737  0.4639
   97MOL0     H13041   2.171   8.525   8.603 -0.4967 -2.0985 -2.9635
   97MOL0     H13042   2.373   8.441   8.816  1.5901  2.5705 -0.7626
   97MOL0     H13043   2.208   8.503   8.857 -3.0047 -0.4787 -2.6345
   97MOL0     H13044   2.388   8.679   8.871  0.1491  1.0182 -0.4866
   97MOL0     H13045   2.438   8.649   8.707  0.8109 -0.1507  0.5136
   97MOL0     H13046   2.124   8.771   8.906 -0.2550 -0.9616 -0.6104
   97MOL0     H13047   1.910   8.920   8.849 -1.0117 -0.1114  0.6042
   97MOL0     H13048   1.930   8.999   8.692  1.6838 -0.4924  1.1719
   97MOL0     H13049   1.740   8.840   8.687 -0.5667 -0.1201 -0.2115
   97MOL0     H13050   1.870   8.782   8.586  0.9664 -0.2637  0.9620
   97MOL0     H13051   1.843   8.711   8.881 -1.3098  3.8393 -1.0585
   97MOL0     H13052   1.925   8.622   8.754 -0.1217 -0.3172 -1.0810
   97MOL0     H13053   1.620   8.635   8.770  0.4349  0.7681 -2.7262
   97MOL0     H13054   1.716   8.495   8.811 -0.3894  1.2431  2.3016
   97MOL0     H13055   1.481   8.491   8.730  2.0460  1.8490 -0.8462
   97MOL0     H13056   1.343   8.278   8.655 -0.8552  1.0371 -1.0872
   97MOL0     H13057   1.530   7.911   8.172  0.3571  0.7565 -2.0249
   97MOL0     H13058   1.424   7.750   8.010 -0.7554  2.3763 -2.1586
   97MOL0     H13059   0.967   7.695   8.022 -0.1971 -1.6819 -0.6904
   97MOL0     H13060   0.992   7.851   7.924  3.7249  1.1027 -0.6756
   97MOL0     H13061   1.026   7.703   7.720  0.4642 -1.0888 -0.5803
   97MOL0     H13062   1.001   7.569   7.832 -4.5481 -0.7130  2.1920
   97MOL0     H13063   0.778   7.647   7.883  0.1577  1.2873  0.6552
   97MOL0     H13064   0.799   7.773   7.768  3.9905 -0.1358 -1.0558
   97MOL0     H13065   0.829   7.475   7.691 -0.7733  0.7838  2.6503
   97MOL0     H13066   0.845   7.612   7.587 -0.8758  2.9949  0.8546
   97MOL0     H13067   0.626   7.512   7.546  1.1530 -0.7647  1.2111
   97MOL0     H13068   0.611   7.669   7.620  0.3947  0.8650 -0.0596
   97MOL0     H13069   0.629   7.401   7.774 -2.8013 -1.3374  1.7420
   97MOL0     H13070   0.572   7.550   7.841 -2.9311  0.9981 -0.8581
   97MOL0     H13071   0.401   7.359   7.673 -0.6904 -0.0318  0.9154
   97MOL0     H13072   0.389   7.519   7.624  3.2702 -1.8903 -2.3011
   97MOL0     H13073   0.340   7.401   7.894 -1.2074  0.0808 -0.9212
   97MOL0     H13074   0.369   7.576   7.882  2.7739  0.0921  0.1420
   97MOL0     H13075   1.042   7.894   8.137  0.5760 -0.0449  0.0383
   97MOL0     H13076   1.155   8.024   8.309 -1.5720 -1.1791  1.4704
   97MOL0     H13077   1.600   8.217   8.331 -2.2663 -1.0523  0.4916
   97MOL0     H13078   1.736   8.422   8.407  1.5684 -1.5363 -0.0033
   97MOL0     H13079   1.830   7.726   8.423  2.0185  4.6423 -0.6152
   97MOL0     H13080   1.639   7.583   8.386 -0.7917 -1.2541  2.0663
   97MOL0     H13081   1.173   7.673   8.285  1.8170  0.5749  0.9647
   97MOL0     H13082   0.973   7.598   8.209 -0.2929  1.2479  2.1187
   97MOL0     H13083   0.822   7.148   8.172 -3.5713  0.1302 -1.4120
   97MOL0     H13084   0.963   7.193   8.063 -0.7074 -1.2749 -1.4757
   97MOL0     H13085   0.827   7.270   7.904 -1.3771  0.4446  0.1182
   97MOL0     H13086   0.698   7.325   8.025 -1.3031 -0.8022  1.2519
   97MOL0     H13087   0.615   7.133   7.893 -1.4513 -0.3549  1.6771
   97MOL0     H13088   0.622   7.112   8.062  1.2475  4.0371  1.4823
   97MOL0     H13089   0.850   7.001   7.878 -2.3610 -0.3952 -1.0291
   97MOL0     H13090   0.833   6.983   8.051 -1.3399  3.4132  1.4634
   97MOL0     H13091   0.563   6.691   7.885 -1.2237  1.2750 -2.4037
   97MOL0     H13092   1.058   7.186   8.312 -1.1883  0.1642  2.3212
   97MOL0     H13093   1.364   7.198   8.374  0.1948 -0.5934  0.3813
   97MOL0     H13094   1.325   7.259   8.541 -0.3844  3.3414 -0.7920
   97MOL0     H13095   1.219   7.145   8.466  0.6247 -0.1439  1.1364
   98MOL0     O13096   0.954   1.612   3.243 -0.2572 -0.0794  0.4049
   98MOL0     C13097   0.888   1.559   3.158 -0.6295 -0.0507 -0.1207
   98MOL0     O13098   0.934   1.525   3.034 -0.6237  0.9249 -0.9434
   98MOL0     C13099   1.067   1.524   3.003  0.7966  0.5614 -0.8836
   98MOL0     C13100   1.128   1.399   2.991 -0.1570 -0.4662  0.2185
   98MOL0     C13101   1.258   1.395   2.941 -0.2861  0.0528 -0.2660
   98MOL0     C13102   1.329   1.509   2.922 -0.8596  0.0370 -0.1415
   98MOL0     O13103   1.458   1.492   2.866  0.0619 -1.4090 -0.2536
   98MOL0     C13104   1.569   1.584   2.891  0.7046  0.3433  0.3507
   98MOL0     C13105   1.676   1.552   2.783  0.1184 -0.5825 -0.2236
   98MOL0     C13106   1.762   1.432   2.813  0.1227  0.6505 -0.1140
   98MOL0     C13107   1.883   1.435   2.723 -0.7165  0.4653  0.3985
   98MOL0     C13108   1.986   1.327   2.743  0.1732  0.1977 -0.3072
   98MOL0     C13109   2.114   1.358   2.668 -0.4360  1.0335  0.3444
   98MOL0     C13110   2.232   1.255   2.662  0.1032  0.3571 -0.6300
   98MOL0     C13111   2.281   1.221   2.805  0.1993  0.2181  0.7226
   98MOL0     N13112   2.425   1.187   2.805  0.4458  0.3996 -0.0537
   98MOL0     C13113   2.484   1.059   2.809  0.1352  1.0318  0.0264
   98MOL0     C13114   2.618   1.077   2.838  0.0791 -0.5493  0.3694
   98MOL0     C13115   2.715   0.959   2.822  0.6428 -0.4256  0.1419
   98MOL0     C13116   2.859   0.994   2.866  0.2218  0.0706 -0.0390
   98MOL0     C13117   2.897   0.952   3.011  0.0452 -0.1579 -0.1402
   98MOL0     C13118   2.907   1.075   3.105  0.1717 -0.0741 -0.4884
   98MOL0     O13119   3.017   1.153   3.053 -0.2942  0.8427 -0.1597
   98MOL0     C13120   3.068   1.262   3.123  0.2432  0.3665  0.4560
   98MOL0     C13121   3.027   1.314   3.243 -0.3448 -0.2972  0.3542
   98MOL0     C13122   3.083   1.433   3.298 -0.0449  0.3114  0.1740
   98MOL0     C13123   3.195   1.503   3.226 -0.6032  0.5881 -0.6792
   98MOL0     C13124   3.255   1.627   3.280 -0.0019 -0.1129  0.0282
   98MOL0     O13125   3.379   1.659   3.226  0.0051  0.7508  0.6410
   98MOL0     C13126   3.423   1.775   3.280 -0.2500 -0.2532  0.1791
   98MOL0     C13127   3.479   1.776   3.407 -0.1194 -0.3819 -0.7631
   98MOL0     C13128   3.525   1.891   3.456 -0.3322 -0.1053  0.4458
   98MOL0     C13129   3.534   2.010   3.380 -0.5961  0.5440  0.3798
   98MOL0     O13130   3.587   2.119   3.438 -0.4515  0.4216 -0.0020
   98MOL0     C13131   3.540   2.257   3.400 -0.5329  0.0124  0.4977
   98MOL0     C13132   3.548   2.352   3.513  0.5103 -0.2104  0.5662
   98MOL0     C13133   3.409   2.366   3.582 -0.3501 -0.7310 -0.9200
   98MOL0     C13134   3.436   2.444   3.716 -0.4583 -0.0304  0.2078
   98MOL0     C13135   3.318   2.448   3.815  0.1856  0.1438 -0.6676
   98MOL0     C13136   3.172   2.457   3.770  0.3224 -0.2284 -0.0740
   98MOL0     C13137   3.129   2.560   3.673  0.4359 -0.8250  0.7191
   98MOL0     C13138   2.987   2.612   3.701  0.5007 -1.0757 -0.2029
   98MOL0    Cl13139   2.872   2.487   3.682 -0.2558 -0.2754 -0.3762
   98MOL0     C13140   3.487   2.001   3.247 -0.6746  0.2918  0.2138
   98MOL0     C13141   3.426   1.891   3.195 -0.5738  0.3141 -0.7822
   98MOL0     O13142   3.193   1.685   3.369 -0.1299  0.1232  0.0198
   98MOL0     C13143   3.245   1.441   3.118 -0.2772  0.6592  0.0821
   98MOL0     C13144   3.181   1.323   3.064 -0.7168 -0.2727 -0.3369
   98MOL0     N13145   2.642   1.213   2.851  0.1150  0.3592  0.4634
   98MOL0     N13146   2.528   1.268   2.850 -0.4803 -0.3908 -0.0503
   98MOL0     C13147   1.270   1.638   2.931 -0.2145  0.4903  0.4736
   98MOL0     C13148   1.135   1.641   2.969  0.8686  0.1956 -0.4517
   98MOL0     C13149   0.746   1.526   3.175  0.9819  0.7077  0.4176
   98MOL0     C13150   0.710   1.516   3.309  0.1658 -0.2145  0.6254
   98MOL0     C13151   0.581   1.462   3.340 -0.6423 -0.6267  0.2558
   98MOL0     C13152   0.493   1.413   3.254  0.6447 -0.4132 -0.6421
   98MOL0     O13153   0.382   1.359   3.309 -0.2922 -0.1513 -0.7467
   98MOL0     C13154   0.252   1.378   3.245  0.0482 -0.4367  0.3492
   98MOL0     C13155   0.152   1.302   3.342  0.9987 -0.0841  0.0435
   98MOL0     C13156   0.007   1.345   3.316  0.0178  0.7465 -0.3373
   98MOL0     C13157  -0.069   1.313   3.445  0.0963  0.5428 -0.3294
   98MOL0     C13158  -0.205   1.356   3.417  0.0010  0.3875 -1.0351
   98MOL0     C13159  -0.320   1.381   3.381 -0.5449 -0.2394  1.0245
   98MOL0     C13160   0.520   1.443   3.121 -0.9940 -1.0363  0.6040
   98MOL0     C13161   0.648   1.492   3.078 -0.1683  0.0875  0.2952
   98MOL0     C13162   0.673   1.511   2.925  0.0779 -0.5144  0.1068
   98MOL0     H13163   1.073   1.308   3.014 -1.6747 -0.1907 -2.0286
   98MOL0     H13164   1.303   1.298   2.923  1.3261  1.0775 -2.1714
   98MOL0     H13165   1.529   1.686   2.890  0.9449  0.4638 -1.5146
   98MOL0     H13166   1.611   1.552   2.987 -1.7592  0.1502  1.4539
   98MOL0     H13167   1.741   1.639   2.770 -2.7696  2.0856  1.6694
   98MOL0     H13168   1.620   1.522   2.694 -1.2375 -5.5661  1.9601
   98MOL0     H13169   1.700   1.342   2.800  2.6839 -0.8825 -3.3917
   98MOL0     H13170   1.789   1.437   2.919 -1.8817 -0.4315  0.5107
   98MOL0     H13171   1.860   1.433   2.616  0.1512 -4.2486  0.1115
   98MOL0     H13172   1.934   1.532   2.728  1.8182 -0.4255 -3.6385
   98MOL0     H13173   2.011   1.327   2.849 -1.8634 -0.0812  0.2100
   98MOL0     H13174   1.949   1.228   2.714 -1.1639 -0.0792  2.0805
   98MOL0     H13175   2.082   1.377   2.565 -1.3719  0.7583  0.5719
   98MOL0     H13176   2.149   1.455   2.703  0.6954  2.8621 -4.8778
   98MOL0     H13177   2.311   1.297   2.599  0.5819  1.4765  0.6543
   98MOL0     H13178   2.200   1.159   2.622  1.8112 -0.2910 -0.5306
   98MOL0     H13179   2.271   1.308   2.870 -1.0610  0.2232  0.5532
   98MOL0     H13180   2.226   1.134   2.843  0.7240 -0.4454 -0.0073
   98MOL0     H13181   2.456   0.962   2.770  3.5081  0.0186 -0.2160
   98MOL0     H13182   2.681   0.881   2.892 -0.1114  0.5564  0.8986
   98MOL0     H13183   2.708   0.914   2.722  2.0774  1.3569 -0.8206
   98MOL0     H13184   2.927   0.949   2.793  0.8303  3.9119 -2.0902
   98MOL0     H13185   2.883   1.099   2.846  1.2062  0.2113  1.6547
   98MOL0     H13186   2.985   0.887   3.020  1.2921  1.3492 -0.8801
   98MOL0     H13187   2.820   0.889   3.055 -3.4017  3.7455  0.0283
   98MOL0     H13188   2.936   1.027   3.198  0.2648 -0.8823 -0.9262
   98MOL0     H13189   2.812   1.129   3.098 -0.0178 -0.5829 -4.7268
   98MOL0     H13190   2.942   1.262   3.286  1.0541 -4.5359 -1.3883
   98MOL0     H13191   3.046   1.477   3.390  1.3964 -1.0517  1.4678
   98MOL0     H13192   3.489   1.693   3.476  2.1822  1.6161  1.5668
   98MOL0     H13193   3.569   1.890   3.556  1.3972  0.1288 -0.2729
   98MOL0     H13194   3.619   2.278   3.328 -0.0970  0.8674  1.2154
   98MOL0     H13195   3.444   2.251   3.347 -1.3870 -2.7462  2.1453
   98MOL0     H13196   3.618   2.312   3.587 -1.0578 -1.1973  1.5871
   98MOL0     H13197   3.583   2.450   3.480  0.3659 -1.0374 -2.2531
   98MOL0     H13198   3.334   2.423   3.527 -1.5540 -0.7272  0.6480
   98MOL0     H13199   3.359   2.270   3.597 -2.0808  0.5696  2.6349
   98MOL0     H13200   3.446   2.546   3.676 -1.2008 -0.6595 -1.6939
   98MOL0     H13201   3.523   2.406   3.769 -0.3417 -2.3736 -1.4913
   98MOL0     H13202   3.331   2.537   3.877  1.6961 -0.5564  0.0717
   98MOL0     H13203   3.319   2.361   3.881 -0.2262  0.7370  0.1389
   98MOL0     H13204   3.132   2.358   3.746  0.7280 -0.5490  0.5427
   98MOL0     H13205   3.117   2.471   3.864 -0.3729 -1.0403 -0.3474
   98MOL0     H13206   3.124   2.522   3.571 -0.9159  0.8102  0.1156
   98MOL0     H13207   3.202   2.641   3.686  0.9190 -1.6617  3.9608
   98MOL0     H13208   2.984   2.630   3.809 -1.7234 -1.3085 -0.1853
   98MOL0     H13209   2.952   2.702   3.650 -0.4322 -0.3053  1.7239
   98MOL0     H13210   3.506   2.083   3.179  1.2321  0.1437  0.5384
   98MOL0     H13211   3.369   1.896   3.103 -3.4183 -0.5508  0.8222
   98MOL0     H13212   3.336   1.485   3.078  1.4134 -0.2774  2.6553
   98MOL0     H13213   3.227   1.264   2.985  2.1822  1.1233  0.1788
   98MOL0     H13214   1.329   1.727   2.910  1.9035 -1.0844 -0.4640
   98MOL0     H13215   1.070   1.728   2.966  1.7234  0.9109  0.8956
   98MOL0     H13216   0.780   1.547   3.386  0.5762 -0.0777  0.1990
   98MOL0     H13217   0.560   1.433   3.442 -0.3143 -1.6639  0.0415
   98MOL0     H13218   0.252   1.337   3.143 -0.3962  1.8315 -0.6197
   98MOL0     H13219   0.233   1.485   3.238 -1.5456 -0.8009 -3.8997
   98MOL0     H13220   0.184   1.320   3.445  1.8922 -2.8086  0.3085
   98MOL0     H13221   0.154   1.194   3.327 -0.8564 -0.2480  0.7003
   98MOL0     H13222  -0.037   1.295   3.228 -1.1100  2.5627 -0.8539
   98MOL0     H13223   0.000   1.453   3.299 -2.2119  0.3010 -3.1776
   98MOL0     H13224  -0.057   1.208   3.476 -0.2014  0.5609 -0.1521
   98MOL0     H13225  -0.018   1.357   3.531  0.3704 -2.4518  1.2103
   98MOL0     H13226  -0.423   1.392   3.351 -0.0917  0.0489 -0.4903
   98MOL0     H13227   0.440   1.420   3.050 -2.2086 -0.5197  1.7652
   98MOL0     H13228   0.586   1.481   2.867  0.9023 -1.7408 -0.5424
   98MOL0     H13229   0.689   1.618   2.906  1.6132 -0.5787  0.8382
   98MOL0     H13230   0.754   1.450   2.884 -0.8176 -2.0531  0.5573
   99MOL0     O13231   9.001   3.785   9.802 -0.5417  0.2087 -0.1714
   99MOL0     C13232   8.960   3.695   9.735 -0.4675  0.4308  0.7511
   99MOL0     O13233   9.028   3.634   9.633 -0.2356 -0.0823  0.5879
   99MOL0     C13234   9.153   3.678   9.604  0.4101  0.4422 -0.0904
   99MOL0     C13235   9.263   3.633   9.678  0.2114  0.5294  0.0027
   99MOL0     C13236   9.392   3.668   9.637 -0.0480 -0.3402 -0.0733
   99MOL0     C13237   9.412   3.768   9.540 -0.4561 -0.0846 -0.0318
   99MOL0     O13238   9.535   3.818   9.517 -0.0251 -0.2631 -0.1043
   99MOL0     C13239   9.639   3.788   9.622  0.4991 -0.5574  0.0860
   99MOL0     C13240   9.768   3.871   9.596 -0.3832 -0.5332  0.0680
   99MOL0     C13241   9.875   3.859   9.702 -0.2559  0.2423  1.4092
   99MOL0     C13242   9.819   3.902   9.836  0.3510  0.6863 -0.0665
   99MOL0     C13243   9.926   3.942   9.944  0.8219 -0.3450  0.6724
   99MOL0     C13244   9.870   3.928  10.083 -0.2684 -0.6505 -0.7916
   99MOL0     C13245   9.969   3.982  10.187  1.4043  0.1136  0.6458
   99MOL0     C13246  10.100   3.929  10.218 -1.2810 -0.5598  0.0698
   99MOL0     N13247  10.097   3.784  10.260  0.3470 -0.1886 -0.1248
   99MOL0     C13248  10.032   3.743  10.373  0.4491  0.0757  1.4560
   99MOL0     C13249  10.035   3.607  10.372 -0.9812 -0.4686 -0.5082
   99MOL0     C13250   9.983   3.515  10.476  0.0931  0.3030 -0.0738
   99MOL0     C13251  10.061   3.389  10.505  0.0689  0.5663  0.3125
   99MOL0     C13252  10.174   3.412  10.610  0.5593 -0.3859  0.7165
   99MOL0     C13253  10.267   3.289  10.627  0.3723 -0.4038 -0.4305
   99MOL0     O13254  10.199   3.164  10.653 -0.8720 -0.1411 -0.3454
   99MOL0     C13255  10.266   3.051  10.625 -1.2475 -0.0658  0.8635
   99MOL0     C13256  10.283   3.025  10.482  0.5151  0.1130  0.4771
   99MOL0     C13257  10.342   2.908  10.437 -0.4682 -0.1026  0.9841
   99MOL0     C13258  10.402   2.818  10.526 -0.0226 -0.5285  0.2990
   99MOL0     C13259  10.465   2.693  10.480  0.4879 -0.7540  0.3417
   99MOL0     O13260  10.552   2.631  10.564  0.2386 -0.3035  1.0399
   99MOL0     C13261  10.620   2.526  10.514  1.0420  0.6895 -0.6155
   99MOL0     C13262  10.560   2.403  10.486  0.4288  0.7854  0.4477
   99MOL0     C13263  10.638   2.289  10.447 -0.1368 -0.0170  0.2985
   99MOL0     C13264  10.782   2.311  10.430  0.0994 -0.0844 -0.3164
   99MOL0     O13265  10.868   2.215  10.388 -0.5739 -0.3673 -0.5430
   99MOL0     C13266  10.839   2.078  10.442  0.8723 -0.6738 -0.2729
   99MOL0     C13267  10.918   1.980  10.361 -0.6139 -0.2384  0.0111
   99MOL0     C13268  11.064   2.000  10.400 -0.0430  1.0702  0.8294
   99MOL0     C13269  11.140   1.879  10.327 -0.0561 -0.4457 -0.0592
   99MOL0     C13270  11.293   1.889  10.336 -0.3670 -0.8544 -0.2544
   99MOL0     C13271  11.353   1.747  10.305 -0.5139  0.4845 -0.0847
   99MOL0     C13272  11.504   1.776  10.283  0.9608  0.2120 -0.4480
   99MOL0     C13273  11.581   1.649  10.261 -0.1067  0.0141 -0.5155
   99MOL0    Cl13274  11.753   1.673  10.302  0.0179  0.1025  0.0519
   99MOL0     C13275  10.836   2.437  10.452 -0.6269  0.5528 -0.5246
   99MOL0     C13276  10.758   2.537  10.492  0.2615 -0.2943 -0.2149
   99MOL0     O13277  10.436   2.662  10.361 -0.2146 -0.3510  0.6690
   99MOL0     C13278  10.388   2.839  10.665  0.0569 -1.1952  0.9245
   99MOL0     C13279  10.312   2.949  10.707 -0.9704 -0.7509  0.1696
   99MOL0     N13280  10.113   3.566  10.258 -0.0420 -0.4048 -0.3284
   99MOL0     N13281  10.141   3.680  10.191  0.2378  0.4542  0.5853
   99MOL0     C13282   9.303   3.812   9.462  0.1647 -0.9515 -0.2686
   99MOL0     C13283   9.179   3.756   9.489  0.6044  0.9675 -0.3054
   99MOL0     C13284   8.830   3.640   9.767 -0.9284 -0.1343 -0.4398
   99MOL0     C13285   8.807   3.499   9.765  0.3760  1.0665 -0.0696
   99MOL0     C13286   8.683   3.442   9.803 -0.7864 -1.0695  0.3061
   99MOL0     C13287   8.578   3.531   9.836 -0.4591  1.0098 -0.5756
   99MOL0     O13288   8.462   3.473   9.874 -0.2619  0.7226 -0.1347
   99MOL0     C13289   8.337   3.541   9.870  0.1229 -0.7982 -0.3595
   99MOL0     C13290   8.215   3.441   9.873 -0.1528 -0.4523 -0.3409
   99MOL0     C13291   8.169   3.395   9.732 -0.1537 -0.5435 -0.3511
   99MOL0     C13292   8.277   3.340   9.638  0.2124 -0.1255 -0.1881
   99MOL0     C13293   8.336   3.216   9.691 -0.3289 -0.4569  0.2527
   99MOL0     C13294   8.370   3.104   9.711  1.4463  0.4405  0.1667
   99MOL0     C13295   8.596   3.669   9.834  0.5537 -0.1689 -0.5756
   99MOL0     C13296   8.720   3.725   9.807 -0.1344 -0.2899  1.0877
   99MOL0     C13297   8.732   3.874   9.789 -1.0500  0.1032  0.2456
   99MOL0     H13298   9.244   3.573   9.766  2.0576 -2.0067 -1.2074
   99MOL0     H13299   9.470   3.644   9.709  2.2372 -0.3041 -2.3795
   99MOL0     H13300   9.606   3.813   9.723  1.3144  1.9023 -0.1744
   99MOL0     H13301   9.663   3.682   9.619  0.1522 -0.7044  1.8601
   99MOL0     H13302   9.739   3.976   9.591  0.5011 -0.1012  2.5844
   99MOL0     H13303   9.809   3.851   9.497  1.0255  0.4323  0.4331
   99MOL0     H13304   9.965   3.910   9.665 -0.8071 -0.1337 -0.5402
   99MOL0     H13305   9.902   3.753   9.707 -0.5912 -0.0974 -1.9700
   99MOL0     H13306   9.749   3.985   9.823 -2.1352 -1.2740 -0.0888
   99MOL0     H13307   9.761   3.815   9.869  0.1936  0.1132 -1.7307
   99MOL0     H13308  10.008   3.869   9.940 -0.6882 -2.1109  0.2407
   99MOL0     H13309   9.954   4.045   9.922 -1.3436 -0.0794 -1.3100
   99MOL0     H13310   9.782   3.991  10.097  0.1565 -0.4228  1.1511
   99MOL0     H13311   9.841   3.824  10.101 -1.6420  0.0193  1.2033
   99MOL0     H13312   9.911   3.974  10.279  0.9349 -0.3561  0.3136
   99MOL0     H13313   9.975   4.087  10.158 -0.9713 -0.1396 -1.0611
   99MOL0     H13314  10.170   3.934  10.133 -0.7120 -0.5063  0.5317
   99MOL0     H13315  10.145   3.990  10.296 -2.3025 -0.1019  0.3121
   99MOL0     H13316   9.973   3.809  10.436 -2.3839 -0.3646 -0.5752
   99MOL0     H13317   9.967   3.564  10.572  2.5105 -2.7746  2.0798
   99MOL0     H13318   9.884   3.481  10.445  0.4948 -1.1730  0.2122
   99MOL0     H13319   9.986   3.315  10.536  0.7527  0.2794  1.3365
   99MOL0     H13320  10.102   3.353  10.411 -0.9849  1.1257 -0.3859
   99MOL0     H13321  10.125   3.432  10.705  0.8922 -0.4388  0.8983
   99MOL0     H13322  10.231   3.500  10.580 -0.0464 -1.4056 -4.4640
   99MOL0     H13323  10.325   3.315  10.716 -1.2404  0.6179  0.3670
   99MOL0     H13324  10.335   3.282  10.542  0.3804  1.7797 -0.6609
   99MOL0     H13325  10.235   3.095  10.414 -2.2947 -0.5840  1.6057
   99MOL0     H13326  10.343   2.891  10.329  1.0413 -1.3082  1.1546
   99MOL0     H13327  10.454   2.384  10.494  0.6504 -1.1623 -0.4669
   99MOL0     H13328  10.585   2.199  10.419 -1.5390  0.4913  1.2294
   99MOL0     H13329  10.865   2.081  10.548 -0.5636  3.7933  0.1497
   99MOL0     H13330  10.735   2.047  10.435  0.9881 -0.8907 -1.1374
   99MOL0     H13331  10.887   1.881  10.395 -0.4165  0.1358  1.3532
   99MOL0     H13332  10.913   2.003  10.254  0.5229  2.9068  0.5233
   99MOL0     H13333  11.107   2.092  10.361 -3.8359  1.7676 -2.4108
   99MOL0     H13334  11.099   1.996  10.503  0.8107 -1.4782  0.5205
   99MOL0     H13335  11.094   1.871  10.228  0.1232 -3.6182  0.0019
   99MOL0     H13336  11.112   1.794  10.390  3.4728 -1.8369 -0.1068
   99MOL0     H13337  11.328   1.934  10.429  1.4021 -0.4676 -1.0574
   99MOL0     H13338  11.327   1.952  10.253 -0.5055 -1.7197 -0.9802
   99MOL0     H13339  11.342   1.681  10.391 -0.2825 -0.4121 -0.7359
   99MOL0     H13340  11.310   1.701  10.216 -0.8448  0.4354  0.1013
   99MOL0     H13341  11.549   1.826  10.369  1.6017 -2.5475  0.9279
   99MOL0     H13342  11.521   1.837  10.194  0.0602 -0.0953 -0.8478
   99MOL0     H13343  11.550   1.572  10.333  0.8898  2.7864  3.1774
   99MOL0     H13344  11.562   1.623  10.157  1.5163  2.4639 -1.5137
   99MOL0     H13345  10.940   2.459  10.429 -0.4734  0.1111 -0.2639
   99MOL0     H13346  10.812   2.626  10.522 -0.7700 -0.1680  1.3725
   99MOL0     H13347  10.415   2.763  10.737  0.0709 -0.8299  1.3118
   99MOL0     H13348  10.286   2.960  10.812  0.3600 -1.1390  0.5595
   99MOL0     H13349   9.318   3.877   9.377 -2.3059  0.0224 -0.0463
   99MOL0     H13350   9.095   3.782   9.425  0.3315 -2.0723 -1.3574
   99MOL0     H13351   8.889   3.435   9.734 -0.1010  0.7162 -0.6423
   99MOL0     H13352   8.669   3.335   9.790 -1.7873 -0.7884 -1.3440
   99MOL0     H13353   8.324   3.607   9.784 -2.5921  0.0702  0.6150
   99MOL0     H13354   8.318   3.608   9.954  1.3252 -1.9476  0.8980
   99MOL0     H13355   8.131   3.485   9.928  1.5955 -1.2948  3.3577
   99MOL0     H13356   8.249   3.350   9.922 -0.3348 -0.2511  0.1676
   99MOL0     H13357   8.112   3.472   9.679  0.2845 -0.4312 -0.6704
   99MOL0     H13358   8.100   3.311   9.743 -0.0582 -0.6162 -0.3013
   99MOL0     H13359   8.219   3.319   9.548 -0.9811  1.3049  0.1973
   99MOL0     H13360   8.349   3.415   9.603  0.1886 -0.1758 -0.3460
   99MOL0     H13361   8.404   3.002   9.719  2.3504  0.6531 -0.7974
   99MOL0     H13362   8.510   3.734   9.845  1.2412  1.0783 -2.0924
   99MOL0     H13363   8.797   3.911   9.869  0.4385 -0.9828 -0.4232
   99MOL0     H13364   8.781   3.902   9.696 -0.6957 -0.0442  0.3881
   99MOL0     H13365   8.632   3.919   9.780 -0.3097  1.4588 -1.9908
  100MOL0     O13366   2.640   0.407   9.329  1.0143  1.0143  0.1934
  100MOL0     C13367   2.563   0.327   9.267 -0.4152 -0.0301  0.0228
  100MOL0     O13368   2.607   0.236   9.170 -0.3368  0.0146 -0.1074
  100MOL0     C13369   2.742   0.220   9.172  0.6455 -0.3963 -0.0911
  100MOL0     C13370   2.836   0.302   9.103 -0.0344  0.1032 -0.9478
  100MOL0     C13371   2.971   0.274   9.104 -0.0408 -0.8629 -0.2075
  100MOL0     C13372   3.022   0.155   9.176 -1.1210 -0.9004 -0.1641
  100MOL0     O13373   3.157   0.122   9.169 -0.4436  0.1332  0.2167
  100MOL0     C13374   3.258   0.214   9.120 -1.0525 -0.2031  0.9162
  100MOL0     C13375   3.400   0.158   9.140  0.2308 -0.2049  0.1400
  100MOL0     C13376   3.441   0.141   9.281  0.0071 -0.1986  0.5183
  100MOL0     C13377   3.592   0.091   9.299  0.5995  1.0164 -0.4806
  100MOL0     C13378   3.650   0.084   9.439 -0.2438  0.3754 -0.8492
  100MOL0     C13379   3.803   0.038   9.439 -0.8942  0.3435  0.4864
  100MOL0     C13380   3.875  -0.012   9.569  0.5455 -0.8484  0.0754
  100MOL0     C13381   3.833  -0.163   9.602  0.4266 -0.6386 -0.3256
  100MOL0     N13382   3.898  -0.209   9.724 -0.0055  0.3475 -0.1633
  100MOL0     C13383   4.020  -0.271   9.731 -1.1490  0.6362 -0.9709
  100MOL0     C13384   4.034  -0.315   9.858  0.2749  0.4793 -0.9996
  100MOL0     C13385   4.159  -0.379   9.917 -0.1208 -0.5094  0.5546
  100MOL0     C13386   4.266  -0.274   9.930  0.1103 -0.8852 -0.3122
  100MOL0     C13387   4.409  -0.335   9.919  0.8332  0.1418 -0.2849
  100MOL0     C13388   4.521  -0.247   9.961 -0.3874 -0.4468 -0.0426
  100MOL0     O13389   4.502  -0.193  10.097  0.0332  0.4747 -0.1276
  100MOL0     C13390   4.612  -0.183  10.171 -0.4610  0.6910  0.3853
  100MOL0     C13391   4.581  -0.220  10.302 -0.4684 -0.5944 -0.1591
  100MOL0     C13392   4.685  -0.209  10.389  1.2013  0.3834 -0.0623
  100MOL0     C13393   4.820  -0.179  10.352 -0.6313 -0.2488 -0.7437
  100MOL0     C13394   4.934  -0.174  10.447 -0.2986 -0.5171  0.2095
  100MOL0     O13395   5.059  -0.177  10.396  0.5886 -0.1538  0.2635
  100MOL0     C13396   5.166  -0.178  10.477 -0.6016 -0.1532 -0.0204
  100MOL0     C13397   5.244  -0.066  10.531  0.2297  0.6492  0.0247
  100MOL0     C13398   5.367  -0.089  10.589 -0.5605  0.5590 -0.5403
  100MOL0     C13399   5.409  -0.221  10.620 -0.0969 -0.0887  0.5624
  100MOL0     O13400   5.529  -0.254  10.680 -0.0831  0.0660  0.2825
  100MOL0     C13401   5.604  -0.151  10.744  0.5439  0.1176  0.0139
  100MOL0     C13402   5.743  -0.219  10.777  0.3460 -0.4472  0.4617
  100MOL0     C13403   5.724  -0.338  10.882  0.7637 -0.5648  0.5155
  100MOL0     C13404   5.850  -0.418  10.895  0.8426  0.3280 -0.1332
  100MOL0     C13405   5.836  -0.561  10.832  0.4464 -0.4267 -0.5459
  100MOL0     C13406   5.976  -0.614  10.840 -0.3167  0.8253 -0.1197
  100MOL0     C13407   6.013  -0.722  10.741  0.1461 -0.0135  0.2946
  100MOL0     C13408   6.054  -0.672  10.606 -0.0160  0.3169 -0.5398
  100MOL0    Cl13409   6.071  -0.812  10.495  0.2044  0.2414  0.4285
  100MOL0     C13410   5.331  -0.327  10.574 -0.0341  0.6021 -0.6873
  100MOL0     C13411   5.208  -0.304  10.515  0.1098  0.2086  0.4794
  100MOL0     O13412   4.904  -0.176  10.565  0.3523  0.6508 -0.2551
  100MOL0     C13413   4.850  -0.136  10.221  0.0126  0.4478  0.2984
  100MOL0     C13414   4.741  -0.135  10.131  0.7437 -0.0202 -0.7853
  100MOL0     N13415   3.929  -0.272   9.930 -0.1293 -0.3668 -0.3447
  100MOL0     N13416   3.843  -0.218   9.853  0.1011 -0.1398  0.1956
  100MOL0     C13417   2.930   0.072   9.237  0.0317 -1.2109 -0.7050
  100MOL0     C13418   2.793   0.102   9.238 -0.3756 -0.3704 -0.2827
  100MOL0     C13419   2.412   0.341   9.287  0.3034 -0.5246 -0.1220
  100MOL0     C13420   2.362   0.445   9.364 -0.6551  0.3570 -1.5673
  100MOL0     C13421   2.227   0.463   9.378 -1.1416  0.0069 -0.0658
  100MOL0     C13422   2.134   0.387   9.307  1.1356  0.3242 -0.6741
  100MOL0     O13423   1.989   0.399   9.328 -0.0578 -0.0541  0.1018
  100MOL0     C13424   1.938   0.476   9.433 -0.2990  0.3201 -0.3785
  100MOL0     C13425   1.794   0.444   9.467 -0.6251 -0.5296  0.6308
  100MOL0     C13426   1.784   0.318   9.531 -0.1940 -0.0505  0.4047
  100MOL0     C13427   1.685   0.316   9.646  0.3886 -0.2161  0.0255
  100MOL0     C13428   1.544   0.359   9.622 -0.8235 -0.5171  0.2794
  100MOL0     C13429   1.436   0.407   9.590 -0.0231 -0.2428  0.1951
  100MOL0     C13430   2.177   0.283   9.223 -0.3564  0.0810  0.8560
  100MOL0     C13431   2.317   0.253   9.221 -0.0044  0.1451 -0.3939
  100MOL0     C13432   2.352   0.140   9.123 -0.0546  0.5130  0.7029
  100MOL0     H13433   2.789   0.384   9.050 -0.6627  0.7596  0.5574
  100MOL0     H13434   3.040   0.332   9.044 -2.8285 -1.7334 -4.7519
  100MOL0     H13435   3.232   0.209   9.014  0.7467  0.6589  0.4014
  100MOL0     H13436   3.248   0.310   9.172 -2.6079 -0.0690  0.4196
  100MOL0     H13437   3.481   0.213   9.091  1.2916 -1.0867  0.8546
  100MOL0     H13438   3.398   0.055   9.103  1.0318 -0.5957  1.1304
  100MOL0     H13439   3.373   0.069   9.328 -0.9842 -0.2822 -0.9502
  100MOL0     H13440   3.439   0.236   9.334  2.1285  0.8274 -1.1304
  100MOL0     H13441   3.605  -0.008   9.256  0.4158  0.2132  1.2222
  100MOL0     H13442   3.643   0.168   9.240 -0.3214  1.9291 -0.1152
  100MOL0     H13443   3.627   0.173   9.499 -1.0365  0.3415 -1.0836
  100MOL0     H13444   3.595   0.016   9.505  1.8989 -0.0464  0.6062
  100MOL0     H13445   3.822  -0.045   9.372  2.3233 -0.6212  2.3568
  100MOL0     H13446   3.862   0.118   9.392 -2.2460 -0.4886 -2.9008
  100MOL0     H13447   3.846   0.049   9.655 -1.8485 -2.6332  0.6432
  100MOL0     H13448   3.984  -0.010   9.555  0.6784 -2.3605  0.6035
  100MOL0     H13449   3.725  -0.177   9.612  0.5662 -2.1670 -0.7249
  100MOL0     H13450   3.847  -0.225   9.513 -1.3360  1.5487 -2.2869
  100MOL0     H13451   4.082  -0.294   9.645 -1.4270 -0.3078 -0.9330
  100MOL0     H13452   4.139  -0.431  10.011  3.0110 -2.4322  0.2842
  100MOL0     H13453   4.196  -0.439   9.834 -0.2374  1.9821 -1.4411
  100MOL0     H13454   4.256  -0.192   9.859  0.0367 -1.4700 -0.9865
  100MOL0     H13455   4.259  -0.237  10.033  0.9521 -1.3614 -0.0788
  100MOL0     H13456   4.434  -0.354   9.814 -0.5548  1.8541 -0.9796
  100MOL0     H13457   4.420  -0.427   9.977 -1.7798 -0.2019 -0.1959
  100MOL0     H13458   4.539  -0.175   9.880  2.5704 -2.7039 -1.5801
  100MOL0     H13459   4.606  -0.315   9.957 -2.7046 -3.5449  0.2679
  100MOL0     H13460   4.479  -0.250  10.328 -1.3287  1.5277 -0.8942
  100MOL0     H13461   4.667  -0.246  10.489  1.4632 -1.3327 -0.6336
  100MOL0     H13462   5.219   0.036  10.503  0.6965  0.2933 -1.8487
  100MOL0     H13463   5.432  -0.009  10.620  4.5421 -2.9286 -0.9869
  100MOL0     H13464   5.628  -0.080  10.665  3.2349 -3.7268 -3.0419
  100MOL0     H13465   5.554  -0.106  10.830  1.2869 -0.6033  0.8527
  100MOL0     H13466   5.791  -0.256  10.686 -0.1822  1.4062 -0.6320
  100MOL0     H13467   5.799  -0.134  10.818 -4.1484  1.9226  2.4389
  100MOL0     H13468   5.713  -0.290  10.980  0.3766  0.9533 -0.2359
  100MOL0     H13469   5.634  -0.395  10.855  0.3524  1.5893 -3.4065
  100MOL0     H13470   5.881  -0.428  11.000 -0.3965 -0.6546  0.1725
  100MOL0     H13471   5.917  -0.354  10.837  1.1787 -0.2981 -0.4527
  100MOL0     H13472   5.820  -0.555  10.723  0.1256 -0.6405 -0.5125
  100MOL0     H13473   5.763  -0.620  10.888  0.2265  2.0522  2.0249
  100MOL0     H13474   6.056  -0.541  10.834  1.5898 -0.9238  2.2108
  100MOL0     H13475   5.996  -0.663  10.935  2.7687  2.8712  0.4158
  100MOL0     H13476   5.923  -0.777  10.713  0.7112 -0.4697 -0.7361
  100MOL0     H13477   6.085  -0.799  10.772 -0.0218 -0.6734 -0.8622
  100MOL0     H13478   5.968  -0.616  10.568 -0.3954  0.3444  0.3334
  100MOL0     H13479   6.138  -0.601  10.606 -0.2229  0.5652 -0.6829
  100MOL0     H13480   5.374  -0.424  10.596  0.8184  1.0280 -0.4367
  100MOL0     H13481   5.161  -0.393  10.476 -0.8007  0.2743  1.4118
  100MOL0     H13482   4.943  -0.102  10.178 -0.1590 -2.4587 -2.8469
  100MOL0     H13483   4.758  -0.101  10.030  0.0768  1.5928 -0.3771
  100MOL0     H13484   2.973  -0.011   9.291  1.2094  0.1428  0.5552
  100MOL0     H13485   2.719   0.032   9.274  1.2059 -2.9124 -1.6585
  100MOL0     H13486   2.420   0.520   9.417 -2.9322  1.7259 -0.8909
  100MOL0     H13487   2.195   0.540   9.447  0.6831 -0.5383  1.4833
  100MOL0     H13488   1.935   0.583   9.409  1.5287  0.9483  1.8021
  100MOL0     H13489   2.008   0.480   9.517 -1.7271  1.4182  0.7946
  100MOL0     H13490   1.729   0.451   9.380 -0.4517 -0.5567  0.4990
  100MOL0     H13491   1.767   0.521   9.540  0.3516  2.6374 -2.1214
  100MOL0     H13492   1.875   0.273   9.571 -0.8669 -1.5497  0.3023
  100MOL0     H13493   1.749   0.250   9.452 -0.8129  2.5689 -1.7624
  100MOL0     H13494   1.687   0.216   9.689  0.8372  0.8071  2.5871
  100MOL0     H13495   1.719   0.382   9.728  2.1780  0.2313 -1.0147
  100MOL0     H13496   1.335   0.443   9.584 -0.0648 -0.4683 -0.5878
  100MOL0     H13497   2.099   0.231   9.168  0.6674 -0.2857 -0.3008
  100MOL0     H13498   2.394   0.177   9.029  3.0259 -3.2074  0.3774
  100MOL0     H13499   2.431   0.073   9.160 -1.1950 -2.4796 -1.8422
  100MOL0     H13500   2.263   0.081   9.100 -0.6273  1.3450  0.7258
  101MOL0     O13501   7.605   3.727   9.182 -0.6371  0.2306 -0.4950
  101MOL0     C13502   7.545   3.807   9.110 -0.8331  1.2345 -0.9961
  101MOL0     O13503   7.603   3.921   9.062 -0.1208 -0.1135  0.3712
  101MOL0     C13504   7.740   3.947   9.086 -0.9506 -0.6204 -0.9520
  101MOL0     C13505   7.835   3.933   8.980  0.1484  0.7690 -0.6900
  101MOL0     C13506   7.966   3.984   8.999  0.1752  1.0479  0.5278
  101MOL0     C13507   8.016   4.026   9.130  1.8082 -0.7434 -0.0648
  101MOL0     O13508   8.143   4.068   9.143 -0.0838  0.3790  0.5788
  101MOL0     C13509   8.236   4.063   9.031 -0.0764 -0.1390  0.3825
  101MOL0     C13510   8.307   3.925   9.023  0.0345 -0.4580  0.0391
  101MOL0     C13511   8.432   3.936   8.940 -0.3685 -0.3210 -0.0287
  101MOL0     C13512   8.561   3.992   9.014 -0.0917  0.1701 -0.7679
  101MOL0     C13513   8.695   3.992   8.929  0.1788  0.1942 -0.1959
  101MOL0     C13514   8.690   4.095   8.816 -0.5856  0.4983 -0.1660
  101MOL0     C13515   8.804   4.076   8.715 -0.6234  0.3177  0.7923
  101MOL0     C13516   8.936   4.108   8.782  0.6642 -0.6649  0.2337
  101MOL0     N13517   9.038   4.107   8.675 -0.0558  0.7830 -0.0956
  101MOL0     C13518   9.153   4.181   8.677 -0.5565  0.8482 -0.7329
  101MOL0     C13519   9.227   4.127   8.575  0.9198  0.5617  0.1966
  101MOL0     C13520   9.363   4.159   8.529  0.4929 -0.3930 -0.3692
  101MOL0     C13521   9.476   4.112   8.623  0.1089 -0.7836  0.2947
  101MOL0     C13522   9.525   3.963   8.601  0.1409  0.4773  0.5117
  101MOL0     C13523   9.596   3.953   8.463 -0.4487 -0.6318  0.6784
  101MOL0     O13524   9.699   4.050   8.442  0.0947 -0.4753 -0.1388
  101MOL0     C13525   9.743   4.082   8.317 -0.3275  0.1521  0.4676
  101MOL0     C13526   9.853   4.166   8.303 -0.1967  0.4066  0.0817
  101MOL0     C13527   9.911   4.199   8.177  0.4074 -0.6963 -0.0965
  101MOL0     C13528   9.858   4.143   8.056 -0.9805 -0.0946  0.1253
  101MOL0     C13529   9.918   4.160   7.919 -0.2375  0.6041 -1.1961
  101MOL0     O13530   9.851   4.120   7.813 -0.2273  0.3293 -0.3448
  101MOL0     C13531   9.906   4.110   7.686  1.1656  0.4044 -0.0604
  101MOL0     C13532   9.815   4.149   7.580 -0.4413 -0.4626 -0.8313
  101MOL0     C13533   9.863   4.143   7.446  0.3336  0.0119  0.4827
  101MOL0     C13534   9.989   4.083   7.415 -0.3799  0.4081 -0.9835
  101MOL0     O13535  10.012   4.073   7.281  0.3431 -0.0512  0.4461
  101MOL0     C13536  10.134   4.024   7.232  0.1411 -0.0196 -0.0169
  101MOL0     C13537  10.125   4.009   7.081  0.1647 -0.2036  0.4626
  101MOL0     C13538  10.122   4.152   7.010  0.3140  0.2130 -0.7621
  101MOL0     C13539  10.108   4.150   6.858 -0.1286  0.8596  0.3419
  101MOL0     C13540  10.135   4.291   6.814  0.4127  0.8151  0.5754
  101MOL0     C13541  10.161   4.303   6.663 -0.3897  0.0109 -0.2849
  101MOL0     C13542  10.217   4.441   6.628 -0.7139 -0.5774 -0.7089
  101MOL0     C13543  10.227   4.431   6.475 -0.1808  0.5033 -0.2503
  101MOL0    Cl13544  10.266   4.588   6.398  0.3965 -0.1543  0.0702
  101MOL0     C13545  10.074   4.047   7.516 -0.0175  0.5698  0.3490
  101MOL0     C13546  10.030   4.064   7.648 -0.1429 -0.6606 -1.1879
  101MOL0     O13547  10.029   4.209   7.916 -0.2524 -0.1330  0.3242
  101MOL0     C13548   9.757   4.051   8.070  0.3199  0.2233 -0.5487
  101MOL0     C13549   9.698   4.021   8.194 -0.3965  0.8151 -0.1485
  101MOL0     N13550   9.149   4.018   8.524 -0.7591  0.1875  0.0599
  101MOL0     N13551   9.042   4.006   8.591 -0.1814  0.4865  0.3312
  101MOL0     C13552   7.911   4.030   9.235 -0.0648  0.0371  0.2466
  101MOL0     C13553   7.777   4.001   9.205  0.2015  0.3667 -0.2984
  101MOL0     C13554   7.402   3.784   9.092 -0.5160 -0.2805  0.4744
  101MOL0     C13555   7.344   3.886   9.020  0.3241 -0.2378 -0.7608
  101MOL0     C13556   7.211   3.885   8.989  0.2817 -0.0586 -0.4191
  101MOL0     C13557   7.129   3.790   9.049  0.3489 -0.2211  0.9478
  101MOL0     O13558   6.994   3.789   9.036 -0.4058 -0.1014 -0.2342
  101MOL0     C13559   6.918   3.906   8.995 -0.0903  0.3634 -0.0497
  101MOL0     C13560   6.772   3.863   8.982  0.3780  0.4045 -0.3800
  101MOL0     C13561   6.751   3.745   8.898 -0.1986 -0.6395 -0.5720
  101MOL0     C13562   6.610   3.688   8.915 -0.2690 -1.2880  0.6103
  101MOL0     C13563   6.609   3.553   8.860  0.5163 -0.1186 -0.4468
  101MOL0     C13564   6.631   3.455   8.800 -0.6016  1.0171  0.4795
  101MOL0     C13565   7.185   3.686   9.126 -0.0223 -0.7804  0.3728
  101MOL0     C13566   7.322   3.677   9.141 -0.0012 -0.2449 -0.0528
  101MOL0     C13567   7.371   3.546   9.210  0.2057 -0.6444  0.8759
  101MOL0     H13568   7.803   3.892   8.885 -2.6200 -1.0858  0.9129
  101MOL0     H13569   8.030   3.974   8.911  0.2546 -1.9424  0.8300
  101MOL0     H13570   8.182   4.095   8.941 -0.9361  0.8354  1.2261
  101MOL0     H13571   8.314   4.137   9.052  0.7119 -1.0994  0.9446
  101MOL0     H13572   8.226   3.858   8.991 -0.6520  0.2436  0.2842
  101MOL0     H13573   8.326   3.894   9.126 -0.7367 -4.3176 -0.8143
  101MOL0     H13574   8.405   4.003   8.858  1.3341  2.9397  1.8756
  101MOL0     H13575   8.451   3.835   8.903 -1.2092  0.0072 -1.4264
  101MOL0     H13576   8.540   4.097   9.040 -0.4509 -0.6675  2.8491
  101MOL0     H13577   8.574   3.945   9.111  3.6658 -1.4419 -1.9065
  101MOL0     H13578   8.776   4.019   8.997  3.0405 -1.7523 -2.6095
  101MOL0     H13579   8.704   3.889   8.894 -3.1549 -1.0780  2.1081
  101MOL0     H13580   8.601   4.080   8.755  0.5485 -0.5007 -1.6516
  101MOL0     H13581   8.696   4.195   8.861  3.6338 -0.2977  1.5670
  101MOL0     H13582   8.793   4.145   8.631 -2.0985 -1.8682 -0.9129
  101MOL0     H13583   8.791   3.972   8.685 -3.1010 -0.1640  3.1587
  101MOL0     H13584   8.939   4.211   8.819 -3.4862  0.0168 -0.8430
  101MOL0     H13585   8.953   4.041   8.866 -0.8317 -1.4060 -0.0117
  101MOL0     H13586   9.180   4.264   8.742 -1.6882  2.7245 -2.5153
  101MOL0     H13587   9.384   4.115   8.431  2.0686 -1.7453  0.5174
  101MOL0     H13588   9.365   4.268   8.513  0.2317 -0.3193  0.0799
  101MOL0     H13589   9.560   4.181   8.609  0.4120 -1.0498  0.7830
  101MOL0     H13590   9.450   4.122   8.728 -1.8770 -0.9699 -0.1352
  101MOL0     H13591   9.449   3.885   8.606 -1.9881  2.3319 -0.7364
  101MOL0     H13592   9.591   3.919   8.677 -1.7099  0.4059  2.1376
  101MOL0     H13593   9.515   3.964   8.390  0.9837  0.7779 -0.7736
  101MOL0     H13594   9.646   3.857   8.446  0.6480 -0.3583  2.1735
  101MOL0     H13595   9.902   4.219   8.384  1.1262 -1.4289  0.5310
  101MOL0     H13596   9.999   4.263   8.167  0.8687 -1.0319  1.5665
  101MOL0     H13597   9.714   4.184   7.602  0.6450  0.6026  3.3972
  101MOL0     H13598   9.800   4.173   7.363  0.1608  2.4515  1.4310
  101MOL0     H13599  10.212   4.098   7.254  0.1173 -0.0442  0.1527
  101MOL0     H13600  10.161   3.927   7.276 -1.6277  0.1530  1.6086
  101MOL0     H13601  10.211   3.950   7.049  2.1617  1.8031  1.7865
  101MOL0     H13602  10.035   3.958   7.045 -0.9186  1.3131  0.8783
  101MOL0     H13603  10.030   4.202   7.041 -0.0556 -0.9301  0.0592
  101MOL0     H13604  10.205   4.214   7.044 -0.3772  1.1180 -0.6989
  101MOL0     H13605  10.006   4.129   6.824 -0.2719  1.1208  0.6011
  101MOL0     H13606  10.181   4.088   6.806 -1.2051 -0.2391  0.1000
  101MOL0     H13607  10.223   4.337   6.860  0.8799  1.7468 -1.1664
  101MOL0     H13608  10.047   4.353   6.834 -0.7568  1.0396 -3.9807
  101MOL0     H13609  10.241   4.234   6.636  3.6703  4.4936 -0.8761
  101MOL0     H13610  10.069   4.284   6.606 -1.7521 -1.7166  2.2707
  101MOL0     H13611  10.313   4.467   6.674 -1.0478 -0.7862  0.1279
  101MOL0     H13612  10.144   4.521   6.644 -0.1318  0.5297 -3.0530
  101MOL0     H13613  10.301   4.354   6.452 -1.0671 -0.6844  0.7261
  101MOL0     H13614  10.131   4.406   6.428 -0.6902  4.2057 -1.4964
  101MOL0     H13615  10.168   4.001   7.490  0.1982  2.4281 -2.6705
  101MOL0     H13616  10.101   4.036   7.726 -0.8722  0.4136 -0.1012
  101MOL0     H13617   9.719   3.988   7.990 -0.9302  1.2141 -0.7656
  101MOL0     H13618   9.616   3.949   8.202 -1.5502  2.1588  0.5209
  101MOL0     H13619   7.941   4.053   9.337  1.6147  0.8447 -0.3829
  101MOL0     H13620   7.697   4.009   9.277  0.6844 -0.6640  0.3643
  101MOL0     H13621   7.396   3.968   8.971 -0.8118  2.0073  1.5541
  101MOL0     H13622   7.178   3.954   8.912  1.1376  0.9147  0.0655
  101MOL0     H13623   6.947   3.942   8.896 -1.0496  0.1049 -0.4250
  101MOL0     H13624   6.927   3.980   9.075 -1.3822 -0.9989  1.4351
  101MOL0     H13625   6.720   3.946   8.933  0.6032  2.2360  2.2475
  101MOL0     H13626   6.732   3.848   9.083  1.4531 -0.4737 -0.0573
  101MOL0     H13627   6.831   3.672   8.912 -0.1893 -0.7860 -1.3728
  101MOL0     H13628   6.758   3.785   8.796 -1.9164  1.9358  0.2060
  101MOL0     H13629   6.597   3.677   9.023 -1.1157 -1.5275  0.4873
  101MOL0     H13630   6.534   3.759   8.883 -0.2320 -2.2355 -1.7845
  101MOL0     H13631   6.623   3.358   8.754 -0.3462  0.8221  0.8387
  101MOL0     H13632   7.125   3.607   9.172  0.9658 -0.3745  2.5115
  101MOL0     H13633   7.284   3.484   9.235 -1.2047  1.4439  1.4056
  101MOL0     H13634   7.437   3.478   9.156 -1.7294 -3.3875  1.7119
  101MOL0     H13635   7.425   3.568   9.302 -1.8529 -0.3116  2.0673
  102MOL0     O13636  10.749   9.158   0.481  1.2777  0.3012  0.3886
  102MOL0     C13637  10.747   9.089   0.386 -0.2339 -0.0339 -0.1047
  102MOL0     O13638  10.853   9.063   0.304 -0.2955 -0.7828 -0.2556
  102MOL0     C13639  10.983   9.100   0.346 -0.6209  0.9695  0.8906
  102MOL0     C13640  11.022   9.212   0.419  0.6113 -0.8935  0.0413
  102MOL0     C13641  11.160   9.236   0.450 -0.1593 -0.4876  0.8570
  102MOL0     C13642  11.260   9.155   0.388  0.1400 -0.3024  0.7074
  102MOL0     O13643  11.401   9.159   0.407  0.1549 -0.5899 -0.3225
  102MOL0     C13644  11.450   9.292   0.420 -0.0626  0.4183  0.3756
  102MOL0     C13645  11.601   9.284   0.397 -0.3963 -0.6889  0.1944
  102MOL0     C13646  11.670   9.423   0.426  0.7338  0.5579  0.2677
  102MOL0     C13647  11.810   9.397   0.463 -0.5643  0.3360  0.0704
  102MOL0     C13648  11.885   9.528   0.466 -0.1657  0.1590  0.0271
  102MOL0     C13649  12.031   9.494   0.525  0.3936  0.5622  0.0023
  102MOL0     C13650  12.124   9.612   0.504  0.5280  0.1406 -1.4531
  102MOL0     C13651  12.254   9.591   0.584 -0.0990 -0.1693  0.5351
  102MOL0     N13652  12.351   9.692   0.568 -0.4114  0.2787  0.4498
  102MOL0     C13653  12.479   9.665   0.517  0.0081 -0.7441  0.4822
  102MOL0     C13654  12.541   9.782   0.523  0.3798  0.2182  1.2303
  102MOL0     C13655  12.684   9.805   0.463 -0.3456 -0.4561 -0.7181
  102MOL0     C13656  12.789   9.867   0.558  0.2010  0.8898 -0.2660
  102MOL0     C13657  12.922   9.901   0.473  0.2871 -0.4247  0.3457
  102MOL0     C13658  13.015   9.971   0.566 -0.2949  0.0091  0.7770
  102MOL0     O13659  13.125   9.887   0.616  0.3816 -0.2272  0.1993
  102MOL0     C13660  13.235   9.854   0.541  0.0225  0.0345  0.7167
  102MOL0     C13661  13.285   9.926   0.432 -0.1392  0.1648 -0.6634
  102MOL0     C13662  13.398   9.887   0.352  0.0020  0.4653  0.5188
  102MOL0     C13663  13.474   9.781   0.401 -0.2412 -0.1259 -1.0524
  102MOL0     C13664  13.601   9.750   0.335 -0.0172 -0.5755  0.9194
  102MOL0     O13665  13.693   9.683   0.415  0.3856  0.6938 -0.1436
  102MOL0     C13666  13.813   9.629   0.361  0.1447 -0.2274  0.7275
  102MOL0     C13667  13.902   9.706   0.285 -0.5375  0.0418  0.3896
  102MOL0     C13668  14.020   9.639   0.246  0.3814  0.0276  1.4204
  102MOL0     C13669  14.058   9.509   0.279  0.0891  0.5108 -1.0431
  102MOL0     O13670  14.190   9.483   0.251  0.7559 -0.1365  0.5916
  102MOL0     C13671  14.237   9.347   0.254 -0.3383 -0.6867  0.3313
  102MOL0     C13672  14.385   9.350   0.219  0.0249 -0.6568  0.7387
  102MOL0     C13673  14.454   9.444   0.318 -0.1530 -0.1250  0.1943
  102MOL0     C13674  14.616   9.423   0.333  0.6449  1.2121 -0.2933
  102MOL0     C13675  14.666   9.288   0.394  0.4386  0.4095 -0.7005
  102MOL0     C13676  14.799   9.296   0.465 -0.6833  0.6027  0.7182
  102MOL0     C13677  14.919   9.288   0.374  0.5095 -0.1679  0.2310
  102MOL0     C13678  15.036   9.354   0.442  0.1461  0.1498 -0.2865
  102MOL0    Cl13679  15.061   9.291   0.610  0.2756  0.0171  0.6773
  102MOL0     C13680  13.959   9.433   0.340  0.5261 -0.1040  1.0649
  102MOL0     C13681  13.835   9.492   0.369 -0.4965 -0.2143 -0.9194
  102MOL0     O13682  13.627   9.797   0.228 -0.0468  0.0990 -0.1583
  102MOL0     C13683  13.435   9.720   0.523  0.1160  0.4008  0.2880
  102MOL0     C13684  13.312   9.750   0.586 -0.4371  0.7026 -0.1498
  102MOL0     N13685  12.453   9.881   0.567  0.4743 -0.4280 -0.0736
  102MOL0     N13686  12.346   9.821   0.597  0.4683  0.7698 -0.1368
  102MOL0     C13687  11.225   9.047   0.307  0.4911 -0.5149 -0.3497
  102MOL0     C13688  11.085   9.018   0.291 -0.1216 -0.9169  0.4865
  102MOL0     C13689  10.604   9.044   0.340  0.4078 -0.0346  0.2498
  102MOL0     C13690  10.520   8.987   0.437 -0.2784 -0.2316  0.5522
  102MOL0     C13691  10.391   8.946   0.402  0.1956  0.2173  0.4540
  102MOL0     C13692  10.350   8.957   0.271  0.8578 -0.2518  0.2255
  102MOL0     O13693  10.220   8.916   0.250 -0.3054 -0.2647  0.2244
  102MOL0     C13694  10.166   8.886   0.118 -0.7721  0.3956 -0.2823
  102MOL0     C13695  10.112   9.021   0.065  0.4203 -0.4595 -0.3439
  102MOL0     C13696  10.075   9.011  -0.087 -0.1504  0.2158 -0.1047
  102MOL0     C13697  10.067   9.140  -0.157 -0.1016 -0.7731  0.2457
  102MOL0     C13698   9.991   9.242  -0.089  0.1274 -0.5771 -0.5086
  102MOL0     C13699   9.924   9.327  -0.031  0.6069  0.0073  0.1188
  102MOL0     C13700  10.434   9.003   0.170 -1.2100 -0.2637  0.2503
  102MOL0     C13701  10.565   9.037   0.206 -0.0203 -0.4391  0.3110
  102MOL0     C13702  10.653   9.071   0.104 -0.1547  0.4711  0.6985
  102MOL0     H13703  10.956   9.286   0.463  3.9166  1.8917  0.7263
  102MOL0     H13704  11.191   9.325   0.505 -3.4351 -0.4538  2.9337
  102MOL0     H13705  11.418   9.364   0.345  0.2430  0.5848  0.4039
  102MOL0     H13706  11.432   9.313   0.526 -2.0946 -2.7638  0.7902
  102MOL0     H13707  11.620   9.253   0.294  0.2005 -1.0595  0.4098
  102MOL0     H13708  11.645   9.215   0.470  2.0044 -0.4781 -0.9310
  102MOL0     H13709  11.607   9.476   0.498 -1.3181  2.6046 -2.7815
  102MOL0     H13710  11.673   9.483   0.335  1.9799 -0.4791 -0.4151
  102MOL0     H13711  11.819   9.353   0.563  1.1240  0.4692  0.0203
  102MOL0     H13712  11.865   9.332   0.393  0.0663  0.7626  0.1543
  102MOL0     H13713  11.895   9.566   0.364  1.8266 -1.2821 -0.3809
  102MOL0     H13714  11.836   9.598   0.534 -1.9698  0.2575 -1.2923
  102MOL0     H13715  12.016   9.464   0.629 -1.8871  0.8873 -0.1924
  102MOL0     H13716  12.073   9.410   0.468 -0.1193  0.6984 -0.5899
  102MOL0     H13717  12.076   9.699   0.549 -0.1341  1.1229 -3.8895
  102MOL0     H13718  12.128   9.629   0.396 -3.9142  2.0933 -1.5163
  102MOL0     H13719  12.230   9.590   0.690 -0.4452  1.1587  0.4831
  102MOL0     H13720  12.304   9.500   0.547 -1.7001 -0.7670 -0.2619
  102MOL0     H13721  12.532   9.575   0.488  1.5548  0.3988 -0.3748
  102MOL0     H13722  12.721   9.710   0.424  0.8633  0.7388 -2.6405
  102MOL0     H13723  12.663   9.878   0.385 -3.3251 -0.3978  0.0284
  102MOL0     H13724  12.740   9.949   0.610 -2.2199 -1.9029  2.1970
  102MOL0     H13725  12.825   9.807   0.642 -0.7509  1.2912  0.4360
  102MOL0     H13726  12.901   9.968   0.389 -0.2908 -2.3104 -1.0763
  102MOL0     H13727  12.958   9.806   0.431 -2.5019 -1.5911  0.4178
  102MOL0     H13728  12.956  10.012   0.649  0.1398  2.8173 -0.1671
  102MOL0     H13729  13.058  10.061   0.519 -0.3017  0.1197  0.9840
  102MOL0     H13730  13.223  10.005   0.391  0.1427  1.2896  0.9799
  102MOL0     H13731  13.420   9.942   0.261 -0.0629 -1.5317 -0.7753
  102MOL0     H13732  13.888   9.809   0.254 -0.0862 -0.1878 -0.6270
  102MOL0     H13733  14.101   9.697   0.202 -0.0109  0.0024  0.6435
  102MOL0     H13734  14.229   9.295   0.350  0.1351 -0.0513  0.7261
  102MOL0     H13735  14.183   9.296   0.174 -0.1698 -0.1566 -0.1292
  102MOL0     H13736  14.425   9.248   0.225  1.6719 -0.3180 -2.3676
  102MOL0     H13737  14.403   9.382   0.116 -0.9841  1.4524  1.1663
  102MOL0     H13738  14.460   9.542   0.271  2.7619 -0.1576  0.3486
  102MOL0     H13739  14.402   9.449   0.414 -1.7619  3.1767 -0.7173
  102MOL0     H13740  14.652   9.504   0.396  0.3500  1.5874 -0.6095
  102MOL0     H13741  14.662   9.427   0.234 -1.9869 -0.6242 -1.6989
  102MOL0     H13742  14.665   9.202   0.327  0.3685  1.3430 -1.9341
  102MOL0     H13743  14.586   9.258   0.462 -1.3303 -1.5853 -3.4693
  102MOL0     H13744  14.801   9.387   0.527 -0.2002  2.7735 -2.2475
  102MOL0     H13745  14.807   9.212   0.534  2.0167  0.2522  0.1053
  102MOL0     H13746  14.917   9.340   0.278 -1.0207 -1.6519 -0.5941
  102MOL0     H13747  14.939   9.183   0.348  1.5938  0.2874 -0.8957
  102MOL0     H13748  15.128   9.349   0.383  0.2530  1.3647 -0.2549
  102MOL0     H13749  15.012   9.461   0.438  0.6813  0.3216  0.6449
  102MOL0     H13750  13.961   9.326   0.361  1.1200 -0.1480  0.8082
  102MOL0     H13751  13.759   9.431   0.417  0.8679 -2.2406 -1.1785
  102MOL0     H13752  13.483   9.643   0.583 -1.7921 -1.9085 -1.0251
  102MOL0     H13753  13.285   9.703   0.680 -0.1432  1.5874  0.3824
  102MOL0     H13754  11.280   8.972   0.252  0.2070 -1.4235  0.5660
  102MOL0     H13755  11.050   8.941   0.223 -2.2382 -0.3247  0.8383
  102MOL0     H13756  10.552   8.982   0.541 -1.1346 -2.2448  0.7525
  102MOL0     H13757  10.326   8.905   0.479  2.6985 -3.7097  0.7186
  102MOL0     H13758  10.088   8.810   0.130 -1.8608  1.3910 -0.9256
  102MOL0     H13759  10.244   8.846   0.053  0.1390  0.6862  0.6036
  102MOL0     H13760  10.172   9.111   0.086 -2.4167  1.5623 -0.3442
  102MOL0     H13761  10.023   9.024   0.127  0.7869  1.0185  0.1488
  102MOL0     H13762   9.975   8.967  -0.077  0.9298 -2.0275  1.6689
  102MOL0     H13763  10.140   8.941  -0.139 -2.0170 -0.3291 -1.8136
  102MOL0     H13764  10.168   9.180  -0.167 -0.3349 -0.3960 -0.7108
  102MOL0     H13765  10.024   9.133  -0.258  2.0435  2.3613 -1.0289
  102MOL0     H13766   9.872   9.408   0.017  2.7910  1.5394  0.0219
  102MOL0     H13767  10.393   9.018   0.071  2.8331 -0.1502 -1.6107
  102MOL0     H13768  10.608   9.085   0.005  0.6470  2.0907  0.5205
  102MOL0     H13769  10.719   9.157   0.120 -0.9076  0.8452  1.9423
  102MOL0     H13770  10.706   8.977   0.088  1.0793  0.4355  4.1332
  103MOL0     O13771  10.237   6.924   0.515 -0.4147  0.1503 -0.6054
  103MOL0     C13772  10.338   6.851   0.498 -0.6533 -0.7760  1.1240
  103MOL0     O13773  10.449   6.889   0.419 -0.1879  0.1184  0.4958
  103MOL0     C13774  10.488   7.015   0.390  0.2443 -0.5699  0.3165
  103MOL0     C13775  10.426   7.131   0.431  0.3197 -0.2022  0.8205
  103MOL0     C13776  10.473   7.256   0.382  0.1100  0.0837 -0.4991
  103MOL0     C13777  10.591   7.262   0.309  0.4103  0.2723 -0.0684
  103MOL0     O13778  10.653   7.375   0.267 -0.6524 -0.4005 -0.6892
  103MOL0     C13779  10.574   7.494   0.256 -0.5190 -0.1318 -0.4704
  103MOL0     C13780  10.646   7.598   0.173  1.0130  0.5567  0.2892
  103MOL0     C13781  10.766   7.660   0.245 -0.6727  0.4177 -0.5987
  103MOL0     C13782  10.812   7.780   0.165  1.6119 -0.5217 -0.2667
  103MOL0     C13783  10.930   7.847   0.235 -0.7927 -0.2400 -0.0510
  103MOL0     C13784  10.998   7.949   0.148 -0.0151  0.3064  0.9374
  103MOL0     C13785  11.101   7.891   0.055 -0.5147 -1.2712  0.5927
  103MOL0     C13786  11.179   8.012  -0.020 -0.1158 -0.0374  0.2597
  103MOL0     N13787  11.281   7.957  -0.106  1.1491  0.1446  0.8366
  103MOL0     C13788  11.258   7.881  -0.221  0.0473  0.1953 -0.1689
  103MOL0     C13789  11.378   7.838  -0.259 -0.9325  0.1276  0.0938
  103MOL0     C13790  11.404   7.740  -0.374 -0.1986  0.5820 -0.6514
  103MOL0     C13791  11.478   7.612  -0.329  0.3759 -0.1719  0.4142
  103MOL0     C13792  11.517   7.539  -0.454 -0.0263  0.2871 -0.1794
  103MOL0     C13793  11.606   7.412  -0.422 -0.8474 -0.5526  0.6492
  103MOL0     O13794  11.556   7.312  -0.333  0.6054 -0.0242  0.8178
  103MOL0     C13795  11.646   7.227  -0.279 -0.1167 -0.5468 -0.5965
  103MOL0     C13796  11.590   7.119  -0.213  0.4953  0.0085  0.5044
  103MOL0     C13797  11.660   7.018  -0.150 -1.2641 -0.4259  0.1893
  103MOL0     C13798  11.803   7.035  -0.147  0.2939  1.2777  0.0433
  103MOL0     C13799  11.884   6.927  -0.082  0.6110  0.5894 -0.6626
  103MOL0     O13800  11.816   6.828  -0.015  0.5263  0.2684 -0.9103
  103MOL0     C13801  11.881   6.715   0.028 -0.8026 -0.8512 -0.4620
  103MOL0     C13802  11.992   6.664  -0.042  0.1201  0.4656 -0.3993
  103MOL0     C13803  12.065   6.557   0.016  0.1475 -0.8317 -0.3077
  103MOL0     C13804  12.037   6.513   0.144  1.3225  0.4665  0.2577
  103MOL0     O13805  12.120   6.414   0.188  1.0387  0.7558 -0.0688
  103MOL0     C13806  12.186   6.449   0.312  0.0722 -1.0664  0.2222
  103MOL0     C13807  12.312   6.358   0.331  0.5799 -0.2811  0.4463
  103MOL0     C13808  12.423   6.413   0.429  1.0937 -0.4700  0.7865
  103MOL0     C13809  12.554   6.336   0.423  0.0768  0.1467  0.8870
  103MOL0     C13810  12.661   6.400   0.516 -0.4694  0.0328  0.6825
  103MOL0     C13811  12.808   6.345   0.503  0.5601 -0.1139  0.2657
  103MOL0     C13812  12.829   6.220   0.587  0.9734  0.9935  0.3284
  103MOL0     C13813  12.966   6.217   0.648 -0.3984 -0.7499 -0.0112
  103MOL0    Cl13814  13.085   6.194   0.510  0.0771 -0.3413 -0.0253
  103MOL0     C13815  11.938   6.571   0.222 -0.0570  0.3602  1.3652
  103MOL0     C13816  11.855   6.669   0.156  0.1057 -0.2514 -0.2679
  103MOL0     O13817  12.004   6.930  -0.106  0.4695 -0.0270 -0.1434
  103MOL0     C13818  11.865   7.139  -0.215 -0.7598  0.7668  0.7145
  103MOL0     C13819  11.785   7.232  -0.281  0.6082 -0.4281 -0.6988
  103MOL0     N13820  11.474   7.901  -0.176 -0.0013  0.0858  0.1445
  103MOL0     N13821  11.410   7.966  -0.075  0.3156  0.2766 -0.0873
  103MOL0     C13822  10.650   7.146   0.277 -0.2375 -0.4200 -0.4173
  103MOL0     C13823  10.603   7.019   0.309  0.2900  0.0038 -0.1009
  103MOL0     C13824  10.345   6.714   0.549 -0.5941 -0.0810  0.2372
  103MOL0     C13825  10.402   6.614   0.467  0.8451  0.4061  0.3994
  103MOL0     C13826  10.410   6.484   0.505 -0.1831  0.2247 -0.0113
  103MOL0     C13827  10.360   6.449   0.636  0.3352  0.0026 -0.9659
  103MOL0     O13828  10.358   6.317   0.679 -0.5002 -0.4145  0.4541
  103MOL0     C13829  10.266   6.245   0.596  0.0999 -0.0139 -0.0155
  103MOL0     C13830  10.238   6.114   0.671  0.2586  0.2697  0.2669
  103MOL0     C13831  10.365   6.033   0.653 -0.4850  0.1452  0.5199
  103MOL0     C13832  10.352   5.893   0.718  0.2284  0.0564  0.0817
  103MOL0     C13833  10.468   5.817   0.698 -0.4726  0.7147  0.2847
  103MOL0     C13834  10.572   5.758   0.664  0.4063  1.1083 -0.1343
  103MOL0     C13835  10.300   6.544   0.716  0.8222 -0.9548  0.0583
  103MOL0     C13836  10.293   6.679   0.675 -0.4456 -0.4435 -0.4427
  103MOL0     C13837  10.235   6.771   0.773 -0.0668 -0.8506  0.0130
  103MOL0     H13838  10.340   7.125   0.497  0.0253 -0.0680  0.4519
  103MOL0     H13839  10.422   7.345   0.418  1.1652  0.8357 -0.8007
  103MOL0     H13840  10.473   7.488   0.215 -2.3999  2.1302  3.2307
  103MOL0     H13841  10.579   7.545   0.353  1.3578  0.5138 -0.8468
  103MOL0     H13842  10.583   7.683   0.146  0.7906  1.0847  2.3242
  103MOL0     H13843  10.682   7.544   0.085  3.7395 -2.4802  2.9876
  103MOL0     H13844  10.848   7.590   0.228 -1.1267  0.1773 -1.9170
  103MOL0     H13845  10.756   7.672   0.353  2.5950  0.2096 -0.1565
  103MOL0     H13846  10.835   7.760   0.060 -2.9761  0.7452 -1.7531
  103MOL0     H13847  10.722   7.841   0.150  0.7865 -1.5711  0.3087
  103MOL0     H13848  10.892   7.896   0.325 -0.1555 -0.1066  0.1507
  103MOL0     H13849  11.010   7.779   0.267 -2.3441 -1.2959  1.7794
  103MOL0     H13850  10.931   8.001   0.079  2.1934  1.7998 -0.2127
  103MOL0     H13851  11.042   8.031   0.206 -1.1254  0.1892  1.9765
  103MOL0     H13852  11.045   7.841  -0.025 -0.7690 -0.0588 -0.0161
  103MOL0     H13853  11.165   7.816   0.102 -1.8682 -3.1879 -0.4709
  103MOL0     H13854  11.109   8.062  -0.088  0.2454 -1.4165 -1.1890
  103MOL0     H13855  11.217   8.086   0.051 -1.4160  1.1245 -0.1990
  103MOL0     H13856  11.162   7.847  -0.259 -0.3992 -0.6607  1.6158
  103MOL0     H13857  11.311   7.727  -0.430 -0.0931  1.3233 -1.0158
  103MOL0     H13858  11.469   7.791  -0.446  0.0067  2.3538  0.7110
  103MOL0     H13859  11.567   7.630  -0.267  1.3231  2.9702 -1.6433
  103MOL0     H13860  11.413   7.545  -0.272  0.7091 -0.5679  0.3291
  103MOL0     H13861  11.570   7.613  -0.515 -2.0642  2.4250  0.4887
  103MOL0     H13862  11.431   7.504  -0.511 -1.0671  4.3440 -1.4527
  103MOL0     H13863  11.705   7.451  -0.395 -0.8554 -0.5113  0.6195
  103MOL0     H13864  11.609   7.360  -0.519 -0.3742  2.7555 -1.2645
  103MOL0     H13865  11.483   7.118  -0.196 -0.8223 -0.1554 -5.6289
  103MOL0     H13866  11.604   6.939  -0.101 -2.5932  1.0866  1.1914
  103MOL0     H13867  12.022   6.700  -0.140  0.8480 -0.0516 -0.3750
  103MOL0     H13868  12.147   6.522  -0.046  0.6838  0.7749 -0.5423
  103MOL0     H13869  12.222   6.552   0.302  0.9444 -1.0640  2.6109
  103MOL0     H13870  12.114   6.444   0.394 -2.5387  1.1585 -1.7468
  103MOL0     H13871  12.283   6.262   0.373 -1.9195  1.0904  2.1264
  103MOL0     H13872  12.354   6.357   0.230  1.1353  2.4442  0.5684
  103MOL0     H13873  12.440   6.520   0.419 -0.4603 -0.2575  0.0696
  103MOL0     H13874  12.389   6.398   0.532  0.4338 -1.5006  0.4441
  103MOL0     H13875  12.593   6.329   0.321  2.1060  0.2214  1.6101
  103MOL0     H13876  12.532   6.234   0.456 -0.3825  0.5962  2.0322
  103MOL0     H13877  12.619   6.405   0.617 -2.2837  4.1177 -0.0747
  103MOL0     H13878  12.672   6.506   0.492  0.4947 -0.4848 -1.3620
  103MOL0     H13879  12.824   6.335   0.395 -2.3308  0.9994 -0.3706
  103MOL0     H13880  12.875   6.426   0.533 -3.0879  3.9622 -1.4853
  103MOL0     H13881  12.801   6.130   0.532  0.0840  0.9861  0.7799
  103MOL0     H13882  12.758   6.214   0.670 -0.7390 -5.0076 -1.0970
  103MOL0     H13883  12.991   6.311   0.697  3.1198 -2.6843  2.4019
  103MOL0     H13884  12.979   6.133   0.717  0.1880 -0.4461  0.2548
  103MOL0     H13885  11.914   6.546   0.324  0.7095  0.4737  1.5740
  103MOL0     H13886  11.780   6.719   0.216  2.0005  2.4515 -0.0026
  103MOL0     H13887  11.972   7.155  -0.220 -0.8775  1.3181 -0.3765
  103MOL0     H13888  11.835   7.313  -0.332  1.4263 -1.0499 -0.9039
  103MOL0     H13889  10.741   7.158   0.217  0.9524  1.5833  1.6242
  103MOL0     H13890  10.672   6.937   0.296  3.2025  1.9707  1.8330
  103MOL0     H13891  10.453   6.643   0.375 -0.0797  0.4084 -0.1231
  103MOL0     H13892  10.437   6.406   0.435 -2.6477 -1.2997  0.5896
  103MOL0     H13893  10.294   6.231   0.491 -0.0783  0.9054 -0.1947
  103MOL0     H13894  10.166   6.290   0.589 -0.4208 -1.0493  0.6345
  103MOL0     H13895  10.142   6.070   0.641 -1.1036 -0.7401  5.1589
  103MOL0     H13896  10.229   6.126   0.779  2.3577 -5.6247  1.4520
  103MOL0     H13897  10.448   6.075   0.711  0.1247 -2.6865  1.8961
  103MOL0     H13898  10.397   6.038   0.549  0.4454  1.0193  0.8256
  103MOL0     H13899  10.319   5.894   0.822 -0.9287 -1.0791 -0.2454
  103MOL0     H13900  10.271   5.843   0.664 -0.5623  0.5274  0.7988
  103MOL0     H13901  10.659   5.702   0.637 -0.8636 -1.8495  1.4547
  103MOL0     H13902  10.255   6.517   0.811  0.6765 -1.8055 -0.2452
  103MOL0     H13903  10.132   6.798   0.750 -0.0777 -0.8590  0.0523
  103MOL0     H13904  10.232   6.727   0.873 -0.5056 -1.7137 -0.3641
  103MOL0     H13905  10.304   6.854   0.785 -0.0873 -1.0093  1.3992
  104MOL0     O13906  10.269   5.346   9.294  0.0791 -0.7998  0.2591
  104MOL0     C13907  10.273   5.260   9.201  0.9561  0.5748  0.2759
  104MOL0     O13908  10.370   5.171   9.174  0.3228  0.1003  0.0130
  104MOL0     C13909  10.498   5.186   9.229  0.0409  0.9179  0.3344
  104MOL0     C13910  10.522   5.209   9.372 -0.0057  0.1304  0.9554
  104MOL0     C13911  10.654   5.229   9.412 -0.0078  0.5408 -0.4003
  104MOL0     C13912  10.760   5.244   9.317  0.5650 -0.0796 -0.0088
  104MOL0     O13913  10.892   5.273   9.359 -0.7381 -0.5906  1.1579
  104MOL0     C13914  11.001   5.272   9.266  0.9483 -1.9783 -0.6102
  104MOL0     C13915  11.136   5.297   9.341  0.6509  0.0280  0.1305
  104MOL0     C13916  11.249   5.297   9.236  0.3246 -0.2668  0.4073
  104MOL0     C13917  11.379   5.339   9.303 -0.1020 -0.2487  0.0098
  104MOL0     C13918  11.492   5.338   9.195  0.4210  0.5366 -0.2989
  104MOL0     C13919  11.601   5.235   9.224 -0.7471 -0.3215  0.1142
  104MOL0     C13920  11.709   5.216   9.115  0.3455 -0.5377 -0.6937
  104MOL0     C13921  11.644   5.147   8.994 -0.0837  0.1775  0.9005
  104MOL0     N13922  11.741   5.121   8.884 -0.5837  0.6157  0.0976
  104MOL0     C13923  11.812   5.009   8.859 -0.3276  0.1527 -0.3188
  104MOL0     C13924  11.906   5.051   8.770 -0.4867 -0.3985 -0.0061
  104MOL0     C13925  12.005   4.943   8.703  0.2071 -0.5336  0.5301
  104MOL0     C13926  11.939   4.886   8.576  0.5703 -0.2296  0.0334
  104MOL0     C13927  12.049   4.825   8.487 -0.2493  0.1229  0.0464
  104MOL0     C13928  12.056   4.665   8.515 -0.0992 -0.5323 -0.3671
  104MOL0     O13929  12.111   4.646   8.651 -0.2587 -0.8717 -0.2327
  104MOL0     C13930  12.245   4.665   8.665 -0.8575  0.0956 -0.5278
  104MOL0     C13931  12.296   4.672   8.797 -0.1038  0.6183 -0.1484
  104MOL0     C13932  12.435   4.671   8.828  0.5313 -0.5806 -0.2405
  104MOL0     C13933  12.524   4.685   8.721 -0.5130  0.1284 -0.3842
  104MOL0     C13934  12.669   4.675   8.753  0.6412  0.4109  0.1903
  104MOL0     O13935  12.694   4.696   8.889 -0.7498 -0.3243 -0.4589
  104MOL0     C13936  12.825   4.688   8.928 -0.2665 -1.0769 -0.3418
  104MOL0     C13937  12.899   4.568   8.883 -0.2674 -0.0953  0.5023
  104MOL0     C13938  13.021   4.535   8.940 -0.2397  0.4167  0.5439
  104MOL0     C13939  13.083   4.617   9.025 -0.6357  0.1626 -0.8867
  104MOL0     O13940  13.206   4.589   9.080  0.2996  0.1382 -0.0696
  104MOL0     C13941  13.306   4.568   8.978 -0.6527 -0.3122 -0.6719
  104MOL0     C13942  13.436   4.535   9.035  0.0460 -0.1910 -0.0295
  104MOL0     C13943  13.552   4.576   8.935  0.9738  0.4959  0.5294
  104MOL0     C13944  13.687   4.500   8.969  0.0244 -0.2054  0.6611
  104MOL0     C13945  13.814   4.536   8.891 -0.7464  0.2719  0.2394
  104MOL0     C13946  13.791   4.567   8.742 -0.8403 -0.4896 -0.3139
  104MOL0     C13947  13.926   4.557   8.670  1.2619  0.0006  1.1842
  104MOL0     C13948  13.921   4.598   8.523 -0.0065 -0.6446  0.4474
  104MOL0    Cl13949  14.026   4.744   8.495 -0.4166 -0.2459 -0.2014
  104MOL0     C13950  13.018   4.738   9.066  0.0119  0.6733 -0.1056
  104MOL0     C13951  12.891   4.772   9.019 -0.3017 -0.3396  0.1449
  104MOL0     O13952  12.750   4.655   8.663  0.1512  0.5108  0.8131
  104MOL0     C13953  12.471   4.694   8.591  0.2836 -0.3807  0.3599
  104MOL0     C13954  12.340   4.683   8.558 -0.0400  0.3314  0.3096
  104MOL0     N13955  11.886   5.187   8.746  0.7197 -0.4226 -0.5209
  104MOL0     N13956  11.792   5.232   8.819  0.0558  0.3219  0.2300
  104MOL0     C13957  10.735   5.219   9.177 -0.4063 -0.8113 -0.2420
  104MOL0     C13958  10.603   5.181   9.140  0.2801 -0.9600  0.1256
  104MOL0     C13959  10.164   5.270   9.091  0.1047 -0.3023 -0.1204
  104MOL0     C13960  10.200   5.271   8.954  0.4001  0.9615 -0.2305
  104MOL0     C13961  10.097   5.287   8.868 -0.2390 -0.2312  0.7946
  104MOL0     C13962   9.962   5.308   8.897  0.7409  0.6794  0.3063
  104MOL0     O13963   9.853   5.317   8.818 -0.2529  0.5229 -0.6732
  104MOL0     C13964   9.867   5.253   8.691  0.3968  0.6437  0.3866
  104MOL0     C13965   9.883   5.353   8.571 -0.1335 -0.0902 -0.7638
  104MOL0     C13966   9.758   5.441   8.567 -0.1699 -0.7521 -0.6875
  104MOL0     C13967   9.621   5.376   8.539 -0.7606 -1.0678 -1.0971
  104MOL0     C13968   9.531   5.465   8.475 -1.0994 -0.8115 -0.8180
  104MOL0     C13969   9.473   5.562   8.432  0.3025  0.2792  0.2777
  104MOL0     C13970   9.929   5.328   9.032 -0.0784 -0.0117  0.7232
  104MOL0     C13971  10.030   5.303   9.127 -0.9238  0.8167  1.1162
  104MOL0     C13972   9.989   5.297   9.272  0.8394  0.4683 -0.0452
  104MOL0     H13973  10.434   5.215   9.434  0.4332  0.2144  1.5816
  104MOL0     H13974  10.671   5.252   9.517  1.7920  0.8411 -0.7192
  104MOL0     H13975  10.999   5.167   9.235 -0.9691 -2.2547  0.3044
  104MOL0     H13976  10.985   5.341   9.182 -1.8385  1.5608  2.4508
  104MOL0     H13977  11.142   5.218   9.416 -2.3911  0.8362  1.3917
  104MOL0     H13978  11.123   5.391   9.396 -0.4102 -0.3838  0.6055
  104MOL0     H13979  11.222   5.371   9.161  0.3028  1.3027  1.9050
  104MOL0     H13980  11.251   5.196   9.195 -0.2867 -0.9971  2.0699
  104MOL0     H13981  11.358   5.439   9.340  0.1273  0.1374 -0.8752
  104MOL0     H13982  11.413   5.290   9.395  1.8458  1.7031  0.4198
  104MOL0     H13983  11.445   5.311   9.100  0.1433 -1.4094  0.3535
  104MOL0     H13984  11.521   5.444   9.189 -1.3053  1.0122 -0.7381
  104MOL0     H13985  11.652   5.267   9.315  0.3607 -2.1495  0.1793
  104MOL0     H13986  11.554   5.140   9.250 -1.6843 -0.0416 -0.5102
  104MOL0     H13987  11.798   5.165   9.151 -1.5273 -2.7260  1.1360
  104MOL0     H13988  11.733   5.320   9.091  0.9204 -0.7914 -1.2506
  104MOL0     H13989  11.624   5.047   9.033  1.7872  0.1670  1.9780
  104MOL0     H13990  11.559   5.202   8.954 -1.0189 -0.8070  1.4941
  104MOL0     H13991  11.786   4.913   8.902 -1.3390  2.0426  3.7113
  104MOL0     H13992  12.099   4.995   8.681  2.5455 -4.7608 -0.6141
  104MOL0     H13993  12.027   4.860   8.770  0.5962 -0.5948  0.3333
  104MOL0     H13994  11.864   4.811   8.603  0.1220  1.4661  4.1747
  104MOL0     H13995  11.897   4.965   8.513  1.6432  0.6836  0.4366
  104MOL0     H13996  12.145   4.875   8.504  0.6296 -1.7076  0.7228
  104MOL0     H13997  12.038   4.837   8.378  1.1445  2.4154  0.1068
  104MOL0     H13998  12.124   4.622   8.440  0.9280 -0.0736  0.2714
  104MOL0     H13999  11.957   4.621   8.507 -2.6048  4.4753 -1.3457
  104MOL0     H14000  12.222   4.668   8.877 -2.0170  2.6283 -1.6608
  104MOL0     H14001  12.459   4.640   8.930 -0.7949  3.3540  1.4632
  104MOL0     H14002  12.848   4.504   8.812 -1.5228  1.5797 -0.1837
  104MOL0     H14003  13.065   4.438   8.923 -0.0283  0.4416  0.9454
  104MOL0     H14004  13.288   4.477   8.919  2.6515 -2.3713  1.2103
  104MOL0     H14005  13.313   4.651   8.907 -1.9683  0.0025 -0.4762
  104MOL0     H14006  13.465   4.593   9.123  2.4809  1.1381 -1.5898
  104MOL0     H14007  13.437   4.429   9.064 -1.6756 -0.2368 -0.0220
  104MOL0     H14008  13.516   4.551   8.834  2.4705 -2.3547  0.6169
  104MOL0     H14009  13.564   4.685   8.936 -2.3373  0.9665  0.8980
  104MOL0     H14010  13.662   4.395   8.954  0.2545 -0.1756  0.0492
  104MOL0     H14011  13.702   4.512   9.077 -1.0688 -1.7925  1.0206
  104MOL0     H14012  13.892   4.460   8.904  0.5205  1.3006 -1.0171
  104MOL0     H14013  13.862   4.625   8.933 -0.6973  0.6027 -0.5030
  104MOL0     H14014  13.721   4.501   8.691  0.0661 -0.0881 -2.1423
  104MOL0     H14015  13.759   4.671   8.730  2.9715  0.5751 -3.1570
  104MOL0     H14016  13.947   4.449   8.664  0.8341 -0.0107 -2.4116
  104MOL0     H14017  14.004   4.611   8.724  1.0477  0.3139  1.1812
  104MOL0     H14018  13.949   4.511   8.463  0.2868 -0.4061  0.2326
  104MOL0     H14019  13.817   4.623   8.503  0.1088 -0.0992  0.4971
  104MOL0     H14020  13.072   4.793   9.143  0.3704 -0.7732  0.7135
  104MOL0     H14021  12.836   4.858   9.056  0.6088 -0.3805  1.6929
  104MOL0     H14022  12.542   4.711   8.510 -1.3404 -0.4001 -1.1285
  104MOL0     H14023  12.308   4.684   8.455 -3.5262  0.9678  1.2717
  104MOL0     H14024  10.807   5.220   9.096 -2.7025 -0.6170 -2.3976
  104MOL0     H14025  10.580   5.145   9.041 -1.3570 -3.3880  1.2841
  104MOL0     H14026  10.301   5.251   8.919  0.6140  1.7992 -0.1185
  104MOL0     H14027  10.132   5.273   8.766 -1.6050 -2.3087  0.5556
  104MOL0     H14028   9.773   5.198   8.681  0.6152 -0.1680  2.4517
  104MOL0     H14029   9.950   5.183   8.692  1.2748  1.6592  1.9342
  104MOL0     H14030   9.900   5.297   8.478  1.4046 -0.0032 -0.5625
  104MOL0     H14031   9.973   5.412   8.589 -0.1017 -0.6258  0.9439
  104MOL0     H14032   9.781   5.523   8.498  0.7516 -0.8250 -0.4894
  104MOL0     H14033   9.756   5.489   8.664  3.6421 -0.0597 -0.7857
  104MOL0     H14034   9.643   5.290   8.475  2.2494  1.5103 -3.9022
  104MOL0     H14035   9.578   5.340   8.633  2.1523 -3.4851 -0.5285
  104MOL0     H14036   9.427   5.651   8.395  0.2103  0.6720  1.3120
  104MOL0     H14037   9.826   5.339   9.064  0.0852 -0.3118  1.3824
  104MOL0     H14038  10.000   5.395   9.319 -0.6497  0.7513 -0.2540
  104MOL0     H14039   9.888   5.257   9.285  1.1901 -0.1819  0.7659
  104MOL0     H14040  10.053   5.223   9.321 -0.6409 -2.2362 -1.9325
  105MOL0     O14041   6.931   4.188   2.396  0.7372 -0.2338 -0.0835
  105MOL0     C14042   6.880   4.097   2.464  0.3799  0.5807 -0.1651
  105MOL0     O14043   6.949   4.017   2.555  0.1986  0.0247 -0.1945
  105MOL0     C14044   7.085   4.034   2.582  0.2201  0.2090  0.7237
  105MOL0     C14045   7.126   4.027   2.716  0.1095 -0.3356  0.4841
  105MOL0     C14046   7.265   4.046   2.745 -0.7720 -0.9027  0.6020
  105MOL0     C14047   7.365   4.069   2.641 -0.3163  0.1365  0.4279
  105MOL0     O14048   7.501   4.097   2.647 -1.0326 -0.2054 -0.2785
  105MOL0     C14049   7.555   4.118   2.785 -0.9062 -0.7764  0.8760
  105MOL0     C14050   7.703   4.110   2.780 -0.0731 -0.0002 -0.5545
  105MOL0     C14051   7.770   4.237   2.745 -0.5975 -0.8062  0.2959
  105MOL0     C14052   7.921   4.238   2.758  0.2598  0.6828 -0.0323
  105MOL0     C14053   7.987   4.350   2.680 -0.1810 -0.5082  0.7588
  105MOL0     C14054   8.140   4.350   2.680  0.7186  0.2517 -0.9088
  105MOL0     C14055   8.194   4.362   2.824  0.1989 -0.8524 -0.6219
  105MOL0     C14056   8.276   4.498   2.832 -0.7261  0.7672  0.3853
  105MOL0     N14057   8.363   4.485   2.953  0.3405 -0.0161  0.2511
  105MOL0     C14058   8.501   4.489   2.955 -0.9043  0.0891 -0.3871
  105MOL0     C14059   8.539   4.472   3.085  0.3683  0.0921  0.2251
  105MOL0     C14060   8.671   4.482   3.148  0.9543 -0.3633  0.2760
  105MOL0     C14061   8.771   4.489   3.027  0.1080 -0.1946  0.0965
  105MOL0     C14062   8.901   4.506   3.094 -0.4387 -0.5771  0.2824
  105MOL0     C14063   9.014   4.453   3.009 -0.6302 -0.6357  0.6205
  105MOL0     O14064   9.141   4.482   3.080 -0.0135  0.3494 -0.1699
  105MOL0     C14065   9.249   4.439   3.008 -0.1971 -0.1968  0.1495
  105MOL0     C14066   9.380   4.448   3.064 -0.6055 -0.3122 -0.7669
  105MOL0     C14067   9.500   4.416   2.993 -0.4594  1.0402  0.0379
  105MOL0     C14068   9.489   4.377   2.858  0.8008  0.3438  0.4339
  105MOL0     C14069   9.609   4.317   2.787 -0.2644  0.0975 -0.3933
  105MOL0     O14070   9.575   4.277   2.657 -0.2269 -0.2028 -0.2967
  105MOL0     C14071   9.681   4.222   2.595 -0.6795  0.1106  0.1129
  105MOL0     C14072   9.717   4.091   2.600 -0.6671 -0.3940  0.2017
  105MOL0     C14073   9.821   4.042   2.523  0.3791 -0.3536  0.4315
  105MOL0     C14074   9.903   4.127   2.439 -0.1608  0.1095 -0.1486
  105MOL0     O14075  10.003   4.089   2.354 -0.0327  0.4165  0.4630
  105MOL0     C14076  10.107   4.005   2.398  0.9858 -0.3505 -0.0692
  105MOL0     C14077  10.243   4.045   2.351 -0.4403  0.0179 -0.4178
  105MOL0     C14078  10.292   4.186   2.410 -0.4056 -0.3133 -0.6328
  105MOL0     C14079  10.448   4.185   2.415  0.3076 -0.8104 -0.2522
  105MOL0     C14080  10.489   4.319   2.478  0.1521 -0.6368 -0.2279
  105MOL0     C14081  10.503   4.329   2.633  0.2620  1.0290 -0.6354
  105MOL0     C14082  10.600   4.223   2.690 -0.9179 -0.0134  0.7137
  105MOL0     C14083  10.642   4.253   2.837 -1.0911 -0.0857  0.2512
  105MOL0    Cl14084  10.759   4.131   2.902 -0.3536 -0.0382 -0.2853
  105MOL0     C14085   9.862   4.256   2.437 -0.4596 -0.0028 -1.1387
  105MOL0     C14086   9.753   4.306   2.503  0.3186 -0.6537  0.6245
  105MOL0     O14087   9.722   4.320   2.838 -0.0303 -0.2447 -1.1814
  105MOL0     C14088   9.357   4.359   2.797 -0.5818  0.7716 -0.1280
  105MOL0     C14089   9.240   4.383   2.874 -0.3527 -0.1631 -0.0739
  105MOL0     N14090   8.422   4.447   3.152  0.2596 -1.0612 -0.7186
  105MOL0     N14091   8.319   4.451   3.078  0.4898  0.7146  0.3440
  105MOL0     C14092   7.311   4.082   2.514 -0.4076  0.8584 -0.5569
  105MOL0     C14093   7.182   4.060   2.479  0.3360  0.8225 -0.0113
  105MOL0     C14094   6.737   4.077   2.463  0.4949  0.6607 -0.5298
  105MOL0     C14095   6.685   4.070   2.327 -0.2928 -0.0186 -0.6940
  105MOL0     C14096   6.545   4.062   2.305  0.2346 -0.4544 -0.7140
  105MOL0     C14097   6.457   4.062   2.421 -0.3587  0.2542 -0.5014
  105MOL0     O14098   6.322   4.060   2.412  0.5713 -0.1281  0.5900
  105MOL0     C14099   6.260   3.974   2.307 -0.9800  0.8117  0.3558
  105MOL0     C14100   6.113   3.946   2.343 -0.6515 -0.2851 -0.3366
  105MOL0     C14101   6.050   3.874   2.225  0.0294 -0.4765 -0.3887
  105MOL0     C14102   6.049   3.952   2.087  0.2031  0.0987 -0.4699
  105MOL0     C14103   5.965   3.887   1.988 -0.0227  0.5669 -0.5576
  105MOL0     C14104   5.906   3.815   1.904 -0.4603 -0.4849 -0.0395
  105MOL0     C14105   6.520   4.054   2.548 -1.0077  0.5089  0.3101
  105MOL0     C14106   6.654   4.056   2.574 -0.2435 -0.2335 -0.3429
  105MOL0     C14107   6.701   4.039   2.720  0.9474 -1.1182  0.1038
  105MOL0     H14108   7.058   4.002   2.797 -0.2235  2.5779  1.2131
  105MOL0     H14109   7.282   4.028   2.851 -3.3114  0.4316  1.3185
  105MOL0     H14110   7.521   4.212   2.830  0.4633 -0.0108  0.3613
  105MOL0     H14111   7.526   4.024   2.833 -1.2011 -0.1027  2.0702
  105MOL0     H14112   7.741   4.024   2.723  2.8366 -0.8546  2.3454
  105MOL0     H14113   7.733   4.079   2.881 -2.0642  2.1846  0.7964
  105MOL0     H14114   7.739   4.314   2.815  1.9566  0.8902 -0.3160
  105MOL0     H14115   7.726   4.267   2.649 -1.1023 -3.7120 -0.4856
  105MOL0     H14116   7.949   4.229   2.863 -2.1860 -1.1875  0.5445
  105MOL0     H14117   7.952   4.148   2.706  0.6710 -0.7713  2.5620
  105MOL0     H14118   7.951   4.342   2.577 -1.5908  1.5769  1.0327
  105MOL0     H14119   7.949   4.449   2.708 -0.9734 -0.4572 -0.4196
  105MOL0     H14120   8.173   4.259   2.631 -2.9845 -0.4757 -2.3514
  105MOL0     H14121   8.171   4.436   2.619  2.5995 -0.3677 -0.8880
  105MOL0     H14122   8.260   4.279   2.850 -0.6261 -0.4040  3.6248
  105MOL0     H14123   8.120   4.358   2.905 -0.1277 -1.5658 -0.9549
  105MOL0     H14124   8.339   4.509   2.743 -0.6614  0.0225  0.3309
  105MOL0     H14125   8.212   4.585   2.847 -1.9027 -0.1589  0.8785
  105MOL0     H14126   8.555   4.498   2.861 -1.0101 -1.0887 -0.5766
  105MOL0     H14127   8.666   4.579   3.198  1.8824 -0.4512  0.5527
  105MOL0     H14128   8.682   4.399   3.219 -1.2268 -2.9094 -2.0907
  105MOL0     H14129   8.760   4.392   2.977  2.7763 -0.9586  0.8502
  105MOL0     H14130   8.760   4.582   2.968 -0.0492  0.2157  0.7649
  105MOL0     H14131   8.904   4.437   3.179 -0.8591 -0.6440  0.2492
  105MOL0     H14132   8.923   4.610   3.120  2.3167 -0.9927 -0.1752
  105MOL0     H14133   9.008   4.510   2.916  0.0972  3.7957  3.0338
  105MOL0     H14134   9.008   4.347   2.980  1.1667 -1.1399  1.8899
  105MOL0     H14135   9.386   4.499   3.160 -1.8651  2.1384 -1.8992
  105MOL0     H14136   9.596   4.414   3.043 -1.3590  1.9275  1.9434
  105MOL0     H14137   9.660   4.019   2.658  0.9814 -2.1747 -0.2964
  105MOL0     H14138   9.849   3.938   2.535 -1.3442 -0.5768  3.5788
  105MOL0     H14139  10.106   4.002   2.508 -2.0750  1.6585  0.0985
  105MOL0     H14140  10.101   3.902   2.361 -1.1777 -0.6372  0.9378
  105MOL0     H14141  10.313   3.965   2.380 -2.2215 -0.9595  1.4134
  105MOL0     H14142  10.241   4.046   2.242 -1.8039 -1.9843 -0.4669
  105MOL0     H14143  10.274   4.266   2.338  7.0321  1.5849 -1.2049
  105MOL0     H14144  10.254   4.202   2.512  1.5520 -3.1916  0.6839
  105MOL0     H14145  10.482   4.161   2.314  1.6028 -2.0606  0.4334
  105MOL0     H14146  10.484   4.107   2.484  0.8712 -2.0428 -1.8781
  105MOL0     H14147  10.425   4.402   2.447 -0.1395  0.1959  2.3802
  105MOL0     H14148  10.590   4.331   2.437  0.4101  0.7607  0.7608
  105MOL0     H14149  10.531   4.428   2.670 -0.7697  1.3240 -0.6231
  105MOL0     H14150  10.403   4.315   2.674 -0.5019 -0.2353 -2.7397
  105MOL0     H14151  10.685   4.225   2.622 -2.1358  0.7345 -0.8529
  105MOL0     H14152  10.546   4.129   2.689 -0.6521 -0.2603 -2.6057
  105MOL0     H14153  10.686   4.353   2.843 -0.6245 -0.2635 -0.0866
  105MOL0     H14154  10.554   4.263   2.901 -1.3860  0.8155 -0.2714
  105MOL0     H14155   9.917   4.332   2.382  0.2992  0.3040  0.0096
  105MOL0     H14156   9.736   4.413   2.495 -1.2001 -0.5849  3.4339
  105MOL0     H14157   9.351   4.317   2.697 -0.1193  4.1536 -1.7116
  105MOL0     H14158   9.145   4.363   2.824  0.1871 -0.1409 -1.1259
  105MOL0     H14159   7.371   4.111   2.428  1.6982  0.8055  0.8205
  105MOL0     H14160   7.163   4.087   2.376 -0.7271 -0.4565 -0.1864
  105MOL0     H14161   6.751   4.092   2.244 -0.4651  0.0104 -0.8261
  105MOL0     H14162   6.508   4.084   2.205  0.4387  2.5716 -0.2279
  105MOL0     H14163   6.309   3.879   2.285 -0.0123  0.6130  3.0092
  105MOL0     H14164   6.261   4.022   2.208 -1.0309 -1.0847 -0.5936
  105MOL0     H14165   6.053   4.036   2.361 -1.7617 -0.9747 -0.4501
  105MOL0     H14166   6.107   3.879   2.429 -1.5755 -1.0768 -0.9981
  105MOL0     H14167   5.946   3.849   2.245 -0.2590 -0.5015 -1.8270
  105MOL0     H14168   6.105   3.781   2.207  2.2056  0.8133 -0.8809
  105MOL0     H14169   6.020   4.057   2.102  1.8218  0.2495  2.5507
  105MOL0     H14170   6.151   3.950   2.048  1.0476  2.0263  1.3947
  105MOL0     H14171   5.846   3.767   1.830 -0.3919 -1.2482  0.3913
  105MOL0     H14172   6.458   4.042   2.637 -0.4512  1.9890  0.9210
  105MOL0     H14173   6.799   4.086   2.732  1.3203 -1.9204  0.2926
  105MOL0     H14174   6.627   4.059   2.797  2.7046  0.8899  1.3679
  105MOL0     H14175   6.736   3.938   2.743  1.0328 -1.0412  0.3150
  106MOL0     O14176   5.167   0.038   1.598  0.6509  0.2084  0.7909
  106MOL0     C14177   5.107  -0.052   1.655  1.2301 -0.3288 -0.9415
  106MOL0     O14178   5.163  -0.130   1.752 -0.7147 -0.6921 -0.4189
  106MOL0     C14179   5.296  -0.143   1.769 -0.2715  0.3271  1.0834
  106MOL0     C14180   5.383  -0.144   1.656  0.0568  0.1604 -1.3788
  106MOL0     C14181   5.525  -0.147   1.680  0.6259 -0.4791 -0.2367
  106MOL0     C14182   5.574  -0.169   1.808 -0.5296  0.5271 -0.1519
  106MOL0     O14183   5.707  -0.193   1.831 -0.4205 -0.4778 -0.2177
  106MOL0     C14184   5.801  -0.145   1.731 -0.7070  1.1165 -0.7506
  106MOL0     C14185   5.944  -0.165   1.772  0.1063  0.1043  0.0538
  106MOL0     C14186   6.048  -0.111   1.670 -0.9756 -0.0863  1.1304
  106MOL0     C14187   6.171  -0.204   1.699 -0.5788 -0.7766  0.3318
  106MOL0     C14188   6.299  -0.161   1.627 -0.6536  0.1833  0.0370
  106MOL0     C14189   6.414  -0.265   1.641  0.1246 -0.6792 -0.1822
  106MOL0     C14190   6.392  -0.390   1.554 -0.1659  0.0458 -0.2001
  106MOL0     C14191   6.505  -0.495   1.560  0.5423 -0.5100  0.3585
  106MOL0     N14192   6.618  -0.448   1.476 -0.2426 -0.8211  0.5207
  106MOL0     C14193   6.604  -0.399   1.344 -0.0311  0.3381 -0.4517
  106MOL0     C14194   6.730  -0.361   1.309 -0.2182  0.1132  0.0214
  106MOL0     C14195   6.757  -0.285   1.186  0.2957 -0.7380  1.1167
  106MOL0     C14196   6.897  -0.218   1.197  0.7836 -0.1852 -0.2965
  106MOL0     C14197   6.945  -0.156   1.057  0.4120 -0.5773 -0.1985
  106MOL0     C14198   7.093  -0.109   1.050 -0.5766  0.6326 -0.6037
  106MOL0     O14199   7.141  -0.022   1.148  0.1935 -0.3718 -0.2836
  106MOL0     C14200   7.278  -0.023   1.167  1.1749  0.0671  0.2004
  106MOL0     C14201   7.377  -0.037   1.069 -0.3047  0.2408 -0.8275
  106MOL0     C14202   7.515  -0.030   1.100  0.5469 -0.0566 -0.3823
  106MOL0     C14203   7.555  -0.010   1.233 -1.3914 -0.6372  0.2741
  106MOL0     C14204   7.694  -0.009   1.274  0.3508 -0.3663 -0.5872
  106MOL0     O14205   7.780  -0.050   1.185 -0.1312  0.1699  0.0931
  106MOL0     C14206   7.918  -0.037   1.189  0.2329 -0.1870  0.8876
  106MOL0     C14207   7.981  -0.096   1.082 -0.2925  0.0419 -0.1977
  106MOL0     C14208   8.122  -0.098   1.072 -0.0078  0.6360  0.4871
  106MOL0     C14209   8.206  -0.041   1.168 -0.7548 -0.2477 -0.3487
  106MOL0     O14210   8.341  -0.038   1.144  0.3841 -0.0967 -0.4317
  106MOL0     C14211   8.409  -0.154   1.085  0.0634 -0.7142 -0.5271
  106MOL0     C14212   8.544  -0.149   1.136  1.0419 -0.7218  0.1219
  106MOL0     C14213   8.616  -0.286   1.136 -0.0204 -0.8979  0.1258
  106MOL0     C14214   8.765  -0.268   1.149 -0.2514  0.1087 -0.0089
  106MOL0     C14215   8.824  -0.173   1.249  0.5544  0.0758 -0.8381
  106MOL0     C14216   8.974  -0.189   1.269  0.5134  0.3296 -0.1243
  106MOL0     C14217   9.029  -0.085   1.369  0.3198 -0.8776  0.6054
  106MOL0     C14218   9.170  -0.094   1.408 -0.4796 -0.2388  0.0512
  106MOL0    Cl14219   9.291  -0.028   1.300 -0.2854  0.2111 -0.3683
  106MOL0     C14220   8.141   0.028   1.271  0.3020  0.2535  0.4709
  106MOL0     C14221   8.001   0.031   1.284  1.1939 -0.0632  0.1893
  106MOL0     O14222   7.721   0.015   1.394 -0.5360 -0.7069 -1.2936
  106MOL0     C14223   7.454  -0.003   1.330 -0.2807 -0.5286  0.0754
  106MOL0     C14224   7.321  -0.002   1.299  0.5049 -0.6621 -0.0395
  106MOL0     N14225   6.807  -0.369   1.421 -0.6715  0.3901 -0.4913
  106MOL0     N14226   6.748  -0.423   1.526 -0.0570 -0.0088  0.1531
  106MOL0     C14227   5.485  -0.168   1.911 -0.0110 -0.8354  0.6457
  106MOL0     C14228   5.345  -0.155   1.897  0.0610 -0.7711 -0.5002
  106MOL0     C14229   4.959  -0.054   1.654 -0.4169 -0.6387  0.1012
  106MOL0     C14230   4.887  -0.179   1.666  0.2807  0.2609 -0.0840
  106MOL0     C14231   4.744  -0.183   1.665  0.2412 -0.4609  1.4329
  106MOL0     C14232   4.669  -0.074   1.639 -0.3367  0.2106  0.5905
  106MOL0     O14233   4.533  -0.081   1.655  0.4625  0.1754 -0.6113
  106MOL0     C14234   4.445   0.022   1.604 -0.5430 -0.6606 -0.8412
  106MOL0     C14235   4.297  -0.017   1.602 -0.4805 -0.5774  0.0781
  106MOL0     C14236   4.245  -0.067   1.737 -0.8376 -0.9122 -0.7521
  106MOL0     C14237   4.103  -0.124   1.728 -0.3676  0.6108 -0.5331
  106MOL0     C14238   4.034  -0.145   1.857 -0.5927 -0.0228  0.2596
  106MOL0     C14239   3.976  -0.146   1.962 -0.2535 -0.3508 -0.1688
  106MOL0     C14240   4.738   0.047   1.628 -0.2050 -0.3571 -0.0540
  106MOL0     C14241   4.880   0.068   1.633  0.1757 -0.3767  0.0524
  106MOL0     C14242   4.946   0.201   1.594 -0.0098  0.1092 -0.1450
  106MOL0     H14243   5.347  -0.163   1.555 -1.2916 -2.6100 -0.4607
  106MOL0     H14244   5.580  -0.177   1.591 -0.2807 -1.2855 -0.5434
  106MOL0     H14245   5.795  -0.196   1.634  1.7279  0.2486 -0.4991
  106MOL0     H14246   5.786  -0.040   1.706  1.5195  0.9483 -3.1672
  106MOL0     H14247   5.954  -0.273   1.781 -2.2507 -0.0573  1.5202
  106MOL0     H14248   5.959  -0.118   1.870  0.7248 -1.6696  0.8394
  106MOL0     H14249   6.072  -0.007   1.695 -0.8307  0.5010 -1.2137
  106MOL0     H14250   6.022  -0.113   1.564  2.2106 -1.0237  0.2521
  106MOL0     H14251   6.195  -0.211   1.805  0.1462 -0.5617  0.1880
  106MOL0     H14252   6.147  -0.305   1.663  0.3853 -1.6659  2.0611
  106MOL0     H14253   6.278  -0.140   1.522 -0.2774 -0.6481 -0.2106
  106MOL0     H14254   6.328  -0.071   1.682 -0.4293  0.3155 -0.2900
  106MOL0     H14255   6.499  -0.207   1.605 -0.4850  1.2573  1.3349
  106MOL0     H14256   6.434  -0.296   1.744  1.2987 -1.0660 -0.5111
  106MOL0     H14257   6.363  -0.355   1.454 -2.6349  0.1876  0.5067
  106MOL0     H14258   6.298  -0.442   1.577 -1.6614  1.1374 -3.2950
  106MOL0     H14259   6.536  -0.523   1.661 -0.1950 -1.2177  0.4033
  106MOL0     H14260   6.467  -0.584   1.510  2.0373  0.4902 -2.8214
  106MOL0     H14261   6.512  -0.403   1.286 -0.9922  0.7349  0.9998
  106MOL0     H14262   6.756  -0.361   1.108 -1.5556 -0.9012  1.2514
  106MOL0     H14263   6.683  -0.206   1.167 -0.5493 -1.5827  0.7722
  106MOL0     H14264   6.891  -0.134   1.266 -0.6164 -1.9583  1.8879
  106MOL0     H14265   6.954  -0.304   1.235 -2.6635 -2.1275  0.9379
  106MOL0     H14266   6.889  -0.065   1.032 -0.6674 -1.1868 -0.0680
  106MOL0     H14267   6.940  -0.230   0.977  3.0470 -1.1025  0.0439
  106MOL0     H14268   7.106  -0.073   0.947  1.7931 -1.8821 -1.3025
  106MOL0     H14269   7.158  -0.197   1.051  0.0581  1.0918  0.5201
  106MOL0     H14270   7.348  -0.043   0.964  0.6546  0.6793 -1.1274
  106MOL0     H14271   7.578  -0.042   1.013 -1.2703  1.0748 -1.9284
  106MOL0     H14272   7.919  -0.141   1.005 -0.3659  1.7835 -1.2027
  106MOL0     H14273   8.163  -0.141   0.981 -0.2979 -2.2415  1.6166
  106MOL0     H14274   8.354  -0.245   1.109 -0.8833  0.0933  0.4569
  106MOL0     H14275   8.405  -0.148   0.976 -2.3434 -2.4152 -0.6039
  106MOL0     H14276   8.598  -0.073   1.078 -0.8488  0.4503 -0.2055
  106MOL0     H14277   8.533  -0.114   1.239  0.1207  0.1481 -0.2596
  106MOL0     H14278   8.569  -0.339   1.219 -2.1163  1.2590  0.4306
  106MOL0     H14279   8.583  -0.337   1.045 -0.3801  0.0072 -0.2671
  106MOL0     H14280   8.808  -0.232   1.055  0.0768  0.3693  0.2416
  106MOL0     H14281   8.804  -0.370   1.160 -1.0741 -0.2011  0.0993
  106MOL0     H14282   8.776  -0.188   1.346  2.5019  1.1215  0.3519
  106MOL0     H14283   8.809  -0.070   1.216  1.4106  0.6951  0.5810
  106MOL0     H14284   9.003  -0.285   1.312 -0.8812 -1.3283 -2.6640
  106MOL0     H14285   9.021  -0.187   1.170  1.6252  2.7723  0.3831
  106MOL0     H14286   8.974  -0.079   1.463  1.4845 -2.5314  1.4277
  106MOL0     H14287   9.008   0.018   1.336  1.1728 -0.8396  0.1634
  106MOL0     H14288   9.187  -0.053   1.507 -1.1466 -0.6073  0.3293
  106MOL0     H14289   9.196  -0.197   1.431  1.3713  0.3816  0.8831
  106MOL0     H14290   8.184   0.083   1.354 -0.4840  2.9369 -0.7972
  106MOL0     H14291   7.951   0.083   1.365  0.5134  0.8170 -0.7699
  106MOL0     H14292   7.484   0.016   1.432  1.9429  1.1639 -0.8280
  106MOL0     H14293   7.248   0.006   1.379  0.0366  2.3063 -0.6728
  106MOL0     H14294   5.526  -0.199   2.007  0.7050 -2.8342 -0.2437
  106MOL0     H14295   5.279  -0.157   1.982  0.1557  1.9966 -0.2838
  106MOL0     H14296   4.939  -0.271   1.690 -1.1441 -0.0862  1.9443
  106MOL0     H14297   4.696  -0.278   1.689 -0.8009  0.1440  1.8000
  106MOL0     H14298   4.480   0.043   1.503  0.1279  1.0956 -0.2862
  106MOL0     H14299   4.445   0.122   1.648 -0.0958  0.4032 -3.1249
  106MOL0     H14300   4.287  -0.093   1.524 -1.2573  1.9067 -2.4278
  106MOL0     H14301   4.252   0.071   1.555 -0.5737 -0.5634  0.1931
  106MOL0     H14302   4.245   0.021   1.802  1.7067 -0.7777 -0.8402
  106MOL0     H14303   4.314  -0.130   1.793 -0.3687  0.4878  0.3069
  106MOL0     H14304   4.038  -0.059   1.668 -0.0017 -1.4033 -3.2724
  106MOL0     H14305   4.120  -0.223   1.686  0.1047  0.0600  0.8965
  106MOL0     H14306   3.939  -0.151   2.063  0.8981 -1.8382  0.2041
  106MOL0     H14307   4.677   0.135   1.613  1.9468  1.5157  1.4457
  106MOL0     H14308   4.989   0.199   1.494 -0.0115 -4.3202 -0.2540
  106MOL0     H14309   4.873   0.283   1.603 -0.6835 -0.6606  2.3123
  106MOL0     H14310   5.031   0.209   1.662  1.1796  1.3290 -1.7064
  107MOL0     O14311   5.241   3.326  10.608  0.1945  0.0567 -0.0129
  107MOL0     C14312   5.244   3.219  10.674 -0.3564 -0.1422  0.9523
  107MOL0     O14313   5.368   3.158  10.700  0.8751 -0.0294  0.4156
  107MOL0     C14314   5.485   3.228  10.709 -0.6092 -0.2497 -0.4985
  107MOL0     C14315   5.606   3.163  10.707 -1.0567 -0.7423  0.3607
  107MOL0     C14316   5.730   3.227  10.736 -0.1219 -0.1091 -0.5085
  107MOL0     C14317   5.731   3.357  10.776  0.6021 -0.8553 -0.8762
  107MOL0     O14318   5.844   3.419  10.832 -0.7713 -0.0215 -0.7201
  107MOL0     C14319   5.874   3.546  10.767  0.3740 -0.7385 -0.5242
  107MOL0     C14320   6.016   3.577  10.811 -0.2653 -0.9734 -0.6009
  107MOL0     C14321   6.124   3.492  10.735  0.3207  0.3278  0.1126
  107MOL0     C14322   6.268   3.534  10.765 -0.0915 -0.1692 -0.5554
  107MOL0     C14323   6.372   3.446  10.687 -0.1072 -0.3211 -0.4560
  107MOL0     C14324   6.511   3.514  10.695  0.5962 -1.0699  0.2101
  107MOL0     C14325   6.619   3.431  10.626 -0.1891  0.6469  0.0697
  107MOL0     C14326   6.759   3.486  10.658 -0.4150 -0.3986 -1.2470
  107MOL0     N14327   6.862   3.387  10.632  1.3702  0.0136 -0.1764
  107MOL0     C14328   6.994   3.391  10.675  0.0349 -0.1998  0.6789
  107MOL0     C14329   7.055   3.297  10.600 -0.6621 -0.3016  0.4990
  107MOL0     C14330   7.203   3.268  10.599  0.0906  0.2616  0.0869
  107MOL0     C14331   7.261   3.318  10.470 -0.2887  0.7921  0.8651
  107MOL0     C14332   7.397   3.386  10.487 -0.3679 -0.0114 -0.6917
  107MOL0     C14333   7.510   3.301  10.554 -0.4135 -0.4640 -0.2203
  107MOL0     O14334   7.585   3.398  10.633 -0.3425  0.1673  0.1844
  107MOL0     C14335   7.725   3.385  10.621 -0.5201 -0.0707  0.2084
  107MOL0     C14336   7.798   3.324  10.728  0.1968 -0.4142  0.5741
  107MOL0     C14337   7.936   3.319  10.722 -1.0969  0.5337  0.2297
  107MOL0     C14338   8.010   3.364  10.611  0.3366  0.1306  0.3857
  107MOL0     C14339   8.154   3.360  10.599 -0.9275  1.1127  0.4441
  107MOL0     O14340   8.203   3.438  10.493  0.1108  0.5635  0.6805
  107MOL0     C14341   8.333   3.427  10.461 -0.6745  0.1226  0.2724
  107MOL0     C14342   8.365   3.391  10.328 -0.6494 -0.1307  0.4828
  107MOL0     C14343   8.503   3.393  10.289  0.2028  0.2030 -0.1366
  107MOL0     C14344   8.601   3.454  10.368  0.2234 -0.5475  0.5322
  107MOL0     O14345   8.730   3.500  10.336  0.3842  0.6553  1.4277
  107MOL0     C14346   8.767   3.465  10.197 -0.1792  0.3190 -0.4215
  107MOL0     C14347   8.891   3.523  10.148 -0.1429  0.6439 -0.9383
  107MOL0     C14348   8.920   3.670  10.187  0.2009  0.2464  0.6008
  107MOL0     C14349   9.063   3.710  10.171 -0.4617  0.7715  0.3814
  107MOL0     C14350   9.106   3.854  10.207 -0.5439 -0.6738 -0.5129
  107MOL0     C14351   9.262   3.878  10.177  0.6434  0.0467  0.3340
  107MOL0     C14352   9.308   4.016  10.234  0.5251 -0.2298 -0.0309
  107MOL0     C14353   9.442   4.050  10.175 -0.8487 -0.0118 -0.3478
  107MOL0    Cl14354   9.557   3.950  10.259  0.1833  0.6259 -0.4512
  107MOL0     C14355   8.565   3.482  10.496 -1.1605 -0.8769  0.1000
  107MOL0     C14356   8.432   3.473  10.546  1.0465  0.5352  0.8212
  107MOL0     O14357   8.218   3.308  10.691  0.0269  0.9021  0.9640
  107MOL0     C14358   7.937   3.425  10.505  0.8318 -0.9415  0.8383
  107MOL0     C14359   7.798   3.429  10.506  1.0951  0.6905  0.0560
  107MOL0     N14360   6.957   3.231  10.519 -0.7795 -0.2264  0.4796
  107MOL0     N14361   6.845   3.281  10.548 -0.0718 -0.0827  0.6433
  107MOL0     C14362   5.609   3.429  10.780 -0.3168 -0.1369  0.4401
  107MOL0     C14363   5.494   3.361  10.751 -0.2440 -0.7922 -0.4660
  107MOL0     C14364   5.125   3.130  10.676  0.2542  0.1970  0.0122
  107MOL0     C14365   5.138   3.018  10.758 -0.2140 -0.0961 -0.2505
  107MOL0     C14366   5.038   2.916  10.764  0.5725 -1.0550  0.6288
  107MOL0     C14367   4.918   2.936  10.695  0.2750 -0.3522  0.2486
  107MOL0     O14368   4.821   2.833  10.706  0.2675  0.4086 -0.9293
  107MOL0     C14369   4.682   2.856  10.685  0.9832  0.0209  0.2688
  107MOL0     C14370   4.593   2.772  10.782  0.6328  0.2469 -0.7614
  107MOL0     C14371   4.632   2.624  10.770  1.2241  1.4266 -1.1199
  107MOL0     C14372   4.529   2.522  10.823 -0.0067  0.3918  0.0499
  107MOL0     C14373   4.482   2.537  10.961 -0.1570 -0.4107 -0.4902
  107MOL0     C14374   4.439   2.544  11.072 -0.2429  0.1962  0.1740
  107MOL0     C14375   4.900   3.051  10.610  0.3916 -0.1364 -0.3398
  107MOL0     C14376   5.005   3.146  10.602 -0.2391 -0.7854  0.8718
  107MOL0     C14377   4.982   3.264  10.509  0.4976  0.3019 -0.2232
  107MOL0     H14378   5.611   3.059  10.677 -1.2817 -0.5584 -0.3274
  107MOL0     H14379   5.825   3.175  10.730 -0.7681 -1.1629 -2.9099
  107MOL0     H14380   5.875   3.536  10.658  1.5210 -3.7297 -0.3521
  107MOL0     H14381   5.815   3.628  10.806  2.9021  0.2222  1.5861
  107MOL0     H14382   6.031   3.567  10.919  1.1929 -0.0675 -0.6987
  107MOL0     H14383   6.042   3.682  10.793 -3.0495  0.0628  0.8442
  107MOL0     H14384   6.102   3.499  10.628  5.3615 -3.3735 -1.5445
  107MOL0     H14385   6.105   3.388  10.762 -2.9872  0.6653 -0.5683
  107MOL0     H14386   6.282   3.634  10.723  1.3615 -0.4953 -0.9097
  107MOL0     H14387   6.293   3.541  10.872  4.0241  0.8438 -1.4109
  107MOL0     H14388   6.359   3.340  10.711 -0.3078  0.1113  1.5366
  107MOL0     H14389   6.354   3.458  10.580 -1.8257  4.1395  0.1199
  107MOL0     H14390   6.501   3.616  10.656 -1.8275 -1.2539  0.2002
  107MOL0     H14391   6.545   3.517  10.799  2.5021 -0.3722 -0.3729
  107MOL0     H14392   6.601   3.430  10.518 -1.4474 -1.9160  0.2118
  107MOL0     H14393   6.620   3.326  10.656  1.7899  1.1009  1.8283
  107MOL0     H14394   6.785   3.576  10.601  0.8257  0.0060 -0.1245
  107MOL0     H14395   6.772   3.513  10.764  1.2397 -1.3433 -1.1624
  107MOL0     H14396   7.032   3.471  10.739 -0.5529  0.3115  0.4019
  107MOL0     H14397   7.234   3.328  10.685 -1.0421  1.6410 -0.4295
  107MOL0     H14398   7.222   3.161  10.605 -1.3521 -0.0046  0.2541
  107MOL0     H14399   7.294   3.224  10.424  3.6567  0.5186  3.6724
  107MOL0     H14400   7.197   3.380  10.407  0.9725  1.0594 -0.1981
  107MOL0     H14401   7.386   3.473  10.553  0.5191  0.5940 -1.3329
  107MOL0     H14402   7.419   3.422  10.386 -0.0856 -0.8513 -0.9368
  107MOL0     H14403   7.566   3.247  10.477  0.8218  0.7621 -0.2254
  107MOL0     H14404   7.461   3.221  10.611 -3.2914  0.1541 -1.6422
  107MOL0     H14405   7.748   3.270  10.808 -0.9329 -0.8026 -0.3544
  107MOL0     H14406   7.981   3.258  10.801 -2.6586 -0.7417  0.1802
  107MOL0     H14407   8.280   3.363  10.266 -0.5057 -1.4270  0.8279
  107MOL0     H14408   8.515   3.375  10.183  2.0254  1.2814 -0.1431
  107MOL0     H14409   8.780   3.356  10.202  2.2405  0.5630 -0.4313
  107MOL0     H14410   8.684   3.490  10.130 -0.4487  1.9198  0.4790
  107MOL0     H14411   8.977   3.467  10.186 -2.4552  0.2573  4.8088
  107MOL0     H14412   8.887   3.535  10.040  0.7637  2.7456 -0.7784
  107MOL0     H14413   8.848   3.721  10.123  0.5086 -0.1410 -0.0566
  107MOL0     H14414   8.878   3.701  10.283 -3.2844  1.9115 -1.2978
  107MOL0     H14415   9.083   3.685  10.066  1.5907 -0.2090  0.9557
  107MOL0     H14416   9.124   3.642  10.231 -1.0166 -0.6943 -0.6531
  107MOL0     H14417   9.087   3.865  10.314 -4.5652 -0.3568 -1.1104
  107MOL0     H14418   9.042   3.933  10.167 -1.0123  0.5264  2.3754
  107MOL0     H14419   9.320   3.799  10.225 -0.1771  0.6580  2.4686
  107MOL0     H14420   9.280   3.858  10.071 -0.6585 -2.2236  0.4638
  107MOL0     H14421   9.317   4.004  10.343  3.5434 -1.8030 -0.3439
  107MOL0     H14422   9.238   4.099  10.224 -0.9977 -1.2931  1.1708
  107MOL0     H14423   9.453   4.023  10.070  2.4271 -1.9657  0.3789
  107MOL0     H14424   9.463   4.157  10.185  2.6563 -0.5154 -1.0462
  107MOL0     H14425   8.641   3.513  10.567 -1.1876  0.8014 -0.5609
  107MOL0     H14426   8.407   3.485  10.651 -0.0186 -0.5136  0.7097
  107MOL0     H14427   7.980   3.483  10.424 -0.2308  0.3553  1.1867
  107MOL0     H14428   7.744   3.488  10.432  0.4124  0.1797  0.1323
  107MOL0     H14429   5.603   3.535  10.801 -1.6348 -0.1363  0.1355
  107MOL0     H14430   5.400   3.412  10.769 -0.0570 -1.5389  3.6186
  107MOL0     H14431   5.226   3.000  10.819 -0.5926 -1.8963 -0.1605
  107MOL0     H14432   5.060   2.834  10.833  0.5617 -0.8767  0.8462
  107MOL0     H14433   4.654   2.830  10.582  4.1698 -0.0772 -0.6785
  107MOL0     H14434   4.653   2.961  10.697  2.5541  0.6511 -1.0271
  107MOL0     H14435   4.490   2.785  10.747  0.1608  0.3371  0.5913
  107MOL0     H14436   4.580   2.810  10.884 -0.5789 -0.0528 -0.7862
  107MOL0     H14437   4.732   2.603  10.809 -0.2266 -0.8118  1.8341
  107MOL0     H14438   4.636   2.605  10.662  1.2466  1.6926 -1.1661
  107MOL0     H14439   4.448   2.534  10.750  1.5787 -0.4285 -1.9446
  107MOL0     H14440   4.563   2.419  10.813  1.4798  0.9621 -1.0599
  107MOL0     H14441   4.413   2.537  11.176  1.1936  2.4486  0.7577
  107MOL0     H14442   4.816   3.083  10.550  0.3002  0.6889  0.2081
  107MOL0     H14443   4.958   3.339  10.586 -0.5737 -1.8930  1.7077
  107MOL0     H14444   5.061   3.296  10.440 -1.8183  2.4893 -2.0860
  107MOL0     H14445   4.893   3.250  10.446 -0.4591 -2.2948  1.5413
  108MOL0     O14446   0.332   7.530  10.598  0.0985 -0.2631  0.8440
  108MOL0     C14447   0.418   7.559  10.517 -0.0040  0.1278  0.0645
  108MOL0     O14448   0.395   7.638  10.400 -0.2437  0.7697  0.0934
  108MOL0     C14449   0.291   7.726  10.406  0.2728 -0.3306 -0.4078
  108MOL0     C14450   0.310   7.865  10.448 -0.4070  0.5457 -0.5697
  108MOL0     C14451   0.199   7.956  10.448 -0.3915  0.1319  0.3380
  108MOL0     C14452   0.070   7.914  10.414  0.0448  0.6300 -0.3423
  108MOL0     O14453  -0.038   7.999  10.422 -0.3745 -0.5570  0.3556
  108MOL0     C14454  -0.040   8.098  10.530 -0.5036  0.3888  0.3675
  108MOL0     C14455  -0.013   8.051  10.670 -0.3942 -0.2397 -0.7382
  108MOL0     C14456  -0.101   7.938  10.715  0.0999  0.5549  0.0162
  108MOL0     C14457  -0.248   7.943  10.664  0.3353  0.2388  0.3777
  108MOL0     C14458  -0.338   7.827  10.723 -0.4283 -0.5071  0.3487
  108MOL0     C14459  -0.291   7.688  10.696  0.0522  0.7252 -1.1954
  108MOL0     C14460  -0.410   7.593  10.668  0.0748  0.2210 -0.8047
  108MOL0     C14461  -0.503   7.576  10.792  0.6377  0.2303 -0.4829
  108MOL0     N14462  -0.437   7.571  10.919 -0.2958  0.2326 -0.1540
  108MOL0     C14463  -0.372   7.463  10.978 -0.2574  0.1855 -0.1662
  108MOL0     C14464  -0.331   7.510  11.093  0.1218 -0.3288 -0.0768
  108MOL0     C14465  -0.249   7.445  11.198 -0.5771 -0.3825 -0.5250
  108MOL0     C14466  -0.321   7.330  11.260  0.1509 -0.3067 -0.7055
  108MOL0     C14467  -0.274   7.312  11.413  0.2358 -1.1572  0.6584
  108MOL0     C14468  -0.348   7.406  11.522 -0.0376 -1.0726  0.0147
  108MOL0     O14469  -0.289   7.412  11.652 -0.0450 -0.0124 -0.3192
  108MOL0     C14470  -0.170   7.478  11.674  0.2221  0.6157 -0.0588
  108MOL0     C14471  -0.126   7.487  11.815  0.2144  0.8733  1.0487
  108MOL0     C14472  -0.016   7.569  11.859  0.3210  0.3516  0.2825
  108MOL0     C14473   0.056   7.640  11.763  0.1225 -0.0528 -0.6532
  108MOL0     C14474   0.168   7.722  11.797  0.3271 -0.4034 -0.1623
  108MOL0     O14475   0.269   7.733  11.694 -0.3244 -0.5031 -0.4194
  108MOL0     C14476   0.394   7.778  11.740  0.1792 -1.0654 -0.5066
  108MOL0     C14477   0.505   7.704  11.790 -0.0641  0.5338 -0.6972
  108MOL0     C14478   0.632   7.751  11.814  0.1032 -0.0696  0.3865
  108MOL0     C14479   0.659   7.881  11.775  0.9328 -0.4194  0.5401
  108MOL0     O14480   0.785   7.921  11.797  0.5271  0.2784  0.2878
  108MOL0     C14481   0.838   8.010  11.699  0.4296  0.8293 -0.7292
  108MOL0     C14482   0.971   8.055  11.744  0.2561  0.1102 -0.3679
  108MOL0     C14483   1.048   8.123  11.633  0.1098 -0.2508  0.1511
  108MOL0     C14484   1.192   8.164  11.672 -0.4168  0.3829  0.7594
  108MOL0     C14485   1.277   8.196  11.550 -0.6584  0.6884  0.1405
  108MOL0     C14486   1.419   8.251  11.574 -0.2648 -0.1371 -0.4597
  108MOL0     C14487   1.507   8.234  11.449  0.4510 -0.1928  0.2949
  108MOL0     C14488   1.626   8.328  11.450 -0.3111 -0.7294 -0.2012
  108MOL0    Cl14489   1.666   8.384  11.286  0.0584  0.2511 -0.3549
  108MOL0     C14490   0.552   7.955  11.719  0.1862 -0.4492 -0.5817
  108MOL0     C14491   0.423   7.906  11.716  0.1967 -0.1517 -0.4448
  108MOL0     O14492   0.178   7.764  11.909  0.5575 -0.7754 -0.4553
  108MOL0     C14493   0.019   7.616  11.629  0.4364 -0.9820 -0.5765
  108MOL0     C14494  -0.092   7.545  11.583 -0.3095 -0.3530  0.1512
  108MOL0     N14495  -0.370   7.638  11.113  0.5265 -0.0873  0.0085
  108MOL0     N14496  -0.442   7.677  11.013  0.0778  0.1992  1.6474
  108MOL0     C14497   0.058   7.778  10.374 -1.0415  0.6292 -0.1290
  108MOL0     C14498   0.170   7.684  10.366  1.3730 -0.6238  0.3516
  108MOL0     C14499   0.555   7.500  10.526 -0.2766 -0.1158 -0.1724
  108MOL0     C14500   0.654   7.546  10.435 -0.1133 -0.0102 -0.2174
  108MOL0     C14501   0.780   7.494  10.420  0.1656 -0.4108 -0.2654
  108MOL0     C14502   0.820   7.383  10.500  0.0928  0.0936  0.0409
  108MOL0     O14503   0.933   7.308  10.478 -0.0402  0.2120 -0.3405
  108MOL0     C14504   1.036   7.350  10.391  0.1621 -0.3021  0.2347
  108MOL0     C14505   1.137   7.235  10.363 -0.3467  0.0661  0.9214
  108MOL0     C14506   1.198   7.169  10.486  0.1963 -0.1609 -0.3922
  108MOL0     C14507   1.304   7.060  10.453 -0.1319 -0.4645 -0.1647
  108MOL0     C14508   1.430   7.118  10.414 -0.4247  0.4888 -0.0540
  108MOL0     C14509   1.537   7.165  10.364  0.8797 -1.7934  0.9335
  108MOL0     C14510   0.731   7.324  10.585  0.8161 -0.5195 -0.9184
  108MOL0     C14511   0.598   7.382  10.601 -0.2305 -0.4925  0.2787
  108MOL0     C14512   0.508   7.316  10.702  0.5244  0.2826 -0.3319
  108MOL0     H14513   0.402   7.904  10.490 -1.1494  0.3650  1.3050
  108MOL0     H14514   0.231   8.055  10.480  0.7927 -0.1492  0.0671
  108MOL0     H14515   0.040   8.169  10.509 -0.7234  0.8124  0.9387
  108MOL0     H14516  -0.135   8.153  10.524 -1.3106 -1.0833 -3.6798
  108MOL0     H14517  -0.020   8.133  10.742  0.0686 -0.1605 -0.7826
  108MOL0     H14518   0.088   8.009  10.672 -0.3306 -0.0753 -0.4639
  108MOL0     H14519  -0.094   7.941  10.825  0.8472 -1.3168  0.0495
  108MOL0     H14520  -0.053   7.845  10.685 -0.5948 -0.1116  0.9079
  108MOL0     H14521  -0.298   8.036  10.694  0.9274  0.9485 -0.7569
  108MOL0     H14522  -0.263   7.937  10.556  2.0699  0.3150  0.1019
  108MOL0     H14523  -0.338   7.839  10.832  2.9884 -1.4764  0.5713
  108MOL0     H14524  -0.434   7.849  10.675 -0.4315 -0.0019  0.5768
  108MOL0     H14525  -0.224   7.687  10.610 -1.4465  0.0093 -2.3812
  108MOL0     H14526  -0.232   7.649  10.780 -3.0057 -1.7389  0.0182
  108MOL0     H14527  -0.367   7.493  10.653  0.1246 -0.2826  2.0926
  108MOL0     H14528  -0.468   7.629  10.583  0.4489 -0.2971 -1.2924
  108MOL0     H14529  -0.563   7.668  10.790  0.0596 -0.1118  0.7109
  108MOL0     H14530  -0.571   7.493  10.772  2.4643 -1.0781 -1.5860
  108MOL0     H14531  -0.342   7.369  10.933 -1.0949 -0.9607  1.5936
  108MOL0     H14532  -0.154   7.411  11.155 -0.2018  1.0629 -0.9036
  108MOL0     H14533  -0.237   7.521  11.276  1.2872 -3.0477  1.9905
  108MOL0     H14534  -0.429   7.346  11.265  0.0318 -1.1173 -0.4795
  108MOL0     H14535  -0.299   7.237  11.205  0.3647  1.2419 -3.4434
  108MOL0     H14536  -0.166   7.322  11.422  0.3336  0.1047 -1.3692
  108MOL0     H14537  -0.293   7.212  11.454 -1.9146  0.4797  4.0900
  108MOL0     H14538  -0.452   7.374  11.535 -0.4273  0.4171  0.7468
  108MOL0     H14539  -0.342   7.508  11.484  1.7635  0.3415  3.5761
  108MOL0     H14540  -0.181   7.428  11.888 -0.7045  2.6776  1.8752
  108MOL0     H14541   0.015   7.578  11.963  1.2373  2.7049 -0.1317
  108MOL0     H14542   0.481   7.600  11.811  1.5040  0.4696  0.9250
  108MOL0     H14543   0.710   7.697  11.866  0.5599 -1.2582 -1.4576
  108MOL0     H14544   0.846   7.955  11.604  0.1148  2.4109 -1.7174
  108MOL0     H14545   0.768   8.092  11.680 -0.0638  1.2947  2.6339
  108MOL0     H14546   0.964   8.123  11.829  1.5170 -0.5937  0.3463
  108MOL0     H14547   1.013   7.958  11.773  0.3629 -0.1211 -1.2918
  108MOL0     H14548   1.040   8.053  11.549 -1.3827 -0.3322  0.3309
  108MOL0     H14549   0.991   8.206  11.590  1.6039  1.1010  0.6510
  108MOL0     H14550   1.230   8.081  11.733 -2.2119 -0.7857  0.3742
  108MOL0     H14551   1.180   8.251  11.737 -1.9704 -1.3987  3.0146
  108MOL0     H14552   1.225   8.273  11.493 -1.6420 -0.5708 -0.7432
  108MOL0     H14553   1.267   8.106  11.488  0.8079 -0.0751  0.9529
  108MOL0     H14554   1.411   8.353  11.613  0.0783 -1.1587  2.4674
  108MOL0     H14555   1.476   8.201  11.652 -0.3878 -0.8335 -0.8080
  108MOL0     H14556   1.449   8.265  11.361  3.4648  1.0256 -1.4254
  108MOL0     H14557   1.532   8.129  11.434  2.7635  0.6391 -2.8106
  108MOL0     H14558   1.603   8.416  11.511  3.4159 -0.2391  0.7451
  108MOL0     H14559   1.707   8.276  11.500  0.9274 -1.2577 -2.6098
  108MOL0     H14560   0.554   8.058  11.685 -3.7168 -0.5693 -1.6714
  108MOL0     H14561   0.341   7.970  11.685 -1.2381 -1.1405  1.1290
  108MOL0     H14562   0.085   7.667  11.560  1.0851 -2.0714 -0.8004
  108MOL0     H14563  -0.106   7.535  11.476 -0.3579 -0.0548  0.1304
  108MOL0     H14564  -0.045   7.757  10.345 -0.3989  1.4671 -3.5383
  108MOL0     H14565   0.155   7.583  10.328  0.6120  0.0057 -1.0945
  108MOL0     H14566   0.634   7.627  10.365 -0.0191  0.7034  0.5723
  108MOL0     H14567   0.835   7.545  10.342 -0.5444  2.0896  0.7870
  108MOL0     H14568   1.085   7.434  10.440 -0.3415  0.5178 -0.6266
  108MOL0     H14569   0.991   7.377  10.295  0.4755 -2.2805 -0.5204
  108MOL0     H14570   1.222   7.272  10.305 -1.1725  0.1598 -0.2651
  108MOL0     H14571   1.089   7.155  10.305  2.4166 -0.6534 -0.5554
  108MOL0     H14572   1.118   7.117  10.538 -0.6625  0.2354 -1.2834
  108MOL0     H14573   1.228   7.240  10.564  1.2316  0.6345 -1.4668
  108MOL0     H14574   1.310   6.989  10.536 -3.0786 -0.1577  0.4269
  108MOL0     H14575   1.260   7.009  10.367 -1.3257  0.1793  0.0403
  108MOL0     H14576   1.629   7.216  10.347  0.5578 -1.5364 -0.1347
  108MOL0     H14577   0.767   7.238  10.640  0.3583 -1.8867 -2.6540
  108MOL0     H14578   0.561   7.265  10.783  0.6128  0.0237 -0.5516
  108MOL0     H14579   0.460   7.400  10.754 -1.6469 -0.3666 -1.1430
  108MOL0     H14580   0.418   7.262  10.670 -0.3531  2.5629 -2.0130
  109MOL0     O14581   6.764  10.629   9.410 -0.0872 -0.1001  0.0643
  109MOL0     C14582   6.779  10.688   9.306 -0.5208 -0.1514 -0.3255
  109MOL0     O14583   6.688  10.695   9.203  0.2727 -0.0361  0.6738
  109MOL0     C14584   6.553  10.697   9.239 -0.3634  0.7059  0.2153
  109MOL0     C14585   6.470  10.602   9.180 -0.1881 -0.1078 -0.8204
  109MOL0     C14586   6.333  10.592   9.233  1.0230 -0.2287  0.1020
  109MOL0     C14587   6.293  10.677   9.336 -0.2875  0.4427  0.0954
  109MOL0     O14588   6.164  10.670   9.390  0.0289  0.3340 -0.2965
  109MOL0     C14589   6.078  10.573   9.347  1.1735  0.7369 -0.0476
  109MOL0     C14590   5.945  10.582   9.426 -0.2000  0.5824  0.4630
  109MOL0     C14591   5.837  10.483   9.373  0.1928  1.0651  0.8323
  109MOL0     C14592   5.717  10.482   9.480 -0.4982  0.3163  0.9579
  109MOL0     C14593   5.586  10.441   9.409  0.0672  0.0600 -0.3234
  109MOL0     C14594   5.466  10.446   9.507 -0.0754 -0.0531  0.3473
  109MOL0     C14595   5.338  10.368   9.464  0.8169  1.2013 -1.2478
  109MOL0     C14596   5.263  10.445   9.358 -0.1077  0.2622 -0.8155
  109MOL0     N14597   5.135  10.371   9.335  0.0323 -0.0554  0.5113
  109MOL0     C14598   5.048  10.346   9.439  0.1031  0.1538 -0.1696
  109MOL0     C14599   4.929  10.328   9.378  0.4683  0.4269 -0.3061
  109MOL0     C14600   4.797  10.309   9.445  0.2583  0.5729 -0.4495
  109MOL0     C14601   4.681  10.262   9.345 -1.0732 -1.6537 -0.1625
  109MOL0     C14602   4.549  10.277   9.422  0.0256  0.7871  0.3893
  109MOL0     C14603   4.539  10.172   9.533 -0.8802  0.5569 -0.1111
  109MOL0     O14604   4.420  10.192   9.613  0.6817  0.2841  0.5638
  109MOL0     C14605   4.302  10.146   9.562 -0.3288 -0.5525  0.6216
  109MOL0     C14606   4.290  10.044   9.458  0.5441  0.3690 -0.0808
  109MOL0     C14607   4.169  10.009   9.399 -0.4663  0.0407  0.8010
  109MOL0     C14608   4.055  10.080   9.435  0.2990  1.3586 -0.2452
  109MOL0     C14609   3.933  10.041   9.372 -0.6335 -0.2745 -0.1259
  109MOL0     O14610   3.825  10.082   9.441 -0.3714 -0.0209 -0.1938
  109MOL0     C14611   3.695  10.050   9.403  0.3521  1.3202 -0.2105
  109MOL0     C14612   3.595  10.056   9.507 -0.0774  0.6185  0.1443
  109MOL0     C14613   3.458  10.043   9.477 -0.1289 -0.5772 -0.1508
  109MOL0     C14614   3.418  10.013   9.348 -0.2427 -0.1779  0.6746
  109MOL0     O14615   3.286   9.993   9.332 -0.2279 -0.2637  1.2705
  109MOL0     C14616   3.215  10.053   9.219 -0.2455 -0.0489 -0.6225
  109MOL0     C14617   3.061  10.021   9.253 -0.1049 -0.2119 -0.3210
  109MOL0     C14618   2.965  10.058   9.148  0.1960  0.0925 -0.9803
  109MOL0     C14619   2.821  10.044   9.199 -0.9030  0.4965  0.4440
  109MOL0     C14620   2.730  10.108   9.098  0.4557 -0.1452  0.4126
  109MOL0     C14621   2.580  10.108   9.145 -0.0678 -0.2982 -0.3355
  109MOL0     C14622   2.551  10.221   9.251  0.8140 -0.4617  0.6782
  109MOL0     C14623   2.444  10.314   9.184  0.1912 -0.2948  0.4173
  109MOL0    Cl14624   2.298  10.215   9.160 -0.1679 -0.0413  0.2157
  109MOL0     C14625   3.517  10.003   9.247  0.9758  0.8750 -0.1309
  109MOL0     C14626   3.645  10.021   9.277 -0.3078 -0.3173 -0.4215
  109MOL0     O14627   3.933   9.968   9.267  0.3053 -0.2320  0.1087
  109MOL0     C14628   4.066  10.179   9.540  0.7489  0.9008  0.3966
  109MOL0     C14629   4.185  10.207   9.593 -0.4614  0.3459  0.3460
  109MOL0     N14630   4.945  10.344   9.241  0.5820  0.3534  1.1724
  109MOL0     N14631   5.067  10.361   9.214 -0.7153  0.7061 -0.0747
  109MOL0     C14632   6.373  10.788   9.372 -0.4228  0.2650 -1.2596
  109MOL0     C14633   6.504  10.785   9.325  0.2293 -0.2521 -0.8735
  109MOL0     C14634   6.912  10.745   9.279  0.2494  0.3457  0.5450
  109MOL0     C14635   6.944  10.785   9.156 -0.3877 -0.7972  1.5236
  109MOL0     C14636   7.050  10.862   9.118 -0.0161  0.1584  0.0318
  109MOL0     C14637   7.136  10.901   9.217  0.3108  1.0537 -0.3642
  109MOL0     O14638   7.233  10.999   9.196 -0.3529  0.1383 -0.3526
  109MOL0     C14639   7.187  11.104   9.112 -0.3695 -1.2439 -0.1284
  109MOL0     C14640   7.257  11.229   9.148 -0.4136 -0.2222  0.1906
  109MOL0     C14641   7.199  11.285   9.278 -0.9859 -0.3024 -0.5313
  109MOL0     C14642   7.274  11.248   9.397  0.9179 -0.3101 -1.0730
  109MOL0     C14643   7.200  11.274   9.523 -0.5111  0.8087 -0.3172
  109MOL0     C14644   7.130  11.289   9.620 -0.6043  0.3238 -0.2151
  109MOL0     C14645   7.111  10.861   9.349 -0.1359 -0.5003  0.8728
  109MOL0     C14646   7.010  10.769   9.378  0.0394  0.2519  0.0839
  109MOL0     C14647   7.010  10.709   9.527 -0.4331 -0.4094  0.1175
  109MOL0     H14648   6.504  10.531   9.105 -2.6100 -0.0825 -2.0256
  109MOL0     H14649   6.268  10.511   9.201 -0.3522  0.7544  0.3635
  109MOL0     H14650   6.069  10.579   9.238  0.3828  1.7474  0.0520
  109MOL0     H14651   6.112  10.470   9.360 -1.4219 -0.0279  1.4193
  109MOL0     H14652   5.914  10.686   9.412  1.7260  0.8070 -3.6561
  109MOL0     H14653   5.973  10.551   9.527  1.9260  0.9970  0.0510
  109MOL0     H14654   5.881  10.383   9.367  2.3713  1.7266  3.5285
  109MOL0     H14655   5.799  10.511   9.274 -3.3769  3.5318  2.6822
  109MOL0     H14656   5.753  10.424   9.566 -0.8545  0.0947  0.9608
  109MOL0     H14657   5.709  10.581   9.525  0.6376  2.6091 -3.3708
  109MOL0     H14658   5.565  10.505   9.323  0.0680 -1.8792 -1.8301
  109MOL0     H14659   5.598  10.342   9.364 -3.4807 -0.2966 -0.7229
  109MOL0     H14660   5.500  10.386   9.591 -0.3805 -0.4821  0.1666
  109MOL0     H14661   5.445  10.547   9.542 -2.1795 -0.6430  0.8998
  109MOL0     H14662   5.284  10.377   9.559  0.3059 -0.4447 -1.3541
  109MOL0     H14663   5.352  10.261   9.444 -3.0239 -0.2735  2.3853
  109MOL0     H14664   5.249  10.548   9.391 -1.2758 -0.3078  0.5389
  109MOL0     H14665   5.312  10.435   9.261  0.6042 -0.2998 -0.4055
  109MOL0     H14666   5.064  10.347   9.546 -3.0896  0.3315  0.4112
  109MOL0     H14667   4.822  10.230   9.517 -0.3342 -1.7267 -2.6222
  109MOL0     H14668   4.769  10.403   9.494 -1.9630  0.9429 -2.2655
  109MOL0     H14669   4.675  10.327   9.258  0.0675 -0.9570  0.2641
  109MOL0     H14670   4.699  10.157   9.321 -0.4230 -1.3523 -1.0399
  109MOL0     H14671   4.464  10.258   9.356  0.4436  2.2505 -0.6283
  109MOL0     H14672   4.545  10.382   9.453 -0.9905  0.6214  0.8659
  109MOL0     H14673   4.627  10.166   9.597 -2.0431 -5.0230  1.4478
  109MOL0     H14674   4.550  10.077   9.481  2.2457  0.8475 -0.1567
  109MOL0     H14675   4.381   9.992   9.429 -0.9875 -2.0184 -0.8846
  109MOL0     H14676   4.177   9.927   9.328 -0.0392 -1.4030  2.4421
  109MOL0     H14677   3.629  10.075   9.608  2.2051  1.0102 -0.6412
  109MOL0     H14678   3.388  10.039   9.560 -1.3446 -0.9195 -1.1608
  109MOL0     H14679   3.234  10.161   9.212  1.4003 -0.2424  0.4302
  109MOL0     H14680   3.249  10.017   9.122 -3.1245 -0.7514 -1.4531
  109MOL0     H14681   3.057   9.913   9.266 -1.3796 -0.2545 -0.8745
  109MOL0     H14682   3.034  10.061   9.351 -3.5592 -1.1037 -0.7985
  109MOL0     H14683   2.986  10.160   9.115 -0.6176  0.6333  0.1167
  109MOL0     H14684   2.987   9.997   9.060  0.9987  0.1768 -0.8493
  109MOL0     H14685   2.817  10.095   9.296  2.2888 -1.4861  1.8010
  109MOL0     H14686   2.792   9.939   9.215  1.5581 -0.7102 -2.1719
  109MOL0     H14687   2.732  10.061   8.999 -0.4023  3.5435 -1.5278
  109MOL0     H14688   2.762  10.212   9.082  0.9061 -0.2640  0.5203
  109MOL0     H14689   2.516  10.129   9.059  0.2840 -1.2672 -0.8446
  109MOL0     H14690   2.552  10.013   9.191 -1.5301  0.8085  1.1705
  109MOL0     H14691   2.640  10.285   9.254 -1.2753  2.7993 -0.9729
  109MOL0     H14692   2.514  10.192   9.350 -0.8687  1.2388  0.6028
  109MOL0     H14693   2.426  10.403   9.244  2.2344  0.0576  0.5654
  109MOL0     H14694   2.471  10.355   9.086 -2.0546 -0.2766 -0.2422
  109MOL0     H14695   3.486   9.985   9.145 -3.2521 -1.2824  1.2631
  109MOL0     H14696   3.707  10.001   9.190 -0.5667  2.4444 -1.3276
  109MOL0     H14697   3.981  10.239   9.571 -1.4475 -1.7115 -0.1901
  109MOL0     H14698   4.184  10.290   9.663 -2.1858 -1.5329  2.7427
  109MOL0     H14699   6.343  10.867   9.440 -1.2959  0.0200 -1.3519
  109MOL0     H14700   6.565  10.864   9.368 -0.1379 -1.2593  1.6675
  109MOL0     H14701   6.880  10.755   9.074 -0.0025 -1.1389  1.3472
  109MOL0     H14702   7.062  10.886   9.013  1.0761 -1.5314 -0.2773
  109MOL0     H14703   7.080  11.125   9.124  0.1242  0.6432  1.5616
  109MOL0     H14704   7.198  11.087   9.004  4.4631  0.3115 -0.0891
  109MOL0     H14705   7.250  11.304   9.069  1.0956  1.2120  1.3603
  109MOL0     H14706   7.363  11.205   9.162 -0.6107 -2.0537 -0.9953
  109MOL0     H14707   7.095  11.258   9.299 -0.4439  0.6671  4.6203
  109MOL0     H14708   7.206  11.394   9.269  1.6345 -0.4587 -1.2880
  109MOL0     H14709   7.291  11.140   9.400 -0.5303 -0.9044 -5.8670
  109MOL0     H14710   7.376  11.286   9.391  1.5817 -1.7030  0.5287
  109MOL0     H14711   7.083  11.306   9.715  0.4458 -1.4185  0.6656
  109MOL0     H14712   7.169  10.901   9.431 -2.1526  0.1173  2.0866
  109MOL0     H14713   7.085  10.757   9.590 -1.8174  0.3003  1.2758
  109MOL0     H14714   6.917  10.728   9.581  0.7496  2.7861  1.2150
  109MOL0     H14715   7.027  10.602   9.514 -1.1416 -0.4291 -0.8085
  110MOL0     O14716  10.822   0.006   5.116 -0.0711  0.0865 -0.6181
  110MOL0     C14717  10.752   0.103   5.116  0.1308 -1.0728  0.6479
  110MOL0     O14718  10.774   0.218   5.187 -0.4544 -0.3995 -0.0662
  110MOL0     C14719  10.893   0.224   5.258 -0.0216  0.0264  0.3811
  110MOL0     C14720  11.005   0.238   5.186 -0.0591 -1.0268  0.7178
  110MOL0     C14721  11.128   0.247   5.253 -0.3920  0.0832  0.0277
  110MOL0     C14722  11.137   0.230   5.395 -0.3670  0.1608  1.0087
  110MOL0     O14723  11.254   0.226   5.470  0.1391 -0.2848  0.2827
  110MOL0     C14724  11.276   0.112   5.552 -0.1761 -0.0078 -0.6699
  110MOL0     C14725  11.425   0.092   5.565  0.2002  1.2353 -0.2042
  110MOL0     C14726  11.481   0.208   5.656 -0.6248 -0.2491  0.3115
  110MOL0     C14727  11.633   0.191   5.686  0.1633  0.3912 -0.0589
  110MOL0     C14728  11.664   0.314   5.771 -0.4770 -0.1895 -0.0906
  110MOL0     C14729  11.814   0.348   5.776 -0.1860  1.0778 -0.6761
  110MOL0     C14730  11.857   0.473   5.860  0.4105 -0.2767 -0.1724
  110MOL0     C14731  11.996   0.471   5.910  0.5100 -0.0568  0.4186
  110MOL0     N14732  12.098   0.492   5.803  0.0862 -0.4215  0.5447
  110MOL0     C14733  12.125   0.406   5.692 -0.0821 -1.6297 -0.8539
  110MOL0     C14734  12.221   0.467   5.617 -0.7135  0.1762 -0.3886
  110MOL0     C14735  12.282   0.416   5.497 -1.0777  0.4377 -0.2884
  110MOL0     C14736  12.413   0.483   5.466  0.2374  0.0222  0.5080
  110MOL0     C14737  12.472   0.443   5.335 -0.5138 -0.0571 -0.6339
  110MOL0     C14738  12.590   0.540   5.316 -0.6543 -0.0888  0.0449
  110MOL0     O14739  12.674   0.477   5.221 -0.0693 -0.1096  0.4776
  110MOL0     C14740  12.809   0.513   5.207  0.5630  0.1054 -0.6629
  110MOL0     C14741  12.876   0.595   5.301  0.2676 -0.1529 -0.0169
  110MOL0     C14742  13.011   0.634   5.274  0.3752  0.2384 -0.1924
  110MOL0     C14743  13.082   0.575   5.168 -0.5847 -0.0996 -0.7894
  110MOL0     C14744  13.221   0.612   5.150 -0.1342  0.9925 -0.1425
  110MOL0     O14745  13.280   0.688   5.249  0.0911  0.1812  0.1938
  110MOL0     C14746  13.417   0.721   5.242 -0.4870 -0.2792 -0.1317
  110MOL0     C14747  13.469   0.760   5.369  0.3067 -0.8490 -0.7011
  110MOL0     C14748  13.597   0.804   5.375 -0.5739 -0.3287 -0.5229
  110MOL0     C14749  13.684   0.792   5.264  0.2988 -0.1934 -0.2310
  110MOL0     O14750  13.808   0.836   5.284  0.3379 -0.3373 -0.0716
  110MOL0     C14751  13.841   0.962   5.215  0.2126  0.8118 -0.9545
  110MOL0     C14752  13.836   1.065   5.328  0.1897 -0.1406  0.4274
  110MOL0     C14753  13.848   1.198   5.266  0.2579  0.3610  0.9629
  110MOL0     C14754  13.883   1.301   5.372 -0.6468 -0.1717 -0.9881
  110MOL0     C14755  13.896   1.453   5.311 -0.6187 -0.3725 -0.4088
  110MOL0     C14756  13.950   1.547   5.411  0.7669 -0.1314  0.3153
  110MOL0     C14757  13.923   1.686   5.347 -0.5098 -0.3147 -0.1701
  110MOL0     C14758  14.004   1.790   5.418 -0.7756  0.4718  0.2039
  110MOL0    Cl14759  14.179   1.750   5.449  0.0210 -0.2049 -0.5280
  110MOL0     C14760  13.646   0.747   5.142  0.7850  0.0591  0.5620
  110MOL0     C14761  13.508   0.721   5.126 -0.4487  0.1216 -0.5853
  110MOL0     O14762  13.279   0.560   5.053  0.2793 -0.4199  0.6463
  110MOL0     C14763  13.017   0.492   5.080  1.0195  0.2895  0.3138
  110MOL0     C14764  12.876   0.456   5.104 -0.9062  0.4175  0.1188
  110MOL0     N14765  12.262   0.579   5.691  0.0138  0.2734  0.0869
  110MOL0     N14766  12.185   0.598   5.790 -0.0761 -0.1237  0.3878
  110MOL0     C14767  11.019   0.229   5.459  0.2460  0.6746 -0.5954
  110MOL0     C14768  10.894   0.206   5.399  0.1591 -0.4050  0.2161
  110MOL0     C14769  10.627   0.106   5.035  0.3406  0.6395 -0.8119
  110MOL0     C14770  10.513   0.175   5.086  0.0739  0.3427 -0.3792
  110MOL0     C14771  10.389   0.179   5.021 -0.3750  0.7205 -0.3066
  110MOL0     C14772  10.379   0.122   4.891 -0.7234  0.2019 -0.9784
  110MOL0     O14773  10.275   0.143   4.810  0.3613  0.8121  0.3138
  110MOL0     C14774  10.146   0.112   4.869 -0.5168  0.6583  0.2844
  110MOL0     C14775  10.034   0.081   4.772 -0.0598 -0.7173 -0.3963
  110MOL0     C14776   9.946  -0.026   4.834 -0.0154 -0.6298 -0.9738
  110MOL0     C14777   9.851  -0.085   4.728 -0.5392  0.2355 -0.2122
  110MOL0     C14778   9.733  -0.015   4.702 -0.6806  0.0020 -0.1996
  110MOL0     C14779   9.636   0.042   4.657 -0.3263 -0.0098 -0.8689
  110MOL0     C14780  10.491   0.058   4.836 -0.3291 -0.3629 -0.3407
  110MOL0     C14781  10.619   0.052   4.901  0.6295  0.5665  0.1224
  110MOL0     C14782  10.721  -0.037   4.838 -0.5893 -0.1208 -0.1448
  110MOL0     H14783  11.014   0.253   5.079 -0.5021 -1.9346  0.5392
  110MOL0     H14784  11.224   0.249   5.203 -0.7766 -1.8404 -0.8949
  110MOL0     H14785  11.218   0.136   5.642  0.0617  1.1282 -0.8045
  110MOL0     H14786  11.236   0.022   5.505  0.8535 -0.9154  0.1399
  110MOL0     H14787  11.479   0.106   5.471 -1.7251  1.5719 -1.3150
  110MOL0     H14788  11.433  -0.006   5.613 -0.8256  2.1956  2.0780
  110MOL0     H14789  11.416   0.211   5.744 -2.0762  1.3277 -0.7503
  110MOL0     H14790  11.470   0.299   5.596  2.7229  0.6853  0.9215
  110MOL0     H14791  11.657   0.097   5.736  1.9807 -0.0032 -1.5740
  110MOL0     H14792  11.689   0.192   5.592  0.1326 -2.0143 -0.1613
  110MOL0     H14793  11.611   0.397   5.725  1.5371  1.4195  0.3472
  110MOL0     H14794  11.631   0.309   5.875 -0.1603  0.0467  0.0232
  110MOL0     H14795  11.863   0.257   5.811 -1.6131  0.4698 -0.2000
  110MOL0     H14796  11.846   0.356   5.672  1.3416 -1.9255 -0.5449
  110MOL0     H14797  11.782   0.470   5.940 -1.3322 -2.1228 -1.7428
  110MOL0     H14798  11.838   0.565   5.805 -0.6380 -0.3523  0.0389
  110MOL0     H14799  11.985   0.561   5.970 -0.9268 -0.4016  0.7114
  110MOL0     H14800  12.018   0.377   5.961 -0.3705 -1.0620 -0.9652
  110MOL0     H14801  12.082   0.309   5.670 -1.8267 -1.1152  0.0863
  110MOL0     H14802  12.315   0.312   5.509  0.6164  1.2139  2.9544
  110MOL0     H14803  12.213   0.424   5.413 -2.8536 -0.5010  1.0208
  110MOL0     H14804  12.406   0.592   5.475 -1.4253 -0.0766  0.6085
  110MOL0     H14805  12.488   0.444   5.536  0.8928 -1.6126 -1.0272
  110MOL0     H14806  12.397   0.445   5.255  0.7549 -3.0688 -2.0371
  110MOL0     H14807  12.503   0.340   5.353  0.4135  0.3054 -0.0514
  110MOL0     H14808  12.639   0.569   5.409 -0.8249  3.6571 -0.8910
  110MOL0     H14809  12.556   0.632   5.268  0.5017 -0.8922 -2.5219
  110MOL0     H14810  12.833   0.639   5.391 -0.1294  0.8674 -0.6777
  110MOL0     H14811  13.059   0.684   5.358 -1.2464 -0.7424  1.3918
  110MOL0     H14812  13.406   0.756   5.457 -0.5648 -1.8336 -1.3445
  110MOL0     H14813  13.644   0.818   5.472 -0.8179 -0.6502 -0.3570
  110MOL0     H14814  13.943   0.963   5.174  2.3153 -3.5738  3.2015
  110MOL0     H14815  13.770   0.985   5.135  0.6061  1.9808 -0.9887
  110MOL0     H14816  13.742   1.065   5.384 -0.4351  3.7883 -0.2855
  110MOL0     H14817  13.922   1.049   5.394  1.2241 -2.5369 -1.3833
  110MOL0     H14818  13.919   1.190   5.183 -0.7366 -2.0190  0.2718
  110MOL0     H14819  13.754   1.213   5.214  1.3388  1.3158 -0.8072
  110MOL0     H14820  13.976   1.275   5.422 -0.9028  1.6650  0.5574
  110MOL0     H14821  13.808   1.316   5.450  0.5693 -0.3931  0.2577
  110MOL0     H14822  13.801   1.484   5.266 -1.8334  2.4112  3.5335
  110MOL0     H14823  13.982   1.446   5.244  0.2701 -0.8702  0.7454
  110MOL0     H14824  13.892   1.545   5.504 -1.6432 -1.1164 -1.1204
  110MOL0     H14825  14.054   1.517   5.430  0.3076 -1.1681  1.3215
  110MOL0     H14826  13.821   1.726   5.352 -0.3136  0.2403 -0.5426
  110MOL0     H14827  13.959   1.684   5.244 -0.9748  0.5235 -0.3564
  110MOL0     H14828  14.007   1.881   5.357  3.5206  0.9791  0.9169
  110MOL0     H14829  13.960   1.814   5.515 -2.3686  1.8622 -0.8159
  110MOL0     H14830  13.714   0.755   5.057 -1.9911  0.2932 -1.7820
  110MOL0     H14831  13.465   0.696   5.030  1.2407 -0.9181 -1.1211
  110MOL0     H14832  13.057   0.454   4.987 -1.6594 -1.3858 -0.2575
  110MOL0     H14833  12.811   0.397   5.039  1.4634 -0.3278 -1.6917
  110MOL0     H14834  11.021   0.229   5.568  4.3296  1.5053 -0.5161
  110MOL0     H14835  10.800   0.189   5.451  0.1413 -1.2437 -0.0790
  110MOL0     H14836  10.526   0.245   5.168  2.5873 -0.2087 -0.2296
  110MOL0     H14837  10.310   0.242   5.061 -0.8076  0.6585 -1.0399
  110MOL0     H14838  10.103   0.188   4.936  0.9489  1.4851  0.3364
  110MOL0     H14839  10.167   0.030   4.938  1.5075  0.1944 -0.8016
  110MOL0     H14840  10.074   0.047   4.676 -0.6905 -1.3281 -0.4492
  110MOL0     H14841   9.970   0.167   4.750  0.6156 -0.0023  0.3455
  110MOL0     H14842   9.895   0.026   4.917  2.5079 -0.5393  0.6253
  110MOL0     H14843  10.007  -0.107   4.875 -2.4451 -3.3108 -2.2557
  110MOL0     H14844   9.901  -0.111   4.634 -1.1564 -2.9078  0.1938
  110MOL0     H14845   9.812  -0.183   4.760  0.9923 -0.3321  0.0182
  110MOL0     H14846   9.536   0.067   4.627  0.0996  0.6310 -1.7976
  110MOL0     H14847  10.488   0.048   4.728  0.6440  1.8510 -0.6283
  110MOL0     H14848  10.738  -0.132   4.891 -0.2275  0.4080  0.7157
  110MOL0     H14849  10.705  -0.064   4.733 -1.6174 -2.9644  0.6345
  110MOL0     H14850  10.823   0.002   4.839  0.7037 -3.1433 -1.4323
  111MOL0     O14851   4.653   2.303   0.226 -0.4648  0.9310 -0.5045
  111MOL0     C14852   4.705   2.189   0.200  0.6575 -0.9717  0.4875
  111MOL0     O14853   4.833   2.166   0.169 -0.0890  0.6448 -0.4636
  111MOL0     C14854   4.915   2.276   0.156  0.3655  0.4745  0.5159
  111MOL0     C14855   4.961   2.323   0.275  0.5475 -0.4175  0.0222
  111MOL0     C14856   5.045   2.438   0.273  0.3219  0.6214 -0.6027
  111MOL0     C14857   5.084   2.491   0.148  1.2383 -1.2821 -0.0127
  111MOL0     O14858   5.170   2.593   0.146 -0.6859  1.2131  0.1184
  111MOL0     C14859   5.107   2.724   0.143  0.5664  0.2865  0.0600
  111MOL0     C14860   5.162   2.798   0.024  0.4397  0.2269 -0.8417
  111MOL0     C14861   5.313   2.822   0.028  0.3608  0.4392  0.0967
  111MOL0     C14862   5.365   2.880  -0.107 -0.3306  0.4656 -0.6211
  111MOL0     C14863   5.515   2.922  -0.096  0.0783  0.2643 -0.2798
  111MOL0     C14864   5.563   3.014  -0.212  0.0617  0.4100 -0.4557
  111MOL0     C14865   5.712   3.028  -0.195 -0.7965 -0.0946  0.0829
  111MOL0     C14866   5.771   3.082  -0.330  0.0480  0.0775  0.6045
  111MOL0     N14867   5.910   3.118  -0.328 -0.1459 -0.4406 -0.2358
  111MOL0     C14868   6.001   3.040  -0.387 -0.6938  0.5204  0.1373
  111MOL0     C14869   6.122   3.094  -0.363 -0.2493  0.1856 -0.5085
  111MOL0     C14870   6.256   3.039  -0.407  0.2651  0.2708 -0.3856
  111MOL0     C14871   6.302   3.120  -0.523 -1.5263  0.3855 -0.2317
  111MOL0     C14872   6.425   3.061  -0.602  0.0404 -0.1769 -0.2729
  111MOL0     C14873   6.547   3.036  -0.520 -0.7089  0.1466  0.4871
  111MOL0     O14874   6.567   3.160  -0.452  0.4153 -0.5945 -0.3861
  111MOL0     C14875   6.700   3.197  -0.429 -0.3358  0.1994 -0.0156
  111MOL0     C14876   6.722   3.325  -0.382  0.1415 -0.3475  0.3080
  111MOL0     C14877   6.845   3.375  -0.333 -0.5206 -0.5827  0.1267
  111MOL0     C14878   6.967   3.313  -0.365  0.3189  0.6830  0.3346
  111MOL0     C14879   7.108   3.360  -0.340  0.5186  0.0067 -0.3736
  111MOL0     O14880   7.199   3.264  -0.341  0.3198 -0.1621 -0.3443
  111MOL0     C14881   7.333   3.304  -0.342  0.1313  0.1147 -0.0413
  111MOL0     C14882   7.376   3.413  -0.424 -0.6066 -0.7852 -0.5585
  111MOL0     C14883   7.499   3.462  -0.405 -0.2401 -0.4903 -0.3366
  111MOL0     C14884   7.601   3.418  -0.325  0.5992  0.5427 -0.6513
  111MOL0     O14885   7.718   3.494  -0.318 -0.7911  0.0289  0.8635
  111MOL0     C14886   7.838   3.431  -0.279  0.1574 -0.6861  0.7774
  111MOL0     C14887   7.964   3.518  -0.310 -0.0785 -0.4230 -0.2655
  111MOL0     C14888   8.086   3.457  -0.252 -0.0510 -0.0558 -0.4616
  111MOL0     C14889   8.205   3.524  -0.317  0.5296  0.7986  0.2804
  111MOL0     C14890   8.330   3.442  -0.261 -0.2788 -0.1576 -0.4128
  111MOL0     C14891   8.440   3.452  -0.356  0.8586  0.2685  0.0638
  111MOL0     C14892   8.547   3.346  -0.344  0.2371  0.4677 -0.7105
  111MOL0     C14893   8.670   3.387  -0.424 -0.0068 -0.0219 -0.2710
  111MOL0    Cl14894   8.627   3.376  -0.592 -0.0295  0.4194  0.0439
  111MOL0     C14895   7.571   3.292  -0.261 -0.5317 -0.2602  0.2791
  111MOL0     C14896   7.433   3.240  -0.265  0.4936 -0.2445  1.3799
  111MOL0     O14897   7.123   3.477  -0.320 -0.2351  0.4585  0.3255
  111MOL0     C14898   6.944   3.171  -0.407  0.1077 -0.8200 -0.9875
  111MOL0     C14899   6.816   3.122  -0.440  0.3470  1.1974  0.1137
  111MOL0     N14900   6.103   3.211  -0.283  0.2033 -0.8013 -0.0470
  111MOL0     N14901   5.974   3.227  -0.264 -0.0718  0.5060 -0.6653
  111MOL0     C14902   5.035   2.439   0.032  0.2863  0.4630 -0.5631
  111MOL0     C14903   4.956   2.325   0.037  0.4449 -0.2079  1.0706
  111MOL0     C14904   4.612   2.073   0.207 -0.8698  0.3510 -0.7812
  111MOL0     C14905   4.501   2.074   0.301 -0.0230  0.6267 -0.4480
  111MOL0     C14906   4.409   1.969   0.309  0.1367 -0.3354  0.4032
  111MOL0     C14907   4.411   1.869   0.202 -0.3231  0.4008 -1.4209
  111MOL0     O14908   4.308   1.777   0.185 -0.4972  0.4252  0.3330
  111MOL0     C14909   4.203   1.778   0.278  0.4168  0.4760  0.2536
  111MOL0     C14910   4.077   1.704   0.238  0.1718  0.0764  0.0182
  111MOL0     C14911   4.043   1.726   0.085  0.2751  0.2686 -0.7343
  111MOL0     C14912   3.896   1.699   0.046  0.8756  0.5880 -0.2839
  111MOL0     C14913   3.841   1.566   0.044 -1.1543 -0.1570 -0.8749
  111MOL0     C14914   3.800   1.454   0.047  0.4195  0.8102  0.5383
  111MOL0     C14915   4.527   1.861   0.122  0.1991 -0.4707  0.1094
  111MOL0     C14916   4.626   1.963   0.120 -0.3313  0.0161 -1.0087
  111MOL0     C14917   4.741   1.938   0.026 -0.0121  0.2371 -0.1543
  111MOL0     H14918   4.932   2.282   0.371 -3.5594 -1.1445 -1.3382
  111MOL0     H14919   5.082   2.485   0.364 -2.4160 -0.8999  1.4549
  111MOL0     H14920   4.998   2.712   0.135  0.6989 -0.1449 -1.5797
  111MOL0     H14921   5.141   2.778   0.232 -2.0217 -1.5093  2.3059
  111MOL0     H14922   5.120   2.899   0.024  0.9271  0.4470  0.2428
  111MOL0     H14923   5.136   2.755  -0.073  1.0829  2.0454 -1.8768
  111MOL0     H14924   5.366   2.730   0.057 -1.1018  0.1493  2.0511
  111MOL0     H14925   5.338   2.900   0.100  2.2555  0.4010 -0.4672
  111MOL0     H14926   5.344   2.816  -0.193  1.0831  0.6264 -1.1099
  111MOL0     H14927   5.311   2.974  -0.120  0.9452  1.1838 -0.9040
  111MOL0     H14928   5.528   2.969   0.002 -0.5838 -1.0080  0.4332
  111MOL0     H14929   5.589   2.842  -0.099  0.3342  0.3637 -5.1326
  111MOL0     H14930   5.556   2.951  -0.302  1.2466 -1.5325  0.7380
  111MOL0     H14931   5.507   3.108  -0.216 -3.0453 -1.0131  3.3219
  111MOL0     H14932   5.765   2.933  -0.178  1.8659  1.5507  1.7689
  111MOL0     H14933   5.736   3.098  -0.115 -0.6885  0.3287 -0.3182
  111MOL0     H14934   5.761   3.010  -0.412  1.7519 -0.8543  1.1629
  111MOL0     H14935   5.708   3.170  -0.345 -0.2954 -0.3318 -0.4736
  111MOL0     H14936   5.976   2.953  -0.446  1.3256  1.0209 -1.5923
  111MOL0     H14937   6.329   3.044  -0.326  0.5484 -1.3239 -0.5150
  111MOL0     H14938   6.251   2.933  -0.435 -0.8177 -0.0359  0.8270
  111MOL0     H14939   6.221   3.132  -0.596 -1.3013  1.3153 -0.3490
  111MOL0     H14940   6.336   3.214  -0.478  0.8423 -1.9967  3.3655
  111MOL0     H14941   6.444   3.129  -0.686 -0.2074 -0.9386 -0.9593
  111MOL0     H14942   6.394   2.967  -0.649 -1.5365  0.6643 -0.9909
  111MOL0     H14943   6.629   3.015  -0.588 -3.0224 -1.2233 -2.0684
  111MOL0     H14944   6.540   2.948  -0.456  1.2023 -0.3514  0.0543
  111MOL0     H14945   6.643   3.400  -0.382  2.0429  1.8614 -2.3951
  111MOL0     H14946   6.858   3.478  -0.300  1.0413 -1.0126  0.9366
  111MOL0     H14947   7.310   3.476  -0.483 -1.1273  0.5680  1.3916
  111MOL0     H14948   7.519   3.548  -0.468  2.0088 -2.7219 -2.9067
  111MOL0     H14949   7.826   3.418  -0.171 -0.8992 -1.4177  0.5781
  111MOL0     H14950   7.853   3.327  -0.310  1.5867 -0.8858  2.0016
  111MOL0     H14951   7.971   3.523  -0.419 -0.6541  2.5717 -0.2529
  111MOL0     H14952   7.953   3.621  -0.275  1.1727 -0.2325 -0.3816
  111MOL0     H14953   8.093   3.487  -0.147 -0.3472  1.1699 -0.7731
  111MOL0     H14954   8.077   3.350  -0.273 -0.4115  0.4246 -3.0756
  111MOL0     H14955   8.210   3.631  -0.293  0.0430  1.3485 -1.8994
  111MOL0     H14956   8.193   3.523  -0.425 -3.8596 -1.9633  0.5604
  111MOL0     H14957   8.299   3.339  -0.245 -0.4472 -0.0612 -0.1263
  111MOL0     H14958   8.359   3.487  -0.166 -1.9164  0.6914 -0.2762
  111MOL0     H14959   8.406   3.446  -0.460  1.5220 -3.5127 -0.0920
  111MOL0     H14960   8.481   3.549  -0.329 -0.3805  0.9415 -0.3845
  111MOL0     H14961   8.512   3.248  -0.377  1.8958 -0.4349  0.0572
  111MOL0     H14962   8.566   3.345  -0.236  0.2391  0.7980 -0.7063
  111MOL0     H14963   8.697   3.491  -0.405 -0.7847  0.1273  0.0562
  111MOL0     H14964   8.756   3.322  -0.409  1.3840  1.4346 -1.5622
  111MOL0     H14965   7.652   3.244  -0.207 -0.5329  1.4691  1.9501
  111MOL0     H14966   7.403   3.152  -0.209  4.2642 -2.7663 -0.2168
  111MOL0     H14967   7.028   3.104  -0.424 -0.2416 -1.4327 -0.3836
  111MOL0     H14968   6.803   3.019  -0.474 -4.9514  2.3721 -2.4628
  111MOL0     H14969   5.063   2.483  -0.064 -0.3060  0.2261 -0.8497
  111MOL0     H14970   4.909   2.276  -0.048 -0.9423 -0.2035  1.7932
  111MOL0     H14971   4.501   2.159   0.368  3.1417  2.1542 -2.1758
  111MOL0     H14972   4.335   1.982   0.388 -0.7710  1.1230 -0.6264
  111MOL0     H14973   4.172   1.881   0.298 -0.9596  0.1670 -0.1662
  111MOL0     H14974   4.239   1.736   0.373  0.5486 -0.2612 -0.1125
  111MOL0     H14975   4.000   1.740   0.308 -0.4363  0.1187 -0.6653
  111MOL0     H14976   4.086   1.597   0.260 -0.3287  0.0408  0.0673
  111MOL0     H14977   4.111   1.660   0.030 -0.3333  1.1661 -2.6738
  111MOL0     H14978   4.066   1.831   0.067 -1.0431  0.9275  1.1378
  111MOL0     H14979   3.826   1.749   0.114  0.1355  1.1372 -1.4115
  111MOL0     H14980   3.874   1.735  -0.055 -0.8187  0.5788  0.0392
  111MOL0     H14981   3.760   1.356   0.041  1.2570  0.4903 -0.2296
  111MOL0     H14982   4.541   1.780   0.050 -4.2861  0.3843 -2.0215
  111MOL0     H14983   4.718   1.850  -0.034 -1.7244  1.2708 -1.0772
  111MOL0     H14984   4.738   2.022  -0.044 -0.2170  0.9925  0.7375
  111MOL0     H14985   4.840   1.921   0.070  0.1335  2.2667  0.4101
  112MOL0     O14986   6.848  10.581   1.774 -0.0882  0.2848  0.0019
  112MOL0     C14987   6.889  10.595   1.888 -0.2318  1.5683 -0.7923
  112MOL0     O14988   6.854  10.517   1.986  0.7500 -0.0861  0.2525
  112MOL0     C14989   6.739  10.444   1.972  0.3282 -1.0302  1.1353
  112MOL0     C14990   6.736  10.333   2.050  0.2402  0.1595 -0.1734
  112MOL0     C14991   6.623  10.247   2.050 -0.0736 -0.5477  0.4907
  112MOL0     C14992   6.506  10.292   1.985  0.2328 -0.6751 -0.6188
  112MOL0     O14993   6.386  10.234   1.981  0.5680  0.2114 -0.8074
  112MOL0     C14994   6.377  10.111   2.056  0.0166 -0.0562  0.5763
  112MOL0     C14995   6.246  10.046   2.028 -0.5440 -0.0345 -0.3369
  112MOL0     C14996   6.210   9.925   2.108  0.0355 -0.4374  0.0677
  112MOL0     C14997   6.302   9.806   2.070  0.0907  0.4576 -0.3203
  112MOL0     C14998   6.254   9.680   2.149 -0.2803  0.1312  0.0553
  112MOL0     C14999   6.319   9.544   2.115  1.4030  0.0804 -0.1341
  112MOL0     C15000   6.452   9.506   2.186 -0.5213 -0.1512  0.6307
  112MOL0     C15001   6.433   9.468   2.332  0.3762 -0.0924  0.0574
  112MOL0     N15002   6.560   9.435   2.401 -0.0187  0.7717 -0.2799
  112MOL0     C15003   6.587   9.320   2.475 -0.4370  0.9153  0.4603
  112MOL0     C15004   6.705   9.341   2.527 -0.2664  0.1568 -0.5667
  112MOL0     C15005   6.771   9.251   2.636 -0.0241 -0.2084  1.2351
  112MOL0     C15006   6.815   9.114   2.570  0.6362 -0.1951  0.1160
  112MOL0     C15007   6.877   9.030   2.676  0.5050  0.5912 -1.0264
  112MOL0     C15008   6.891   8.883   2.628  0.0408 -0.4245 -0.2033
  112MOL0     O15009   6.947   8.800   2.726 -0.4113  0.2110 -0.0850
  112MOL0     C15010   7.085   8.799   2.746  0.0224 -1.2518 -0.2804
  112MOL0     C15011   7.141   8.712   2.842  0.5424 -0.5766  0.8038
  112MOL0     C15012   7.278   8.706   2.857 -0.3562  0.0355 -0.3788
  112MOL0     C15013   7.364   8.798   2.799  0.3785 -0.1232  0.2199
  112MOL0     C15014   7.507   8.796   2.821 -0.4500  0.4212 -0.5996
  112MOL0     O15015   7.569   8.913   2.785  0.6666  0.1647 -0.1326
  112MOL0     C15016   7.702   8.907   2.798 -1.3834 -1.1434 -0.0854
  112MOL0     C15017   7.773   8.934   2.680 -0.4739  0.1638  0.1441
  112MOL0     C15018   7.912   8.949   2.676  0.3479 -0.0423  0.0547
  112MOL0     C15019   7.990   8.915   2.793  0.9294  0.9546  0.5771
  112MOL0     O15020   8.125   8.910   2.792  0.2757 -0.4446  0.4899
  112MOL0     C15021   8.180   9.031   2.743 -0.3520  0.3333 -0.2150
  112MOL0     C15022   8.318   9.007   2.673  1.0373 -0.3552  0.0997
  112MOL0     C15023   8.434   8.989   2.773  0.9095  0.0479  0.7397
  112MOL0     C15024   8.465   9.119   2.852  0.2814 -0.0751  1.2533
  112MOL0     C15025   8.603   9.102   2.915 -0.2681  0.6032  0.0416
  112MOL0     C15026   8.654   9.237   2.957 -0.0486  0.0019  0.3210
  112MOL0     C15027   8.792   9.238   3.005 -0.4468  0.1461  0.1815
  112MOL0     C15028   8.912   9.235   2.903  0.1705  0.1628 -0.5648
  112MOL0    Cl15029   9.047   9.299   2.998 -0.0197  0.1643 -0.1702
  112MOL0     C15030   7.919   8.885   2.909 -0.8258  0.7097  0.3446
  112MOL0     C15031   7.783   8.895   2.914  0.1101  0.0928 -1.6145
  112MOL0     O15032   7.560   8.694   2.868 -0.0199  0.0589  0.2391
  112MOL0     C15033   7.315   8.879   2.699  1.1662  1.3445  0.3075
  112MOL0     C15034   7.178   8.879   2.674  0.0413  0.4808 -0.2082
  112MOL0     N15035   6.759   9.455   2.478 -1.2408 -0.4311  0.3457
  112MOL0     N15036   6.665   9.521   2.414  0.5862  0.4924 -0.6472
  112MOL0     C15037   6.502  10.413   1.918 -0.5656  0.1297 -0.4884
  112MOL0     C15038   6.611  10.492   1.922 -0.0749 -0.2739 -0.3064
  112MOL0     C15039   7.012  10.673   1.905  0.9236 -0.0235 -0.5738
  112MOL0     C15040   7.114  10.621   1.990 -0.8647 -0.1298  0.1567
  112MOL0     C15041   7.231  10.688   2.007 -0.5882 -0.1866 -0.3635
  112MOL0     C15042   7.257  10.814   1.950 -0.6979  0.3669 -0.6057
  112MOL0     O15043   7.376  10.885   1.981  0.0141  0.3213  0.3089
  112MOL0     C15044   7.349  11.019   2.021  0.1710 -0.0425  0.3610
  112MOL0     C15045   7.475  11.059   2.101 -0.2269  0.8343 -0.2191
  112MOL0     C15046   7.597  11.068   2.003 -0.5959  0.0701  0.9787
  112MOL0     C15047   7.707  11.140   2.080  0.1414 -0.4058  1.1966
  112MOL0     C15048   7.837  11.112   2.011 -0.2427 -0.7812  1.6995
  112MOL0     C15049   7.946  11.085   1.962  0.9732  0.5685  0.6394
  112MOL0     C15050   7.150  10.872   1.876  0.3963 -1.1077 -0.1698
  112MOL0     C15051   7.029  10.807   1.855 -0.2108  0.1231 -0.5121
  112MOL0     C15052   6.912  10.873   1.781 -0.1644  0.5838 -0.5303
  112MOL0     H15053   6.830  10.314   2.101 -0.2305 -1.3355  0.1771
  112MOL0     H15054   6.633  10.154   2.105  0.3638 -0.6714  0.2076
  112MOL0     H15055   6.460  10.045   2.030 -0.2721 -0.3908  0.4922
  112MOL0     H15056   6.378  10.138   2.162  1.9498  0.8667  0.3596
  112MOL0     H15057   6.233  10.027   1.920 -2.2335  2.6795 -0.7116
  112MOL0     H15058   6.169  10.117   2.058  0.3728  0.4308  1.0093
  112MOL0     H15059   6.106   9.895   2.099 -0.1557  0.8404 -3.2038
  112MOL0     H15060   6.248   9.939   2.210 -2.2226 -0.7652  1.0084
  112MOL0     H15061   6.298   9.794   1.961  2.5251  1.4086 -0.5891
  112MOL0     H15062   6.406   9.819   2.102 -0.1277 -1.1764  1.1917
  112MOL0     H15063   6.287   9.696   2.252  2.4982  1.6293 -0.9539
  112MOL0     H15064   6.146   9.676   2.134 -0.0450  0.5409 -2.1695
  112MOL0     H15065   6.238   9.479   2.148  0.5671  1.7123  1.1545
  112MOL0     H15066   6.328   9.528   2.007 -1.5656 -0.8772 -0.3495
  112MOL0     H15067   6.504   9.601   2.172 -1.8537  0.5035 -0.1364
  112MOL0     H15068   6.491   9.420   2.131 -0.1114  1.4262 -1.6513
  112MOL0     H15069   6.393   9.555   2.385  2.1165  0.7555  0.0410
  112MOL0     H15070   6.370   9.381   2.355 -4.8166  3.8173  2.6706
  112MOL0     H15071   6.523   9.233   2.488 -0.0050  0.1385 -2.0082
  112MOL0     H15072   6.861   9.287   2.686  1.6097 -1.0537 -0.9341
  112MOL0     H15073   6.690   9.230   2.707 -1.1474 -1.3793 -0.3203
  112MOL0     H15074   6.723   9.066   2.536 -0.3755 -0.5613  3.0927
  112MOL0     H15075   6.880   9.136   2.485  0.6147 -1.7624 -0.3351
  112MOL0     H15076   6.811   9.033   2.763  1.1453  1.1126 -0.5451
  112MOL0     H15077   6.974   9.076   2.699  0.3764  0.7037 -0.6918
  112MOL0     H15078   6.944   8.877   2.532 -0.1863 -0.4822 -0.3266
  112MOL0     H15079   6.788   8.849   2.617  0.9081 -3.1489 -0.5523
  112MOL0     H15080   7.077   8.644   2.898  0.3610 -0.7001  0.4499
  112MOL0     H15081   7.315   8.631   2.926  1.1454 -1.9413 -3.1171
  112MOL0     H15082   7.713   8.949   2.591 -0.0053 -1.3432 -0.4567
  112MOL0     H15083   7.969   8.973   2.587 -0.4559  0.2717 -0.3924
  112MOL0     H15084   8.113   9.090   2.680 -1.2947  2.6956  2.7634
  112MOL0     H15085   8.204   9.093   2.830 -4.0467 -0.1598  1.3494
  112MOL0     H15086   8.300   8.915   2.617  0.7339  1.0354 -2.2149
  112MOL0     H15087   8.340   9.081   2.595 -0.1525 -1.5584 -1.4330
  112MOL0     H15088   8.422   8.896   2.830  1.2249 -0.1293  0.5198
  112MOL0     H15089   8.521   8.975   2.709  2.0458  1.1438  1.9822
  112MOL0     H15090   8.394   9.142   2.932  0.0246  2.6414  0.3522
  112MOL0     H15091   8.466   9.206   2.786  0.5896 -0.9732  0.0338
  112MOL0     H15092   8.677   9.060   2.847 -0.1578  1.4461 -0.3766
  112MOL0     H15093   8.593   9.045   3.008  1.4285  0.1225 -0.0544
  112MOL0     H15094   8.644   9.308   2.875 -0.2260  0.3769  0.6615
  112MOL0     H15095   8.598   9.269   3.045  2.9268 -0.2413  2.4638
  112MOL0     H15096   8.806   9.156   3.075 -2.5504 -0.5771 -0.1656
  112MOL0     H15097   8.811   9.342   3.031 -2.1474  1.4284 -3.0585
  112MOL0     H15098   8.930   9.130   2.882 -0.1465 -0.6466  2.5980
  112MOL0     H15099   8.892   9.296   2.814  1.1959  0.7378 -0.4199
  112MOL0     H15100   7.976   8.866   2.999  0.0687 -0.7224 -0.4832
  112MOL0     H15101   7.725   8.890   3.006  1.5226 -3.4737 -0.7492
  112MOL0     H15102   7.365   8.945   2.629  5.7872 -1.9964 -0.0581
  112MOL0     H15103   7.132   8.949   2.606 -0.3463  1.3478  0.9170
  112MOL0     H15104   6.404  10.440   1.880 -1.2645 -3.8415 -2.0184
  112MOL0     H15105   6.586  10.588   1.878 -1.1223  0.3316  1.5172
  112MOL0     H15106   7.099  10.520   2.027  1.6408 -1.3902 -1.9256
  112MOL0     H15107   7.315  10.645   2.062  0.0344  0.6688 -0.6221
  112MOL0     H15108   7.260  11.029   2.084  0.2682  0.6758  0.3966
  112MOL0     H15109   7.340  11.083   1.933  1.3894 -1.8158 -1.1089
  112MOL0     H15110   7.494  10.980   2.175  0.1098  1.2894  0.1878
  112MOL0     H15111   7.461  11.154   2.153 -2.2853 -0.8888  2.7216
  112MOL0     H15112   7.575  11.118   1.908 -0.6291 -2.8907 -0.6961
  112MOL0     H15113   7.613  10.962   1.984 -2.3386 -0.1731  0.6695
  112MOL0     H15114   7.686  11.246   2.094  1.3986  0.0250  0.0285
  112MOL0     H15115   7.728  11.096   2.178  1.6690  0.6769  1.4022
  112MOL0     H15116   8.043  11.071   1.920  0.9057  0.9487  0.3511
  112MOL0     H15117   7.166  10.973   1.840 -0.5409 -1.3803 -1.4578
  112MOL0     H15118   6.904  10.981   1.795  0.1639  0.6901 -1.1065
  112MOL0     H15119   6.915  10.854   1.673 -1.3446 -1.5153 -0.2654
  112MOL0     H15120   6.819  10.835   1.824 -0.0810  0.1559 -0.7213
  113MOL0     O15121   2.627   9.501   7.327  0.0018  0.6049  0.4256
  113MOL0     C15122   2.627   9.424   7.229  0.4083  0.0670  0.3759
  113MOL0     O15123   2.734   9.408   7.138 -0.2551 -0.4146 -1.2514
  113MOL0     C15124   2.862   9.439   7.173  0.6980  0.1235 -1.3534
  113MOL0     C15125   2.951   9.442   7.071 -1.0032  0.6912 -0.0774
  113MOL0     C15126   3.089   9.475   7.078 -0.5226  0.2230 -0.0129
  113MOL0     C15127   3.133   9.527   7.203  0.2399 -0.4443  0.1196
  113MOL0     O15128   3.263   9.569   7.244  0.1575  0.1535 -0.3072
  113MOL0     C15129   3.377   9.553   7.163 -0.1214  0.7104 -0.3478
  113MOL0     C15130   3.505   9.612   7.224 -0.1180 -0.1543 -0.0046
  113MOL0     C15131   3.501   9.765   7.217  0.1925  0.0854 -0.0444
  113MOL0     C15132   3.606   9.816   7.311  0.4071 -0.7956 -0.3546
  113MOL0     C15133   3.618   9.970   7.305 -0.8334 -0.3231  0.3295
  113MOL0     C15134   3.710  10.027   7.414  0.2067  0.7006 -0.0430
  113MOL0     C15135   3.856   9.970   7.406  0.8004 -0.5781 -0.6344
  113MOL0     C15136   3.919  10.010   7.277  0.2512  0.0095 -0.5073
  113MOL0     N15137   3.979  10.147   7.305  0.3827  0.0556  0.0028
  113MOL0     C15138   3.912  10.267   7.301 -0.4166 -0.3103  0.2493
  113MOL0     C15139   4.013  10.353   7.325 -0.6330  0.0685 -0.2131
  113MOL0     C15140   3.984  10.500   7.352 -0.6796  0.6839  0.2769
  113MOL0     C15141   3.967  10.566   7.210  0.0310  0.5867  0.2062
  113MOL0     C15142   3.958  10.717   7.245  1.2246  0.0512 -0.1883
  113MOL0     C15143   4.099  10.788   7.268 -0.2279 -1.2135 -0.6736
  113MOL0     O15144   4.182  10.773   7.155  0.1697  0.0938 -0.2466
  113MOL0     C15145   4.306  10.830   7.145 -0.3363 -0.7635  0.4919
  113MOL0     C15146   4.406  10.760   7.087  0.0431 -0.2662  0.1759
  113MOL0     C15147   4.544  10.810   7.090  0.6765 -0.8937 -0.3260
  113MOL0     C15148   4.567  10.933   7.161  0.5457 -0.2371  0.2057
  113MOL0     C15149   4.700  10.995   7.158  0.2004 -0.3080 -0.0809
  113MOL0     O15150   4.794  10.933   7.077  0.1086  0.1063 -0.5492
  113MOL0     C15151   4.927  10.960   7.087  0.2565 -1.3713  1.3046
  113MOL0     C15152   4.992  10.981   6.963  0.3608  0.2167  0.0182
  113MOL0     C15153   5.125  11.037   6.957 -0.4936 -0.0765 -0.0817
  113MOL0     C15154   5.201  11.071   7.069  0.5023 -0.3852  0.3116
  113MOL0     O15155   5.332  11.115   7.053 -0.7380  0.2374  0.6617
  113MOL0     C15156   5.415  11.098   7.172 -0.1708 -0.1368 -0.6793
  113MOL0     C15157   5.559  11.108   7.156 -0.1462  0.2370 -0.2299
  113MOL0     C15158   5.631  11.105   7.286  0.4841 -0.2168 -0.3649
  113MOL0     C15159   5.787  11.123   7.285  0.6760 -0.9366  0.7172
  113MOL0     C15160   5.850  11.116   7.424 -0.2000 -0.8651 -0.1437
  113MOL0     C15161   6.002  11.129   7.427  0.4419 -0.6272  0.6234
  113MOL0     C15162   6.062  11.107   7.574 -0.6474 -0.2632  0.2485
  113MOL0     C15163   6.208  11.154   7.595  0.1879  0.0513  0.0112
  113MOL0    Cl15164   6.262  11.164   7.769  0.0413  0.5142 -0.2157
  113MOL0     C15165   5.131  11.048   7.197  0.4620 -0.1296  0.7433
  113MOL0     C15166   5.002  10.998   7.201  0.6446  0.1479 -1.1240
  113MOL0     O15167   4.729  11.095   7.218 -0.3859 -0.0076 -0.0259
  113MOL0     C15168   4.470  10.996   7.242  0.1832  0.2787  1.0511
  113MOL0     C15169   4.344  10.948   7.219 -0.2779 -0.6683  0.4559
  113MOL0     N15170   4.139  10.284   7.314  0.7087 -0.6828  0.1350
  113MOL0     N15171   4.115  10.157   7.312 -0.1655  0.5112  0.0921
  113MOL0     C15172   3.044   9.525   7.312 -0.6255 -0.3966 -0.1522
  113MOL0     C15173   2.913   9.484   7.296  0.2976 -0.4492  0.3819
  113MOL0     C15174   2.498   9.346   7.207 -0.5872 -0.2951 -0.6906
  113MOL0     C15175   2.470   9.307   7.074 -0.6282  0.5363 -0.9334
  113MOL0     C15176   2.354   9.243   7.036 -0.4026 -1.0456  0.1344
  113MOL0     C15177   2.247   9.225   7.129 -0.3727  0.2160 -1.0297
  113MOL0     O15178   2.127   9.153   7.108  0.4401 -0.5575 -0.0418
  113MOL0     C15179   2.107   9.078   6.989 -1.3091  0.6496  0.2914
  113MOL0     C15180   2.105   8.922   7.028 -0.4430  0.5457  0.9620
  113MOL0     C15181   2.012   8.887   7.139 -0.9029  0.1494 -0.8061
  113MOL0     C15182   2.020   8.737   7.154 -0.0906  0.5737  1.2777
  113MOL0     C15183   1.957   8.677   7.027 -0.0741  0.8034 -0.9810
  113MOL0     C15184   1.912   8.630   6.924  0.1044  0.3504  0.0692
  113MOL0     C15185   2.270   9.260   7.264  0.0246  0.0794  0.1410
  113MOL0     C15186   2.385   9.324   7.299 -0.1136  1.0059  0.3701
  113MOL0     C15187   2.397   9.357   7.440  0.2983 -0.3770 -0.0042
  113MOL0     H15188   2.924   9.409   6.971  3.8374  0.1746 -1.5178
  113MOL0     H15189   3.148   9.468   6.987 -0.0519 -0.8921  0.3632
  113MOL0     H15190   3.381   9.444   7.152 -1.7048  0.4483  1.1256
  113MOL0     H15191   3.363   9.600   7.066  2.5087  0.0389 -1.1398
  113MOL0     H15192   3.595   9.586   7.168 -0.1798  0.4601 -0.3844
  113MOL0     H15193   3.523   9.584   7.329  3.2673  1.5345 -0.0111
  113MOL0     H15194   3.406   9.818   7.229 -1.1101 -1.8316 -1.2449
  113MOL0     H15195   3.529   9.792   7.115 -1.8931  0.9469 -0.4406
  113MOL0     H15196   3.588   9.784   7.414  0.1188  0.2411 -0.0657
  113MOL0     H15197   3.701   9.774   7.275  0.4515  0.7132 -2.1508
  113MOL0     H15198   3.658  10.004   7.210  0.8633 -1.5679  0.5465
  113MOL0     H15199   3.517  10.009   7.322 -0.7531  0.1505 -0.2728
  113MOL0     H15200   3.702  10.135   7.429 -3.0912  0.8503 -1.9695
  113MOL0     H15201   3.671   9.988   7.508 -1.4210 -0.7271 -1.2317
  113MOL0     H15202   3.849   9.861   7.412 -0.8724 -0.4404  0.4210
  113MOL0     H15203   3.901  10.013   7.496 -3.5604  1.9928  0.6140
  113MOL0     H15204   3.994   9.935   7.251  0.0807 -0.6710  0.8835
  113MOL0     H15205   3.850  10.019   7.193  0.6887  3.0990 -0.6695
  113MOL0     H15206   3.805  10.281   7.287 -0.2164  3.1595  1.0946
  113MOL0     H15207   3.892  10.510   7.410 -1.2097  0.6857 -0.5344
  113MOL0     H15208   4.067  10.552   7.400  0.8392 -0.1838 -1.3042
  113MOL0     H15209   4.059  10.549   7.152 -0.3642 -0.8717 -0.0057
  113MOL0     H15210   3.881  10.534   7.151 -0.2128  0.9580  0.3598
  113MOL0     H15211   3.894  10.742   7.329 -1.0567  0.1480 -1.8544
  113MOL0     H15212   3.917  10.778   7.164  0.6899  0.5106  0.4316
  113MOL0     H15213   4.143  10.744   7.358  0.1206  0.8433  0.2302
  113MOL0     H15214   4.079  10.891   7.299 -1.9388 -1.9328  0.7884
  113MOL0     H15215   4.383  10.660   7.052 -2.7699  0.1287  0.6386
  113MOL0     H15216   4.620  10.768   7.025 -0.0352  1.1053 -2.5875
  113MOL0     H15217   4.939  10.970   6.869 -0.0791  2.9607 -0.1469
  113MOL0     H15218   5.173  11.064   6.863  1.9619  1.4664  1.5041
  113MOL0     H15219   5.385  11.167   7.252  1.8808 -1.6088  1.4717
  113MOL0     H15220   5.395  11.000   7.215 -2.3473  0.8505  0.7379
  113MOL0     H15221   5.598  11.036   7.084 -0.3856  0.6033 -0.7314
  113MOL0     H15222   5.575  11.206   7.111 -1.0119 -0.3252 -1.8298
  113MOL0     H15223   5.580  11.177   7.351 -0.2838  1.8241 -3.0316
  113MOL0     H15224   5.614  11.009   7.335 -0.7837 -0.0414 -0.4184
  113MOL0     H15225   5.805  11.224   7.248  0.5234 -0.7512  1.1403
  113MOL0     H15226   5.835  11.057   7.212 -0.2127 -2.2374  1.2718
  113MOL0     H15227   5.833  11.013   7.457 -0.2432 -0.9999 -0.5725
  113MOL0     H15228   5.808  11.193   7.489 -0.4895 -2.2093  1.2973
  113MOL0     H15229   6.048  11.070   7.347 -1.0404 -2.7369  1.2280
  113MOL0     H15230   6.012  11.236   7.407  0.1857 -0.4710  1.2839
  113MOL0     H15231   6.043  11.007   7.613  2.2274 -0.2256  2.0390
  113MOL0     H15232   6.007  11.173   7.641  0.9160 -1.1818  2.5421
  113MOL0     H15233   6.270  11.086   7.536 -1.2227 -2.6967  1.4907
  113MOL0     H15234   6.207  11.257   7.557  2.5533  0.2764  0.4376
  113MOL0     H15235   5.175  11.066   7.294  0.1814  1.9602  0.5380
  113MOL0     H15236   4.975  10.977   7.304  1.5695  0.5882 -0.7790
  113MOL0     H15237   4.494  11.079   7.307  2.0004  0.5225  0.1456
  113MOL0     H15238   4.264  10.991   7.279 -0.9049 -2.4677  0.9883
  113MOL0     H15239   3.076   9.552   7.413  0.5883 -2.0795 -0.0432
  113MOL0     H15240   2.857   9.470   7.388 -0.3974 -3.8732 -0.4157
  113MOL0     H15241   2.534   9.332   6.990  2.9524 -0.3957  1.3038
  113MOL0     H15242   2.353   9.196   6.938  1.7500  1.2459 -1.1344
  113MOL0     H15243   2.184   9.090   6.913 -2.3722  1.8837 -0.6218
  113MOL0     H15244   2.007   9.100   6.951 -1.0068 -0.1232 -1.0077
  113MOL0     H15245   2.205   8.882   7.045  0.0085  0.5696 -1.3440
  113MOL0     H15246   2.066   8.884   6.934  0.5403  1.8598 -0.0100
  113MOL0     H15247   1.912   8.925   7.117 -1.7348  0.1861  2.4687
  113MOL0     H15248   2.049   8.936   7.229 -0.1714 -0.1479 -0.9411
  113MOL0     H15249   2.119   8.691   7.162 -0.1629 -0.0543 -0.8196
  113MOL0     H15250   1.948   8.719   7.235 -1.2121  0.8695  0.3679
  113MOL0     H15251   1.880   8.587   6.832  0.9854 -1.1345  0.4106
  113MOL0     H15252   2.194   9.224   7.332 -1.4184  1.3813 -0.7056
  113MOL0     H15253   2.470   9.296   7.494  0.8862  0.3491  0.0389
  113MOL0     H15254   2.417   9.462   7.461 -0.1651  0.2215 -2.2872
  113MOL0     H15255   2.300   9.355   7.489  0.4856 -0.7272  0.3644
  114MOL0     O15256   8.529   5.241   4.923  0.5606  0.3490 -0.5501
  114MOL0     C15257   8.432   5.193   4.864  0.1727 -0.3302  0.2904
  114MOL0     O15258   8.436   5.155   4.732 -0.7001  0.7636 -0.5920
  114MOL0     C15259   8.563   5.138   4.677  0.1844 -0.7193  1.1350
  114MOL0     C15260   8.590   5.217   4.554 -0.1335  0.0945  0.2063
  114MOL0     C15261   8.720   5.199   4.494  0.6530  0.0370 -0.2736
  114MOL0     C15262   8.824   5.130   4.555 -0.4172  0.3924  0.7685
  114MOL0     O15263   8.939   5.116   4.477 -0.1673 -0.5325 -0.3387
  114MOL0     C15264   9.039   5.009   4.511  0.3862 -0.5324 -0.5433
  114MOL0     C15265   9.162   5.007   4.419 -0.3693  0.6801 -1.2797
  114MOL0     C15266   9.280   5.080   4.488  1.2792 -0.1492  0.5239
  114MOL0     C15267   9.384   5.144   4.398  0.5203  0.1043  0.3806
  114MOL0     C15268   9.415   5.288   4.447 -0.4611  0.8933 -0.2529
  114MOL0     C15269   9.551   5.340   4.408 -0.2193 -0.1925  0.1885
  114MOL0     C15270   9.571   5.318   4.257 -0.2651  0.4001 -0.1011
  114MOL0     C15271   9.696   5.389   4.206 -0.3443  0.2539 -0.6960
  114MOL0     N15272   9.728   5.343   4.071 -0.5470 -0.1861  0.9534
  114MOL0     C15273   9.677   5.409   3.957  0.1958  0.4789 -0.8861
  114MOL0     C15274   9.702   5.326   3.857 -0.0858  0.8937 -0.0542
  114MOL0     C15275   9.668   5.347   3.707  1.2950  0.0307  0.3152
  114MOL0     C15276   9.530   5.278   3.692 -0.1165  0.9083  0.1415
  114MOL0     C15277   9.481   5.287   3.548  0.8576 -0.7955  0.2563
  114MOL0     C15278   9.368   5.185   3.516  0.1621 -0.2603 -0.2719
  114MOL0     O15279   9.275   5.194   3.627 -0.5041  0.0797  0.0380
  114MOL0     C15280   9.148   5.171   3.590 -0.7150  0.3952 -0.0824
  114MOL0     C15281   9.083   5.269   3.524  0.0296 -1.8034  0.2710
  114MOL0     C15282   8.950   5.244   3.490 -0.6298 -0.0250  0.8784
  114MOL0     C15283   8.886   5.123   3.497  0.2439  0.3416 -0.3640
  114MOL0     C15284   8.748   5.097   3.455 -1.0550 -0.5324  0.7385
  114MOL0     O15285   8.692   4.986   3.496  0.2364  0.0711  0.7108
  114MOL0     C15286   8.566   4.948   3.451  0.0144  0.2469  0.4639
  114MOL0     C15287   8.463   5.034   3.407  0.1915  0.8612 -0.3517
  114MOL0     C15288   8.332   4.980   3.396 -0.0607 -0.0649  1.0799
  114MOL0     C15289   8.308   4.844   3.417  0.2026 -0.8786  0.4819
  114MOL0     O15290   8.183   4.799   3.397  1.2306 -0.0243 -0.4793
  114MOL0     C15291   8.161   4.657   3.409 -1.0767 -0.2250 -0.4266
  114MOL0     C15292   8.010   4.634   3.402  0.3626  0.4705  0.1081
  114MOL0     C15293   7.949   4.644   3.531  0.7589 -0.2594 -0.2139
  114MOL0     C15294   7.814   4.572   3.531  0.1235  0.1929  0.5409
  114MOL0     C15295   7.735   4.593   3.660 -0.1098 -0.5231 -0.3911
  114MOL0     C15296   7.696   4.738   3.679 -0.6713  0.2715 -0.9151
  114MOL0     C15297   7.557   4.734   3.747  0.1001  0.0534 -0.1187
  114MOL0     C15298   7.498   4.871   3.770 -0.5385  0.1401  0.7470
  114MOL0    Cl15299   7.328   4.841   3.838  0.0421 -0.4234  0.1776
  114MOL0     C15300   8.415   4.766   3.449 -0.3739  0.3948 -0.1579
  114MOL0     C15301   8.540   4.813   3.463  0.4333  0.1952 -0.0547
  114MOL0     O15302   8.697   5.187   3.389 -0.0259  0.2098  0.0371
  114MOL0     C15303   8.955   5.018   3.549  0.0384  0.7876 -0.1539
  114MOL0     C15304   9.078   5.046   3.606 -0.2192  0.4498 -0.8374
  114MOL0     N15305   9.757   5.212   3.906  0.5335  0.1678 -0.7018
  114MOL0     N15306   9.779   5.226   4.036  0.3335 -0.0224  0.4236
  114MOL0     C15307   8.802   5.072   4.671  0.6501 -0.1294 -0.1030
  114MOL0     C15308   8.677   5.067   4.731  0.4771 -0.0115 -0.4853
  114MOL0     C15309   8.310   5.165   4.947 -0.0669 -0.5133  0.9910
  114MOL0     C15310   8.189   5.216   4.900  0.1394 -0.2681 -0.3584
  114MOL0     C15311   8.071   5.190   4.964  0.5815  0.4795  0.3274
  114MOL0     C15312   8.067   5.119   5.080 -0.1775  0.0720  0.4654
  114MOL0     O15313   7.956   5.099   5.162 -0.0632  0.9447 -0.3006
  114MOL0     C15314   7.855   5.199   5.161  0.0435  0.7011 -0.3581
  114MOL0     C15315   7.739   5.162   5.255  0.1128 -0.1084  0.5217
  114MOL0     C15316   7.770   5.114   5.390 -0.5565  0.8182 -0.1361
  114MOL0     C15317   7.645   5.094   5.480 -0.0046 -0.0233 -0.4164
  114MOL0     C15318   7.570   5.215   5.525 -0.3483  0.5971 -0.0355
  114MOL0     C15319   7.509   5.311   5.547  0.3005  0.6770 -0.7940
  114MOL0     C15320   8.187   5.071   5.137 -0.2829 -0.4672 -0.2236
  114MOL0     C15321   8.308   5.097   5.067  0.0426 -0.7226  0.1290
  114MOL0     C15322   8.437   5.033   5.109  0.0095 -0.1070  0.5809
  114MOL0     H15323   8.504   5.277   4.527 -1.0825  0.3309  3.3583
  114MOL0     H15324   8.746   5.247   4.400 -0.9601 -3.7833 -2.9656
  114MOL0     H15325   9.059   5.016   4.618 -0.0666 -1.6797 -0.3701
  114MOL0     H15326   8.986   4.916   4.490 -0.2322 -0.5355  0.9278
  114MOL0     H15327   9.146   5.045   4.317 -0.4647 -0.5304 -1.7370
  114MOL0     H15328   9.191   4.902   4.407  0.6577  1.0403 -2.1533
  114MOL0     H15329   9.331   5.010   4.555  0.3930  1.4307  2.9712
  114MOL0     H15330   9.250   5.171   4.541  2.3634  1.4804 -1.5035
  114MOL0     H15331   9.476   5.087   4.413 -0.8708 -1.6350  3.0631
  114MOL0     H15332   9.342   5.143   4.297 -0.3914  0.7289  0.7383
  114MOL0     H15333   9.350   5.362   4.402  3.2901  2.9299 -2.9048
  114MOL0     H15334   9.408   5.291   4.556 -1.4333  2.7341 -0.3321
  114MOL0     H15335   9.548   5.448   4.428  1.0911 -0.1913  0.4492
  114MOL0     H15336   9.630   5.284   4.458 -1.3024 -2.8145 -0.8457
  114MOL0     H15337   9.475   5.345   4.211 -1.0598 -1.2569  0.4942
  114MOL0     H15338   9.587   5.214   4.228 -1.7588  0.4000 -1.0247
  114MOL0     H15339   9.673   5.496   4.213 -1.3603  0.2787 -3.4173
  114MOL0     H15340   9.788   5.377   4.264 -0.3128 -2.4879 -1.1997
  114MOL0     H15341   9.645   5.512   3.945  4.4295  2.1093 -0.0409
  114MOL0     H15342   9.662   5.456   3.699 -1.4533  0.1074  2.1374
  114MOL0     H15343   9.744   5.308   3.639  4.0080  2.1685  1.9262
  114MOL0     H15344   9.531   5.171   3.711  1.4316  0.3598 -2.4508
  114MOL0     H15345   9.459   5.318   3.764  0.1200 -0.6065  1.2431
  114MOL0     H15346   9.561   5.274   3.475  1.1906 -1.5125  0.7440
  114MOL0     H15347   9.439   5.389   3.547  0.8410 -0.7387  2.4597
  114MOL0     H15348   9.402   5.082   3.502 -3.7337 -1.8467  0.4487
  114MOL0     H15349   9.325   5.212   3.419 -1.7760  1.3033  0.9417
  114MOL0     H15350   9.128   5.364   3.496 -1.4885 -0.5026  2.0188
  114MOL0     H15351   8.906   5.337   3.456  1.3577  1.4519  2.1131
  114MOL0     H15352   8.464   5.141   3.391 -4.5897  1.2151  0.3191
  114MOL0     H15353   8.252   5.045   3.360 -0.4063 -0.1521  1.6730
  114MOL0     H15354   8.213   4.607   3.327 -2.0421 -1.9030 -0.0672
  114MOL0     H15355   8.213   4.633   3.503  0.7301  3.5562 -0.2761
  114MOL0     H15356   7.963   4.711   3.340  2.7568  1.5097 -0.5638
  114MOL0     H15357   7.999   4.534   3.361  0.1771  0.7302 -0.4958
  114MOL0     H15358   8.003   4.587   3.607 -0.9098  0.6360  1.7411
  114MOL0     H15359   7.936   4.743   3.575  3.0013 -0.4065  0.9351
  114MOL0     H15360   7.838   4.467   3.511  5.4514  1.2660 -0.3098
  114MOL0     H15361   7.750   4.613   3.453  1.1649  0.7063 -0.0718
  114MOL0     H15362   7.791   4.558   3.748  0.5453  1.4251  0.0010
  114MOL0     H15363   7.644   4.534   3.649 -1.2768  0.7195  1.8559
  114MOL0     H15364   7.770   4.796   3.735  0.4300 -0.2332 -1.8111
  114MOL0     H15365   7.698   4.791   3.583 -0.9143  1.5657 -0.2261
  114MOL0     H15366   7.569   4.677   3.840 -0.2639 -2.3377 -1.4483
  114MOL0     H15367   7.491   4.674   3.684 -2.4745  0.8527  1.6482
  114MOL0     H15368   7.558   4.929   3.841  0.1530 -1.2717  1.3649
  114MOL0     H15369   7.493   4.924   3.674 -1.9898  0.8233  1.1593
  114MOL0     H15370   8.413   4.661   3.475 -0.7128  0.1175 -1.2552
  114MOL0     H15371   8.623   4.743   3.458 -0.8326 -1.3204 -1.0156
  114MOL0     H15372   8.901   4.926   3.566 -4.3374  2.7897 -1.7747
  114MOL0     H15373   9.121   4.966   3.665  0.9990  3.0054  2.0308
  114MOL0     H15374   8.882   5.019   4.723  0.5058  0.4821  0.7555
  114MOL0     H15375   8.655   5.017   4.824  0.1111 -1.3881 -1.2830
  114MOL0     H15376   8.183   5.285   4.817 -1.4054  1.8682  1.4088
  114MOL0     H15377   7.985   5.246   4.931 -1.1466 -0.8147  2.4009
  114MOL0     H15378   7.804   5.208   5.065 -0.8452 -0.6023 -0.0346
  114MOL0     H15379   7.899   5.298   5.177  3.3870 -0.1374 -3.0158
  114MOL0     H15380   7.678   5.085   5.205 -0.7925 -0.0116  1.4362
  114MOL0     H15381   7.668   5.244   5.263 -1.6339 -1.6370  1.6538
  114MOL0     H15382   7.842   5.172   5.448 -0.1244  0.5776 -0.4231
  114MOL0     H15383   7.823   5.018   5.385 -0.0211  1.1726 -2.2008
  114MOL0     H15384   7.576   5.031   5.424  0.6579 -0.3460 -0.8980
  114MOL0     H15385   7.671   5.040   5.571 -0.5107 -0.3962 -0.4935
  114MOL0     H15386   7.452   5.388   5.597 -0.4411 -0.0811 -0.4534
  114MOL0     H15387   8.190   5.008   5.226 -5.4139 -1.9037 -0.7360
  114MOL0     H15388   8.405   4.975   5.196 -2.4254 -0.7359 -0.6175
  114MOL0     H15389   8.489   4.974   5.032  0.9617  2.3407 -0.7494
  114MOL0     H15390   8.512   5.104   5.143 -0.4579 -0.2495  1.9626
  115MOL0     O15391   3.942   1.986   7.762 -0.4650 -0.5724 -0.5337
  115MOL0     C15392   3.846   1.970   7.839 -0.3077 -0.0532  0.3250
  115MOL0     O15393   3.788   1.852   7.864  0.2531 -0.0307 -0.1797
  115MOL0     C15394   3.861   1.738   7.849  0.0819  0.6579  0.0382
  115MOL0     C15395   3.784   1.623   7.808  0.3267 -0.6188 -0.1900
  115MOL0     C15396   3.853   1.505   7.795 -0.4878  0.5486  0.3072
  115MOL0     C15397   3.992   1.493   7.820 -0.6203 -1.3897  0.1052
  115MOL0     O15398   4.044   1.365   7.807  0.9046  0.1954 -0.4209
  115MOL0     C15399   4.183   1.350   7.768 -0.5408 -0.1258 -0.5786
  115MOL0     C15400   4.229   1.204   7.738 -0.4129  0.6677  0.3870
  115MOL0     C15401   4.373   1.188   7.691  0.4114 -0.3422  0.5365
  115MOL0     C15402   4.482   1.290   7.738  0.8569  0.6001  0.5156
  115MOL0     C15403   4.617   1.259   7.681 -0.0689  0.1780 -0.3734
  115MOL0     C15404   4.659   1.107   7.673 -0.1487 -0.3256  0.2360
  115MOL0     C15405   4.802   1.081   7.618 -0.1108 -1.1509 -0.7129
  115MOL0     C15406   4.826   0.932   7.588 -0.0682  0.0597  0.5166
  115MOL0     N15407   4.970   0.908   7.566  0.1846  0.3999  0.0470
  115MOL0     C15408   5.071   0.906   7.660  0.3274  1.0386  0.5737
  115MOL0     C15409   5.184   0.903   7.583  0.1849 -0.5507  0.3837
  115MOL0     C15410   5.322   0.903   7.628 -0.5723 -0.0115  0.1558
  115MOL0     C15411   5.372   1.053   7.649 -0.7672  0.0511  0.0326
  115MOL0     C15412   5.390   1.121   7.512 -0.0489 -0.4914 -0.8194
  115MOL0     C15413   5.503   1.066   7.436 -0.4335 -0.3429 -0.3861
  115MOL0     O15414   5.569   1.170   7.358  0.4902  0.2870  0.0023
  115MOL0     C15415   5.678   1.232   7.406 -0.4851  0.2599 -0.8847
  115MOL0     C15416   5.756   1.305   7.307  0.2273 -0.4382 -0.7565
  115MOL0     C15417   5.884   1.354   7.329  0.3874  0.5766  0.2072
  115MOL0     C15418   5.932   1.342   7.460  0.3980 -0.0787 -0.1344
  115MOL0     C15419   6.069   1.394   7.502  0.6812  0.8660  0.1723
  115MOL0     O15420   6.153   1.414   7.401  0.7342 -0.3854  0.1426
  115MOL0     C15421   6.268   1.486   7.413 -0.1770 -0.5511 -0.7247
  115MOL0     C15422   6.386   1.445   7.352 -0.3418  1.0412  0.2893
  115MOL0     C15423   6.509   1.507   7.378  0.4128  0.7504  0.6793
  115MOL0     C15424   6.504   1.628   7.452 -0.7528  0.6700 -0.6492
  115MOL0     O15425   6.622   1.693   7.475  0.7257 -0.3768  0.0604
  115MOL0     C15426   6.736   1.616   7.524 -0.1873 -0.1164 -0.8696
  115MOL0     C15427   6.851   1.713   7.540  0.3930  0.6229  0.6152
  115MOL0     C15428   6.850   1.797   7.672  0.4724  0.0543 -0.3696
  115MOL0     C15429   6.992   1.856   7.685  0.2146 -0.0959  0.1442
  115MOL0     C15430   7.091   1.769   7.769 -1.2380  0.8043  0.6211
  115MOL0     C15431   7.049   1.739   7.920 -0.3982  0.5289 -0.4266
  115MOL0     C15432   7.169   1.682   7.990 -0.5585  0.2064  0.5407
  115MOL0     C15433   7.146   1.678   8.147 -0.2148 -0.1838 -0.7366
  115MOL0    Cl15434   6.994   1.598   8.171 -0.4315 -0.2333 -0.0066
  115MOL0     C15435   6.389   1.671   7.515 -0.4018  0.2121  0.4652
  115MOL0     C15436   6.268   1.609   7.485 -0.0056 -0.1978 -0.2215
  115MOL0     O15437   6.100   1.408   7.618  0.1529 -0.2384  0.0115
  115MOL0     C15438   5.849   1.297   7.568 -0.7766  0.4738  0.2218
  115MOL0     C15439   5.730   1.231   7.542 -0.4082  0.5797  0.3669
  115MOL0     N15440   5.147   0.914   7.451 -0.3792  0.2605 -0.2603
  115MOL0     N15441   5.018   0.925   7.436 -0.0954  0.0701 -0.5879
  115MOL0     C15442   4.075   1.613   7.856 -0.5589 -0.4256  0.3420
  115MOL0     C15443   4.001   1.730   7.869 -0.8926  0.6627 -0.4499
  115MOL0     C15444   3.780   2.086   7.912 -1.3350 -0.6463 -0.6901
  115MOL0     C15445   3.681   2.056   8.010 -0.2902 -0.7930  0.3247
  115MOL0     C15446   3.607   2.166   8.053  0.3462  0.0190 -0.7378
  115MOL0     C15447   3.624   2.299   8.017 -0.0037  0.1016 -0.5105
  115MOL0     O15448   3.546   2.396   8.076  0.0901  0.8698  0.0035
  115MOL0     C15449   3.570   2.535   8.057  0.2127 -0.3593 -0.3049
  115MOL0     C15450   3.453   2.631   8.093 -0.3250  0.1436 -0.6490
  115MOL0     C15451   3.324   2.606   8.013 -0.3366 -0.4158 -0.3230
  115MOL0     C15452   3.304   2.725   7.922  0.8026  0.2945  0.3031
  115MOL0     C15453   3.162   2.767   7.936  0.5693 -0.2864  0.1217
  115MOL0     C15454   3.055   2.812   7.936  0.3577 -0.2830 -0.1370
  115MOL0     C15455   3.721   2.319   7.918 -0.2790 -0.1989 -0.5756
  115MOL0     C15456   3.801   2.219   7.866  0.1081  0.2406  0.9188
  115MOL0     C15457   3.913   2.255   7.770 -0.0407  0.7090  1.1290
  115MOL0     H15458   3.677   1.622   7.795 -0.2318  0.1845  3.3587
  115MOL0     H15459   3.799   1.421   7.752 -0.6212  0.8468 -0.1097
  115MOL0     H15460   4.197   1.415   7.682  1.4005  1.1738  0.6295
  115MOL0     H15461   4.247   1.393   7.846 -0.8313  2.0723 -1.4628
  115MOL0     H15462   4.159   1.166   7.664  0.6674  2.5175 -1.6977
  115MOL0     H15463   4.215   1.146   7.830  3.3683  0.6042  1.1061
  115MOL0     H15464   4.372   1.186   7.581  3.5415  1.5064  0.3630
  115MOL0     H15465   4.405   1.087   7.717 -1.2479 -1.0058  0.1563
  115MOL0     H15466   4.454   1.392   7.708  0.7044  0.1268 -1.0364
  115MOL0     H15467   4.487   1.275   7.846 -1.5320 -1.2031  0.4709
  115MOL0     H15468   4.622   1.294   7.577  0.1524 -1.2637 -0.8626
  115MOL0     H15469   4.691   1.310   7.743  0.4543  0.0751 -0.9128
  115MOL0     H15470   4.648   1.072   7.776 -1.1252 -3.8390 -0.9254
  115MOL0     H15471   4.591   1.049   7.611  0.3865  1.6919 -2.4392
  115MOL0     H15472   4.882   1.098   7.691  1.5024  0.2958 -2.6951
  115MOL0     H15473   4.818   1.136   7.525 -0.3408  2.5722  1.2335
  115MOL0     H15474   4.788   0.863   7.664 -2.7898 -0.3903 -1.1413
  115MOL0     H15475   4.780   0.898   7.495 -2.1374  0.8702  1.1868
  115MOL0     H15476   5.067   0.891   7.768  3.5662  3.1394  1.1153
  115MOL0     H15477   5.326   0.862   7.730 -1.0580 -0.3509  0.0391
  115MOL0     H15478   5.386   0.836   7.569  0.1507  0.3883  0.4648
  115MOL0     H15479   5.303   1.113   7.708  1.1883  3.6196 -1.0466
  115MOL0     H15480   5.465   1.041   7.705 -0.6095 -2.3607 -0.5899
  115MOL0     H15481   5.410   1.227   7.532 -1.5856 -0.3940  0.4697
  115MOL0     H15482   5.299   1.127   7.451 -0.4211 -1.4659 -0.3745
  115MOL0     H15483   5.468   0.988   7.368 -1.1701  2.2316 -3.1648
  115MOL0     H15484   5.581   1.023   7.500 -0.6941  1.7843  1.4962
  115MOL0     H15485   5.721   1.308   7.204  1.2333  1.0680 -1.0833
  115MOL0     H15486   5.943   1.407   7.254 -0.5699 -0.1483 -1.0912
  115MOL0     H15487   6.393   1.355   7.291  1.8069  0.7397  0.8922
  115MOL0     H15488   6.602   1.460   7.347  1.3303  2.0451  1.3969
  115MOL0     H15489   6.690   1.571   7.612 -1.1227  0.5470 -1.0049
  115MOL0     H15490   6.777   1.542   7.455 -2.1076 -2.0916 -0.0079
  115MOL0     H15491   6.943   1.655   7.534 -0.6422 -0.9211 -1.4381
  115MOL0     H15492   6.860   1.782   7.456  3.2930  0.0125  0.3241
  115MOL0     H15493   6.775   1.875   7.662 -1.7279 -1.4275  2.8863
  115MOL0     H15494   6.813   1.741   7.758  0.8847 -0.3565 -0.4497
  115MOL0     H15495   7.001   1.955   7.730  4.1749 -1.0493  1.9606
  115MOL0     H15496   7.032   1.865   7.583 -0.3338  0.6981 -0.0070
  115MOL0     H15497   7.187   1.822   7.772  0.2610 -1.7099  0.0567
  115MOL0     H15498   7.114   1.677   7.715  0.4343  1.2192  0.5474
  115MOL0     H15499   7.011   1.830   7.967  0.9156  0.3042  1.1518
  115MOL0     H15500   6.965   1.669   7.927  0.6392 -0.5807  3.3247
  115MOL0     H15501   7.259   1.739   7.964  0.5520 -1.0266  1.5331
  115MOL0     H15502   7.180   1.575   7.968  2.3878  0.3587  0.8309
  115MOL0     H15503   7.221   1.614   8.195 -1.5182 -0.3741  1.1567
  115MOL0     H15504   7.141   1.780   8.186  1.0771  0.0750 -1.1864
  115MOL0     H15505   6.380   1.755   7.583 -0.6253 -1.1518  2.1984
  115MOL0     H15506   6.176   1.657   7.517 -1.4300 -3.4906  1.1546
  115MOL0     H15507   5.883   1.300   7.671  2.0097  1.0471 -0.6202
  115MOL0     H15508   5.681   1.199   7.634  2.2362  1.4086  2.1906
  115MOL0     H15509   4.179   1.597   7.881 -0.6943  1.4834  2.3588
  115MOL0     H15510   4.044   1.825   7.898  0.5612  0.6726 -2.4234
  115MOL0     H15511   3.662   1.959   8.056  0.0909 -1.5659 -1.1059
  115MOL0     H15512   3.518   2.155   8.114  1.1811  1.2138  0.7574
  115MOL0     H15513   3.587   2.566   7.954 -0.1261 -1.6047 -0.7462
  115MOL0     H15514   3.656   2.559   8.120 -1.6671 -0.6785  2.5598
  115MOL0     H15515   3.479   2.737   8.089 -0.5064  0.1509 -2.1625
  115MOL0     H15516   3.424   2.619   8.198  1.1882  1.4859 -0.0246
  115MOL0     H15517   3.239   2.594   8.081 -0.9572  1.6805 -0.6291
  115MOL0     H15518   3.340   2.524   7.943  0.6078  0.8971 -1.7350
  115MOL0     H15519   3.369   2.812   7.937 -2.8895  3.4168 -0.4194
  115MOL0     H15520   3.316   2.702   7.815 -0.8112 -3.0314  0.7329
  115MOL0     H15521   2.960   2.858   7.952 -0.1154 -2.0434  2.8183
  115MOL0     H15522   3.736   2.415   7.870  1.9013  0.5118  1.3216
  115MOL0     H15523   4.007   2.228   7.820  0.3081 -2.4218 -1.0004
  115MOL0     H15524   3.912   2.194   7.679  0.7980  0.8852  0.9880
  115MOL0     H15525   3.910   2.362   7.746 -0.3752  0.1673 -1.4741
  116MOL0     O15526   7.927   8.090   6.037 -0.1294  0.6082 -0.5908
  116MOL0     C15527   7.835   8.047   6.100  0.2757 -0.6306 -0.5155
  116MOL0     O15528   7.710   8.101   6.100 -0.1347 -0.2479  0.5139
  116MOL0     C15529   7.657   8.170   5.999  0.6728 -0.1868  0.3888
  116MOL0     C15530   7.695   8.150   5.863 -0.3844  0.4392 -0.7161
  116MOL0     C15531   7.627   8.220   5.758 -0.3627 -0.9639  0.4123
  116MOL0     C15532   7.522   8.304   5.783  0.0468  0.2091  0.3538
  116MOL0     O15533   7.448   8.381   5.691  0.2244  0.7669  0.0457
  116MOL0     C15534   7.444   8.315   5.561 -0.3333 -0.0781  0.2988
  116MOL0     C15535   7.355   8.383   5.464  0.3834 -0.4893 -0.0792
  116MOL0     C15536   7.323   8.298   5.339  0.4510  0.2866  0.9153
  116MOL0     C15537   7.215   8.369   5.246 -0.2765 -0.7036  0.6014
  116MOL0     C15538   7.241   8.311   5.107  0.4399 -0.0863  0.8496
  116MOL0     C15539   7.123   8.340   5.009 -0.5516 -0.1025  1.0647
  116MOL0     C15540   7.175   8.337   4.864  0.3802  0.2957  0.9206
  116MOL0     C15541   7.063   8.340   4.760  0.5757 -0.8427 -0.1184
  116MOL0     N15542   6.993   8.469   4.778  0.3657 -0.2209  0.1893
  116MOL0     C15543   7.044   8.595   4.788 -0.6980  0.0654  0.2623
  116MOL0     C15544   6.931   8.669   4.820  0.8541  0.0097 -0.1312
  116MOL0     C15545   6.946   8.809   4.852 -0.0395 -0.6005 -0.9954
  116MOL0     C15546   7.034   8.839   4.972  0.2790 -0.3670  0.9164
  116MOL0     C15547   6.985   8.773   5.102 -0.1557  0.6245  0.2835
  116MOL0     C15548   7.088   8.773   5.211 -0.2229  0.3265  0.4434
  116MOL0     O15549   7.212   8.704   5.180  0.3122 -0.2227 -0.1388
  116MOL0     C15550   7.335   8.771   5.203  0.5104  0.8425  0.1978
  116MOL0     C15551   7.350   8.882   5.289 -1.7574 -0.4654 -0.2584
  116MOL0     C15552   7.480   8.943   5.301  0.0415  0.1800  0.3275
  116MOL0     C15553   7.596   8.891   5.232  0.7524  0.1215  0.8552
  116MOL0     C15554   7.725   8.958   5.239 -0.7053  0.0385  1.4219
  116MOL0     O15555   7.828   8.897   5.167 -0.4168  1.0759 -0.3102
  116MOL0     C15556   7.963   8.925   5.183 -0.5396 -0.0521 -0.2538
  116MOL0     C15557   8.048   8.861   5.094  0.1864  0.3953 -0.9051
  116MOL0     C15558   8.189   8.880   5.088 -0.7302 -0.5745 -0.5235
  116MOL0     C15559   8.259   8.965   5.178  0.9354  1.0946 -0.9266
  116MOL0     O15560   8.399   8.982   5.175 -0.3389  0.3419 -0.2333
  116MOL0     C15561   8.461   9.098   5.227  0.2138  0.7246 -0.3017
  116MOL0     C15562   8.600   9.102   5.166 -0.4451 -0.3755 -0.6483
  116MOL0     C15563   8.659   9.241   5.181 -0.3133  0.5436  0.9614
  116MOL0     C15564   8.784   9.255   5.101 -1.0053  0.9617 -0.8181
  116MOL0     C15565   8.852   9.395   5.104 -0.3715  0.8738  0.0764
  116MOL0     C15566   8.943   9.398   5.224  1.4190 -0.2613 -0.5255
  116MOL0     C15567   8.994   9.540   5.240 -0.1327 -0.1419 -0.3386
  116MOL0     C15568   9.112   9.569   5.153  0.2298 -1.2501  0.0658
  116MOL0    Cl15569   9.255   9.468   5.183 -0.0962 -0.3537  0.5823
  116MOL0     C15570   8.170   9.032   5.269  0.5834  0.3730 -0.2351
  116MOL0     C15571   8.032   9.010   5.277  0.2754  0.1451  0.4562
  116MOL0     O15572   7.731   9.064   5.301 -0.2497 -0.2145 -0.0586
  116MOL0     C15573   7.579   8.762   5.173  0.0285  0.3322 -1.0941
  116MOL0     C15574   7.448   8.710   5.160 -0.6388  0.6683  0.2553
  116MOL0     N15575   6.819   8.597   4.831  0.6424  0.0872  0.3219
  116MOL0     N15576   6.862   8.477   4.811  0.5723 -0.0963  0.0557
  116MOL0     C15577   7.476   8.316   5.916  0.1697 -2.0368 -0.0538
  116MOL0     C15578   7.544   8.258   6.021 -0.2980  1.0856 -0.0446
  116MOL0     C15579   7.867   7.930   6.190 -0.2379 -0.2105 -0.9105
  116MOL0     C15580   7.763   7.875   6.267  0.0025  0.1893  0.3428
  116MOL0     C15581   7.791   7.766   6.354 -0.5127 -0.3203 -0.5589
  116MOL0     C15582   7.913   7.710   6.356 -0.2170  0.6420 -0.6516
  116MOL0     O15583   7.943   7.598   6.436  0.1332  0.3388  0.1773
  116MOL0     C15584   7.830   7.530   6.499 -0.6460 -0.9952  0.3652
  116MOL0     C15585   7.874   7.394   6.553 -0.2547 -0.8570 -0.0247
  116MOL0     C15586   7.948   7.401   6.683 -0.6649  0.0193 -0.0003
  116MOL0     C15587   8.069   7.494   6.666 -0.0243  0.1455 -0.9818
  116MOL0     C15588   8.167   7.494   6.772  0.2320  0.3871 -0.8924
  116MOL0     C15589   8.263   7.481   6.851  0.5182 -0.9767  1.0741
  116MOL0     C15590   8.019   7.758   6.291  0.1207  0.2397  0.4261
  116MOL0     C15591   8.002   7.868   6.207  0.5739  0.7896 -1.2005
  116MOL0     C15592   8.129   7.915   6.136  0.4849 -0.2697 -0.7274
  116MOL0     H15593   7.782   8.089   5.843  0.1425  1.8448 -3.0131
  116MOL0     H15594   7.677   8.218   5.661 -2.4044 -0.3859 -0.6997
  116MOL0     H15595   7.543   8.307   5.516  0.1728 -2.0629  1.6476
  116MOL0     H15596   7.420   8.209   5.565  2.4394 -1.0601 -3.6229
  116MOL0     H15597   7.394   8.481   5.432  0.1790 -0.6090 -0.7139
  116MOL0     H15598   7.254   8.398   5.504  1.3390  0.5398  2.1356
  116MOL0     H15599   7.283   8.200   5.369  2.2178 -0.2235  1.7181
  116MOL0     H15600   7.420   8.299   5.289 -0.9772 -0.6883 -2.1378
  116MOL0     H15601   7.111   8.352   5.273 -1.0904  0.7953 -1.3090
  116MOL0     H15602   7.217   8.479   5.250 -0.7121 -0.5335 -1.9302
  116MOL0     H15603   7.335   8.354   5.072  2.2336 -0.5942  4.5582
  116MOL0     H15604   7.257   8.203   5.115 -2.1334 -0.4921  1.3125
  116MOL0     H15605   7.033   8.279   5.025  0.0584 -0.9860  1.2219
  116MOL0     H15606   7.091   8.444   5.018  0.3721  0.6158 -2.4171
  116MOL0     H15607   7.219   8.240   4.840  1.6129  1.2422 -0.9044
  116MOL0     H15608   7.247   8.416   4.840 -1.4118  1.9995  0.8658
  116MOL0     H15609   7.101   8.341   4.658 -0.9848  2.5026 -0.7896
  116MOL0     H15610   6.983   8.266   4.770 -0.7457  0.7300  1.8247
  116MOL0     H15611   7.148   8.626   4.785  0.2567 -2.8054  0.4713
  116MOL0     H15612   6.990   8.866   4.770  0.3342  0.5346 -0.0144
  116MOL0     H15613   6.850   8.861   4.862  0.5231  0.4644 -1.0308
  116MOL0     H15614   7.134   8.803   4.946 -0.9978 -2.1961 -1.9067
  116MOL0     H15615   7.043   8.947   4.990 -3.4267  0.4580 -1.1434
  116MOL0     H15616   6.944   8.674   5.079  3.3610 -0.7722 -0.5387
  116MOL0     H15617   6.900   8.837   5.128  1.2582  2.5970  0.2968
  116MOL0     H15618   7.027   8.743   5.297 -2.0509  2.1380 -0.1233
  116MOL0     H15619   7.107   8.875   5.244  2.3737 -0.5203  1.8023
  116MOL0     H15620   7.265   8.924   5.342 -1.9211 -0.4514 -0.5277
  116MOL0     H15621   7.488   9.038   5.353 -0.1647  1.8472 -2.5011
  116MOL0     H15622   8.004   8.787   5.028 -1.8541 -1.0180  1.8588
  116MOL0     H15623   8.234   8.813   5.016 -1.5957  0.9710 -2.6284
  116MOL0     H15624   8.408   9.190   5.199 -0.4076 -0.0714 -1.8533
  116MOL0     H15625   8.462   9.084   5.336 -1.2304 -2.8797 -0.6048
  116MOL0     H15626   8.663   9.020   5.202 -2.5988 -2.1468 -0.7118
  116MOL0     H15627   8.587   9.097   5.058 -1.7896 -0.1917 -0.5223
  116MOL0     H15628   8.584   9.317   5.155 -1.1925 -0.6410 -0.0930
  116MOL0     H15629   8.681   9.271   5.284  1.9045  1.0578  0.3859
  116MOL0     H15630   8.758   9.225   4.999  1.4506 -2.9407 -0.4706
  116MOL0     H15631   8.845   9.170   5.133 -0.8309  1.2450 -0.3810
  116MOL0     H15632   8.766   9.461   5.119 -4.3361 -3.3648 -1.4751
  116MOL0     H15633   8.914   9.408   5.015  0.1551 -0.4833  0.2183
  116MOL0     H15634   8.879   9.371   5.308 -2.1325 -0.7115 -3.0963
  116MOL0     H15635   9.028   9.331   5.211  0.4462 -1.6355 -0.0372
  116MOL0     H15636   9.034   9.545   5.342  3.4174  0.6417 -1.6318
  116MOL0     H15637   8.924   9.622   5.223 -2.5419 -2.5401 -2.8663
  116MOL0     H15638   9.085   9.570   5.047 -0.9407  0.2673  0.3512
  116MOL0     H15639   9.140   9.674   5.164  1.8556 -1.4863 -1.4478
  116MOL0     H15640   8.220   9.086   5.348  0.1122 -0.5723  0.7206
  116MOL0     H15641   7.977   9.062   5.354 -0.9244  1.3634 -1.1555
  116MOL0     H15642   7.667   8.709   5.140  0.1181  1.1213 -2.1690
  116MOL0     H15643   7.427   8.618   5.106 -2.2155  0.6155  0.9160
  116MOL0     H15644   7.389   8.376   5.938  0.0467 -2.9881  2.3115
  116MOL0     H15645   7.506   8.254   6.122 -0.6779 -3.7122 -0.1568
  116MOL0     H15646   7.658   7.903   6.266 -1.0023 -3.0924  0.5273
  116MOL0     H15647   7.709   7.724   6.412 -0.0315  0.5616  0.7882
  116MOL0     H15648   7.745   7.524   6.431  1.1194  0.2419 -2.1315
  116MOL0     H15649   7.802   7.587   6.587 -1.2033 -1.5678  0.5635
  116MOL0     H15650   7.934   7.334   6.484 -2.3528 -3.3095  0.1649
  116MOL0     H15651   7.788   7.333   6.580  0.0592 -0.9653  0.7775
  116MOL0     H15652   7.995   7.306   6.712 -2.1896 -0.1735  2.0646
  116MOL0     H15653   7.890   7.441   6.767  0.7920 -1.0718  1.6182
  116MOL0     H15654   8.124   7.445   6.585  0.6009 -4.1181  1.7069
  116MOL0     H15655   8.043   7.599   6.648  0.7704  0.4090 -0.6411
  116MOL0     H15656   8.354   7.466   6.906  2.0252  0.0712 -1.0079
  116MOL0     H15657   8.119   7.721   6.309  0.1291  1.2780  2.8494
  116MOL0     H15658   8.129   8.025   6.136  1.0355 -0.2579 -1.4061
  116MOL0     H15659   8.216   7.879   6.192 -0.2111 -1.0141 -0.0982
  116MOL0     H15660   8.137   7.866   6.038 -0.0728 -2.3584  0.2121
  117MOL0     O15661   2.100  10.433   6.308  0.9162 -0.0866 -0.3902
  117MOL0     C15662   2.152  10.330   6.270  1.2252  1.0003 -0.2081
  117MOL0     O15663   2.107  10.205   6.295  0.8604  0.0343 -0.5707
  117MOL0     C15664   1.985  10.192   6.352  0.3930  0.1905  0.1852
  117MOL0     C15665   1.959  10.074   6.423  0.6013  0.9918  0.1176
  117MOL0     C15666   1.830  10.037   6.460  0.4323 -0.4617 -0.3023
  117MOL0     C15667   1.714  10.115   6.441  1.0010  0.5651  0.3356
  117MOL0     O15668   1.583  10.081   6.484  0.0096 -0.0634  0.7568
  117MOL0     C15669   1.567   9.944   6.526 -0.3342 -0.9308  0.1423
  117MOL0     C15670   1.415   9.902   6.554 -1.1557 -0.1193  0.5472
  117MOL0     C15671   1.343   9.866   6.423 -0.3513  0.0752  0.1461
  117MOL0     C15672   1.207   9.807   6.435  0.7298 -0.5424 -0.4992
  117MOL0     C15673   1.129   9.808   6.302 -0.3377 -0.7687  0.7950
  117MOL0     C15674   1.210   9.760   6.183 -0.3214  0.2926 -0.2706
  117MOL0     C15675   1.131   9.736   6.053  0.2785  0.6143 -0.8276
  117MOL0     C15676   1.212   9.645   5.959 -0.2650 -0.0555 -0.1103
  117MOL0     N15677   1.336   9.726   5.915 -0.3669  0.3016  0.4973
  117MOL0     C15678   1.459   9.702   5.975 -0.1523  0.3760  0.2058
  117MOL0     C15679   1.531   9.797   5.918 -0.4269  0.4548 -0.3758
  117MOL0     C15680   1.675   9.817   5.947  0.3608 -0.5235  0.6035
  117MOL0     C15681   1.723   9.958   5.953 -0.2575 -0.3507  1.1300
  117MOL0     C15682   1.874   9.963   5.987  0.3854 -0.6709  0.1826
  117MOL0     C15683   1.960   9.913   5.874 -0.0062 -0.7592 -0.1399
  117MOL0     O15684   2.060   9.832   5.936 -0.5186 -0.3887 -0.2172
  117MOL0     C15685   2.165   9.782   5.870 -0.1366 -0.1103  0.5960
  117MOL0     C15686   2.176   9.768   5.732 -0.1622  0.9234  0.2724
  117MOL0     C15687   2.293   9.726   5.671  0.2361 -0.1907  0.6690
  117MOL0     C15688   2.406   9.712   5.750 -0.5877 -0.1038 -0.6735
  117MOL0     C15689   2.534   9.690   5.683 -0.5039 -0.1082  0.3929
  117MOL0     O15690   2.636   9.646   5.757  0.1427 -0.0861  0.4456
  117MOL0     C15691   2.751   9.588   5.703 -0.0516 -0.8643  0.9416
  117MOL0     C15692   2.849   9.563   5.789 -0.7665 -0.2818 -0.4827
  117MOL0     C15693   2.975   9.518   5.754  0.8459 -1.3206 -0.2902
  117MOL0     C15694   2.995   9.476   5.617  0.0237 -0.1776 -1.0010
  117MOL0     O15695   3.112   9.418   5.565 -0.3728  0.1434  0.3950
  117MOL0     C15696   3.229   9.388   5.640  0.1321 -0.8484 -0.9510
  117MOL0     C15697   3.347   9.363   5.542 -0.2908  0.5246  0.0951
  117MOL0     C15698   3.395   9.493   5.474 -0.5323 -0.8308 -0.2235
  117MOL0     C15699   3.489   9.468   5.356  0.5603 -0.0274  0.3388
  117MOL0     C15700   3.635   9.473   5.396 -0.4516  0.2502  0.2718
  117MOL0     C15701   3.739   9.441   5.280  0.1833 -0.4495 -0.0051
  117MOL0     C15702   3.707   9.506   5.148  0.1668 -0.3734  1.3619
  117MOL0     C15703   3.820   9.487   5.043  0.9585  0.1944 -0.8643
  117MOL0    Cl15704   3.795   9.597   4.902  0.1354  0.2077 -0.3512
  117MOL0     C15705   2.894   9.490   5.528  0.2540 -0.4985  0.6940
  117MOL0     C15706   2.770   9.545   5.567  0.0108 -0.1177 -0.5307
  117MOL0     O15707   2.540   9.698   5.557  0.0613 -0.0144 -0.2154
  117MOL0     C15708   2.401   9.728   5.896 -0.9956  0.0805  0.3600
  117MOL0     C15709   2.277   9.756   5.948  0.1922 -0.4092  0.1202
  117MOL0     N15710   1.467   9.865   5.824  0.1903 -0.1453 -0.2429
  117MOL0     N15711   1.342   9.817   5.812 -0.0804  0.0379  0.2942
  117MOL0     C15712   1.739  10.235   6.367 -1.2900 -0.7560 -0.2416
  117MOL0     C15713   1.873  10.266   6.327 -0.0157  1.1333  0.1696
  117MOL0     C15714   2.273  10.335   6.190 -0.3055 -1.0257 -0.0123
  117MOL0     C15715   2.356  10.451   6.211  0.1567  0.2530  0.3724
  117MOL0     C15716   2.481  10.460   6.144  0.0794  0.2772  1.0754
  117MOL0     C15717   2.523  10.370   6.047 -0.2623 -0.1260  0.0840
  117MOL0     O15718   2.629  10.405   5.969  0.0006 -0.5317 -0.0633
  117MOL0     C15719   2.637  10.347   5.834 -0.7214  0.1996 -0.3382
  117MOL0     C15720   2.740  10.423   5.754 -0.9607 -0.5080 -0.8626
  117MOL0     C15721   2.696  10.564   5.707  0.1837  1.2682 -0.4025
  117MOL0     C15722   2.786  10.675   5.755  0.0558 -0.2397  0.2620
  117MOL0     C15723   2.915  10.679   5.691 -0.2863 -1.0342 -0.8094
  117MOL0     C15724   3.028  10.664   5.637  0.7353 -0.2321 -0.9629
  117MOL0     C15725   2.438  10.263   6.026  0.0966  0.0506  0.5927
  117MOL0     C15726   2.315  10.241   6.091  0.3683 -0.8558 -0.5086
  117MOL0     C15727   2.233  10.124   6.048  0.1205 -0.6430  0.1797
  117MOL0     H15728   2.047  10.014   6.444  1.8083  2.0956 -1.4498
  117MOL0     H15729   1.820   9.940   6.508 -2.1603  1.1560  2.8104
  117MOL0     H15730   1.607   9.869   6.458 -1.5797  0.5231 -2.3234
  117MOL0     H15731   1.621   9.931   6.621  1.5436  1.7578 -0.4426
  117MOL0     H15732   1.368   9.981   6.615  1.2253  3.1882 -1.5717
  117MOL0     H15733   1.420   9.816   6.621  2.1350  0.1963  0.8705
  117MOL0     H15734   1.392   9.786   6.367 -2.6547 -1.9017  0.8018
  117MOL0     H15735   1.333   9.948   6.352 -0.8243  1.5944  1.8712
  117MOL0     H15736   1.226   9.705   6.471 -0.4694 -0.1746  1.3433
  117MOL0     H15737   1.155   9.870   6.508  2.1487  1.9393 -1.5080
  117MOL0     H15738   1.044   9.739   6.303 -1.3028  0.2779 -1.7640
  117MOL0     H15739   1.089   9.908   6.283  1.8804  0.1812  0.7332
  117MOL0     H15740   1.291   9.834   6.175  1.4032 -0.9462  3.4264
  117MOL0     H15741   1.256   9.662   6.203  0.8860  1.2589  1.9883
  117MOL0     H15742   1.113   9.829   5.998 -0.1999  0.2972 -1.2226
  117MOL0     H15743   1.037   9.689   6.084  0.4340  1.3351  0.7893
  117MOL0     H15744   1.245   9.550   6.001  2.9725  0.6680 -0.6798
  117MOL0     H15745   1.157   9.625   5.867  0.2932 -1.1966 -0.2163
  117MOL0     H15746   1.484   9.629   6.051 -1.6145 -1.2061 -0.7527
  117MOL0     H15747   1.685   9.782   6.050  0.7495  1.4163  1.2715
  117MOL0     H15748   1.732   9.750   5.881  0.1655 -1.4596  1.3614
  117MOL0     H15749   1.710  10.008   5.857  2.2632 -0.4213  0.6818
  117MOL0     H15750   1.658  10.000   6.030  0.4311 -0.0848  1.5795
  117MOL0     H15751   1.891   9.899   6.074  0.2575 -0.5574  0.2912
  117MOL0     H15752   1.906  10.059   6.029  1.9221  0.1988 -2.7370
  117MOL0     H15753   2.010  10.000   5.830  3.5157 -1.4868  1.9845
  117MOL0     H15754   1.913   9.848   5.800  1.1436 -1.3347 -0.3857
  117MOL0     H15755   2.087   9.784   5.672  1.9453  0.8853 -3.1257
  117MOL0     H15756   2.289   9.729   5.563  0.4169 -2.7039  0.5455
  117MOL0     H15757   2.838   9.582   5.896  0.1091  1.3062 -0.6427
  117MOL0     H15758   3.052   9.502   5.829  0.8461 -1.6257 -0.3557
  117MOL0     H15759   3.249   9.475   5.703  2.8256 -0.9717 -1.5312
  117MOL0     H15760   3.230   9.306   5.713  0.8606  0.9977  1.2431
  117MOL0     H15761   3.430   9.318   5.598  0.9364  1.0876 -1.2138
  117MOL0     H15762   3.323   9.281   5.474  2.4045  0.0666 -0.4529
  117MOL0     H15763   3.303   9.538   5.434 -1.7312 -0.9046  2.2655
  117MOL0     H15764   3.445   9.561   5.544 -0.4857 -1.7266  0.6299
  117MOL0     H15765   3.466   9.549   5.287 -1.6267 -0.4161  0.5475
  117MOL0     H15766   3.463   9.379   5.298 -0.9270 -0.0904  1.0555
  117MOL0     H15767   3.649   9.396   5.472 -2.0571  1.8693  2.3221
  117MOL0     H15768   3.660   9.563   5.452 -3.3928 -0.0588  2.3109
  117MOL0     H15769   3.844   9.451   5.309  0.1241  1.1750 -0.2482
  117MOL0     H15770   3.725   9.333   5.269  0.7374 -0.5200 -0.0681
  117MOL0     H15771   3.709   9.614   5.161  1.2126  0.0088 -1.2253
  117MOL0     H15772   3.612   9.469   5.109  0.0325  0.9791  0.3409
  117MOL0     H15773   3.915   9.514   5.091 -0.0765 -0.0451  1.4650
  117MOL0     H15774   3.821   9.385   5.004 -0.2348 -0.1531 -0.0465
  117MOL0     H15775   2.909   9.455   5.427 -0.2605  1.2157 -0.0109
  117MOL0     H15776   2.708   9.557   5.479  2.2215 -0.6193 -2.2333
  117MOL0     H15777   2.482   9.705   5.965 -1.3478 -2.9747 -0.1154
  117MOL0     H15778   2.261   9.773   6.054 -1.1194 -0.6647 -0.0165
  117MOL0     H15779   1.655  10.299   6.344 -0.9660 -0.5166 -0.7683
  117MOL0     H15780   1.875  10.346   6.253 -1.2433  1.4676  0.4777
  117MOL0     H15781   2.331  10.534   6.276  1.6503  0.7168  0.3891
  117MOL0     H15782   2.535  10.554   6.146 -1.3947  1.2602 -1.1780
  117MOL0     H15783   2.541  10.351   5.782 -1.5886 -4.1069  0.5200
  117MOL0     H15784   2.665  10.241   5.841 -1.1926 -0.0023 -1.3785
  117MOL0     H15785   2.765  10.358   5.669  2.4526 -0.9379  0.3189
  117MOL0     H15786   2.835  10.423   5.808 -1.4116 -2.1999  0.0009
  117MOL0     H15787   2.603  10.587   5.760  1.4517 -0.0812  2.7050
  117MOL0     H15788   2.688  10.576   5.599 -0.8961  1.8162 -0.2746
  117MOL0     H15789   2.748  10.775   5.734  0.6183  0.4719  2.3315
  117MOL0     H15790   2.800  10.667   5.863 -0.3266 -1.7453  0.2157
  117MOL0     H15791   3.116  10.643   5.580  1.0359 -2.6332  0.2924
  117MOL0     H15792   2.454  10.189   5.948  1.0594  0.3745  0.4696
  117MOL0     H15793   2.257  10.091   5.946 -0.7838  2.6506 -1.2359
  117MOL0     H15794   2.249  10.036   6.112  1.6918  0.0585  0.8029
  117MOL0     H15795   2.129  10.152   6.034  0.7671  1.1656 -1.5293
  118MOL0     O15796   5.139   2.646   0.775  0.3229 -0.3645 -0.6794
  118MOL0     C15797   5.066   2.639   0.679 -0.0253  0.9178 -0.1452
  118MOL0     O15798   5.061   2.737   0.582 -0.4477 -0.5068  0.6326
  118MOL0     C15799   5.152   2.836   0.604  0.2848  0.0832  0.7392
  118MOL0     C15800   5.128   2.967   0.664 -0.1892 -0.9600 -0.3298
  118MOL0     C15801   5.232   3.052   0.691  0.4830 -0.4242  0.4985
  118MOL0     C15802   5.356   3.032   0.631  0.3326  0.1185 -0.1361
  118MOL0     O15803   5.455   3.129   0.637  0.0373 -0.0953  0.3602
  118MOL0     C15804   5.479   3.200   0.756 -0.8188  0.3191  0.1076
  118MOL0     C15805   5.585   3.311   0.732 -0.5395 -0.0933 -0.4344
  118MOL0     C15806   5.726   3.258   0.689  0.0237 -0.5452 -0.5378
  118MOL0     C15807   5.826   3.383   0.689 -0.2874 -0.5924  0.3592
  118MOL0     C15808   5.969   3.324   0.701  0.8756  0.7725  0.1216
  118MOL0     C15809   6.080   3.420   0.739 -0.0481  0.8884 -1.1516
  118MOL0     C15810   6.082   3.472   0.884  0.3238  0.2920  0.6223
  118MOL0     C15811   6.188   3.574   0.895  1.4405  0.0940 -0.5205
  118MOL0     N15812   6.181   3.619   1.035  0.1833  0.1988  0.4243
  118MOL0     C15813   6.243   3.558   1.151  0.4790  0.6103  0.3677
  118MOL0     C15814   6.191   3.625   1.262 -0.3576  0.1954  0.4510
  118MOL0     C15815   6.254   3.617   1.400 -0.6324  0.8538 -0.3512
  118MOL0     C15816   6.145   3.630   1.509  0.1454 -0.6315  0.1075
  118MOL0     C15817   6.215   3.620   1.645 -0.6229  0.7422  0.0679
  118MOL0     C15818   6.243   3.755   1.713  0.4196 -0.2383  0.4354
  118MOL0     O15819   6.362   3.753   1.791 -0.1415 -0.4968  0.0280
  118MOL0     C15820   6.423   3.874   1.816 -0.1378  0.8316 -0.0045
  118MOL0     C15821   6.366   4.001   1.793 -0.1470 -0.3999  0.6451
  118MOL0     C15822   6.437   4.117   1.830 -0.2227  0.0039 -0.2723
  118MOL0     C15823   6.555   4.113   1.894 -0.5127 -0.3310 -0.5402
  118MOL0     C15824   6.636   4.228   1.922  0.3918 -1.1598 -0.4508
  118MOL0     O15825   6.729   4.214   2.023 -0.1165 -0.6902  0.0581
  118MOL0     C15826   6.781   4.329   2.080  0.1070  0.5782  0.6767
  118MOL0     C15827   6.715   4.446   2.096  0.8736 -0.3083  0.0261
  118MOL0     C15828   6.789   4.560   2.129 -0.1710  0.5002 -0.7686
  118MOL0     C15829   6.929   4.553   2.147 -0.0515 -0.9588  1.0354
  118MOL0     O15830   7.012   4.661   2.163 -0.1350  0.4460 -0.3668
  118MOL0     C15831   6.958   4.790   2.133 -0.2556  0.5982  0.1056
  118MOL0     C15832   6.904   4.851   2.252 -0.0088 -0.6523 -0.0341
  118MOL0     C15833   6.812   4.965   2.215  0.4203  0.2807  0.4340
  118MOL0     C15834   6.661   4.919   2.227 -0.6280 -0.6432 -0.0810
  118MOL0     C15835   6.563   5.034   2.220  0.2872 -0.3501 -0.3709
  118MOL0     C15836   6.580   5.142   2.330  0.0353  0.1526  0.1965
  118MOL0     C15837   6.590   5.075   2.471  0.2552  0.0972  0.5524
  118MOL0     C15838   6.567   5.183   2.580 -0.7211  0.4952  1.0539
  118MOL0    Cl15839   6.615   5.109   2.738 -0.1325  0.4247 -0.2009
  118MOL0     C15840   6.982   4.423   2.159 -0.7397  0.6451 -0.2081
  118MOL0     C15841   6.912   4.308   2.117  0.0691 -0.7699  0.4625
  118MOL0     O15842   6.602   4.333   1.869 -0.2223 -0.0143 -0.1446
  118MOL0     C15843   6.608   3.987   1.917 -0.0569  0.8596  0.9135
  118MOL0     C15844   6.548   3.871   1.878 -0.3027  1.2295 -0.0413
  118MOL0     N15845   6.103   3.713   1.220 -0.2128 -0.8252  1.1327
  118MOL0     N15846   6.093   3.708   1.090 -0.2900 -0.1276 -0.3307
  118MOL0     C15847   5.379   2.918   0.559  0.8076  1.7409 -0.1857
  118MOL0     C15848   5.281   2.817   0.554 -0.5754 -0.3874 -1.3357
  118MOL0     C15849   4.971   2.530   0.666  0.4167  0.7278 -0.1648
  118MOL0     C15850   4.886   2.528   0.558 -0.4387 -0.8241  1.4009
  118MOL0     C15851   4.782   2.433   0.549 -0.2880  0.6091 -0.6614
  118MOL0     C15852   4.745   2.354   0.659 -1.0637 -0.2693 -0.6802
  118MOL0     O15853   4.626   2.276   0.651 -0.2873 -0.3636 -0.0670
  118MOL0     C15854   4.589   2.201   0.769 -0.0324  0.5850  0.5872
  118MOL0     C15855   4.528   2.300   0.875 -0.2261 -0.1145 -1.0864
  118MOL0     C15856   4.480   2.210   0.993 -0.0070  0.6114  0.0957
  118MOL0     C15857   4.583   2.142   1.084 -0.7695  0.4884 -1.1505
  118MOL0     C15858   4.541   2.016   1.151 -0.6142 -0.4411 -0.2163
  118MOL0     C15859   4.507   1.904   1.187 -0.3523 -0.8106 -0.4756
  118MOL0     C15860   4.838   2.356   0.773  1.3295  0.4931  0.4090
  118MOL0     C15861   4.953   2.433   0.779 -0.0492  0.5014  0.2832
  118MOL0     C15862   5.047   2.420   0.897 -0.0306 -0.0329  0.7763
  118MOL0     H15863   5.043   2.988   0.729  0.7020 -2.6172  1.4934
  118MOL0     H15864   5.208   3.138   0.753  2.2470  0.2956  0.2724
  118MOL0     H15865   5.386   3.238   0.800 -0.9606  2.0246 -1.5704
  118MOL0     H15866   5.510   3.124   0.829 -1.1370  0.2271  0.1525
  118MOL0     H15867   5.594   3.367   0.825  2.4855  0.7725 -1.1566
  118MOL0     H15868   5.549   3.380   0.655  2.7550  0.0402 -2.0282
  118MOL0     H15869   5.727   3.204   0.593 -3.1074  0.6581 -1.3668
  118MOL0     H15870   5.751   3.192   0.773 -0.4788  1.4514  1.2600
  118MOL0     H15871   5.806   3.437   0.596 -0.4048  1.1377  1.3454
  118MOL0     H15872   5.798   3.443   0.777 -0.8098 -0.4946  0.1286
  118MOL0     H15873   5.964   3.246   0.777 -2.0946  0.4005 -0.3387
  118MOL0     H15874   5.986   3.271   0.607 -1.8080 -0.8346  0.4471
  118MOL0     H15875   6.176   3.371   0.725 -1.0246 -1.5285  0.0456
  118MOL0     H15876   6.068   3.505   0.671  0.0006 -1.7982 -4.8078
  118MOL0     H15877   6.091   3.380   0.943 -0.7144  0.2778  0.7751
  118MOL0     H15878   5.989   3.527   0.899  1.5556  1.5437  5.5827
  118MOL0     H15879   6.279   3.532   0.851  0.8851  0.0897 -1.7210
  118MOL0     H15880   6.163   3.662   0.835 -4.7744 -2.0764 -1.9207
  118MOL0     H15881   6.317   3.479   1.150  0.0646  0.1726 -2.2819
  118MOL0     H15882   6.304   3.519   1.402 -0.9318  0.6773  2.3920
  118MOL0     H15883   6.335   3.690   1.408 -0.1533  0.3454 -0.4919
  118MOL0     H15884   6.094   3.727   1.502  0.5523 -0.4603 -0.6611
  118MOL0     H15885   6.075   3.547   1.493 -3.1648  1.7012  1.4331
  118MOL0     H15886   6.310   3.566   1.634 -0.8902 -0.2402  2.0775
  118MOL0     H15887   6.154   3.554   1.707 -2.3820  1.4058 -0.8732
  118MOL0     H15888   6.155   3.797   1.764  1.2896  3.3383 -0.6919
  118MOL0     H15889   6.256   3.831   1.635 -3.9414  3.0015  2.4007
  118MOL0     H15890   6.266   4.019   1.754 -0.5891 -0.5672  1.6553
  118MOL0     H15891   6.394   4.213   1.804 -1.2418 -1.3276 -4.0896
  118MOL0     H15892   6.611   4.447   2.068  1.4059 -2.6949 -2.4299
  118MOL0     H15893   6.734   4.653   2.119 -2.6028 -0.8624 -1.0547
  118MOL0     H15894   7.047   4.842   2.098 -1.0499  2.1875  0.3536
  118MOL0     H15895   6.891   4.806   2.048  0.7824 -0.0142 -0.8528
  118MOL0     H15896   6.851   4.778   2.313 -0.6258 -0.7440 -0.6611
  118MOL0     H15897   6.991   4.888   2.308 -0.2551 -1.1346  0.6757
  118MOL0     H15898   6.837   5.047   2.283  3.6173  0.2332 -0.5233
  118MOL0     H15899   6.824   4.996   2.111 -0.3560  0.2619  0.3352
  118MOL0     H15900   6.654   4.864   2.321 -0.2451  0.2028  0.4411
  118MOL0     H15901   6.631   4.854   2.143 -2.0181  1.0130 -0.9305
  118MOL0     H15902   6.459   5.002   2.234 -0.1969  1.5906  0.9169
  118MOL0     H15903   6.560   5.082   2.122  1.3570 -1.6661 -1.0716
  118MOL0     H15904   6.673   5.197   2.311  1.5681 -2.1946  0.5572
  118MOL0     H15905   6.505   5.222   2.332 -0.1034  0.0115  0.8544
  118MOL0     H15906   6.693   5.038   2.482  0.4390 -0.2423 -1.7792
  118MOL0     H15907   6.519   4.993   2.485  0.4419 -0.1952 -0.1417
  118MOL0     H15908   6.632   5.268   2.556  3.6166 -3.1149 -1.7878
  118MOL0     H15909   6.467   5.225   2.590 -2.3967 -2.1485 -2.3714
  118MOL0     H15910   7.084   4.415   2.194 -0.9958 -0.3797  0.3325
  118MOL0     H15911   6.958   4.210   2.115 -3.7524 -2.7759  0.7121
  118MOL0     H15912   6.702   3.981   1.970  0.5990  0.2923 -0.2778
  118MOL0     H15913   6.599   3.778   1.899  0.3536  2.0806  2.4492
  118MOL0     H15914   5.481   2.917   0.522  0.8737 -2.3257 -0.3411
  118MOL0     H15915   5.301   2.730   0.493 -0.7644 -0.0712 -1.8531
  118MOL0     H15916   4.897   2.596   0.474 -1.2535 -1.8155  0.4683
  118MOL0     H15917   4.710   2.427   0.467 -1.4431  0.7942  0.3052
  118MOL0     H15918   4.665   2.141   0.819 -1.9513 -0.6766  2.1866
  118MOL0     H15919   4.515   2.134   0.723  0.3129  3.0878 -4.2684
  118MOL0     H15920   4.448   2.359   0.828 -2.0809  1.2940  3.2714
  118MOL0     H15921   4.600   2.370   0.917 -2.0137 -0.2818  2.7210
  118MOL0     H15922   4.406   2.139   0.957  0.2731  0.9000 -1.1028
  118MOL0     H15923   4.416   2.279   1.050  2.5483  1.5431  2.0364
  118MOL0     H15924   4.678   2.128   1.032  0.2869  2.8294  0.0178
  118MOL0     H15925   4.599   2.212   1.166  0.4931  0.6404 -1.5061
  118MOL0     H15926   4.461   1.821   1.236 -0.6950  0.7282  2.0182
  118MOL0     H15927   4.812   2.283   0.849  1.2428 -1.3201 -1.2823
  118MOL0     H15928   5.148   2.399   0.861 -0.6196  0.9317 -1.6619
  118MOL0     H15929   5.046   2.516   0.950  2.7726 -0.4913  1.8354
  118MOL0     H15930   5.010   2.341   0.963  0.2149 -1.3332 -0.6030
  119MOL0     O15931  10.625   3.101   4.299 -0.3381  0.2939 -0.4097
  119MOL0     C15932  10.600   2.989   4.343 -0.3908 -0.6081 -0.2323
  119MOL0     O15933  10.695   2.910   4.406  0.0460 -0.2840  0.0380
  119MOL0     C15934  10.825   2.952   4.428  0.2170 -0.0559  1.0244
  119MOL0     C15935  10.923   2.969   4.332 -0.0577 -0.5623 -0.2728
  119MOL0     C15936  11.053   3.007   4.365  0.2860  0.7642 -0.4550
  119MOL0     C15937  11.076   3.029   4.504  1.0515  0.5771  0.5312
  119MOL0     O15938  11.186   3.084   4.552  0.2399  0.0804  0.1412
  119MOL0     C15939  11.312   3.026   4.504  0.5575  0.3727  0.4104
  119MOL0     C15940  11.413   3.130   4.540 -0.1020 -0.3504  1.1027
  119MOL0     C15941  11.552   3.079   4.522  0.6449 -0.6526  0.3085
  119MOL0     C15942  11.671   3.187   4.514  0.3114  0.6568 -0.7673
  119MOL0     C15943  11.805   3.116   4.493 -0.1081 -0.2515 -0.3918
  119MOL0     C15944  11.918   3.220   4.467  0.4330  1.0844 -0.7567
  119MOL0     C15945  12.060   3.150   4.457  0.7813  0.5566 -0.0982
  119MOL0     C15946  12.108   3.088   4.594 -0.5448 -0.0448 -0.4882
  119MOL0     N15947  12.255   3.054   4.586 -0.3422  0.0906  0.8840
  119MOL0     C15948  12.304   2.923   4.555  0.6444 -0.2238 -0.3845
  119MOL0     C15949  12.440   2.931   4.573  1.1269  0.0191  0.3588
  119MOL0     C15950  12.537   2.813   4.546  0.8781 -0.9335 -0.0254
  119MOL0     C15951  12.657   2.854   4.460 -0.9166 -0.0905  0.5557
  119MOL0     C15952  12.761   2.737   4.455  0.2044  0.2563 -0.0893
  119MOL0     C15953  12.899   2.783   4.408  0.4274  0.1648  0.0388
  119MOL0     O15954  12.953   2.667   4.343 -0.3041 -0.0140  0.3092
  119MOL0     C15955  13.088   2.667   4.311 -0.3910 -0.3882 -0.4775
  119MOL0     C15956  13.161   2.542   4.302  1.0517 -0.7592  0.4886
  119MOL0     C15957  13.298   2.541   4.276 -0.6778 -0.2055  0.2708
  119MOL0     C15958  13.364   2.655   4.236 -0.3661 -0.1946  0.7981
  119MOL0     C15959  13.505   2.640   4.193 -0.0315  0.6383  0.4345
  119MOL0     O15960  13.568   2.520   4.220  0.5686 -0.1886 -0.0293
  119MOL0     C15961  13.693   2.502   4.183  0.4662  0.5746  0.4439
  119MOL0     C15962  13.805   2.584   4.222 -0.5207  1.3725 -0.2422
  119MOL0     C15963  13.927   2.547   4.170 -0.9415  0.5606 -0.7080
  119MOL0     C15964  13.947   2.439   4.092 -0.7025 -0.2136 -0.5369
  119MOL0     O15965  14.076   2.417   4.051 -0.4616  0.0086 -0.1120
  119MOL0     C15966  14.108   2.288   3.996 -0.6325 -0.2102  0.9913
  119MOL0     C15967  14.263   2.274   3.974  0.1123 -0.1533  0.1174
  119MOL0     C15968  14.344   2.298   4.098  0.0494  0.6415 -0.7966
  119MOL0     C15969  14.485   2.239   4.094 -1.0155  0.0927 -0.1779
  119MOL0     C15970  14.571   2.276   4.215 -0.1629  0.2479  0.5741
  119MOL0     C15971  14.721   2.232   4.202 -0.8684 -0.0105  0.6411
  119MOL0     C15972  14.779   2.258   4.333 -0.0065  0.1493 -0.3350
  119MOL0     C15973  14.926   2.218   4.317 -0.3245  0.4841  0.5725
  119MOL0    Cl15974  14.928   2.044   4.313 -0.1907 -0.0531  0.1366
  119MOL0     C15975  13.840   2.360   4.050  0.1013 -0.2162 -0.4352
  119MOL0     C15976  13.719   2.391   4.099  0.4025  0.0779  0.1982
  119MOL0     O15977  13.557   2.737   4.153  0.2233  0.4037 -0.4247
  119MOL0     C15978  13.295   2.777   4.232  0.8005  0.2960 -0.2036
  119MOL0     C15979  13.162   2.776   4.265  0.1630  0.2108  0.0820
  119MOL0     N15980  12.469   3.054   4.610  0.7267  0.5629 -0.1223
  119MOL0     N15981  12.358   3.131   4.618  0.4547 -0.0643  0.0554
  119MOL0     C15982  10.979   3.008   4.598 -0.2096 -0.5409  0.2049
  119MOL0     C15983  10.852   2.969   4.563 -0.0528  0.0633  0.1428
  119MOL0     C15984  10.477   2.935   4.329  0.1272  0.2854  1.2495
  119MOL0     C15985  10.430   2.918   4.196  1.0273 -0.5967  0.2597
  119MOL0     C15986  10.301   2.891   4.163  0.8274  0.2114  0.2404
  119MOL0     C15987  10.204   2.871   4.258 -0.2694  0.2312  0.5118
  119MOL0     O15988  10.069   2.862   4.246  0.2960  0.1501 -0.2904
  119MOL0     C15989  10.007   2.877   4.115 -0.6005  0.6159 -0.3621
  119MOL0     C15990   9.861   2.907   4.133  0.6981 -0.0918 -0.0827
  119MOL0     C15991   9.784   2.798   4.203 -0.3134  0.9817 -1.2271
  119MOL0     C15992   9.766   2.818   4.359 -0.5388 -0.1024 -0.1381
  119MOL0     C15993   9.713   2.699   4.420  0.0522  0.0160 -0.8456
  119MOL0     C15994   9.678   2.597   4.482  0.0202 -0.9610  0.0454
  119MOL0     C15995  10.243   2.878   4.390 -0.3442  0.5475  0.4303
  119MOL0     C15996  10.381   2.910   4.423 -0.0843 -0.3963 -0.0130
  119MOL0     C15997  10.413   2.922   4.577 -0.0806  0.0842  0.0927
  119MOL0     H15998  10.913   2.944   4.226  0.8726  0.2925 -0.5754
  119MOL0     H15999  11.133   3.029   4.295  0.0788  0.6845 -0.7200
  119MOL0     H16000  11.331   2.927   4.545 -2.6385 -0.6129 -0.1855
  119MOL0     H16001  11.321   3.002   4.398  0.3238 -0.1993  0.5156
  119MOL0     H16002  11.398   3.154   4.645  3.6549  0.1317  1.6670
  119MOL0     H16003  11.386   3.219   4.483 -1.9021 -0.2026  2.1175
  119MOL0     H16004  11.556   3.030   4.425 -0.0783  0.4201 -0.2789
  119MOL0     H16005  11.568   3.007   4.603  4.9675  1.3258  1.5702
  119MOL0     H16006  11.662   3.258   4.431  3.5295 -0.0280 -1.8611
  119MOL0     H16007  11.672   3.253   4.601 -2.9601 -1.7511  1.3395
  119MOL0     H16008  11.829   3.047   4.575 -1.7312 -0.3596  0.0475
  119MOL0     H16009  11.785   3.052   4.406 -1.1060 -0.0097 -0.3531
  119MOL0     H16010  11.895   3.274   4.376 -2.3372 -1.4648 -1.7385
  119MOL0     H16011  11.920   3.296   4.545 -2.0507 -0.3084  0.8028
  119MOL0     H16012  12.133   3.221   4.417  2.6225 -1.7084 -1.0202
  119MOL0     H16013  12.056   3.063   4.391  0.8143 -2.3545  3.3945
  119MOL0     H16014  12.089   3.158   4.676  1.3508 -1.0210  0.8611
  119MOL0     H16015  12.047   3.003   4.624 -0.2720 -0.1504 -0.2195
  119MOL0     H16016  12.246   2.834   4.533 -0.7186  0.0927  1.6615
  119MOL0     H16017  12.568   2.756   4.634  0.1641 -1.4442 -0.0941
  119MOL0     H16018  12.478   2.757   4.473  2.5346 -0.1677 -2.0573
  119MOL0     H16019  12.619   2.869   4.358 -0.8348  2.8036  0.8677
  119MOL0     H16020  12.709   2.940   4.503  1.6948 -2.6673  2.9628
  119MOL0     H16021  12.716   2.658   4.395  0.4008  1.1285 -1.4362
  119MOL0     H16022  12.783   2.688   4.550 -0.0527 -3.0665 -1.5960
  119MOL0     H16023  12.957   2.817   4.494 -1.9646 -3.1018  3.2539
  119MOL0     H16024  12.891   2.870   4.342 -1.5679  0.5050  0.6523
  119MOL0     H16025  13.103   2.451   4.320  0.6875 -0.2423  2.1534
  119MOL0     H16026  13.351   2.447   4.272  1.1625  0.8294 -1.0575
  119MOL0     H16027  13.789   2.667   4.290 -0.1665 -0.9267  2.8673
  119MOL0     H16028  14.009   2.615   4.190 -0.7028 -0.4549  2.2248
  119MOL0     H16029  14.083   2.210   4.069 -2.0142 -0.0844  0.6758
  119MOL0     H16030  14.056   2.266   3.903  0.6008  1.4610 -0.1590
  119MOL0     H16031  14.288   2.174   3.937  0.0126  0.5850 -2.0843
  119MOL0     H16032  14.279   2.347   3.895 -2.7590  1.6735  1.0838
  119MOL0     H16033  14.341   2.406   4.119 -2.0700  0.1790  1.9078
  119MOL0     H16034  14.288   2.247   4.177 -0.2530  2.2300  0.0566
  119MOL0     H16035  14.533   2.263   3.998 -2.4114 -0.1603 -0.9750
  119MOL0     H16036  14.495   2.130   4.094 -0.8855  0.1035 -0.1997
  119MOL0     H16037  14.542   2.221   4.306 -0.4216 -2.4089 -1.0148
  119MOL0     H16038  14.557   2.383   4.232 -2.0842  0.3875 -1.3994
  119MOL0     H16039  14.729   2.127   4.172  0.1681  0.4397 -0.7435
  119MOL0     H16040  14.765   2.297   4.126 -0.2572 -0.3721  0.6792
  119MOL0     H16041  14.744   2.194   4.415  1.7789 -0.0110  0.3470
  119MOL0     H16042  14.761   2.363   4.359 -1.2570 -0.1161 -0.0408
  119MOL0     H16043  14.970   2.248   4.222 -1.2247  0.3336  0.0881
  119MOL0     H16044  14.994   2.251   4.396 -0.6368  1.2105  0.5394
  119MOL0     H16045  13.858   2.271   3.991  0.0590 -1.4164  1.2756
  119MOL0     H16046  13.642   2.317   4.076  0.0642  0.3556  0.4282
  119MOL0     H16047  13.342   2.867   4.194 -0.3787  1.4935  1.0432
  119MOL0     H16048  13.108   2.870   4.256  2.0751  1.3118 -0.5032
  119MOL0     H16049  11.000   3.037   4.700 -2.9293  2.1019  0.1186
  119MOL0     H16050  10.783   2.952   4.644  0.6348  0.4480  0.8249
  119MOL0     H16051  10.494   2.934   4.110 -1.0065 -1.2996 -1.4591
  119MOL0     H16052  10.273   2.882   4.058 -1.9234  1.0671  0.8227
  119MOL0     H16053  10.032   2.784   4.062  0.4755  1.8867 -2.1987
  119MOL0     H16054  10.058   2.949   4.051 -0.2555 -0.1508 -0.9695
  119MOL0     H16055   9.820   2.925   4.034  3.1380  1.6043 -0.8982
  119MOL0     H16056   9.846   2.998   4.192  1.4916 -1.6834  2.7842
  119MOL0     H16057   9.831   2.704   4.176  1.5934  2.2774 -2.7306
  119MOL0     H16058   9.684   2.797   4.159 -0.1186 -0.2773 -1.6791
  119MOL0     H16059   9.863   2.847   4.401 -0.5599  0.6739 -0.6160
  119MOL0     H16060   9.702   2.905   4.376 -0.3224  0.3322 -1.4507
  119MOL0     H16061   9.641   2.510   4.531 -2.7471 -2.5251 -4.2794
  119MOL0     H16062  10.176   2.842   4.467 -0.5389 -2.0838 -0.8476
  119MOL0     H16063  10.362   3.012   4.613  3.3205  2.4986 -0.5896
  119MOL0     H16064  10.402   2.833   4.639  1.4769  0.3014  0.7410
  119MOL0     H16065  10.519   2.946   4.588  0.4059 -0.5251 -2.6290
  120MOL0     O16066   2.117   3.152   6.831 -0.2897 -0.4722 -0.6080
  120MOL0     C16067   2.160   3.222   6.920  0.0987 -0.1713 -0.4611
  120MOL0     O16068   2.112   3.216   7.056 -0.0429 -1.1752 -0.1718
  120MOL0     C16069   2.012   3.128   7.078 -0.3628  0.4202  0.3057
  120MOL0     C16070   1.889   3.173   7.130  0.5689  0.3739  0.1028
  120MOL0     C16071   1.794   3.079   7.171  0.5019  0.7372  0.1721
  120MOL0     C16072   1.820   2.943   7.169 -0.2436  1.1682 -0.0333
  120MOL0     O16073   1.726   2.845   7.190  0.7579 -0.1064  0.0582
  120MOL0     C16074   1.677   2.833   7.324  0.4793  0.3223  0.3803
  120MOL0     C16075   1.551   2.742   7.331  0.3784  0.1520  0.6756
  120MOL0     C16076   1.494   2.748   7.476  0.4767  0.2947  0.0663
  120MOL0     C16077   1.563   2.658   7.577  0.7685  0.6550  0.4559
  120MOL0     C16078   1.471   2.619   7.698  0.0179 -0.7133  0.6714
  120MOL0     C16079   1.558   2.546   7.795 -0.2474 -0.5387  0.3239
  120MOL0     C16080   1.473   2.473   7.902 -0.2419  1.1436  0.2144
  120MOL0     C16081   1.559   2.382   7.991  0.6437 -0.4117 -0.2257
  120MOL0     N16082   1.691   2.438   8.019 -0.1200 -0.2029  0.1308
  120MOL0     C16083   1.805   2.403   7.952 -0.7281 -0.1512 -0.0208
  120MOL0     C16084   1.904   2.464   8.014 -0.2148 -0.4444 -0.3024
  120MOL0     C16085   2.047   2.445   7.988  0.3590  0.6601 -0.2846
  120MOL0     C16086   2.145   2.550   8.059 -0.2394 -0.0691  0.7551
  120MOL0     C16087   2.293   2.538   8.031  0.1796 -0.4879  0.3771
  120MOL0     C16088   2.339   2.550   7.891  0.2446  0.3293 -0.1612
  120MOL0     O16089   2.480   2.574   7.893  0.7006 -0.0314  0.1273
  120MOL0     C16090   2.541   2.609   7.781  0.6675 -0.2015  0.3846
  120MOL0     C16091   2.482   2.604   7.654 -0.2733 -0.6081  0.2198
  120MOL0     C16092   2.555   2.655   7.544  0.5048  0.9156  0.0804
  120MOL0     C16093   2.682   2.713   7.557  0.6330 -0.2137  0.6762
  120MOL0     C16094   2.745   2.777   7.437  0.3582 -0.1086  0.4273
  120MOL0     O16095   2.854   2.845   7.459  0.0372 -0.6194 -0.4541
  120MOL0     C16096   2.925   2.909   7.359 -0.3321  0.5396  0.0339
  120MOL0     C16097   2.980   3.034   7.394 -0.3008 -1.0991 -0.3213
  120MOL0     C16098   3.055   3.110   7.301 -0.1758  0.6140  0.9258
  120MOL0     C16099   3.100   3.052   7.183  0.0482 -0.4168 -0.2355
  120MOL0     O16100   3.186   3.112   7.101  0.6233 -0.2005  0.5125
  120MOL0     C16101   3.320   3.075   7.139 -0.2047 -0.1757  0.2881
  120MOL0     C16102   3.370   3.099   7.284  0.5249 -0.1928 -0.2675
  120MOL0     C16103   3.412   3.241   7.308  0.4882 -0.3654 -0.1069
  120MOL0     C16104   3.473   3.271   7.446  0.2768 -0.6906  0.2103
  120MOL0     C16105   3.565   3.392   7.462 -0.8747 -0.0516 -0.3784
  120MOL0     C16106   3.691   3.382   7.369  0.8249 -0.2034 -0.5772
  120MOL0     C16107   3.803   3.466   7.424 -0.0416  0.1290  0.0296
  120MOL0     C16108   3.782   3.612   7.403  0.5032 -0.4327 -0.2497
  120MOL0    Cl16109   3.931   3.685   7.477  0.0056 -0.3261  0.1909
  120MOL0     C16110   3.050   2.924   7.147  0.3821 -0.0716  0.0905
  120MOL0     C16111   2.958   2.850   7.228 -0.1583  0.2364 -0.1203
  120MOL0     O16112   2.685   2.755   7.328  0.2195 -0.4786  0.3957
  120MOL0     C16113   2.736   2.717   7.685  0.2049 -0.4607 -0.4999
  120MOL0     C16114   2.667   2.668   7.798 -0.8917  0.7630 -0.6435
  120MOL0     N16115   1.846   2.557   8.104  0.0198 -0.1628  0.7690
  120MOL0     N16116   1.721   2.544   8.101  0.1922 -0.1976  0.1784
  120MOL0     C16117   1.940   2.901   7.112  0.3701 -0.6666 -0.1802
  120MOL0     C16118   2.033   2.991   7.072 -1.1648  0.4667  0.5456
  120MOL0     C16119   2.260   3.333   6.892  0.1195  1.5035  1.2134
  120MOL0     C16120   2.310   3.396   7.007  0.4995 -0.1436 -1.0346
  120MOL0     C16121   2.389   3.518   7.007  0.5331  0.2983  0.4687
  120MOL0     C16122   2.438   3.559   6.882 -0.7124  0.1394  0.0628
  120MOL0     O16123   2.517   3.673   6.876  0.4209  0.0537 -0.3767
  120MOL0     C16124   2.494   3.761   6.769 -1.0023 -0.7538  0.9317
  120MOL0     C16125   2.607   3.760   6.658 -0.1419 -0.0055  1.0965
  120MOL0     C16126   2.747   3.707   6.694  0.3205 -0.0710  0.6090
  120MOL0     C16127   2.829   3.705   6.563  0.2956  0.6357  0.3481
  120MOL0     C16128   2.884   3.835   6.515 -0.7674 -0.2548 -0.9399
  120MOL0     C16129   2.920   3.949   6.484  0.0024 -0.4930 -0.3596
  120MOL0     C16130   2.398   3.492   6.769 -0.0225 -0.4047  0.4752
  120MOL0     C16131   2.310   3.378   6.765 -0.1783  0.5807 -0.1637
  120MOL0     C16132   2.278   3.305   6.629 -0.0884  0.3018 -0.3165
  120MOL0     H16133   1.863   3.278   7.121 -2.1712 -0.3215 -1.1987
  120MOL0     H16134   1.694   3.120   7.185 -0.5126 -0.8227 -1.8345
  120MOL0     H16135   1.758   2.798   7.389  0.8400 -2.6901 -1.4979
  120MOL0     H16136   1.639   2.930   7.358 -1.7376 -0.6620  0.9434
  120MOL0     H16137   1.578   2.639   7.309  2.8043  1.0163 -0.8706
  120MOL0     H16138   1.485   2.778   7.252  0.7093  2.3813  1.3344
  120MOL0     H16139   1.389   2.719   7.469  0.2425  0.9456  0.7218
  120MOL0     H16140   1.501   2.850   7.515 -2.4806 -0.4248  3.0179
  120MOL0     H16141   1.596   2.570   7.522 -0.9982 -0.0403  0.4637
  120MOL0     H16142   1.649   2.714   7.618  0.6299  0.9899  0.2938
  120MOL0     H16143   1.443   2.711   7.749  3.8443  1.5529 -0.9480
  120MOL0     H16144   1.382   2.560   7.672  0.4395 -1.5599  1.1197
  120MOL0     H16145   1.634   2.481   7.752  1.3931  1.1427  0.5332
  120MOL0     H16146   1.617   2.621   7.848 -0.9228  0.7012 -0.6329
  120MOL0     H16147   1.402   2.416   7.841 -0.1711  3.9956 -2.8318
  120MOL0     H16148   1.419   2.555   7.951  2.2845  2.3427  1.1853
  120MOL0     H16149   1.515   2.383   8.091  1.4653  2.3520  0.1895
  120MOL0     H16150   1.560   2.285   7.941  0.1134 -0.3447 -0.3707
  120MOL0     H16151   1.809   2.320   7.882  2.5196 -0.1639  0.0366
  120MOL0     H16152   2.074   2.351   8.036 -0.1654  1.1011  0.9110
  120MOL0     H16153   2.063   2.438   7.880  1.6968  3.1054 -0.3265
  120MOL0     H16154   2.114   2.644   8.013 -0.9830 -1.2013 -1.1972
  120MOL0     H16155   2.123   2.543   8.166 -1.9321  3.8279  0.8026
  120MOL0     H16156   2.319   2.448   8.086 -0.0674  0.5591  2.3025
  120MOL0     H16157   2.343   2.622   8.081  1.2176 -0.0047 -1.3901
  120MOL0     H16158   2.280   2.624   7.836  2.8899  0.8640 -2.5090
  120MOL0     H16159   2.314   2.458   7.837 -1.1938  1.4356 -1.4475
  120MOL0     H16160   2.381   2.568   7.641  0.4857 -2.2073 -2.0480
  120MOL0     H16161   2.498   2.647   7.452 -0.9754 -2.3932  1.1128
  120MOL0     H16162   2.984   3.078   7.493  2.1950  2.1161 -1.6454
  120MOL0     H16163   3.079   3.214   7.320  1.8978  0.7676 -1.9608
  120MOL0     H16164   3.326   2.967   7.122 -0.7204  0.0800 -1.8205
  120MOL0     H16165   3.390   3.112   7.064 -0.4675  0.1243  0.1886
  120MOL0     H16166   3.296   3.067   7.359 -2.0413  1.3920 -1.9824
  120MOL0     H16167   3.454   3.032   7.305  1.2833  0.4694 -1.1105
  120MOL0     H16168   3.483   3.249   7.226 -2.6476  0.3601 -2.9855
  120MOL0     H16169   3.335   3.318   7.296  0.8202  0.3361  1.8485
  120MOL0     H16170   3.536   3.185   7.467 -1.0697 -1.5431  0.9415
  120MOL0     H16171   3.402   3.274   7.530  0.7098 -2.2630  0.6647
  120MOL0     H16172   3.588   3.406   7.567  2.2456 -1.2875 -0.7895
  120MOL0     H16173   3.503   3.478   7.433 -1.7786 -0.0646  1.3730
  120MOL0     H16174   3.729   3.283   7.345 -0.1305 -0.4311 -1.2316
  120MOL0     H16175   3.666   3.429   7.273  0.9210  2.4843  0.6260
  120MOL0     H16176   3.900   3.440   7.380 -0.1299 -0.8207  0.3760
  120MOL0     H16177   3.824   3.441   7.529 -1.2531 -0.8347  0.0687
  120MOL0     H16178   3.767   3.648   7.301  1.2866 -2.4875 -1.1486
  120MOL0     H16179   3.694   3.645   7.460  1.1852 -2.8648  2.4846
  120MOL0     H16180   3.071   2.872   7.054 -0.8226 -1.8627  0.7489
  120MOL0     H16181   2.928   2.754   7.187  0.3497  0.0190  0.0200
  120MOL0     H16182   2.840   2.749   7.692  0.2200 -0.7628  1.1126
  120MOL0     H16183   2.710   2.662   7.898 -1.2656 -0.5224 -0.5352
  120MOL0     H16184   1.951   2.794   7.102  1.3500 -0.6180  0.1910
  120MOL0     H16185   2.125   2.948   7.033 -1.6093  1.7286 -2.1003
  120MOL0     H16186   2.297   3.345   7.103 -1.3632  0.6332 -0.8254
  120MOL0     H16187   2.418   3.572   7.097  2.2392  0.9298 -0.3931
  120MOL0     H16188   2.493   3.862   6.810  2.9539 -0.4793  0.7803
  120MOL0     H16189   2.398   3.750   6.717  0.3523 -0.0805 -1.9196
  120MOL0     H16190   2.618   3.865   6.630 -0.8834 -0.0243  0.7030
  120MOL0     H16191   2.577   3.719   6.561  0.7523  2.1477 -0.1630
  120MOL0     H16192   2.749   3.614   6.753  1.5473  0.8919  2.1765
  120MOL0     H16193   2.800   3.783   6.752  0.3969  1.4457 -1.3619
  120MOL0     H16194   2.919   3.644   6.578  0.3659 -0.7219 -3.9527
  120MOL0     H16195   2.766   3.660   6.485  0.9646  0.1321  0.0818
  120MOL0     H16196   2.941   4.051   6.458  0.4271 -0.9899 -2.1572
  120MOL0     H16197   2.439   3.532   6.677 -0.5175  0.2504  0.5260
  120MOL0     H16198   2.332   3.358   6.550  1.6343 -1.4478 -0.3973
  120MOL0     H16199   2.310   3.200   6.623 -4.3052 -1.3976  2.2118
  120MOL0     H16200   2.171   3.317   6.613 -0.1184  3.5362  1.4488
  121MOL0     O16201   6.744   3.700   0.157 -0.0218 -0.0200 -0.0063
  121MOL0     C16202   6.811   3.601   0.194 -1.1758 -1.0335 -1.1037
  121MOL0     O16203   6.774   3.487   0.252 -0.9192  0.1253 -0.0257
  121MOL0     C16204   6.640   3.473   0.291 -0.4492 -0.5345  0.6227
  121MOL0     C16205   6.594   3.542   0.409  0.0328  0.1498 -0.1169
  121MOL0     C16206   6.455   3.559   0.435  0.2305  0.5250  0.1547
  121MOL0     C16207   6.370   3.488   0.357 -0.2654  0.5191  0.3452
  121MOL0     O16208   6.237   3.517   0.376 -0.1566  0.2088 -0.6144
  121MOL0     C16209   6.143   3.479   0.285 -0.3601 -0.4580  0.4302
  121MOL0     C16210   6.109   3.329   0.284  0.5467  0.0166  0.3245
  121MOL0     C16211   6.001   3.304   0.185  0.3941  0.0383 -0.2419
  121MOL0     C16212   5.950   3.155   0.209  0.4240 -0.4235  0.5943
  121MOL0     C16213   5.818   3.150   0.291  0.9998 -0.4403  0.3214
  121MOL0     C16214   5.696   3.211   0.216  0.0825 -0.0998 -0.2834
  121MOL0     C16215   5.573   3.166   0.290 -0.0168 -0.3319 -0.0725
  121MOL0     C16216   5.470   3.284   0.271 -0.0164 -0.5878 -0.2795
  121MOL0     N16217   5.446   3.319   0.131 -0.3996 -0.1955  0.1459
  121MOL0     C16218   5.472   3.431   0.059 -1.1534 -0.3452 -0.8578
  121MOL0     C16219   5.433   3.412  -0.068 -0.0668 -0.4469 -0.7159
  121MOL0     C16220   5.455   3.502  -0.186 -0.6342 -0.2454  0.4644
  121MOL0     C16221   5.597   3.472  -0.237 -0.1668  0.2592 -1.0388
  121MOL0     C16222   5.709   3.525  -0.150 -0.8388  0.2476  0.3802
  121MOL0     C16223   5.839   3.548  -0.230  0.3667  0.5528 -0.3239
  121MOL0     O16224   5.946   3.567  -0.131  0.0222  0.0111  0.3923
  121MOL0     C16225   6.073   3.598  -0.166 -0.9451  0.0287  0.2522
  121MOL0     C16226   6.174   3.508  -0.151 -0.1263  1.1309  0.2684
  121MOL0     C16227   6.307   3.545  -0.188 -1.1640 -0.7915 -0.2090
  121MOL0     C16228   6.333   3.683  -0.227  0.5549 -1.2538  0.2753
  121MOL0     C16229   6.469   3.731  -0.249 -0.7092  0.0007 -0.1108
  121MOL0     O16230   6.571   3.651  -0.228  0.2245  0.3804 -0.0929
  121MOL0     C16231   6.693   3.686  -0.275 -0.0242  0.1512  0.0481
  121MOL0     C16232   6.798   3.700  -0.180 -0.4736  0.4522  0.2094
  121MOL0     C16233   6.927   3.732  -0.219  0.4074  0.4338  0.3794
  121MOL0     C16234   6.948   3.750  -0.359 -0.2190  0.0881  0.4884
  121MOL0     O16235   7.076   3.780  -0.415  0.2989  0.5189  0.3639
  121MOL0     C16236   7.180   3.816  -0.327 -0.7468 -0.5605  0.3776
  121MOL0     C16237   7.303   3.826  -0.416 -0.3168  0.3899  0.5322
  121MOL0     C16238   7.433   3.822  -0.340 -0.0659  0.3498 -0.2427
  121MOL0     C16239   7.551   3.842  -0.424 -0.8691 -0.6726  0.5106
  121MOL0     C16240   7.675   3.876  -0.340 -0.6098  0.6848 -0.5323
  121MOL0     C16241   7.802   3.866  -0.410  0.3840  0.5335  0.7968
  121MOL0     C16242   7.918   3.921  -0.327  0.5328  0.2395  1.0927
  121MOL0     C16243   7.987   4.028  -0.403 -0.2005 -0.2538  0.2038
  121MOL0    Cl16244   8.122   4.109  -0.295 -0.4203  0.5049  0.0746
  121MOL0     C16245   6.843   3.745  -0.453  0.7427 -0.5611  0.2605
  121MOL0     C16246   6.718   3.716  -0.409  0.0503 -1.2053  0.7141
  121MOL0     O16247   6.479   3.849  -0.282  0.0887 -0.0443 -0.2885
  121MOL0     C16248   6.221   3.772  -0.233 -0.1583 -0.5239  0.8590
  121MOL0     C16249   6.093   3.730  -0.208  0.0814 -0.6848 -0.4066
  121MOL0     N16250   5.387   3.284  -0.083  0.0347 -0.2694 -0.7833
  121MOL0     N16251   5.390   3.234   0.039  0.1496  0.7873 -0.0066
  121MOL0     C16252   6.415   3.423   0.244  0.0950  0.5385 -0.5607
  121MOL0     C16253   6.551   3.413   0.206 -0.0828  0.0214 -0.3790
  121MOL0     C16254   6.955   3.617   0.197 -0.0681 -0.5733  0.4051
  121MOL0     C16255   7.024   3.538   0.105  0.1140  0.2155 -0.9041
  121MOL0     C16256   7.164   3.544   0.082 -0.0782  0.3223  0.1152
  121MOL0     C16257   7.238   3.649   0.140 -0.7966  0.8944  0.2959
  121MOL0     O16258   7.372   3.669   0.118 -0.1809 -0.5168 -0.5046
  121MOL0     C16259   7.432   3.611   0.005  0.1343  0.4242 -0.7642
  121MOL0     C16260   7.526   3.495   0.044 -0.2312 -0.0625  0.7026
  121MOL0     C16261   7.462   3.361   0.069  0.9669  0.4655  0.2113
  121MOL0     C16262   7.558   3.258   0.123 -0.2601 -0.3269 -0.0640
  121MOL0     C16263   7.577   3.277   0.264 -0.5892 -0.2153  0.2738
  121MOL0     C16264   7.584   3.303   0.387 -0.1534 -0.9113  0.7419
  121MOL0     C16265   7.169   3.735   0.219  0.4783 -0.0301 -0.4369
  121MOL0     C16266   7.030   3.726   0.255 -0.7377 -0.2697  0.4008
  121MOL0     C16267   6.975   3.825   0.351 -0.6372  0.6443  0.2492
  121MOL0     H16268   6.673   3.585   0.469 -0.8287 -1.1270  2.0289
  121MOL0     H16269   6.421   3.627   0.512 -0.8453  0.0730  0.0991
  121MOL0     H16270   6.058   3.543   0.307  1.2779  2.7859 -1.8142
  121MOL0     H16271   6.163   3.515   0.184  2.2310 -1.4073  0.5185
  121MOL0     H16272   6.076   3.305   0.385 -1.5895  2.4396  0.3039
  121MOL0     H16273   6.196   3.268   0.257  0.7428  0.9450 -1.2790
  121MOL0     H16274   6.055   3.310   0.090 -0.2931 -1.0213 -0.7189
  121MOL0     H16275   5.918   3.373   0.197  1.1298  0.5618  2.4579
  121MOL0     H16276   5.939   3.099   0.116  3.3963  0.1183 -0.2133
  121MOL0     H16277   6.020   3.094   0.268 -1.7057 -0.3836  3.3670
  121MOL0     H16278   5.793   3.047   0.318  0.1160 -0.1081  0.8099
  121MOL0     H16279   5.828   3.207   0.384 -4.4935 -0.9844  1.6250
  121MOL0     H16280   5.714   3.319   0.207  2.4187 -0.5994 -4.8726
  121MOL0     H16281   5.692   3.183   0.111  0.6559 -0.8058 -0.1315
  121MOL0     H16282   5.590   3.140   0.395  2.3879  1.4334  0.0578
  121MOL0     H16283   5.530   3.080   0.237 -1.8013 -1.3050  2.6571
  121MOL0     H16284   5.377   3.256   0.322  1.1133 -3.2224  0.4925
  121MOL0     H16285   5.510   3.373   0.321  0.0479 -1.4592  1.2986
  121MOL0     H16286   5.506   3.528   0.094  0.2093 -1.2952  0.6164
  121MOL0     H16287   5.388   3.478  -0.269  2.5094  3.6856 -3.6522
  121MOL0     H16288   5.448   3.606  -0.152  0.3763 -0.4522  1.3621
  121MOL0     H16289   5.612   3.368  -0.266 -3.5788 -0.4897 -0.5079
  121MOL0     H16290   5.599   3.525  -0.333  0.0181  1.1983 -0.5337
  121MOL0     H16291   5.722   3.450  -0.072 -3.8655 -0.8782 -0.0581
  121MOL0     H16292   5.676   3.619  -0.105 -2.1129 -1.0331  2.2593
  121MOL0     H16293   5.824   3.638  -0.290 -1.9604 -0.9648 -2.2161
  121MOL0     H16294   5.854   3.458  -0.291 -1.7135 -1.5967  2.0405
  121MOL0     H16295   6.139   3.417  -0.104 -0.0303  1.6495  1.3680
  121MOL0     H16296   6.386   3.472  -0.174  1.2245  1.8776  1.6300
  121MOL0     H16297   6.772   3.679  -0.076 -1.9311  1.6750  0.1252
  121MOL0     H16298   7.003   3.740  -0.142 -0.0321  1.5359  0.7258
  121MOL0     H16299   7.180   3.915  -0.283 -0.7261 -0.6061  0.4789
  121MOL0     H16300   7.196   3.736  -0.254 -1.0379 -1.1617 -0.2045
  121MOL0     H16301   7.307   3.739  -0.483  1.6839 -0.5185  1.7180
  121MOL0     H16302   7.300   3.916  -0.478  0.8811 -0.4393 -0.8035
  121MOL0     H16303   7.433   3.900  -0.263  2.4330 -0.0128  0.2010
  121MOL0     H16304   7.444   3.731  -0.279  2.0728  0.7148  0.0024
  121MOL0     H16305   7.528   3.920  -0.498 -0.4483  1.6075  2.6404
  121MOL0     H16306   7.562   3.747  -0.478 -0.7803 -2.0632  2.8416
  121MOL0     H16307   7.683   3.804  -0.259 -3.2211  2.2172  1.2497
  121MOL0     H16308   7.656   3.969  -0.284  2.1070  0.1795  1.4020
  121MOL0     H16309   7.821   3.760  -0.429 -2.7809  0.0604 -0.4962
  121MOL0     H16310   7.787   3.913  -0.508  1.0979  2.5224  1.5828
  121MOL0     H16311   7.975   3.840  -0.279  2.3997  1.9411  1.8854
  121MOL0     H16312   7.888   3.967  -0.232  1.3207  1.1056  0.9380
  121MOL0     H16313   8.038   3.982  -0.488 -1.9160 -1.6916 -0.0886
  121MOL0     H16314   7.919   4.103  -0.444 -0.4428 -0.9391 -0.6882
  121MOL0     H16315   6.840   3.776  -0.557 -3.3993 -0.1909  0.3412
  121MOL0     H16316   6.632   3.704  -0.473  1.7278  1.0630 -2.2101
  121MOL0     H16317   6.239   3.871  -0.273 -0.5052 -0.2510  1.3648
  121MOL0     H16318   6.014   3.802  -0.195  0.6061 -0.3734  1.4326
  121MOL0     H16319   6.348   3.374   0.174 -2.7776  2.7874  0.3941
  121MOL0     H16320   6.586   3.365   0.115 -0.6239 -2.9343  0.8254
  121MOL0     H16321   6.976   3.459   0.049  0.3105  0.7408 -1.8265
  121MOL0     H16322   7.215   3.466   0.027 -1.7192  0.0901 -1.1354
  121MOL0     H16323   7.488   3.696  -0.035  2.5443 -0.6988  0.0283
  121MOL0     H16324   7.361   3.584  -0.074  0.5348 -0.4878 -0.8224
  121MOL0     H16325   7.589   3.522   0.130 -1.3292 -0.1509  1.5590
  121MOL0     H16326   7.594   3.486  -0.042  0.0864  0.0481  0.9387
  121MOL0     H16327   7.419   3.315  -0.020  0.9878 -0.0854  0.4758
  121MOL0     H16328   7.386   3.370   0.148 -0.4383  0.3166 -1.0878
  121MOL0     H16329   7.520   3.157   0.103  1.6797 -1.2573  0.6574
  121MOL0     H16330   7.655   3.274   0.075 -0.1226 -0.0796  0.2941
  121MOL0     H16331   7.587   3.323   0.492  2.5012  0.9783  0.3928
  121MOL0     H16332   7.232   3.802   0.276  3.7900 -1.4872 -2.1082
  121MOL0     H16333   7.034   3.917   0.353 -0.0720  0.2866  2.5611
  121MOL0     H16334   6.870   3.846   0.332 -1.1354 -0.9061  1.0695
  121MOL0     H16335   6.974   3.772   0.447 -1.8972  0.2809  0.0554
  122MOL0     O16336  10.238   1.152   0.210 -0.4909 -0.6468 -0.3457
  122MOL0     C16337  10.227   1.062   0.289 -0.0883  0.5067 -0.4022
  122MOL0     O16338  10.109   1.020   0.351  0.0288 -0.7762  0.0547
  122MOL0     C16339   9.991   1.034   0.285 -0.1243 -0.1206 -0.3838
  122MOL0     C16340   9.985   1.006   0.144  0.2257 -0.8842  0.5277
  122MOL0     C16341   9.857   0.992   0.087  0.1339  0.7005  0.3940
  122MOL0     C16342   9.746   1.005   0.163  0.3257 -0.0003  0.6228
  122MOL0     O16343   9.622   0.989   0.115  0.0441 -0.0230  0.7892
  122MOL0     C16344   9.601   0.947  -0.017 -0.1180  0.1490 -0.0377
  122MOL0     C16345   9.452   0.923  -0.049 -0.7751  0.1941  1.0181
  122MOL0     C16346   9.397   0.802   0.023  0.7688 -0.5767  0.0097
  122MOL0     C16347   9.437   0.669  -0.026 -0.2852 -0.1600  0.4927
  122MOL0     C16348   9.395   0.631  -0.171 -0.1726  0.4961  0.1882
  122MOL0     C16349   9.394   0.482  -0.188 -0.5893  0.5535  1.2755
  122MOL0     C16350   9.340   0.429  -0.326  0.2378  0.1741 -0.3432
  122MOL0     C16351   9.436   0.458  -0.444 -0.3679 -0.0020 -1.0668
  122MOL0     N16352   9.400   0.398  -0.571  0.8803  0.1160  0.1421
  122MOL0     C16353   9.301   0.307  -0.597  0.6711  0.0084 -0.1266
  122MOL0     C16354   9.288   0.298  -0.731  0.1258 -0.3711 -0.5690
  122MOL0     C16355   9.173   0.224  -0.797  0.1119 -0.5778 -0.0315
  122MOL0     C16356   9.176   0.232  -0.949 -0.3267 -0.5753  0.2830
  122MOL0     C16357   9.298   0.173  -1.012 -0.2020 -0.4327  0.7191
  122MOL0     C16358   9.311   0.030  -0.999 -0.0110  0.2824 -1.0936
  122MOL0     O16359   9.378  -0.038  -1.113  0.0026 -0.6631 -0.5216
  122MOL0     C16360   9.514  -0.048  -1.134  0.4097  0.3277  0.4536
  122MOL0     C16361   9.556  -0.121  -1.250  0.0435  0.1024  0.2352
  122MOL0     C16362   9.688  -0.148  -1.276 -1.0985  0.1395 -0.3791
  122MOL0     C16363   9.796  -0.100  -1.187 -0.6343 -0.3624  0.4401
  122MOL0     C16364   9.936  -0.115  -1.219 -1.1237  0.1932  0.8635
  122MOL0     O16365   9.967  -0.185  -1.329 -0.0177  0.0599  0.5180
  122MOL0     C16366  10.101  -0.195  -1.369 -0.2870  0.8488 -0.1846
  122MOL0     C16367  10.205  -0.234  -1.284  0.2802 -0.0046  0.0306
  122MOL0     C16368  10.331  -0.249  -1.324 -0.8354  0.6733  0.0649
  122MOL0     C16369  10.360  -0.228  -1.459 -0.7804 -0.1860  1.4054
  122MOL0     O16370  10.488  -0.226  -1.514 -0.4649  0.2062  0.4498
  122MOL0     C16371  10.587  -0.313  -1.456  0.2706 -0.0601  0.1467
  122MOL0     C16372  10.682  -0.389  -1.547 -0.5279 -0.1226 -0.5879
  122MOL0     C16373  10.762  -0.275  -1.618 -0.4456  0.5414  0.7056
  122MOL0     C16374  10.829  -0.339  -1.741 -0.2006  0.1977  0.7294
  122MOL0     C16375  10.916  -0.224  -1.817 -0.6963 -0.4447 -0.6089
  122MOL0     C16376  11.045  -0.271  -1.887  0.1990  0.0032 -0.0137
  122MOL0     C16377  11.120  -0.148  -1.925  0.3361 -0.8091  0.4815
  122MOL0     C16378  11.169  -0.128  -2.069 -0.4848  0.9039 -0.2578
  122MOL0    Cl16379  11.017  -0.136  -2.173  0.2835  0.3015  0.1029
  122MOL0     C16380  10.254  -0.199  -1.552 -0.7093 -0.6362 -0.0768
  122MOL0     C16381  10.123  -0.190  -1.507 -0.3651 -0.6469 -0.1855
  122MOL0     O16382  10.016  -0.053  -1.152 -0.1834 -1.1685 -0.3703
  122MOL0     C16383   9.751  -0.022  -1.076  0.2948  0.4537 -0.1512
  122MOL0     C16384   9.617  -0.012  -1.043 -0.2857  0.2518  0.4094
  122MOL0     N16385   9.381   0.376  -0.778 -0.3804  0.6795 -0.4260
  122MOL0     N16386   9.455   0.435  -0.687 -0.2018  0.8303 -0.7324
  122MOL0     C16387   9.749   1.046   0.299 -0.0453  0.6694 -0.9354
  122MOL0     C16388   9.874   1.056   0.364 -0.1074 -0.0278 -0.5254
  122MOL0     C16389  10.349   0.983   0.312 -0.1217  0.4405 -0.1263
  122MOL0     C16390  10.328   0.846   0.349  0.6686  0.0730 -0.0259
  122MOL0     C16391  10.436   0.769   0.369 -0.0933  0.1437 -0.1586
  122MOL0     C16392  10.566   0.789   0.329 -0.3941 -0.9265 -0.1183
  122MOL0     O16393  10.658   0.686   0.347 -0.1322 -0.2299 -0.3149
  122MOL0     C16394  10.741   0.679   0.233 -0.4629 -0.3193 -0.5225
  122MOL0     C16395  10.844   0.569   0.246  0.2456  0.3420 -0.4002
  122MOL0     C16396  10.934   0.552   0.122 -0.4877  0.2559 -0.0449
  122MOL0     C16397  11.072   0.507   0.168 -0.1446  0.4647 -0.4712
  122MOL0     C16398  11.086   0.378   0.234 -0.1475  0.0805 -0.2169
  122MOL0     C16399  11.088   0.273   0.290  0.2915 -0.2397 -0.2032
  122MOL0     C16400  10.588   0.919   0.285 -0.2988  0.9901 -0.5078
  122MOL0     C16401  10.485   1.021   0.273 -0.1736 -0.5987  0.0601
  122MOL0     C16402  10.512   1.161   0.235  0.4905  0.7223  0.7308
  122MOL0     H16403  10.075   0.986   0.087 -0.7279 -2.8363 -0.3813
  122MOL0     H16404   9.839   0.957  -0.014 -3.0443  1.9716  0.4085
  122MOL0     H16405   9.641   1.022  -0.086 -1.6507  0.9664 -0.0702
  122MOL0     H16406   9.659   0.856  -0.033  4.9489  3.1540 -0.8225
  122MOL0     H16407   9.443   0.915  -0.158 -0.5710  1.6551  0.8746
  122MOL0     H16408   9.394   1.014  -0.030 -0.0871  0.8973 -0.0954
  122MOL0     H16409   9.288   0.807   0.029  0.8019 -1.1674  2.2882
  122MOL0     H16410   9.424   0.809   0.129 -1.3408 -1.3086  0.6316
  122MOL0     H16411   9.546   0.664  -0.035 -0.1700 -0.9475  2.0596
  122MOL0     H16412   9.408   0.586   0.039 -2.2510 -1.3936 -1.7807
  122MOL0     H16413   9.295   0.664  -0.200 -0.1566  2.4605  2.0716
  122MOL0     H16414   9.461   0.689  -0.236 -2.6537  4.2926  0.7413
  122MOL0     H16415   9.500   0.454  -0.180  0.1208  2.0929 -1.5637
  122MOL0     H16416   9.336   0.434  -0.109 -0.6656 -0.2816  0.7215
  122MOL0     H16417   9.247   0.480  -0.353  1.9163  1.6584 -4.1131
  122MOL0     H16418   9.336   0.320  -0.318  0.8010  0.0399 -1.5822
  122MOL0     H16419   9.434   0.566  -0.461 -1.3121  0.3342  0.9821
  122MOL0     H16420   9.541   0.432  -0.429 -0.9177 -1.8848 -0.1035
  122MOL0     H16421   9.247   0.252  -0.521  1.6840  0.7981  1.1988
  122MOL0     H16422   9.164   0.121  -0.762  0.9363 -0.8401 -0.5536
  122MOL0     H16423   9.084   0.276  -0.762 -0.0959 -0.2025 -1.0816
  122MOL0     H16424   9.082   0.196  -0.992  0.0620 -0.6802 -0.4946
  122MOL0     H16425   9.170   0.338  -0.974 -2.9566 -1.2653 -2.7916
  122MOL0     H16426   9.389   0.223  -0.976  1.3209 -0.2160 -3.0161
  122MOL0     H16427   9.291   0.208  -1.116 -0.1195  1.5772  1.3328
  122MOL0     H16428   9.216  -0.021  -0.985  0.1781  0.3587  0.6569
  122MOL0     H16429   9.376   0.004  -0.914  0.4740  3.1679 -0.4599
  122MOL0     H16430   9.478  -0.160  -1.313 -0.8787 -1.7927  2.4215
  122MOL0     H16431   9.715  -0.209  -1.362  0.8341 -0.4832  0.6179
  122MOL0     H16432  10.175  -0.255  -1.181  0.3468 -0.6286 -0.0749
  122MOL0     H16433  10.412  -0.274  -1.256 -0.8884 -0.4905 -0.2919
  122MOL0     H16434  10.650  -0.256  -1.387  0.8395  1.2337 -1.3741
  122MOL0     H16435  10.536  -0.393  -1.402  0.3666  0.7295  1.4575
  122MOL0     H16436  10.757  -0.448  -1.493  1.1803  0.9768 -1.6558
  122MOL0     H16437  10.634  -0.455  -1.619  2.0543 -0.0703 -2.4997
  122MOL0     H16438  10.696  -0.198  -1.659 -0.8689 -0.2157 -0.0535
  122MOL0     H16439  10.824  -0.224  -1.544 -3.8226  2.7477  2.2400
  122MOL0     H16440  10.758  -0.381  -1.812  0.6780 -1.1957  0.6456
  122MOL0     H16441  10.889  -0.422  -1.703  0.4950  0.1306 -0.4648
  122MOL0     H16442  10.936  -0.142  -1.747 -2.3436 -0.9177  0.4600
  122MOL0     H16443  10.845  -0.186  -1.891 -1.4366  0.1025  0.3628
  122MOL0     H16444  11.110  -0.327  -1.819  0.3201 -1.0096 -0.9485
  122MOL0     H16445  11.032  -0.339  -1.972  1.4357 -0.1299 -0.1178
  122MOL0     H16446  11.199  -0.134  -1.850 -0.3609 -0.8639  1.2491
  122MOL0     H16447  11.048  -0.069  -1.906 -1.5241 -2.5987  1.3048
  122MOL0     H16448  11.225  -0.035  -2.075  1.6523 -0.4055 -1.8199
  122MOL0     H16449  11.243  -0.204  -2.095  1.2051  2.3300  0.1555
  122MOL0     H16450  10.283  -0.172  -1.654  0.7254  0.8157  0.6565
  122MOL0     H16451  10.049  -0.179  -1.586 -0.1404 -2.1298 -0.6206
  122MOL0     H16452   9.817   0.024  -1.002  4.9143  0.3257 -3.6941
  122MOL0     H16453   9.592   0.021  -0.942 -1.9471  1.4781 -0.3583
  122MOL0     H16454   9.659   1.067   0.356  1.6384  2.6040  1.1998
  122MOL0     H16455   9.890   1.075   0.469  0.0128  2.9628 -1.0063
  122MOL0     H16456  10.232   0.799   0.368  0.9178 -0.1687  0.6809
  122MOL0     H16457  10.414   0.676   0.421 -0.2493 -0.1464 -0.7325
  122MOL0     H16458  10.800   0.771   0.236  4.4689 -3.1355 -0.9189
  122MOL0     H16459  10.683   0.665   0.142  0.1662 -0.6166 -0.8845
  122MOL0     H16460  10.783   0.479   0.262 -0.5741  1.1911  1.6017
  122MOL0     H16461  10.897   0.585   0.341  0.9477 -2.1762 -0.2964
  122MOL0     H16462  10.932   0.650   0.073  3.1372 -0.7364 -2.5816
  122MOL0     H16463  10.889   0.475   0.059  2.5125  1.6105 -4.3104
  122MOL0     H16464  11.134   0.506   0.078  1.1852  2.9562  0.3346
  122MOL0     H16465  11.117   0.588   0.225  0.0703  2.9572 -3.8834
  122MOL0     H16466  11.094   0.179   0.340  1.5334  2.0645  4.4979
  122MOL0     H16467  10.687   0.942   0.248  0.4413 -1.3656 -0.1294
  122MOL0     H16468  10.475   1.225   0.316 -0.5394 -1.6132  2.2236
  122MOL0     H16469  10.618   1.177   0.214 -0.1534  1.5693 -2.2774
  122MOL0     H16470  10.456   1.183   0.144 -2.1944 -3.2030  1.1543
  123MOL0     O16471  11.200   9.792   9.013 -0.2169 -0.7737  0.0024
  123MOL0     C16472  11.224   9.849   8.908  0.0490 -0.4679  0.3874
  123MOL0     O16473  11.355   9.863   8.857 -0.6628 -0.3768  0.3190
  123MOL0     C16474  11.461   9.866   8.940 -0.0263 -0.1974  0.7235
  123MOL0     C16475  11.580   9.828   8.878 -0.1654 -1.1217 -1.1499
  123MOL0     C16476  11.705   9.848   8.946 -0.0159 -0.6576  0.6450
  123MOL0     C16477  11.701   9.887   9.081 -0.1962  0.8286 -0.6913
  123MOL0     O16478  11.814   9.897   9.159 -0.6669  0.3887 -0.1302
  123MOL0     C16479  11.924   9.973   9.103  0.6305 -0.5497 -0.2965
  123MOL0     C16480  12.037   9.941   9.204 -0.1831 -0.2809 -0.1566
  123MOL0     C16481  12.083   9.791   9.229  0.3888  0.9546 -0.6609
  123MOL0     C16482  12.147   9.732   9.106  0.6833 -0.5447  0.4557
  123MOL0     C16483  12.243   9.618   9.137 -0.0887  0.1612 -0.3115
  123MOL0     C16484  12.387   9.667   9.167  0.0192  0.1994 -0.5965
  123MOL0     C16485  12.458   9.535   9.203 -0.4900  0.1010 -0.2439
  123MOL0     C16486  12.604   9.576   9.241  0.6185  0.1175  0.2468
  123MOL0     N16487  12.681   9.468   9.313 -0.5095 -0.5582  0.6703
  123MOL0     C16488  12.807   9.483   9.363 -0.1756 -0.3305  1.0537
  123MOL0     C16489  12.844   9.366   9.412 -0.1244  0.3998 -0.1717
  123MOL0     C16490  12.968   9.309   9.483  1.0018 -1.0911  0.4723
  123MOL0     C16491  12.978   9.156   9.462  0.0784  0.1483 -0.1693
  123MOL0     C16492  13.101   9.108   9.542  0.1863  0.4710 -0.3933
  123MOL0     C16493  13.053   9.085   9.697 -0.9905  0.4723  0.5641
  123MOL0     O16494  13.100   9.192   9.787  0.1171  0.3089 -0.3003
  123MOL0     C16495  13.224   9.179   9.839 -0.9394 -0.7082 -0.0980
  123MOL0     C16496  13.268   9.275   9.931  0.1483 -0.4506 -0.3479
  123MOL0     C16497  13.399   9.281   9.982 -0.3369 -0.1319  0.2831
  123MOL0     C16498  13.494   9.186   9.947 -1.1293 -0.5970 -0.0469
  123MOL0     C16499  13.639   9.212   9.975  0.4123 -0.7732 -0.2870
  123MOL0     O16500  13.736   9.169   9.894 -0.7419  0.4584 -0.3205
  123MOL0     C16501  13.866   9.222   9.903  0.7343 -0.5037  0.3438
  123MOL0     C16502  13.915   9.303   9.800  0.7853 -0.4044 -0.7488
  123MOL0     C16503  14.050   9.340   9.798 -0.4403  0.5076 -0.2391
  123MOL0     C16504  14.136   9.313   9.910  0.0444  1.1850  0.4555
  123MOL0     O16505  14.265   9.357   9.919 -0.4120 -0.3610  0.0372
  123MOL0     C16506  14.295   9.430  10.045  0.3181  0.8960 -0.1011
  123MOL0     C16507  14.432   9.494  10.036 -0.0280 -0.8183  1.1691
  123MOL0     C16508  14.442   9.610   9.938 -0.2665  0.0274 -0.2338
  123MOL0     C16509  14.580   9.678   9.925  0.7297  0.7638 -0.0804
  123MOL0     C16510  14.582   9.821   9.872 -0.2390 -0.1223  0.5264
  123MOL0     C16511  14.724   9.863   9.821  0.0694  0.1960  0.6109
  123MOL0     C16512  14.833   9.842   9.926  0.2074  0.5766  0.3800
  123MOL0     C16513  14.970   9.891   9.869  0.5233  0.4610  0.7687
  123MOL0    Cl16514  14.961  10.067   9.890  0.1445 -0.1482 -0.0231
  123MOL0     C16515  14.086   9.223  10.002 -0.8909 -0.3943 -0.5229
  123MOL0     C16516  13.957   9.182  10.001 -0.9728  0.2971 -0.8343
  123MOL0     O16517  13.654   9.289  10.071  0.1565  0.2643  0.5150
  123MOL0     C16518  13.451   9.084   9.869 -0.0293  0.3621 -0.7279
  123MOL0     C16519  13.315   9.080   9.809 -0.6102  0.9839 -0.4816
  123MOL0     N16520  12.739   9.285   9.393  0.1883 -0.1721  0.2056
  123MOL0     N16521  12.639   9.337   9.335 -0.1475 -0.3823  0.5732
  123MOL0     C16522  11.574   9.904   9.143  1.1464  0.3280 -0.5369
  123MOL0     C16523  11.462   9.900   9.072  0.0255 -0.8997  0.5030
  123MOL0     C16524  11.113   9.897   8.817  1.1949 -0.5704  0.6713
  123MOL0     C16525  11.153   9.993   8.722 -1.1441  0.5709 -0.2841
  123MOL0     C16526  11.065  10.026   8.619 -0.2392  1.3516 -0.5520
  123MOL0     C16527  10.935   9.987   8.617  0.8465  0.2719  0.0668
  123MOL0     O16528  10.866  10.040   8.508 -0.8599  0.1521 -0.5865
  123MOL0     C16529  10.727  10.011   8.501 -0.6056 -0.6820 -1.4802
  123MOL0     C16530  10.697  10.004   8.356 -0.0395 -0.0325  0.0957
  123MOL0     C16531  10.581  10.096   8.308  0.2158  0.7394 -0.1558
  123MOL0     C16532  10.550  10.082   8.160  0.4123 -0.1273  0.0012
  123MOL0     C16533  10.657  10.115   8.070  0.1492  0.2397 -1.4217
  123MOL0     C16534  10.735  10.166   7.993 -0.1394 -0.2756 -0.2767
  123MOL0     C16535  10.897   9.888   8.711  0.1601  0.0364 -0.6063
  123MOL0     C16536  10.985   9.849   8.814  0.4377 -0.0784 -0.5378
  123MOL0     C16537  10.935   9.748   8.921 -0.8371  0.1603 -0.3989
  123MOL0     H16538  11.590   9.797   8.774  2.7526 -1.4257 -0.8679
  123MOL0     H16539  11.797   9.831   8.890 -1.7765  1.4140 -3.2975
  123MOL0     H16540  11.955   9.944   9.003  0.9046 -0.0650 -0.3564
  123MOL0     H16541  11.904  10.081   9.096 -1.9932 -0.7170  2.4615
  123MOL0     H16542  12.007   9.975   9.304  0.0549 -0.0244 -0.1700
  123MOL0     H16543  12.116  10.011   9.174 -0.6503 -0.0246 -0.8031
  123MOL0     H16544  11.996   9.732   9.258 -0.7750  2.4443 -1.0065
  123MOL0     H16545  12.149   9.784   9.316  0.2167  1.6187 -0.4752
  123MOL0     H16546  12.065   9.701   9.041  2.5573  1.9634 -3.5341
  123MOL0     H16547  12.202   9.818   9.065 -1.5702  1.8441  2.0767
  123MOL0     H16548  12.192   9.563   9.216 -0.7080 -1.8032 -1.9844
  123MOL0     H16549  12.243   9.559   9.045  1.4799 -1.2286  0.5331
  123MOL0     H16550  12.440   9.703   9.078  0.8538 -0.4464 -0.3792
  123MOL0     H16551  12.383   9.740   9.248  0.4833 -0.2592 -0.1485
  123MOL0     H16552  12.457   9.462   9.122  2.9485 -2.1341  1.4862
  123MOL0     H16553  12.413   9.500   9.296  5.3082  2.6176  4.1793
  123MOL0     H16554  12.653   9.613   9.151 -2.4219 -0.0139 -1.5717
  123MOL0     H16555  12.605   9.662   9.309  1.8859 -0.5913  1.1746
  123MOL0     H16556  12.868   9.572   9.371  1.3986 -1.2153 -0.3694
  123MOL0     H16557  13.062   9.356   9.454 -0.5309  3.7621  2.3823
  123MOL0     H16558  12.946   9.338   9.587 -0.4695 -0.4444  0.0041
  123MOL0     H16559  12.889   9.100   9.495  0.8812 -0.7244  0.5914
  123MOL0     H16560  12.994   9.132   9.356 -0.9895 -2.2930  0.1287
  123MOL0     H16561  13.185   9.179   9.544  2.7367 -2.3011 -1.1550
  123MOL0     H16562  13.145   9.015   9.506 -0.0400  0.2003  0.0294
  123MOL0     H16563  13.076   8.985   9.735 -1.0899 -1.1463 -3.1863
  123MOL0     H16564  12.944   9.095   9.702 -0.8255  2.0949  3.6855
  123MOL0     H16565  13.219   9.372   9.927  1.4436  0.2549 -4.6224
  123MOL0     H16566  13.418   9.367  10.045  0.6702  0.3414 -0.6275
  123MOL0     H16567  13.843   9.318   9.720 -1.4281 -1.8526  0.8540
  123MOL0     H16568  14.096   9.397   9.718  0.7458  0.0101  0.0650
  123MOL0     H16569  14.214   9.503  10.054 -1.1580 -0.8792  2.2005
  123MOL0     H16570  14.299   9.359  10.128 -0.6862  1.7488  0.7080
  123MOL0     H16571  14.457   9.536  10.134 -0.2356  0.6667  0.6072
  123MOL0     H16572  14.510   9.422  10.010  2.3337  2.6994 -2.6478
  123MOL0     H16573  14.404   9.588   9.838 -1.9955  0.7007  0.2421
  123MOL0     H16574  14.379   9.689   9.979  1.2832 -0.5981  3.8021
  123MOL0     H16575  14.657   9.617   9.877 -0.0112 -1.2117  1.1323
  123MOL0     H16576  14.621   9.681  10.027  3.2808  0.7176 -1.0208
  123MOL0     H16577  14.541   9.893   9.944 -1.9896  0.9559 -1.4510
  123MOL0     H16578  14.510   9.829   9.790  0.8901 -0.9508 -0.5788
  123MOL0     H16579  14.746   9.800   9.734  2.7664  0.2133  1.1983
  123MOL0     H16580  14.719   9.964   9.779 -1.9690 -0.2266 -0.2835
  123MOL0     H16581  14.826   9.740   9.964  0.6592  1.2550  2.4425
  123MOL0     H16582  14.802   9.894  10.018 -2.2033 -0.5338  0.2893
  123MOL0     H16583  15.047   9.853   9.936 -0.3700 -1.7348  0.6553
  123MOL0     H16584  14.973   9.870   9.761  2.0970  2.5856  0.3507
  123MOL0     H16585  14.145   9.226  10.093 -1.4635  0.1033 -0.1563
  123MOL0     H16586  13.922   9.141  10.096 -0.1984  4.2095  1.3498
  123MOL0     H16587  13.514   8.998   9.850  0.3047  0.7201 -1.2683
  123MOL0     H16588  13.306   9.002   9.734 -1.0995 -0.6845  1.2443
  123MOL0     H16589  11.577   9.941   9.245  0.5228 -0.3795 -0.2563
  123MOL0     H16590  11.369   9.940   9.113  0.7073  2.9094 -1.2491
  123MOL0     H16591  11.258  10.018   8.713  0.9356 -5.5931  1.6664
  123MOL0     H16592  11.118  10.098   8.558  1.5099  0.8540  0.3315
  123MOL0     H16593  10.675  10.096   8.546  0.5402 -1.2810  1.1325
  123MOL0     H16594  10.694   9.922   8.554  0.9521 -0.4181  0.0208
  123MOL0     H16595  10.684   9.899   8.327  0.9032 -0.3187  0.6665
  123MOL0     H16596  10.781  10.046   8.301  0.0118  0.5280  0.5891
  123MOL0     H16597  10.612  10.200   8.325 -2.1947  1.6542 -0.8490
  123MOL0     H16598  10.489  10.082   8.365 -0.1696  2.0425 -0.4180
  123MOL0     H16599  10.528   9.977   8.137 -0.7660  0.3704 -1.2425
  123MOL0     H16600  10.469  10.153   8.141  2.2206  2.2195  0.6206
  123MOL0     H16601  10.794  10.219   7.922 -1.4464  1.4017 -0.1891
  123MOL0     H16602  10.798   9.843   8.707 -1.3001  2.8818  0.9917
  123MOL0     H16603  10.843   9.697   8.891  1.2987 -4.3101 -0.1494
  123MOL0     H16604  11.013   9.671   8.924 -0.8314  0.1710  1.5927
  123MOL0     H16605  10.928   9.793   9.021  0.7810  3.1601 -1.5284
  124MOL0     O16606   7.338   9.598   3.625  0.2754 -0.3340  0.1864
  124MOL0     C16607   7.334   9.716   3.666 -0.0463 -0.1859  0.1348
  124MOL0     O16608   7.439   9.778   3.729 -0.3996 -0.8490 -0.1971
  124MOL0     C16609   7.560   9.713   3.755 -0.2419 -0.4426  0.3994
  124MOL0     C16610   7.608   9.715   3.887 -0.8569 -0.3596  0.5429
  124MOL0     C16611   7.739   9.670   3.924 -0.3813  0.5863 -0.1721
  124MOL0     C16612   7.827   9.623   3.819  0.9632 -0.5763  0.3832
  124MOL0     O16613   7.956   9.567   3.833 -0.0679 -0.4388 -0.1442
  124MOL0     C16614   8.022   9.598   3.964  0.1345  0.3590  0.1654
  124MOL0     C16615   8.162   9.544   3.956 -0.2895 -0.2290 -0.3783
  124MOL0     C16616   8.245   9.568   3.836 -0.9336 -0.2043  0.7259
  124MOL0     C16617   8.374   9.495   3.836  0.1342  0.4600 -0.0447
  124MOL0     C16618   8.481   9.530   3.737 -0.2489  0.4857  0.5678
  124MOL0     C16619   8.528   9.673   3.749 -0.0753  0.3940 -0.1201
  124MOL0     C16620   8.647   9.716   3.662 -0.0567  0.0857 -0.6834
  124MOL0     C16621   8.684   9.864   3.695 -0.3168 -0.9791  0.5834
  124MOL0     N16622   8.802   9.894   3.608  0.0616  0.1007  0.4075
  124MOL0     C16623   8.920   9.827   3.605 -0.5193  0.1198 -0.0118
  124MOL0     C16624   8.995   9.878   3.506 -0.9577 -0.4735 -0.8315
  124MOL0     C16625   9.133   9.829   3.462  0.7184 -0.9908 -0.2644
  124MOL0     C16626   9.235   9.949   3.503 -0.1294  0.9428 -0.4507
  124MOL0     C16627   9.383   9.906   3.454  0.0510  0.4391  0.3068
  124MOL0     C16628   9.491  10.009   3.468 -0.6550  0.0969  0.3710
  124MOL0     O16629   9.495  10.052   3.599  0.4320 -0.5257  0.6445
  124MOL0     C16630   9.618  10.098   3.651  0.5235 -0.3469 -0.2152
  124MOL0     C16631   9.639  10.103   3.793 -0.9507 -0.1534  0.2824
  124MOL0     C16632   9.758  10.163   3.844  0.5500 -0.0778  0.2763
  124MOL0     C16633   9.847  10.231   3.762 -0.0803  0.0716  0.2767
  124MOL0     C16634   9.964  10.299   3.824  0.4570  0.9855 -0.8005
  124MOL0     O16635  10.051  10.355   3.739  0.2408  0.4105 -0.6589
  124MOL0     C16636  10.151  10.430   3.795 -0.4829  0.3994 -0.6249
  124MOL0     C16637  10.124  10.537   3.885  0.5627  0.1107 -0.5480
  124MOL0     C16638  10.233  10.610   3.946  0.8664 -0.3242 -0.7583
  124MOL0     C16639  10.371  10.583   3.908  0.4407 -0.4700 -0.8477
  124MOL0     O16640  10.492  10.644   3.943  0.3245 -0.4011 -0.1070
  124MOL0     C16641  10.507  10.727   4.054 -0.6918 -0.9154 -0.6269
  124MOL0     C16642  10.642  10.696   4.123  0.2238 -0.1989  0.1074
  124MOL0     C16643  10.671  10.817   4.214 -0.9358 -0.0804 -0.0050
  124MOL0     C16644  10.755  10.918   4.142  0.3808 -0.1817  0.1028
  124MOL0     C16645  10.756  11.058   4.209  0.0455  0.3016 -0.0232
  124MOL0     C16646  10.883  11.136   4.167 -0.2045 -0.0805 -0.1210
  124MOL0     C16647  10.914  11.273   4.233 -0.7523  0.2818 -0.2714
  124MOL0     C16648  11.044  11.318   4.177  0.2737  0.0034  1.7689
  124MOL0    Cl16649  11.172  11.216   4.250 -0.5626 -0.2720  0.0069
  124MOL0     C16650  10.388  10.479   3.811 -0.4542 -0.1345  0.8878
  124MOL0     C16651  10.281  10.410   3.758  0.8027 -0.5563  0.3546
  124MOL0     O16652   9.980  10.294   3.951  0.1814  0.0673  0.6244
  124MOL0     C16653   9.823  10.233   3.620 -0.0460  0.7261 -0.1024
  124MOL0     C16654   9.715  10.160   3.570  0.1713  0.4952  0.5301
  124MOL0     N16655   8.919   9.978   3.448 -0.7153 -0.4389  0.5528
  124MOL0     N16656   8.808   9.994   3.508  0.0294  0.0414  0.1351
  124MOL0     C16657   7.781   9.630   3.683 -0.0291 -1.0303  0.5914
  124MOL0     C16658   7.653   9.679   3.655  0.4954  1.4922  0.2151
  124MOL0     C16659   7.207   9.781   3.676  0.6506 -0.1311 -0.1915
  124MOL0     C16660   7.194   9.902   3.745 -0.3658 -0.5292  0.3780
  124MOL0     C16661   7.072   9.966   3.765 -0.3383  0.0309  0.5806
  124MOL0     C16662   6.954   9.916   3.701  0.6650  1.2016  0.4144
  124MOL0     O16663   6.827   9.969   3.705  0.6590  0.1857 -0.4201
  124MOL0     C16664   6.789  10.083   3.782  0.0167 -0.0870 -0.3757
  124MOL0     C16665   6.643  10.090   3.782 -0.5929 -0.2051  0.3518
  124MOL0     C16666   6.573  10.224   3.818 -0.6757 -0.0740  0.0798
  124MOL0     C16667   6.499  10.288   3.703 -0.7553  0.7396  0.0858
  124MOL0     C16668   6.454  10.424   3.736 -0.9241  0.5121  0.6044
  124MOL0     C16669   6.422  10.536   3.765 -0.4859  0.3562  0.6873
  124MOL0     C16670   6.965   9.802   3.620 -0.1773  0.9475  0.9296
  124MOL0     C16671   7.088   9.733   3.607  0.0241  0.7448 -0.1569
  124MOL0     C16672   7.088   9.618   3.506 -0.4337  0.3634  0.2823
  124MOL0     H16673   7.530   9.744   3.957 -2.0651 -2.4366  0.1414
  124MOL0     H16674   7.770   9.670   4.028  1.1401  1.9304 -0.5803
  124MOL0     H16675   8.023   9.708   3.960  2.1182  0.3338 -1.9553
  124MOL0     H16676   7.961   9.557   4.045  2.7408 -1.5349  1.2862
  124MOL0     H16677   8.140   9.436   3.954  0.2410 -0.3276 -0.9364
  124MOL0     H16678   8.209   9.564   4.052 -0.3178 -5.3539  1.0129
  124MOL0     H16679   8.273   9.673   3.840  3.4968 -1.0916 -1.3680
  124MOL0     H16680   8.178   9.555   3.751 -1.3541  0.8502  0.8775
  124MOL0     H16681   8.429   9.491   3.931 -0.3077  0.9860  0.2389
  124MOL0     H16682   8.339   9.394   3.811 -2.4630  1.6833 -1.7787
  124MOL0     H16683   8.575   9.475   3.748  0.3571  1.4514  0.4217
  124MOL0     H16684   8.449   9.506   3.635  1.0836 -0.7895  0.4265
  124MOL0     H16685   8.437   9.722   3.714 -1.2291 -2.4395 -1.4458
  124MOL0     H16686   8.542   9.695   3.855  2.0082  1.3484 -0.5362
  124MOL0     H16687   8.610   9.700   3.561 -1.8854  1.8442 -0.3571
  124MOL0     H16688   8.731   9.648   3.678  2.2631  3.0864  0.8704
  124MOL0     H16689   8.602   9.933   3.674 -0.3027 -1.3338 -0.7321
  124MOL0     H16690   8.705   9.869   3.802 -5.6267 -1.1527  1.8851
  124MOL0     H16691   8.941   9.748   3.676 -1.7093  0.8244  1.1691
  124MOL0     H16692   9.146   9.735   3.516 -3.1069 -0.9210  1.1376
  124MOL0     H16693   9.145   9.815   3.355  2.1143 -1.8807 -0.0153
  124MOL0     H16694   9.201  10.033   3.442 -2.1847 -0.1104 -0.8320
  124MOL0     H16695   9.237   9.968   3.610  2.2145 -0.2492 -0.2005
  124MOL0     H16696   9.380   9.881   3.347 -1.0001 -0.8592  0.6075
  124MOL0     H16697   9.417   9.820   3.512  0.0464 -0.9418 -1.6295
  124MOL0     H16698   9.464  10.095   3.406  0.0180  0.3380  0.4010
  124MOL0     H16699   9.591   9.979   3.435 -0.1585  1.6394  0.3530
  124MOL0     H16700   9.560  10.060   3.854 -2.4854  1.2099 -0.6562
  124MOL0     H16701   9.771  10.171   3.952  2.4234  0.3082  0.0631
  124MOL0     H16702  10.018  10.552   3.901  0.4702 -1.6572  0.6763
  124MOL0     H16703  10.210  10.693   4.013  2.8272  0.1866 -0.6412
  124MOL0     H16704  10.514  10.827   4.011  2.4081  0.3030  2.2533
  124MOL0     H16705  10.423  10.729   4.124 -1.8376 -0.4487 -1.9628
  124MOL0     H16706  10.629  10.614   4.193  0.9083  1.4226  2.2460
  124MOL0     H16707  10.710  10.675   4.040 -1.8923 -2.1262 -1.2616
  124MOL0     H16708  10.581  10.855   4.262 -0.2445 -0.2670  1.5203
  124MOL0     H16709  10.729  10.777   4.298 -1.7519  2.5866  1.9770
  124MOL0     H16710  10.729  10.933   4.037 -1.1069  2.3975  0.7474
  124MOL0     H16711  10.855  10.878   4.162  0.3621  0.0537  0.6891
  124MOL0     H16712  10.761  11.061   4.318  0.1522 -0.8039  0.0156
  124MOL0     H16713  10.669  11.116   4.177  0.3353  1.2008  0.7942
  124MOL0     H16714  10.978  11.082   4.175  1.3639  2.2512 -1.7656
  124MOL0     H16715  10.866  11.163   4.062 -1.7471 -1.5194 -0.2938
  124MOL0     H16716  10.929  11.271   4.341 -0.0758  1.7753 -0.3191
  124MOL0     H16717  10.836  11.347   4.214  0.3734  1.9433  1.2558
  124MOL0     H16718  11.042  11.305   4.068  0.0423  1.4854  1.5633
  124MOL0     H16719  11.064  11.421   4.208 -0.1303 -0.1254  2.4776
  124MOL0     H16720  10.488  10.461   3.773 -0.2776  0.6866  0.9378
  124MOL0     H16721  10.291  10.338   3.676  2.3332 -0.1846  0.1882
  124MOL0     H16722   9.884  10.296   3.556 -0.1246  0.7239 -0.1796
  124MOL0     H16723   9.714  10.162   3.462  2.7300 -4.5678  0.1317
  124MOL0     H16724   7.852   9.605   3.605 -0.3531  0.7249 -0.3068
  124MOL0     H16725   7.615   9.688   3.553  0.3256 -2.7596 -0.2816
  124MOL0     H16726   7.286   9.931   3.796  0.6538  0.2680 -1.8204
  124MOL0     H16727   7.070  10.048   3.837  0.7088 -2.3666  3.5960
  124MOL0     H16728   6.836  10.170   3.734  1.5940 -1.1991 -0.9387
  124MOL0     H16729   6.821  10.077   3.887  0.9138  1.1702 -0.5493
  124MOL0     H16730   6.604  10.008   3.843 -0.2910 -0.0788  0.7185
  124MOL0     H16731   6.604  10.070   3.682 -2.7770 -1.2702  1.3559
  124MOL0     H16732   6.641  10.304   3.847  1.1179 -0.9791 -1.4483
  124MOL0     H16733   6.509  10.213   3.906  2.4486  1.0194  2.6830
  124MOL0     H16734   6.551  10.298   3.607 -0.2170  0.0577  0.2917
  124MOL0     H16735   6.414  10.225   3.676  0.8783 -1.3239 -0.5115
  124MOL0     H16736   6.408  10.640   3.786  2.0189  0.9882 -0.3378
  124MOL0     H16737   6.875   9.768   3.571  1.4534 -2.8388  0.1589
  124MOL0     H16738   6.996   9.604   3.448  0.3267 -2.3894 -0.4578
  124MOL0     H16739   7.164   9.655   3.437 -2.7927  3.2457 -0.9684
  124MOL0     H16740   7.109   9.521   3.552  1.1464  0.7318  0.3772
  125MOL0     O16741   3.385   7.359   2.464  0.0083 -0.2707  0.5047
  125MOL0     C16742   3.360   7.415   2.571 -0.0988 -1.0044 -0.3478
  125MOL0     O16743   3.454   7.461   2.660 -0.8529 -0.0205  0.0156
  125MOL0     C16744   3.587   7.437   2.639 -0.3327  1.2856  0.5711
  125MOL0     C16745   3.674   7.538   2.587  0.5454 -0.0590  0.5932
  125MOL0     C16746   3.809   7.513   2.554 -0.4627  0.4622 -0.3450
  125MOL0     C16747   3.871   7.392   2.605  1.5810  0.1423  0.0553
  125MOL0     O16748   4.004   7.370   2.595  0.7065  0.9204  0.1965
  125MOL0     C16749   4.081   7.408   2.479 -1.0199 -0.5755 -0.3931
  125MOL0     C16750   4.210   7.326   2.477  1.3241  0.8102 -0.1960
  125MOL0     C16751   4.166   7.187   2.437  0.2784  0.6594 -0.1778
  125MOL0     C16752   4.280   7.094   2.453 -0.4459  0.2883  0.4700
  125MOL0     C16753   4.243   6.956   2.386 -0.2645  0.2158  0.5532
  125MOL0     C16754   4.363   6.880   2.344 -1.3180  0.0688 -0.3182
  125MOL0     C16755   4.336   6.755   2.265  0.1380 -0.4372 -0.1021
  125MOL0     C16756   4.302   6.633   2.342  0.4742  0.2588  0.4777
  125MOL0     N16757   4.162   6.625   2.390 -0.1698 -0.4280  0.5103
  125MOL0     C16758   4.039   6.647   2.316 -0.3060  0.7571 -0.1656
  125MOL0     C16759   3.935   6.625   2.399  0.4448 -0.3175  0.2549
  125MOL0     C16760   3.790   6.647   2.355  0.6717  0.2066  0.1249
  125MOL0     C16761   3.758   6.791   2.322  0.3492  0.0047  0.2398
  125MOL0     C16762   3.746   6.879   2.453 -0.2831 -0.8886  0.9661
  125MOL0     C16763   3.697   7.013   2.399 -0.4228 -0.4307 -0.0149
  125MOL0     O16764   3.571   7.004   2.324  0.2630 -0.4061  0.4802
  125MOL0     C16765   3.452   6.975   2.389 -0.0031 -0.6266  0.8417
  125MOL0     C16766   3.444   6.973   2.525 -0.0963 -0.1602  1.5536
  125MOL0     C16767   3.319   6.945   2.588  0.2557 -0.5973  0.2359
  125MOL0     C16768   3.201   6.928   2.508 -0.4731  0.6118 -0.6793
  125MOL0     C16769   3.069   6.919   2.565 -0.6125  0.7304 -1.1848
  125MOL0     O16770   2.967   6.904   2.476 -0.1640 -0.8196  0.2140
  125MOL0     C16771   2.847   6.899   2.539  0.6957  0.8425  0.3248
  125MOL0     C16772   2.767   7.013   2.554  1.0490  1.1437  0.1885
  125MOL0     C16773   2.631   6.992   2.564  0.8025  0.4469 -0.6671
  125MOL0     C16774   2.577   6.863   2.609 -1.2166 -1.5727 -0.1575
  125MOL0     O16775   2.457   6.853   2.676  0.2545  0.5864 -0.4416
  125MOL0     C16776   2.454   6.790   2.805  0.0174  0.0414  0.1963
  125MOL0     C16777   2.371   6.865   2.913 -0.1798  0.5198  0.2422
  125MOL0     C16778   2.224   6.887   2.875  0.1682  0.6481  0.4545
  125MOL0     C16779   2.132   6.767   2.911 -0.7732 -0.2474 -0.0317
  125MOL0     C16780   1.977   6.802   2.879  0.5426 -0.3336  0.5921
  125MOL0     C16781   1.915   6.911   2.970  0.5126  0.2449  0.6084
  125MOL0     C16782   1.873   7.031   2.881  0.1194  0.1129 -0.1553
  125MOL0     C16783   1.802   7.144   2.950  0.3603 -0.8335 -0.7863
  125MOL0    Cl16784   1.623   7.116   2.984  0.6103 -0.3095  0.4613
  125MOL0     C16785   2.668   6.757   2.608  0.8538  0.6537  0.2969
  125MOL0     C16786   2.793   6.777   2.558 -0.3529 -0.1360 -1.0573
  125MOL0     O16787   3.058   6.943   2.688 -0.1346  0.3185  0.4043
  125MOL0     C16788   3.209   6.917   2.367 -0.9547  0.3520  0.6035
  125MOL0     C16789   3.337   6.940   2.302  0.0752  0.0858 -1.4015
  125MOL0     N16790   3.986   6.600   2.523 -0.0009  0.4627 -0.1598
  125MOL0     N16791   4.119   6.603   2.523  0.5495  0.2038  0.4112
  125MOL0     C16792   3.793   7.294   2.662  0.1622  0.5166 -0.0011
  125MOL0     C16793   3.653   7.313   2.666  0.9359 -0.4687  1.5204
  125MOL0     C16794   3.228   7.469   2.601  0.4631 -0.1020  0.0352
  125MOL0     C16795   3.215   7.597   2.645  0.4078 -0.7288  0.2525
  125MOL0     C16796   3.093   7.648   2.676  0.4654  0.6385 -0.0186
  125MOL0     C16797   2.972   7.569   2.657 -0.6665 -0.2725  0.2671
  125MOL0     O16798   2.853   7.636   2.672 -0.3380 -0.0083  0.0932
  125MOL0     C16799   2.723   7.563   2.652 -0.7130  0.1200 -1.3841
  125MOL0     C16800   2.705   7.485   2.790  0.1982 -0.4319 -0.0221
  125MOL0     C16801   2.575   7.422   2.828  1.1229  0.1756 -0.4732
  125MOL0     C16802   2.536   7.320   2.731 -0.3393  0.1427 -1.2784
  125MOL0     C16803   2.413   7.254   2.773 -0.0155 -0.1649  0.8717
  125MOL0     C16804   2.313   7.202   2.804 -0.2268 -0.1348  0.5745
  125MOL0     C16805   2.987   7.430   2.618 -0.3896 -0.2455 -0.8618
  125MOL0     C16806   3.114   7.382   2.587 -0.8991 -0.7578 -0.7624
  125MOL0     C16807   3.129   7.240   2.542  0.6836 -0.5635 -0.1526
  125MOL0     H16808   3.623   7.633   2.573  0.2496 -0.3110 -0.0969
  125MOL0     H16809   3.882   7.585   2.519  1.9672 -1.9572 -0.6490
  125MOL0     H16810   4.026   7.388   2.386 -2.9157 -1.7399  0.9106
  125MOL0     H16811   4.100   7.515   2.490  1.2636 -0.8934 -0.7257
  125MOL0     H16812   4.249   7.323   2.579 -0.8576  0.5081  0.6850
  125MOL0     H16813   4.275   7.375   2.405  1.6547  0.4772 -0.1253
  125MOL0     H16814   4.145   7.198   2.330  0.5616  1.0045 -0.1977
  125MOL0     H16815   4.078   7.148   2.490  0.4140 -2.6306 -2.1286
  125MOL0     H16816   4.368   7.126   2.397  0.0828 -0.6158  0.7687
  125MOL0     H16817   4.315   7.074   2.555 -0.4731  0.3954  0.5003
  125MOL0     H16818   4.179   6.897   2.453  1.0910 -1.3256  0.5318
  125MOL0     H16819   4.182   6.977   2.297  1.6790 -0.7402 -1.0657
  125MOL0     H16820   4.429   6.940   2.281 -0.8447  2.8157  2.5628
  125MOL0     H16821   4.427   6.865   2.431 -2.7503  2.2646  1.2192
  125MOL0     H16822   4.434   6.729   2.224 -0.9128  0.4571 -3.4301
  125MOL0     H16823   4.255   6.776   2.195 -1.5556 -1.4913  1.4702
  125MOL0     H16824   4.321   6.549   2.274 -4.7788 -0.5543 -0.4103
  125MOL0     H16825   4.366   6.626   2.430 -1.0596  1.7709  1.7761
  125MOL0     H16826   4.035   6.663   2.208 -0.3840  2.0637  0.0216
  125MOL0     H16827   3.773   6.573   2.276  0.4200 -2.1531  2.2690
  125MOL0     H16828   3.715   6.619   2.429 -0.7833  1.4286 -0.8222
  125MOL0     H16829   3.835   6.822   2.251 -0.8558  0.3293 -0.9647
  125MOL0     H16830   3.661   6.791   2.272 -0.7123 -0.1562  2.2079
  125MOL0     H16831   3.847   6.910   2.483  0.3192  1.5705 -2.8911
  125MOL0     H16832   3.689   6.825   2.529  0.1736 -0.5323  1.5762
  125MOL0     H16833   3.780   7.050   2.338  0.9547 -0.3600  1.8286
  125MOL0     H16834   3.690   7.079   2.486  2.1144  1.0268 -0.8252
  125MOL0     H16835   3.533   6.980   2.587  1.4412 -0.2004 -0.5696
  125MOL0     H16836   3.315   6.960   2.695  0.3092  0.6634  0.0774
  125MOL0     H16837   2.803   7.114   2.542 -1.0877  2.1062  1.3076
  125MOL0     H16838   2.560   7.074   2.558 -0.0490 -0.2046  0.1528
  125MOL0     H16839   2.405   6.693   2.789 -1.5937  0.7760  0.4914
  125MOL0     H16840   2.553   6.767   2.846  1.3001  3.3997 -0.7280
  125MOL0     H16841   2.388   6.826   3.014  1.1727 -1.4745 -0.7067
  125MOL0     H16842   2.415   6.965   2.918  0.2870  0.3388 -0.1700
  125MOL0     H16843   2.180   6.969   2.934  1.6557  1.4809  0.4428
  125MOL0     H16844   2.218   6.907   2.768  2.7080 -0.2206  0.0858
  125MOL0     H16845   2.144   6.744   3.017  1.8768  0.0297 -0.2051
  125MOL0     H16846   2.163   6.674   2.862  2.7363 -0.3821  2.1198
  125MOL0     H16847   1.927   6.706   2.897  3.0500 -2.5053 -2.6920
  125MOL0     H16848   1.967   6.825   2.773  3.2884  0.0610  0.3495
  125MOL0     H16849   1.820   6.872   3.007  0.4107  1.6857  1.9621
  125MOL0     H16850   1.972   6.941   3.058 -0.5974  0.1621  1.3682
  125MOL0     H16851   1.797   7.010   2.805  1.2904  2.3080 -2.0825
  125MOL0     H16852   1.968   7.072   2.846  0.9847 -0.5383  1.3299
  125MOL0     H16853   1.856   7.174   3.040  1.0849 -1.0814 -1.1306
  125MOL0     H16854   1.811   7.233   2.887  2.1393  1.2582  2.1618
  125MOL0     H16855   2.633   6.655   2.622  0.5718  0.4109 -1.8904
  125MOL0     H16856   2.845   6.682   2.554  2.0728  1.0830 -0.6659
  125MOL0     H16857   3.124   6.892   2.305 -0.5973  1.2423 -0.2647
  125MOL0     H16858   3.360   6.934   2.196 -1.1285  0.6308 -1.7090
  125MOL0     H16859   3.837   7.205   2.707 -0.7416 -0.0074 -0.1142
  125MOL0     H16860   3.612   7.226   2.717 -0.2300  0.2548  1.8514
  125MOL0     H16861   3.303   7.659   2.659 -1.2808  1.5421  1.4119
  125MOL0     H16862   3.090   7.755   2.693  1.3638  0.8064 -0.8203
  125MOL0     H16863   2.728   7.486   2.574  0.9800 -0.1524 -1.0442
  125MOL0     H16864   2.640   7.632   2.633 -2.7862 -2.1908 -1.2276
  125MOL0     H16865   2.725   7.556   2.870  2.6565 -1.3794  0.2876
  125MOL0     H16866   2.789   7.415   2.797  0.5134  0.0086  0.7124
  125MOL0     H16867   2.490   7.492   2.830  1.7782  1.0960 -2.3625
  125MOL0     H16868   2.587   7.383   2.929  1.4087 -0.6478 -0.8167
  125MOL0     H16869   2.527   7.363   2.631 -2.6919  0.7886 -0.8450
  125MOL0     H16870   2.617   7.246   2.738 -0.8060 -0.2029  1.5502
  125MOL0     H16871   2.215   7.160   2.823 -0.1948 -0.3255  0.3352
  125MOL0     H16872   2.900   7.367   2.604 -0.9145 -0.0587  1.1604
  125MOL0     H16873   3.209   7.193   2.600  1.8353  1.9675  0.4246
  125MOL0     H16874   3.034   7.185   2.551 -0.1517  0.9767  0.9482
  125MOL0     H16875   3.161   7.235   2.438  0.2527  1.1457 -0.3981
  126MOL0     O16876   5.365   4.666   2.767 -0.4627  0.3135 -0.7318
  126MOL0     C16877   5.439   4.614   2.690 -0.0035  0.8568 -1.0912
  126MOL0     O16878   5.566   4.568   2.717 -0.1678  0.4758  0.4146
  126MOL0     C16879   5.632   4.616   2.827  0.1024 -0.9033  1.0116
  126MOL0     C16880   5.746   4.694   2.804 -0.2887 -0.0954 -0.0788
  126MOL0     C16881   5.817   4.735   2.917  0.2356 -0.2697 -0.6909
  126MOL0     C16882   5.782   4.713   3.050  0.3328  0.6306  0.4904
  126MOL0     O16883   5.860   4.770   3.143  0.9982 -0.1046 -0.0264
  126MOL0     C16884   5.794   4.820   3.264 -0.9130 -0.3711 -0.4573
  126MOL0     C16885   5.906   4.910   3.322  0.0574  0.1282 -0.3796
  126MOL0     C16886   5.916   5.052   3.268 -0.2902 -0.5786 -0.4796
  126MOL0     C16887   6.023   5.068   3.160  0.3355  0.5154 -0.0249
  126MOL0     C16888   6.035   5.204   3.106  0.0417 -1.2107 -0.2612
  126MOL0     C16889   6.167   5.212   3.044 -0.1445 -0.9442  0.7029
  126MOL0     C16890   6.210   5.345   2.970  0.1059 -0.1924 -0.1070
  126MOL0     C16891   6.096   5.402   2.884  0.6415  0.0896  0.5165
  126MOL0     N16892   6.063   5.328   2.760  0.5145 -0.1533 -0.0107
  126MOL0     C16893   6.139   5.232   2.711 -0.2027  0.5629  0.3396
  126MOL0     C16894   6.072   5.183   2.606 -0.1242  1.0054 -0.2186
  126MOL0     C16895   6.129   5.066   2.531  0.4894  0.4931 -0.3237
  126MOL0     C16896   6.070   4.933   2.592  0.6324 -0.3915  0.1040
  126MOL0     C16897   6.156   4.808   2.549  0.4840 -0.6655 -0.8262
  126MOL0     C16898   6.105   4.687   2.623 -0.1992 -0.7258  1.1718
  126MOL0     O16899   6.087   4.704   2.768  0.5861 -0.3214  0.0199
  126MOL0     C16900   6.203   4.709   2.841  0.1828 -1.1216 -1.3161
  126MOL0     C16901   6.196   4.754   2.975  0.6237 -0.3525 -0.0190
  126MOL0     C16902   6.307   4.784   3.062  0.2590 -0.5370 -0.4666
  126MOL0     C16903   6.436   4.767   3.002 -0.0755  0.7299  0.5504
  126MOL0     C16904   6.557   4.822   3.060  0.0486 -0.4807 -0.7233
  126MOL0     O16905   6.678   4.780   3.024  0.4041  0.4249 -0.3633
  126MOL0     C16906   6.796   4.813   3.095 -0.2777 -0.5861 -0.6656
  126MOL0     C16907   6.905   4.859   3.030  0.2203  0.1843  1.2198
  126MOL0     C16908   7.028   4.873   3.096 -0.6865  0.2270 -0.2194
  126MOL0     C16909   7.048   4.841   3.230  0.8632 -0.8058  1.0077
  126MOL0     O16910   7.177   4.843   3.270 -0.3284  0.1753  0.7528
  126MOL0     C16911   7.213   4.750   3.370 -0.6761  0.1571 -0.5818
  126MOL0     C16912   7.361   4.714   3.363 -0.1872 -0.3537  0.2009
  126MOL0     C16913   7.457   4.823   3.353 -0.5700  0.3647 -0.1743
  126MOL0     C16914   7.523   4.851   3.210  0.2571 -0.8045  0.6042
  126MOL0     C16915   7.612   4.970   3.211  0.1199  0.6518  0.3381
  126MOL0     C16916   7.730   4.962   3.308 -0.3038 -0.1682 -0.2932
  126MOL0     C16917   7.821   5.080   3.274  0.9602  0.1488 -0.0597
  126MOL0     C16918   7.961   5.036   3.220  0.5592  0.3810 -1.1273
  126MOL0    Cl16919   8.060   5.179   3.189 -0.5010  0.0145 -0.2392
  126MOL0     C16920   6.935   4.802   3.295 -0.0556 -0.0967  0.3102
  126MOL0     C16921   6.807   4.791   3.230 -0.5509 -0.5271  0.0249
  126MOL0     O16922   6.538   4.895   3.154 -0.2450 -0.3684  0.8061
  126MOL0     C16923   6.442   4.702   2.876 -0.7096  0.0501 -0.1435
  126MOL0     C16924   6.335   4.680   2.793 -0.1499  0.7089 -0.4380
  126MOL0     N16925   5.948   5.244   2.590  0.1603 -1.0892  0.5956
  126MOL0     N16926   5.942   5.329   2.694  0.1438 -0.2698 -0.7612
  126MOL0     C16927   5.661   4.646   3.068  0.0538 -0.6817  0.0020
  126MOL0     C16928   5.590   4.593   2.961  0.3122  0.7707 -0.0493
  126MOL0     C16929   5.393   4.585   2.550  0.3002  0.1305  0.5285
  126MOL0     C16930   5.443   4.472   2.479  0.6795 -0.2409 -0.3811
  126MOL0     C16931   5.404   4.452   2.342  0.1672  0.1898 -0.0037
  126MOL0     C16932   5.307   4.528   2.285 -0.0662 -0.1922 -0.0266
  126MOL0     O16933   5.272   4.494   2.154 -0.3504 -0.1477  0.5343
  126MOL0     C16934   5.157   4.552   2.094  0.2584  0.0550  0.3903
  126MOL0     C16935   5.099   4.488   1.966 -0.0516  0.1809 -0.1201
  126MOL0     C16936   4.986   4.582   1.911 -0.5556  0.2963 -0.0542
  126MOL0     C16937   4.903   4.521   1.796 -0.2053  0.1335 -0.6692
  126MOL0     C16938   4.982   4.491   1.679 -0.4757 -0.1619 -1.3086
  126MOL0     C16939   5.036   4.480   1.576 -0.0019 -0.7698  0.8602
  126MOL0     C16940   5.240   4.627   2.358  0.1642 -0.3146 -0.2036
  126MOL0     C16941   5.284   4.663   2.490 -0.4782  0.4558 -0.0656
  126MOL0     C16942   5.208   4.780   2.558 -0.4661 -0.0980  0.4731
  126MOL0     H16943   5.778   4.708   2.701 -1.0583  0.0513 -0.3033
  126MOL0     H16944   5.909   4.791   2.906 -0.0742  1.0161  2.3017
  126MOL0     H16945   5.699   4.871   3.244 -0.2152  0.9497 -0.5358
  126MOL0     H16946   5.769   4.738   3.332 -1.5363  1.8521  2.1938
  126MOL0     H16947   6.002   4.857   3.316 -0.9464 -1.7446 -0.4117
  126MOL0     H16948   5.889   4.911   3.430  0.5091 -0.7571 -0.2944
  126MOL0     H16949   5.924   5.117   3.356 -1.8720 -1.3023  0.2327
  126MOL0     H16950   5.819   5.084   3.228 -0.8740 -0.6594  0.8196
  126MOL0     H16951   6.122   5.030   3.186  0.3358 -1.4354 -2.4885
  126MOL0     H16952   5.989   5.001   3.080  0.3636 -0.1328  0.4931
  126MOL0     H16953   5.955   5.229   3.036  1.0631  3.1723 -0.1262
  126MOL0     H16954   6.018   5.281   3.181  0.7334 -1.2193 -0.0883
  126MOL0     H16955   6.247   5.187   3.114  2.8718 -1.3449 -2.6043
  126MOL0     H16956   6.169   5.132   2.969 -0.1674  0.3435 -0.7375
  126MOL0     H16957   6.307   5.337   2.920  0.7775 -0.8235  1.2523
  126MOL0     H16958   6.226   5.417   3.051 -0.0905 -2.6298  2.2546
  126MOL0     H16959   6.005   5.406   2.944 -0.6788 -1.0829 -1.2846
  126MOL0     H16960   6.114   5.508   2.862  2.0520 -0.3539 -0.6526
  126MOL0     H16961   6.243   5.208   2.734 -0.1903  1.4236  1.2558
  126MOL0     H16962   6.096   5.066   2.426 -0.8161 -1.4815  0.0251
  126MOL0     H16963   6.238   5.064   2.540  0.3735 -1.9409  1.2885
  126MOL0     H16964   6.083   4.948   2.700  0.1914  1.7708 -0.0887
  126MOL0     H16965   5.966   4.919   2.561  0.9181 -1.7057 -0.3274
  126MOL0     H16966   6.261   4.827   2.571  0.5701  0.5608 -2.1602
  126MOL0     H16967   6.142   4.785   2.443  1.0556  0.6747 -1.2055
  126MOL0     H16968   6.174   4.605   2.597  0.0079  0.2633 -1.6864
  126MOL0     H16969   6.005   4.665   2.588  0.5297 -1.8053 -0.3173
  126MOL0     H16970   6.099   4.780   3.015  0.2543 -1.4900 -0.1531
  126MOL0     H16971   6.294   4.829   3.159  0.3484  1.1508 -1.2022
  126MOL0     H16972   6.905   4.885   2.925  1.4537  1.0625  1.4154
  126MOL0     H16973   7.110   4.906   3.034 -0.1193  1.3546  1.0808
  126MOL0     H16974   7.196   4.790   3.471  1.9909 -1.7663  0.7776
  126MOL0     H16975   7.149   4.663   3.356  2.6984 -2.4298 -1.2702
  126MOL0     H16976   7.383   4.653   3.450  2.6542 -0.8127 -0.7446
  126MOL0     H16977   7.374   4.648   3.276  0.1931 -0.0562  0.0287
  126MOL0     H16978   7.399   4.911   3.385 -2.0621 -0.3122 -0.9267
  126MOL0     H16979   7.542   4.799   3.417 -0.0004 -2.0963 -1.7278
  126MOL0     H16980   7.446   4.887   3.142  0.2343  0.4861  1.2748
  126MOL0     H16981   7.578   4.762   3.177 -0.3195 -0.8140 -0.3671
  126MOL0     H16982   7.550   5.059   3.224  1.0976  1.8560 -2.4285
  126MOL0     H16983   7.648   4.985   3.109  0.9357 -3.6578 -0.1624
  126MOL0     H16984   7.709   4.969   3.415  1.6018  2.3791 -0.0012
  126MOL0     H16985   7.777   4.868   3.277 -1.7195 -1.0984  0.2305
  126MOL0     H16986   7.842   5.130   3.369 -1.4752 -0.1260  0.6975
  126MOL0     H16987   7.785   5.157   3.205 -0.3050 -1.5290 -1.3723
  126MOL0     H16988   7.999   4.980   3.306 -2.3889 -1.1886 -0.6945
  126MOL0     H16989   7.956   4.973   3.131 -0.0102  2.8950 -3.0006
  126MOL0     H16990   6.942   4.777   3.401  2.1058  1.0749  0.4905
  126MOL0     H16991   6.740   4.758   3.309  1.5518  0.1531  2.2426
  126MOL0     H16992   6.540   4.684   2.831 -1.5713 -0.6226 -1.8437
  126MOL0     H16993   6.371   4.645   2.697  1.0637 -2.8402  1.1255
  126MOL0     H16994   5.613   4.618   3.162 -3.5713 -1.0865 -1.7757
  126MOL0     H16995   5.488   4.561   2.982  0.2371 -0.7365 -2.3534
  126MOL0     H16996   5.514   4.407   2.530  3.0112 -1.2514 -4.4321
  126MOL0     H16997   5.445   4.384   2.267 -1.4758  1.2642 -1.9632
  126MOL0     H16998   5.189   4.653   2.066  2.5709 -1.1962 -1.8886
  126MOL0     H16999   5.074   4.548   2.165  1.5203 -0.1935  1.9134
  126MOL0     H17000   5.050   4.398   2.005 -2.4524  1.7719  0.7752
  126MOL0     H17001   5.181   4.475   1.894  2.5712 -1.2739  2.8674
  126MOL0     H17002   5.028   4.674   1.869  3.2641 -1.5016 -0.6608
  126MOL0     H17003   4.913   4.597   1.992 -0.8919 -0.9545 -0.1057
  126MOL0     H17004   4.856   4.433   1.839 -2.8106  1.6689 -0.1226
  126MOL0     H17005   4.819   4.585   1.769  1.0936  2.0875 -0.3524
  126MOL0     H17006   5.088   4.477   1.482 -1.7675 -0.4791 -0.1719
  126MOL0     H17007   5.166   4.695   2.319 -1.4526 -2.1270 -0.4606
  126MOL0     H17008   5.272   4.843   2.620  1.8494 -3.2034  1.5197
  126MOL0     H17009   5.164   4.849   2.486 -1.4279 -0.9462  0.2181
  126MOL0     H17010   5.131   4.737   2.623 -0.6441 -1.3244 -0.5135
  127MOL0     O17011   4.242   2.256   0.365  0.4121 -0.2116 -0.3999
  127MOL0     C17012   4.205   2.354   0.429  0.3657  0.5101  1.7174
  127MOL0     O17013   4.229   2.484   0.397  0.2994 -0.2193 -0.2597
  127MOL0     C17014   4.318   2.513   0.292  0.2245  0.1745 -0.2301
  127MOL0     C17015   4.262   2.543   0.168  0.3191  0.7201 -0.2374
  127MOL0     C17016   4.351   2.601   0.069  0.1639 -0.2758 -0.1145
  127MOL0     C17017   4.490   2.611   0.090  0.2261 -0.1474 -0.0362
  127MOL0     O17018   4.555   2.650  -0.022 -0.1685 -0.0781  0.1710
  127MOL0     C17019   4.699   2.659  -0.017  0.2241  0.5046 -0.3761
  127MOL0     C17020   4.767   2.672  -0.161 -0.3487 -0.0280 -0.7112
  127MOL0     C17021   4.735   2.809  -0.227 -0.5586  0.7089  0.2291
  127MOL0     C17022   4.845   2.908  -0.178  1.5919  0.2065  0.5012
  127MOL0     C17023   4.805   3.056  -0.186 -0.0238  0.8831 -0.0415
  127MOL0     C17024   4.907   3.158  -0.126  0.6375  0.6424 -0.9566
  127MOL0     C17025   5.048   3.154  -0.173 -0.1453  0.0896  0.3104
  127MOL0     C17026   5.050   3.174  -0.326  0.2341 -0.3332 -0.3550
  127MOL0     N17027   5.010   3.312  -0.357  0.1024 -0.0400 -0.1844
  127MOL0     C17028   5.099   3.385  -0.434  0.1936  0.2777 -1.0017
  127MOL0     C17029   5.024   3.467  -0.514  0.5266 -0.2134  0.2522
  127MOL0     C17030   5.086   3.578  -0.598 -0.6242  0.0484  0.2134
  127MOL0     C17031   5.094   3.711  -0.520 -0.1860 -0.0295 -0.8333
  127MOL0     C17032   5.204   3.726  -0.418 -0.4652  1.0949 -0.4742
  127MOL0     C17033   5.340   3.764  -0.482  0.2335  0.4295  0.9098
  127MOL0     O17034   5.437   3.792  -0.384  0.1840  1.1025 -0.0786
  127MOL0     C17035   5.563   3.829  -0.425 -0.2016  0.3445 -1.0195
  127MOL0     C17036   5.606   3.823  -0.559  0.6869  0.3974 -0.4268
  127MOL0     C17037   5.729   3.883  -0.601  0.1817  0.2728 -0.3001
  127MOL0     C17038   5.822   3.935  -0.501 -0.0651  0.9988  0.2032
  127MOL0     C17039   5.953   3.990  -0.530 -0.1739 -0.7765 -0.2136
  127MOL0     O17040   6.018   4.084  -0.443  0.4176  0.8078  0.1180
  127MOL0     C17041   6.124   4.150  -0.496 -0.5223 -0.0691  0.5188
  127MOL0     C17042   6.102   4.248  -0.576  0.6939 -0.4861  0.6198
  127MOL0     C17043   6.210   4.325  -0.626 -0.7085  0.8165 -0.6315
  127MOL0     C17044   6.347   4.298  -0.592  0.2057 -0.5013  0.8626
  127MOL0     O17045   6.436   4.378  -0.655  0.6646  0.1773  0.4383
  127MOL0     C17046   6.575   4.375  -0.614  0.0687  0.5567  0.2467
  127MOL0     C17047   6.638   4.514  -0.613 -0.1633  1.1502  0.9582
  127MOL0     C17048   6.778   4.503  -0.637 -0.9911 -0.2113 -0.4207
  127MOL0     C17049   6.856   4.624  -0.594  0.8474 -1.0466 -0.4189
  127MOL0     C17050   7.009   4.607  -0.610 -0.1301 -0.3490 -0.7208
  127MOL0     C17051   7.062   4.575  -0.751  0.4728  0.0987 -0.1120
  127MOL0     C17052   7.164   4.675  -0.807 -0.0810  0.8275 -1.2154
  127MOL0     C17053   7.193   4.653  -0.950 -0.0238 -0.8027  0.1481
  127MOL0    Cl17054   7.070   4.683  -1.094  0.5470 -0.3248  0.3862
  127MOL0     C17055   6.366   4.199  -0.490  0.0385 -0.1088  1.6523
  127MOL0     C17056   6.254   4.124  -0.452  0.0510 -0.4490  0.4716
  127MOL0     O17057   6.008   3.944  -0.630 -0.0568 -0.0089 -0.3255
  127MOL0     C17058   5.781   3.936  -0.365  0.1965  0.7631  0.4274
  127MOL0     C17059   5.655   3.881  -0.328 -0.1049  0.1271  0.3400
  127MOL0     N17060   4.892   3.440  -0.494 -0.2409 -0.0053  0.2244
  127MOL0     N17061   4.886   3.349  -0.401  0.3103  0.2413  0.5405
  127MOL0     C17062   4.537   2.580   0.216 -0.6542 -0.2755  0.1171
  127MOL0     C17063   4.458   2.534   0.316  0.0927 -0.3215 -1.0227
  127MOL0     C17064   4.126   2.310   0.544  0.7050  0.5011  0.8287
  127MOL0     C17065   4.170   2.214   0.643 -0.1651  0.1603  0.3116
  127MOL0     C17066   4.103   2.176   0.759 -0.6146 -0.1138  0.0474
  127MOL0     C17067   3.975   2.226   0.780  0.2649  0.1369 -0.3523
  127MOL0     O17068   3.918   2.179   0.893 -0.1294  0.1388  0.2253
  127MOL0     C17069   3.807   2.252   0.941  0.0466  1.0804  1.1763
  127MOL0     C17070   3.772   2.171   1.064 -0.2177  0.1585 -0.3714
  127MOL0     C17071   3.641   2.233   1.126 -0.3180  0.6315 -1.0914
  127MOL0     C17072   3.572   2.131   1.225  0.5527 -0.4966 -0.1751
  127MOL0     C17073   3.638   2.140   1.356  0.3517 -0.0334  0.2312
  127MOL0     C17074   3.719   2.144   1.447 -0.1274 -0.0456 -1.2794
  127MOL0     C17075   3.918   2.317   0.686 -0.2795 -0.0996  0.3885
  127MOL0     C17076   3.989   2.364   0.567  0.8191  0.4029 -0.6896
  127MOL0     C17077   3.930   2.465   0.469  0.3298 -0.9693 -0.8598
  127MOL0     H17078   4.158   2.541   0.137  0.6748 -2.3980 -1.5744
  127MOL0     H17079   4.314   2.634  -0.027  2.3931  2.6816 -0.0740
  127MOL0     H17080   4.718   2.749   0.042 -0.0613  1.3747 -1.5879
  127MOL0     H17081   4.727   2.573   0.045  0.3029  1.4745  0.9722
  127MOL0     H17082   4.729   2.592  -0.224 -0.2996  0.6084 -1.5709
  127MOL0     H17083   4.876   2.663  -0.150 -0.3355  1.7091  1.3474
  127MOL0     H17084   4.633   2.847  -0.218 -1.3543 -0.6007 -2.1377
  127MOL0     H17085   4.745   2.786  -0.333 -1.9614  0.2127  0.1836
  127MOL0     H17086   4.875   2.890  -0.075  1.5862 -0.0868  0.4506
  127MOL0     H17087   4.919   2.878  -0.253 -2.0001 -4.0036 -1.7819
  127MOL0     H17088   4.776   3.082  -0.288 -2.5257  1.4746  0.7555
  127MOL0     H17089   4.720   3.078  -0.121  1.0557  1.7274  1.1248
  127MOL0     H17090   4.858   3.255  -0.144 -0.3881 -0.0224 -1.9012
  127MOL0     H17091   4.904   3.137  -0.019  0.6385 -1.7911 -1.3771
  127MOL0     H17092   5.091   3.057  -0.147  1.4130  0.6545 -0.0920
  127MOL0     H17093   5.105   3.238  -0.133 -2.5485  1.6735  0.6298
  127MOL0     H17094   5.148   3.149  -0.366 -0.6665 -2.3962 -1.4555
  127MOL0     H17095   4.981   3.098  -0.366 -1.4301 -1.7084  4.4652
  127MOL0     H17096   5.206   3.398  -0.427 -0.0175  1.0021  2.3468
  127MOL0     H17097   5.187   3.556  -0.634 -0.2074  3.0462 -0.7281
  127MOL0     H17098   5.036   3.602  -0.692 -0.2787  1.9182  0.4703
  127MOL0     H17099   5.106   3.790  -0.595  1.3872 -0.3386 -0.9409
  127MOL0     H17100   4.997   3.735  -0.476 -1.1653  2.1671 -3.8663
  127MOL0     H17101   5.222   3.644  -0.348 -1.8169  1.7503  0.6948
  127MOL0     H17102   5.163   3.801  -0.349  0.4412 -0.6496  2.1186
  127MOL0     H17103   5.322   3.858  -0.535  1.5322  0.5999  0.7522
  127MOL0     H17104   5.361   3.684  -0.554 -2.3458  0.6028 -0.1436
  127MOL0     H17105   5.534   3.788  -0.632  0.1681  0.6361 -0.0329
  127MOL0     H17106   5.756   3.882  -0.706 -0.5372 -0.3237 -0.4914
  127MOL0     H17107   6.003   4.273  -0.614  1.8640  0.5387 -2.0250
  127MOL0     H17108   6.200   4.408  -0.696  0.9292 -1.4542 -3.8071
  127MOL0     H17109   6.595   4.317  -0.523 -0.9892 -2.0337 -1.0627
  127MOL0     H17110   6.626   4.318  -0.692  0.4885  2.2714 -0.7611
  127MOL0     H17111   6.598   4.571  -0.697 -0.6552 -1.7258 -0.8824
  127MOL0     H17112   6.607   4.573  -0.526 -6.0387  0.6149 -0.3920
  127MOL0     H17113   6.810   4.422  -0.571 -1.7265  0.2723  0.5382
  127MOL0     H17114   6.800   4.479  -0.742  1.2774  0.9608 -0.2714
  127MOL0     H17115   6.824   4.627  -0.490 -2.5572 -1.8200 -1.3463
  127MOL0     H17116   6.815   4.710  -0.648  0.2379 -1.0301  0.0647
  127MOL0     H17117   7.057   4.523  -0.558  0.7724 -0.6480 -1.9860
  127MOL0     H17118   7.057   4.692  -0.560 -0.3224  0.4591 -1.8867
  127MOL0     H17119   7.097   4.472  -0.756 -1.2881 -0.5314 -0.2257
  127MOL0     H17120   6.972   4.571  -0.814  0.9733 -4.2314 -0.8708
  127MOL0     H17121   7.258   4.665  -0.751 -0.2440  0.3562 -1.0163
  127MOL0     H17122   7.132   4.777  -0.786 -0.1964  0.4843  0.4608
  127MOL0     H17123   7.281   4.715  -0.972  0.8724 -2.0127  0.2431
  127MOL0     H17124   7.232   4.552  -0.959  0.7746 -0.4592 -0.4188
  127MOL0     H17125   6.466   4.164  -0.469  0.5414 -0.5741 -1.0802
  127MOL0     H17126   6.283   4.057  -0.371 -2.8522  0.4321  2.4166
  127MOL0     H17127   5.848   3.973  -0.289  3.4190 -0.2106 -1.7533
  127MOL0     H17128   5.628   3.874  -0.224  1.0740 -1.6083  0.5664
  127MOL0     H17129   4.644   2.593   0.231 -0.9958 -0.0739  3.0373
  127MOL0     H17130   4.500   2.503   0.411 -1.9547 -1.7392 -0.5114
  127MOL0     H17131   4.269   2.171   0.634 -1.0271 -2.0996  0.8833
  127MOL0     H17132   4.147   2.109   0.833 -1.8195 -3.6238 -2.1651
  127MOL0     H17133   3.725   2.235   0.871  2.9881 -2.2945 -1.9130
  127MOL0     H17134   3.838   2.357   0.945  0.6699  1.2453 -2.9918
  127MOL0     H17135   3.859   2.159   1.129 -1.7369 -2.0241  1.4318
  127MOL0     H17136   3.746   2.070   1.031  2.2759 -1.2375  1.5434
  127MOL0     H17137   3.566   2.250   1.048 -1.1995  3.6302  0.2296
  127MOL0     H17138   3.657   2.332   1.171 -0.7258 -0.0259  0.5924
  127MOL0     H17139   3.474   2.173   1.251  0.0996 -1.1126 -0.8349
  127MOL0     H17140   3.562   2.029   1.188 -0.6382 -0.9891  1.3760
  127MOL0     H17141   3.784   2.137   1.532  0.5285  0.2084 -1.7484
  127MOL0     H17142   3.813   2.346   0.696 -0.9618 -2.4529  0.7039
  127MOL0     H17143   3.978   2.561   0.492  1.9811 -2.1444  0.9824
  127MOL0     H17144   3.941   2.440   0.363 -2.1487 -1.5314 -1.0273
  127MOL0     H17145   3.824   2.474   0.490  0.9442  1.5824  1.8174
  128MOL0     O17146   0.084  11.178   5.319 -0.1669 -0.0673  0.4762
  128MOL0     C17147   0.061  11.106   5.223 -0.3289 -0.4804  0.9132
  128MOL0     O17148   0.157  11.029   5.154 -0.5657 -0.4118 -0.2393
  128MOL0     C17149   0.294  11.042   5.181  0.6445  0.5886  0.6670
  128MOL0     C17150   0.367  11.163   5.151 -0.0720 -0.4515 -0.5300
  128MOL0     C17151   0.503  11.168   5.176 -0.3239 -0.4442  0.3358
  128MOL0     C17152   0.578  11.052   5.190  0.4695 -0.0010 -0.5679
  128MOL0     O17153   0.719  11.057   5.203  0.4317  0.6637  0.6017
  128MOL0     C17154   0.793  10.953   5.146  0.1152 -0.7393  0.2248
  128MOL0     C17155   0.937  10.968   5.184  0.0737 -0.5105 -0.8857
  128MOL0     C17156   0.999  11.088   5.112 -0.7628  0.5106  0.1220
  128MOL0     C17157   1.147  11.066   5.073  0.0978 -1.0779  0.2765
  128MOL0     C17158   1.229  11.038   5.190  0.0641 -0.2254 -0.2270
  128MOL0     C17159   1.382  11.019   5.166 -0.1641  0.4781  0.0147
  128MOL0     C17160   1.448  10.912   5.255 -0.9425  0.1618 -0.5026
  128MOL0     C17161   1.426  10.773   5.186  0.0511  0.3627 -0.1002
  128MOL0     N17162   1.464  10.659   5.277  0.4624  0.0382 -0.3659
  128MOL0     C17163   1.584  10.590   5.296  0.6264 -0.8684  0.1794
  128MOL0     C17164   1.564  10.487   5.386 -0.8635  0.3077  0.2513
  128MOL0     C17165   1.666  10.410   5.465  0.0255  0.3532  0.8029
  128MOL0     C17166   1.773  10.502   5.521 -0.3290 -0.2748 -0.0367
  128MOL0     C17167   1.867  10.430   5.613 -0.0611  0.0582  0.1217
  128MOL0     C17168   1.982  10.358   5.538  0.4387  0.4535  0.2168
  128MOL0     O17169   2.066  10.285   5.626 -0.6031 -0.9014  0.0137
  128MOL0     C17170   2.190  10.253   5.592 -0.3281 -0.7636  0.2110
  128MOL0     C17171   2.226  10.117   5.579 -0.4049  0.5385  0.3290
  128MOL0     C17172   2.354  10.075   5.530  0.3056 -0.0236 -0.0549
  128MOL0     C17173   2.460  10.166   5.518  0.3509  0.0097  0.5109
  128MOL0     C17174   2.594  10.127   5.473  0.6465 -0.7363 -0.0337
  128MOL0     O17175   2.607   9.998   5.429 -0.4540 -0.4768  0.2741
  128MOL0     C17176   2.726   9.952   5.393  0.0716 -1.0861  0.0325
  128MOL0     C17177   2.802   9.871   5.472 -0.5273 -0.5089 -0.5664
  128MOL0     C17178   2.928   9.834   5.431 -0.0419 -0.5057  0.9434
  128MOL0     C17179   2.978   9.866   5.301 -0.2338 -0.4239 -0.7782
  128MOL0     O17180   3.100   9.815   5.262 -0.3902  0.0256 -0.5300
  128MOL0     C17181   3.205   9.833   5.362 -0.3906  0.5410 -0.6628
  128MOL0     C17182   3.334   9.819   5.295  0.1671 -1.0068 -0.4745
  128MOL0     C17183   3.462   9.862   5.383  1.2023  0.5430  0.1378
  128MOL0     C17184   3.585   9.874   5.304  0.1656 -0.3022  0.7878
  128MOL0     C17185   3.686   9.960   5.372 -0.7250 -0.1880  0.5024
  128MOL0     C17186   3.832   9.908   5.354  0.2085 -0.1239  0.3598
  128MOL0     C17187   3.885   9.902   5.208  0.4007 -0.1066 -0.6445
  128MOL0     C17188   4.003   9.798   5.201  0.6077  0.3665  0.2585
  128MOL0    Cl17189   4.168   9.863   5.247 -0.5511  0.1241 -0.4709
  128MOL0     C17190   2.898   9.938   5.217 -1.2174 -0.0300 -0.3611
  128MOL0     C17191   2.767   9.972   5.261  0.0193  0.3422  0.2877
  128MOL0     O17192   2.679  10.205   5.495 -0.3326 -0.1355 -0.3874
  128MOL0     C17193   2.423  10.299   5.523 -0.2379  0.1083  0.3775
  128MOL0     C17194   2.295  10.344   5.562 -0.0011  1.3226  0.7966
  128MOL0     N17195   1.433  10.495   5.416 -0.2148  0.4529  0.7646
  128MOL0     N17196   1.375  10.593   5.360 -0.3678 -0.6540  0.1944
  128MOL0     C17197   0.504  10.932   5.208  0.4658 -0.0895 -0.2608
  128MOL0     C17198   0.367  10.929   5.216  0.3826 -0.5210 -0.1807
  128MOL0     C17199  -0.080  11.081   5.173 -0.1662 -0.3224 -0.9624
  128MOL0     C17200  -0.116  10.948   5.156  0.1205  0.6303  0.3467
  128MOL0     C17201  -0.247  10.912   5.124  0.1106  0.2363  0.9557
  128MOL0     C17202  -0.349  11.013   5.123 -0.7965 -0.2810  0.3291
  128MOL0     O17203  -0.485  10.992   5.106 -0.4702  0.6255 -0.0226
  128MOL0     C17204  -0.547  10.860   5.072 -0.4307 -0.6884  0.1455
  128MOL0     C17205  -0.703  10.872   5.044  0.6198  0.0210 -0.9096
  128MOL0     C17206  -0.782  10.920   5.173  0.4651 -0.3664 -0.0944
  128MOL0     C17207  -0.933  10.906   5.165  0.4545 -0.3027  0.3774
  128MOL0     C17208  -0.981  10.996   5.065 -1.0439  0.0597  0.2187
  128MOL0     C17209  -1.027  11.065   4.971 -0.2680 -0.3175  0.2025
  128MOL0     C17210  -0.315  11.152   5.151 -0.7066  0.3041  0.1724
  128MOL0     C17211  -0.179  11.180   5.183  0.6799 -0.4092 -0.4619
  128MOL0     C17212  -0.154  11.328   5.210 -0.3392 -0.8682  0.3406
  128MOL0     H17213   0.318  11.258   5.130  2.4174  1.8477  2.9981
  128MOL0     H17214   0.557  11.258   5.150 -2.8375  0.7811 -1.0569
  128MOL0     H17215   0.753  10.864   5.196 -5.3848  1.7463  1.0066
  128MOL0     H17216   0.791  10.956   5.036  1.9102  1.6202  0.1920
  128MOL0     H17217   1.003  10.889   5.148  0.3797  0.5830 -2.9133
  128MOL0     H17218   0.936  10.967   5.293  0.6619 -0.2017 -0.8733
  128MOL0     H17219   1.001  11.177   5.176  0.2456  1.3717 -1.0602
  128MOL0     H17220   0.938  11.116   5.025 -1.1641  2.2436  0.9206
  128MOL0     H17221   1.154  10.985   5.000 -0.3820  1.3588 -2.7273
  128MOL0     H17222   1.183  11.158   5.024  0.5258 -0.5277  1.5818
  128MOL0     H17223   1.216  11.117   5.266 -0.9066 -1.5597  1.0469
  128MOL0     H17224   1.197  10.948   5.243 -0.6021  0.1414  0.0086
  128MOL0     H17225   1.399  10.988   5.062  0.6864  0.5084  0.1348
  128MOL0     H17226   1.436  11.110   5.193  0.8819  0.2381 -1.1321
  128MOL0     H17227   1.395  10.911   5.350 -0.4195  1.0394 -0.1908
  128MOL0     H17228   1.556  10.918   5.269 -0.9979 -1.6745  1.1029
  128MOL0     H17229   1.322  10.766   5.152 -0.0525  3.1683 -0.5925
  128MOL0     H17230   1.489  10.761   5.097 -1.2136 -1.6764 -0.8108
  128MOL0     H17231   1.674  10.616   5.242 -1.2178  1.3574 -2.0870
  128MOL0     H17232   1.609  10.358   5.542 -0.5889 -0.9468 -0.4693
  128MOL0     H17233   1.714  10.335   5.403  0.1326  2.2130 -1.5300
  128MOL0     H17234   1.834  10.550   5.444  1.4968 -0.8208  1.0024
  128MOL0     H17235   1.710  10.573   5.575  2.4739  2.2434  0.1222
  128MOL0     H17236   1.810  10.357   5.672  0.7319 -2.0273 -1.5705
  128MOL0     H17237   1.909  10.503   5.683 -1.4806 -1.1559  2.3538
  128MOL0     H17238   2.058  10.425   5.496  0.5909 -0.0057 -0.2546
  128MOL0     H17239   1.930  10.293   5.466 -0.4663 -0.4201  1.6126
  128MOL0     H17240   2.152  10.039   5.591 -2.2465  2.5005  2.5524
  128MOL0     H17241   2.375   9.970   5.511  1.7239 -0.0658  1.4907
  128MOL0     H17242   2.780   9.859   5.578  0.2608 -1.1880 -0.4658
  128MOL0     H17243   2.983   9.783   5.510 -1.6477 -0.8923  1.8622
  128MOL0     H17244   3.210   9.935   5.399 -0.7107  0.7945 -1.3061
  128MOL0     H17245   3.198   9.765   5.448  2.5455 -0.1022 -0.7995
  128MOL0     H17246   3.344   9.719   5.253  1.8567 -2.2134  2.4414
  128MOL0     H17247   3.333   9.905   5.228 -0.2217 -0.6272  0.0104
  128MOL0     H17248   3.433   9.960   5.422 -2.1785  0.8413 -2.5961
  128MOL0     H17249   3.478   9.797   5.469  0.6789 -1.7845 -1.4282
  128MOL0     H17250   3.571   9.906   5.200  0.7986  1.5437  1.2317
  128MOL0     H17251   3.618   9.771   5.289 -4.1143 -1.5478 -1.9487
  128MOL0     H17252   3.654   9.977   5.475 -0.2729 -0.0277  0.6210
  128MOL0     H17253   3.675  10.065   5.343 -0.0966 -0.2019  0.1967
  128MOL0     H17254   3.897   9.975   5.412 -1.4288  1.9099 -0.0117
  128MOL0     H17255   3.841   9.809   5.399 -2.3366 -0.0743  1.0943
  128MOL0     H17256   3.930   9.998   5.182  4.4446 -0.9766  2.2432
  128MOL0     H17257   3.801   9.867   5.147 -1.2058  0.8343  0.9511
  128MOL0     H17258   3.970   9.709   5.255 -3.1780  3.1309  3.0550
  128MOL0     H17259   4.001   9.774   5.095 -5.4133  1.1077 -0.1855
  128MOL0     H17260   2.936   9.970   5.121 -0.1257  4.9412  1.4098
  128MOL0     H17261   2.695  10.014   5.191  1.2116 -1.9275 -2.5218
  128MOL0     H17262   2.499  10.373   5.499 -0.2776  1.2138  3.3041
  128MOL0     H17263   2.288  10.452   5.573  1.6400  1.5477 -0.0284
  128MOL0     H17264   0.561  10.840   5.218 -0.7348 -0.6136  2.8227
  128MOL0     H17265   0.316  10.836   5.238 -2.3857  0.7547 -0.7582
  128MOL0     H17266  -0.034  10.877   5.152  0.5291  1.0942  0.4248
  128MOL0     H17267  -0.276  10.809   5.110  0.7410  0.2649 -0.8255
  128MOL0     H17268  -0.530  10.787   5.151 -1.1532  0.8725  1.8095
  128MOL0     H17269  -0.507  10.821   4.977 -2.4256 -1.0203 -0.6022
  128MOL0     H17270  -0.740  10.771   5.024  2.5005 -1.2332  1.3531
  128MOL0     H17271  -0.720  10.930   4.953  0.9791  2.1941  0.3425
  128MOL0     H17272  -0.753  11.022   5.196  1.4763 -0.6354 -0.1149
  128MOL0     H17273  -0.756  10.866   5.264  2.7975 -1.2303 -1.1858
  128MOL0     H17274  -0.970  10.804   5.152  0.4096 -0.3935  1.1393
  128MOL0     H17275  -0.981  10.941   5.257  1.1436  1.9971 -0.0883
  128MOL0     H17276  -1.064  11.123   4.890 -1.0315 -0.2076  0.6229
  128MOL0     H17277  -0.399  11.219   5.166 -2.3962 -1.3647 -1.3047
  128MOL0     H17278  -0.217  11.389   5.144  2.4319 -0.3667 -2.0697
  128MOL0     H17279  -0.164  11.350   5.316  0.4324  0.0052  0.2497
  128MOL0     H17280  -0.055  11.368   5.187 -0.0418 -1.3274  0.8005
  129MOL0     O17281   7.708   0.982  10.217  0.3657 -0.0959  0.1163
  129MOL0     C17282   7.791   0.928  10.147  1.3531  0.1343  0.6833
  129MOL0     O17283   7.782   0.801  10.107  0.0794 -0.3684 -0.1720
  129MOL0     C17284   7.692   0.712  10.150  0.8670  1.1049 -1.0893
  129MOL0     C17285   7.636   0.617  10.058  0.2053 -0.1466  0.5461
  129MOL0     C17286   7.537   0.523  10.097 -0.0832 -0.3161 -0.6292
  129MOL0     C17287   7.501   0.520  10.240  0.6906  0.4690 -0.0752
  129MOL0     O17288   7.403   0.418  10.275  0.0310 -0.3851 -0.5316
  129MOL0     C17289   7.445   0.344  10.387  0.3269  0.4470 -0.5788
  129MOL0     C17290   7.370   0.371  10.531 -0.1158 -0.7042  0.4503
  129MOL0     C17291   7.213   0.373  10.506 -0.1155  0.3867 -0.1612
  129MOL0     C17292   7.182   0.232  10.472 -0.1814 -0.3752  0.2601
  129MOL0     C17293   7.031   0.199  10.479  0.6134 -0.8294 -0.0014
  129MOL0     C17294   6.984   0.053  10.469  0.2024 -0.4004 -0.1948
  129MOL0     C17295   6.831   0.059  10.508 -0.2181  0.3728 -0.1877
  129MOL0     C17296   6.772  -0.084  10.488  0.4039  0.2228  0.6764
  129MOL0     N17297   6.632  -0.104  10.540  0.2018 -0.1483  0.1541
  129MOL0     C17298   6.535  -0.009  10.523  0.2742  0.0954  0.0962
  129MOL0     C17299   6.429  -0.061  10.590  0.8668  0.4334 -0.3132
  129MOL0     C17300   6.293  -0.002  10.621 -0.7565  0.5234  0.5680
  129MOL0     C17301   6.203  -0.024  10.495  0.1270 -0.5522 -0.0333
  129MOL0     C17302   6.081   0.068  10.506 -0.2713  0.1835 -0.1268
  129MOL0     C17303   5.983   0.020  10.612 -0.2203 -0.0281 -0.4978
  129MOL0     O17304   5.865   0.100  10.618 -0.0501 -0.3821 -0.3926
  129MOL0     C17305   5.766   0.071  10.518  0.3416 -0.1656  0.1195
  129MOL0     C17306   5.768  -0.028  10.424  0.3013 -0.0928  0.1792
  129MOL0     C17307   5.662  -0.035  10.333  0.9639 -0.2247  0.6025
  129MOL0     C17308   5.549   0.054  10.341 -0.3558  0.2419 -0.6475
  129MOL0     C17309   5.440   0.041  10.235 -0.0878 -1.6436 -0.5308
  129MOL0     O17310   5.329   0.122  10.253  0.3647 -0.0610 -0.0014
  129MOL0     C17311   5.211   0.115  10.179 -0.2053  0.5259 -0.0467
  129MOL0     C17312   5.191   0.058  10.057  0.6487  0.1214 -1.3723
  129MOL0     C17313   5.066   0.077   9.997  0.1614  0.0242 -0.5561
  129MOL0     C17314   4.955   0.148  10.056 -0.3905 -0.2927  0.3535
  129MOL0     O17315   4.833   0.169   9.997  0.5040  0.6857 -0.7104
  129MOL0     C17316   4.823   0.142   9.856 -0.6196  0.2093  0.4271
  129MOL0     C17317   4.690   0.191   9.804 -0.2620 -0.0164 -0.1461
  129MOL0     C17318   4.600   0.098   9.715 -0.7670 -0.4792  0.4772
  129MOL0     C17319   4.454   0.138   9.716  0.7212  0.4347  1.4149
  129MOL0     C17320   4.386   0.087   9.588  0.3286  0.1878 -0.5899
  129MOL0     C17321   4.243   0.148   9.571  0.3123  0.1596 -0.3934
  129MOL0     C17322   4.249   0.303   9.567 -0.8497 -0.8026  0.0599
  129MOL0     C17323   4.109   0.366   9.531  0.0663 -0.0290  0.5593
  129MOL0    Cl17324   3.981   0.282   9.613 -0.2679 -0.5893 -0.1958
  129MOL0     C17325   4.985   0.201  10.182  0.5589 -0.6466  0.2158
  129MOL0     C17326   5.105   0.176  10.248  1.5145 -0.0829  0.2375
  129MOL0     O17327   5.462  -0.028  10.134  0.4602 -0.6342  0.9552
  129MOL0     C17328   5.557   0.152  10.438  0.4564 -0.5574  0.0077
  129MOL0     C17329   5.661   0.153  10.527  0.3178 -0.9542  0.5621
  129MOL0     N17330   6.459  -0.197  10.620 -0.2467  0.1446 -0.5226
  129MOL0     N17331   6.578  -0.219  10.588  0.2065  0.4799 -0.0010
  129MOL0     C17332   7.551   0.616  10.329  0.7679 -1.2285 -0.1453
  129MOL0     C17333   7.641   0.712  10.281  0.3019 -0.5130  1.1655
  129MOL0     C17334   7.894   1.007  10.086 -0.1422 -0.2561 -0.3302
  129MOL0     C17335   7.946   1.123  10.143 -0.7130  1.3533 -0.1094
  129MOL0     C17336   8.055   1.195  10.081 -0.4416  1.2310  0.1961
  129MOL0     C17337   8.119   1.142   9.975 -0.1015  0.5451  0.6050
  129MOL0     O17338   8.220   1.219   9.919 -0.3168 -0.0590  0.0440
  129MOL0     C17339   8.335   1.153   9.862  0.9031 -0.0866 -0.5757
  129MOL0     C17340   8.415   1.260   9.776  0.1412 -0.0021  0.8367
  129MOL0     C17341   8.495   1.337   9.874  0.4831 -0.2127 -0.7057
  129MOL0     C17342   8.591   1.437   9.804 -0.6681  0.7696 -0.1888
  129MOL0     C17343   8.724   1.383   9.755  0.4265 -0.6394  0.2993
  129MOL0     C17344   8.832   1.335   9.737  0.2273  0.7460  0.0478
  129MOL0     C17345   8.075   1.019   9.921  0.3016 -0.1887  0.0046
  129MOL0     C17346   7.958   0.959   9.961 -0.2512  0.0622 -0.2237
  129MOL0     C17347   7.928   0.833   9.872 -0.0567 -0.3128 -0.8319
  129MOL0     H17348   7.664   0.618   9.953 -0.1298 -0.3536  0.4555
  129MOL0     H17349   7.500   0.456  10.019 -3.8158  0.0115  0.6342
  129MOL0     H17350   7.430   0.242  10.351  2.1522  0.0839 -0.4121
  129MOL0     H17351   7.552   0.360  10.405  0.5165 -0.0015 -1.2777
  129MOL0     H17352   7.414   0.467  10.557  2.8217 -1.1025 -2.3785
  129MOL0     H17353   7.393   0.298  10.609 -1.2368  0.3647  1.8320
  129MOL0     H17354   7.179   0.426  10.417 -2.4790 -0.4972  0.1394
  129MOL0     H17355   7.163   0.410  10.596 -1.5382  0.2248 -0.8446
  129MOL0     H17356   7.215   0.208  10.370 -0.7239 -1.1841  0.2624
  129MOL0     H17357   7.230   0.165  10.544 -1.1086  0.6149  1.8696
  129MOL0     H17358   6.998   0.241  10.574  1.1788  0.5104 -0.3640
  129MOL0     H17359   6.981   0.252  10.397 -3.5682 -0.9731  2.1907
  129MOL0     H17360   7.001   0.017  10.367 -1.3390 -0.1227 -0.5879
  129MOL0     H17361   7.037  -0.003  10.546 -1.3788 -1.3879  0.2237
  129MOL0     H17362   6.761   0.118  10.448 -0.9840 -1.5645 -1.3189
  129MOL0     H17363   6.811   0.082  10.613 -0.7584 -0.4124 -0.1081
  129MOL0     H17364   6.766  -0.114  10.383  0.1527 -4.2250  1.7388
  129MOL0     H17365   6.837  -0.159  10.533  0.0109 -0.6073 -0.1012
  129MOL0     H17366   6.558   0.088  10.480  0.4552 -0.1498 -0.3595
  129MOL0     H17367   6.247  -0.065  10.698  0.5766 -0.3510  0.6829
  129MOL0     H17368   6.308   0.100  10.657  1.6982  0.2207  0.5798
  129MOL0     H17369   6.251   0.004  10.400 -0.6913  0.4145 -0.1856
  129MOL0     H17370   6.179  -0.130  10.485  0.7969 -0.6183 -1.0764
  129MOL0     H17371   6.035   0.073  10.407  3.1565  3.7499 -1.8397
  129MOL0     H17372   6.119   0.167  10.532  0.4863 -0.4843  1.4628
  129MOL0     H17373   6.035   0.024  10.708  0.1522  0.8929 -0.7232
  129MOL0     H17374   5.964  -0.087  10.602  5.3296 -1.8064  3.0761
  129MOL0     H17375   5.851  -0.097  10.407  0.9277  0.6070  0.3364
  129MOL0     H17376   5.662  -0.110  10.255 -2.8638 -0.8155  0.9898
  129MOL0     H17377   5.277   0.017  10.005  1.1417 -0.5829 -0.0595
  129MOL0     H17378   5.053   0.034   9.898 -0.9146 -1.9624  0.3937
  129MOL0     H17379   4.900   0.200   9.804 -0.5603  0.1955  0.4999
  129MOL0     H17380   4.823   0.035   9.832 -1.2487  0.5226 -1.0880
  129MOL0     H17381   4.627   0.210   9.891 -0.6887 -1.4448 -0.1165
  129MOL0     H17382   4.700   0.284   9.747 -3.2288  0.0304 -0.7621
  129MOL0     H17383   4.647   0.090   9.616  2.0964  4.5635  1.0999
  129MOL0     H17384   4.602   0.003   9.770 -2.0101  0.2973  1.9081
  129MOL0     H17385   4.460   0.246   9.706  1.0534  0.1793 -3.0222
  129MOL0     H17386   4.401   0.103   9.806 -0.5421 -1.1175  0.1316
  129MOL0     H17387   4.383  -0.022   9.591  1.5424 -0.0174 -3.3803
  129MOL0     H17388   4.440   0.118   9.498 -0.8275  1.9423 -0.7129
  129MOL0     H17389   4.185   0.109   9.486  0.5311  1.4811 -1.1778
  129MOL0     H17390   4.179   0.117   9.654 -0.1485 -1.4014 -1.2887
  129MOL0     H17391   4.320   0.343   9.494 -2.0367  2.2246  0.4409
  129MOL0     H17392   4.268   0.350   9.664  2.5495 -1.3907 -0.2099
  129MOL0     H17393   4.113   0.470   9.563 -0.9651 -0.2168  1.3446
  129MOL0     H17394   4.083   0.344   9.427 -1.6702  0.0113  0.9467
  129MOL0     H17395   4.916   0.268  10.232  1.2894  0.6535 -0.4917
  129MOL0     H17396   5.112   0.217  10.349  0.1597  1.2121 -0.1493
  129MOL0     H17397   5.480   0.228  10.427  0.5390 -0.6059 -1.0747
  129MOL0     H17398   5.664   0.236  10.597  3.6077 -1.4607  1.1671
  129MOL0     H17399   7.507   0.619  10.429 -1.2747  1.2552 -1.0065
  129MOL0     H17400   7.699   0.779  10.344  2.5302 -0.5085 -0.7522
  129MOL0     H17401   7.914   1.168  10.237 -0.4124 -1.2759  1.3365
  129MOL0     H17402   8.079   1.289  10.129  0.1507  3.5659 -4.2063
  129MOL0     H17403   8.306   1.070   9.798 -2.9499  1.4716 -1.1527
  129MOL0     H17404   8.397   1.125   9.947  2.3113  0.6808 -1.3122
  129MOL0     H17405   8.339   1.324   9.731 -1.0792  0.5839  3.5378
  129MOL0     H17406   8.471   1.212   9.695 -1.5765  0.8072 -0.9069
  129MOL0     H17407   8.561   1.272   9.933  3.9838  2.4328 -1.3414
  129MOL0     H17408   8.425   1.387   9.941  0.4446 -0.0417 -0.8724
  129MOL0     H17409   8.536   1.484   9.722 -1.3993 -0.3677 -0.3817
  129MOL0     H17410   8.612   1.499   9.891 -3.0025  0.0226  0.9869
  129MOL0     H17411   8.930   1.292   9.730 -0.7354 -1.7293  0.6105
  129MOL0     H17412   8.121   0.981   9.830 -0.2032  2.9688 -1.7378
  129MOL0     H17413   7.933   0.741   9.932 -0.2344  0.4850  0.4499
  129MOL0     H17414   7.825   0.848   9.838  0.2143  2.7243 -0.5423
  129MOL0     H17415   8.000   0.819   9.791  1.7105 -0.5690  0.7152
  130MOL0     O17416   8.975   3.153   6.844  0.2353 -0.9312 -0.3390
  130MOL0     C17417   8.970   3.275   6.855  0.3007 -0.0863 -0.7674
  130MOL0     O17418   8.972   3.349   6.981 -0.1490 -0.1829 -1.0793
  130MOL0     C17419   8.968   3.282   7.103 -0.3170  0.0234  0.4755
  130MOL0     C17420   9.060   3.188   7.138  0.8843  0.1804 -0.2697
  130MOL0     C17421   9.044   3.125   7.262  0.0462  0.1261 -0.1563
  130MOL0     C17422   8.932   3.147   7.344 -0.6522 -0.0867  0.6240
  130MOL0     O17423   8.899   3.086   7.460 -0.6122  0.6879 -0.4688
  130MOL0     C17424   8.995   3.008   7.525 -1.1603 -0.1738 -0.5350
  130MOL0     C17425   9.101   3.088   7.597 -0.1628 -0.3405  0.2881
  130MOL0     C17426   9.237   3.029   7.604 -0.6026 -0.0501 -0.7241
  130MOL0     C17427   9.240   2.908   7.700 -0.3506 -0.7556 -0.1583
  130MOL0     C17428   9.359   2.817   7.688  0.1773 -0.4310 -0.3499
  130MOL0     C17429   9.487   2.877   7.745  0.2208  1.0720  0.4255
  130MOL0     C17430   9.587   2.757   7.779 -0.2054  0.0264  0.5488
  130MOL0     C17431   9.735   2.816   7.808 -0.5618  0.3502  0.3417
  130MOL0     N17432   9.733   2.907   7.917  0.3505 -1.3221 -0.5274
  130MOL0     C17433   9.754   2.887   8.047 -0.1387 -0.8551 -0.5837
  130MOL0     C17434   9.760   3.006   8.100 -0.0911  0.1147  1.0742
  130MOL0     C17435   9.810   3.018   8.239 -0.2858 -0.6213  0.5334
  130MOL0     C17436   9.945   3.094   8.240 -0.8577  0.8133  0.0190
  130MOL0     C17437  10.055   2.999   8.211 -0.3533 -0.6597 -0.4767
  130MOL0     C17438  10.184   3.081   8.209  0.9602 -0.1876 -0.0533
  130MOL0     O17439  10.277   3.004   8.131  0.3313  0.0121  0.7904
  130MOL0     C17440  10.391   3.072   8.098 -0.2435  1.3097  0.3838
  130MOL0     C17441  10.432   3.193   8.155  0.9341  0.2881  0.1438
  130MOL0     C17442  10.547   3.252   8.117  0.2749  0.4177 -0.0736
  130MOL0     C17443  10.634   3.185   8.016 -0.1609 -0.0855 -0.4779
  130MOL0     C17444  10.756   3.249   7.978 -0.1865 -0.7914 -0.4164
  130MOL0     O17445  10.814   3.345   8.056 -0.2055  0.8406  0.5043
  130MOL0     C17446  10.951   3.367   8.033  0.0022  0.8222 -0.6413
  130MOL0     C17447  10.997   3.461   7.938  0.5395  0.0292 -0.4564
  130MOL0     C17448  11.133   3.490   7.930 -0.3414  1.2676  0.4664
  130MOL0     C17449  11.222   3.423   8.004  0.7457 -0.6072 -0.9504
  130MOL0     O17450  11.348   3.457   7.980  0.0410 -0.5546  0.1783
  130MOL0     C17451  11.463   3.395   8.044  0.0327 -0.4643  0.2471
  130MOL0     C17452  11.599   3.472   8.040  0.1846  0.1081  0.3391
  130MOL0     C17453  11.618   3.532   7.902  1.5400 -0.4426  0.0247
  130MOL0     C17454  11.745   3.609   7.875  0.1638 -0.8079  0.4145
  130MOL0     C17455  11.864   3.558   7.957  0.1768  0.5333  1.1638
  130MOL0     C17456  11.973   3.645   7.916 -0.3799 -0.4150 -0.0848
  130MOL0     C17457  12.097   3.604   7.995  0.5242  0.3237  0.5545
  130MOL0     C17458  12.198   3.712   7.997 -0.4641  0.1383 -0.0394
  130MOL0    Cl17459  12.365   3.664   8.035 -0.2256  0.1195  0.3225
  130MOL0     C17460  11.182   3.326   8.098  1.0358  0.3902  0.3149
  130MOL0     C17461  11.047   3.296   8.112 -0.7986  0.0654  0.1441
  130MOL0     O17462  10.811   3.195   7.886 -0.2717 -0.4601  0.6619
  130MOL0     C17463  10.583   3.072   7.955  0.1642 -0.4591  0.2720
  130MOL0     C17464  10.462   3.010   7.989 -0.6613 -0.3156  0.1369
  130MOL0     N17465   9.725   3.105   8.010 -0.0839 -0.1148  0.6555
  130MOL0     N17466   9.725   3.043   7.899 -0.3044  0.4843  0.0599
  130MOL0     C17467   8.839   3.238   7.302  0.9561  0.6441 -0.4146
  130MOL0     C17468   8.855   3.312   7.182  0.3435  0.4521 -0.3720
  130MOL0     C17469   8.977   3.362   6.741  0.7111  0.5689 -0.0764
  130MOL0     C17470   9.024   3.498   6.763 -0.6362  0.1782  0.0724
  130MOL0     C17471   9.037   3.583   6.654  0.0986 -0.1535  0.9103
  130MOL0     C17472   9.015   3.539   6.523 -0.1773 -0.0667  0.1291
  130MOL0     O17473   9.029   3.627   6.418  0.2467  0.2812 -0.0468
  130MOL0     C17474   9.086   3.582   6.304 -0.3189 -0.3670  0.5039
  130MOL0     C17475   9.141   3.694   6.219  0.3322 -0.7351 -0.6524
  130MOL0     C17476   9.028   3.798   6.187  0.0343 -0.6471  0.3150
  130MOL0     C17477   9.075   3.894   6.079  0.4541  0.0981  0.4837
  130MOL0     C17478   8.970   3.990   6.054  0.0808  0.3723 -0.0599
  130MOL0     C17479   8.876   4.062   6.042 -0.5327  0.1977 -0.0801
  130MOL0     C17480   8.980   3.403   6.501  0.1168 -0.0702 -0.0848
  130MOL0     C17481   8.950   3.313   6.610 -0.9179  0.1462  0.9853
  130MOL0     C17482   8.908   3.173   6.568 -0.5532  0.7541 -0.2241
  130MOL0     H17483   9.147   3.161   7.079 -1.9477 -2.5228 -3.6827
  130MOL0     H17484   9.115   3.044   7.280 -1.3216 -1.5616 -2.0196
  130MOL0     H17485   8.951   2.942   7.601  1.4791 -3.5308 -1.6824
  130MOL0     H17486   9.044   2.937   7.458  0.6848  1.3874 -0.9135
  130MOL0     H17487   9.056   3.129   7.688  0.0540 -0.6480  0.5365
  130MOL0     H17488   9.109   3.182   7.542 -0.2064 -0.0444  0.7827
  130MOL0     H17489   9.310   3.105   7.634 -0.5868 -0.4054  0.1495
  130MOL0     H17490   9.266   2.993   7.505 -1.1962 -1.0980 -0.5235
  130MOL0     H17491   9.233   2.950   7.801 -1.5954 -0.7084 -0.2451
  130MOL0     H17492   9.153   2.841   7.699  0.8146 -2.3153 -0.9325
  130MOL0     H17493   9.331   2.728   7.745  1.7892  0.4035  1.8970
  130MOL0     H17494   9.387   2.783   7.588  4.1556  2.0835 -0.3011
  130MOL0     H17495   9.522   2.943   7.666 -0.6814  2.0705  0.8360
  130MOL0     H17496   9.468   2.938   7.834  0.8321 -2.0289  2.8954
  130MOL0     H17497   9.594   2.677   7.705  3.4916  0.1563  0.5552
  130MOL0     H17498   9.557   2.715   7.875  0.7534 -0.5298  0.6285
  130MOL0     H17499   9.812   2.740   7.827  1.4181  2.2277  0.2650
  130MOL0     H17500   9.765   2.867   7.716 -0.0980  1.3756  1.0502
  130MOL0     H17501   9.763   2.789   8.094  0.4417 -0.8905 -0.7606
  130MOL0     H17502   9.738   3.083   8.290 -0.5125  0.9691 -1.6598
  130MOL0     H17503   9.812   2.924   8.295 -2.3051 -0.7902  0.4057
  130MOL0     H17504   9.939   3.178   8.170 -1.5382 -1.5236 -2.9379
  130MOL0     H17505   9.954   3.139   8.340  1.8762 -1.7037  1.0521
  130MOL0     H17506  10.035   2.944   8.119 -0.2762 -2.6577  0.6561
  130MOL0     H17507  10.076   2.927   8.290  0.1236  3.7084  3.8487
  130MOL0     H17508  10.215   3.092   8.313  1.4900 -1.7582 -0.0121
  130MOL0     H17509  10.166   3.177   8.159  1.8740  0.2087  0.3605
  130MOL0     H17510  10.365   3.242   8.226  0.4593  0.0994 -0.1675
  130MOL0     H17511  10.573   3.348   8.160  1.0089 -0.0962  0.6566
  130MOL0     H17512  10.921   3.512   7.879 -0.7336 -2.6794 -1.3498
  130MOL0     H17513  11.177   3.547   7.848 -1.1680 -0.5145 -1.2989
  130MOL0     H17514  11.446   3.389   8.152  1.7380  1.2021  0.6683
  130MOL0     H17515  11.470   3.298   7.995 -0.4878  0.6940 -2.2977
  130MOL0     H17516  11.612   3.554   8.111  2.2172  1.3657 -1.3539
  130MOL0     H17517  11.679   3.402   8.068  0.0506 -0.1522  0.0819
  130MOL0     H17518  11.609   3.446   7.835 -0.2335 -0.1662 -0.1462
  130MOL0     H17519  11.536   3.598   7.873 -0.0344 -1.6046  1.5974
  130MOL0     H17520  11.741   3.710   7.918  1.2732 -1.0941  1.2325
  130MOL0     H17521  11.767   3.619   7.769  2.9407  0.1635  0.9966
  130MOL0     H17522  11.879   3.450   7.943 -1.0081  0.3814  0.9147
  130MOL0     H17523  11.842   3.569   8.064  0.5244  1.0072  1.1878
  130MOL0     H17524  11.993   3.644   7.808  2.2243  0.0243  0.3364
  130MOL0     H17525  11.948   3.749   7.940  3.3392  0.2140  1.7344
  130MOL0     H17526  12.133   3.514   7.946 -0.0742  0.6884 -0.5906
  130MOL0     H17527  12.069   3.581   8.098  0.8456 -1.0360  0.3477
  130MOL0     H17528  12.193   3.747   7.893 -2.4881  0.9643  0.2858
  130MOL0     H17529  12.172   3.791   8.068  1.9106 -0.1824  1.2920
  130MOL0     H17530  11.262   3.279   8.155 -0.0177 -2.2439 -0.2266
  130MOL0     H17531  11.005   3.218   8.175 -0.5669 -0.1471  0.0404
  130MOL0     H17532  10.644   3.029   7.876 -0.9338 -0.7186 -0.4578
  130MOL0     H17533  10.420   2.915   7.956  0.0097 -1.2435  1.8203
  130MOL0     H17534   8.753   3.248   7.368  0.4228 -0.7343 -0.8616
  130MOL0     H17535   8.786   3.389   7.151 -1.1445 -0.7062 -0.0494
  130MOL0     H17536   9.043   3.538   6.862  0.4157 -0.4501  0.1368
  130MOL0     H17537   9.064   3.688   6.666  1.4622 -0.5642  1.6121
  130MOL0     H17538   9.018   3.527   6.238 -0.3491  1.4756 -1.1134
  130MOL0     H17539   9.177   3.529   6.336  0.9020  1.8156  0.8173
  130MOL0     H17540   9.189   3.648   6.132 -0.5134 -1.5151 -0.7176
  130MOL0     H17541   9.218   3.750   6.273 -1.3035  1.8676 -0.8487
  130MOL0     H17542   9.002   3.849   6.281  1.2560  2.2401 -0.8077
  130MOL0     H17543   8.934   3.754   6.151 -0.1217 -1.7904  1.9608
  130MOL0     H17544   9.157   3.959   6.113 -0.5604  2.6398 -1.6059
  130MOL0     H17545   9.101   3.846   5.984  3.5728  2.1303  0.1458
  130MOL0     H17546   8.811   4.145   6.021  1.7725  1.7033 -1.7724
  130MOL0     H17547   8.963   3.357   6.404 -1.8831  2.2746 -0.9564
  130MOL0     H17548   8.988   3.099   6.579  0.0864  1.1610 -1.8695
  130MOL0     H17549   8.827   3.143   6.636 -0.3324  1.6371  0.4518
  130MOL0     H17550   8.868   3.171   6.466 -1.1747 -0.1966  0.0220
  131MOL0     O17551   1.380   8.349  10.565  0.5070  0.1645  0.3161
  131MOL0     C17552   1.367   8.247  10.500 -0.3963 -0.7624  0.3664
  131MOL0     O17553   1.254   8.197  10.469 -0.2250  0.3128 -0.6019
  131MOL0     C17554   1.138   8.273  10.483 -0.0294 -0.6022  0.9454
  131MOL0     C17555   1.113   8.385  10.396 -0.3406 -0.5138  0.5970
  131MOL0     C17556   0.989   8.450  10.392 -0.1943  0.3591  0.1718
  131MOL0     C17557   0.886   8.416  10.483  0.2586  0.5052  0.7274
  131MOL0     O17558   0.770   8.480  10.486 -0.1497  0.1445  0.3866
  131MOL0     C17559   0.748   8.612  10.434  0.0090 -0.1388 -0.9826
  131MOL0     C17560   0.646   8.668  10.515 -0.1409  0.8280 -0.3779
  131MOL0     C17561   0.511   8.592  10.488  0.1250 -0.5784 -0.1847
  131MOL0     C17562   0.394   8.666  10.548  0.3918 -0.4174 -0.3144
  131MOL0     C17563   0.256   8.598  10.496 -0.5056  0.8023  0.4998
  131MOL0     C17564   0.123   8.670  10.521 -0.3212  0.4180 -0.0861
  131MOL0     C17565   0.001   8.582  10.478  0.2640  0.8589  0.1872
  131MOL0     C17566  -0.118   8.578  10.581 -0.8024 -0.8797 -0.6775
  131MOL0     N17567  -0.229   8.484  10.563 -0.1407 -0.4252  0.9182
  131MOL0     C17568  -0.270   8.430  10.448 -0.3791 -0.0701 -0.6149
  131MOL0     C17569  -0.364   8.340  10.486 -0.0214  0.8762  0.0722
  131MOL0     C17570  -0.469   8.257  10.405 -0.1528 -0.3547  0.4570
  131MOL0     C17571  -0.450   8.110  10.418 -0.3653  0.2406  0.1686
  131MOL0     C17572  -0.528   8.026  10.307  0.1282  0.5565  0.1766
  131MOL0     C17573  -0.470   7.882  10.293 -0.6571  0.1464 -0.7143
  131MOL0     O17574  -0.542   7.813  10.393  0.0476  0.2989  0.4088
  131MOL0     C17575  -0.572   7.684  10.344  0.0188 -0.1936  0.1406
  131MOL0     C17576  -0.473   7.610  10.280 -0.4064 -0.2976  0.0079
  131MOL0     C17577  -0.507   7.481  10.236  0.7971  0.2365 -0.4692
  131MOL0     C17578  -0.634   7.423  10.267  1.1665  0.0024  0.7601
  131MOL0     C17579  -0.671   7.285  10.230 -0.6772 -0.8819  0.8962
  131MOL0     O17580  -0.562   7.216  10.179  0.3420  0.3049 -0.3656
  131MOL0     C17581  -0.599   7.088  10.141  0.7874  0.2328 -0.3841
  131MOL0     C17582  -0.638   6.990  10.227 -0.6902 -0.4891 -0.0055
  131MOL0     C17583  -0.681   6.860  10.180 -0.6157 -0.0374 -0.6981
  131MOL0     C17584  -0.664   6.831  10.042  0.8122  0.2537  1.0377
  131MOL0     O17585  -0.700   6.719   9.979 -0.0139  0.1065 -0.1742
  131MOL0     C17586  -0.657   6.589  10.031 -0.3107 -0.3198  0.7268
  131MOL0     C17587  -0.702   6.480   9.945 -0.6080  0.0642 -0.5027
  131MOL0     C17588  -0.623   6.348   9.968  0.0273  1.0845 -0.5549
  131MOL0     C17589  -0.483   6.348   9.904 -0.2841 -0.3466 -0.0025
  131MOL0     C17590  -0.415   6.211   9.924  0.1010 -0.3584  0.8655
  131MOL0     C17591  -0.275   6.207   9.862 -0.4823 -0.0386  0.3740
  131MOL0     C17592  -0.210   6.066   9.884 -0.2377 -0.4839 -0.2856
  131MOL0     C17593  -0.099   6.049   9.782 -0.1779  1.1549 -0.6488
  131MOL0    Cl17594   0.018   5.914   9.819 -0.0196 -0.7520  0.1195
  131MOL0     C17595  -0.649   6.945   9.956 -0.2502  1.2613  0.4592
  131MOL0     C17596  -0.608   7.068  10.006 -0.1883 -0.3044  0.2738
  131MOL0     O17597  -0.784   7.251  10.234  0.4328 -0.5619  0.2457
  131MOL0     C17598  -0.738   7.499  10.327  1.1985 -0.3443  0.4972
  131MOL0     C17599  -0.701   7.626  10.357 -0.0742 -0.8014 -0.0263
  131MOL0     N17600  -0.382   8.345  10.628 -0.2893  0.5713 -0.2041
  131MOL0     N17601  -0.300   8.431  10.663 -0.1727 -0.4372  0.3123
  131MOL0     C17602   0.921   8.312  10.569 -0.0947 -0.4500 -0.2095
  131MOL0     C17603   1.040   8.240  10.571 -0.7828  0.4076  0.1630
  131MOL0     C17604   1.489   8.168  10.452 -0.3898  0.1592 -1.1277
  131MOL0     C17605   1.471   8.066  10.362  0.5620  0.7714  0.1978
  131MOL0     C17606   1.586   7.999  10.311 -0.0686  1.1743 -0.2631
  131MOL0     C17607   1.714   8.015  10.365 -0.7063 -0.4126  0.1923
  131MOL0     O17608   1.829   7.957  10.321 -0.6821 -0.2530 -0.6424
  131MOL0     C17609   1.830   7.879  10.204  0.4465 -0.7712 -0.2644
  131MOL0     C17610   1.765   7.739  10.227 -0.1094 -0.3105  0.1250
  131MOL0     C17611   1.816   7.665  10.354  0.1018 -0.7430 -1.0537
  131MOL0     C17612   1.773   7.527  10.337 -0.1816  0.0622  0.7422
  131MOL0     C17613   1.840   7.429  10.423  0.0926 -0.7307 -0.5306
  131MOL0     C17614   1.884   7.358  10.511  0.0484  0.2596  0.2235
  131MOL0     C17615   1.733   8.109  10.463  0.5228 -0.3739 -0.2071
  131MOL0     C17616   1.621   8.190  10.509 -0.1613 -0.1640 -0.1239
  131MOL0     C17617   1.651   8.297  10.612 -0.4828  0.5164  0.1418
  131MOL0     H17618   1.191   8.399  10.322  0.0227  2.0678  1.3646
  131MOL0     H17619   0.974   8.529  10.319  0.4513 -1.2487 -1.8110
  131MOL0     H17620   0.836   8.675  10.445 -0.4065  0.2082  0.6305
  131MOL0     H17621   0.735   8.606  10.325 -0.0754  1.6573 -1.1098
  131MOL0     H17622   0.636   8.773  10.489  0.3058  0.6637 -1.2470
  131MOL0     H17623   0.680   8.654  10.618  1.8958 -1.6264 -1.2600
  131MOL0     H17624   0.518   8.493  10.536  0.4941 -0.1609  0.6543
  131MOL0     H17625   0.496   8.577  10.381 -1.0393  1.7771 -0.3958
  131MOL0     H17626   0.384   8.680  10.656 -2.2238  0.4764 -0.6162
  131MOL0     H17627   0.385   8.766  10.505  0.0328 -1.8509 -3.9561
  131MOL0     H17628   0.260   8.570  10.390 -2.4065  0.4477  0.4950
  131MOL0     H17629   0.246   8.503  10.549 -1.0199  0.6100  0.0608
  131MOL0     H17630   0.108   8.684  10.628 -0.5365  1.0280 -0.1946
  131MOL0     H17631   0.128   8.766  10.469  2.1415  0.4049  0.0136
  131MOL0     H17632   0.030   8.477  10.479 -0.4211  0.6670  0.9570
  131MOL0     H17633  -0.032   8.613  10.378  0.5438  1.2613  0.2170
  131MOL0     H17634  -0.076   8.545  10.677 -0.4537 -1.9119 -1.1772
  131MOL0     H17635  -0.161   8.679  10.590  1.1154 -0.0861  0.2608
  131MOL0     H17636  -0.234   8.470  10.354 -1.1801  1.8544 -0.1509
  131MOL0     H17637  -0.563   8.277  10.456  1.9032  1.1607  4.0774
  131MOL0     H17638  -0.469   8.282  10.298 -2.1567 -1.6025  0.1290
  131MOL0     H17639  -0.347   8.075  10.407 -0.6646 -1.3493  1.9091
  131MOL0     H17640  -0.483   8.075  10.516 -1.9184 -2.3206 -1.1308
  131MOL0     H17641  -0.505   8.065  10.208  2.0153 -2.2397 -0.5987
  131MOL0     H17642  -0.636   8.017  10.325  0.0310 -3.0446 -1.3365
  131MOL0     H17643  -0.361   7.878  10.305 -0.6111  0.0636 -1.1648
  131MOL0     H17644  -0.483   7.842  10.192 -1.0260 -0.9169 -0.2597
  131MOL0     H17645  -0.372   7.647  10.282 -0.9644  1.4204  2.9129
  131MOL0     H17646  -0.438   7.425  10.174 -0.0877  1.4751 -2.6714
  131MOL0     H17647  -0.640   7.006  10.335 -0.4696  1.1089 -0.2152
  131MOL0     H17648  -0.701   6.773  10.242  3.1279  0.3037  1.3267
  131MOL0     H17649  -0.549   6.604  10.039 -0.2845  2.5316 -2.5720
  131MOL0     H17650  -0.684   6.585  10.137  0.4457 -2.7354  0.8855
  131MOL0     H17651  -0.809   6.467   9.961 -0.2556 -2.5402  0.1620
  131MOL0     H17652  -0.677   6.508   9.843  1.8526 -0.7909 -0.1886
  131MOL0     H17653  -0.606   6.322  10.073 -0.9936 -1.5541 -0.9543
  131MOL0     H17654  -0.684   6.262   9.938  0.4577  0.0920  1.2728
  131MOL0     H17655  -0.408   6.420   9.938  1.0504 -1.3418 -0.7512
  131MOL0     H17656  -0.500   6.378   9.800 -0.3455  0.3964  0.2179
  131MOL0     H17657  -0.478   6.137   9.874 -1.6513  0.5835  1.5853
  131MOL0     H17658  -0.401   6.207  10.032 -0.9372 -2.7477  0.9544
  131MOL0     H17659  -0.278   6.239   9.758 -1.5492  0.8125  0.6437
  131MOL0     H17660  -0.220   6.279   9.924 -2.2930 -0.1785  2.2856
  131MOL0     H17661  -0.282   5.984   9.875  0.8357 -1.9140  2.7981
  131MOL0     H17662  -0.164   6.045   9.981  0.9308 -1.6576 -1.0604
  131MOL0     H17663  -0.142   6.036   9.682  0.5786 -1.9434 -0.6882
  131MOL0     H17664  -0.047   6.144   9.770  0.2213  1.0309  0.0339
  131MOL0     H17665  -0.656   6.923   9.850  1.3135  0.7157  0.4409
  131MOL0     H17666  -0.584   7.149   9.938 -0.6772  1.2282  1.8604
  131MOL0     H17667  -0.840   7.470  10.351  0.4299  0.1266 -1.9196
  131MOL0     H17668  -0.774   7.687  10.410  0.1743 -0.6158  0.1078
  131MOL0     H17669   0.846   8.286  10.643  2.4691  1.8547  3.5191
  131MOL0     H17670   1.060   8.160  10.641  2.1827 -0.5552 -1.5943
  131MOL0     H17671   1.369   8.037  10.339  0.3962 -0.5543  2.3625
  131MOL0     H17672   1.570   7.925  10.234  2.1455  3.6034 -3.2936
  131MOL0     H17673   1.937   7.867  10.182  1.2213  3.0455  0.7171
  131MOL0     H17674   1.776   7.943  10.134 -0.5469 -2.4682 -1.1028
  131MOL0     H17675   1.791   7.673  10.144  0.3617 -0.8569  0.6913
  131MOL0     H17676   1.657   7.741  10.242  0.0209  1.2647  1.1294
  131MOL0     H17677   1.771   7.709  10.444  0.2140  1.3814 -1.9662
  131MOL0     H17678   1.925   7.667  10.365  0.1558  1.1187 -1.5191
  131MOL0     H17679   1.665   7.522  10.359 -0.7933 -1.5949 -2.2254
  131MOL0     H17680   1.796   7.496  10.235  2.3191  3.0408  0.2317
  131MOL0     H17681   1.932   7.285  10.573  0.4694 -2.5306 -3.0817
  131MOL0     H17682   1.835   8.111  10.499  0.9117 -0.5617 -1.2459
  131MOL0     H17683   1.746   8.282  10.663 -0.3289 -0.1595 -0.3236
  131MOL0     H17684   1.641   8.397  10.568  1.1040  0.4925 -0.3364
  131MOL0     H17685   1.582   8.282  10.695 -1.3315 -0.2111 -0.6632
  132MOL0     O17686   5.748   0.652   9.236 -0.0788 -0.2968  0.3931
  132MOL0     C17687   5.629   0.678   9.246  0.4025  0.4388  0.0411
  132MOL0     O17688   5.574   0.803   9.231 -0.0773  0.5450  0.5147
  132MOL0     C17689   5.561   0.833   9.103  0.2967 -0.6396  0.6930
  132MOL0     C17690   5.513   0.963   9.077  0.4310 -0.7532 -0.0479
  132MOL0     C17691   5.491   1.002   8.938  0.3095 -0.3105 -0.6844
  132MOL0     C17692   5.507   0.916   8.826 -0.4523 -0.3157  0.6378
  132MOL0     O17693   5.487   0.949   8.696  0.6479  0.1804  0.3955
  132MOL0     C17694   5.350   0.982   8.651 -0.2824 -0.1515  0.2116
  132MOL0     C17695   5.249   0.876   8.694  0.1568  0.1474 -0.3349
  132MOL0     C17696   5.105   0.930   8.657 -0.0232 -0.4698 -0.0125
  132MOL0     C17697   5.062   1.066   8.707 -0.4443 -0.3695 -0.7600
  132MOL0     C17698   4.911   1.071   8.745  0.1677 -0.6411 -0.4988
  132MOL0     C17699   4.881   1.203   8.818 -0.5808  0.2436 -0.6933
  132MOL0     C17700   4.729   1.223   8.866 -0.2607 -0.7436 -0.7741
  132MOL0     C17701   4.701   1.350   8.943 -0.8821 -0.1988  0.5048
  132MOL0     N17702   4.796   1.460   8.911 -0.0831 -0.3961  0.1116
  132MOL0     C17703   4.791   1.536   8.795 -1.0239 -0.3724 -0.5046
  132MOL0     C17704   4.869   1.646   8.811  0.1294 -0.2428  0.1624
  132MOL0     C17705   4.917   1.757   8.718 -0.6853 -0.2588  0.7500
  132MOL0     C17706   5.040   1.691   8.650 -0.1948  0.0039 -0.4778
  132MOL0     C17707   5.099   1.782   8.552  0.0190  0.5135 -0.8383
  132MOL0     C17708   5.245   1.742   8.545 -0.0211  0.0515 -0.0069
  132MOL0     O17709   5.303   1.831   8.459  0.3038 -0.1232  1.1486
  132MOL0     C17710   5.432   1.854   8.448 -0.2810  0.2396  0.3161
  132MOL0     C17711   5.534   1.771   8.488  0.0888 -0.7100  0.3713
  132MOL0     C17712   5.665   1.807   8.489  0.8518  0.3891  0.0667
  132MOL0     C17713   5.706   1.935   8.447  0.5912 -1.2263 -0.4290
  132MOL0     C17714   5.850   1.971   8.441  0.1985  1.0552 -0.2334
  132MOL0     O17715   5.946   1.871   8.458  0.4665 -0.5838  0.1021
  132MOL0     C17716   6.075   1.907   8.445 -0.3513  0.4945  0.0484
  132MOL0     C17717   6.159   1.819   8.387 -0.3692 -0.6270  0.8228
  132MOL0     C17718   6.286   1.849   8.371  0.1639 -1.0449 -0.2803
  132MOL0     C17719   6.345   1.964   8.421  1.2966 -0.2312  0.2629
  132MOL0     O17720   6.479   1.970   8.427 -0.0816  0.3464 -0.2981
  132MOL0     C17721   6.543   1.992   8.552 -0.2406 -0.7563  0.1627
  132MOL0     C17722   6.699   1.967   8.534  0.2167  0.8936  0.0301
  132MOL0     C17723   6.776   1.964   8.666 -0.1225  0.3152 -0.7772
  132MOL0     C17724   6.912   2.034   8.654 -0.8380 -0.3944  1.0927
  132MOL0     C17725   6.988   2.030   8.795  0.1160 -0.4162 -0.0266
  132MOL0     C17726   7.127   2.106   8.788 -0.1931  0.6403 -0.6601
  132MOL0     C17727   7.188   2.150   8.924  0.4375 -0.4469 -0.2244
  132MOL0     C17728   7.220   2.046   9.033  0.8740 -0.4070 -0.0024
  132MOL0    Cl17729   7.074   1.987   9.105 -0.1074 -0.1012 -0.1509
  132MOL0     C17730   6.265   2.058   8.488  1.5961  0.5344  0.0659
  132MOL0     C17731   6.131   2.021   8.501 -0.3853 -0.6126  0.2785
  132MOL0     O17732   5.870   2.094   8.410 -0.6052 -0.1480  0.1304
  132MOL0     C17733   5.599   2.015   8.390 -0.1562  0.4250 -0.5716
  132MOL0     C17734   5.465   1.979   8.403 -0.8734 -0.4453  0.4131
  132MOL0     N17735   4.936   1.619   8.934 -0.7582  0.1680  0.1758
  132MOL0     N17736   4.891   1.513   8.993  0.2397  0.0030 -0.0346
  132MOL0     C17737   5.558   0.787   8.853  0.3648  0.3110 -0.1553
  132MOL0     C17738   5.585   0.752   8.985  0.1276  0.1183 -0.2571
  132MOL0     C17739   5.525   0.576   9.294 -0.5635 -0.7606 -0.2925
  132MOL0     C17740   5.391   0.611   9.312 -0.2175  0.0396  0.4516
  132MOL0     C17741   5.299   0.527   9.357  0.0421 -0.2197 -0.4836
  132MOL0     C17742   5.328   0.395   9.387 -0.0598  0.0590  0.5038
  132MOL0     O17743   5.222   0.320   9.427 -0.1302 -0.0253 -0.3981
  132MOL0     C17744   5.234   0.179   9.423 -0.1192  0.3216 -0.8064
  132MOL0     C17745   5.102   0.112   9.466 -0.0289 -0.1345  0.0508
  132MOL0     C17746   4.994   0.134   9.365 -0.2916  0.1150  0.7600
  132MOL0     C17747   4.867   0.086   9.441  0.4280  0.1644 -0.3275
  132MOL0     C17748   4.745   0.122   9.364 -0.2710  0.5449 -0.0143
  132MOL0     C17749   4.649   0.141   9.291 -0.0875  0.1304 -0.1978
  132MOL0     C17750   5.461   0.355   9.362 -0.1977  0.9356  0.4016
  132MOL0     C17751   5.562   0.440   9.322  1.0277 -0.5328 -0.3856
  132MOL0     C17752   5.694   0.384   9.292 -0.0225 -0.2558  0.1593
  132MOL0     H17753   5.491   1.033   9.157 -1.1959 -0.0062 -1.0836
  132MOL0     H17754   5.460   1.103   8.913  1.5910  1.3579  3.6761
  132MOL0     H17755   5.325   1.072   8.708 -1.3780 -1.3486  1.7269
  132MOL0     H17756   5.347   0.996   8.543 -3.2641 -0.9646  0.1180
  132MOL0     H17757   5.252   0.860   8.802  0.8677  0.6262 -0.2761
  132MOL0     H17758   5.264   0.774   8.659 -1.3068 -0.2478  0.1328
  132MOL0     H17759   5.036   0.855   8.697 -1.5598  0.3556 -0.9846
  132MOL0     H17760   5.087   0.925   8.549  3.0551  2.7525 -0.8506
  132MOL0     H17761   5.113   1.083   8.802 -0.5770  1.0861 -0.9330
  132MOL0     H17762   5.092   1.146   8.639  0.6963  2.4212  2.7050
  132MOL0     H17763   4.843   1.051   8.661 -0.5452  1.2556 -0.4086
  132MOL0     H17764   4.895   0.981   8.805  0.0424  0.2057  0.7683
  132MOL0     H17765   4.945   1.207   8.906 -0.5638  2.1201 -0.7536
  132MOL0     H17766   4.913   1.286   8.755  0.5514  1.0321  0.8613
  132MOL0     H17767   4.697   1.137   8.925 -1.1763 -0.3848 -0.7271
  132MOL0     H17768   4.661   1.227   8.780 -2.8126 -2.4691  1.0192
  132MOL0     H17769   4.596   1.372   8.923 -0.6089  0.1585 -0.5766
  132MOL0     H17770   4.705   1.329   9.050  1.0417 -1.3920  0.2393
  132MOL0     H17771   4.741   1.517   8.700  2.1004  0.7444 -2.5166
  132MOL0     H17772   4.836   1.770   8.645 -2.7238 -0.7712  2.8035
  132MOL0     H17773   4.925   1.845   8.782  0.3586 -0.7849  1.3730
  132MOL0     H17774   5.107   1.676   8.735 -0.4647  1.0710 -0.0574
  132MOL0     H17775   5.031   1.594   8.601 -0.4102 -1.9977  3.1984
  132MOL0     H17776   5.093   1.886   8.585  1.3879  0.0543  0.9636
  132MOL0     H17777   5.053   1.772   8.453 -2.0719  1.2789 -0.0042
  132MOL0     H17778   5.258   1.637   8.520  1.4094  0.1718  0.1724
  132MOL0     H17779   5.291   1.755   8.643 -0.7344  0.4986  0.2762
  132MOL0     H17780   5.501   1.687   8.549  0.2771 -2.3665 -1.6898
  132MOL0     H17781   5.733   1.730   8.525 -1.3275 -2.6096 -1.7300
  132MOL0     H17782   6.127   1.723   8.348  1.9509 -1.2592  0.2999
  132MOL0     H17783   6.348   1.766   8.338 -0.0840 -1.5573  0.5133
  132MOL0     H17784   6.532   2.095   8.589  1.0309  0.0370 -1.5217
  132MOL0     H17785   6.492   1.927   8.623 -6.7151  1.9788 -1.2538
  132MOL0     H17786   6.722   1.870   8.489  0.9235  1.4542 -0.8649
  132MOL0     H17787   6.736   2.047   8.470  3.1023 -0.5176 -0.2523
  132MOL0     H17788   6.716   2.010   8.745  0.8346 -1.5187  1.1068
  132MOL0     H17789   6.790   1.863   8.705  4.2033  1.4163  1.0070
  132MOL0     H17790   6.898   2.140   8.629 -1.1260 -0.8473 -0.7913
  132MOL0     H17791   6.979   1.989   8.581  0.5406  0.2095  1.9558
  132MOL0     H17792   7.000   1.924   8.819 -0.1252 -0.8184 -1.5908
  132MOL0     H17793   6.920   2.085   8.861  1.4257  1.9255 -0.4945
  132MOL0     H17794   7.198   2.045   8.731  3.4810 -1.3265  5.1194
  132MOL0     H17795   7.093   2.193   8.732 -3.1996 -0.0473 -0.0927
  132MOL0     H17796   7.127   2.234   8.957  0.5621 -0.1254 -0.7954
  132MOL0     H17797   7.290   2.183   8.902 -0.4920  1.5141 -1.9353
  132MOL0     H17798   7.287   1.969   8.994  1.0962  0.8147 -2.2152
  132MOL0     H17799   7.279   2.101   9.107  1.4704  0.5118 -1.1356
  132MOL0     H17800   6.312   2.137   8.546  1.8535 -0.1594  0.8266
  132MOL0     H17801   6.063   2.074   8.567  1.2670  1.1569  0.6350
  132MOL0     H17802   5.629   2.105   8.335 -1.4411 -0.3552 -2.6808
  132MOL0     H17803   5.383   2.037   8.363  1.1354  1.2007 -1.6024
  132MOL0     H17804   5.588   0.725   8.769 -0.7351 -1.9495  1.0596
  132MOL0     H17805   5.631   0.655   8.998  1.0756  0.8505  2.4931
  132MOL0     H17806   5.368   0.716   9.296 -0.0084  0.5404  3.0445
  132MOL0     H17807   5.194   0.549   9.373  0.5658  1.1365  1.4502
  132MOL0     H17808   5.312   0.145   9.491 -2.5834 -1.9523  1.0722
  132MOL0     H17809   5.255   0.143   9.322  0.2463 -3.4446  0.4712
  132MOL0     H17810   5.067   0.151   9.562  1.4113  0.2914  0.4303
  132MOL0     H17811   5.113   0.003   9.468 -0.8638 -0.2782 -1.3616
  132MOL0     H17812   5.023   0.077   9.276  4.8619  1.0865  1.4776
  132MOL0     H17813   4.978   0.239   9.339 -0.7735 -0.0314  0.4576
  132MOL0     H17814   4.880  -0.021   9.456 -0.0046  0.2863  1.0329
  132MOL0     H17815   4.845   0.136   9.536  1.0777 -0.2652  0.0590
  132MOL0     H17816   4.564   0.169   9.232  1.4713  1.2704 -2.0337
  132MOL0     H17817   5.493   0.252   9.376 -0.9317  0.4033 -1.5999
  132MOL0     H17818   5.697   0.359   9.186  2.3871  0.8722 -0.0973
  132MOL0     H17819   5.777   0.449   9.319  0.4816 -0.3641 -1.0911
  132MOL0     H17820   5.706   0.290   9.347  1.2922  1.8447  3.8582
  133MOL0     O17821   2.365   3.599   5.608 -0.5954 -0.3651 -0.3939
  133MOL0     C17822   2.356   3.635   5.726 -0.5133  0.1380  0.4601
  133MOL0     O17823   2.457   3.696   5.792 -0.5958 -0.0970 -0.0630
  133MOL0     C17824   2.583   3.683   5.750  0.5079 -0.0729 -1.3948
  133MOL0     C17825   2.662   3.797   5.738 -0.3494  0.4244 -0.5724
  133MOL0     C17826   2.794   3.785   5.704  0.7947 -0.1373 -0.0100
  133MOL0     C17827   2.850   3.668   5.669 -0.6843  0.9383  0.2351
  133MOL0     O17828   2.988   3.666   5.636 -0.5567 -0.1566 -0.5175
  133MOL0     C17829   3.051   3.542   5.592 -0.5891 -0.1580 -0.0798
  133MOL0     C17830   3.196   3.565   5.556 -0.4513 -0.1462 -0.5154
  133MOL0     C17831   3.275   3.601   5.680 -0.7568  0.8012  0.2660
  133MOL0     C17832   3.429   3.618   5.656  0.7735  0.2107 -0.3094
  133MOL0     C17833   3.505   3.686   5.772  0.0016  0.8581 -0.3021
  133MOL0     C17834   3.609   3.790   5.727 -0.3271 -1.0897 -0.2585
  133MOL0     C17835   3.722   3.824   5.833 -0.3438  0.1151  1.1842
  133MOL0     C17836   3.659   3.891   5.956 -0.3993  0.4467 -0.4067
  133MOL0     N17837   3.734   3.867   6.081  0.9949 -0.8163 -0.0734
  133MOL0     C17838   3.661   3.841   6.197 -0.2035 -0.5331 -0.2414
  133MOL0     C17839   3.752   3.854   6.290  1.0068  0.4608 -0.0768
  133MOL0     C17840   3.708   3.840   6.434 -0.4158 -0.1385 -0.0058
  133MOL0     C17841   3.682   3.974   6.506  0.4363  0.1072 -0.6105
  133MOL0     C17842   3.801   4.060   6.515 -0.7244  0.3020 -0.7633
  133MOL0     C17843   3.908   4.012   6.615 -0.2175 -0.7067 -0.1523
  133MOL0     O17844   4.029   4.082   6.610  0.4024  0.3066 -0.0313
  133MOL0     C17845   4.138   4.028   6.545  0.1127 -0.1324 -0.7972
  133MOL0     C17846   4.253   4.067   6.615 -0.7647  1.3193 -0.4613
  133MOL0     C17847   4.369   3.995   6.590  0.4310  0.6357 -0.6518
  133MOL0     C17848   4.374   3.901   6.484  0.3844 -0.2501 -0.3747
  133MOL0     C17849   4.507   3.845   6.447 -0.0983 -0.1377  0.8208
  133MOL0     O17850   4.632   3.908   6.495  0.4163  0.6363  0.2627
  133MOL0     C17851   4.754   3.846   6.498 -0.1436 -1.1469 -0.5601
  133MOL0     C17852   4.792   3.737   6.423 -0.8059  0.0405 -0.9270
  133MOL0     C17853   4.919   3.684   6.446  0.6203  0.0607  0.7453
  133MOL0     C17854   5.016   3.750   6.517  0.5198  0.2665 -0.9889
  133MOL0     O17855   5.143   3.700   6.521 -0.2287  0.8464 -0.2029
  133MOL0     C17856   5.164   3.621   6.641  0.2449  0.2442  0.1954
  133MOL0     C17857   5.311   3.589   6.673 -1.5707  0.6731 -0.5362
  133MOL0     C17858   5.384   3.728   6.678 -0.3793  0.2544 -0.0247
  133MOL0     C17859   5.534   3.705   6.675 -0.0600  0.8197 -0.5407
  133MOL0     C17860   5.593   3.841   6.703  0.1371 -0.4151  0.0108
  133MOL0     C17861   5.737   3.841   6.743  0.3616  0.1156 -0.5411
  133MOL0     C17862   5.821   3.877   6.627 -0.3380  0.1788 -0.5994
  133MOL0     C17863   5.966   3.903   6.670  0.0463 -0.0041 -0.1189
  133MOL0    Cl17864   6.038   3.760   6.761 -0.6461 -0.2256  0.3529
  133MOL0     C17865   4.984   3.877   6.572  0.9064 -0.5454 -0.2098
  133MOL0     C17866   4.848   3.918   6.575 -0.6076 -0.8864  0.1716
  133MOL0     O17867   4.502   3.752   6.365  0.4716 -0.8457  0.7963
  133MOL0     C17868   4.257   3.886   6.411 -0.4897  0.1270 -0.1618
  133MOL0     C17869   4.141   3.941   6.443  0.2614 -0.4965  0.2558
  133MOL0     N17870   3.880   3.885   6.239  0.3057 -0.4033  0.0808
  133MOL0     N17871   3.863   3.901   6.110 -0.2441 -0.4391 -0.5194
  133MOL0     C17872   2.774   3.550   5.682  0.0661  0.9979 -0.3095
  133MOL0     C17873   2.640   3.557   5.734 -0.0131  0.3012 -0.6957
  133MOL0     C17874   2.226   3.606   5.787  0.8327 -0.0120  0.5119
  133MOL0     C17875   2.144   3.504   5.743  0.0822 -0.3154 -0.4859
  133MOL0     C17876   2.020   3.475   5.787  0.8313 -0.4555 -0.1695
  133MOL0     C17877   1.964   3.554   5.889 -0.5992 -1.1021 -0.5337
  133MOL0     O17878   1.835   3.532   5.926  0.4434 -0.1596  0.7102
  133MOL0     C17879   1.769   3.610   6.019  0.2810  0.0759 -0.3355
  133MOL0     C17880   1.627   3.558   6.050  0.3240  0.3769  0.7359
  133MOL0     C17881   1.622   3.431   6.133 -0.7000  0.1987  0.6249
  133MOL0     C17882   1.676   3.316   6.036 -0.2585 -0.0497 -0.6053
  133MOL0     C17883   1.609   3.191   6.081  0.0469  0.4855  0.7061
  133MOL0     C17884   1.538   3.095   6.105  0.6098 -0.3903  0.1627
  133MOL0     C17885   2.038   3.660   5.936 -0.5097 -0.1909  0.3162
  133MOL0     C17886   2.174   3.685   5.890  0.5796 -0.1301  0.0240
  133MOL0     C17887   2.248   3.797   5.952 -0.5840 -0.0314  0.4900
  133MOL0     H17888   2.622   3.895   5.763 -0.2435  0.0922  0.9843
  133MOL0     H17889   2.849   3.876   5.682 -3.6072  3.8156  3.3087
  133MOL0     H17890   3.029   3.471   5.673 -4.3911  2.0122  1.0597
  133MOL0     H17891   2.999   3.502   5.505 -1.9183  2.6714 -0.6979
  133MOL0     H17892   3.199   3.656   5.495  2.1075 -0.6983 -1.3379
  133MOL0     H17893   3.247   3.482   5.507 -0.2397 -0.4273  0.1615
  133MOL0     H17894   3.266   3.522   5.754 -1.7029  1.4660  0.8859
  133MOL0     H17895   3.238   3.697   5.716  0.4293  0.5376  2.3090
  133MOL0     H17896   3.482   3.524   5.638  0.2797 -0.8083  3.0361
  133MOL0     H17897   3.441   3.681   5.567  2.5072 -0.0198 -0.2707
  133MOL0     H17898   3.434   3.729   5.844  1.5104 -0.3918  2.0480
  133MOL0     H17899   3.547   3.611   5.840 -3.0410 -0.5557  0.2134
  133MOL0     H17900   3.661   3.743   5.643 -0.6278 -1.2771 -0.3409
  133MOL0     H17901   3.557   3.875   5.681 -2.0560 -0.9617  1.8032
  133MOL0     H17902   3.799   3.888   5.788  0.2267 -0.4447  1.3483
  133MOL0     H17903   3.774   3.733   5.866  1.7533  1.0355  0.5822
  133MOL0     H17904   3.643   3.997   5.939  0.0390  1.0618  2.4167
  133MOL0     H17905   3.555   3.858   5.970  0.2079 -1.3690  0.1986
  133MOL0     H17906   3.557   3.811   6.204 -0.4073  0.2634  0.2042
  133MOL0     H17907   3.620   3.775   6.438 -1.4202  1.2060  0.6913
  133MOL0     H17908   3.783   3.778   6.485 -2.6549 -0.7661  2.7976
  133MOL0     H17909   3.608   4.028   6.446  0.6455 -1.0687 -1.9504
  133MOL0     H17910   3.641   3.962   6.607 -0.4002  0.3387 -0.9131
  133MOL0     H17911   3.760   4.159   6.539 -2.8800 -0.4632 -1.0600
  133MOL0     H17912   3.850   4.061   6.417  0.5300  0.2285 -0.1508
  133MOL0     H17913   3.926   3.907   6.589  1.0389 -0.3954 -0.6126
  133MOL0     H17914   3.871   4.021   6.718 -3.0181  3.1173 -1.2642
  133MOL0     H17915   4.247   4.134   6.700 -0.4305  0.6958  0.0662
  133MOL0     H17916   4.461   4.006   6.647  0.1053 -1.2519  0.2829
  133MOL0     H17917   4.735   3.682   6.349  0.7386  1.0335 -2.9506
  133MOL0     H17918   4.951   3.588   6.407  1.1813 -0.4789  2.4487
  133MOL0     H17919   5.126   3.671   6.730  0.9595 -2.2439  1.9935
  133MOL0     H17920   5.116   3.524   6.628  1.2880 -0.5569  2.0128
  133MOL0     H17921   5.327   3.556   6.776  0.5439  2.2614 -0.2735
  133MOL0     H17922   5.351   3.528   6.592  0.4421  2.3045 -0.8444
  133MOL0     H17923   5.356   3.788   6.591  1.9165  0.2157 -0.8684
  133MOL0     H17924   5.356   3.783   6.768 -0.3307  1.5779 -0.7823
  133MOL0     H17925   5.576   3.662   6.584  2.0325  1.5567  0.0054
  133MOL0     H17926   5.568   3.637   6.753 -0.2639 -0.3172 -1.4296
  133MOL0     H17927   5.536   3.884   6.785  0.5262 -0.7999  0.4969
  133MOL0     H17928   5.572   3.909   6.621 -1.1803  0.7174  1.2373
  133MOL0     H17929   5.746   3.926   6.811  0.3638 -0.6369  0.4169
  133MOL0     H17930   5.770   3.750   6.793 -0.4830 -0.2662 -0.6609
  133MOL0     H17931   5.785   3.971   6.585 -1.2180  1.6247  3.0675
  133MOL0     H17932   5.819   3.795   6.554 -0.7844  1.0162 -1.5544
  133MOL0     H17933   6.023   3.921   6.578 -1.7168  2.8591 -0.7571
  133MOL0     H17934   5.979   3.986   6.740 -2.3106 -0.8111  1.3760
  133MOL0     H17935   5.056   3.940   6.623 -1.1596  3.1249 -1.4908
  133MOL0     H17936   4.830   4.013   6.623  1.2577 -0.7032  0.6077
  133MOL0     H17937   4.246   3.831   6.318 -0.1097  2.3316 -1.5718
  133MOL0     H17938   4.048   3.926   6.389  0.7627 -0.9710 -0.4969
  133MOL0     H17939   2.813   3.450   5.666  0.7031  0.5696  3.0670
  133MOL0     H17940   2.581   3.466   5.742  0.2631  0.2628  1.4105
  133MOL0     H17941   2.185   3.438   5.667 -2.3830 -1.0097 -1.2888
  133MOL0     H17942   1.966   3.394   5.738  1.2265  0.3986 -2.1198
  133MOL0     H17943   1.751   3.711   5.979  0.3324 -0.2315 -1.1479
  133MOL0     H17944   1.830   3.613   6.109  1.9640 -0.2976 -1.4221
  133MOL0     H17945   1.568   3.532   5.962  1.6012 -2.2335  0.5703
  133MOL0     H17946   1.585   3.643   6.105  0.8453  0.6127  0.7822
  133MOL0     H17947   1.521   3.421   6.173 -0.3416 -0.9210  1.2980
  133MOL0     H17948   1.693   3.423   6.216  0.0534 -1.7084 -0.1445
  133MOL0     H17949   1.638   3.336   5.935 -1.3676  2.0481  0.1725
  133MOL0     H17950   1.785   3.306   6.038 -0.4361 -2.7351  1.4018
  133MOL0     H17951   1.466   3.016   6.100  0.7210 -0.4332 -1.7879
  133MOL0     H17952   2.004   3.733   6.010 -0.3076  0.1575  0.0703
  133MOL0     H17953   2.273   3.869   5.874  1.1444  1.6208  2.4301
  133MOL0     H17954   2.199   3.847   6.037  1.7560 -0.4933  2.2103
  133MOL0     H17955   2.340   3.752   5.990  1.6484  3.4113 -0.3107
  134MOL0     O17956   2.801   0.703   8.916  0.3840 -0.2576  0.4549
  134MOL0     C17957   2.743   0.798   8.860  0.0273 -0.5183  0.3843
  134MOL0     O17958   2.808   0.892   8.788  0.6177 -0.2413 -0.1316
  134MOL0     C17959   2.944   0.880   8.790  0.3243 -0.3628  0.1334
  134MOL0     C17960   3.010   0.842   8.674 -0.5568 -0.8019 -0.9499
  134MOL0     C17961   3.146   0.811   8.676 -0.2414  1.5587  0.7156
  134MOL0     C17962   3.225   0.828   8.785 -0.4004  0.5575 -0.1162
  134MOL0     O17963   3.366   0.814   8.793 -0.3588  0.5471 -0.5332
  134MOL0     C17964   3.415   0.695   8.852  0.4491  0.0640  0.3514
  134MOL0     C17965   3.448   0.593   8.749 -0.5001  0.4232  0.1590
  134MOL0     C17966   3.506   0.480   8.827  0.2503  0.3522  0.1793
  134MOL0     C17967   3.565   0.377   8.726  0.3246  1.0076  0.4997
  134MOL0     C17968   3.625   0.253   8.798  0.1807 -0.9409 -0.2134
  134MOL0     C17969   3.763   0.241   8.758 -0.3152 -0.1314  0.4669
  134MOL0     C17970   3.809   0.110   8.814 -0.1478 -0.3110  0.1298
  134MOL0     C17971   3.957   0.101   8.819 -0.3453 -0.7144  0.1962
  134MOL0     N17972   4.019   0.160   8.946  0.6561 -0.1529  0.3579
  134MOL0     C17973   4.140   0.208   8.954 -0.1962  0.0233  0.0160
  134MOL0     C17974   4.150   0.278   9.069 -0.1606 -0.3852 -0.1564
  134MOL0     C17975   4.276   0.347   9.130  1.4691 -0.4401  0.2703
  134MOL0     C17976   4.242   0.502   9.139 -1.0648  0.5314  0.1473
  134MOL0     C17977   4.373   0.582   9.143 -0.7093  0.6006 -0.4451
  134MOL0     C17978   4.440   0.588   9.279  0.0368  0.2096  0.0532
  134MOL0     O17979   4.492   0.457   9.320  0.2109 -0.0901  0.1280
  134MOL0     C17980   4.601   0.461   9.404  0.8897 -0.7206  0.8040
  134MOL0     C17981   4.731   0.449   9.361 -0.3370  0.8714  1.3950
  134MOL0     C17982   4.838   0.460   9.454  0.1878 -0.1412  0.3374
  134MOL0     C17983   4.816   0.507   9.587  0.5012  0.0990  0.3006
  134MOL0     C17984   4.923   0.522   9.684 -0.5818 -0.6276 -0.6844
  134MOL0     O17985   5.046   0.481   9.653  0.5404 -0.5451  0.0954
  134MOL0     C17986   5.154   0.501   9.741  0.2004 -0.1363  0.1464
  134MOL0     C17987   5.154   0.424   9.859 -0.3248  0.4901 -0.5090
  134MOL0     C17988   5.265   0.429   9.950  0.4887  0.0120 -0.2409
  134MOL0     C17989   5.377   0.509   9.926  1.0041 -0.0928 -0.3640
  134MOL0     O17990   5.494   0.520  10.007  0.6561  0.1226  0.9434
  134MOL0     C17991   5.558   0.398  10.060  0.7995  0.0821  0.4055
  134MOL0     C17992   5.709   0.419  10.071 -0.0624  0.0356 -0.2930
  134MOL0     C17993   5.778   0.320  10.164  0.7718 -0.8578 -0.4436
  134MOL0     C17994   5.938   0.337  10.161  0.4711  0.3992 -0.5258
  134MOL0     C17995   5.991   0.481  10.160 -0.3051  0.9287  0.2661
  134MOL0     C17996   6.141   0.488  10.176  0.6613  0.1516  0.7707
  134MOL0     C17997   6.185   0.567  10.298  0.5229 -0.2778 -0.2626
  134MOL0     C17998   6.311   0.512  10.355 -0.6160 -0.0090 -0.5220
  134MOL0    Cl17999   6.299   0.340  10.391 -0.8675  0.4636  0.2372
  134MOL0     C18000   5.370   0.590   9.813  0.3920 -0.1598 -0.2642
  134MOL0     C18001   5.262   0.588   9.728 -0.1910 -0.3150 -0.0051
  134MOL0     O18002   4.897   0.586   9.783  0.9377 -0.4262 -0.2535
  134MOL0     C18003   4.681   0.521   9.627  0.0882 -0.4381 -0.3419
  134MOL0     C18004   4.572   0.501   9.538 -0.3598  0.5490  0.2509
  134MOL0     N18005   4.031   0.253   9.142  0.0480 -0.6661  0.1006
  134MOL0     N18006   3.957   0.188   9.065  0.0367  0.8062 -0.2272
  134MOL0     C18007   3.159   0.876   8.902 -0.4412 -0.4988  0.3213
  134MOL0     C18008   3.021   0.902   8.902 -0.9281  0.1015 -0.4413
  134MOL0     C18009   2.601   0.817   8.877  0.0947  0.6413 -0.0405
  134MOL0     C18010   2.543   0.767   8.998  0.5602  0.2134 -0.4942
  134MOL0     C18011   2.412   0.792   9.024  0.6499  0.8853  0.7219
  134MOL0     C18012   2.316   0.850   8.930 -0.5207  0.3499  0.0965
  134MOL0     O18013   2.183   0.841   8.955  0.3191 -0.2983 -0.1101
  134MOL0     C18014   2.087   0.919   8.878 -0.4592  0.6223 -0.2013
  134MOL0     C18015   2.079   1.069   8.927 -0.8801  1.0642 -1.1377
  134MOL0     C18016   2.013   1.154   8.820  0.4788  1.4388  0.0877
  134MOL0     C18017   1.875   1.100   8.776  0.6323 -0.9898  0.6321
  134MOL0     C18018   1.778   1.096   8.886  0.1605 -0.2457  0.3329
  134MOL0     C18019   1.701   1.088   8.978  0.5156  0.9388  0.0250
  134MOL0     C18020   2.382   0.910   8.817 -0.6558  0.1944 -0.3334
  134MOL0     C18021   2.526   0.889   8.786  0.3968 -1.1693  0.2947
  134MOL0     C18022   2.567   0.934   8.648  0.0944  0.1199  0.3312
  134MOL0     H18023   2.956   0.817   8.584  2.1385  1.3671 -3.3726
  134MOL0     H18024   3.201   0.774   8.590 -0.6489  2.8930 -0.1420
  134MOL0     H18025   3.505   0.716   8.911  0.9326  0.2400 -0.4395
  134MOL0     H18026   3.334   0.658   8.915 -1.3795  2.5775 -0.4051
  134MOL0     H18027   3.533   0.625   8.688  1.8570 -2.7010  1.5123
  134MOL0     H18028   3.357   0.557   8.700  0.0325 -0.3679 -0.2691
  134MOL0     H18029   3.430   0.443   8.896 -0.2026  2.1437  0.6728
  134MOL0     H18030   3.603   0.503   8.873  2.3134 -0.2859 -3.4204
  134MOL0     H18031   3.482   0.353   8.660  0.3796  3.5413 -0.6003
  134MOL0     H18032   3.634   0.431   8.662  1.4613  0.5027  1.2589
  134MOL0     H18033   3.630   0.266   8.907  1.7637  3.9279 -0.6373
  134MOL0     H18034   3.557   0.168   8.786  1.1917 -1.6494 -1.1050
  134MOL0     H18035   3.776   0.239   8.649  0.0987 -3.5665  0.4545
  134MOL0     H18036   3.820   0.328   8.790 -0.0313  0.0057 -0.3763
  134MOL0     H18037   3.774   0.025   8.754  3.0285  0.4286 -3.0935
  134MOL0     H18038   3.769   0.099   8.916 -2.2968 -1.2194 -0.7537
  134MOL0     H18039   3.977  -0.004   8.795  0.5226 -0.7143  0.8591
  134MOL0     H18040   3.999   0.167   8.743 -1.3569 -0.2579  0.0216
  134MOL0     H18041   4.220   0.207   8.881 -0.5448  1.9772 -0.4464
  134MOL0     H18042   4.291   0.312   9.232  1.3079 -1.3369 -0.0015
  134MOL0     H18043   4.361   0.326   9.064 -0.4075  0.7226 -2.7408
  134MOL0     H18044   4.180   0.548   9.061  0.4402  1.0880 -0.7720
  134MOL0     H18045   4.183   0.521   9.228  0.1528 -0.4203  1.1910
  134MOL0     H18046   4.347   0.684   9.114 -0.5985  0.9609  0.6835
  134MOL0     H18047   4.443   0.543   9.069  1.4538  3.0242  0.1988
  134MOL0     H18048   4.372   0.620   9.359 -0.6654  0.2587 -0.5511
  134MOL0     H18049   4.519   0.664   9.277  0.2681 -0.0178  0.4684
  134MOL0     H18050   4.746   0.416   9.258  3.7832  1.3159  1.6788
  134MOL0     H18051   4.940   0.448   9.420  0.0951  1.2658 -0.5100
  134MOL0     H18052   5.068   0.360   9.874  0.6954 -0.9527 -0.6292
  134MOL0     H18053   5.270   0.383  10.048  1.8228  1.0894  0.2180
  134MOL0     H18054   5.522   0.393  10.163  2.3075  0.0649  0.9473
  134MOL0     H18055   5.543   0.311   9.996  1.4030  0.3665 -0.1359
  134MOL0     H18056   5.757   0.405   9.974 -0.1940 -2.5146 -0.0534
  134MOL0     H18057   5.736   0.522  10.093 -0.6421  0.5235 -1.7226
  134MOL0     H18058   5.750   0.337  10.268 -1.8042 -2.8854 -0.6837
  134MOL0     H18059   5.752   0.217  10.136  0.4855 -0.6211 -1.0674
  134MOL0     H18060   5.978   0.278  10.078 -0.6604 -0.0598 -0.7580
  134MOL0     H18061   5.974   0.292  10.254  2.4150  0.7158 -1.0750
  134MOL0     H18062   5.954   0.546  10.240 -0.6230 -0.1149  0.9919
  134MOL0     H18063   5.959   0.531  10.069 -0.9775  0.5859  0.3039
  134MOL0     H18064   6.192   0.391  10.166 -1.4194 -0.8447 -1.0306
  134MOL0     H18065   6.184   0.541  10.091  1.0692  0.7434  1.3357
  134MOL0     H18066   6.111   0.549  10.377  1.9853 -2.9506  0.6467
  134MOL0     H18067   6.204   0.671  10.273  0.5544 -0.0868  0.5248
  134MOL0     H18068   6.398   0.518  10.289 -0.7506  0.4710 -0.6522
  134MOL0     H18069   6.343   0.556  10.450 -1.2675  0.5213 -0.5474
  134MOL0     H18070   5.455   0.654   9.792  1.7905 -1.3751  1.3797
  134MOL0     H18071   5.259   0.646   9.637 -1.8634  0.8077  0.7091
  134MOL0     H18072   4.662   0.545   9.731  0.6122  0.1789 -0.3799
  134MOL0     H18073   4.471   0.521   9.570 -2.0029 -3.2939 -1.7905
  134MOL0     H18074   3.216   0.885   8.994  3.1604  1.1868 -1.8928
  134MOL0     H18075   2.963   0.923   8.990 -0.1153  0.5079  0.0062
  134MOL0     H18076   2.605   0.710   9.066 -0.4095 -0.9351 -0.5275
  134MOL0     H18077   2.374   0.757   9.119 -3.1141  0.8231 -0.6173
  134MOL0     H18078   1.995   0.864   8.900  2.2111 -4.8948 -1.0298
  134MOL0     H18079   2.096   0.922   8.769 -1.0167 -0.1635 -0.2774
  134MOL0     H18080   2.180   1.093   8.962  0.5440 -1.6919 -2.8799
  134MOL0     H18081   2.022   1.078   9.019  0.9748 -1.8587  0.4529
  134MOL0     H18082   2.078   1.161   8.732  0.5638 -2.2793 -0.3142
  134MOL0     H18083   2.001   1.257   8.856 -2.4705  1.3613 -0.4427
  134MOL0     H18084   1.830   1.169   8.705 -0.1921  0.0504  2.1017
  134MOL0     H18085   1.877   1.005   8.721  3.1831  0.3972 -1.9036
  134MOL0     H18086   1.622   1.078   9.050 -1.6123  1.3797 -2.0988
  134MOL0     H18087   2.326   0.970   8.746  0.0646  1.6118  0.2474
  134MOL0     H18088   2.485   0.960   8.579  2.2098  0.0530 -2.4027
  134MOL0     H18089   2.627   1.025   8.649 -0.6682  0.6326  0.5375
  134MOL0     H18090   2.630   0.856   8.605 -1.3622 -0.0464 -1.6715
  135MOL0     O18091   1.300   0.832   9.064  0.2983 -0.3291  0.1413
  135MOL0     C18092   1.285   0.840   9.184 -0.3239 -0.0579  0.0937
  135MOL0     O18093   1.374   0.802   9.274 -0.4926 -0.3162  0.2376
  135MOL0     C18094   1.477   0.724   9.230  0.6492  0.0565  0.0867
  135MOL0     C18095   1.606   0.775   9.237 -0.0905 -0.7066  0.2815
  135MOL0     C18096   1.713   0.715   9.171  0.6434  0.1550 -0.1306
  135MOL0     C18097   1.688   0.597   9.094 -0.4393  0.2192 -0.4703
  135MOL0     O18098   1.782   0.531   9.017  0.4766  0.3991 -0.6957
  135MOL0     C18099   1.922   0.576   9.037  0.5386 -0.5376 -0.2098
  135MOL0     C18100   1.999   0.486   8.941  0.3895  0.1426 -0.0377
  135MOL0     C18101   2.153   0.513   8.959  0.1087 -0.5987  0.9251
  135MOL0     C18102   2.245   0.405   8.881  0.2273  0.0184  1.0798
  135MOL0     C18103   2.396   0.441   8.886 -0.1919  0.4215  0.4169
  135MOL0     C18104   2.475   0.361   8.786  0.8839 -0.0763  0.2099
  135MOL0     C18105   2.625   0.377   8.815 -0.5442  1.0471  0.6070
  135MOL0     C18106   2.705   0.270   8.719  0.4283 -1.1964 -0.2144
  135MOL0     N18107   2.678   0.134   8.749  0.3671 -0.5339 -0.2919
  135MOL0     C18108   2.641   0.082   8.869 -0.0463  0.0350  0.4946
  135MOL0     C18109   2.666  -0.051   8.853  0.8678  0.0863 -0.2183
  135MOL0     C18110   2.644  -0.145   8.967  0.8596  0.2756 -0.4766
  135MOL0     C18111   2.769  -0.217   8.997 -0.5594  0.9066 -0.6704
  135MOL0     C18112   2.757  -0.313   9.120 -0.2607  0.5810  0.3030
  135MOL0     C18113   2.885  -0.388   9.160  0.0504 -0.2007 -0.2234
  135MOL0     O18114   2.983  -0.291   9.188  0.2194 -0.2188 -0.9518
  135MOL0     C18115   3.113  -0.334   9.241  0.0625  0.2670 -0.2520
  135MOL0     C18116   3.133  -0.454   9.310  0.5729 -0.3599  0.8883
  135MOL0     C18117   3.261  -0.491   9.353 -0.0041 -0.4061 -0.7816
  135MOL0     C18118   3.369  -0.405   9.338  1.2810 -0.3441  0.0484
  135MOL0     C18119   3.506  -0.435   9.373 -0.1579  0.1388 -0.0574
  135MOL0     O18120   3.530  -0.561   9.421  0.1298  0.5052  1.6631
  135MOL0     C18121   3.659  -0.582   9.472  0.0966 -0.4813  0.4877
  135MOL0     C18122   3.765  -0.636   9.400  0.3449  0.0497  0.3934
  135MOL0     C18123   3.892  -0.661   9.462  0.3305 -0.1008  0.4119
  135MOL0     C18124   3.912  -0.613   9.594  0.5644  0.6697 -0.5497
  135MOL0     O18125   4.030  -0.640   9.666  0.4712  0.4014 -0.6313
  135MOL0     C18126   4.049  -0.771   9.696 -0.4851  0.0329 -0.0337
  135MOL0     C18127   4.159  -0.783   9.804 -0.2871 -0.4343 -0.4740
  135MOL0     C18128   4.296  -0.756   9.741 -0.6899  0.9273  0.6537
  135MOL0     C18129   4.416  -0.754   9.843  0.4201  0.3107 -0.1953
  135MOL0     C18130   4.540  -0.808   9.771  0.7934 -0.2534 -1.2745
  135MOL0     C18131   4.680  -0.792   9.831 -0.4269 -0.6270 -1.0824
  135MOL0     C18132   4.790  -0.833   9.725  0.1160 -0.2925  0.1937
  135MOL0     C18133   4.939  -0.808   9.782  0.3199  0.1354  0.3630
  135MOL0    Cl18134   4.981  -0.938   9.894 -0.1691 -0.1790 -0.0159
  135MOL0     C18135   3.806  -0.552   9.674  0.1788  0.0515  0.3102
  135MOL0     C18136   3.679  -0.549   9.609  0.6458 -0.7966 -0.0229
  135MOL0     O18137   3.595  -0.355   9.355 -0.0888 -0.6537  0.2583
  135MOL0     C18138   3.344  -0.281   9.277 -0.2043 -0.5114  0.6536
  135MOL0     C18139   3.217  -0.245   9.226  0.2122 -0.5353 -0.2390
  135MOL0     N18140   2.696  -0.084   8.725  0.4345 -0.3616  0.3559
  135MOL0     N18141   2.694   0.027   8.660 -0.7624  0.1535 -0.7503
  135MOL0     C18142   1.559   0.544   9.098 -0.2297  0.0362  0.0241
  135MOL0     C18143   1.459   0.611   9.155  0.1025 -0.0258 -0.1120
  135MOL0     C18144   1.162   0.900   9.233 -0.4981  0.6339 -0.6642
  135MOL0     C18145   1.138   0.873   9.373 -0.6161  0.0589  0.0476
  135MOL0     C18146   1.023   0.907   9.429 -0.6603 -0.4372  1.0563
  135MOL0     C18147   0.918   0.966   9.355  0.2719  0.1351 -0.0307
  135MOL0     O18148   0.792   1.005   9.391  0.4464  0.2881 -0.2955
  135MOL0     C18149   0.743   0.936   9.508  0.2482  1.0078 -0.4791
  135MOL0     C18150   0.591   0.924   9.506  0.8921 -0.5148 -0.4487
  135MOL0     C18151   0.529   1.061   9.532 -0.0256 -0.0869  0.3721
  135MOL0     C18152   0.515   1.113   9.671 -0.4294 -0.0743  0.5694
  135MOL0     C18153   0.459   1.024   9.767 -0.5902  0.3981 -0.8170
  135MOL0     C18154   0.395   0.972   9.852 -0.5250 -0.1699  0.1187
  135MOL0     C18155   0.944   1.002   9.228 -1.6051  0.2367  1.0827
  135MOL0     C18156   1.067   0.973   9.164  0.0555 -0.0778 -0.2762
  135MOL0     C18157   1.089   1.012   9.016  0.0786 -0.8886 -0.3020
  135MOL0     H18158   1.622   0.866   9.293 -0.9689  2.2794 -3.8353
  135MOL0     H18159   1.811   0.757   9.186 -1.0001  3.6343  2.3562
  135MOL0     H18160   1.938   0.681   9.009  0.2629  0.1265  1.8849
  135MOL0     H18161   1.942   0.567   9.144 -2.5407  0.3294  0.5495
  135MOL0     H18162   1.962   0.499   8.839  0.7750 -0.2452 -0.2301
  135MOL0     H18163   1.976   0.381   8.960  1.8443 -0.4590 -1.3478
  135MOL0     H18164   2.181   0.513   9.064 -0.3677  2.9322  1.1970
  135MOL0     H18165   2.176   0.616   8.928  1.4324 -0.9687  0.5869
  135MOL0     H18166   2.223   0.304   8.917 -0.5796 -0.2451 -0.0989
  135MOL0     H18167   2.220   0.408   8.774  4.1262 -1.8746 -0.0679
  135MOL0     H18168   2.390   0.547   8.860 -1.1266  0.2853  0.0552
  135MOL0     H18169   2.434   0.438   8.988 -2.3329  1.0578  1.2808
  135MOL0     H18170   2.447   0.255   8.790  1.0628 -0.1991 -1.2577
  135MOL0     H18171   2.448   0.395   8.686 -0.0374 -4.0329 -1.0777
  135MOL0     H18172   2.642   0.352   8.920 -0.9171 -0.8330  0.2512
  135MOL0     H18173   2.656   0.480   8.793 -1.3012  1.1257 -0.1503
  135MOL0     H18174   2.702   0.297   8.613  0.6091  2.2006  0.5101
  135MOL0     H18175   2.811   0.279   8.746 -0.4810  0.6716  3.3690
  135MOL0     H18176   2.610   0.152   8.945 -3.4877  0.0389 -0.7650
  135MOL0     H18177   2.599  -0.095   9.053  0.9783 -2.3802  1.2180
  135MOL0     H18178   2.576  -0.225   8.936 -1.8672  2.3085 -0.1385
  135MOL0     H18179   2.793  -0.280   8.912 -0.1919  0.0252  0.0641
  135MOL0     H18180   2.848  -0.144   9.017  1.6032 -1.9140  2.0858
  135MOL0     H18181   2.682  -0.387   9.089 -0.6544 -0.1561  2.7485
  135MOL0     H18182   2.722  -0.268   9.213  1.7896 -1.3491  2.1490
  135MOL0     H18183   2.915  -0.440   9.069 -0.2866 -0.8426  0.0293
  135MOL0     H18184   2.866  -0.465   9.235 -1.4172 -0.2833 -0.6533
  135MOL0     H18185   3.052  -0.525   9.321  0.9169 -0.6847  1.4179
  135MOL0     H18186   3.272  -0.595   9.384 -1.9670 -1.1541 -2.4225
  135MOL0     H18187   3.749  -0.670   9.298 -0.0597 -0.3061  0.5697
  135MOL0     H18188   3.976  -0.698   9.403 -1.4580  0.2179 -2.5542
  135MOL0     H18189   3.959  -0.813   9.742  0.0594  0.4155  1.4432
  135MOL0     H18190   4.059  -0.828   9.604 -2.3685  0.4509 -0.5343
  135MOL0     H18191   4.130  -0.703   9.873 -3.7107 -0.1255 -2.0574
  135MOL0     H18192   4.160  -0.885   9.844  0.4577 -0.8320 -1.4692
  135MOL0     H18193   4.315  -0.842   9.675 -2.7924  2.0327 -1.5264
  135MOL0     H18194   4.288  -0.669   9.675 -1.4799  1.5058  1.5048
  135MOL0     H18195   4.379  -0.812   9.928  1.1830 -2.7846 -1.8318
  135MOL0     H18196   4.435  -0.651   9.874 -1.7184  0.3996  1.0597
  135MOL0     H18197   4.528  -0.745   9.682 -0.7158  0.7182 -0.4464
  135MOL0     H18198   4.525  -0.915   9.756 -2.0666  0.2929 -3.0581
  135MOL0     H18199   4.698  -0.689   9.860 -1.0186 -1.0027  0.7371
  135MOL0     H18200   4.694  -0.853   9.921  0.0740  0.6520 -0.2711
  135MOL0     H18201   4.781  -0.768   9.637  0.4046 -2.8567 -1.8601
  135MOL0     H18202   4.770  -0.938   9.704  1.6900 -0.6299  0.2483
  135MOL0     H18203   5.016  -0.805   9.704  1.5649 -1.3706  1.4872
  135MOL0     H18204   4.953  -0.709   9.826 -0.2203  0.3831 -0.0111
  135MOL0     H18205   3.819  -0.534   9.780  0.8271 -0.4671  0.3286
  135MOL0     H18206   3.600  -0.508   9.670  0.2381 -1.6517  0.0421
  135MOL0     H18207   3.426  -0.212   9.262  0.1829 -0.9704  0.6331
  135MOL0     H18208   3.185  -0.145   9.199  3.2551  0.0132 -2.2060
  135MOL0     H18209   1.535   0.458   9.036 -0.7124  1.2409 -1.5518
  135MOL0     H18210   1.357   0.576   9.143  0.6999 -2.3643  1.1833
  135MOL0     H18211   1.214   0.823   9.432 -0.2556  0.0707 -0.3999
  135MOL0     H18212   1.031   0.888   9.536  0.5425 -2.7315  0.6277
  135MOL0     H18213   0.777   0.984   9.600 -0.5502  2.1839 -0.7681
  135MOL0     H18214   0.789   0.837   9.503 -0.7065  0.5746 -0.9190
  135MOL0     H18215   0.539   0.854   9.572  0.2344  0.5937  0.2447
  135MOL0     H18216   0.562   0.902   9.403 -2.3780  0.4661  0.1472
  135MOL0     H18217   0.428   1.048   9.492 -0.3873 -1.5792  1.6770
  135MOL0     H18218   0.590   1.131   9.474  1.6177  1.1608  3.3821
  135MOL0     H18219   0.615   1.132   9.712  1.4239 -2.0667 -2.5989
  135MOL0     H18220   0.448   1.198   9.661 -1.4044 -1.1137 -3.1700
  135MOL0     H18221   0.350   0.912   9.929  2.4482 -2.3736  0.2938
  135MOL0     H18222   0.873   1.050   9.161  2.2057 -0.9475 -4.5466
  135MOL0     H18223   1.063   0.938   8.939  1.5671  0.7665 -2.4987
  135MOL0     H18224   1.027   1.093   8.977  1.5121  0.7834  0.7288
  135MOL0     H18225   1.192   1.033   8.989 -0.1336 -0.6382 -0.9236
  136MOL0     O18226   0.634   8.756   5.520  0.9556  0.2658 -0.1158
  136MOL0     C18227   0.621   8.660   5.442 -0.8698 -0.7318  0.5252
  136MOL0     O18228   0.684   8.652   5.316 -0.2342 -0.2096 -0.4195
  136MOL0     C18229   0.783   8.745   5.267  0.2302  1.3062 -0.2603
  136MOL0     C18230   0.815   8.719   5.133  0.0306 -0.4635 -0.6581
  136MOL0     C18231   0.918   8.792   5.070  0.6435 -0.0663  0.3605
  136MOL0     C18232   0.998   8.880   5.136 -0.1865 -0.1627 -1.0435
  136MOL0     O18233   1.092   8.942   5.067  0.5344  0.1851  0.9941
  136MOL0     C18234   1.186   9.031   5.125 -0.1776  0.1792  0.0073
  136MOL0     C18235   1.278   9.121   5.036 -0.2129  0.4945 -0.7290
  136MOL0     C18236   1.394   9.181   5.128 -0.1566 -0.7583 -0.5771
  136MOL0     C18237   1.459   9.293   5.045 -0.3994  1.2169 -0.7832
  136MOL0     C18238   1.581   9.341   5.124 -1.1349  0.2284 -0.6003
  136MOL0     C18239   1.661   9.449   5.041 -0.7630 -0.3720 -0.5987
  136MOL0     C18240   1.784   9.502   5.122 -0.1316 -0.3221 -0.3791
  136MOL0     C18241   1.892   9.392   5.123  0.3334 -0.7488 -0.0138
  136MOL0     N18242   2.002   9.451   5.200 -1.1490  1.4048 -0.7981
  136MOL0     C18243   2.103   9.529   5.150 -0.7374 -0.7343 -0.1910
  136MOL0     C18244   2.189   9.545   5.255  0.3957  0.4308  0.3005
  136MOL0     C18245   2.319   9.629   5.267  0.6581 -0.2004 -0.4475
  136MOL0     C18246   2.433   9.556   5.192 -1.2342 -1.1107 -0.3820
  136MOL0     C18247   2.569   9.632   5.208  0.8408  0.4226  0.5006
  136MOL0     C18248   2.680   9.611   5.095 -0.3147  0.6220  0.6686
  136MOL0     O18249   2.730   9.481   5.069  0.3781  0.1444  0.0263
  136MOL0     C18250   2.862   9.457   5.053 -0.3227 -0.6584  0.8051
  136MOL0     C18251   2.954   9.528   5.131 -0.4770 -0.0286 -0.1977
  136MOL0     C18252   3.092   9.508   5.116 -0.1298  0.0215  0.1427
  136MOL0     C18253   3.139   9.414   5.017  0.5274  0.3739 -0.5825
  136MOL0     C18254   3.282   9.395   4.985  0.1527  0.1113  0.7341
  136MOL0     O18255   3.324   9.289   4.918 -1.1300  0.0700  0.4987
  136MOL0     C18256   3.454   9.247   4.931  0.3300  0.5900  0.0519
  136MOL0     C18257   3.504   9.214   5.055  0.0545  0.0785 -0.6005
  136MOL0     C18258   3.626   9.160   5.069 -0.1132  0.0868  0.4042
  136MOL0     C18259   3.714   9.149   4.962  0.0355  0.2600 -1.1020
  136MOL0     O18260   3.835   9.096   4.963 -0.8653 -0.2248  0.8408
  136MOL0     C18261   3.858   8.995   5.064 -0.2155 -0.4481  0.7010
  136MOL0     C18262   3.998   8.936   5.048 -0.3899 -0.7974  0.4823
  136MOL0     C18263   4.021   8.816   5.133  0.8110  0.4547  0.0867
  136MOL0     C18264   4.172   8.785   5.155  0.2387 -0.0244  0.8515
  136MOL0     C18265   4.184   8.633   5.186  0.1744  0.2702 -0.5121
  136MOL0     C18266   4.161   8.597   5.333 -0.1234 -0.5213  0.2818
  136MOL0     C18267   4.206   8.459   5.362  0.1836 -0.2200 -0.7201
  136MOL0     C18268   4.149   8.388   5.490  0.7163  0.1698  0.0226
  136MOL0    Cl18269   3.985   8.340   5.435  0.1647 -0.0732  0.0719
  136MOL0     C18270   3.674   9.202   4.837 -0.1053  0.4699 -0.5338
  136MOL0     C18271   3.543   9.246   4.827  0.3923 -0.4176  0.0014
  136MOL0     O18272   3.356   9.477   5.039 -0.3226  0.0922  0.1857
  136MOL0     C18273   3.044   9.341   4.943  0.1597  0.1644 -1.3969
  136MOL0     C18274   2.903   9.356   4.951 -0.5146 -0.4675 -0.6784
  136MOL0     N18275   2.136   9.465   5.362  0.6824 -0.0343  0.4074
  136MOL0     N18276   2.028   9.408   5.328  0.8070 -0.2706 -0.3720
  136MOL0     C18277   0.966   8.910   5.272  1.0466 -0.2242 -0.0151
  136MOL0     C18278   0.856   8.847   5.331  0.8687  0.9584 -0.0296
  136MOL0     C18279   0.530   8.553   5.484  0.0322 -1.5418  0.5863
  136MOL0     C18280   0.458   8.574   5.604 -0.5141  0.2485  0.4603
  136MOL0     C18281   0.356   8.489   5.650  0.4496 -0.3557 -0.1303
  136MOL0     C18282   0.326   8.376   5.576  0.4126  0.3592  0.6712
  136MOL0     O18283   0.233   8.278   5.620 -0.1167 -0.6682  0.5276
  136MOL0     C18284   0.130   8.303   5.720  1.4395  0.8391  0.0942
  136MOL0     C18285   0.077   8.166   5.759 -0.3111  1.3786 -0.1148
  136MOL0     C18286   0.024   8.083   5.641  0.3604  0.1675 -0.3593
  136MOL0     C18287  -0.023   7.946   5.701  0.0757  0.4847 -0.7037
  136MOL0     C18288  -0.125   7.877   5.622 -1.0979 -0.2943 -0.1153
  136MOL0     C18289  -0.209   7.817   5.556 -0.1837 -0.2037 -0.4261
  136MOL0     C18290   0.385   8.359   5.454 -0.4030  0.2046 -0.4799
  136MOL0     C18291   0.492   8.444   5.411 -0.6063  0.1242 -0.0431
  136MOL0     C18292   0.557   8.402   5.284  0.8191  0.5042  0.1934
  136MOL0     H18293   0.743   8.661   5.075 -1.2484 -0.1942  0.5847
  136MOL0     H18294   0.930   8.768   4.965 -2.2036 -0.6440  0.0876
  136MOL0     H18295   1.118   9.104   5.171  1.5772  1.2084  1.0934
  136MOL0     H18296   1.238   8.972   5.201 -0.0380  0.3869  0.0752
  136MOL0     H18297   1.225   9.202   4.987 -0.9308  0.0875 -0.6475
  136MOL0     H18298   1.321   9.053   4.962 -0.7048 -1.1247  0.4056
  136MOL0     H18299   1.473   9.106   5.132  2.7398  2.0913 -0.0970
  136MOL0     H18300   1.358   9.199   5.230 -2.0257 -1.3098 -1.0988
  136MOL0     H18301   1.500   9.245   4.955 -3.0969 -0.4330 -1.2308
  136MOL0     H18302   1.393   9.370   5.004 -0.0385  1.8688 -0.1572
  136MOL0     H18303   1.543   9.382   5.218 -2.5330 -1.0637 -0.5630
  136MOL0     H18304   1.651   9.262   5.151 -2.2966 -0.6963 -0.2561
  136MOL0     H18305   1.685   9.415   4.939 -1.7059 -2.4391 -0.1819
  136MOL0     H18306   1.586   9.525   5.017 -0.4801  0.1259  0.0477
  136MOL0     H18307   1.752   9.530   5.223 -0.5664 -2.1760  0.0336
  136MOL0     H18308   1.805   9.595   5.068  0.0270 -0.2603 -0.2126
  136MOL0     H18309   1.865   9.295   5.165 -0.7145 -0.0185  1.0627
  136MOL0     H18310   1.929   9.386   5.021  1.1012 -3.4361  0.3568
  136MOL0     H18311   2.116   9.566   5.049  1.9789 -0.7796  0.0782
  136MOL0     H18312   2.298   9.725   5.220 -1.3105 -1.2380 -1.8289
  136MOL0     H18313   2.343   9.646   5.373 -1.6050 -0.6076  0.1892
  136MOL0     H18314   2.441   9.453   5.229 -2.0817 -0.2157  2.6386
  136MOL0     H18315   2.417   9.558   5.084  0.1592  0.0990 -0.5947
  136MOL0     H18316   2.610   9.595   5.303 -0.0777  1.3512  1.2813
  136MOL0     H18317   2.547   9.739   5.212 -0.5514  0.1297  1.1128
  136MOL0     H18318   2.756   9.686   5.117 -0.0441 -0.1353  2.4885
  136MOL0     H18319   2.634   9.640   5.000  2.6023 -1.1941 -1.4587
  136MOL0     H18320   2.920   9.603   5.201 -1.7426  1.9378 -2.7351
  136MOL0     H18321   3.164   9.574   5.164  0.4444  0.8960 -1.8298
  136MOL0     H18322   3.436   9.194   5.137  0.4015 -3.5426 -1.0549
  136MOL0     H18323   3.652   9.115   5.165 -4.1864 -3.3735  0.1978
  136MOL0     H18324   3.863   9.051   5.157  0.0441  1.0521 -0.1791
  136MOL0     H18325   3.790   8.910   5.053  0.2279 -0.9814  1.9329
  136MOL0     H18326   4.008   8.901   4.945 -4.0321 -0.5999 -0.0798
  136MOL0     H18327   4.073   9.013   5.063 -1.8037  1.0658 -1.4152
  136MOL0     H18328   3.972   8.832   5.230 -0.5673  1.6012 -0.7702
  136MOL0     H18329   3.979   8.730   5.080 -1.5575  0.7591  1.3074
  136MOL0     H18330   4.213   8.847   5.236 -3.0550 -0.1770  2.8332
  136MOL0     H18331   4.227   8.811   5.065 -0.2796  1.2457  0.8762
  136MOL0     H18332   4.286   8.599   5.165 -0.7870 -3.3945 -0.0186
  136MOL0     H18333   4.119   8.562   5.134 -1.7438  0.1130  1.9189
  136MOL0     H18334   4.217   8.661   5.402  0.0539  0.2830 -0.5931
  136MOL0     H18335   4.055   8.620   5.348 -0.3467 -0.7777 -0.8155
  136MOL0     H18336   4.314   8.460   5.375 -0.0598  1.6744  1.9903
  136MOL0     H18337   4.189   8.398   5.273 -0.8799 -1.4005  0.2427
  136MOL0     H18338   4.212   8.301   5.505 -0.2363 -1.9011 -5.6482
  136MOL0     H18339   4.134   8.459   5.572 -3.3925  1.6970 -1.7420
  136MOL0     H18340   3.748   9.206   4.758 -0.4528  0.0439 -0.8880
  136MOL0     H18341   3.519   9.264   4.723  2.0029 -1.5272 -0.6096
  136MOL0     H18342   3.069   9.278   4.858 -0.0367 -0.1400 -1.2342
  136MOL0     H18343   2.835   9.291   4.897 -0.0710 -0.4125 -1.3166
  136MOL0     H18344   1.016   8.988   5.330 -1.0577 -0.5989  2.4974
  136MOL0     H18345   0.824   8.878   5.430 -0.6579 -1.9407  0.5053
  136MOL0     H18346   0.487   8.651   5.675  2.1761  0.9415 -1.2007
  136MOL0     H18347   0.312   8.516   5.746  0.9894 -2.0460  0.6415
  136MOL0     H18348   0.053   8.373   5.688  0.2469 -1.6914 -3.1175
  136MOL0     H18349   0.178   8.352   5.805  0.5352 -1.9734  2.3860
  136MOL0     H18350  -0.005   8.170   5.831  0.7860 -0.2605  1.3095
  136MOL0     H18351   0.160   8.119   5.813  0.2610  1.9709 -0.4616
  136MOL0     H18352   0.095   8.076   5.559  1.2855  2.3725  0.1573
  136MOL0     H18353  -0.071   8.121   5.603 -0.9563 -1.5510  1.0535
  136MOL0     H18354   0.068   7.886   5.713  1.0030  2.2299  1.9404
  136MOL0     H18355  -0.073   7.952   5.798  1.3309 -1.5601  0.1287
  136MOL0     H18356  -0.290   7.775   5.499  0.1358 -0.5129 -0.6551
  136MOL0     H18357   0.355   8.270   5.399  0.9019  1.0977 -2.7731
  136MOL0     H18358   0.660   8.375   5.308  0.1978 -0.5100  1.9706
  136MOL0     H18359   0.519   8.303   5.255  2.0860 -0.5887  2.0786
  136MOL0     H18360   0.548   8.475   5.203 -0.1954 -4.3082 -4.7180
  137MOL0     O18361   5.970   0.406   0.526  0.2970  0.4014 -0.1116
  137MOL0     C18362   5.929   0.523   0.526 -0.4506  0.7493 -0.1266
  137MOL0     O18363   5.820   0.566   0.468 -0.2740 -0.9629 -0.5931
  137MOL0     C18364   5.709   0.487   0.448  0.9941 -0.3867 -0.0475
  137MOL0     C18365   5.674   0.492   0.314  0.4358 -0.6236 -0.5998
  137MOL0     C18366   5.555   0.423   0.275 -0.1919  0.2924 -0.2494
  137MOL0     C18367   5.495   0.326   0.360 -0.6115  0.0253  0.3759
  137MOL0     O18368   5.381   0.258   0.317 -0.1234 -0.3299 -0.0014
  137MOL0     C18369   5.289   0.334   0.238 -0.0664  0.0102 -0.0604
  137MOL0     C18370   5.164   0.244   0.221  1.1976  0.3298 -0.5239
  137MOL0     C18371   5.039   0.288   0.310 -0.1177 -0.1057  0.8454
  137MOL0     C18372   4.974   0.418   0.257 -0.3304 -0.2025 -0.5161
  137MOL0     C18373   4.906   0.397   0.119  0.3982  0.3597 -0.6996
  137MOL0     C18374   4.763   0.321   0.115  0.1948 -0.0146  0.1921
  137MOL0     C18375   4.733   0.272  -0.019 -0.1876 -0.8813  0.2539
  137MOL0     C18376   4.595   0.208  -0.035 -0.7133 -0.5775  0.3318
  137MOL0     N18377   4.490   0.313  -0.050 -0.2825 -0.3393  0.2721
  137MOL0     C18378   4.490   0.428  -0.132 -0.1081 -0.7971 -1.1089
  137MOL0     C18379   4.365   0.478  -0.121  0.3568  0.7527  0.2663
  137MOL0     C18380   4.317   0.597  -0.195  0.0253  0.1385  0.2759
  137MOL0     C18381   4.410   0.716  -0.168 -0.8822  0.1762 -0.1065
  137MOL0     C18382   4.343   0.840  -0.228 -1.0884 -1.1049  0.0394
  137MOL0     C18383   4.433   0.970  -0.224  1.1129 -0.4518 -0.1525
  137MOL0     O18384   4.566   0.954  -0.278 -0.0559  0.0161 -0.5643
  137MOL0     C18385   4.673   1.023  -0.226  0.4771  0.2621  0.6428
  137MOL0     C18386   4.668   1.124  -0.129  0.3238  0.3037 -0.4436
  137MOL0     C18387   4.785   1.193  -0.094 -0.2509  0.0901 -0.3466
  137MOL0     C18388   4.908   1.175  -0.159 -1.1557 -0.6711 -0.0183
  137MOL0     C18389   5.032   1.258  -0.129 -0.6863  0.2112 -1.1828
  137MOL0     O18390   5.021   1.361  -0.040  0.3924  0.1938 -0.4982
  137MOL0     C18391   5.099   1.467  -0.022 -0.2417 -0.3698  0.7516
  137MOL0     C18392   5.217   1.500  -0.091  0.5100 -0.1564 -0.0333
  137MOL0     C18393   5.283   1.618  -0.063  0.1529  0.3310  0.5054
  137MOL0     C18394   5.219   1.715   0.009  0.0944 -0.1699  0.7166
  137MOL0     O18395   5.288   1.832   0.021 -0.3404  0.3296 -0.1260
  137MOL0     C18396   5.206   1.952   0.055  0.1488  0.4585 -0.4521
  137MOL0     C18397   5.282   2.081   0.066  0.8333 -0.1511  0.0742
  137MOL0     C18398   5.366   2.114  -0.059 -0.3621 -0.0344  0.5387
  137MOL0     C18399   5.476   2.213  -0.025  0.2109  0.4134 -0.3614
  137MOL0     C18400   5.589   2.213  -0.142 -0.2315 -0.1319 -0.6445
  137MOL0     C18401   5.702   2.303  -0.094  0.8551  0.1075 -0.2076
  137MOL0     C18402   5.790   2.320  -0.220  0.3506 -0.1771 -0.8778
  137MOL0     C18403   5.913   2.399  -0.178 -0.6319 -0.2190  0.3711
  137MOL0    Cl18404   6.043   2.362  -0.289  0.0861 -0.2609  0.3229
  137MOL0     C18405   5.099   1.689   0.085 -0.0897  0.1602  0.0775
  137MOL0     C18406   5.056   1.559   0.071 -0.9920 -0.1812  0.3298
  137MOL0     O18407   5.132   1.237  -0.197 -0.3623 -0.1918  0.2290
  137MOL0     C18408   4.914   1.067  -0.249  0.8792  0.2431  0.2291
  137MOL0     C18409   4.802   0.989  -0.281  0.0871 -1.0886  0.1183
  137MOL0     N18410   4.295   0.395  -0.038  0.4870 -0.5008 -0.1990
  137MOL0     N18411   4.370   0.302   0.010  0.6873 -0.9587 -0.0253
  137MOL0     C18412   5.533   0.325   0.497 -0.1501 -1.5725  0.1256
  137MOL0     C18413   5.637   0.411   0.541  1.0315 -0.1362  0.3271
  137MOL0     C18414   6.010   0.621   0.610  0.8211  0.1339  0.4483
  137MOL0     C18415   5.947   0.746   0.628  0.4423  0.9090  0.3115
  137MOL0     C18416   6.011   0.845   0.706 -0.1824  0.5444 -0.0815
  137MOL0     C18417   6.127   0.823   0.777  0.5576  0.0205  0.4263
  137MOL0     O18418   6.175   0.913   0.861  0.6578 -0.0333 -0.1384
  137MOL0     C18419   6.281   0.863   0.944 -1.8020  0.3540  0.2566
  137MOL0     C18420   6.319   0.955   1.055 -0.4361  1.4048 -0.4970
  137MOL0     C18421   6.359   1.083   1.003 -0.9509  0.4817 -0.0298
  137MOL0     C18422   6.478   1.086   0.897  0.0895  0.9193 -0.1825
  137MOL0     C18423   6.527   1.213   0.847 -0.3402 -0.6193  0.6942
  137MOL0     C18424   6.582   1.313   0.805  0.3384 -0.6806 -0.5909
  137MOL0     C18425   6.196   0.706   0.743 -0.3399 -0.4783 -0.2616
  137MOL0     C18426   6.143   0.609   0.660  0.3601 -0.4037  1.3995
  137MOL0     C18427   6.225   0.481   0.653 -0.4321  0.1680 -0.1655
  137MOL0     H18428   5.725   0.554   0.242 -0.1377 -1.1732 -1.4913
  137MOL0     H18429   5.535   0.422   0.168  2.4737  0.5303 -0.8131
  137MOL0     H18430   5.262   0.434   0.273 -0.2735  0.0031 -0.2004
  137MOL0     H18431   5.329   0.359   0.139 -2.5897  0.0749 -1.1189
  137MOL0     H18432   5.190   0.142   0.251  1.0491 -0.0856 -1.7328
  137MOL0     H18433   5.138   0.229   0.116  1.9534  2.9157 -1.1548
  137MOL0     H18434   5.089   0.312   0.404  1.0602 -1.7543  0.6639
  137MOL0     H18435   4.967   0.207   0.326  2.3615 -2.3552  1.3402
  137MOL0     H18436   4.910   0.475   0.325  2.2415  1.8716  0.3046
  137MOL0     H18437   5.057   0.482   0.226  0.2239 -1.8871 -2.8740
  137MOL0     H18438   4.883   0.497   0.080  0.7851 -0.1566 -2.3558
  137MOL0     H18439   4.984   0.352   0.056  0.8238  3.0361 -2.2204
  137MOL0     H18440   4.767   0.251   0.198  4.0583  1.4944  1.4930
  137MOL0     H18441   4.688   0.395   0.147 -0.3468 -0.4132 -0.1384
  137MOL0     H18442   4.815   0.204  -0.044  2.4376  3.5150 -5.2765
  137MOL0     H18443   4.754   0.354  -0.087  2.8184 -0.2066  1.8073
  137MOL0     H18444   4.606   0.143  -0.123  2.8344 -1.9783  1.6080
  137MOL0     H18445   4.577   0.139   0.048 -0.4212  1.8558  2.5431
  137MOL0     H18446   4.567   0.468  -0.197  0.6207 -1.8472 -0.9217
  137MOL0     H18447   4.300   0.590  -0.303 -2.8041  0.4336  0.6163
  137MOL0     H18448   4.219   0.612  -0.148  0.8558 -1.9042  2.9397
  137MOL0     H18449   4.424   0.732  -0.061 -1.3639  1.0698 -0.1640
  137MOL0     H18450   4.509   0.683  -0.201 -0.4623 -0.8381  2.0183
  137MOL0     H18451   4.252   0.861  -0.172 -0.6455 -1.3643  0.8782
  137MOL0     H18452   4.309   0.817  -0.329  0.7590 -2.3672 -0.3436
  137MOL0     H18453   4.429   1.006  -0.121 -0.4286 -1.4153  0.1533
  137MOL0     H18454   4.383   1.055  -0.273  1.3635  0.3679  0.9631
  137MOL0     H18455   4.573   1.140  -0.081 -0.3785 -1.2581 -1.2402
  137MOL0     H18456   4.782   1.273  -0.020  0.1182  0.2123 -0.4632
  137MOL0     H18457   5.260   1.429  -0.161 -2.9255 -1.7361 -0.7348
  137MOL0     H18458   5.385   1.641  -0.093 -0.7056  4.2348 -0.0576
  137MOL0     H18459   5.125   1.966  -0.018 -1.0516 -4.9451 -0.6049
  137MOL0     H18460   5.147   1.939   0.146 -2.8723  0.1963 -2.3017
  137MOL0     H18461   5.221   2.168   0.093 -0.5348  1.0427 -5.4635
  137MOL0     H18462   5.351   2.059   0.148 -0.0134 -0.9063  0.5964
  137MOL0     H18463   5.409   2.022  -0.097  1.4508  0.1229  2.0591
  137MOL0     H18464   5.304   2.162  -0.136 -0.7299 -2.0930 -0.5030
  137MOL0     H18465   5.526   2.194   0.070  0.1081 -0.8025 -0.5373
  137MOL0     H18466   5.432   2.313  -0.026 -2.5044 -0.5889 -4.3281
  137MOL0     H18467   5.547   2.260  -0.231  0.8634  2.4160  0.1069
  137MOL0     H18468   5.625   2.110  -0.154  0.8165 -0.1336  1.9341
  137MOL0     H18469   5.665   2.399  -0.057  0.0337 -0.9759  1.9359
  137MOL0     H18470   5.760   2.261  -0.012  2.2231  3.9171  0.9831
  137MOL0     H18471   5.728   2.365  -0.298  0.1613  0.9353 -0.1127
  137MOL0     H18472   5.826   2.221  -0.249 -2.1034 -1.6501  0.6970
  137MOL0     H18473   5.885   2.505  -0.180  0.3843  0.0758  1.0228
  137MOL0     H18474   5.943   2.373  -0.076 -2.3448 -0.8634  0.7429
  137MOL0     H18475   5.058   1.770   0.144 -0.8740  2.6029 -3.4670
  137MOL0     H18476   4.966   1.522   0.120 -0.0673 -3.2018 -0.0300
  137MOL0     H18477   5.009   1.037  -0.290  0.2188 -1.0140 -0.4434
  137MOL0     H18478   4.818   0.912  -0.356 -0.3789  0.8466 -2.0889
  137MOL0     H18479   5.477   0.253   0.554  0.4531 -3.6612 -1.7649
  137MOL0     H18480   5.665   0.412   0.646  1.0305  2.5037  0.3817
  137MOL0     H18481   5.843   0.754   0.598  0.6489  1.5651 -0.2571
  137MOL0     H18482   5.950   0.929   0.736  1.9259  2.6341 -1.3058
  137MOL0     H18483   6.379   0.846   0.898 -1.5368  1.6271  0.3307
  137MOL0     H18484   6.242   0.772   0.990 -0.1242  0.5133  2.1109
  137MOL0     H18485   6.402   0.908   1.109 -0.3467  0.5158 -1.3795
  137MOL0     H18486   6.247   0.971   1.136  1.1326 -0.6836  1.4558
  137MOL0     H18487   6.397   1.139   1.090  2.9875 -1.3913 -0.3526
  137MOL0     H18488   6.268   1.124   0.957 -1.7724  1.7441  2.5170
  137MOL0     H18489   6.567   1.050   0.950 -0.5523  2.0120  1.7502
  137MOL0     H18490   6.451   1.016   0.818  1.1243  0.4503 -0.1407
  137MOL0     H18491   6.611   1.411   0.773 -1.9412  0.4667  0.6159
  137MOL0     H18492   6.295   0.690   0.784 -0.0404  1.9723  0.1366
  137MOL0     H18493   6.315   0.486   0.715  0.8422  3.6685 -2.0785
  137MOL0     H18494   6.176   0.391   0.693  3.6138 -1.7006  1.1428
  137MOL0     H18495   6.264   0.471   0.552 -1.0826  1.1172 -0.5255
  138MOL0     O18496   4.198   2.500   5.975  0.4394 -0.9351  1.1255
  138MOL0     C18497   4.217   2.597   6.048 -0.2991  0.5901 -0.1318
  138MOL0     O18498   4.338   2.652   6.060 -0.6663 -0.6569  0.2808
  138MOL0     C18499   4.459   2.594   6.004 -0.2524  0.5076 -1.2093
  138MOL0     C18500   4.577   2.645   6.061 -0.1605 -0.2774 -0.2389
  138MOL0     C18501   4.703   2.627   6.006 -0.5086 -0.1264 -0.5837
  138MOL0     C18502   4.719   2.542   5.896 -1.0893  0.7512  0.2210
  138MOL0     O18503   4.851   2.524   5.849 -0.2305 -0.5397  0.1025
  138MOL0     C18504   4.848   2.493   5.708 -1.0580  0.5877 -0.7186
  138MOL0     C18505   4.992   2.493   5.667  0.2190  1.0833  0.0102
  138MOL0     C18506   5.078   2.382   5.726 -0.5873 -0.1118 -0.7240
  138MOL0     C18507   5.187   2.344   5.628 -0.8184  0.3538 -0.3750
  138MOL0     C18508   5.299   2.254   5.685  0.0156 -0.1565  1.0109
  138MOL0     C18509   5.357   2.302   5.814  0.0462 -0.1872  0.4376
  138MOL0     C18510   5.466   2.201   5.852  0.6782 -0.2370  0.4460
  138MOL0     C18511   5.555   2.274   5.952 -0.0433  0.4318 -0.2958
  138MOL0     N18512   5.671   2.200   5.987 -0.3549  0.5650 -0.1245
  138MOL0     C18513   5.777   2.167   5.901  0.3917  0.7471 -0.2797
  138MOL0     C18514   5.851   2.079   5.964  0.3283  0.5083  0.0386
  138MOL0     C18515   5.956   1.996   5.885  0.4172  0.7203 -0.1379
  138MOL0     C18516   6.081   2.077   5.868  0.0617  0.1461 -0.0799
  138MOL0     C18517   6.188   1.983   5.802  0.2848 -0.6010  0.6560
  138MOL0     C18518   6.309   2.072   5.753  0.8289  0.3412  0.8286
  138MOL0     O18519   6.360   2.131   5.874  0.6837 -0.3264  0.0295
  138MOL0     C18520   6.490   2.155   5.877 -0.2804 -0.6408 -0.4161
  138MOL0     C18521   6.541   2.286   5.876  0.7723  0.0306 -0.1195
  138MOL0     C18522   6.674   2.302   5.900 -0.2909  0.0857 -0.2035
  138MOL0     C18523   6.768   2.193   5.890  0.9856  0.5494 -0.1717
  138MOL0     C18524   6.912   2.214   5.887 -0.7095 -0.0981 -0.5483
  138MOL0     O18525   6.978   2.173   5.770 -0.2070  0.0316 -0.0246
  138MOL0     C18526   7.115   2.193   5.770 -0.1896  0.1279  0.9215
  138MOL0     C18527   7.174   2.278   5.676 -0.3660 -0.6899  0.4443
  138MOL0     C18528   7.311   2.269   5.654  0.0984 -0.2529  0.3460
  138MOL0     C18529   7.394   2.181   5.728 -0.7237  0.9727 -0.0195
  138MOL0     O18530   7.529   2.167   5.688 -0.0395 -0.5797 -0.3738
  138MOL0     C18531   7.610   2.089   5.776 -0.0202 -0.2050  0.1933
  138MOL0     C18532   7.755   2.092   5.710 -0.5587 -0.9501 -0.6609
  138MOL0     C18533   7.843   1.989   5.766 -0.1936  0.5525  0.0972
  138MOL0     C18534   7.816   1.841   5.727 -0.3597 -0.1328  0.6528
  138MOL0     C18535   7.869   1.811   5.591  0.4673 -0.2120  0.2428
  138MOL0     C18536   7.838   1.666   5.538  0.3810 -0.5474 -0.2898
  138MOL0     C18537   7.885   1.663   5.396  0.2963  0.8437 -0.1339
  138MOL0     C18538   7.875   1.517   5.332 -0.5390 -0.7005 -0.3776
  138MOL0    Cl18539   7.917   1.508   5.154 -0.0718 -0.6676  0.4325
  138MOL0     C18540   7.332   2.093   5.822  0.1566 -0.0015  0.3732
  138MOL0     C18541   7.196   2.109   5.846  0.2436 -0.1398 -0.6013
  138MOL0     O18542   6.964   2.262   5.990  1.0007 -0.3370  0.3283
  138MOL0     C18543   6.719   2.065   5.867 -1.3988  0.9615  0.2544
  138MOL0     C18544   6.577   2.048   5.873 -0.0612 -0.0334  1.6255
  138MOL0     N18545   5.800   2.056   6.089  0.1480 -0.0420 -0.6349
  138MOL0     N18546   5.689   2.128   6.104 -0.2188  0.6105 -0.3974
  138MOL0     C18547   4.601   2.472   5.850 -0.1918  0.3735 -1.0884
  138MOL0     C18548   4.479   2.496   5.907  0.4106  0.4507 -0.1772
  138MOL0     C18549   4.106   2.676   6.121  0.1127 -0.2211  0.1515
  138MOL0     C18550   4.138   2.785   6.203  0.6988 -0.7319 -0.1808
  138MOL0     C18551   4.035   2.867   6.260  0.8803 -0.3961 -0.2713
  138MOL0     C18552   3.900   2.831   6.246 -0.5607  0.1492 -0.3927
  138MOL0     O18553   3.802   2.905   6.307 -0.0023  0.2949  0.2299
  138MOL0     C18554   3.709   2.825   6.383  0.3947  0.9224 -1.2483
  138MOL0     C18555   3.704   2.880   6.529 -0.6215 -0.4348  0.8749
  138MOL0     C18556   3.829   2.834   6.610 -0.6629  0.4448  0.2889
  138MOL0     C18557   3.845   2.920   6.734  0.2605 -1.1304 -0.1560
  138MOL0     C18558   3.877   3.058   6.709 -0.0124 -0.5162 -0.7362
  138MOL0     C18559   3.918   3.171   6.676 -0.2857  0.6274  0.1509
  138MOL0     C18560   3.866   2.717   6.171  0.5984 -0.1604  0.7529
  138MOL0     C18561   3.970   2.641   6.107 -0.0345 -0.9447  0.0974
  138MOL0     C18562   3.928   2.527   6.017  0.0145  0.3394 -0.8332
  138MOL0     H18563   4.567   2.733   6.125  0.9938  0.4354 -0.9911
  138MOL0     H18564   4.782   2.687   6.049 -0.1683 -1.7837  1.2848
  138MOL0     H18565   4.803   2.396   5.684 -1.1172 -0.3201  2.5428
  138MOL0     H18566   4.790   2.570   5.656 -1.1240  0.7567 -0.3958
  138MOL0     H18567   5.035   2.592   5.683  1.5294  0.4366  0.6218
  138MOL0     H18568   4.979   2.483   5.559 -1.7497  1.3559  0.1780
  138MOL0     H18569   5.016   2.292   5.719  0.5350 -0.9375 -0.2960
  138MOL0     H18570   5.100   2.410   5.829 -2.1149 -2.9564  0.4961
  138MOL0     H18571   5.146   2.294   5.540  2.5920 -1.0181 -1.3448
  138MOL0     H18572   5.225   2.443   5.603 -1.9792  2.2506  4.2037
  138MOL0     H18573   5.251   2.157   5.702  0.9222 -0.6576  0.7217
  138MOL0     H18574   5.384   2.252   5.617  0.9328  2.7253  1.9269
  138MOL0     H18575   5.398   2.403   5.802 -1.0998  0.1966 -0.4488
  138MOL0     H18576   5.279   2.314   5.890 -0.3385 -0.0712  0.0270
  138MOL0     H18577   5.530   2.189   5.764  1.7896 -1.6031  1.4040
  138MOL0     H18578   5.432   2.102   5.883  1.4788 -1.1763 -1.5148
  138MOL0     H18579   5.582   2.367   5.902 -0.2837  0.8676  0.3797
  138MOL0     H18580   5.504   2.302   6.044 -2.5303 -0.1534 -1.4160
  138MOL0     H18581   5.792   2.187   5.795  1.7894 -1.8216 -0.6485
  138MOL0     H18582   5.977   1.899   5.933 -2.6739  0.9031  1.8393
  138MOL0     H18583   5.908   1.972   5.790 -2.2589  1.7420  0.8476
  138MOL0     H18584   6.061   2.165   5.806  0.0988  1.6743  1.9632
  138MOL0     H18585   6.124   2.113   5.961 -0.9491  1.5062 -0.1193
  138MOL0     H18586   6.143   1.920   5.725  0.6591  0.9009 -0.8707
  138MOL0     H18587   6.228   1.908   5.870  1.3380 -1.6543 -1.0440
  138MOL0     H18588   6.268   2.147   5.684 -0.8902 -1.8788 -0.6921
  138MOL0     H18589   6.384   2.012   5.700 -0.5668 -0.2618 -0.5447
  138MOL0     H18590   6.477   2.374   5.872  2.0554  1.0620  1.1061
  138MOL0     H18591   6.714   2.403   5.907  0.8243 -0.4624  2.2067
  138MOL0     H18592   7.123   2.330   5.595  0.2878  0.1735  0.5768
  138MOL0     H18593   7.361   2.327   5.577 -0.0604  1.5645  1.5378
  138MOL0     H18594   7.604   2.123   5.880  2.0729  0.0712  0.2625
  138MOL0     H18595   7.576   1.987   5.757 -4.9877  1.7979 -4.1613
  138MOL0     H18596   7.753   2.088   5.601  5.3117  0.4506 -1.1321
  138MOL0     H18597   7.802   2.191   5.720 -1.0311 -0.6793 -1.0764
  138MOL0     H18598   7.948   2.007   5.741 -0.4771 -0.4563 -1.9683
  138MOL0     H18599   7.833   1.989   5.875  4.3167  0.3384  0.7035
  138MOL0     H18600   7.708   1.824   5.722 -0.2208 -0.6973 -2.0962
  138MOL0     H18601   7.855   1.765   5.796  0.4148  0.6441  1.0835
  138MOL0     H18602   7.977   1.830   5.594  0.0280  3.1446 -0.7562
  138MOL0     H18603   7.823   1.880   5.520 -0.3302 -1.7494 -0.8077
  138MOL0     H18604   7.889   1.590   5.597 -3.6813 -2.4317  1.1828
  138MOL0     H18605   7.731   1.642   5.535  0.8783 -2.8917 -0.9032
  138MOL0     H18606   7.991   1.688   5.394  0.1775  1.2927 -2.0016
  138MOL0     H18607   7.825   1.737   5.342 -3.4834 -0.2233  2.2257
  138MOL0     H18608   7.949   1.450   5.378  0.3365 -1.5454 -2.8958
  138MOL0     H18609   7.775   1.483   5.359 -0.9295  0.7953  0.1757
  138MOL0     H18610   7.394   2.024   5.879 -0.0716 -2.0575 -1.7569
  138MOL0     H18611   7.150   2.053   5.928 -2.3966  2.0203 -0.4467
  138MOL0     H18612   6.785   1.979   5.861  0.0546  2.0781 -0.3090
  138MOL0     H18613   6.533   1.948   5.870 -0.2513  0.0646 -0.9953
  138MOL0     H18614   4.600   2.404   5.766  1.0365 -0.2717 -0.6097
  138MOL0     H18615   4.386   2.455   5.870 -0.2715  1.2917  0.5428
  138MOL0     H18616   4.241   2.811   6.227 -0.2250  0.5362  2.9291
  138MOL0     H18617   4.050   2.955   6.321 -1.8311  0.2218 -0.3653
  138MOL0     H18618   3.732   2.719   6.394 -2.1558  0.5764  2.1592
  138MOL0     H18619   3.612   2.828   6.332  0.2997 -1.0236 -1.2773
  138MOL0     H18620   3.613   2.842   6.576 -0.5446 -3.0799 -0.8886
  138MOL0     H18621   3.713   2.989   6.533 -1.5875 -0.3892  2.5780
  138MOL0     H18622   3.922   2.852   6.555 -0.7544 -1.0576 -0.3965
  138MOL0     H18623   3.823   2.728   6.636 -1.6716  0.0656 -1.3838
  138MOL0     H18624   3.750   2.902   6.785  0.6409 -4.5018 -0.3657
  138MOL0     H18625   3.904   2.879   6.817 -1.2025 -0.1156  1.4458
  138MOL0     H18626   3.964   3.263   6.648  0.0501  1.2790  2.6530
  138MOL0     H18627   3.764   2.685   6.150  0.6460 -1.2896  2.1246
  138MOL0     H18628   3.959   2.536   5.913  1.8976  0.0151 -0.3523
  138MOL0     H18629   3.945   2.425   6.053 -2.3742 -0.3094 -1.3901
  138MOL0     H18630   3.820   2.535   6.009  0.1622  0.6608 -3.2743
  139MOL0     O18631   8.590   8.025   9.792 -0.1893  0.2328  0.7819
  139MOL0     C18632   8.617   7.907   9.817  1.3238 -1.0392 -0.0411
  139MOL0     O18633   8.741   7.851   9.817  0.2082 -0.2421 -0.2974
  139MOL0     C18634   8.836   7.924   9.741 -0.5854  0.3883 -1.0425
  139MOL0     C18635   8.894   8.034   9.797 -0.4531  0.2903  0.4516
  139MOL0     C18636   9.015   8.089   9.752  1.0274  0.1707 -0.1603
  139MOL0     C18637   9.066   8.040   9.634 -0.6922 -0.0885  0.2158
  139MOL0     O18638   9.176   8.077   9.560 -0.9020  0.1405 -0.2897
  139MOL0     C18639   9.293   8.130   9.619  0.3865 -0.3937  1.3720
  139MOL0     C18640   9.276   8.286   9.600  0.5213 -0.0055 -0.1108
  139MOL0     C18641   9.273   8.328   9.452 -0.4480 -0.2465 -0.1484
  139MOL0     C18642   9.264   8.482   9.413  0.2362  0.9333  0.1088
  139MOL0     C18643   9.381   8.562   9.455  0.1173 -0.3447  0.1767
  139MOL0     C18644   9.498   8.530   9.363  0.3593 -0.1552 -0.5922
  139MOL0     C18645   9.628   8.602   9.407  0.6351  0.0352  0.6558
  139MOL0     C18646   9.623   8.746   9.352  0.4893 -0.9640  0.2239
  139MOL0     N18647   9.745   8.827   9.379  0.3242  0.0263  0.1237
  139MOL0     C18648   9.769   8.935   9.465  0.6939  0.4275 -1.6788
  139MOL0     C18649   9.888   8.990   9.432 -0.2182 -0.2405 -0.0462
  139MOL0     C18650   9.945   9.110   9.493 -0.2759 -0.4144  0.2453
  139MOL0     C18651  10.079   9.135   9.427  1.1163  0.2187 -0.6839
  139MOL0     C18652  10.128   9.267   9.486 -0.3138 -0.3933 -0.2986
  139MOL0     C18653  10.241   9.313   9.399 -0.2263 -0.4011  0.4030
  139MOL0     O18654  10.357   9.220   9.414  0.7243 -0.2890 -0.2015
  139MOL0     C18655  10.473   9.270   9.352  0.2169 -0.7501  0.4231
  139MOL0     C18656  10.494   9.393   9.290  0.2383 -0.2190  0.3999
  139MOL0     C18657  10.616   9.437   9.244  0.5883 -0.2119  0.0923
  139MOL0     C18658  10.728   9.356   9.247 -0.3565  0.0682  1.0110
  139MOL0     C18659  10.861   9.411   9.210 -0.5715 -0.4242 -0.4262
  139MOL0     O18660  10.969   9.336   9.242 -0.2550  0.0431 -0.5978
  139MOL0     C18661  11.099   9.368   9.224 -0.4667 -0.4988  0.9108
  139MOL0     C18662  11.151   9.492   9.175 -0.0784  0.1723 -0.2450
  139MOL0     C18663  11.289   9.503   9.175 -0.4689  0.2092  0.2432
  139MOL0     C18664  11.388   9.410   9.222  0.1047 -0.3212  0.4717
  139MOL0     O18665  11.522   9.412   9.203  0.4428 -0.3110 -0.1655
  139MOL0     C18666  11.581   9.544   9.183 -0.7197  0.4785  0.4509
  139MOL0     C18667  11.735   9.537   9.174 -0.2358 -0.2843  0.7212
  139MOL0     C18668  11.790   9.515   9.318 -0.0889  0.3184 -0.2341
  139MOL0     C18669  11.919   9.439   9.327 -0.0987  0.8227 -0.0338
  139MOL0     C18670  11.936   9.356   9.454  0.4830 -0.2392  0.4578
  139MOL0     C18671  12.070   9.283   9.462 -0.3807 -0.2866  0.5208
  139MOL0     C18672  12.165   9.378   9.539 -0.2089  0.3727  0.1714
  139MOL0     C18673  12.299   9.312   9.557 -0.2694 -0.1169 -0.0082
  139MOL0    Cl18674  12.426   9.432   9.576 -0.0881 -0.1302 -0.4179
  139MOL0     C18675  11.326   9.288   9.280 -0.5028 -0.3759  0.1130
  139MOL0     C18676  11.187   9.274   9.280  0.1775 -0.8174  0.2559
  139MOL0     O18677  10.864   9.518   9.141 -0.2207 -0.4662 -0.8122
  139MOL0     C18678  10.709   9.223   9.285  0.1371  0.0552 -0.4978
  139MOL0     C18679  10.584   9.181   9.336 -0.1904 -0.3436 -0.1626
  139MOL0     N18680   9.938   8.905   9.328 -0.1209 -0.5335 -0.1080
  139MOL0     N18681   9.861   8.810   9.306 -0.1511  0.7518 -0.0340
  139MOL0     C18682   8.996   7.928   9.569  0.4254  0.3638 -0.3130
  139MOL0     C18683   8.883   7.874   9.620  0.1891  0.1930 -0.7503
  139MOL0     C18684   8.504   7.823   9.842 -0.3573  0.2231  0.0967
  139MOL0     C18685   8.517   7.744   9.960  0.2220  0.0323  0.3600
  139MOL0     C18686   8.407   7.679  10.022 -0.7879  0.4823 -0.0412
  139MOL0     C18687   8.285   7.695   9.966  0.3946  0.1155 -0.1315
  139MOL0     O18688   8.189   7.627  10.034  1.3653 -0.2713  0.0680
  139MOL0     C18689   8.051   7.631   9.985 -0.2278 -0.2913 -0.1156
  139MOL0     C18690   8.019   7.541   9.866 -0.7202 -0.5258  0.0203
  139MOL0     C18691   8.010   7.388   9.900  0.3113 -0.2345  0.1283
  139MOL0     C18692   7.888   7.348   9.995  0.6038 -0.0846 -0.4863
  139MOL0     C18693   7.755   7.346   9.934 -0.5630 -0.2820  0.7735
  139MOL0     C18694   7.660   7.338   9.861  0.4154  0.0112 -0.7562
  139MOL0     C18695   8.271   7.758   9.843  0.1744 -0.3238 -0.5436
  139MOL0     C18696   8.376   7.830   9.781 -0.1266 -0.1140 -0.0436
  139MOL0     C18697   8.349   7.919   9.653  0.4844  0.4094 -0.1603
  139MOL0     H18698   8.848   8.066   9.890 -2.6745 -0.9332 -0.1512
  139MOL0     H18699   9.059   8.179   9.792 -0.6984  0.5222  1.0696
  139MOL0     H18700   9.310   8.100   9.723  0.5511  0.4554  1.5953
  139MOL0     H18701   9.376   8.090   9.560 -0.3722 -3.5291  2.2110
  139MOL0     H18702   9.353   8.340   9.656 -0.4468  1.5750 -0.2588
  139MOL0     H18703   9.179   8.303   9.647  0.7346  0.5608  0.1316
  139MOL0     H18704   9.196   8.268   9.402  1.7094 -0.3225 -3.6552
  139MOL0     H18705   9.365   8.289   9.408  0.2483  3.5777 -2.5494
  139MOL0     H18706   9.235   8.483   9.308 -0.6194 -2.4231  0.1985
  139MOL0     H18707   9.181   8.523   9.471  1.5309  1.6293  1.5444
  139MOL0     H18708   9.360   8.669   9.454 -1.9818 -0.7193  0.0766
  139MOL0     H18709   9.401   8.534   9.559 -1.2665 -1.7255  0.1106
  139MOL0     H18710   9.527   8.426   9.378  1.7837  0.6571  3.8483
  139MOL0     H18711   9.478   8.557   9.259 -0.8271  2.8257  0.2807
  139MOL0     H18712   9.710   8.548   9.358 -1.1831 -0.0179 -2.6077
  139MOL0     H18713   9.636   8.591   9.516  0.0929  0.7943  0.7841
  139MOL0     H18714   9.615   8.731   9.244 -0.6784 -3.5042  0.5817
  139MOL0     H18715   9.534   8.801   9.382  0.5623  2.2903 -4.3683
  139MOL0     H18716   9.714   8.978   9.547  4.3940 -0.8910  1.8516
  139MOL0     H18717   9.885   9.196   9.462  1.9835  0.5978 -1.6110
  139MOL0     H18718   9.961   9.110   9.602  0.8252  1.9672  0.1614
  139MOL0     H18719  10.135   9.043   9.445 -1.8234 -2.0196 -2.2548
  139MOL0     H18720  10.062   9.150   9.320 -2.5542  0.3688 -0.1965
  139MOL0     H18721  10.151   9.261   9.593 -3.4559  0.8379  0.5696
  139MOL0     H18722  10.052   9.346   9.483  1.5550  1.4735 -1.0802
  139MOL0     H18723  10.264   9.414   9.434 -1.4489 -0.0865  0.3452
  139MOL0     H18724  10.212   9.312   9.294  2.5885  0.9462 -0.4940
  139MOL0     H18725  10.411   9.459   9.270 -1.3293 -3.0212 -4.0384
  139MOL0     H18726  10.629   9.533   9.195  1.0385 -1.5282 -2.5252
  139MOL0     H18727  11.084   9.565   9.130 -0.0512 -0.8569 -2.0315
  139MOL0     H18728  11.323   9.591   9.122 -1.4892 -0.2766 -1.2789
  139MOL0     H18729  11.551   9.598   9.093  2.4119  1.7567  0.0385
  139MOL0     H18730  11.558   9.615   9.263 -1.1182  0.1593  0.6205
  139MOL0     H18731  11.760   9.442   9.125 -1.5735 -1.9556  3.0531
  139MOL0     H18732  11.758   9.635   9.132 -3.7291  0.3707 -0.0357
  139MOL0     H18733  11.788   9.615   9.361 -0.1901 -0.3767  1.4721
  139MOL0     H18734  11.715   9.451   9.366 -1.0282  1.4762 -0.1054
  139MOL0     H18735  12.007   9.504   9.317  1.3238 -0.3507  3.4194
  139MOL0     H18736  11.915   9.372   9.241  1.1734  1.3960 -0.5782
  139MOL0     H18737  11.851   9.288   9.442 -0.1774  0.7658 -0.8340
  139MOL0     H18738  11.921   9.424   9.538  1.0358  1.9568 -1.1191
  139MOL0     H18739  12.069   9.193   9.523 -2.3016  1.2455  2.9189
  139MOL0     H18740  12.120   9.252   9.369  1.2881  2.5014  0.3464
  139MOL0     H18741  12.124   9.407   9.636  2.3253  1.4422  1.0038
  139MOL0     H18742  12.189   9.462   9.472  0.4347 -0.5509 -0.7787
  139MOL0     H18743  12.292   9.247   9.645  0.0393  0.3985  0.4031
  139MOL0     H18744  12.316   9.245   9.472  0.1782 -3.5207  2.5595
  139MOL0     H18745  11.384   9.202   9.309  1.0945  0.4688 -0.4884
  139MOL0     H18746  11.154   9.178   9.319 -1.0033 -0.3306  0.4914
  139MOL0     H18747  10.800   9.164   9.275  0.3935  0.2026  0.7731
  139MOL0     H18748  10.581   9.076   9.364 -0.3532  0.2818  2.3613
  139MOL0     H18749   9.040   7.890   9.477 -0.1075 -0.2629 -0.3148
  139MOL0     H18750   8.830   7.792   9.571  0.1223 -0.0628 -0.2627
  139MOL0     H18751   8.616   7.739  10.006  0.7508 -0.9365 -0.8124
  139MOL0     H18752   8.420   7.638  10.121 -0.5877  4.4058  1.7444
  139MOL0     H18753   8.021   7.732   9.956  2.4600 -0.1237 -2.8343
  139MOL0     H18754   7.982   7.612  10.068  1.0354  1.7574  1.4919
  139MOL0     H18755   8.089   7.551   9.782 -1.0177 -4.8876 -0.9479
  139MOL0     H18756   7.920   7.571   9.830 -0.1655  1.0156 -0.3227
  139MOL0     H18757   8.105   7.366   9.950 -0.6109 -0.3021  1.9354
  139MOL0     H18758   8.004   7.345   9.800 -1.4912  3.9239 -1.7791
  139MOL0     H18759   7.902   7.249  10.039  0.2061  0.9443  2.0957
  139MOL0     H18760   7.887   7.417  10.080 -0.6377  1.4888 -1.7185
  139MOL0     H18761   7.568   7.319   9.810 -1.9254  3.8778  1.5153
  139MOL0     H18762   8.178   7.754   9.788  1.1306  0.7127 -2.3160
  139MOL0     H18763   8.307   8.013   9.689  1.4243  1.9872 -2.8843
  139MOL0     H18764   8.440   7.935   9.595  0.4240 -1.5083 -0.8638
  139MOL0     H18765   8.276   7.864   9.592  1.3280 -0.1198 -0.7148
  140MOL0     O18766   0.661   4.427   9.780 -0.8184  0.3709 -0.0924
  140MOL0     C18767   0.560   4.358   9.765 -0.1147  0.5052 -0.3626
  140MOL0     O18768   0.432   4.400   9.784 -0.7858 -0.7267 -0.1330
  140MOL0     C18769   0.410   4.516   9.862  0.3681  0.5076 -0.0264
  140MOL0     C18770   0.440   4.500   9.997 -0.9177  0.2577 -0.0978
  140MOL0     C18771   0.433   4.615  10.079 -0.0639  0.4134 -0.1782
  140MOL0     C18772   0.386   4.734  10.029 -1.0826 -0.6606 -0.7903
  140MOL0     O18773   0.398   4.841  10.111  0.3221 -0.2291  0.8923
  140MOL0     C18774   0.334   4.972  10.089  0.9848  0.2734  0.1539
  140MOL0     C18775   0.194   4.970  10.156 -0.2348 -0.5533 -0.1417
  140MOL0     C18776   0.121   5.098  10.128  0.3328  0.8088  0.1458
  140MOL0     C18777  -0.032   5.130  10.172 -0.1278 -0.0315  0.9712
  140MOL0     C18778  -0.117   5.007  10.198  0.6317 -0.4092  0.5442
  140MOL0     C18779  -0.091   4.927  10.322 -0.3495  0.0190 -0.2894
  140MOL0     C18780  -0.167   4.793  10.324  0.8401 -0.1831 -0.3204
  140MOL0     C18781  -0.108   4.697  10.431  0.4184  0.2755  1.0838
  140MOL0     N18782  -0.171   4.561  10.426  1.5148 -0.7802 -0.1629
  140MOL0     C18783  -0.146   4.443  10.358  0.1253 -0.2854 -0.4991
  140MOL0     C18784  -0.239   4.356  10.411 -0.0442 -0.0815  0.1966
  140MOL0     C18785  -0.247   4.205  10.389 -0.6355  0.5840 -0.9462
  140MOL0     C18786  -0.355   4.173  10.304  0.3141 -0.3861 -0.3256
  140MOL0     C18787  -0.381   4.030  10.292  0.4461  0.4578 -0.6679
  140MOL0     C18788  -0.277   3.961  10.196  0.1579  0.0901 -0.8007
  140MOL0     O18789  -0.314   3.987  10.059 -0.1346  0.0667  0.0969
  140MOL0     C18790  -0.224   3.962   9.958  0.1141 -0.1656  0.1908
  140MOL0     C18791  -0.104   3.889   9.969  0.2867  0.0726  0.6325
  140MOL0     C18792  -0.011   3.868   9.867 -0.5393 -0.1894  0.4763
  140MOL0     C18793  -0.029   3.947   9.754  0.2516 -0.1267 -0.5972
  140MOL0     C18794   0.076   3.944   9.649 -0.0090  0.6423  1.2070
  140MOL0     O18795   0.021   3.944   9.523 -0.2737  0.3809  0.7184
  140MOL0     C18796   0.105   3.953   9.417 -1.2472 -0.3634 -0.7357
  140MOL0     C18797   0.153   4.082   9.392  0.2217  0.2335  1.1271
  140MOL0     C18798   0.233   4.092   9.279  0.4319 -0.7234  1.1430
  140MOL0     C18799   0.268   3.983   9.203 -0.5260  1.0404  0.0056
  140MOL0     O18800   0.366   4.002   9.106 -0.6931 -0.0229  0.2128
  140MOL0     C18801   0.397   3.896   9.015 -0.8080 -0.3531 -0.3333
  140MOL0     C18802   0.286   3.859   8.921 -0.2713 -0.7065  0.0144
  140MOL0     C18803   0.245   3.987   8.852 -0.3174  0.1175 -0.5716
  140MOL0     C18804   0.143   3.950   8.739 -0.5273 -0.0042 -0.4539
  140MOL0     C18805   0.100   4.088   8.669  0.5569  0.4444 -0.0345
  140MOL0     C18806  -0.018   4.073   8.572  0.2212  0.0086  0.0632
  140MOL0     C18807  -0.155   4.082   8.642 -0.2186  0.5961 -0.0185
  140MOL0     C18808  -0.259   4.070   8.535  0.2513 -0.0045  1.1342
  140MOL0    Cl18809  -0.426   4.070   8.604  0.1868  0.2161  0.0820
  140MOL0     C18810   0.211   3.860   9.229  0.2709 -0.0298  0.1448
  140MOL0     C18811   0.126   3.840   9.336  0.3749 -0.1841 -0.3205
  140MOL0     O18812   0.192   3.949   9.676 -0.6574 -0.3989  0.6533
  140MOL0     C18813  -0.153   4.015   9.735  0.1194  0.9647  0.0093
  140MOL0     C18814  -0.247   4.027   9.837  0.0298  0.6231 -0.4011
  140MOL0     N18815  -0.335   4.419  10.486  1.0952 -0.6467 -0.7774
  140MOL0     N18816  -0.292   4.539  10.494 -0.3743  0.0102 -0.8057
  140MOL0     C18817   0.337   4.739   9.902  0.0850 -0.2642  0.1887
  140MOL0     C18818   0.347   4.629   9.812 -0.1880 -0.1869  0.3593
  140MOL0     C18819   0.584   4.225   9.708  0.1971  0.0752 -0.6452
  140MOL0     C18820   0.469   4.157   9.665 -0.3000 -0.7147 -0.1891
  140MOL0     C18821   0.474   4.038   9.598 -0.1903  0.4161 -0.0481
  140MOL0     C18822   0.600   3.976   9.564  0.6345 -0.8416 -0.5939
  140MOL0     O18823   0.620   3.853   9.496  0.3029 -0.5383 -0.0969
  140MOL0     C18824   0.509   3.783   9.454  0.2964 -0.0428  0.0695
  140MOL0     C18825   0.541   3.649   9.391 -0.6931  0.3416 -0.2394
  140MOL0     C18826   0.524   3.527   9.487  0.3272 -0.9200 -0.2880
  140MOL0     C18827   0.378   3.488   9.534 -0.5655  0.6367  0.2936
  140MOL0     C18828   0.271   3.484   9.427 -0.9946  1.4253  0.3459
  140MOL0     C18829   0.190   3.466   9.340  0.8963  0.7239 -0.3384
  140MOL0     C18830   0.719   4.050   9.601  0.1575 -0.6143 -0.1503
  140MOL0     C18831   0.709   4.165   9.680  0.8134 -0.0736 -0.7383
  140MOL0     C18832   0.843   4.215   9.726 -0.5459 -0.2411 -0.0694
  140MOL0     H18833   0.483   4.405  10.026  2.1467  1.7870  0.9081
  140MOL0     H18834   0.463   4.597  10.181  0.3275 -3.1195 -0.7817
  140MOL0     H18835   0.390   5.048  10.143  0.2136  0.8027  0.2217
  140MOL0     H18836   0.322   4.992   9.982  0.3630 -2.2428 -0.3104
  140MOL0     H18837   0.217   4.955  10.262 -3.2863  1.1792  0.8833
  140MOL0     H18838   0.140   4.883  10.118  2.9151 -2.6646 -0.1503
  140MOL0     H18839   0.112   5.086  10.020  1.5563 -2.1668  0.2946
  140MOL0     H18840   0.194   5.178  10.147  0.6774  0.7354 -0.8421
  140MOL0     H18841  -0.029   5.200  10.257 -1.7814  1.2576  0.0482
  140MOL0     H18842  -0.085   5.185  10.093  0.6318  0.2796  0.6730
  140MOL0     H18843  -0.222   5.038  10.208  0.5077 -0.9548  0.9505
  140MOL0     H18844  -0.103   4.947  10.107  0.8067 -1.0943  1.0213
  140MOL0     H18845   0.013   4.895  10.326  0.1668  1.7394  1.3118
  140MOL0     H18846  -0.105   4.987  10.412 -0.0719 -1.2894  0.6625
  140MOL0     H18847  -0.163   4.749  10.224  1.0441 -0.6054 -0.1331
  140MOL0     H18848  -0.273   4.810  10.341  0.9109  0.1271 -0.1825
  140MOL0     H18849  -0.002   4.687  10.407  0.1615  2.0006 -1.0748
  140MOL0     H18850  -0.124   4.735  10.532 -1.8513  0.5202  0.6736
  140MOL0     H18851  -0.064   4.436  10.287  1.6216  0.3043  1.0868
  140MOL0     H18852  -0.155   4.156  10.355  0.2842 -0.4130  2.5474
  140MOL0     H18853  -0.243   4.155  10.486 -0.5288  1.1314 -0.6631
  140MOL0     H18854  -0.445   4.224  10.340 -1.4056 -1.8788 -2.2970
  140MOL0     H18855  -0.326   4.217  10.208  0.3052  1.5877  0.5310
  140MOL0     H18856  -0.484   4.018  10.257 -0.1932  1.1325  0.8875
  140MOL0     H18857  -0.382   3.981  10.390 -2.6639  0.3114 -0.6896
  140MOL0     H18858  -0.287   3.854  10.217 -0.6412  0.7699  3.0258
  140MOL0     H18859  -0.175   3.993  10.220 -1.0433  5.0073 -1.1594
  140MOL0     H18860  -0.088   3.841  10.065  1.3339 -3.1066 -0.9842
  140MOL0     H18861   0.077   3.805   9.880 -0.6521 -0.3203  0.6057
  140MOL0     H18862   0.120   4.171   9.444 -1.0209 -1.1706  2.8723
  140MOL0     H18863   0.274   4.189   9.251 -1.1750 -0.1697  0.5955
  140MOL0     H18864   0.480   3.922   8.949 -0.2130 -0.7466  0.2582
  140MOL0     H18865   0.437   3.808   9.066 -2.2359 -1.2915 -0.7567
  140MOL0     H18866   0.322   3.781   8.854  0.2628 -2.1001  1.8485
  140MOL0     H18867   0.193   3.828   8.970 -2.4548  0.6091 -2.9370
  140MOL0     H18868   0.210   4.058   8.928 -0.0384 -1.0639  0.7089
  140MOL0     H18869   0.328   4.040   8.804  0.2860  2.0645  2.3972
  140MOL0     H18870   0.059   3.898   8.786  0.2918 -0.6398  0.3312
  140MOL0     H18871   0.200   3.889   8.668  1.5672  1.7937 -0.4073
  140MOL0     H18872   0.187   4.126   8.614  0.6004 -0.1823 -0.4081
  140MOL0     H18873   0.075   4.161   8.746 -1.3203 -0.2308  0.0504
  140MOL0     H18874  -0.008   4.149   8.494 -0.3136 -0.1104 -0.1237
  140MOL0     H18875  -0.016   3.979   8.515 -0.6221 -0.0237  0.0730
  140MOL0     H18876  -0.151   4.179   8.692  3.4412 -0.8339  2.9490
  140MOL0     H18877  -0.162   4.000   8.715  1.0975 -0.4438 -1.0294
  140MOL0     H18878  -0.255   4.156   8.468  1.9639  1.3314  2.8444
  140MOL0     H18879  -0.246   3.986   8.466 -0.4639 -0.3317  1.3952
  140MOL0     H18880   0.241   3.767   9.183  1.2128 -0.1602  0.9983
  140MOL0     H18881   0.062   3.751   9.337 -0.4671  0.4076 -0.1087
  140MOL0     H18882  -0.174   4.056   9.636  2.6425  1.3080 -0.4338
  140MOL0     H18883  -0.338   4.085   9.833  0.3374  1.3066  1.2676
  140MOL0     H18884   0.283   4.826   9.866 -0.8925 -0.0268  2.1157
  140MOL0     H18885   0.305   4.628   9.711  2.0524  0.0534 -0.6373
  140MOL0     H18886   0.369   4.193   9.686 -0.6462 -2.2362  0.9436
  140MOL0     H18887   0.389   3.994   9.549  0.6450 -1.3906  0.0271
  140MOL0     H18888   0.457   3.846   9.382 -0.3047 -1.5735 -0.8720
  140MOL0     H18889   0.435   3.773   9.535 -1.3601 -1.8135 -1.5659
  140MOL0     H18890   0.642   3.648   9.349 -1.1690 -0.9150 -1.4346
  140MOL0     H18891   0.474   3.639   9.305 -0.1059 -0.3234 -0.6231
  140MOL0     H18892   0.588   3.540   9.575  0.1002  1.0043 -0.3557
  140MOL0     H18893   0.564   3.446   9.425 -1.6086 -1.0619 -1.4287
  140MOL0     H18894   0.375   3.393   9.588  1.5552 -0.4958 -1.4297
  140MOL0     H18895   0.341   3.565   9.603 -0.1360  1.9551 -0.8861
  140MOL0     H18896   0.121   3.461   9.259  1.6666  0.7671 -1.0155
  140MOL0     H18897   0.813   4.013   9.562  0.0005 -0.0204 -1.1432
  140MOL0     H18898   0.922   4.140   9.729 -0.2802  0.0615  0.8940
  140MOL0     H18899   0.870   4.301   9.664  0.4752 -1.1206 -0.8817
  140MOL0     H18900   0.834   4.245   9.831  1.7568  0.9928 -0.1647
  141MOL0     O18901   6.735  10.579   6.362 -0.0132 -0.3644 -0.2632
  141MOL0     C18902   6.658  10.499   6.393  0.4846  0.7332 -0.3339
  141MOL0     O18903   6.665  10.373   6.345  0.5097 -0.2230  0.1930
  141MOL0     C18904   6.767  10.330   6.265 -0.4122 -0.0649 -0.4876
  141MOL0     C18905   6.778  10.374   6.129 -0.1911  0.2382  1.2015
  141MOL0     C18906   6.888  10.343   6.055 -0.6850 -0.4818 -0.2229
  141MOL0     C18907   7.004  10.273   6.101  0.6474 -0.2477 -0.2729
  141MOL0     O18908   7.126  10.243   6.039  0.3918  0.3074  0.5397
  141MOL0     C18909   7.134  10.269   5.901  0.6008 -0.1669 -0.2821
  141MOL0     C18910   7.276  10.235   5.853 -0.1769  0.2061  0.5674
  141MOL0     C18911   7.298  10.277   5.707  0.5107  0.7513  0.2845
  141MOL0     C18912   7.443  10.253   5.659 -0.3168  0.1413 -0.1296
  141MOL0     C18913   7.480  10.267   5.508 -0.1538 -0.2540  0.3409
  141MOL0     C18914   7.631  10.223   5.493  0.5432  1.0098  0.1303
  141MOL0     C18915   7.659  10.067   5.504 -0.9545 -0.1918 -1.3382
  141MOL0     C18916   7.783  10.033   5.420 -0.0704 -0.8097 -0.8278
  141MOL0     N18917   7.899  10.116   5.443 -0.9600 -0.0134 -0.8603
  141MOL0     C18918   7.927  10.179   5.567 -0.3326  0.2199  0.4800
  141MOL0     C18919   8.040  10.249   5.539  0.0150 -0.7323 -0.8944
  141MOL0     C18920   8.103  10.343   5.639 -0.0664 -0.5765  0.7741
  141MOL0     C18921   8.242  10.293   5.677  0.0903 -0.4792  0.2975
  141MOL0     C18922   8.304  10.365   5.791 -0.6090  0.0035 -0.8455
  141MOL0     C18923   8.241  10.344   5.931 -0.0552 -1.6315  0.0585
  141MOL0     O18924   8.311  10.411   6.040 -0.0441 -0.1625  0.2352
  141MOL0     C18925   8.441  10.372   6.053 -0.3447 -0.1296  0.2013
  141MOL0     C18926   8.541  10.459   6.107 -0.6847 -0.1641 -0.9027
  141MOL0     C18927   8.674  10.427   6.106 -0.2782  0.0737  0.1080
  141MOL0     C18928   8.723  10.307   6.059 -0.2264 -0.0310  0.8116
  141MOL0     C18929   8.869  10.271   6.068  0.2753 -0.4951  0.2201
  141MOL0     O18930   8.950  10.347   6.141 -0.4334 -0.0810 -0.0455
  141MOL0     C18931   9.072  10.289   6.169  0.5774  0.0149 -0.2451
  141MOL0     C18932   9.080  10.232   6.300  0.5793  0.0193 -0.3891
  141MOL0     C18933   9.209  10.181   6.351  0.1898 -0.4174  0.3909
  141MOL0     C18934   9.320  10.187   6.265 -0.6071 -0.3484 -0.7860
  141MOL0     O18935   9.440  10.131   6.277  0.6892  0.4262  0.3410
  141MOL0     C18936   9.437  10.005   6.342  0.1101  0.3900 -1.4107
  141MOL0     C18937   9.517  10.015   6.476  0.3378  0.0939 -0.3654
  141MOL0     C18938   9.663  10.056   6.462 -0.2197 -0.5441  0.2674
  141MOL0     C18939   9.769   9.971   6.534 -0.4544  1.0277 -0.3137
  141MOL0     C18940   9.915   9.980   6.471  0.0511 -1.0598 -0.6797
  141MOL0     C18941  10.014   9.912   6.566  0.5955  0.2382 -0.0342
  141MOL0     C18942  10.136   9.853   6.492  0.0266  0.8798 -0.7380
  141MOL0     C18943  10.093   9.751   6.386  0.3142 -0.3981  0.3453
  141MOL0    Cl18944   9.995   9.612   6.449 -0.2993 -0.5477  0.0073
  141MOL0     C18945   9.301  10.247   6.140 -0.8310  1.2706  0.1493
  141MOL0     C18946   9.185  10.308   6.096 -0.1436  0.8123 -0.3228
  141MOL0     O18947   8.901  10.173   6.003 -0.4768  0.1664 -0.1556
  141MOL0     C18948   8.627  10.216   6.006 -0.4484  0.3574  0.0214
  141MOL0     C18949   8.489  10.243   6.012 -0.2685 -0.3645 -0.9780
  141MOL0     N18950   8.080  10.223   5.410 -0.1732  0.0507  0.1980
  141MOL0     N18951   7.994  10.153   5.348 -0.3363 -0.9243  0.8837
  141MOL0     C18952   6.989  10.231   6.235  1.0346  0.2747 -1.1347
  141MOL0     C18953   6.875  10.256   6.316 -0.0094  0.1442 -0.4888
  141MOL0     C18954   6.544  10.551   6.471  0.4677 -0.6092 -0.3701
  141MOL0     C18955   6.417  10.482   6.458  0.4073 -0.8690 -0.6010
  141MOL0     C18956   6.302  10.527   6.528 -0.3270  0.2547 -0.8716
  141MOL0     C18957   6.299  10.646   6.599 -0.2588  0.5338 -0.1987
  141MOL0     O18958   6.181  10.701   6.649 -0.0927 -0.1405  0.5092
  141MOL0     C18959   6.180  10.717   6.786 -0.3511 -0.5553 -0.5801
  141MOL0     C18960   6.054  10.667   6.843 -0.0119 -1.1995  0.3313
  141MOL0     C18961   5.936  10.771   6.829 -0.8347  0.8469  0.7450
  141MOL0     C18962   5.803  10.724   6.774  0.3155 -0.7989 -0.8707
  141MOL0     C18963   5.692  10.819   6.784 -0.7186 -0.1369 -0.1514
  141MOL0     C18964   5.609  10.906   6.794  0.2169  0.0907  0.2603
  141MOL0     C18965   6.424  10.705   6.615  0.3499 -0.1196 -0.8153
  141MOL0     C18966   6.545  10.655   6.557  0.1231 -0.1578 -0.8853
  141MOL0     C18967   6.666  10.730   6.617 -0.0716 -0.4654  0.9148
  141MOL0     H18968   6.700  10.438   6.090  2.3261  1.3577 -2.4172
  141MOL0     H18969   6.886  10.377   5.952 -3.2784 -0.6573 -0.3064
  141MOL0     H18970   7.062  10.216   5.838 -1.2258  1.2753  0.4894
  141MOL0     H18971   7.107  10.372   5.879  0.5852 -0.4103 -1.4637
  141MOL0     H18972   7.297  10.130   5.871 -1.9207  0.0642  2.1871
  141MOL0     H18973   7.339  10.291   5.923  0.4160 -0.8929  0.9259
  141MOL0     H18974   7.282  10.385   5.714 -1.2692  0.4709  0.9873
  141MOL0     H18975   7.225  10.221   5.648 -0.9387 -0.0022  2.6370
  141MOL0     H18976   7.506  10.320   5.718  1.4159 -2.1439  0.7356
  141MOL0     H18977   7.468  10.150   5.685  0.6976  0.5688  0.6612
  141MOL0     H18978   7.414  10.213   5.439  1.1520  0.3983 -1.5059
  141MOL0     H18979   7.463  10.374   5.496  1.6489  0.1959  1.3674
  141MOL0     H18980   7.648  10.247   5.388 -0.9256  0.4264 -0.2702
  141MOL0     H18981   7.695  10.279   5.561  1.0226 -1.0702  1.4863
  141MOL0     H18982   7.577  10.010   5.460 -3.0469 -1.8030  3.9115
  141MOL0     H18983   7.655  10.028   5.605 -2.6488 -0.4372 -1.4769
  141MOL0     H18984   7.809   9.930   5.445  0.4895 -0.0555  2.1237
  141MOL0     H18985   7.756  10.033   5.314  2.4611 -1.3983 -1.5229
  141MOL0     H18986   7.880  10.161   5.663 -0.1728 -0.2276  0.4754
  141MOL0     H18987   8.122  10.438   5.590  3.5028  0.0323  2.8967
  141MOL0     H18988   8.042  10.348   5.730 -1.2462 -0.1886 -0.0317
  141MOL0     H18989   8.249  10.186   5.696  2.8897 -0.7316 -1.4620
  141MOL0     H18990   8.310  10.313   5.593  0.8404  0.7311  1.1451
  141MOL0     H18991   8.300  10.471   5.764 -0.5048  0.7220  1.6632
  141MOL0     H18992   8.411  10.348   5.784 -0.4058  0.6807  0.2435
  141MOL0     H18993   8.231  10.237   5.953 -0.4892 -2.0923 -2.1441
  141MOL0     H18994   8.142  10.391   5.925  1.4797  1.7981 -1.0414
  141MOL0     H18995   8.517  10.560   6.140  2.0674  0.1832  0.3001
  141MOL0     H18996   8.746  10.498   6.146 -0.5216  0.1267  0.4556
  141MOL0     H18997   8.987  10.228   6.355 -0.9319 -1.6395 -2.8580
  141MOL0     H18998   9.213  10.148   6.454 -0.6782 -1.4491  0.1117
  141MOL0     H18999   9.343   9.955   6.370  1.6575  0.4107  5.9566
  141MOL0     H19000   9.478   9.920   6.289  1.1124 -0.6896  0.9501
  141MOL0     H19001   9.462  10.079   6.545 -1.0495 -0.3935 -0.9721
  141MOL0     H19002   9.521   9.918   6.526  1.1144  1.0024  1.4113
  141MOL0     H19003   9.687  10.051   6.355 -2.4214 -2.7237 -0.2238
  141MOL0     H19004   9.653  10.161   6.490 -3.5066 -0.8325  0.6467
  141MOL0     H19005   9.745   9.865   6.527 -1.2514  1.2469 -0.9710
  141MOL0     H19006   9.784   9.999   6.638  0.2381 -2.2840  0.6048
  141MOL0     H19007   9.934  10.088   6.467 -0.4618 -0.9947 -1.5321
  141MOL0     H19008   9.916   9.933   6.372  0.4127  0.8255 -1.6110
  141MOL0     H19009  10.051   9.988   6.636 -0.1381  0.2758  0.3303
  141MOL0     H19010   9.968   9.832   6.623 -3.0454  2.6708  0.8255
  141MOL0     H19011  10.216   9.811   6.554  1.8163 -0.7877 -3.9291
  141MOL0     H19012  10.194   9.931   6.443  2.5443 -0.6501 -0.3781
  141MOL0     H19013  10.037   9.802   6.307 -3.0218 -1.2658  1.9711
  141MOL0     H19014  10.191   9.718   6.349  0.2103 -0.1875 -0.1331
  141MOL0     H19015   9.385  10.231   6.072 -2.5781 -1.4867 -1.6004
  141MOL0     H19016   9.172  10.365   6.004 -1.5400 -0.9805 -1.2971
  141MOL0     H19017   8.653  10.112   5.989 -1.1093  0.2123 -0.1227
  141MOL0     H19018   8.418  10.166   5.984 -3.8874  2.0214  0.8208
  141MOL0     H19019   7.074  10.180   6.277  2.2011  2.9379 -0.0318
  141MOL0     H19020   6.879  10.236   6.422 -1.8338  0.7244 -0.2808
  141MOL0     H19021   6.423  10.386   6.409  4.2175  1.0548 -4.5359
  141MOL0     H19022   6.208  10.474   6.518 -0.6596  1.2178 -3.5205
  141MOL0     H19023   6.195  10.823   6.807 -0.0409 -0.5005 -1.0515
  141MOL0     H19024   6.266  10.663   6.826  0.1332  0.6016 -0.0243
  141MOL0     H19025   6.059  10.633   6.947  1.8152 -2.5405 -0.1280
  141MOL0     H19026   6.024  10.578   6.787  1.1182 -1.1318 -0.4258
  141MOL0     H19027   5.972  10.846   6.759 -0.8686  0.9147  0.8008
  141MOL0     H19028   5.922  10.816   6.928  0.6373 -0.5432  1.6428
  141MOL0     H19029   5.831  10.695   6.672  3.4261 -1.9671  0.2009
  141MOL0     H19030   5.777  10.635   6.831  1.2667 -0.5282  0.0084
  141MOL0     H19031   5.522  10.967   6.806 -2.4095 -3.1843 -0.7811
  141MOL0     H19032   6.429  10.791   6.680  1.2506 -1.7076  1.3309
  141MOL0     H19033   6.743  10.665   6.658  0.0095 -0.7394  0.3331
  141MOL0     H19034   6.717  10.783   6.537 -3.4851 -0.0901 -1.2298
  141MOL0     H19035   6.631  10.791   6.701 -0.7731 -1.2532  1.2085
  142MOL0     O19036   8.392   7.685  10.439 -0.3594 -0.0399 -0.6329
  142MOL0     C19037   8.370   7.577  10.381  0.4130  0.8905  0.2069
  142MOL0     O19038   8.460   7.487  10.332  0.0162 -0.0662 -0.3618
  142MOL0     C19039   8.592   7.507  10.363  0.2130  0.5124  0.7376
  142MOL0     C19040   8.624   7.508  10.493 -0.3795  0.1574 -0.6778
  142MOL0     C19041   8.760   7.513  10.532 -0.6774  0.2990  0.0967
  142MOL0     C19042   8.857   7.523  10.434 -0.4291  0.4048 -0.4686
  142MOL0     O19043   8.995   7.514  10.457 -0.2988 -0.6949 -0.1436
  142MOL0     C19044   9.062   7.417  10.379  0.6585  0.0518  1.0210
  142MOL0     C19045   9.189   7.392  10.461  0.9153 -0.0634 -0.5540
  142MOL0     C19046   9.275   7.268  10.435 -0.4417 -0.8038  0.1598
  142MOL0     C19047   9.201   7.131  10.442 -0.2270 -0.0940  0.2285
  142MOL0     C19048   9.260   6.995  10.498  0.5660 -0.0043 -0.1943
  142MOL0     C19049   9.393   6.975  10.443 -0.2581  0.2629 -0.0187
  142MOL0     C19050   9.439   6.823  10.473 -1.0123 -0.1671 -0.5881
  142MOL0     C19051   9.414   6.786  10.619  1.5173  0.4342  0.4734
  142MOL0     N19052   9.517   6.827  10.714  0.5473 -0.0552 -0.4760
  142MOL0     C19053   9.519   6.928  10.807  0.0440 -0.5019 -0.0329
  142MOL0     C19054   9.643   6.938  10.849  0.5936  0.6563 -0.4784
  142MOL0     C19055   9.688   7.035  10.950 -0.1931  0.2682  0.5124
  142MOL0     C19056   9.735   7.160  10.878 -0.4466  0.1081  0.2476
  142MOL0     C19057   9.803   7.258  10.976 -0.0175 -0.4541  0.5212
  142MOL0     C19058   9.848   7.387  10.900 -0.2111 -1.1493 -0.5493
  142MOL0     O19059   9.934   7.355  10.785  0.2406  0.1217 -0.0144
  142MOL0     C19060  10.010   7.461  10.731  1.2318  0.1447  0.5428
  142MOL0     C19061  10.088   7.431  10.619 -0.0093 -0.0233 -0.1815
  142MOL0     C19062  10.155   7.524  10.541 -0.1419 -0.4387 -0.5083
  142MOL0     C19063  10.159   7.656  10.590  0.4887  0.1643  0.3839
  142MOL0     C19064  10.243   7.751  10.517 -0.0546  0.2627  0.2918
  142MOL0     O19065  10.176   7.861  10.485 -0.4248  0.2137  0.2552
  142MOL0     C19066  10.251   7.973  10.458  0.1463 -0.6903 -0.1251
  142MOL0     C19067  10.319   7.983  10.334  0.2668  0.5658 -1.2014
  142MOL0     C19068  10.388   8.101  10.292 -0.0574 -0.2806 -0.2293
  142MOL0     C19069  10.393   8.211  10.376 -0.3845 -0.1329  0.0111
  142MOL0     O19070  10.458   8.329  10.346 -0.0572  0.4013 -0.0825
  142MOL0     C19071  10.538   8.340  10.231  0.1783 -0.7877  0.1638
  142MOL0     C19072  10.597   8.475  10.237 -0.3974 -0.4369 -0.5629
  142MOL0     C19073  10.684   8.485  10.112  1.0257  0.2231 -0.3609
  142MOL0     C19074  10.725   8.626  10.085 -0.6188 -0.8179 -0.9579
  142MOL0     C19075  10.777   8.655   9.945  0.0535  0.6772 -1.4006
  142MOL0     C19076  10.880   8.773   9.932 -0.0489 -0.3338  0.0147
  142MOL0     C19077  11.012   8.765  10.018 -0.5551 -0.8393 -0.6646
  142MOL0     C19078  11.100   8.646   9.980  0.0817  0.6811 -1.0914
  142MOL0    Cl19079  11.221   8.596  10.104 -0.2702 -0.3945  0.1380
  142MOL0     C19080  10.338   8.193  10.509 -0.8548 -0.1772 -0.2211
  142MOL0     C19081  10.268   8.084  10.551  0.7448  0.6081 -0.2600
  142MOL0     O19082  10.349   7.703  10.461 -0.2123  0.5293  0.0868
  142MOL0     C19083  10.073   7.688  10.697 -0.9313 -0.5480 -1.3862
  142MOL0     C19084  10.004   7.597  10.768  0.4179  0.1918 -0.1525
  142MOL0     N19085   9.716   6.836  10.796 -0.1524  0.1296 -0.0130
  142MOL0     N19086   9.640   6.762  10.712 -0.3306  0.2833 -0.3142
  142MOL0     C19087   8.819   7.536  10.300  0.3624  0.1880 -0.4341
  142MOL0     C19088   8.686   7.515  10.260  0.0892 -0.4238  0.2667
  142MOL0     C19089   8.227   7.531  10.376  0.6194 -0.4735  0.4109
  142MOL0     C19090   8.203   7.395  10.395  0.2790 -0.7331 -0.9215
  142MOL0     C19091   8.071   7.345  10.371  0.2942 -0.1536 -0.4385
  142MOL0     C19092   7.965   7.432  10.344 -0.4812  0.3354 -0.3043
  142MOL0     O19093   7.843   7.386  10.313  0.1225  0.2220  0.6100
  142MOL0     C19094   7.791   7.254  10.343 -0.7297 -0.3327 -0.1186
  142MOL0     C19095   7.646   7.277  10.328  0.2888 -0.4846 -0.0863
  142MOL0     C19096   7.563   7.150  10.376  0.0959  0.5596 -0.3579
  142MOL0     C19097   7.407   7.178  10.345 -0.9299 -1.0151 -0.6857
  142MOL0     C19098   7.344   7.049  10.375 -0.1865 -1.1142 -0.0685
  142MOL0     C19099   7.291   6.953  10.420 -0.3542 -0.9473 -0.3216
  142MOL0     C19100   7.990   7.569  10.333 -0.3990  0.1046  0.2613
  142MOL0     C19101   8.117   7.624  10.345  0.0609 -0.5099 -0.5494
  142MOL0     C19102   8.133   7.780  10.328  0.0789 -0.8445 -0.3084
  142MOL0     H19103   8.543   7.485  10.563 -1.0950  1.1021 -1.1815
  142MOL0     H19104   8.784   7.503  10.637 -2.6036  0.8492  0.6204
  142MOL0     H19105   9.001   7.329  10.359  1.4754 -0.6419  1.5073
  142MOL0     H19106   9.090   7.457  10.281 -2.1446 -1.2631 -0.4283
  142MOL0     H19107   9.163   7.391  10.567  0.5413 -0.3578 -0.6468
  142MOL0     H19108   9.257   7.478  10.454  0.1040  0.6934  0.4454
  142MOL0     H19109   9.354   7.275  10.510  2.1311 -3.6160 -2.0456
  142MOL0     H19110   9.329   7.268  10.340  0.0711 -3.2914  0.3928
  142MOL0     H19111   9.119   7.143  10.513  0.0612 -2.0408  0.9477
  142MOL0     H19112   9.158   7.103  10.345 -1.2389 -4.3778  1.7076
  142MOL0     H19113   9.259   7.010  10.606  2.4182 -1.0401  0.0119
  142MOL0     H19114   9.198   6.912  10.462 -0.9301  2.0694 -2.8433
  142MOL0     H19115   9.390   6.998  10.336 -0.2758  0.9256  0.1219
  142MOL0     H19116   9.466   7.043  10.487 -1.2349  1.5281 -0.3132
  142MOL0     H19117   9.543   6.815  10.440 -1.2208 -2.7702 -0.7927
  142MOL0     H19118   9.375   6.755  10.416 -0.0084 -1.7308  0.1102
  142MOL0     H19119   9.309   6.807  10.642  0.7888 -0.0402 -2.0812
  142MOL0     H19120   9.425   6.677  10.617 -2.3739 -0.1990  2.7913
  142MOL0     H19121   9.435   6.984  10.846  0.3453 -0.2873  0.3047
  142MOL0     H19122   9.612   7.050  11.027 -0.4434 -1.8991  0.7312
  142MOL0     H19123   9.775   6.989  10.996 -0.0372  2.8053  3.0248
  142MOL0     H19124   9.792   7.140  10.788 -1.1862 -1.2346  0.0579
  142MOL0     H19125   9.639   7.204  10.847  0.1240  2.2473  1.3207
  142MOL0     H19126   9.900   7.214  11.000  1.3743  1.7374 -0.6668
  142MOL0     H19127   9.749   7.272  11.069 -0.8586 -1.8093  0.2535
  142MOL0     H19128   9.895   7.461  10.966 -0.2506 -1.6919  0.0969
  142MOL0     H19129   9.751   7.424  10.866 -0.7504 -3.5454 -1.8524
  142MOL0     H19130  10.091   7.324  10.601  0.0199 -0.2683  1.1700
  142MOL0     H19131  10.200   7.488  10.449  1.4572  3.0141 -1.2351
  142MOL0     H19132  10.321   7.900  10.264  2.7310  0.8711 -1.5638
  142MOL0     H19133  10.438   8.110  10.197 -0.7472  0.2318 -0.5500
  142MOL0     H19134  10.613   8.261  10.221  0.6597 -0.3116 -0.0381
  142MOL0     H19135  10.469   8.351  10.146 -0.9697 -1.2227  1.0226
  142MOL0     H19136  10.521   8.552  10.223  0.2994  0.0384 -2.0148
  142MOL0     H19137  10.657   8.497  10.326  1.7740  1.0186 -2.2692
  142MOL0     H19138  10.768   8.418  10.131  0.6655 -0.2274 -0.3457
  142MOL0     H19139  10.629   8.456  10.022  0.9981  0.1207 -0.3109
  142MOL0     H19140  10.803   8.644  10.159  0.3052  0.4305 -2.2079
  142MOL0     H19141  10.641   8.693  10.104 -0.6080 -0.6833 -1.3795
  142MOL0     H19142  10.696   8.671   9.873 -1.0850 -0.9704 -0.5475
  142MOL0     H19143  10.817   8.558   9.914 -3.8743 -1.2883 -0.8886
  142MOL0     H19144  10.912   8.782   9.827  2.7625 -0.0424  0.8046
  142MOL0     H19145  10.816   8.860   9.953 -4.0917 -2.2022 -3.1177
  142MOL0     H19146  10.988   8.763  10.124  0.5538  1.6252 -0.3049
  142MOL0     H19147  11.065   8.860  10.013 -1.0181 -0.6030 -1.1476
  142MOL0     H19148  11.030   8.563   9.969 -0.6671  0.8254  1.7296
  142MOL0     H19149  11.151   8.665   9.885  0.5850 -1.1095 -1.2074
  142MOL0     H19150  10.363   8.281  10.568  1.2866 -0.1170 -1.1397
  142MOL0     H19151  10.227   8.067  10.650 -1.8459  0.8798 -1.2033
  142MOL0     H19152  10.067   7.788  10.739 -1.1729 -0.9012 -0.5571
  142MOL0     H19153   9.948   7.624  10.857  0.2533  0.8793 -0.4618
  142MOL0     H19154   8.905   7.540  10.234  1.9530 -0.5950  1.4933
  142MOL0     H19155   8.647   7.489  10.162 -1.3289 -2.3683  1.2856
  142MOL0     H19156   8.275   7.324  10.436 -1.2077 -1.0257  1.3884
  142MOL0     H19157   8.049   7.241  10.392  3.4382 -0.2037  4.1851
  142MOL0     H19158   7.819   7.221  10.444 -3.3692  3.0896  1.9481
  142MOL0     H19159   7.819   7.178  10.269  0.5323  0.5679 -0.6119
  142MOL0     H19160   7.626   7.298  10.222 -2.8650  0.8756  0.6406
  142MOL0     H19161   7.619   7.370  10.380  0.4927 -1.8658  2.6501
  142MOL0     H19162   7.582   7.119  10.479  0.8934 -1.6428 -1.1000
  142MOL0     H19163   7.599   7.068  10.312  0.6228  0.1643  0.4207
  142MOL0     H19164   7.361   7.261  10.399  1.9280  1.8132 -2.2511
  142MOL0     H19165   7.404   7.208  10.239 -0.2970  1.5332 -0.0631
  142MOL0     H19166   7.243   6.863  10.451  0.4808 -1.3245 -0.0803
  142MOL0     H19167   7.903   7.631  10.315 -0.6147 -0.5455 -1.0327
  142MOL0     H19168   8.045   7.822  10.278 -1.4502 -0.3348  2.5721
  142MOL0     H19169   8.135   7.843  10.417 -1.3988 -0.4723 -0.5017
  142MOL0     H19170   8.220   7.805  10.268  0.2051  0.9578  0.5690
  143MOL0     O19171   4.412   5.557   2.149  0.6318 -0.5287  0.0362
  143MOL0     C19172   4.421   5.652   2.074  0.6591 -0.2831  0.3039
  143MOL0     O19173   4.534   5.710   2.030  0.5762  0.3825 -0.0176
  143MOL0     C19174   4.652   5.667   2.085 -0.4233  0.5768 -0.0886
  143MOL0     C19175   4.682   5.666   2.227 -0.5481  0.9563 -0.3944
  143MOL0     C19176   4.818   5.648   2.272  0.7428  0.0011  0.5802
  143MOL0     C19177   4.913   5.617   2.183 -0.5874  0.1097  0.4752
  143MOL0     O19178   5.036   5.588   2.245 -0.1823 -1.0039 -0.2984
  143MOL0     C19179   5.141   5.518   2.171 -0.1532  0.3493 -0.2235
  143MOL0     C19180   5.280   5.509   2.249  0.3977 -0.1729 -0.4948
  143MOL0     C19181   5.368   5.641   2.247  0.5037 -0.4346  1.2476
  143MOL0     C19182   5.334   5.728   2.366  0.6679 -0.1200 -0.8930
  143MOL0     C19183   5.430   5.843   2.375 -0.2882 -0.4706 -0.1893
  143MOL0     C19184   5.412   5.923   2.508  0.0926 -0.5382  1.2861
  143MOL0     C19185   5.537   6.000   2.535  0.0118 -0.3403 -1.3559
  143MOL0     C19186   5.510   6.063   2.677 -0.1563 -0.1943 -0.2995
  143MOL0     N19187   5.636   6.107   2.739  0.6144 -0.5860  0.0384
  143MOL0     C19188   5.746   6.141   2.664  0.6474  0.4031 -0.6753
  143MOL0     C19189   5.847   6.152   2.756 -0.4235  0.6210  0.1270
  143MOL0     C19190   5.987   6.188   2.721 -0.1070 -0.3585  0.5259
  143MOL0     C19191   6.068   6.216   2.849 -0.4939 -0.3527  0.0879
  143MOL0     C19192   6.206   6.278   2.813 -0.6004  0.8491 -0.4768
  143MOL0     C19193   6.295   6.175   2.742  0.9578  0.2249 -0.2341
  143MOL0     O19194   6.413   6.238   2.683  0.1039 -0.3474  0.0923
  143MOL0     C19195   6.512   6.153   2.641  0.3137  0.4950 -0.0610
  143MOL0     C19196   6.562   6.049   2.728  0.1035 -0.6533 -0.4003
  143MOL0     C19197   6.661   5.956   2.669  1.1370  0.2222 -0.6609
  143MOL0     C19198   6.710   5.969   2.534  0.4674 -1.1704 -0.0349
  143MOL0     C19199   6.787   5.864   2.461  0.0471  0.1618 -0.0026
  143MOL0     O19200   6.843   5.893   2.348  0.4545  0.3224 -0.0065
  143MOL0     C19201   6.926   5.800   2.281  0.3158  0.3350  0.4237
  143MOL0     C19202   6.870   5.700   2.198  0.6734  0.0569  0.1749
  143MOL0     C19203   6.950   5.605   2.131 -0.6510 -0.3101  0.6428
  143MOL0     C19204   7.090   5.608   2.152 -0.7156 -0.3428  0.2985
  143MOL0     O19205   7.169   5.529   2.069 -0.3039 -0.1234  0.0963
  143MOL0     C19206   7.304   5.573   2.054 -0.2665  0.2203  0.1097
  143MOL0     C19207   7.384   5.503   1.939  0.1625  0.6277  0.0192
  143MOL0     C19208   7.401   5.357   1.973 -0.0091  0.0745  0.2938
  143MOL0     C19209   7.456   5.279   1.844  0.3217  0.7588 -1.6056
  143MOL0     C19210   7.510   5.145   1.892  0.8395  0.6586  0.0061
  143MOL0     C19211   7.553   5.062   1.774 -0.7534 -0.2318 -0.0390
  143MOL0     C19212   7.630   4.934   1.826  0.3809 -0.1441 -0.7741
  143MOL0     C19213   7.699   4.880   1.704 -0.0613 -0.2216  0.6047
  143MOL0    Cl19214   7.596   4.815   1.573 -0.0180  0.3461 -0.0946
  143MOL0     C19215   7.143   5.703   2.242 -0.6397 -0.5617 -1.1033
  143MOL0     C19216   7.058   5.799   2.303 -0.6680 -0.5143  0.3322
  143MOL0     O19217   6.776   5.750   2.512  0.1302  0.6164  0.0069
  143MOL0     C19218   6.676   6.087   2.463  0.0921  0.1776 -0.5042
  143MOL0     C19219   6.571   6.169   2.513 -0.3106  0.0554  0.6237
  143MOL0     N19220   5.794   6.117   2.872  0.0510  1.0574 -0.3694
  143MOL0     N19221   5.675   6.086   2.867 -0.5301 -0.5664  0.1202
  143MOL0     C19222   4.886   5.597   2.046 -0.6933 -0.0788 -0.0320
  143MOL0     C19223   4.754   5.626   2.006  0.0035 -0.2030  0.1354
  143MOL0     C19224   4.310   5.717   2.013  0.2860 -0.1855 -0.1595
  143MOL0     C19225   4.312   5.764   1.880 -0.0236  0.2628  0.3671
  143MOL0     C19226   4.191   5.798   1.814 -0.5509  0.7128 -0.2027
  143MOL0     C19227   4.067   5.786   1.883  0.9821  1.0043  0.7464
  143MOL0     O19228   3.954   5.840   1.832 -0.3519 -0.2646 -0.7834
  143MOL0     C19229   3.918   5.822   1.702 -0.0011  0.0688 -0.6391
  143MOL0     C19230   3.874   5.678   1.672 -0.0527 -0.2745 -0.3759
  143MOL0     C19231   3.756   5.647   1.769  0.3171 -0.6398  0.2702
  143MOL0     C19232   3.702   5.505   1.743  0.3165  0.5270  0.6500
  143MOL0     C19233   3.637   5.503   1.608  0.6901  0.2167  0.8678
  143MOL0     C19234   3.576   5.495   1.500  1.1523 -0.6788  0.1182
  143MOL0     C19235   4.063   5.747   2.019  0.2895 -0.4035  0.4836
  143MOL0     C19236   4.183   5.726   2.085 -0.1576  0.0800  0.1132
  143MOL0     C19237   4.173   5.702   2.237  0.6463 -0.1603 -0.4989
  143MOL0     H19238   4.603   5.686   2.299 -2.0384 -1.0833 -1.3814
  143MOL0     H19239   4.843   5.679   2.373  0.0391 -1.2377  1.1571
  143MOL0     H19240   5.108   5.419   2.139 -1.2320  0.8723 -0.7778
  143MOL0     H19241   5.165   5.573   2.080 -1.5830  0.9237 -0.2857
  143MOL0     H19242   5.330   5.432   2.191 -0.2796  1.3792 -3.3288
  143MOL0     H19243   5.265   5.479   2.353 -1.1668  0.4404 -0.5165
  143MOL0     H19244   5.353   5.692   2.152  0.3687 -0.5025  1.2330
  143MOL0     H19245   5.475   5.619   2.248  0.9129  1.3617  0.5503
  143MOL0     H19246   5.232   5.764   2.354 -0.1138 -1.9403 -0.1242
  143MOL0     H19247   5.349   5.670   2.458 -0.0051 -0.9292 -1.2864
  143MOL0     H19248   5.531   5.801   2.378  0.3112  0.9340  1.7391
  143MOL0     H19249   5.414   5.908   2.289 -3.5629 -2.6692 -1.4528
  143MOL0     H19250   5.333   5.996   2.488  0.6289 -0.5929 -1.4225
  143MOL0     H19251   5.396   5.865   2.599  1.1039  0.9326  2.4469
  143MOL0     H19252   5.557   6.080   2.464 -0.9886  1.5404  0.3705
  143MOL0     H19253   5.624   5.935   2.551  1.6844  1.8156 -1.0853
  143MOL0     H19254   5.445   6.151   2.669 -0.3844 -0.4260 -1.0205
  143MOL0     H19255   5.455   5.998   2.746  1.6660 -2.7917 -1.1177
  143MOL0     H19256   5.757   6.156   2.558  1.9900 -2.8444 -1.1083
  143MOL0     H19257   6.028   6.102   2.668 -0.6226 -0.7431  0.7427
  143MOL0     H19258   5.995   6.276   2.656 -0.4275 -1.8624 -1.6509
  143MOL0     H19259   6.017   6.280   2.922  3.2786 -0.6036  3.2303
  143MOL0     H19260   6.084   6.131   2.916 -1.7005  0.3297  1.2972
  143MOL0     H19261   6.266   6.317   2.895  1.8318 -3.9218  0.3642
  143MOL0     H19262   6.192   6.359   2.740  1.4931  1.0258 -0.7314
  143MOL0     H19263   6.239   6.132   2.658 -0.5656  1.4434  0.1065
  143MOL0     H19264   6.310   6.098   2.818 -2.8014  0.6039  1.0788
  143MOL0     H19265   6.540   6.029   2.832  3.0968  0.3248  0.5244
  143MOL0     H19266   6.687   5.874   2.734 -2.3100 -0.4213  0.1226
  143MOL0     H19267   6.764   5.687   2.178  0.4858 -1.1052  1.7680
  143MOL0     H19268   6.911   5.532   2.060 -2.1173 -0.6151  1.7136
  143MOL0     H19269   7.297   5.677   2.022 -0.5126  0.4838  0.9975
  143MOL0     H19270   7.364   5.564   2.146 -0.0045  0.2049 -0.0610
  143MOL0     H19271   7.334   5.514   1.843  0.2764 -1.0711 -0.2698
  143MOL0     H19272   7.478   5.559   1.931 -0.6366  2.7600  3.3617
  143MOL0     H19273   7.463   5.351   2.063 -0.0969 -1.3120  0.2763
  143MOL0     H19274   7.310   5.302   1.998 -0.9030 -0.6817 -3.8753
  143MOL0     H19275   7.545   5.335   1.813  0.6265  0.7330 -0.7924
  143MOL0     H19276   7.383   5.266   1.763 -1.2858 -2.4850  0.1704
  143MOL0     H19277   7.440   5.086   1.951  0.5806  1.3882  0.4409
  143MOL0     H19278   7.581   5.170   1.972 -1.0170 -1.2888  2.4037
  143MOL0     H19279   7.465   5.023   1.722  1.1114 -0.1839 -3.5958
  143MOL0     H19280   7.618   5.118   1.706 -1.4091 -3.2231 -3.4633
  143MOL0     H19281   7.567   4.865   1.883 -3.2868  2.3365 -1.4643
  143MOL0     H19282   7.714   4.961   1.891  1.4119 -3.4643 -0.5637
  143MOL0     H19283   7.762   4.961   1.663  0.8578 -1.4648 -0.5180
  143MOL0     H19284   7.759   4.795   1.737 -1.0785 -1.5195 -0.7449
  143MOL0     H19285   7.249   5.709   2.265 -0.6834 -1.9476 -0.4434
  143MOL0     H19286   7.088   5.858   2.389 -0.7402  1.2545 -0.8196
  143MOL0     H19287   6.703   6.111   2.360 -1.8307  1.8023 -0.6889
  143MOL0     H19288   6.539   6.244   2.441 -1.3110 -0.6355  0.3194
  143MOL0     H19289   4.961   5.565   1.974 -0.9474  1.8039 -1.2059
  143MOL0     H19290   4.748   5.618   1.897 -1.7754 -2.8409  0.3334
  143MOL0     H19291   4.399   5.781   1.818 -0.2730  0.6617  0.1191
  143MOL0     H19292   4.192   5.842   1.715 -2.5285  4.6022  1.2613
  143MOL0     H19293   3.992   5.856   1.629  1.1713 -0.0700  0.4471
  143MOL0     H19294   3.838   5.892   1.674  0.3792  0.1859 -1.4670
  143MOL0     H19295   3.956   5.607   1.687 -1.1280 -0.9164  3.6636
  143MOL0     H19296   3.844   5.668   1.567 -1.8615 -2.0454  0.2264
  143MOL0     H19297   3.680   5.724   1.752 -0.5323 -1.4338  0.4201
  143MOL0     H19298   3.781   5.667   1.873 -0.6820  3.1270 -0.0626
  143MOL0     H19299   3.784   5.432   1.745 -0.7315 -0.6816  1.7347
  143MOL0     H19300   3.628   5.474   1.818 -0.8326  1.3637 -0.1058
  143MOL0     H19301   3.525   5.502   1.406 -1.4557 -0.5780  1.4260
  143MOL0     H19302   3.968   5.745   2.070  0.0877 -0.1207  0.1263
  143MOL0     H19303   4.209   5.601   2.258  0.8097 -0.0056 -0.0326
  143MOL0     H19304   4.247   5.767   2.284 -0.9825 -0.7338  3.1942
  143MOL0     H19305   4.072   5.713   2.277  0.6946 -0.7973 -0.1913
  144MOL0     O19306   8.809   2.257   4.065  0.4329  0.5292  0.5117
  144MOL0     C19307   8.849   2.320   3.967  0.6101 -0.3154 -0.2525
  144MOL0     O19308   8.979   2.349   3.950 -0.0513 -0.3404 -0.4808
  144MOL0     C19309   9.082   2.265   3.971  0.2435 -0.0269 -0.4535
  144MOL0     C19310   9.210   2.322   3.970  0.1038  0.4845 -0.0599
  144MOL0     C19311   9.318   2.239   3.987 -0.2360  0.3794 -1.0612
  144MOL0     C19312   9.305   2.108   4.019 -0.1288 -1.0855  0.9378
  144MOL0     O19313   9.417   2.036   4.028 -0.5202 -0.2968 -0.9021
  144MOL0     C19314   9.418   1.890   4.042 -0.1379  0.1283  0.7052
  144MOL0     C19315   9.563   1.841   4.048  0.9466 -0.3187  0.5615
  144MOL0     C19316   9.654   1.946   4.104  0.1228 -0.2056 -0.3950
  144MOL0     C19317   9.794   1.882   4.129 -1.6877 -0.8911  0.2254
  144MOL0     C19318   9.894   1.960   4.214  0.1377 -0.0656  0.2829
  144MOL0     C19319  10.026   1.897   4.211 -0.9745 -0.3533 -0.7503
  144MOL0     C19320  10.137   1.995   4.258  0.8641 -0.6709 -0.0212
  144MOL0     C19321  10.285   1.938   4.240 -0.2777  0.0753 -0.4160
  144MOL0     N19322  10.379   1.925   4.344  0.7227 -0.4402 -0.2189
  144MOL0     C19323  10.445   2.032   4.405  0.2989 -0.3158  0.2714
  144MOL0     C19324  10.544   1.972   4.476  0.6172 -0.2351 -0.2241
  144MOL0     C19325  10.654   2.035   4.558  0.1157  0.0086 -0.2191
  144MOL0     C19326  10.787   2.051   4.498  0.1468 -0.9130  0.4747
  144MOL0     C19327  10.884   2.115   4.591  0.4723 -0.3041 -1.4940
  144MOL0     C19328  11.021   2.097   4.529 -0.2179 -0.3429 -0.2391
  144MOL0     O19329  11.112   2.145   4.623  0.4263 -0.3562  0.2715
  144MOL0     C19330  11.242   2.154   4.597  0.4124 -0.1281  0.0044
  144MOL0     C19331  11.312   2.234   4.685 -0.3179 -0.0719  0.3937
  144MOL0     C19332  11.452   2.250   4.663  0.3555 -0.3328  0.0431
  144MOL0     C19333  11.511   2.193   4.556 -0.0044  1.4577 -0.0511
  144MOL0     C19334  11.659   2.201   4.543  0.0816  0.2400  0.9118
  144MOL0     O19335  11.714   2.122   4.444  0.2849 -0.4790  1.2961
  144MOL0     C19336  11.849   2.105   4.437  0.1551 -0.2196 -0.4955
  144MOL0     C19337  11.941   2.218   4.439 -0.1206  0.6239 -0.5791
  144MOL0     C19338  12.075   2.194   4.415 -0.0333 -0.7704  0.7202
  144MOL0     C19339  12.123   2.060   4.389  0.0550 -0.2336  0.0684
  144MOL0     O19340  12.258   2.051   4.356  0.4028  0.1706  0.0268
  144MOL0     C19341  12.295   2.101   4.224 -0.1053  0.6353  0.0694
  144MOL0     C19342  12.414   2.033   4.160  0.3188  0.0965  0.7031
  144MOL0     C19343  12.459   2.101   4.025  0.3865 -0.9935 -0.5510
  144MOL0     C19344  12.555   2.012   3.937  0.6806  0.5696 -0.3147
  144MOL0     C19345  12.617   2.087   3.818 -0.0949  0.2001  0.5989
  144MOL0     C19346  12.738   2.003   3.771 -0.2037 -0.5647  0.5267
  144MOL0     C19347  12.698   1.859   3.713  0.6716  0.1316  0.5857
  144MOL0     C19348  12.799   1.810   3.611 -0.0598  0.4151  0.5006
  144MOL0    Cl19349  12.737   1.690   3.503 -0.2080 -0.3334  0.3682
  144MOL0     C19350  12.029   1.954   4.395  0.0511  0.0845 -0.0203
  144MOL0     C19351  11.891   1.981   4.418  0.9301  0.0416  0.7499
  144MOL0     O19352  11.720   2.276   4.618 -0.0133  0.3006  0.0565
  144MOL0     C19353  11.432   2.109   4.470  0.1093 -0.0584  0.4271
  144MOL0     C19354  11.296   2.106   4.488 -0.1276  0.2379  0.1473
  144MOL0     N19355  10.537   1.838   4.471  0.1122  0.1600 -0.9852
  144MOL0     N19356  10.432   1.815   4.397 -0.1454 -0.3693 -0.2574
  144MOL0     C19357   9.178   2.055   4.020  0.4360 -0.1267  0.1899
  144MOL0     C19358   9.062   2.131   3.998  0.4189  0.0455  0.7499
  144MOL0     C19359   8.749   2.379   3.867  0.2957  0.8494 -0.5173
  144MOL0     C19360   8.609   2.364   3.903 -0.9227  0.1853  0.4404
  144MOL0     C19361   8.513   2.423   3.823 -0.6880  1.0306 -0.8758
  144MOL0     C19362   8.542   2.486   3.704 -0.0630  0.6020 -0.5966
  144MOL0     O19363   8.446   2.528   3.612 -0.2397 -0.2265  0.0563
  144MOL0     C19364   8.307   2.504   3.631 -0.0286  0.0268  1.0648
  144MOL0     C19365   8.214   2.579   3.524 -0.4422 -0.7896 -0.0776
  144MOL0     C19366   8.249   2.730   3.538  0.1819 -0.3020 -0.5703
  144MOL0     C19367   8.136   2.815   3.599  0.0269  0.2605 -0.4852
  144MOL0     C19368   8.020   2.811   3.513 -0.1507 -0.3233  0.3139
  144MOL0     C19369   7.926   2.810   3.444  0.4542 -0.3683  0.7560
  144MOL0     C19370   8.673   2.493   3.666 -0.9156 -0.0913  0.7491
  144MOL0     C19371   8.777   2.443   3.742 -0.2611 -0.1110  0.3657
  144MOL0     C19372   8.918   2.476   3.708  0.2149 -0.1186 -0.5283
  144MOL0     H19373   9.221   2.428   3.948 -0.1924  0.3164 -1.0363
  144MOL0     H19374   9.413   2.290   3.986  0.6465 -1.2144 -1.2427
  144MOL0     H19375   9.374   1.859   4.137 -1.3146  1.7098  0.7157
  144MOL0     H19376   9.372   1.830   3.963  2.9317 -1.2861 -0.1587
  144MOL0     H19377   9.601   1.809   3.950  2.3564  1.8370  0.3356
  144MOL0     H19378   9.558   1.757   4.117  0.4679 -1.3783 -0.7075
  144MOL0     H19379   9.625   1.984   4.202  1.7126  2.3195 -0.8017
  144MOL0     H19380   9.672   2.034   4.043  3.2246 -0.0184  0.5803
  144MOL0     H19381   9.773   1.796   4.193 -0.6053  0.3449  2.3770
  144MOL0     H19382   9.846   1.853   4.038  1.0831 -0.7355  1.6445
  144MOL0     H19383   9.900   2.066   4.186 -0.0635 -0.3275 -0.7858
  144MOL0     H19384   9.854   1.959   4.315  2.0872  0.3459  1.1090
  144MOL0     H19385  10.015   1.810   4.277  2.3769 -0.7380 -0.4972
  144MOL0     H19386  10.049   1.848   4.116 -0.5774 -1.4760 -0.0935
  144MOL0     H19387  10.126   2.008   4.366  1.2596 -4.3479  0.6023
  144MOL0     H19388  10.118   2.091   4.209 -0.4175 -0.8233  0.1553
  144MOL0     H19389  10.260   1.842   4.193 -4.0760  1.0816 -0.8077
  144MOL0     H19390  10.346   1.987   4.163  1.1090  0.5644  0.9640
  144MOL0     H19391  10.423   2.137   4.388  0.2355 -0.6554 -2.1583
  144MOL0     H19392  10.617   2.137   4.576 -2.0296 -0.1914 -2.7201
  144MOL0     H19393  10.654   1.992   4.658  0.2918 -2.0711 -1.0720
  144MOL0     H19394  10.812   1.954   4.454 -1.3264 -0.3190 -1.8206
  144MOL0     H19395  10.788   2.119   4.413 -0.8623  1.4118  2.2129
  144MOL0     H19396  10.885   2.070   4.691  1.7628 -1.2056 -1.8804
  144MOL0     H19397  10.862   2.221   4.606  2.2569  0.2157 -2.2980
  144MOL0     H19398  11.032   2.145   4.431 -2.3041  2.0023  0.5974
  144MOL0     H19399  11.040   1.990   4.514 -3.3987 -1.0437 -0.0043
  144MOL0     H19400  11.263   2.255   4.779 -1.0107 -0.8560  0.2246
  144MOL0     H19401  11.509   2.304   4.737  1.0618  1.3856 -1.6764
  144MOL0     H19402  11.906   2.319   4.459  0.9557  1.0095 -0.6123
  144MOL0     H19403  12.142   2.276   4.389  0.9410 -2.0057 -0.8031
  144MOL0     H19404  12.210   2.098   4.155 -1.1306  4.3797  0.9804
  144MOL0     H19405  12.326   2.204   4.245  0.9690 -0.0344  2.0444
  144MOL0     H19406  12.498   2.039   4.230 -1.0211 -0.9483  2.4593
  144MOL0     H19407  12.392   1.928   4.138  2.9071 -0.5722  0.9671
  144MOL0     H19408  12.377   2.131   3.961 -0.5465  1.6781  1.7148
  144MOL0     H19409  12.513   2.194   4.044  2.5936 -2.4626  0.9742
  144MOL0     H19410  12.489   1.935   3.897 -0.3276  1.7569 -1.0306
  144MOL0     H19411  12.625   1.956   3.999 -0.4485  0.6289  1.0750
  144MOL0     H19412  12.653   2.184   3.854  0.1158  0.7537 -1.0279
  144MOL0     H19413  12.550   2.104   3.733  1.0712 -0.8640 -0.5925
  144MOL0     H19414  12.798   2.054   3.695 -2.2414 -1.7039 -2.0334
  144MOL0     H19415  12.818   1.994   3.844  2.0303  0.5035 -1.6477
  144MOL0     H19416  12.603   1.882   3.663 -1.3514  1.0048  4.4211
  144MOL0     H19417  12.687   1.788   3.795 -0.0270  0.9925  1.2654
  144MOL0     H19418  12.824   1.891   3.542  3.5413  1.2391  2.4588
  144MOL0     H19419  12.900   1.801   3.654 -0.3246  0.1805  1.0768
  144MOL0     H19420  12.057   1.854   4.362  0.3587 -0.0136  0.5218
  144MOL0     H19421  11.808   1.910   4.416  0.2159  0.8626  0.2014
  144MOL0     H19422  11.479   2.058   4.386 -2.7305  0.2110 -1.4701
  144MOL0     H19423  11.243   2.058   4.406  2.4284  2.1531 -2.8153
  144MOL0     H19424   9.175   1.948   4.034  0.2474 -0.1955 -0.3673
  144MOL0     H19425   8.961   2.091   3.990  1.4633 -2.6166 -0.3762
  144MOL0     H19426   8.584   2.313   3.996  0.2231 -0.1777  0.5682
  144MOL0     H19427   8.417   2.419   3.874 -0.1100 -1.4832  0.1376
  144MOL0     H19428   8.272   2.545   3.726 -3.8560 -1.2157  0.3547
  144MOL0     H19429   8.287   2.397   3.627 -0.4151  0.1214 -1.3158
  144MOL0     H19430   8.107   2.559   3.534 -0.9472  1.4724 -0.5500
  144MOL0     H19431   8.233   2.540   3.423 -3.5639 -2.1697 -0.2522
  144MOL0     H19432   8.262   2.766   3.436  0.9253  0.5309 -0.1952
  144MOL0     H19433   8.340   2.755   3.593 -0.7853  3.7099 -0.4496
  144MOL0     H19434   8.108   2.765   3.692  1.3316 -2.0337 -1.2513
  144MOL0     H19435   8.165   2.920   3.606 -2.3179  1.0917 -1.9825
  144MOL0     H19436   7.851   2.810   3.367 -1.1535  4.1612  1.9748
  144MOL0     H19437   8.694   2.529   3.565  0.6680  1.7548  1.6553
  144MOL0     H19438   8.948   2.549   3.783  2.5366  0.4694 -1.9199
  144MOL0     H19439   8.985   2.390   3.721 -0.8825 -0.9977 -0.5332
  144MOL0     H19440   8.926   2.527   3.611 -1.2997  2.0463  0.4190
  145MOL0     O19441  11.021  10.731  10.085 -0.6507  0.0509  0.3541
  145MOL0     C19442  10.952  10.643  10.131  0.2983 -0.4818 -0.4254
  145MOL0     O19443  10.976  10.505  10.131 -0.1491  0.0855  0.4350
  145MOL0     C19444  11.090  10.479  10.065 -0.4092  0.2702  0.1337
  145MOL0     C19445  11.216  10.505  10.126  0.3168 -1.2261  1.0171
  145MOL0     C19446  11.336  10.485  10.061  0.2717  0.2347  0.2518
  145MOL0     C19447  11.335  10.441   9.925  0.7624 -0.2412 -1.2729
  145MOL0     O19448  11.445  10.413   9.857 -0.4074  0.5248  0.0426
  145MOL0     C19449  11.572  10.460   9.897 -0.4402  0.0930  0.2430
  145MOL0     C19450  11.673  10.419   9.799 -0.8473  0.3139  0.1472
  145MOL0     C19451  11.825  10.419   9.859 -0.3086 -0.0794 -0.1582
  145MOL0     C19452  11.919  10.321   9.790  0.2751 -0.6728 -0.2962
  145MOL0     C19453  12.058  10.324   9.831 -0.6010 -0.0403  0.5450
  145MOL0     C19454  12.135  10.460   9.849 -0.1902 -0.2221 -0.0985
  145MOL0     C19455  12.278  10.437   9.894 -0.6465  0.6369 -0.8215
  145MOL0     C19456  12.391  10.446   9.787  0.6509  0.5259  1.2828
  145MOL0     N19457  12.524  10.437   9.846  0.1380 -0.0772 -0.9999
  145MOL0     C19458  12.585  10.321   9.877  0.7920 -0.9024 -0.1682
  145MOL0     C19459  12.700  10.369   9.926  0.0049  0.6786  0.2331
  145MOL0     C19460  12.810  10.285   9.983 -0.3474 -0.4659  0.7654
  145MOL0     C19461  12.909  10.364  10.058  0.4140  1.1003 -0.1458
  145MOL0     C19462  12.998  10.461   9.975 -0.0191  0.0785 -0.3132
  145MOL0     C19463  13.131  10.504  10.035 -0.1795  0.5315  0.8164
  145MOL0     O19464  13.219  10.391  10.068  0.3208  0.2893  0.0214
  145MOL0     C19465  13.311  10.402  10.171  0.7885  0.0666  0.0800
  145MOL0     C19466  13.310  10.308  10.269 -0.3458 -0.2900 -0.0394
  145MOL0     C19467  13.388  10.319  10.384  0.2226  0.2870  0.0314
  145MOL0     C19468  13.482  10.423  10.398  0.6090 -0.3017 -0.6232
  145MOL0     C19469  13.565  10.431  10.517 -0.0770 -0.1789  0.5293
  145MOL0     O19470  13.641  10.548  10.533 -0.1132 -0.1373  1.5684
  145MOL0     C19471  13.751  10.561  10.607 -0.0468 -0.4678  0.5245
  145MOL0     C19472  13.786  10.473  10.716 -0.8842  0.3837 -0.2376
  145MOL0     C19473  13.905  10.508  10.782  1.4437  0.6229  0.9243
  145MOL0     C19474  13.998  10.603  10.738  0.0090 -0.4393 -0.1181
  145MOL0     O19475  14.118  10.597  10.806 -0.8129 -0.7414  0.6083
  145MOL0     C19476  14.202  10.715  10.821 -0.3595 -0.0213  0.3160
  145MOL0     C19477  14.313  10.710  10.912  0.1071 -1.2424  0.6922
  145MOL0     C19478  14.292  10.613  11.025  0.0261 -0.5391 -0.6817
  145MOL0     C19479  14.345  10.473  10.993 -1.1934  0.1486  0.8101
  145MOL0     C19480  14.315  10.373  11.100  0.5860  0.7576 -0.6971
  145MOL0     C19481  14.371  10.229  11.058  0.0398 -0.6882 -0.2779
  145MOL0     C19482  14.523  10.210  11.064  0.5284  0.1444 -0.1063
  145MOL0     C19483  14.561  10.076  11.006  0.1156  0.0290 -0.0115
  145MOL0    Cl19484  14.531   9.949  11.115  0.0704 -0.0389 -0.2919
  145MOL0     C19485  13.961  10.688  10.633  0.2153  0.2642 -0.2117
  145MOL0     C19486  13.829  10.673  10.574  0.3353 -0.2604  0.6513
  145MOL0     O19487  13.563  10.335  10.587 -0.0154  0.7079 -0.0425
  145MOL0     C19488  13.486  10.521  10.298  0.4662 -0.1265  0.2563
  145MOL0     C19489  13.395  10.511  10.188 -0.6210 -0.6646  0.2061
  145MOL0     N19490  12.689  10.510   9.952 -0.1088 -0.0793  0.4944
  145MOL0     N19491  12.577  10.554   9.906 -0.3493  0.1203  0.1423
  145MOL0     C19492  11.210  10.416   9.866 -0.2240 -0.6687 -0.8609
  145MOL0     C19493  11.086  10.428   9.937  0.5416 -0.0469 -0.0617
  145MOL0     C19494  10.852  10.690  10.214 -1.9068 -0.4336 -0.0969
  145MOL0     C19495  10.773  10.788  10.164  0.6103  1.0739  0.0397
  145MOL0     C19496  10.662  10.835  10.233 -0.1313  0.6950 -0.1128
  145MOL0     C19497  10.633  10.786  10.363 -0.1645  0.3019 -0.3858
  145MOL0     O19498  10.525  10.841  10.426 -0.2693  0.4782  0.1482
  145MOL0     C19499  10.459  10.769  10.531 -0.3882  0.3671 -1.0442
  145MOL0     C19500  10.318  10.797  10.526 -0.6142  1.2661  0.3695
  145MOL0     C19501  10.284  10.950  10.527 -1.0994  1.3879 -0.3656
  145MOL0     C19502  10.133  10.962  10.523 -0.0532  0.0057  0.8689
  145MOL0     C19503  10.097  11.106  10.514  0.2802  0.2388  0.2671
  145MOL0     C19504  10.055  11.217  10.518 -1.1697  0.0800  0.7041
  145MOL0     C19505  10.716  10.696  10.422 -0.2457 -0.2372 -0.4361
  145MOL0     C19506  10.819  10.641  10.344 -0.5064  0.5157 -0.4530
  145MOL0     C19507  10.896  10.541  10.417 -0.7352  0.3479  0.3388
  145MOL0     H19508  11.214  10.551  10.225 -4.2320  2.5581 -0.4517
  145MOL0     H19509  11.430  10.495  10.113  0.8145  1.6642 -0.9425
  145MOL0     H19510  11.572  10.569   9.889  0.5979  0.0954  0.0531
  145MOL0     H19511  11.604  10.435   9.999  0.6233 -1.6807 -0.4681
  145MOL0     H19512  11.687  10.479   9.709  0.6578  1.0793  0.8593
  145MOL0     H19513  11.644  10.319   9.765 -0.0932  0.1094  0.1028
  145MOL0     H19514  11.819  10.407   9.967 -0.0406  2.6224  0.2087
  145MOL0     H19515  11.865  10.520   9.845  0.5782 -0.6113 -1.7738
  145MOL0     H19516  11.890  10.218   9.812  1.8980 -1.2073 -0.5355
  145MOL0     H19517  11.912  10.331   9.681  3.2916 -1.4039 -0.6432
  145MOL0     H19518  12.050  10.273   9.927  0.8923 -2.2985 -0.4512
  145MOL0     H19519  12.112  10.255   9.766 -0.8919  0.7031 -0.5165
  145MOL0     H19520  12.114  10.526   9.765 -5.4664  2.3896  2.8056
  145MOL0     H19521  12.077  10.510   9.927 -1.9387  0.6497 -1.8779
  145MOL0     H19522  12.277  10.352   9.962  0.1143  0.5040 -0.9741
  145MOL0     H19523  12.309  10.516   9.964  1.9260  0.4820 -1.6890
  145MOL0     H19524  12.381  10.364   9.716  2.3471  4.1278 -3.6322
  145MOL0     H19525  12.378  10.536   9.726  0.0665  0.6088  1.5278
  145MOL0     H19526  12.544  10.228   9.839 -1.9636 -0.1457  0.7615
  145MOL0     H19527  12.763  10.210  10.047  0.5850 -0.6459  1.2656
  145MOL0     H19528  12.864  10.228   9.907  1.6183  1.7090  0.4087
  145MOL0     H19529  12.859  10.416  10.140  2.1665 -1.5134  2.7630
  145MOL0     H19530  12.968  10.285  10.105  0.0006 -0.0116 -1.4315
  145MOL0     H19531  12.931  10.544   9.949 -1.1119 -0.3861  0.9126
  145MOL0     H19532  13.026  10.414   9.880 -0.0690  0.7799 -0.6852
  145MOL0     H19533  13.111  10.561  10.126  1.3881 -1.4915  2.5517
  145MOL0     H19534  13.191  10.560   9.964 -4.4000  2.2333 -1.7305
  145MOL0     H19535  13.243  10.227  10.243 -0.8516  0.4171 -1.0072
  145MOL0     H19536  13.369  10.251  10.467 -0.8461 -0.2080 -0.5959
  145MOL0     H19537  13.739  10.380  10.746  1.5596 -1.5510 -1.9554
  145MOL0     H19538  13.944  10.442  10.859  2.6198  1.9452  1.5145
  145MOL0     H19539  14.229  10.759  10.725 -0.4674  3.3727  1.6866
  145MOL0     H19540  14.128  10.786  10.858 -3.5213 -4.1438  2.8243
  145MOL0     H19541  14.408  10.691  10.860 -0.2801  2.0836 -1.5602
  145MOL0     H19542  14.331  10.809  10.955 -3.6228 -0.6297  1.1522
  145MOL0     H19543  14.342  10.644  11.117 -1.4158 -1.6935  0.5403
  145MOL0     H19544  14.186  10.612  11.051 -0.1065 -0.4678 -1.2118
  145MOL0     H19545  14.454  10.479  10.988 -1.0743 -0.9417  1.7701
  145MOL0     H19546  14.305  10.432  10.900  1.2126 -0.9871  0.1806
  145MOL0     H19547  14.208  10.359  11.116  1.1285 -1.5163  1.4528
  145MOL0     H19548  14.370  10.387  11.193  0.6342 -2.1795 -0.1962
  145MOL0     H19549  14.328  10.157  11.128 -1.5140 -2.5021 -2.9692
  145MOL0     H19550  14.332  10.207  10.959 -3.9177 -1.9834  1.3407
  145MOL0     H19551  14.556  10.208  11.169 -0.3530  0.5208  0.1863
  145MOL0     H19552  14.572  10.284  11.001 -3.7447  2.4678 -1.1005
  145MOL0     H19553  14.514  10.063  10.908 -0.3425 -0.3451  0.2580
  145MOL0     H19554  14.670  10.079  10.999  0.1565  0.2910  0.6262
  145MOL0     H19555  14.030  10.765  10.599 -2.6258  1.4731 -3.9513
  145MOL0     H19556  13.787  10.739  10.499  0.2996  0.9509  1.6883
  145MOL0     H19557  13.557  10.602  10.303 -0.9382  1.1258  0.4683
  145MOL0     H19558  13.394  10.595  10.119 -0.8583 -1.7792 -1.1972
  145MOL0     H19559  11.201  10.371   9.768 -0.9929  1.2809 -1.7365
  145MOL0     H19560  10.998  10.393   9.884  1.7409 -2.6768 -0.4460
  145MOL0     H19561  10.783  10.851  10.076 -1.1003 -0.0153 -0.9875
  145MOL0     H19562  10.611  10.923  10.195 -2.7938  0.2958  2.1840
  145MOL0     H19563  10.507  10.791  10.626  1.0975 -1.2547 -1.3673
  145MOL0     H19564  10.464  10.660  10.518  3.3445  0.5657 -2.1998
  145MOL0     H19565  10.279  10.757  10.620 -3.5044  4.5727  0.7723
  145MOL0     H19566  10.286  10.741  10.437 -1.4806  2.2831  0.0236
  145MOL0     H19567  10.335  10.998  10.443  2.9681  0.2663  1.2245
  145MOL0     H19568  10.330  10.996  10.614  0.4874  1.8291 -1.3937
  145MOL0     H19569  10.090  10.913  10.436  2.1469 -0.9597  0.2644
  145MOL0     H19570  10.095  10.923  10.618  1.5685 -1.2852  1.0293
  145MOL0     H19571  10.017  11.317  10.524 -0.3665  0.6980 -2.7594
  145MOL0     H19572  10.713  10.670  10.527  1.5322 -0.1934 -0.3391
  145MOL0     H19573  10.854  10.443  10.392  0.0663 -0.2732  1.3847
  145MOL0     H19574  11.000  10.524  10.389 -1.3435 -1.5936 -0.9770
  145MOL0     H19575  10.888  10.549  10.525  1.5102 -0.5260  0.6192
  146MOL0     O19576   6.672  10.644   2.899  0.0336 -0.2117 -0.4654
  146MOL0     C19577   6.766  10.581   2.946  0.4342  0.4380  0.1888
  146MOL0     O19578   6.755  10.478   3.028 -0.3642 -0.3089  0.4382
  146MOL0     C19579   6.639  10.451   3.103 -0.2454  0.0658 -0.0614
  146MOL0     C19580   6.622  10.317   3.126  0.5567 -0.0827  0.2906
  146MOL0     C19581   6.517  10.273   3.209  0.7885  0.3774  0.2327
  146MOL0     C19582   6.439  10.366   3.278 -0.6058 -0.6633 -1.1336
  146MOL0     O19583   6.343  10.322   3.359 -0.6350 -0.3752 -0.3552
  146MOL0     C19584   6.242  10.260   3.273  0.2386 -0.1777 -0.5839
  146MOL0     C19585   6.097  10.256   3.341  0.4208  0.1895  0.1727
  146MOL0     C19586   6.014  10.389   3.338  0.0644  1.2631  0.6462
  146MOL0     C19587   5.865  10.367   3.326 -0.0512  0.5185 -0.2974
  146MOL0     C19588   5.765  10.483   3.361  0.1329  0.7825 -0.0538
  146MOL0     C19589   5.794  10.612   3.291 -0.1348 -0.1454 -0.5322
  146MOL0     C19590   5.760  10.593   3.149 -0.2671  0.2589 -0.3229
  146MOL0     C19591   5.692  10.719   3.082 -0.2939  0.3019  1.2733
  146MOL0     N19592   5.569  10.757   3.151  0.9140 -0.1239 -0.2556
  146MOL0     C19593   5.455  10.680   3.148 -0.4018 -0.0657 -0.2233
  146MOL0     C19594   5.358  10.733   3.224 -0.4014 -0.1950 -0.0842
  146MOL0     C19595   5.221  10.695   3.229  1.1590  0.7734 -0.9561
  146MOL0     C19596   5.157  10.714   3.368 -0.3825  0.2053  0.5644
  146MOL0     C19597   4.999  10.715   3.383  0.6720 -0.2330  0.2241
  146MOL0     C19598   4.950  10.812   3.489  0.0876  0.1696  0.2702
  146MOL0     O19599   4.806  10.825   3.500  0.0222  0.5764 -0.3173
  146MOL0     C19600   4.754  10.891   3.611  0.0605 -0.5641  0.3132
  146MOL0     C19601   4.628  10.853   3.657 -0.7750  0.6351  0.5428
  146MOL0     C19602   4.569  10.919   3.764  0.1328  0.6050  0.0203
  146MOL0     C19603   4.633  11.029   3.830 -0.0409 -0.9503 -0.2368
  146MOL0     C19604   4.572  11.109   3.936  0.4889 -0.1230  1.2071
  146MOL0     O19605   4.637  11.218   3.984 -0.4500 -0.0384 -0.0189
  146MOL0     C19606   4.583  11.309   4.071  0.5164 -0.6411  0.7218
  146MOL0     C19607   4.653  11.425   4.082  0.2139 -0.0152  0.2291
  146MOL0     C19608   4.602  11.532   4.143 -0.3918  0.7578  0.0848
  146MOL0     C19609   4.497  11.519   4.228  0.1472 -0.7326  1.0200
  146MOL0     O19610   4.454  11.629   4.293  0.4074 -0.2702 -0.3572
  146MOL0     C19611   4.318  11.685   4.261 -0.3739 -0.6086  0.5592
  146MOL0     C19612   4.310  11.825   4.322 -0.8345  1.0567 -0.2800
  146MOL0     C19613   4.172  11.843   4.380 -0.2612  0.7862  0.1765
  146MOL0     C19614   4.132  11.989   4.393 -0.7160 -0.3912  0.0466
  146MOL0     C19615   3.979  12.013   4.402 -0.2573 -0.9368  0.3920
  146MOL0     C19616   3.953  12.169   4.426  1.5691 -0.3085 -0.4828
  146MOL0     C19617   3.804  12.208   4.423  0.7980  0.0836 -0.0916
  146MOL0     C19618   3.768  12.338   4.363  0.1123  0.4617 -0.0367
  146MOL0    Cl19619   3.596  12.376   4.365 -0.0511  0.0683 -0.1050
  146MOL0     C19620   4.425  11.399   4.234  0.0234  0.2455  0.6525
  146MOL0     C19621   4.470  11.294   4.149 -0.1705  0.1228 -0.2276
  146MOL0     O19622   4.464  11.077   3.977  0.1085  0.2960 -0.2692
  146MOL0     C19623   4.763  11.062   3.779  0.8870  0.2273  0.7477
  146MOL0     C19624   4.820  10.993   3.674  0.5592  0.0673 -0.3490
  146MOL0     N19625   5.418  10.849   3.276 -0.0155 -0.4721 -0.3424
  146MOL0     N19626   5.544  10.859   3.241 -0.4453  0.2069 -0.0554
  146MOL0     C19627   6.459  10.501   3.243 -0.3006 -0.0546 -0.9662
  146MOL0     C19628   6.556  10.546   3.149  0.1751  0.0587 -0.7547
  146MOL0     C19629   6.900  10.653   2.942  0.8251 -0.4319  0.1767
  146MOL0     C19630   6.920  10.762   2.848 -0.0080 -0.6925 -0.2580
  146MOL0     C19631   7.031  10.843   2.853  0.5630 -0.1215 -0.3657
  146MOL0     C19632   7.131  10.810   2.941 -0.5056  0.2268  0.0592
  146MOL0     O19633   7.258  10.866   2.932  0.0412  0.4832 -0.3139
  146MOL0     C19634   7.272  10.991   2.870 -0.1173  0.4742  0.5321
  146MOL0     C19635   7.429  11.011   2.865  0.3581 -0.3890 -0.0845
  146MOL0     C19636   7.467  11.162   2.868 -0.6384  0.0941 -0.4196
  146MOL0     C19637   7.602  11.161   2.932  0.6347 -0.3409 -0.1131
  146MOL0     C19638   7.623  11.298   2.996 -0.1576 -0.2299 -0.0811
  146MOL0     C19639   7.638  11.409   3.043  0.2346 -1.2513  0.3142
  146MOL0     C19640   7.114  10.701   3.031 -0.7813  0.3130  0.2103
  146MOL0     C19641   6.996  10.629   3.040  0.1675 -0.1418  0.3080
  146MOL0     C19642   6.979  10.539   3.157  0.3722  0.2707  0.6997
  146MOL0     H19643   6.686  10.234   3.097  1.0610  1.2630 -2.8656
  146MOL0     H19644   6.496  10.167   3.213  2.2948  0.0275 -0.3539
  146MOL0     H19645   6.235  10.311   3.177  1.6727 -1.3858 -1.3734
  146MOL0     H19646   6.271  10.157   3.250  2.2284 -0.3172  2.1399
  146MOL0     H19647   6.104  10.220   3.444  0.1810  2.3631  1.0030
  146MOL0     H19648   6.032  10.191   3.281  1.1468 -0.1858 -0.2228
  146MOL0     H19649   6.043  10.444   3.248  0.4888  1.9556  1.1963
  146MOL0     H19650   6.042  10.455   3.421  2.1643 -0.7035  1.5768
  146MOL0     H19651   5.839  10.326   3.228  1.2025 -3.3754  0.8424
  146MOL0     H19652   5.832  10.282   3.387  2.7584 -0.2529  0.2753
  146MOL0     H19653   5.668  10.440   3.336  0.7881 -1.1599  0.5443
  146MOL0     H19654   5.759  10.503   3.468  0.2446  0.1260  0.0790
  146MOL0     H19655   5.724  10.669   3.352  2.2758 -0.2858  2.5852
  146MOL0     H19656   5.898  10.644   3.302 -0.6151  1.4128 -0.2997
  146MOL0     H19657   5.698  10.504   3.138  0.3959 -0.4181  1.1771
  146MOL0     H19658   5.854  10.572   3.097  0.0880  1.7283 -0.3297
  146MOL0     H19659   5.765  10.800   3.072 -0.7098  0.9228  3.0161
  146MOL0     H19660   5.664  10.691   2.980 -0.8062 -1.0068  1.7519
  146MOL0     H19661   5.446  10.596   3.081 -1.4018  0.2241 -0.4743
  146MOL0     H19662   5.159  10.758   3.166  0.1112 -1.4445 -2.2559
  146MOL0     H19663   5.203  10.590   3.203  0.8120  0.7457 -0.6113
  146MOL0     H19664   5.198  10.629   3.422 -1.9334 -1.0007 -0.0920
  146MOL0     H19665   5.199  10.810   3.400 -0.3056  1.0563 -1.8815
  146MOL0     H19666   4.964  10.614   3.407 -0.4496  0.3720  1.2553
  146MOL0     H19667   4.960  10.749   3.287  0.6702  1.1415  0.6898
  146MOL0     H19668   4.984  10.916   3.488  0.6227  0.0204  1.3860
  146MOL0     H19669   4.971  10.775   3.590 -1.4940  0.1028  0.6003
  146MOL0     H19670   4.583  10.765   3.612 -0.3085  0.6547  0.0252
  146MOL0     H19671   4.472  10.879   3.793  1.0963 -0.8654  1.4307
  146MOL0     H19672   4.736  11.420   4.011 -0.7611  1.7316 -1.1230
  146MOL0     H19673   4.669  11.618   4.144  2.4871 -1.3212  0.8956
  146MOL0     H19674   4.295  11.704   4.156  0.6625  1.0687  0.5963
  146MOL0     H19675   4.239  11.617   4.293 -0.6461  0.1565  1.5385
  146MOL0     H19676   4.389  11.838   4.397 -2.2030 -1.1258  1.6517
  146MOL0     H19677   4.318  11.896   4.239 -0.6456  0.5392 -0.7135
  146MOL0     H19678   4.091  11.788   4.332  0.6696  1.2171 -2.0102
  146MOL0     H19679   4.167  11.808   4.484 -1.6414  0.2689 -0.0497
  146MOL0     H19680   4.167  12.030   4.297  0.4528 -3.2870 -0.8637
  146MOL0     H19681   4.186  12.043   4.472  0.6119  0.1437 -1.1717
  146MOL0     H19682   3.929  11.956   4.481 -2.3506  0.9095  0.5034
  146MOL0     H19683   3.929  11.991   4.307  2.2794 -2.0429 -0.7884
  146MOL0     H19684   3.991  12.210   4.520  0.9419  0.9980 -0.7809
  146MOL0     H19685   4.009  12.218   4.346 -0.3200  1.1234 -0.9983
  146MOL0     H19686   3.770  12.219   4.527  4.8089  1.2144  1.2697
  146MOL0     H19687   3.758  12.120   4.377  0.0626 -0.9919  2.5325
  146MOL0     H19688   3.819  12.409   4.429 -1.0133  1.7795 -0.5215
  146MOL0     H19689   3.804  12.354   4.261 -0.4233 -0.2214 -0.3397
  146MOL0     H19690   4.329  11.400   4.284 -0.5408  3.0756 -0.2895
  146MOL0     H19691   4.417  11.200   4.156  1.2574 -0.6702  0.3974
  146MOL0     H19692   4.820  11.143   3.823  0.5301 -0.9594  3.6194
  146MOL0     H19693   4.911  11.040   3.638  0.5323  1.7973  1.7013
  146MOL0     H19694   6.394  10.579   3.282  1.9954  0.1134  3.2127
  146MOL0     H19695   6.564  10.651   3.121  1.5528 -0.2543 -1.6598
  146MOL0     H19696   6.839  10.799   2.786 -0.4801  0.0334  0.7698
  146MOL0     H19697   7.038  10.928   2.785 -1.3788  0.1840 -0.2176
  146MOL0     H19698   7.220  11.068   2.927 -0.4701  1.8617 -1.5654
  146MOL0     H19699   7.246  10.983   2.764  4.0016  1.7929 -0.7756
  146MOL0     H19700   7.476  10.951   2.786  0.9167  0.5368 -0.4654
  146MOL0     H19701   7.471  10.967   2.956  1.5999  2.0754  0.6225
  146MOL0     H19702   7.399  11.230   2.921 -1.5514 -1.0145 -0.1359
  146MOL0     H19703   7.466  11.209   2.770 -0.8542  0.8208 -0.0734
  146MOL0     H19704   7.621  11.088   3.011  5.2988 -1.8345 -2.2534
  146MOL0     H19705   7.678  11.132   2.859  2.1705  0.4202  1.1337
  146MOL0     H19706   7.656  11.509   3.077 -0.6127 -1.0225  0.1089
  146MOL0     H19707   7.189  10.667   3.101 -1.3650  0.3355  0.8612
  146MOL0     H19708   7.057  10.541   3.233  1.7166  3.6460 -0.6075
  146MOL0     H19709   6.888  10.580   3.202 -0.7139  1.6078 -2.3999
  146MOL0     H19710   6.966  10.433   3.134 -0.9883  0.3843  0.8292
  147MOL0     O19711   0.135   1.384   8.485  0.4070 -0.2444 -0.0732
  147MOL0     C19712   0.192   1.392   8.374 -0.0804  0.1059  0.6562
  147MOL0     O19713   0.136   1.345   8.257 -0.2024 -0.1608 -0.2524
  147MOL0     C19714  -0.001   1.321   8.259 -0.0515  0.4770 -0.3627
  147MOL0     C19715  -0.049   1.226   8.169  0.9830  0.4287  0.8625
  147MOL0     C19716  -0.190   1.197   8.162  0.4813  0.0858  0.0158
  147MOL0     C19717  -0.286   1.270   8.229 -0.0836 -0.4238 -0.4549
  147MOL0     O19718  -0.422   1.236   8.211  0.0007 -0.2960  0.0600
  147MOL0     C19719  -0.489   1.181   8.322  0.9959  0.0517  0.5069
  147MOL0     C19720  -0.618   1.114   8.273  0.2261  0.4245  0.2728
  147MOL0     C19721  -0.698   1.034   8.383 -0.2013 -0.4037  0.2848
  147MOL0     C19722  -0.727   1.110   8.514 -0.5198  0.3699  0.4810
  147MOL0     C19723  -0.827   1.038   8.604  0.3572  0.5394  0.5038
  147MOL0     C19724  -0.980   1.050   8.557  0.8840  0.1385 -0.4361
  147MOL0     C19725  -1.068   0.968   8.660  0.9589  0.6808 -0.1933
  147MOL0     C19726  -1.213   0.971   8.617  0.4577  0.2123  0.2310
  147MOL0     N19727  -1.311   0.919   8.714  0.9553 -0.1504 -0.0091
  147MOL0     C19728  -1.277   0.901   8.849 -1.0416  1.3040  0.1774
  147MOL0     C19729  -1.394   0.855   8.903 -0.6254  0.0770 -0.0657
  147MOL0     C19730  -1.416   0.780   9.036  0.4017  0.2988  0.4658
  147MOL0     C19731  -1.299   0.798   9.137  0.1589  0.1626 -0.1133
  147MOL0     C19732  -1.188   0.688   9.120 -0.2306 -0.0160 -0.0398
  147MOL0     C19733  -1.092   0.692   9.238 -0.2554  0.4327 -1.0115
  147MOL0     O19734  -0.974   0.612   9.205  0.1553  0.3168 -0.2859
  147MOL0     C19735  -0.885   0.664   9.105  0.9418  0.2757  0.1667
  147MOL0     C19736  -0.792   0.575   9.044 -0.2245  0.7436 -0.0864
  147MOL0     C19737  -0.690   0.604   8.955  0.4821  0.0352  0.2326
  147MOL0     C19738  -0.683   0.738   8.915  0.8460 -1.0382  0.4256
  147MOL0     C19739  -0.573   0.789   8.833  0.6400  0.0837  0.6971
  147MOL0     O19740  -0.460   0.711   8.815 -0.5115 -0.1023 -0.5941
  147MOL0     C19741  -0.360   0.748   8.728 -0.0685  0.5483 -0.0445
  147MOL0     C19742  -0.223   0.747   8.775  0.4790 -0.0057  0.0455
  147MOL0     C19743  -0.121   0.777   8.685 -0.3793  0.7070  0.2542
  147MOL0     C19744  -0.155   0.807   8.550 -0.5274  0.4793 -0.1663
  147MOL0     O19745  -0.043   0.822   8.473  0.9250 -0.9349  0.7869
  147MOL0     C19746  -0.055   0.873   8.337 -1.0154 -0.3270  0.7955
  147MOL0     C19747   0.083   0.874   8.257  0.4928 -0.1179 -0.6369
  147MOL0     C19748   0.201   0.941   8.326  0.3152  0.0206 -0.1022
  147MOL0     C19749   0.297   0.992   8.219 -0.1696 -0.3029  0.0743
  147MOL0     C19750   0.442   1.006   8.261 -0.6977 -1.5665  0.0226
  147MOL0     C19751   0.526   0.875   8.269 -1.3766 -0.4768  0.2215
  147MOL0     C19752   0.677   0.908   8.298 -0.9657 -0.7240 -0.4246
  147MOL0     C19753   0.766   0.782   8.278  0.9832  0.1381 -0.3743
  147MOL0    Cl19754   0.736   0.724   8.114  0.0473 -0.2986  0.3096
  147MOL0     C19755  -0.287   0.798   8.512 -0.7163  1.1615  0.1962
  147MOL0     C19756  -0.388   0.767   8.600 -0.4412  0.4150 -0.7064
  147MOL0     O19757  -0.590   0.894   8.777  0.1344 -0.4279  0.0583
  147MOL0     C19758  -0.776   0.828   8.972 -0.3618 -0.7835 -0.5349
  147MOL0     C19759  -0.874   0.795   9.067 -0.0517 -0.1457 -0.2369
  147MOL0     N19760  -1.495   0.879   8.811  0.9221  0.5262 -0.6159
  147MOL0     N19761  -1.444   0.911   8.695 -0.0797 -0.2839  0.0450
  147MOL0     C19762  -0.237   1.377   8.309 -1.4641  0.0675 -0.0920
  147MOL0     C19763  -0.102   1.402   8.325 -0.5506  0.2086  0.0636
  147MOL0     C19764   0.335   1.395   8.377 -0.7181 -0.1617 -0.3986
  147MOL0     C19765   0.404   1.337   8.486 -0.0064  0.1102  0.4088
  147MOL0     C19766   0.541   1.352   8.493  0.1768 -0.9020  0.3956
  147MOL0     C19767   0.616   1.407   8.392  0.8537 -0.8983  0.0820
  147MOL0     O19768   0.756   1.404   8.403 -0.1241 -0.4185  0.0060
  147MOL0     C19769   0.834   1.449   8.290 -0.0461  0.0732 -0.4286
  147MOL0     C19770   0.836   1.337   8.186  0.4125 -0.2637  0.9649
  147MOL0     C19771   0.902   1.215   8.232 -0.3198  0.5179 -0.4288
  147MOL0     C19772   1.055   1.214   8.235  0.3453 -0.1092  0.0419
  147MOL0     C19773   1.100   1.087   8.285  0.4636 -0.1856  0.2243
  147MOL0     C19774   1.150   0.986   8.315 -0.7742  0.2890  1.6615
  147MOL0     C19775   0.555   1.479   8.296 -0.0403 -0.3145 -0.3065
  147MOL0     C19776   0.414   1.470   8.280  0.1910  0.6916  0.2253
  147MOL0     C19777   0.345   1.535   8.168  0.1049  0.3374 -0.0906
  147MOL0     H19778   0.020   1.163   8.115 -1.0132 -0.6686 -0.5537
  147MOL0     H19779  -0.211   1.127   8.082  0.3016  0.2605 -0.0911
  147MOL0     H19780  -0.435   1.092   8.356  0.7926 -0.9604 -1.6238
  147MOL0     H19781  -0.511   1.245   8.408  0.1597 -0.7658  0.9221
  147MOL0     H19782  -0.592   1.042   8.195 -0.4337  0.0608  0.3804
  147MOL0     H19783  -0.678   1.196   8.233 -1.9244 -0.7323  0.9849
  147MOL0     H19784  -0.636   0.947   8.405 -2.1618 -1.8068  0.5971
  147MOL0     H19785  -0.790   0.989   8.344  0.7433 -3.2863  1.1106
  147MOL0     H19786  -0.634   1.136   8.565  1.0480  0.8136 -2.3698
  147MOL0     H19787  -0.766   1.207   8.484 -0.9932 -0.7466 -2.9819
  147MOL0     H19788  -0.816   0.929   8.605 -1.8646  0.2850  0.6604
  147MOL0     H19789  -0.812   1.077   8.705  0.4127  1.2600  0.2218
  147MOL0     H19790  -0.998   1.157   8.563  0.2274  0.0525 -0.8816
  147MOL0     H19791  -0.991   1.012   8.455  2.1636  0.2434 -0.6372
  147MOL0     H19792  -1.053   1.007   8.761  1.4211  0.6678 -0.2576
  147MOL0     H19793  -1.032   0.865   8.657  1.8906  0.8965  1.9588
  147MOL0     H19794  -1.238   1.074   8.590 -1.0322  0.0240  0.7972
  147MOL0     H19795  -1.226   0.917   8.523 -1.2006  0.5413  0.2436
  147MOL0     H19796  -1.176   0.898   8.888 -1.4738  0.3525  1.2933
  147MOL0     H19797  -1.508   0.823   9.076  0.1546 -0.8613  1.1795
  147MOL0     H19798  -1.425   0.672   9.020 -2.1716  0.5889 -0.5021
  147MOL0     H19799  -1.262   0.900   9.121 -2.7682  0.9090 -3.1897
  147MOL0     H19800  -1.336   0.788   9.239  3.1311  3.7114  1.5790
  147MOL0     H19801  -1.123   0.721   9.038  3.8429  1.0783  3.2553
  147MOL0     H19802  -1.234   0.594   9.091 -0.2696  0.2404 -0.8292
  147MOL0     H19803  -1.145   0.642   9.319 -1.5772  0.5457 -1.7714
  147MOL0     H19804  -1.072   0.796   9.264 -0.2676 -0.1423  1.4997
  147MOL0     H19805  -0.803   0.471   9.072 -0.1189  0.9330  0.6934
  147MOL0     H19806  -0.611   0.535   8.927  1.6299 -0.0933  3.4226
  147MOL0     H19807  -0.198   0.717   8.876 -2.9444 -2.3138  0.3833
  147MOL0     H19808  -0.018   0.748   8.701  0.2200  1.9039 -1.2164
  147MOL0     H19809  -0.099   0.790   8.280  3.3587 -0.6978 -2.6325
  147MOL0     H19810  -0.105   0.970   8.331  2.1333  1.5351  2.0674
  147MOL0     H19811   0.104   0.768   8.239 -0.8456 -0.8193  1.5918
  147MOL0     H19812   0.065   0.932   8.166  0.8291  3.4375  1.3794
  147MOL0     H19813   0.172   1.030   8.383  2.4354 -0.6794  2.2490
  147MOL0     H19814   0.250   0.871   8.394 -1.1630 -0.5660  0.3897
  147MOL0     H19815   0.256   1.084   8.177 -2.3662 -1.2872 -0.0165
  147MOL0     H19816   0.308   0.926   8.132 -2.1784  2.1622 -2.2167
  147MOL0     H19817   0.459   1.062   8.353 -2.3207 -1.7046  0.4221
  147MOL0     H19818   0.485   1.066   8.180  0.5310 -1.3573  0.8023
  147MOL0     H19819   0.482   0.818   8.351  2.2123  1.5364  3.9178
  147MOL0     H19820   0.510   0.821   8.175 -0.5642  1.3840 -1.0701
  147MOL0     H19821   0.700   0.942   8.399  0.0657 -0.9087 -0.5868
  147MOL0     H19822   0.714   0.992   8.239  0.3969 -1.1862 -0.2662
  147MOL0     H19823   0.873   0.804   8.286  0.6884  2.0438 -1.0666
  147MOL0     H19824   0.739   0.700   8.345 -0.7359  0.4232 -0.6855
  147MOL0     H19825  -0.313   0.828   8.410  3.0959  0.2516 -1.2173
  147MOL0     H19826  -0.492   0.761   8.569 -0.8753 -1.1967  0.8581
  147MOL0     H19827  -0.765   0.936   8.962 -0.0322 -0.9249 -1.7581
  147MOL0     H19828  -0.928   0.873   9.119  1.1447  1.6910 -1.6379
  147MOL0     H19829  -0.319   1.431   8.355 -1.8459 -0.1523 -0.5063
  147MOL0     H19830  -0.084   1.474   8.405 -0.7016  1.2547 -0.8083
  147MOL0     H19831   0.350   1.282   8.563  0.1285  0.7080  0.9408
  147MOL0     H19832   0.577   1.316   8.589 -0.6822  1.1623  1.5530
  147MOL0     H19833   0.937   1.459   8.325 -0.6149 -0.2340  1.4514
  147MOL0     H19834   0.808   1.549   8.256 -0.2432  0.3911  0.6320
  147MOL0     H19835   0.895   1.373   8.101  1.2689 -3.0591  0.2875
  147MOL0     H19836   0.734   1.316   8.154  0.7157  0.9295 -0.9704
  147MOL0     H19837   0.884   1.140   8.154  1.2550 -0.2899 -0.0599
  147MOL0     H19838   0.857   1.188   8.328 -1.1231 -1.1460 -1.2498
  147MOL0     H19839   1.093   1.244   8.137 -0.6467 -0.6291 -0.5127
  147MOL0     H19840   1.087   1.283   8.313 -0.8388 -0.0214  0.4776
  147MOL0     H19841   1.194   0.890   8.333 -0.7833 -0.5825 -2.1503
  147MOL0     H19842   0.610   1.543   8.228  0.5818  1.7596  1.9664
  147MOL0     H19843   0.312   1.456   8.100  3.1923  0.6101 -2.0944
  147MOL0     H19844   0.252   1.581   8.203  0.6414  0.4184  1.2965
  147MOL0     H19845   0.407   1.599   8.105 -0.2187  0.9162  0.1688
  148MOL0     O19846   1.099   6.137   6.652  0.3857  0.2795  0.3356
  148MOL0     C19847   1.047   6.166   6.540 -0.3985 -0.0096  1.0834
  148MOL0     O19848   1.096   6.262   6.451 -0.7732  0.2249 -0.1880
  148MOL0     C19849   1.184   6.358   6.507 -0.3020  0.3286 -0.2888
  148MOL0     C19850   1.323   6.339   6.486  0.2855  0.1293 -0.4583
  148MOL0     C19851   1.410   6.437   6.534 -0.4674 -0.6374 -0.4962
  148MOL0     C19852   1.360   6.548   6.607 -0.3673 -0.3225 -0.1977
  148MOL0     O19853   1.438   6.650   6.636  0.6309  0.4872 -0.2972
  148MOL0     C19854   1.513   6.635   6.761 -0.9939 -0.5360 -0.8682
  148MOL0     C19855   1.617   6.741   6.752 -0.2975  0.3372  0.4517
  148MOL0     C19856   1.755   6.691   6.690 -0.1893 -0.6041 -0.0122
  148MOL0     C19857   1.841   6.803   6.624 -0.9053 -0.2249  0.1464
  148MOL0     C19858   1.975   6.742   6.583 -0.0716 -0.5249 -1.2185
  148MOL0     C19859   2.078   6.850   6.541 -0.6101 -0.3715 -0.4759
  148MOL0     C19860   2.195   6.795   6.461 -0.0808  0.4239 -1.1600
  148MOL0     C19861   2.275   6.902   6.394  0.0302 -0.6218  0.2961
  148MOL0     N19862   2.374   6.838   6.315 -0.5094  0.8756 -0.3039
  148MOL0     C19863   2.474   6.754   6.365  0.0025  0.1084  0.0030
  148MOL0     C19864   2.553   6.729   6.254  0.2056  0.5858 -0.4613
  148MOL0     C19865   2.673   6.637   6.249  0.2396 -1.0547  1.4913
  148MOL0     C19866   2.741   6.644   6.117  0.2539  0.6004  0.1964
  148MOL0     C19867   2.867   6.552   6.122 -0.5382  0.5964  0.1846
  148MOL0     C19868   2.911   6.521   5.978  0.5618 -0.5131  0.1793
  148MOL0     O19869   2.967   6.632   5.909  0.0554 -0.0818  0.0029
  148MOL0     C19870   3.107   6.650   5.924 -0.5720  0.3300 -0.0803
  148MOL0     C19871   3.199   6.615   5.820  0.8415  0.4045  0.1054
  148MOL0     C19872   3.341   6.621   5.837 -0.0627  0.3038 -0.2613
  148MOL0     C19873   3.397   6.672   5.957  0.8321  0.1591  0.5140
  148MOL0     C19874   3.543   6.683   5.982 -0.7230 -1.0120  0.3036
  148MOL0     O19875   3.591   6.768   6.083 -0.1330  0.6434  0.1390
  148MOL0     C19876   3.720   6.778   6.121  0.3123  0.6605 -0.2262
  148MOL0     C19877   3.764   6.901   6.169  0.1979 -0.5575 -0.4236
  148MOL0     C19878   3.896   6.932   6.204 -0.0674  0.0031  0.3774
  148MOL0     C19879   3.993   6.835   6.192 -0.3878  0.6837 -0.2581
  148MOL0     O19880   4.121   6.853   6.236  0.2051 -0.0828  0.8819
  148MOL0     C19881   4.177   6.977   6.192 -0.7535 -0.5389  0.2652
  148MOL0     C19882   4.329   6.970   6.209  0.7240 -0.3057 -0.0936
  148MOL0     C19883   4.402   7.044   6.092 -0.2090  0.6494  1.0490
  148MOL0     C19884   4.560   7.030   6.107 -0.4813  0.2197 -0.0449
  148MOL0     C19885   4.607   6.883   6.098  0.7199  0.0037  0.0883
  148MOL0     C19886   4.760   6.880   6.090  1.0463 -0.3896  0.0454
  148MOL0     C19887   4.811   6.935   5.953 -0.4914  1.2463  0.6782
  148MOL0     C19888   4.948   6.882   5.912 -0.1227  0.4708 -0.1066
  148MOL0    Cl19889   4.976   6.925   5.735  0.0014 -0.0953 -0.3843
  148MOL0     C19890   3.951   6.706   6.169 -0.3862 -0.1485  0.6504
  148MOL0     C19891   3.822   6.673   6.128 -0.2736  0.0099 -0.0766
  148MOL0     O19892   3.612   6.615   5.906 -0.3886  0.5478 -0.2296
  148MOL0     C19893   3.308   6.704   6.051  0.3285 -1.1743  0.2151
  148MOL0     C19894   3.165   6.712   6.033 -0.9165  0.0277 -0.4356
  148MOL0     N19895   2.510   6.801   6.146 -0.3236  0.0644  0.7149
  148MOL0     N19896   2.402   6.867   6.186  0.4270 -0.7182 -0.1659
  148MOL0     C19897   1.225   6.556   6.634 -0.0901 -0.6288  0.0093
  148MOL0     C19898   1.136   6.468   6.578  0.0990 -0.1366 -0.1557
  148MOL0     C19899   0.932   6.081   6.491 -0.0842  0.1539  0.2852
  148MOL0     C19900   0.929   6.063   6.360  0.1468  0.9878 -0.0330
  148MOL0     C19901   0.824   5.991   6.310 -0.2251 -1.0558  0.7623
  148MOL0     C19902   0.716   5.937   6.379 -0.0389 -0.4178 -1.1293
  148MOL0     O19903   0.623   5.873   6.300 -0.2272  0.6869 -0.3902
  148MOL0     C19904   0.489   5.851   6.356  0.5195 -0.0205  0.7417
  148MOL0     C19905   0.412   5.975   6.372  0.4129  0.3323  1.0686
  148MOL0     C19906   0.398   6.051   6.241  0.0342 -0.0792 -0.1747
  148MOL0     C19907   0.339   6.196   6.265  0.1054 -0.1034  0.1782
  148MOL0     C19908   0.278   6.251   6.142 -0.8320 -0.6017  0.1171
  148MOL0     C19909   0.229   6.308   6.051 -0.6891 -0.5997  0.8093
  148MOL0     C19910   0.721   5.950   6.514 -0.2295 -0.1242 -0.1469
  148MOL0     C19911   0.827   6.025   6.575  1.1426  0.6123  0.0154
  148MOL0     C19912   0.822   6.030   6.719  0.2323  0.0114  0.5215
  148MOL0     H19913   1.353   6.249   6.433  0.5192  1.1548 -2.1453
  148MOL0     H19914   1.514   6.411   6.515  0.1242 -0.2447  1.8628
  148MOL0     H19915   1.436   6.649   6.837 -0.7964  2.6059 -1.0764
  148MOL0     H19916   1.564   6.540   6.781  1.4669  0.6652 -0.9754
  148MOL0     H19917   1.629   6.781   6.853  0.4660  0.0397  0.4847
  148MOL0     H19918   1.573   6.825   6.697  1.8592  1.4663  0.3811
  148MOL0     H19919   1.732   6.622   6.609 -0.1125  0.7188 -1.1940
  148MOL0     H19920   1.811   6.627   6.759 -0.9163 -1.4017 -0.1395
  148MOL0     H19921   1.791   6.841   6.534  1.3143 -0.9104 -1.4689
  148MOL0     H19922   1.851   6.880   6.701  1.8508  0.6270 -0.9320
  148MOL0     H19923   2.019   6.687   6.667 -1.0082 -2.2619 -1.8154
  148MOL0     H19924   1.956   6.670   6.503 -0.2943 -0.7010 -1.0058
  148MOL0     H19925   2.021   6.918   6.477 -0.3616 -1.0913 -1.4678
  148MOL0     H19926   2.099   6.907   6.633 -1.5702 -1.8386  0.6884
  148MOL0     H19927   2.158   6.730   6.381 -0.7695  0.4542 -0.8699
  148MOL0     H19928   2.258   6.753   6.540  0.3762  4.4535  0.8611
  148MOL0     H19929   2.216   6.972   6.335 -0.6981  0.3995  2.1749
  148MOL0     H19930   2.322   6.967   6.469 -1.5276 -1.2885  1.9069
  148MOL0     H19931   2.486   6.725   6.469 -3.5426  1.2884  0.8833
  148MOL0     H19932   2.744   6.650   6.332 -1.7106 -4.1853  3.8944
  148MOL0     H19933   2.640   6.534   6.265  0.0723 -1.2255  0.1095
  148MOL0     H19934   2.668   6.616   6.040  0.3769 -0.1201  0.3363
  148MOL0     H19935   2.773   6.745   6.093 -1.1547  0.7521 -1.3220
  148MOL0     H19936   2.839   6.456   6.166  0.9080 -0.8780 -1.8802
  148MOL0     H19937   2.950   6.591   6.182 -1.0780 -1.4289  2.4244
  148MOL0     H19938   2.830   6.479   5.917  1.1873  1.0371 -1.8286
  148MOL0     H19939   2.982   6.438   5.977  2.7543  1.2789 -1.0207
  148MOL0     H19940   3.166   6.559   5.733 -1.9881 -1.0041  1.9167
  148MOL0     H19941   3.405   6.595   5.754 -0.0263 -1.3045  0.2290
  148MOL0     H19942   3.697   6.985   6.187  1.4740  0.0640  1.7429
  148MOL0     H19943   3.912   7.034   6.237 -2.0497  0.7791 -0.8884
  148MOL0     H19944   4.137   7.005   6.094 -0.9466  0.7255  0.6915
  148MOL0     H19945   4.143   7.052   6.263  0.7493  0.0190  0.4313
  148MOL0     H19946   4.366   7.022   6.297  0.8716  1.3541 -1.0838
  148MOL0     H19947   4.356   6.864   6.206 -2.3657 -1.1796 -0.1851
  148MOL0     H19948   4.370   7.007   5.994 -1.5539  0.4610  1.5341
  148MOL0     H19949   4.374   7.149   6.090 -0.6932  0.6229 -3.2372
  148MOL0     H19950   4.595   7.061   6.205  2.1567 -1.1201 -0.4810
  148MOL0     H19951   4.612   7.090   6.032 -0.8780 -1.1920 -1.5342
  148MOL0     H19952   4.572   6.847   6.001  1.7889  1.8690 -1.0528
  148MOL0     H19953   4.571   6.818   6.179 -0.1950  0.3755 -0.0064
  148MOL0     H19954   4.805   6.932   6.175 -0.9478  2.1380 -0.3062
  148MOL0     H19955   4.795   6.776   6.090  0.6209 -0.5582 -1.3182
  148MOL0     H19956   4.826   7.043   5.952  2.6902  0.9159 -1.8010
  148MOL0     H19957   4.745   6.914   5.868  2.9541  0.9305 -2.1496
  148MOL0     H19958   5.015   6.932   5.982  2.2024 -0.4453 -1.5678
  148MOL0     H19959   4.943   6.772   5.918  1.5932  0.0713 -3.4547
  148MOL0     H19960   4.032   6.634   6.167 -1.5589 -1.5024  0.8147
  148MOL0     H19961   3.809   6.568   6.104  2.1263 -0.7048  1.3694
  148MOL0     H19962   3.343   6.726   6.152 -1.8904 -0.8592  0.9829
  148MOL0     H19963   3.127   6.749   6.128 -0.2457 -0.1144 -0.1006
  148MOL0     H19964   1.177   6.638   6.687 -1.6851  0.2511 -2.5931
  148MOL0     H19965   1.028   6.471   6.572  0.1683  0.2331 -1.9507
  148MOL0     H19966   0.999   6.099   6.285 -0.9197 -3.5373 -3.6979
  148MOL0     H19967   0.818   5.975   6.203 -0.6713 -1.5264  0.8533
  148MOL0     H19968   0.498   5.801   6.453  1.5219  0.1893  0.7652
  148MOL0     H19969   0.438   5.789   6.281  0.5475  2.8883 -1.9163
  148MOL0     H19970   0.468   6.040   6.441 -0.0562  0.4297  1.3619
  148MOL0     H19971   0.314   5.954   6.415 -0.7229  4.1697  0.7047
  148MOL0     H19972   0.323   5.988   6.192  0.2892 -1.3864  1.0828
  148MOL0     H19973   0.486   6.058   6.177 -0.4716  0.7356 -0.8084
  148MOL0     H19974   0.268   6.185   6.348  0.8962  2.4444  1.2980
  148MOL0     H19975   0.419   6.258   6.307  1.0798 -0.5599 -0.9444
  148MOL0     H19976   0.192   6.353   5.961  2.1812 -1.7958 -1.1007
  148MOL0     H19977   0.644   5.917   6.582 -0.2346  3.1983  1.6906
  148MOL0     H19978   0.830   6.134   6.752  2.1004 -0.6238  2.2799
  148MOL0     H19979   0.723   5.997   6.752 -0.8376  4.0651  2.0408
  148MOL0     H19980   0.899   5.962   6.757 -0.4428 -1.0086  0.1023
  149MOL0     O19981   1.202  10.053   1.631  0.1212  0.0961 -0.9747
  149MOL0     C19982   1.132  10.150   1.615 -0.2075  0.6151 -0.3584
  149MOL0     O19983   1.167  10.275   1.650 -0.7233  0.7606 -0.1812
  149MOL0     C19984   1.304  10.312   1.658  0.1733  0.0427 -0.0044
  149MOL0     C19985   1.343  10.417   1.741  0.3769  0.0077  0.2076
  149MOL0     C19986   1.479  10.445   1.766 -0.1251  0.6391  1.0222
  149MOL0     C19987   1.584  10.380   1.694  0.3071 -0.0051 -0.5931
  149MOL0     O19988   1.716  10.408   1.707  0.3374  0.4363 -0.8667
  149MOL0     C19989   1.748  10.504   1.807  0.0605  0.0254  0.1924
  149MOL0     C19990   1.892  10.530   1.825 -0.4358 -0.1883 -0.2746
  149MOL0     C19991   1.963  10.612   1.719 -0.0047 -0.0179  0.1015
  149MOL0     C19992   2.115  10.631   1.751  0.2178 -0.7772  0.6300
  149MOL0     C19993   2.186  10.724   1.646 -0.2102  0.1924 -0.0891
  149MOL0     C19994   2.335  10.728   1.685  0.0865  0.9110 -0.8555
  149MOL0     C19995   2.401  10.867   1.635  0.0930  0.2062  0.1730
  149MOL0     C19996   2.546  10.857   1.632 -0.3519  0.3641 -0.0439
  149MOL0     N19997   2.603  10.854   1.771 -0.1967  0.3252  0.0135
  149MOL0     C19998   2.614  10.749   1.861 -0.3366 -0.0476  0.0667
  149MOL0     C19999   2.699  10.795   1.958 -0.3914  0.0145  0.1793
  149MOL0     C20000   2.739  10.713   2.077  0.1709 -0.3806 -0.2691
  149MOL0     C20001   2.891  10.727   2.099 -0.9514  0.7579 -0.1517
  149MOL0     C20002   2.921  10.618   2.212 -0.5712 -0.8577  0.2272
  149MOL0     C20003   3.052  10.648   2.283  0.0935  0.3911  0.0357
  149MOL0     O20004   3.153  10.602   2.197 -0.2639  0.2045  1.0027
  149MOL0     C20005   3.286  10.638   2.215 -1.0395 -0.0056 -0.5433
  149MOL0     C20006   3.368  10.646   2.098 -0.3443 -0.0183  0.2449
  149MOL0     C20007   3.500  10.686   2.102 -0.2615 -0.2065  0.0685
  149MOL0     C20008   3.554  10.723   2.230  0.2522 -0.2240 -0.1705
  149MOL0     C20009   3.694  10.777   2.237  0.1449  0.0724  0.1196
  149MOL0     O20010   3.753  10.821   2.123 -0.6658  0.4172 -0.7471
  149MOL0     C20011   3.881  10.871   2.133 -0.5360  0.8358  0.4556
  149MOL0     C20012   3.938  10.947   2.241 -0.2515 -0.1711 -0.3335
  149MOL0     C20013   4.070  10.992   2.232 -0.5050  0.2249  0.7735
  149MOL0     C20014   4.141  10.981   2.117 -0.4130 -0.3828  0.0422
  149MOL0     O20015   4.253  11.052   2.104 -0.2100  0.5226 -0.0486
  149MOL0     C20016   4.325  11.041   1.977  0.1692 -0.7505  0.0211
  149MOL0     C20017   4.461  11.123   1.980 -0.0941 -0.3499  0.6214
  149MOL0     C20018   4.558  11.053   2.080 -0.8567 -0.2824 -0.6213
  149MOL0     C20019   4.689  11.134   2.079 -0.1292 -0.3322  0.4974
  149MOL0     C20020   4.786  11.052   2.161 -0.3283 -1.1619  0.3599
  149MOL0     C20021   4.930  11.117   2.160 -0.6068  0.2854 -0.1019
  149MOL0     C20022   4.942  11.228   2.261 -0.0396  0.8200 -0.3931
  149MOL0     C20023   5.073  11.297   2.227 -0.2043  0.8165  0.0559
  149MOL0    Cl20024   5.093  11.452   2.314  0.0597 -0.0923  0.4273
  149MOL0     C20025   4.083  10.907   2.011 -0.3139  0.2018  0.8038
  149MOL0     C20026   3.954  10.853   2.012  0.4937 -0.6734 -0.3873
  149MOL0     O20027   3.747  10.772   2.349 -0.6879 -0.4186 -0.4693
  149MOL0     C20028   3.473  10.721   2.342  0.2753  0.6420 -0.4880
  149MOL0     C20029   3.335  10.688   2.335 -0.5643 -0.0745 -0.2690
  149MOL0     N20030   2.726  10.930   1.937 -0.7180 -0.2396 -0.3129
  149MOL0     N20031   2.666  10.956   1.830 -0.1181 -0.6421  0.1777
  149MOL0     C20032   1.537  10.285   1.606 -0.1946  0.4364 -0.1767
  149MOL0     C20033   1.403  10.251   1.586 -0.3763  0.3523 -0.1641
  149MOL0     C20034   0.990  10.125   1.568 -0.0604  0.1435  0.4865
  149MOL0     C20035   0.961  10.030   1.466  0.9924  0.1944  0.2429
  149MOL0     C20036   0.830  10.018   1.416  0.0546  0.4897 -0.4046
  149MOL0     C20037   0.719  10.082   1.470  0.0452 -0.2271 -0.8076
  149MOL0     O20038   0.582  10.078   1.432  0.5397  0.1146  0.4192
  149MOL0     C20039   0.532   9.975   1.337 -0.2348 -0.1092  0.2346
  149MOL0     C20040   0.491   9.862   1.432 -0.1478 -0.3538 -0.1269
  149MOL0     C20041   0.391   9.886   1.543  0.0690  0.1418 -0.6034
  149MOL0     C20042   0.453   9.929   1.679  0.0271 -0.4396  0.3865
  149MOL0     C20043   0.346   9.971   1.781 -0.3363  0.8052  0.4389
  149MOL0     C20044   0.263  10.006   1.858 -0.1313  0.4458  0.5163
  149MOL0     C20045   0.748  10.170   1.581 -0.6293  1.2994  0.3777
  149MOL0     C20046   0.879  10.190   1.624 -0.3090  0.7971 -0.6295
  149MOL0     C20047   0.892  10.279   1.746  0.2772 -0.1416 -0.6620
  149MOL0     H20048   1.276  10.477   1.802  2.2339  1.7957  0.5894
  149MOL0     H20049   1.506  10.512   1.847 -1.0919  1.8468  0.3760
  149MOL0     H20050   1.711  10.603   1.781 -0.0727 -0.7843 -3.1483
  149MOL0     H20051   1.705  10.480   1.905  2.4011  1.7905  1.7483
  149MOL0     H20052   1.936  10.433   1.849 -0.1781 -0.8084 -2.9618
  149MOL0     H20053   1.900  10.589   1.917 -3.9099 -1.7941  1.2434
  149MOL0     H20054   1.911  10.708   1.714 -2.8999 -1.5340 -0.4800
  149MOL0     H20055   1.949  10.569   1.620  0.5308  0.2928 -0.1148
  149MOL0     H20056   2.128  10.670   1.853  1.7773 -1.3661  0.6893
  149MOL0     H20057   2.165  10.534   1.743 -0.6197 -1.2039  0.5216
  149MOL0     H20058   2.165  10.681   1.548 -0.8367 -2.1092  1.0042
  149MOL0     H20059   2.135  10.821   1.654 -0.9107 -0.2606  1.1059
  149MOL0     H20060   2.344  10.730   1.794 -0.1147 -0.8169 -0.7746
  149MOL0     H20061   2.378  10.636   1.643  0.6925  0.4541  0.6873
  149MOL0     H20062   2.365  10.946   1.701 -3.8317 -0.4732 -0.8844
  149MOL0     H20063   2.369  10.896   1.535  1.9491 -0.9223 -0.8052
  149MOL0     H20064   2.568  10.758   1.590 -1.4138  0.3384 -0.5948
  149MOL0     H20065   2.592  10.942   1.580 -0.4339  0.4825  0.0763
  149MOL0     H20066   2.573  10.650   1.843  4.5294 -1.8303 -3.1221
  149MOL0     H20067   2.684  10.750   2.163 -0.3535 -0.4890 -0.5502
  149MOL0     H20068   2.714  10.609   2.051 -0.5239 -0.4124  0.5090
  149MOL0     H20069   2.944  10.709   2.005 -1.8853  0.0374 -0.5477
  149MOL0     H20070   2.921  10.828   2.130  4.2276  0.1736 -2.1106
  149MOL0     H20071   2.924  10.522   2.159 -3.7511 -0.4093 -1.0280
  149MOL0     H20072   2.843  10.618   2.289  1.7052 -1.3406  2.6455
  149MOL0     H20073   3.054  10.609   2.386 -3.6895  0.5897  0.3119
  149MOL0     H20074   3.067  10.756   2.292 -1.2129  0.4374  2.3412
  149MOL0     H20075   3.331  10.626   1.998 -0.4749 -1.4430  0.5670
  149MOL0     H20076   3.555  10.693   2.008  1.4766 -1.6279  0.9320
  149MOL0     H20077   3.866  10.973   2.317  1.0198  0.4343  0.7081
  149MOL0     H20078   4.114  11.049   2.313  1.2055  0.3705 -0.1921
  149MOL0     H20079   4.341  10.933   1.980 -0.8238 -0.8851  2.1534
  149MOL0     H20080   4.264  11.053   1.887 -0.3287 -2.9410  0.0159
  149MOL0     H20081   4.508  11.121   1.881 -3.1659 -1.5973 -0.9300
  149MOL0     H20082   4.435  11.222   2.018 -0.1186 -1.1131  2.7617
  149MOL0     H20083   4.510  11.056   2.178 -0.3901 -3.9288 -0.1570
  149MOL0     H20084   4.571  10.951   2.043 -0.9814 -0.0148 -1.4441
  149MOL0     H20085   4.666  11.228   2.128  3.6926  1.3477 -0.5735
  149MOL0     H20086   4.724  11.154   1.977 -2.7375 -1.8616 -0.7847
  149MOL0     H20087   4.800  10.958   2.108  1.5265 -0.4373 -0.5392
  149MOL0     H20088   4.748  11.041   2.263  0.4328  0.5170  0.8679
  149MOL0     H20089   5.000  11.039   2.193 -1.8242 -0.6718  0.3098
  149MOL0     H20090   4.964  11.139   2.059  2.4384 -2.2095  0.2233
  149MOL0     H20091   4.937  11.174   2.356 -1.2247 -0.4856 -1.1544
  149MOL0     H20092   4.858  11.297   2.256  0.9416  2.1987  0.9792
  149MOL0     H20093   5.160  11.234   2.249  2.4431  3.8302 -0.9913
  149MOL0     H20094   5.091  11.328   2.124  0.1496  0.1421 -0.0898
  149MOL0     H20095   4.118  10.914   1.909  0.9147  0.9998  1.2543
  149MOL0     H20096   3.913  10.793   1.931 -0.7829 -0.5882  0.1726
  149MOL0     H20097   3.519  10.742   2.438  0.1675 -1.1878  0.0066
  149MOL0     H20098   3.272  10.704   2.422  1.7522  2.8718  1.0533
  149MOL0     H20099   1.608  10.226   1.549 -0.7492  0.0203 -0.4430
  149MOL0     H20100   1.374  10.171   1.518  0.7526 -0.1315 -0.0994
  149MOL0     H20101   1.034   9.973   1.409  0.4313 -1.1459  0.8172
  149MOL0     H20102   0.813   9.950   1.333 -0.9419  2.0431 -1.5160
  149MOL0     H20103   0.601   9.948   1.257 -0.8241 -0.7844 -0.0600
  149MOL0     H20104   0.450  10.023   1.283 -0.8191  1.7844  2.6527
  149MOL0     H20105   0.575   9.813   1.482 -2.6188 -1.7028  3.0335
  149MOL0     H20106   0.448   9.801   1.352  0.9261  1.1470 -1.9512
  149MOL0     H20107   0.359   9.782   1.553  1.6568 -0.3741 -0.6669
  149MOL0     H20108   0.311   9.952   1.508  1.5787  2.3217 -0.1667
  149MOL0     H20109   0.519   9.849   1.714  0.8530  0.5245  1.0801
  149MOL0     H20110   0.530  10.004   1.659  1.0365 -1.6077 -0.2980
  149MOL0     H20111   0.190  10.029   1.933 -0.3443  1.0056  0.1424
  149MOL0     H20112   0.665  10.213   1.636  0.0264  0.4282  2.1307
  149MOL0     H20113   0.958  10.365   1.730 -0.2299  0.2096 -0.9277
  149MOL0     H20114   0.797  10.326   1.776  1.0935  1.2071 -0.0889
  149MOL0     H20115   0.923  10.217   1.830 -2.3373 -0.0694  0.4622
  150MOL0     O20116  10.285   1.099  10.531  0.2408  0.2631 -0.2052
  150MOL0     C20117  10.252   1.201  10.473 -0.2023 -0.0169 -0.5815
  150MOL0     O20118  10.314   1.257  10.354 -0.1026 -0.1123 -0.0298
  150MOL0     C20119  10.435   1.207  10.318 -0.2620 -0.1649 -0.0587
  150MOL0     C20120  10.528   1.206  10.418  0.4331  0.0940 -0.1456
  150MOL0     C20121  10.660   1.174  10.387 -0.5395  0.0379  0.7662
  150MOL0     C20122  10.699   1.127  10.257 -0.6044 -0.5850  0.2945
  150MOL0     O20123  10.824   1.088  10.236  0.1124 -0.0525 -0.0173
  150MOL0     C20124  10.849   0.966  10.170  0.8823 -0.2554 -0.4360
  150MOL0     C20125  11.006   0.968  10.159 -0.0633 -1.1220 -0.1395
  150MOL0     C20126  11.078   1.076  10.067  0.6535 -0.2418 -0.1414
  150MOL0     C20127  11.155   1.011   9.948  0.0384 -0.0446 -0.5697
  150MOL0     C20128  11.237   1.099   9.863 -0.7642  0.5308  0.0430
  150MOL0     C20129  11.247   1.045   9.720 -0.3187  0.2181 -0.8337
  150MOL0     C20130  11.337   1.141   9.634  0.4329 -0.4506 -0.4653
  150MOL0     C20131  11.490   1.092   9.628  0.7653  0.4051  0.1444
  150MOL0     N20132  11.495   1.018   9.501  0.2462 -0.0174  0.6301
  150MOL0     C20133  11.541   1.065   9.377  1.2530  0.8796 -0.3087
  150MOL0     C20134  11.506   0.974   9.282 -1.0091 -0.4318  0.0832
  150MOL0     C20135  11.519   0.987   9.125 -0.6573 -0.5914  0.9951
  150MOL0     C20136  11.668   0.960   9.097  0.0386  1.0113  0.8327
  150MOL0     C20137  11.709   0.824   9.151  0.1990 -0.1493 -0.4431
  150MOL0     C20138  11.858   0.814   9.115  0.1056 -0.4768 -0.6777
  150MOL0     O20139  11.888   0.678   9.075 -0.3151 -0.1199 -0.1563
  150MOL0     C20140  12.019   0.640   9.072  0.6320 -0.5846 -0.4804
  150MOL0     C20141  12.130   0.710   9.122  0.0381 -0.1873  0.5054
  150MOL0     C20142  12.265   0.662   9.115  0.1101 -0.4104 -0.0355
  150MOL0     C20143  12.282   0.532   9.061 -1.1806 -0.6833  0.4581
  150MOL0     C20144  12.408   0.470   9.050 -0.5322 -0.3036  0.3084
  150MOL0     O20145  12.415   0.384   8.943  0.0803 -0.2100 -0.4248
  150MOL0     C20146  12.540   0.325   8.916 -0.0115  0.4810  0.0367
  150MOL0     C20147  12.626   0.403   8.839 -1.0467 -0.3348 -0.7279
  150MOL0     C20148  12.755   0.339   8.809  0.2630 -0.8705  0.0738
  150MOL0     C20149  12.776   0.213   8.845  0.5677  1.1476  0.5294
  150MOL0     O20150  12.893   0.147   8.813 -0.0583  1.0997  0.2267
  150MOL0     C20151  12.973   0.185   8.704  0.4403 -0.5274  1.0780
  150MOL0     C20152  13.092   0.277   8.767  1.0589 -0.8825 -0.3851
  150MOL0     C20153  13.182   0.317   8.645  0.3916  0.1635 -0.8723
  150MOL0     C20154  13.297   0.217   8.630  0.4143  0.5374 -0.0549
  150MOL0     C20155  13.383   0.236   8.493  0.2764 -1.0007 -0.8020
  150MOL0     C20156  13.517   0.175   8.515 -0.6062 -0.8568  0.1375
  150MOL0     C20157  13.592   0.135   8.389  0.3546  0.2814 -0.5624
  150MOL0     C20158  13.744   0.157   8.412 -0.3884 -0.6569 -0.9038
  150MOL0    Cl20159  13.810   0.203   8.244  0.3752  0.6207  0.1698
  150MOL0     C20160  12.677   0.134   8.903  0.0058 -0.2038  0.3486
  150MOL0     C20161  12.558   0.190   8.946  0.2430  0.1319 -0.3282
  150MOL0     O20162  12.499   0.505   9.126 -0.0930  0.0250  0.9712
  150MOL0     C20163  12.172   0.456   9.017  0.3892 -0.2285 -0.3341
  150MOL0     C20164  12.045   0.516   9.015  0.7490 -0.0611  0.7539
  150MOL0     N20165  11.455   0.863   9.350  0.4376 -0.6629 -0.6055
  150MOL0     N20166  11.453   0.890   9.477  0.0606  0.3315 -0.6088
  150MOL0     C20167  10.596   1.120  10.158  0.2722  0.4853 -0.3598
  150MOL0     C20168  10.467   1.168  10.186  0.8160 -0.1285 -0.3319
  150MOL0     C20169  10.139   1.269  10.523 -0.6604 -0.3755 -0.9911
  150MOL0     C20170  10.141   1.290  10.666 -0.1537 -1.0268 -0.0094
  150MOL0     C20171  10.047   1.357  10.734 -1.2388  0.5754 -0.5011
  150MOL0     C20172   9.943   1.403  10.660  1.0951 -0.2534 -0.2623
  150MOL0     O20173   9.835   1.477  10.705  0.1556 -0.0923 -0.8183
  150MOL0     C20174   9.850   1.528  10.835 -0.4702 -0.6643 -0.4049
  150MOL0     C20175   9.815   1.437  10.953 -0.0919 -0.5470  0.5380
  150MOL0     C20176   9.681   1.372  10.927 -0.7599 -0.9259 -0.1656
  150MOL0     C20177   9.655   1.252  11.026  0.2261 -0.3946  0.5032
  150MOL0     C20178   9.629   1.307  11.159 -0.4322 -1.5300 -0.2717
  150MOL0     C20179   9.624   1.339  11.272  0.7380  0.2749  0.4255
  150MOL0     C20180   9.934   1.385  10.524 -0.5422 -0.1923 -0.3606
  150MOL0     C20181  10.031   1.316  10.448 -0.3314 -0.1181 -0.4915
  150MOL0     C20182  10.005   1.294  10.298 -0.0151 -0.5399 -1.2170
  150MOL0     H20183  10.505   1.239  10.518 -0.2206  1.1721 -0.6354
  150MOL0     H20184  10.742   1.159  10.456  1.3480 -0.1922 -1.3961
  150MOL0     H20185  10.813   0.878  10.224 -1.3294 -0.8463 -2.7047
  150MOL0     H20186  10.803   0.972  10.071 -2.0163  1.3178  0.8870
  150MOL0     H20187  11.031   0.870  10.118 -0.5054 -0.9804 -0.7574
  150MOL0     H20188  11.058   0.977  10.254 -0.4995  0.5580 -0.0310
  150MOL0     H20189  11.146   1.147  10.115 -0.6623  1.3542 -0.5524
  150MOL0     H20190  11.002   1.139  10.019  2.3934 -0.3067 -3.2334
  150MOL0     H20191  11.229   0.944   9.994  0.5963  0.8583 -0.1221
  150MOL0     H20192  11.082   0.950   9.895  0.2301  0.3485 -1.3091
  150MOL0     H20193  11.185   1.195   9.853  1.7563  1.7322 -4.8190
  150MOL0     H20194  11.331   1.111   9.918 -1.3268 -0.1575  1.1878
  150MOL0     H20195  11.284   0.942   9.725  0.2731  0.3165 -2.5768
  150MOL0     H20196  11.143   1.032   9.687  0.0818 -0.5174 -1.8650
  150MOL0     H20197  11.327   1.242   9.675 -0.1317 -0.3742 -0.7788
  150MOL0     H20198  11.291   1.149   9.535 -2.7248 -2.6142  0.6692
  150MOL0     H20199  11.568   1.167   9.646 -0.1187  1.2215  0.6040
  150MOL0     H20200  11.516   1.018   9.704  0.5274 -0.2123 -0.3660
  150MOL0     H20201  11.581   1.164   9.362  0.8100  1.0568 -0.3422
  150MOL0     H20202  11.452   0.918   9.073 -3.1180  0.9422  1.9938
  150MOL0     H20203  11.498   1.089   9.093  0.1202 -0.9228 -0.6921
  150MOL0     H20204  11.686   0.955   8.989 -2.0888  1.6720  0.3979
  150MOL0     H20205  11.727   1.041   9.140 -0.0929  1.2920  0.4855
  150MOL0     H20206  11.656   0.749   9.092 -1.1292 -0.4470  1.0788
  150MOL0     H20207  11.677   0.802   9.253 -1.1770  1.3328 -0.5064
  150MOL0     H20208  11.910   0.852   9.204  0.8957 -1.4652 -0.6974
  150MOL0     H20209  11.881   0.877   9.030  3.5801 -1.0246 -0.2918
  150MOL0     H20210  12.121   0.811   9.162  1.4027  0.9849 -1.9188
  150MOL0     H20211  12.352   0.715   9.150  1.1608 -1.5966 -0.7707
  150MOL0     H20212  12.611   0.506   8.810  1.2306 -0.2706 -1.8925
  150MOL0     H20213  12.834   0.379   8.746  0.0545  0.0054  0.3546
  150MOL0     H20214  13.018   0.099   8.653 -0.0036 -0.6508  0.8858
  150MOL0     H20215  12.927   0.236   8.619  1.2966 -2.5840 -0.7326
  150MOL0     H20216  13.051   0.364   8.820  0.8611 -2.3000  1.9108
  150MOL0     H20217  13.149   0.212   8.832  0.1076 -1.5614 -0.2121
  150MOL0     H20218  13.123   0.319   8.554 -0.3284 -1.3500 -0.4646
  150MOL0     H20219  13.229   0.414   8.667  0.6245  0.0045 -0.6684
  150MOL0     H20220  13.260   0.115   8.629  0.4369  0.5218 -1.7229
  150MOL0     H20221  13.363   0.235   8.716  0.5786  1.1061 -0.2976
  150MOL0     H20222  13.403   0.342   8.475 -1.3094 -1.0223 -3.0901
  150MOL0     H20223  13.325   0.199   8.408 -1.1671  1.5864 -1.0397
  150MOL0     H20224  13.587   0.234   8.575  0.9576 -0.0688 -2.2870
  150MOL0     H20225  13.500   0.077   8.560  3.5078 -0.6127  2.7776
  150MOL0     H20226  13.556   0.202   8.311 -0.0540 -0.0077 -0.6261
  150MOL0     H20227  13.558   0.038   8.350  1.9723  0.6518 -3.1170
  150MOL0     H20228  13.759   0.252   8.465  1.0079 -0.5852 -1.3855
  150MOL0     H20229  13.802   0.087   8.472  0.7437  1.0184  0.0486
  150MOL0     H20230  12.700   0.028   8.909 -0.7435 -0.3726  0.4110
  150MOL0     H20231  12.481   0.127   8.987  0.7673 -1.2883 -1.4509
  150MOL0     H20232  12.172   0.354   8.981  3.3409  0.0053 -1.2966
  150MOL0     H20233  11.962   0.465   8.967  1.6486  0.7501 -1.8443
  150MOL0     H20234  10.603   1.075  10.059 -0.6368  0.3081 -0.3455
  150MOL0     H20235  10.382   1.166  10.119  0.2052  0.2592  0.4085
  150MOL0     H20236  10.232   1.256  10.716 -0.9674 -3.9341 -0.3160
  150MOL0     H20237  10.057   1.364  10.842 -0.7906 -0.6974 -0.4467
  150MOL0     H20238   9.792   1.621  10.834 -2.4494 -1.8101 -2.4108
  150MOL0     H20239   9.954   1.558  10.846 -0.6046 -0.3419 -0.0210
  150MOL0     H20240   9.805   1.496  11.045  2.6873  2.6507 -0.9575
  150MOL0     H20241   9.890   1.361  10.976  1.6866  1.0768  0.4228
  150MOL0     H20242   9.676   1.334  10.824 -1.5637 -2.7685  0.5068
  150MOL0     H20243   9.606   1.450  10.941 -0.4605 -1.0375  2.6072
  150MOL0     H20244   9.569   1.195  10.988  1.4564 -0.3062 -2.7059
  150MOL0     H20245   9.738   1.181  11.031  0.5082 -0.3292 -2.0131
  150MOL0     H20246   9.603   1.385  11.367  0.8071 -2.2610  1.7588
  150MOL0     H20247   9.847   1.421  10.470 -0.0703  0.6499 -0.5758
  150MOL0     H20248   9.896   1.293  10.290 -0.7648  1.3742  4.3319
  150MOL0     H20249  10.054   1.369  10.235  2.9925 -0.6149  0.8291
  150MOL0     H20250  10.041   1.193  10.278  1.5290 -0.5329  1.1087
  151MOL0     O20251   9.098  10.731   1.101  0.4211  0.4387 -1.5075
  151MOL0     C20252   9.061  10.757   1.215  0.5033 -0.3108 -0.4586
  151MOL0     O20253   9.138  10.810   1.313 -0.7503 -0.2295  0.0248
  151MOL0     C20254   9.263  10.852   1.283  0.4425 -0.1397  0.3055
  151MOL0     C20255   9.375  10.822   1.356 -0.4998 -0.4548  0.1639
  151MOL0     C20256   9.496  10.878   1.313 -0.0656 -0.3157  0.5731
  151MOL0     C20257   9.518  10.963   1.203  0.0656  0.2458  0.1820
  151MOL0     O20258   9.635  11.015   1.183 -0.7197  0.1481 -0.5159
  151MOL0     C20259   9.651  11.150   1.126 -0.4958 -0.0017 -0.3470
  151MOL0     C20260   9.781  11.214   1.176  0.7021  0.1194  0.7206
  151MOL0     C20261   9.911  11.129   1.138 -0.0676  0.0487  0.7764
  151MOL0     C20262   9.921  11.102   0.987 -0.1318  0.5997  0.3496
  151MOL0     C20263  10.055  11.043   0.939  0.7875 -0.0020  0.7110
  151MOL0     C20264  10.171  11.138   0.966 -0.2022 -0.4894  0.2590
  151MOL0     C20265  10.301  11.066   0.923 -0.4116 -0.4472  0.2976
  151MOL0     C20266  10.421  11.173   0.918  0.6319  0.3022  0.6300
  151MOL0     N20267  10.402  11.274   0.811 -0.1905 -0.9314  0.1654
  151MOL0     C20268  10.489  11.300   0.702 -0.3313 -0.8089  0.2784
  151MOL0     C20269  10.453  11.421   0.670  0.6093 -0.1908 -0.8704
  151MOL0     C20270  10.533  11.502   0.556  0.6611  0.1117  0.0667
  151MOL0     C20271  10.685  11.482   0.556 -0.2657 -0.1640  0.1719
  151MOL0     C20272  10.764  11.535   0.686  0.5811 -0.4762  1.1474
  151MOL0     C20273  10.840  11.428   0.765  0.1590  0.4117  0.2776
  151MOL0     O20274  10.920  11.491   0.871 -0.1982 -0.4134  0.4067
  151MOL0     C20275  10.856  11.510   0.988  0.3289 -0.4727  0.1945
  151MOL0     C20276  10.944  11.555   1.090 -0.4507 -0.5189 -0.1998
  151MOL0     C20277  10.892  11.600   1.213  0.1960  0.6555  0.1535
  151MOL0     C20278  10.761  11.557   1.250 -0.0139  0.0983  0.9014
  151MOL0     C20279  10.703  11.586   1.386 -0.3391  1.2340 -0.2167
  151MOL0     O20280  10.777  11.664   1.469  0.3542  0.5003 -0.1585
  151MOL0     C20281  10.734  11.674   1.598 -0.5881  0.2741 -0.4126
  151MOL0     C20282  10.622  11.748   1.632  0.4214  0.0517 -0.5521
  151MOL0     C20283  10.578  11.762   1.760  0.7650  0.5298 -0.2482
  151MOL0     C20284  10.632  11.694   1.865 -1.0584 -1.0037 -0.0410
  151MOL0     O20285  10.587  11.710   1.998 -0.2638  0.0626  0.4199
  151MOL0     C20286  10.610  11.611   2.097  0.2723  0.2109 -0.3859
  151MOL0     C20287  10.528  11.489   2.083 -0.1715 -0.4132  0.4990
  151MOL0     C20288  10.374  11.524   2.077 -0.7325 -0.1596  0.1887
  151MOL0     C20289  10.295  11.413   2.023  0.9135  0.6985  0.8614
  151MOL0     C20290  10.147  11.409   2.076 -0.3815  0.5226  0.3783
  151MOL0     C20291  10.074  11.293   2.011  0.5519  0.7018 -0.0311
  151MOL0     C20292   9.940  11.257   2.089  0.3316  0.1873  1.5906
  151MOL0     C20293   9.954  11.223   2.239 -0.1065  0.3360  0.7430
  151MOL0    Cl20294  10.074  11.087   2.274  0.9727 -0.4274  0.0014
  151MOL0     C20295  10.749  11.614   1.841  1.0449  0.1159  0.4041
  151MOL0     C20296  10.792  11.601   1.704  0.1520  0.0379  0.5570
  151MOL0     O20297  10.592  11.530   1.409  0.1210 -0.5315 -0.2925
  151MOL0     C20298  10.682  11.489   1.153  0.0326 -0.0526 -0.0891
  151MOL0     C20299  10.728  11.479   1.023  0.4403  0.2926 -0.0803
  151MOL0     N20300  10.364  11.476   0.750  0.6489 -0.4887  0.0596
  151MOL0     N20301  10.336  11.395   0.844  1.0077 -0.0673  0.1220
  151MOL0     C20302   9.401  10.987   1.129  0.3341  0.3279 -0.2232
  151MOL0     C20303   9.279  10.939   1.175 -0.0705 -0.7254 -0.7653
  151MOL0     C20304   8.924  10.723   1.262 -0.7395  0.1982  0.2892
  151MOL0     C20305   8.885  10.776   1.383 -0.1010  0.4113  0.9152
  151MOL0     C20306   8.763  10.749   1.443  0.3855 -0.8315  0.1441
  151MOL0     C20307   8.659  10.683   1.377 -0.5005  0.1232 -0.8852
  151MOL0     O20308   8.544  10.656   1.446  0.7390 -0.7758  0.3366
  151MOL0     C20309   8.453  10.556   1.390 -0.9130  0.6162 -0.8701
  151MOL0     C20310   8.330  10.612   1.310 -0.7583 -0.3060 -0.6368
  151MOL0     C20311   8.249  10.704   1.404 -0.1462  0.1736 -0.1223
  151MOL0     C20312   8.120  10.771   1.344 -0.1606 -0.1675 -0.6396
  151MOL0     C20313   8.156  10.864   1.243  0.3887 -0.3403  0.6508
  151MOL0     C20314   8.195  10.925   1.146 -0.2691  0.8753 -0.2773
  151MOL0     C20315   8.691  10.641   1.247 -0.9064  1.6952 -0.5546
  151MOL0     C20316   8.822  10.656   1.193  0.7790 -0.0128  0.4869
  151MOL0     C20317   8.839  10.587   1.054  0.0448 -0.1773 -0.2928
  151MOL0     H20318   9.366  10.763   1.446  2.3004 -2.3306 -0.6204
  151MOL0     H20319   9.587  10.883   1.372 -0.8975 -0.8808  1.9562
  151MOL0     H20320   9.644  11.145   1.017 -0.0461  1.1638 -0.4374
  151MOL0     H20321   9.566  11.213   1.153  0.1715  1.8159 -2.1986
  151MOL0     H20322   9.770  11.206   1.285 -0.9072 -1.8269  0.4672
  151MOL0     H20323   9.790  11.319   1.147 -1.5736  0.4379  0.9991
  151MOL0     H20324   9.917  11.034   1.192  0.1385 -1.5192 -1.8089
  151MOL0     H20325   9.995  11.193   1.168  1.3736 -0.7110 -1.4041
  151MOL0     H20326   9.850  11.020   0.976  2.4707 -2.1863  2.4194
  151MOL0     H20327   9.893  11.194   0.935  1.9004  1.9646  1.4916
  151MOL0     H20328  10.077  10.944   0.979  1.2766 -0.0649  0.2870
  151MOL0     H20329  10.051  11.023   0.832  0.2560 -1.9739  1.0593
  151MOL0     H20330  10.162  11.232   0.910  1.7690 -1.3794 -1.6954
  151MOL0     H20331  10.169  11.167   1.071  2.5292  2.2070 -0.2950
  151MOL0     H20332  10.280  11.022   0.825 -1.7071 -0.6811  0.6671
  151MOL0     H20333  10.330  10.976   0.978  1.2690 -0.0137  0.1737
  151MOL0     H20334  10.431  11.227   1.013 -2.2033 -0.5673  1.5214
  151MOL0     H20335  10.516  11.123   0.896 -0.7875 -2.0520 -0.5124
  151MOL0     H20336  10.564  11.225   0.676  0.8074  0.9594 -1.8207
  151MOL0     H20337  10.482  11.493   0.460 -3.6980 -0.1368  2.1346
  151MOL0     H20338  10.503  11.605   0.579 -0.2091 -0.4405  1.6257
  151MOL0     H20339  10.716  11.379   0.534 -0.0339  0.0442 -0.5132
  151MOL0     H20340  10.725  11.538   0.471 -1.1603 -0.6739 -0.6043
  151MOL0     H20341  10.696  11.592   0.749  0.9956  1.0036  0.3101
  151MOL0     H20342  10.846  11.594   0.644  1.0872 -0.7944  1.6778
  151MOL0     H20343  10.910  11.373   0.700  2.2050 -0.6325  3.1739
  151MOL0     H20344  10.768  11.352   0.794  1.2935 -1.4709 -1.5225
  151MOL0     H20345  11.049  11.576   1.075 -0.2268 -1.1483  0.4625
  151MOL0     H20346  10.963  11.643   1.282  1.1459  0.1270 -0.4762
  151MOL0     H20347  10.567  11.797   1.553  0.4443  3.0996  1.1888
  151MOL0     H20348  10.504  11.834   1.791 -0.1899 -0.8208  0.7574
  151MOL0     H20349  10.714  11.576   2.102  0.8059  1.5931 -1.4190
  151MOL0     H20350  10.587  11.655   2.195 -1.7715 -1.0669 -0.2280
  151MOL0     H20351  10.552  11.444   1.986 -0.1484  2.6294 -1.0017
  151MOL0     H20352  10.549  11.412   2.158  1.7615 -0.8639 -0.4552
  151MOL0     H20353  10.339  11.559   2.175 -3.6231  2.6228 -1.6517
  151MOL0     H20354  10.348  11.604   2.008 -1.5772 -1.9903 -1.7239
  151MOL0     H20355  10.344  11.319   2.050 -2.1716 -1.6860 -1.1264
  151MOL0     H20356  10.301  11.427   1.915  1.0948  1.9716  1.0164
  151MOL0     H20357  10.092  11.500   2.049 -2.5040 -1.5288 -3.0257
  151MOL0     H20358  10.156  11.397   2.184 -1.8830  3.5422  0.9464
  151MOL0     H20359  10.053  11.300   1.904 -0.9040 -2.3132 -0.0469
  151MOL0     H20360  10.129  11.199   2.012 -0.6453 -0.0232 -0.8566
  151MOL0     H20361   9.917  11.162   2.041  4.1492 -0.1074 -0.0140
  151MOL0     H20362   9.860  11.329   2.072 -1.5747 -1.6805  2.2317
  151MOL0     H20363   9.994  11.309   2.294 -2.1560  0.4390  2.1806
  151MOL0     H20364   9.854  11.205   2.278 -0.3215 -1.6331 -0.5717
  151MOL0     H20365  10.803  11.567   1.923 -1.0074 -1.4035  0.9521
  151MOL0     H20366  10.869  11.532   1.671 -1.1576 -0.1130 -2.4933
  151MOL0     H20367  10.586  11.446   1.179 -0.6196  0.6724 -1.2070
  151MOL0     H20368  10.662  11.429   0.953  1.8841 -2.2724  0.2465
  151MOL0     H20369   9.408  11.043   1.035  0.9357  1.9070  0.7165
  151MOL0     H20370   9.196  10.965   1.110 -1.8819 -1.9348  0.9412
  151MOL0     H20371   8.943  10.845   1.444  2.5043 -0.6439 -0.2345
  151MOL0     H20372   8.745  10.803   1.535  0.2232  0.5243 -0.6512
  151MOL0     H20373   8.425  10.501   1.480  3.3010  2.2106  1.7362
  151MOL0     H20374   8.508  10.486   1.326  0.3506  0.1996  0.5975
  151MOL0     H20375   8.261  10.535   1.276 -0.4511 -1.7943  1.8286
  151MOL0     H20376   8.366  10.662   1.220  0.3749 -2.3395 -1.3734
  151MOL0     H20377   8.314  10.776   1.455 -0.4447 -0.4105  1.1103
  151MOL0     H20378   8.227  10.638   1.488  0.4251  0.3199  0.1480
  151MOL0     H20379   8.066  10.684   1.307 -0.4403 -0.3040  0.0732
  151MOL0     H20380   8.057  10.814   1.423  1.7967 -0.7898  1.3585
  151MOL0     H20381   8.226  10.977   1.057  0.3040  0.8719 -0.0890
  151MOL0     H20382   8.606  10.602   1.192  0.8238  1.4064 -3.1990
  151MOL0     H20383   8.939  10.577   1.011  0.6391 -0.9294  1.1956
  151MOL0     H20384   8.810  10.483   1.071 -0.8120 -0.2645 -1.9870
  151MOL0     H20385   8.778  10.632   0.974  0.9904 -0.2279 -1.0632
  152MOL0     O20386   1.873  10.702   5.814  0.2609 -0.2638  0.2508
  152MOL0     C20387   1.868  10.623   5.909 -0.0082  0.1656  0.3006
  152MOL0     O20388   1.975  10.597   5.994 -0.0469  0.2649  0.3492
  152MOL0     C20389   2.102  10.649   5.953  1.2947 -0.2258  0.9586
  152MOL0     C20390   2.173  10.581   5.853 -0.4849  0.8588  0.9450
  152MOL0     C20391   2.275  10.654   5.792 -1.0428 -0.0855 -1.0736
  152MOL0     C20392   2.317  10.777   5.838 -0.1227  0.0791  0.2385
  152MOL0     O20393   2.434  10.815   5.771 -0.3422  0.1246  0.4330
  152MOL0     C20394   2.477  10.951   5.797 -0.6395  0.2284 -0.0235
  152MOL0     C20395   2.384  11.054   5.723 -0.0473  0.9339  0.6050
  152MOL0     C20396   2.418  11.060   5.565  0.5538  0.8183 -1.0383
  152MOL0     C20397   2.330  11.162   5.492 -0.1357  0.5419 -0.6905
  152MOL0     C20398   2.368  11.296   5.530  0.7545 -0.5914  0.2325
  152MOL0     C20399   2.266  11.353   5.632 -0.2457  0.5742 -0.3057
  152MOL0     C20400   2.328  11.483   5.700 -0.3549  0.3327  0.5736
  152MOL0     C20401   2.395  11.467   5.847  0.5521 -0.2605 -0.1259
  152MOL0     N20402   2.531  11.413   5.848  0.3765  0.1813 -0.2393
  152MOL0     C20403   2.642  11.438   5.769  0.1384 -0.1896  0.7105
  152MOL0     C20404   2.722  11.335   5.796 -0.1085 -1.2027  0.5407
  152MOL0     C20405   2.851  11.297   5.738 -1.4490 -0.2673 -0.4600
  152MOL0     C20406   2.841  11.153   5.668  0.7574 -0.5295  0.2266
  152MOL0     C20407   2.964  11.106   5.611 -0.1988  0.3542  0.1266
  152MOL0     C20408   3.010  11.193   5.492 -0.3136  0.2293  0.1474
  152MOL0     O20409   2.950  11.141   5.373  0.1143  0.0636 -0.1507
  152MOL0     C20410   2.816  11.165   5.335 -0.7607  0.6912  0.1605
  152MOL0     C20411   2.758  11.290   5.353  0.6204  0.3427 -0.1197
  152MOL0     C20412   2.634  11.322   5.304 -0.3604 -0.2703  0.2653
  152MOL0     C20413   2.562  11.232   5.216 -0.2610 -1.3422 -0.1401
  152MOL0     C20414   2.425  11.262   5.152  0.2934 -0.9369 -0.8104
  152MOL0     O20415   2.358  11.155   5.094 -0.6105  0.7551  0.0809
  152MOL0     C20416   2.232  11.179   5.043  0.5757 -0.8445  0.2935
  152MOL0     C20417   2.137  11.286   5.070  0.5464 -0.1732  0.4629
  152MOL0     C20418   2.014  11.298   4.999 -0.1008  0.6058 -1.3272
  152MOL0     C20419   1.974  11.206   4.910 -0.1015 -0.1432 -0.1197
  152MOL0     O20420   1.847  11.202   4.857 -0.0695 -0.1800  0.1920
  152MOL0     C20421   1.736  11.231   4.940  0.4312 -0.5076  0.6297
  152MOL0     C20422   1.671  11.362   4.895  0.0232  0.3396  0.5860
  152MOL0     C20423   1.533  11.379   4.947  0.3760  0.8632 -0.4775
  152MOL0     C20424   1.520  11.403   5.088  0.0871 -0.8238 -0.8941
  152MOL0     C20425   1.380  11.416   5.153  0.1833 -0.0130  0.3802
  152MOL0     C20426   1.404  11.451   5.304  0.4039  0.8188  0.1676
  152MOL0     C20427   1.276  11.451   5.383  0.0562  0.0189 -0.8236
  152MOL0     C20428   1.284  11.483   5.531  0.0974 -0.1512 -0.4376
  152MOL0    Cl20429   1.126  11.513   5.616  0.7079 -0.2906 -0.2740
  152MOL0     C20430   2.052  11.087   4.890  0.4616  0.6979 -0.7655
  152MOL0     C20431   2.181  11.081   4.951  0.5300 -0.6671  0.7587
  152MOL0     O20432   2.402  11.381   5.135  0.7402 -0.3324 -0.4989
  152MOL0     C20433   2.634  11.121   5.178 -0.6571  1.1997  0.0891
  152MOL0     C20434   2.754  11.088   5.238 -0.5973 -0.3284  0.5435
  152MOL0     N20435   2.668  11.253   5.896 -0.7957 -0.9315 -0.6013
  152MOL0     N20436   2.561  11.299   5.926  0.3976  0.2062  0.0536
  152MOL0     C20437   2.236  10.847   5.926 -0.1649  0.9431 -0.1599
  152MOL0     C20438   2.128  10.787   5.979 -1.1515 -0.1150 -0.5288
  152MOL0     C20439   1.750  10.551   5.937  0.3371  0.7533  0.8256
  152MOL0     C20440   1.762  10.445   6.029 -0.0461  0.8141  0.0574
  152MOL0     C20441   1.656  10.350   6.055 -0.1240 -0.8942 -0.1627
  152MOL0     C20442   1.527  10.379   5.998 -0.0343 -0.0427  0.0949
  152MOL0     O20443   1.409  10.321   6.046 -0.3557 -0.8507  0.5774
  152MOL0     C20444   1.419  10.183   6.016  0.1529 -0.5946 -0.2344
  152MOL0     C20445   1.283  10.108   6.030  0.7216 -0.3000  0.6572
  152MOL0     C20446   1.180  10.154   5.917  0.2890  0.3834 -0.0853
  152MOL0     C20447   1.037  10.103   5.922  0.5407  0.0842 -0.2699
  152MOL0     C20448   0.970  10.129   6.050  0.7183 -0.4099 -0.4167
  152MOL0     C20449   0.933  10.164   6.163  0.0424  0.4054  0.5033
  152MOL0     C20450   1.518  10.501   5.914 -0.2699  0.6219 -0.6577
  152MOL0     C20451   1.627  10.585   5.886  0.0422  0.2007  0.1797
  152MOL0     C20452   1.588  10.714   5.820 -0.1816  0.5426 -0.1738
  152MOL0     H20453   2.138  10.484   5.819  0.0012  0.2764  2.0579
  152MOL0     H20454   2.348  10.611   5.724 -0.3100 -1.1434  0.3315
  152MOL0     H20455   2.480  10.973   5.904  1.0405  3.2310 -0.5909
  152MOL0     H20456   2.580  10.964   5.762 -0.5278 -2.2256 -0.8055
  152MOL0     H20457   2.404  11.153   5.766  3.9688  1.2822 -1.5529
  152MOL0     H20458   2.280  11.025   5.739 -0.6312  1.1423 -2.3075
  152MOL0     H20459   2.400  10.964   5.517  0.5473  0.9005 -1.2009
  152MOL0     H20460   2.525  11.078   5.552  1.1945 -0.0416  2.2032
  152MOL0     H20461   2.334  11.149   5.384 -3.5511 -0.2285 -0.8460
  152MOL0     H20462   2.224  11.149   5.518  0.6864 -0.3769  2.7233
  152MOL0     H20463   2.467  11.291   5.576 -0.7816 -0.4939  3.8658
  152MOL0     H20464   2.356  11.363   5.445 -0.2713 -0.8413  0.1622
  152MOL0     H20465   2.173  11.380   5.582 -0.4969  0.7167  0.2323
  152MOL0     H20466   2.243  11.272   5.702 -0.1547  1.2873  0.5624
  152MOL0     H20467   2.248  11.554   5.720  1.6963  2.2434  2.4759
  152MOL0     H20468   2.393  11.535   5.629 -0.7562 -0.4528 -0.3930
  152MOL0     H20469   2.415  11.568   5.885 -0.4907  0.3247 -1.0710
  152MOL0     H20470   2.329  11.408   5.910 -2.7623  2.4010 -0.8143
  152MOL0     H20471   2.638  11.513   5.691 -3.5191 -3.0793 -2.2381
  152MOL0     H20472   2.877  11.373   5.664 -4.9685  1.4522 -0.1772
  152MOL0     H20473   2.924  11.288   5.819 -1.7602 -1.0834 -0.2577
  152MOL0     H20474   2.814  11.078   5.743 -0.2590  0.8314  1.2755
  152MOL0     H20475   2.751  11.147   5.608  1.7689 -3.3050 -1.1959
  152MOL0     H20476   2.955  11.005   5.572  0.3840  0.2676  0.2068
  152MOL0     H20477   3.041  11.097   5.688  1.3486  2.2787 -1.0785
  152MOL0     H20478   3.116  11.179   5.467 -0.9708 -0.2109 -2.8516
  152MOL0     H20479   3.004  11.302   5.493 -0.7515  0.2493 -1.6598
  152MOL0     H20480   2.809  11.368   5.409  1.1785  0.4522 -0.7711
  152MOL0     H20481   2.579  11.414   5.324 -0.9792 -0.9291  1.7069
  152MOL0     H20482   2.165  11.371   5.131 -0.4684  0.7874 -0.3355
  152MOL0     H20483   1.949  11.378   5.030 -0.7416 -0.2829 -0.2935
  152MOL0     H20484   1.668  11.145   4.942 -0.7517  0.3516  4.2567
  152MOL0     H20485   1.775  11.249   5.040  3.1376 -0.4546 -0.3592
  152MOL0     H20486   1.733  11.450   4.914  0.9179  0.0965 -1.0060
  152MOL0     H20487   1.675  11.362   4.786  2.7087 -1.0743  0.5868
  152MOL0     H20488   1.495  11.463   4.889  0.4320  2.7801  2.0840
  152MOL0     H20489   1.480  11.285   4.927  3.0960 -1.0078  0.6163
  152MOL0     H20490   1.572  11.498   5.101 -0.5662 -0.3994 -1.2830
  152MOL0     H20491   1.580  11.337   5.151 -3.2002 -1.1597  2.1853
  152MOL0     H20492   1.329  11.321   5.140  0.2990  0.0096 -0.3214
  152MOL0     H20493   1.315  11.493   5.109  1.7349  0.9976 -0.2588
  152MOL0     H20494   1.457  11.371   5.355 -1.5237 -1.3098 -0.9688
  152MOL0     H20495   1.460  11.543   5.323  0.8405  0.7170 -0.5709
  152MOL0     H20496   1.232  11.352   5.366  0.6988 -0.3973 -0.1180
  152MOL0     H20497   1.216  11.526   5.331  0.9646  0.1467 -1.7161
  152MOL0     H20498   1.332  11.397   5.579  0.6260  0.2097 -0.3120
  152MOL0     H20499   1.342  11.570   5.564 -0.8623 -0.6614  3.0043
  152MOL0     H20500   2.035  11.018   4.808  1.4912  0.7926 -1.0734
  152MOL0     H20501   2.243  10.994   4.930 -0.2354 -1.1164  0.3073
  152MOL0     H20502   2.595  11.046   5.109  0.1454 -1.1401  2.0501
  152MOL0     H20503   2.807  11.000   5.203  2.3080  0.1829  3.2093
  152MOL0     H20504   2.251  10.952   5.950 -0.4469  1.0713 -0.5370
  152MOL0     H20505   2.058  10.850   6.033  1.8818  2.0951  1.1575
  152MOL0     H20506   1.862  10.420   6.064  0.0217  0.3222 -0.4735
  152MOL0     H20507   1.681  10.267   6.119  1.8164  0.3549  0.7812
  152MOL0     H20508   1.489  10.130   6.081  2.4101  0.2442 -1.8456
  152MOL0     H20509   1.456  10.164   5.914  1.4690 -5.0376  0.8500
  152MOL0     H20510   1.233  10.133   6.123 -3.0023  2.1365 -1.7292
  152MOL0     H20511   1.287  10.000   6.012  0.2654 -0.8515  3.5275
  152MOL0     H20512   1.229  10.125   5.823  1.2001 -6.6655  1.9383
  152MOL0     H20513   1.169  10.262   5.919 -1.1447  0.3853 -2.8439
  152MOL0     H20514   0.982  10.148   5.839 -1.9485 -1.2653  0.5628
  152MOL0     H20515   1.041   9.996   5.899 -1.0938 -0.4511  1.6689
  152MOL0     H20516   0.903  10.210   6.255 -1.8729  0.3138 -0.0357
  152MOL0     H20517   1.423  10.551   5.898  0.2431  3.5244  3.7070
  152MOL0     H20518   1.482  10.741   5.809  0.7161  4.9999  0.3687
  152MOL0     H20519   1.643  10.791   5.873  0.2195 -0.5882  1.1096
  152MOL0     H20520   1.630  10.697   5.720  0.8905 -3.7254  0.7716
  153MOL0     O20521  10.773   0.621  10.404 -0.6241  0.5434 -0.5629
  153MOL0     C20522  10.712   0.539  10.483 -0.4388  0.2205 -0.6687
  153MOL0     O20523  10.756   0.405  10.511 -0.1552 -0.0757  0.1228
  153MOL0     C20524  10.861   0.350  10.427 -0.2053 -0.4957 -0.3119
  153MOL0     C20525  10.995   0.389  10.426  0.6427  0.6293  0.1307
  153MOL0     C20526  11.088   0.320  10.353 -0.1414 -0.5215 -0.4166
  153MOL0     C20527  11.061   0.202  10.277  0.0828  0.6041  0.2910
  153MOL0     O20528  11.154   0.140  10.192  0.3509 -0.0551 -0.9782
  153MOL0     C20529  11.099   0.042  10.091 -0.3480 -0.6262 -0.3897
  153MOL0     C20530  11.203  -0.008   9.998  0.6708  0.1486 -0.3652
  153MOL0     C20531  11.174  -0.138   9.910 -0.3104  0.2210  0.3321
  153MOL0     C20532  11.192  -0.255  10.009  0.1695 -0.1205 -0.4088
  153MOL0     C20533  11.188  -0.387   9.946  0.8180  0.2646  0.2765
  153MOL0     C20534  11.306  -0.402   9.842  0.4416  0.4204 -0.4399
  153MOL0     C20535  11.439  -0.408   9.906  0.1959  0.2530  0.4270
  153MOL0     C20536  11.536  -0.449   9.791 -0.2170 -0.0106  0.6565
  153MOL0     N20537  11.680  -0.476   9.836  0.1764 -0.5615  0.4773
  153MOL0     C20538  11.760  -0.392   9.911 -0.0155  0.5124 -0.0432
  153MOL0     C20539  11.887  -0.446   9.896  0.2498  0.7312 -1.0884
  153MOL0     C20540  12.024  -0.399   9.958  0.2919  0.7757  0.1228
  153MOL0     C20541  12.080  -0.277   9.894  0.3185 -0.1406 -0.1637
  153MOL0     C20542  12.013  -0.143   9.922 -0.1894  0.0839  0.4197
  153MOL0     C20543  12.055  -0.091  10.067 -0.0685  0.2404  0.2400
  153MOL0     O20544  11.980  -0.166  10.159 -0.5424 -0.3407 -0.2186
  153MOL0     C20545  11.901  -0.102  10.247 -0.1340 -0.0715 -0.7527
  153MOL0     C20546  11.925   0.021  10.317  0.1178 -0.0193  0.2499
  153MOL0     C20547  11.836   0.070  10.404 -0.6754  0.1178 -0.1022
  153MOL0     C20548  11.706   0.016  10.423 -0.1022  0.3842 -0.8416
  153MOL0     C20549  11.615   0.078  10.526  0.0354 -0.0823 -0.0851
  153MOL0     O20550  11.483   0.102  10.497  0.0167 -0.1272 -0.9329
  153MOL0     C20551  11.410   0.195  10.568  0.5661 -0.4458 -0.1405
  153MOL0     C20552  11.274   0.160  10.594 -0.2631 -1.0991  0.3211
  153MOL0     C20553  11.195   0.253  10.669 -0.2499 -0.9196  0.2827
  153MOL0     C20554  11.253   0.371  10.716 -0.5419  0.2252 -0.2429
  153MOL0     O20555  11.185   0.468  10.791 -0.4449 -0.2377 -0.4908
  153MOL0     C20556  11.049   0.447  10.827  1.1403 -0.3733  0.4082
  153MOL0     C20557  10.993   0.565  10.888  1.0384 -0.1635 -0.8007
  153MOL0     C20558  10.849   0.547  10.937 -0.2819 -0.1504  0.0148
  153MOL0     C20559  10.790   0.682  10.980  0.7464  0.2106 -0.4005
  153MOL0     C20560  10.854   0.744  11.108 -0.1913  0.7871 -0.0340
  153MOL0     C20561  10.780   0.876  11.150 -0.4678  0.1435 -0.5229
  153MOL0     C20562  10.809   0.903  11.299  0.8792 -0.7419 -0.2669
  153MOL0     C20563  10.750   1.037  11.346  1.0035 -0.8077 -0.0411
  153MOL0    Cl20564  10.569   1.043  11.327 -0.3852 -0.0980 -0.2633
  153MOL0     C20565  11.390   0.399  10.689 -0.0112 -0.3530  0.5899
  153MOL0     C20566  11.464   0.312  10.621  0.3333 -0.4126  0.0827
  153MOL0     O20567  11.669   0.102  10.636  0.8434 -0.2327  0.5547
  153MOL0     C20568  11.681  -0.106  10.351  0.2339 -0.2350  0.5103
  153MOL0     C20569  11.781  -0.164  10.273  0.6667  0.9426  0.5216
  153MOL0     N20570  11.873  -0.568   9.830  0.6428 -0.2179 -0.2089
  153MOL0     N20571  11.748  -0.590   9.805 -0.0529 -0.1737 -0.8403
  153MOL0     C20572  10.925   0.160  10.289  0.6086 -0.2729 -0.4078
  153MOL0     C20573  10.831   0.234  10.358 -0.3911  0.3225 -0.1039
  153MOL0     C20574  10.592   0.591  10.559  0.6444  0.7305 -0.1647
  153MOL0     C20575  10.558   0.520  10.680 -0.1510  0.2286  0.5925
  153MOL0     C20576  10.450   0.558  10.752  0.4286 -0.0386  0.1473
  153MOL0     C20577  10.366   0.666  10.711 -0.6118 -0.6998 -0.4529
  153MOL0     O20578  10.255   0.697  10.784 -0.1256  0.4276  0.4615
  153MOL0     C20579  10.282   0.737  10.916  0.4144 -0.7533  0.4736
  153MOL0     C20580  10.174   0.838  10.971  0.0260  0.3397  0.2422
  153MOL0     C20581  10.161   0.956  10.876 -0.6431  0.8497 -0.5729
  153MOL0     C20582  10.023   1.027  10.904 -0.4997  0.5792  0.3181
  153MOL0     C20583  10.010   1.083  11.036 -0.1555  1.0896  0.0590
  153MOL0     C20584   9.999   1.133  11.150 -0.2068  0.2594  0.1265
  153MOL0     C20585  10.406   0.741  10.603  0.1257  0.3414 -0.2700
  153MOL0     C20586  10.512   0.703  10.523 -0.1023 -0.1524  0.7709
  153MOL0     C20587  10.529   0.774  10.392 -0.3206  0.0351  0.2727
  153MOL0     H20588  11.038   0.463  10.492 -0.7240  1.8108 -0.2573
  153MOL0     H20589  11.193   0.338  10.374  0.1684 -2.5270 -0.1130
  153MOL0     H20590  11.064  -0.047  10.145  3.4901 -2.0674  0.0486
  153MOL0     H20591  11.025   0.084  10.023  1.2365  1.8377 -0.6918
  153MOL0     H20592  11.290  -0.024  10.063 -0.8114  0.8035  1.9257
  153MOL0     H20593  11.234   0.069   9.927 -1.0153  0.3251 -0.9381
  153MOL0     H20594  11.247  -0.145   9.828  1.1478 -2.1141  1.7006
  153MOL0     H20595  11.074  -0.128   9.867 -0.0573 -0.5825 -0.4828
  153MOL0     H20596  11.288  -0.245  10.060 -0.1456  2.7011 -0.2123
  153MOL0     H20597  11.112  -0.257  10.083 -0.8588 -1.6495 -1.4926
  153MOL0     H20598  11.194  -0.457  10.029  1.7171 -0.2416 -0.1906
  153MOL0     H20599  11.090  -0.398   9.899 -1.2331  2.4277  3.6394
  153MOL0     H20600  11.287  -0.496   9.790 -0.4438  0.9374 -1.0767
  153MOL0     H20601  11.305  -0.316   9.774 -1.6997  1.8712  1.2713
  153MOL0     H20602  11.445  -0.480   9.988 -3.8905  0.1307  0.7933
  153MOL0     H20603  11.469  -0.310   9.943  0.8819 -0.3354  1.5059
  153MOL0     H20604  11.496  -0.539   9.743  5.4926 -2.0148 -1.2258
  153MOL0     H20605  11.539  -0.371   9.714  1.1459 -0.5694  0.1212
  153MOL0     H20606  11.723  -0.299   9.954 -0.3374 -0.2997  1.5331
  153MOL0     H20607  12.017  -0.401  10.067  0.5536 -2.6127  0.1702
  153MOL0     H20608  12.097  -0.478   9.939 -0.6774  0.4689 -2.7311
  153MOL0     H20609  12.183  -0.270   9.932  0.2196 -0.4187  0.1600
  153MOL0     H20610  12.102  -0.298   9.789 -3.5486 -0.6643 -1.0196
  153MOL0     H20611  11.904  -0.144   9.920 -0.1794 -0.2603 -0.7030
  153MOL0     H20612  12.043  -0.080   9.837 -1.4959 -0.4704 -0.4844
  153MOL0     H20613  12.029   0.015  10.065  4.8282  1.6608 -0.0452
  153MOL0     H20614  12.163  -0.106  10.065 -0.1893 -1.2635  2.1626
  153MOL0     H20615  12.016   0.076  10.294 -0.3053 -0.1405 -1.8488
  153MOL0     H20616  11.847   0.168  10.449 -0.9443  0.9677 -1.8061
  153MOL0     H20617  11.234   0.075  10.539 -3.0648 -0.4026  1.1157
  153MOL0     H20618  11.087   0.246  10.668 -0.6949  3.3725  0.2349
  153MOL0     H20619  11.000   0.446  10.729  4.2570  0.4044 -1.3033
  153MOL0     H20620  11.025   0.353  10.877 -2.0108 -0.1893 -0.5087
  153MOL0     H20621  11.054   0.586  10.976 -1.6571 -0.9080  1.4101
  153MOL0     H20622  10.987   0.651  10.821  0.9954  1.7287  1.4887
  153MOL0     H20623  10.789   0.514  10.851  0.9621  0.5902 -1.1839
  153MOL0     H20624  10.842   0.481  11.024 -0.1723 -0.4398 -0.1924
  153MOL0     H20625  10.684   0.664  11.000  0.6505  1.4146  0.2444
  153MOL0     H20626  10.786   0.766  10.910  2.9962 -0.2943 -1.2405
  153MOL0     H20627  10.958   0.763  11.080 -0.0033 -1.6546 -1.2388
  153MOL0     H20628  10.866   0.681  11.196 -1.6636 -1.2807 -1.2386
  153MOL0     H20629  10.829   0.952  11.088 -0.5741 -1.0539 -2.1538
  153MOL0     H20630  10.676   0.884  11.117 -1.3534  1.0752  2.2121
  153MOL0     H20631  10.917   0.914  11.311  0.6747  0.8263  0.4051
  153MOL0     H20632  10.777   0.823  11.366  3.8984 -0.6654  1.4301
  153MOL0     H20633  10.775   1.066  11.448 -0.2636  4.1245 -0.8534
  153MOL0     H20634  10.793   1.120  11.288 -0.4861  1.5268  1.9802
  153MOL0     H20635  11.428   0.489  10.736  0.2489 -1.1209  1.8982
  153MOL0     H20636  11.568   0.339  10.604 -1.1135  4.6114 -2.7352
  153MOL0     H20637  11.589  -0.164  10.348  0.0604 -0.2105  3.3554
  153MOL0     H20638  11.746  -0.245  10.210  0.7653  1.3776 -0.1107
  153MOL0     H20639  10.883   0.080  10.230  0.5509 -1.3397  1.0116
  153MOL0     H20640  10.725   0.211  10.353 -0.2218 -0.0964 -2.6133
  153MOL0     H20641  10.616   0.434  10.713 -0.9864 -1.3135 -1.6835
  153MOL0     H20642  10.419   0.506  10.842  0.2020 -3.6815 -1.8371
  153MOL0     H20643  10.384   0.776  10.930  0.5863 -0.6795 -0.7816
  153MOL0     H20644  10.276   0.645  10.975 -2.8275 -0.3233  0.9938
  153MOL0     H20645  10.189   0.874  11.073  0.9542  1.6037 -0.3160
  153MOL0     H20646  10.083   0.780  10.985  0.4383 -0.2996  0.3204
  153MOL0     H20647  10.164   0.930  10.770 -1.0053  1.7934 -0.8176
  153MOL0     H20648  10.243   1.021  10.905  1.9665 -2.7655  0.9873
  153MOL0     H20649  10.018   1.110  10.833 -0.6815  0.8733  0.6734
  153MOL0     H20650   9.939   0.960  10.880  0.8852 -0.9575 -0.4994
  153MOL0     H20651   9.992   1.171  11.250 -0.9656 -0.7074  0.4679
  153MOL0     H20652  10.353   0.831  10.576 -0.7142  0.6412  2.1491
  153MOL0     H20653  10.620   0.832  10.381 -0.4686 -0.0687 -2.1077
  153MOL0     H20654  10.540   0.689  10.324 -0.0566  0.7512 -0.5996
  153MOL0     H20655  10.450   0.841  10.356 -0.8058 -1.7639 -2.3293
  154MOL0     O20656   6.775   3.749   6.174  0.0918  1.2686 -0.7545
  154MOL0     C20657   6.737   3.850   6.124 -0.6157 -0.6323 -0.2370
  154MOL0     O20658   6.795   3.919   6.026  0.4155 -0.6140  0.2427
  154MOL0     C20659   6.925   3.909   5.996  0.0604 -0.5844  0.3785
  154MOL0     C20660   7.024   3.889   6.096 -0.9532  0.2281 -0.5654
  154MOL0     C20661   7.163   3.886   6.061 -0.3985  0.0152  0.0366
  154MOL0     C20662   7.201   3.890   5.927  0.9828  0.4780 -0.3829
  154MOL0     O20663   7.332   3.877   5.900 -0.2773  0.0493 -0.2010
  154MOL0     C20664   7.369   3.804   5.782  0.7926  0.2978  0.4176
  154MOL0     C20665   7.510   3.745   5.782  0.4365 -0.2211 -0.0824
  154MOL0     C20666   7.627   3.847   5.779  0.2320  0.1998 -0.2915
  154MOL0     C20667   7.757   3.776   5.738  0.0302  0.0172  0.0753
  154MOL0     C20668   7.866   3.874   5.692  0.6988 -0.0142  0.7846
  154MOL0     C20669   7.927   3.956   5.810 -0.0445  0.2329  0.0433
  154MOL0     C20670   8.043   4.041   5.751 -0.1202 -0.1738 -0.0166
  154MOL0     C20671   8.174   3.969   5.750 -0.4080  0.0452  0.4130
  154MOL0     N20672   8.283   4.051   5.691  0.0804  1.1116 -0.8439
  154MOL0     C20673   8.417   4.014   5.708  0.6572 -0.3444 -0.1800
  154MOL0     C20674   8.475   4.102   5.629 -0.4516 -0.8156 -0.1462
  154MOL0     C20675   8.617   4.100   5.588 -0.3794 -0.1509  0.8417
  154MOL0     C20676   8.720   4.117   5.698 -0.2961 -0.6476  0.0616
  154MOL0     C20677   8.753   4.264   5.710 -0.5543 -0.9439 -0.4654
  154MOL0     C20678   8.854   4.322   5.608  0.6310  0.7903 -0.8498
  154MOL0     O20679   8.862   4.467   5.613 -1.0060 -0.1476  0.2079
  154MOL0     C20680   8.991   4.516   5.626 -0.2472  0.0652 -0.0929
  154MOL0     C20681   9.002   4.638   5.694 -0.0492 -0.9461 -0.4968
  154MOL0     C20682   9.128   4.696   5.710  0.1158  0.9261  0.0654
  154MOL0     C20683   9.234   4.634   5.651  0.1226  0.1844  0.4993
  154MOL0     C20684   9.366   4.689   5.668  1.5912  0.0746 -0.6029
  154MOL0     O20685   9.450   4.684   5.565 -0.4399  0.3759 -0.1173
  154MOL0     C20686   9.578   4.734   5.574  0.3876 -0.6147 -0.8299
  154MOL0     C20687   9.678   4.678   5.654 -0.3186  0.6774  0.6319
  154MOL0     C20688   9.806   4.730   5.649 -0.0862 -0.5264  0.7247
  154MOL0     C20689   9.835   4.840   5.559 -0.5155 -0.1034  0.1695
  154MOL0     O20690   9.958   4.894   5.558 -0.2310 -0.3223  0.0782
  154MOL0     C20691  10.019   4.911   5.427  0.6527  0.1492  0.4138
  154MOL0     C20692  10.170   4.945   5.433 -0.1230 -0.1713  0.3247
  154MOL0     C20693  10.195   5.093   5.445  0.1084 -0.1939 -0.4586
  154MOL0     C20694  10.345   5.124   5.456 -0.2264  0.1963 -0.1869
  154MOL0     C20695  10.362   5.275   5.420 -0.2484 -0.7858 -0.8704
  154MOL0     C20696  10.510   5.322   5.432  0.5297 -0.4020  0.5092
  154MOL0     C20697  10.506   5.472   5.423 -0.0796 -0.6799 -0.0660
  154MOL0     C20698  10.661   5.521   5.434 -0.0971  0.2476  1.6856
  154MOL0    Cl20699  10.675   5.698   5.432  0.5984  0.7183  0.3273
  154MOL0     C20700   9.730   4.893   5.472 -0.4461  0.1774 -0.5509
  154MOL0     C20701   9.610   4.834   5.493  0.6532  0.6851  0.7796
  154MOL0     O20702   9.390   4.730   5.778 -0.5136  0.2205  0.4439
  154MOL0     C20703   9.224   4.515   5.579 -0.3451  0.2098  0.4501
  154MOL0     C20704   9.102   4.457   5.565 -0.0402  0.8312  0.0917
  154MOL0     N20705   8.382   4.195   5.580 -0.6210 -0.0172 -0.1078
  154MOL0     N20706   8.268   4.165   5.623  0.1577  0.2782 -0.6987
  154MOL0     C20707   7.100   3.901   5.824  0.1894  0.4641 -0.0631
  154MOL0     C20708   6.964   3.921   5.861  0.9228  0.3553 -0.5273
  154MOL0     C20709   6.613   3.916   6.179 -0.3645 -0.1091 -0.5128
  154MOL0     C20710   6.546   4.006   6.099 -0.0101  0.1389 -0.0559
  154MOL0     C20711   6.432   4.075   6.150  0.5308  0.3709  0.4668
  154MOL0     C20712   6.381   4.066   6.280  0.5316 -0.2828  0.4883
  154MOL0     O20713   6.281   4.154   6.318 -0.8036  0.5241  0.6122
  154MOL0     C20714   6.225   4.133   6.445  0.0216  0.6204  0.4670
  154MOL0     C20715   6.157   4.262   6.487  0.9710  0.2570  0.2827
  154MOL0     C20716   6.057   4.323   6.387  0.3774  0.0653 -0.5724
  154MOL0     C20717   5.967   4.218   6.314 -0.0425 -0.1667 -0.3314
  154MOL0     C20718   5.857   4.272   6.227  0.6439 -0.1311  0.1837
  154MOL0     C20719   5.759   4.304   6.158  0.2957 -1.1428 -0.5840
  154MOL0     C20720   6.441   3.964   6.364 -0.7211 -0.9720  0.1470
  154MOL0     C20721   6.550   3.894   6.309  0.2595 -0.3050 -0.4405
  154MOL0     C20722   6.608   3.787   6.406 -0.0184  0.2314  0.3635
  154MOL0     H20723   7.009   3.882   6.203  0.9653  3.0191  0.0081
  154MOL0     H20724   7.244   3.899   6.132  0.0486  4.5618 -0.9653
  154MOL0     H20725   7.296   3.724   5.763 -0.0408  1.4715 -1.6312
  154MOL0     H20726   7.350   3.871   5.698 -2.2986 -0.9374 -0.0330
  154MOL0     H20727   7.519   3.676   5.698  0.3287 -1.4659  0.9035
  154MOL0     H20728   7.523   3.691   5.876 -0.7565  1.9009  1.4088
  154MOL0     H20729   7.635   3.881   5.882 -2.6783  0.4829 -0.0621
  154MOL0     H20730   7.593   3.929   5.714 -1.1809  0.4389  0.7066
  154MOL0     H20731   7.812   3.722   5.815 -2.4279 -2.5282  0.2081
  154MOL0     H20732   7.732   3.704   5.660 -1.0358  0.8834 -0.4060
  154MOL0     H20733   7.936   3.816   5.632  1.3789  0.1400  1.4083
  154MOL0     H20734   7.821   3.948   5.625 -1.7747 -0.6255  1.6687
  154MOL0     H20735   7.848   4.014   5.857 -0.6651 -0.2006 -0.4540
  154MOL0     H20736   7.967   3.887   5.885 -0.3200  0.6794  0.6052
  154MOL0     H20737   8.063   4.130   5.811 -0.2640  1.4931 -2.3139
  154MOL0     H20738   8.021   4.085   5.653  1.9634 -0.2028 -0.5525
  154MOL0     H20739   8.213   3.943   5.849  1.7518 -2.9064 -1.0486
  154MOL0     H20740   8.161   3.872   5.700  1.2022  0.3424 -0.6347
  154MOL0     H20741   8.457   3.929   5.762  1.0931  1.4691  2.5642
  154MOL0     H20742   8.628   4.006   5.533 -0.4454  0.9170 -1.0652
  154MOL0     H20743   8.622   4.179   5.513 -3.4264  0.0738  0.7422
  154MOL0     H20744   8.682   4.092   5.797 -1.8435  1.8636  0.1754
  154MOL0     H20745   8.809   4.062   5.664 -1.5794 -1.7189 -1.7078
  154MOL0     H20746   8.785   4.294   5.810 -0.2143  3.9491 -1.7921
  154MOL0     H20747   8.661   4.321   5.690 -0.0192 -0.0067 -0.2855
  154MOL0     H20748   8.839   4.300   5.501 -1.4994 -0.1783 -0.3978
  154MOL0     H20749   8.948   4.270   5.628  0.8259  2.0462  1.9661
  154MOL0     H20750   8.912   4.681   5.738 -0.2433 -1.8603  0.0199
  154MOL0     H20751   9.142   4.786   5.768 -0.3210  0.7242  0.4934
  154MOL0     H20752   9.646   4.589   5.708 -0.5818 -0.7224 -1.7289
  154MOL0     H20753   9.893   4.684   5.695 -1.0469 -0.5190  2.6548
  154MOL0     H20754  10.005   4.818   5.371 -1.8522  1.5984 -1.5851
  154MOL0     H20755   9.962   4.988   5.374 -1.9974 -1.0319  1.3584
  154MOL0     H20756  10.231   4.901   5.513  2.8394  0.6957 -1.3200
  154MOL0     H20757  10.212   4.915   5.337  1.4848  1.4608  0.4649
  154MOL0     H20758  10.147   5.148   5.364  1.1374  2.6979  0.7490
  154MOL0     H20759  10.146   5.117   5.540  0.9818 -2.0978  0.5253
  154MOL0     H20760  10.405   5.069   5.383  2.5647  0.4044  1.7756
  154MOL0     H20761  10.388   5.107   5.556 -2.9828 -1.8648  0.7825
  154MOL0     H20762  10.306   5.329   5.497  0.1123 -1.7572  0.0924
  154MOL0     H20763  10.322   5.298   5.321 -0.6258 -1.7942 -0.9591
  154MOL0     H20764  10.547   5.294   5.531  2.3069 -1.3566 -0.3809
  154MOL0     H20765  10.562   5.263   5.356  0.3167 -0.7864  0.6534
  154MOL0     H20766  10.442   5.521   5.497 -0.5192  0.9737 -1.4787
  154MOL0     H20767  10.467   5.499   5.325 -2.9730  1.4501  1.5315
  154MOL0     H20768  10.706   5.480   5.525 -0.4532  0.8751  2.1522
  154MOL0     H20769  10.721   5.481   5.352  0.6435  5.0703 -0.4644
  154MOL0     H20770   9.737   4.968   5.394  2.2337  1.1501  0.4955
  154MOL0     H20771   9.532   4.879   5.433 -1.5513 -0.9863  2.2078
  154MOL0     H20772   9.309   4.480   5.522 -0.4968 -3.0597  1.9668
  154MOL0     H20773   9.091   4.372   5.498 -4.8427 -0.6249  2.2982
  154MOL0     H20774   7.147   3.915   5.727  0.8054  1.2434  0.3321
  154MOL0     H20775   6.898   3.911   5.775  0.8488  0.1828 -0.4507
  154MOL0     H20776   6.578   4.012   5.996 -0.0955  0.5030 -0.0635
  154MOL0     H20777   6.374   4.149   6.096  0.8430  0.6284  0.4799
  154MOL0     H20778   6.305   4.113   6.518  0.1293  0.1556  0.2272
  154MOL0     H20779   6.161   4.045   6.458 -1.3211  1.6472  1.0394
  154MOL0     H20780   6.230   4.342   6.504  2.9508 -1.2222 -0.8757
  154MOL0     H20781   6.096   4.234   6.574  1.1336 -3.2695 -0.5792
  154MOL0     H20782   6.106   4.378   6.306  1.1925 -0.1085 -0.2087
  154MOL0     H20783   5.994   4.398   6.434 -2.5792 -2.1240 -0.7657
  154MOL0     H20784   6.015   4.132   6.267 -3.8896 -2.3548 -0.6482
  154MOL0     H20785   5.909   4.178   6.398 -0.9110  0.8875 -0.4125
  154MOL0     H20786   5.670   4.321   6.102 -0.4413  1.8016  1.2209
  154MOL0     H20787   6.417   3.951   6.469 -3.1496  0.3136 -0.1748
  154MOL0     H20788   6.547   3.775   6.496 -2.7662 -1.8745 -1.6129
  154MOL0     H20789   6.614   3.694   6.349 -2.3246 -0.0789  0.5540
  154MOL0     H20790   6.710   3.811   6.436 -0.0893 -1.9778  2.6333
  155MOL0     O20791   6.587   3.621   2.616 -0.2898  0.1567 -0.5442
  155MOL0     C20792   6.593   3.646   2.737 -0.2090  0.2071 -0.6359
  155MOL0     O20793   6.480   3.656   2.815 -0.2024  0.5521  0.2685
  155MOL0     C20794   6.362   3.618   2.760  0.1542  0.0512  0.2497
  155MOL0     C20795   6.310   3.492   2.803 -0.7491 -0.5869  0.2651
  155MOL0     C20796   6.192   3.450   2.733  0.2338  0.7768  0.1916
  155MOL0     C20797   6.133   3.520   2.633  0.8571 -0.4145 -0.1988
  155MOL0     O20798   6.030   3.461   2.563 -0.5901 -0.2933 -0.1403
  155MOL0     C20799   5.937   3.530   2.484 -0.2240  0.0207 -0.7472
  155MOL0     C20800   5.831   3.431   2.419  0.7093 -0.4397  0.6300
  155MOL0     C20801   5.711   3.387   2.508  0.5373  0.2400  0.6768
  155MOL0     C20802   5.599   3.322   2.433  0.1172  0.1886 -0.1656
  155MOL0     C20803   5.481   3.299   2.522  0.5398  0.0585  0.1427
  155MOL0     C20804   5.370   3.222   2.455  0.3318  0.2142 -0.2837
  155MOL0     C20805   5.411   3.076   2.421  0.1436  0.2264  0.3596
  155MOL0     C20806   5.296   3.010   2.350 -0.7830  0.7793  0.2247
  155MOL0     N20807   5.299   2.864   2.326 -0.2494 -0.0127 -0.4893
  155MOL0     C20808   5.189   2.792   2.288  0.5905  0.0941 -0.2810
  155MOL0     C20809   5.232   2.668   2.274  0.2970 -0.0509 -0.1411
  155MOL0     C20810   5.152   2.552   2.240  0.2968 -0.6010 -0.2251
  155MOL0     C20811   5.115   2.542   2.091 -0.3684 -0.3434 -0.2211
  155MOL0     C20812   5.237   2.514   2.010  0.5786 -0.3760  0.5205
  155MOL0     C20813   5.197   2.434   1.873 -0.4171 -0.0350  1.6932
  155MOL0     O20814   5.275   2.464   1.757 -0.4148 -1.2402 -0.0613
  155MOL0     C20815   5.410   2.450   1.759  1.7717  0.5395  0.3360
  155MOL0     C20816   5.473   2.471   1.642  0.1510 -0.0053 -0.4017
  155MOL0     C20817   5.601   2.439   1.617 -0.1884  0.2544  0.4687
  155MOL0     C20818   5.683   2.392   1.725 -0.3194 -0.4949 -0.3760
  155MOL0     C20819   5.825   2.370   1.706 -0.1498  0.1580  0.9336
  155MOL0     O20820   5.871   2.257   1.753  0.1211 -0.0873  0.4826
  155MOL0     C20821   6.002   2.233   1.756 -0.2518 -0.0893 -1.3352
  155MOL0     C20822   6.095   2.311   1.831  0.3981 -0.5874  0.8478
  155MOL0     C20823   6.221   2.261   1.863  0.1230  0.5366  0.1498
  155MOL0     C20824   6.260   2.132   1.811 -0.5697 -0.9699 -1.2847
  155MOL0     O20825   6.371   2.063   1.856  0.1266  0.0959  0.3193
  155MOL0     C20826   6.393   2.067   1.993  0.2950  0.2347  0.1747
  155MOL0     C20827   6.511   2.165   2.031  1.5801 -0.5681  0.1958
  155MOL0     C20828   6.498   2.222   2.173  0.3539  0.2777 -0.0586
  155MOL0     C20829   6.577   2.350   2.191  0.3034  0.0124  0.6126
  155MOL0     C20830   6.585   2.389   2.339  0.0919  0.0575  0.4348
  155MOL0     C20831   6.445   2.426   2.392  0.3593 -0.2335  1.0203
  155MOL0     C20832   6.412   2.567   2.344 -0.4845 -0.1058 -0.4194
  155MOL0     C20833   6.277   2.604   2.385  0.0193  0.1767 -0.3667
  155MOL0    Cl20834   6.266   2.585   2.569  0.4260 -0.4501 -0.0544
  155MOL0     C20835   6.169   2.060   1.736  0.9088  1.0161  0.0978
  155MOL0     C20836   6.041   2.106   1.712 -0.4649  0.2850  0.7173
  155MOL0     O20837   5.888   2.462   1.646  0.5318  0.5195  0.2007
  155MOL0     C20838   5.622   2.363   1.848  0.2989 -0.3928  0.7277
  155MOL0     C20839   5.487   2.394   1.868  0.4119  0.0834 -0.1313
  155MOL0     N20840   5.368   2.667   2.278  0.1358  0.2503  0.2829
  155MOL0     N20841   5.408   2.787   2.305 -0.0131  0.3782  0.5791
  155MOL0     C20842   6.188   3.642   2.601  0.6443  0.0839  1.3072
  155MOL0     C20843   6.302   3.685   2.656 -0.5587  0.5220 -0.6029
  155MOL0     C20844   6.732   3.666   2.805 -0.8768  0.5397  0.0825
  155MOL0     C20845   6.746   3.638   2.945  0.5925 -0.1996  0.2669
  155MOL0     C20846   6.870   3.641   3.010 -0.2172 -0.5577  0.7890
  155MOL0     C20847   6.987   3.662   2.940 -0.1213 -0.1893  0.6562
  155MOL0     O20848   7.098   3.668   3.013 -0.6960  0.0895 -0.4085
  155MOL0     C20849   7.221   3.677   2.942 -0.0988  0.2471 -0.9989
  155MOL0     C20850   7.346   3.662   3.047  0.7031  0.3923  0.0467
  155MOL0     C20851   7.474   3.708   2.985  0.0805  0.7022  0.4860
  155MOL0     C20852   7.516   3.633   2.866  0.5649  0.5296  0.2437
  155MOL0     C20853   7.633   3.689   2.814 -1.1340 -0.8072  0.4800
  155MOL0     C20854   7.735   3.740   2.780  0.3180 -0.1113  1.0292
  155MOL0     C20855   6.978   3.687   2.805  0.2037 -0.1887 -0.6177
  155MOL0     C20856   6.853   3.681   2.736  0.5236 -0.4310  0.2705
  155MOL0     C20857   6.860   3.718   2.593 -0.0844 -0.2937 -0.4148
  155MOL0     H20858   6.359   3.434   2.880  1.9865 -0.7940 -1.4763
  155MOL0     H20859   6.158   3.355   2.770  0.1910  1.2677  1.4747
  155MOL0     H20860   5.890   3.604   2.549 -0.3549  1.5359 -2.4898
  155MOL0     H20861   5.982   3.587   2.403 -2.4606  0.4615 -1.7520
  155MOL0     H20862   5.886   3.342   2.388 -0.3771 -1.2585  0.9601
  155MOL0     H20863   5.789   3.482   2.331  0.1631  1.7159  2.0597
  155MOL0     H20864   5.674   3.481   2.549 -1.2005 -0.6873  1.3434
  155MOL0     H20865   5.739   3.330   2.597  4.5010  1.6543  0.5230
  155MOL0     H20866   5.576   3.383   2.346  1.2629  0.3162 -0.4014
  155MOL0     H20867   5.640   3.228   2.394  0.5641  0.0530  0.5994
  155MOL0     H20868   5.501   3.255   2.620 -3.8237  0.8528  1.6228
  155MOL0     H20869   5.437   3.395   2.549  2.4001  0.4883  1.8307
  155MOL0     H20870   5.285   3.229   2.524  1.1084 -0.8280  0.8398
  155MOL0     H20871   5.334   3.269   2.363  0.7485  0.2030 -0.4547
  155MOL0     H20872   5.446   3.013   2.503  0.9718  0.2953  0.0749
  155MOL0     H20873   5.488   3.081   2.343  0.1480  1.6806  0.4329
  155MOL0     H20874   5.208   3.026   2.414 -2.2257 -1.3071 -1.1242
  155MOL0     H20875   5.288   3.062   2.254 -2.0391 -1.7624 -1.1480
  155MOL0     H20876   5.086   2.825   2.284 -0.7415 -3.2411  1.8253
  155MOL0     H20877   5.198   2.456   2.268 -2.0249 -2.0230 -0.9448
  155MOL0     H20878   5.055   2.559   2.291  0.3114 -0.0225 -0.2709
  155MOL0     H20879   5.040   2.465   2.069  0.4764 -1.0585 -0.6577
  155MOL0     H20880   5.068   2.637   2.061  1.7580  1.3006  1.3505
  155MOL0     H20881   5.299   2.450   2.074  2.6315  1.8809  0.9367
  155MOL0     H20882   5.292   2.605   1.987  0.0083 -0.2135 -0.2232
  155MOL0     H20883   5.097   2.465   1.842 -0.2614 -0.2552  0.9647
  155MOL0     H20884   5.190   2.325   1.881 -0.7672 -0.0875  0.7469
  155MOL0     H20885   5.403   2.492   1.562  0.0944 -1.0756 -0.6548
  155MOL0     H20886   5.643   2.449   1.517 -0.8856 -1.2325 -0.0078
  155MOL0     H20887   6.067   2.412   1.860  0.4617  0.3499 -2.0065
  155MOL0     H20888   6.295   2.310   1.925 -1.6154 -0.1264  2.8873
  155MOL0     H20889   6.307   2.090   2.057  1.1236 -1.1825  1.8738
  155MOL0     H20890   6.418   1.968   2.032  1.1172  1.2208  2.3488
  155MOL0     H20891   6.602   2.104   2.025  2.5134  0.8994 -1.6283
  155MOL0     H20892   6.516   2.245   1.956 -0.4828 -1.1843 -0.6701
  155MOL0     H20893   6.396   2.234   2.209  1.7502 -0.6375  4.9325
  155MOL0     H20894   6.544   2.143   2.233  2.0375  0.2012 -1.3719
  155MOL0     H20895   6.534   2.426   2.125 -1.7323 -0.9994  0.6918
  155MOL0     H20896   6.680   2.351   2.153 -0.1007  1.3486 -0.5538
  155MOL0     H20897   6.653   2.472   2.359  0.4830 -0.2957  0.5903
  155MOL0     H20898   6.628   2.305   2.394 -0.6411 -1.1709 -0.7977
  155MOL0     H20899   6.365   2.359   2.361 -0.3496 -0.2880  2.8165
  155MOL0     H20900   6.456   2.432   2.501 -0.3989 -1.1702  1.1525
  155MOL0     H20901   6.413   2.564   2.235 -0.2927 -0.1743 -0.4164
  155MOL0     H20902   6.487   2.637   2.380 -0.5496  0.3431 -1.1277
  155MOL0     H20903   6.263   2.711   2.364  1.6146 -0.1474 -3.6870
  155MOL0     H20904   6.195   2.552   2.335  0.0805  1.0921 -1.4530
  155MOL0     H20905   6.188   1.959   1.701  0.5169  0.3789  1.6417
  155MOL0     H20906   5.971   2.042   1.657 -0.8155 -0.0412  1.5231
  155MOL0     H20907   5.668   2.317   1.934  1.9331  0.2991  0.2547
  155MOL0     H20908   5.444   2.374   1.965  2.4919  1.1218  1.0785
  155MOL0     H20909   6.149   3.687   2.510 -0.5685 -3.2648  0.0167
  155MOL0     H20910   6.354   3.772   2.618 -1.5802  1.1432 -0.6170
  155MOL0     H20911   6.662   3.618   3.011  2.8353 -1.4730  2.9447
  155MOL0     H20912   6.871   3.599   3.110  0.9060 -1.1699  0.5399
  155MOL0     H20913   7.228   3.776   2.897  0.6665 -0.8736 -3.5794
  155MOL0     H20914   7.222   3.600   2.864 -1.3440 -1.7873  0.8702
  155MOL0     H20915   7.356   3.563   3.093 -1.4749  0.9921  1.9980
  155MOL0     H20916   7.332   3.729   3.132 -0.3374 -0.8226  0.8833
  155MOL0     H20917   7.552   3.713   3.062  1.0334 -1.6916 -0.2323
  155MOL0     H20918   7.466   3.810   2.948  3.0918  0.7052 -0.4187
  155MOL0     H20919   7.527   3.527   2.888 -1.5201  0.0786 -0.6233
  155MOL0     H20920   7.438   3.640   2.789 -0.8286  1.9502  1.6865
  155MOL0     H20921   7.831   3.778   2.750  0.5415 -1.9744 -0.8334
  155MOL0     H20922   7.068   3.717   2.754  0.0029  3.0993  0.7597
  155MOL0     H20923   6.778   3.788   2.577  1.7094  1.7850 -0.8959
  155MOL0     H20924   6.955   3.768   2.572  0.7727 -1.1822  1.1131
  155MOL0     H20925   6.851   3.629   2.531  1.8917 -0.0658 -1.1026
  156MOL0     O20926   3.465   2.946   1.152 -0.0029  0.6744  0.2232
  156MOL0     C20927   3.399   2.849   1.194 -0.5704 -0.5418 -0.1793
  156MOL0     O20928   3.461   2.750   1.260 -0.1065  0.0004  0.2253
  156MOL0     C20929   3.598   2.755   1.287 -0.0162  0.2879 -0.2218
  156MOL0     C20930   3.659   2.843   1.373 -0.6324 -0.2982  0.2831
  156MOL0     C20931   3.797   2.847   1.409  0.7780  0.8636 -0.5967
  156MOL0     C20932   3.876   2.745   1.358 -0.7540  0.1516  1.2484
  156MOL0     O20933   4.014   2.731   1.377 -0.2184  0.0635  0.6395
  156MOL0     C20934   4.081   2.857   1.371  0.0377  0.1479 -0.6582
  156MOL0     C20935   4.208   2.839   1.288  0.8753  0.3056 -0.5035
  156MOL0     C20936   4.287   2.967   1.277  0.1425  0.9224  0.3489
  156MOL0     C20937   4.417   2.953   1.194  0.8892 -0.4658 -0.0821
  156MOL0     C20938   4.444   3.081   1.114 -0.5191 -0.5741 -0.6683
  156MOL0     C20939   4.492   3.043   0.968  0.7369  1.0351  0.0744
  156MOL0     C20940   4.551   3.167   0.914 -0.0544  0.1422  1.1000
  156MOL0     C20941   4.642   3.130   0.791  0.6878 -0.2631 -0.5796
  156MOL0     N20942   4.704   3.253   0.740 -1.2717 -0.1180  0.0107
  156MOL0     C20943   4.633   3.356   0.686  0.0671 -0.5469 -0.1808
  156MOL0     C20944   4.721   3.440   0.635 -0.1352 -0.3826 -0.3554
  156MOL0     C20945   4.700   3.574   0.560  0.8797  0.3048 -1.3824
  156MOL0     C20946   4.719   3.698   0.652  0.6413  0.5069  0.7960
  156MOL0     C20947   4.854   3.690   0.733 -0.2487 -0.8585  0.1623
  156MOL0     C20948   4.867   3.811   0.827 -0.0979  0.0270 -0.0091
  156MOL0     O20949   4.996   3.840   0.879  0.0320 -0.4199  0.0339
  156MOL0     C20950   5.089   3.899   0.798  0.3367 -0.6008 -0.7474
  156MOL0     C20951   5.207   3.929   0.865 -0.6149 -0.5409  0.2817
  156MOL0     C20952   5.308   3.989   0.787 -0.3159  0.4017 -0.0574
  156MOL0     C20953   5.286   4.041   0.666  0.6455 -0.2997  0.5120
  156MOL0     C20954   5.388   4.124   0.591 -0.9731 -0.5516 -0.2941
  156MOL0     O20955   5.511   4.156   0.657  0.1332 -0.3733 -0.2622
  156MOL0     C20956   5.611   4.241   0.607  0.5182  0.0451  0.4578
  156MOL0     C20957   5.730   4.245   0.672  0.0979  0.1497 -0.6143
  156MOL0     C20958   5.843   4.320   0.637 -0.1494 -0.1362 -0.4273
  156MOL0     C20959   5.836   4.385   0.515  0.4461 -0.0129  0.7895
  156MOL0     O20960   5.955   4.430   0.459 -0.2185 -0.6329 -0.8929
  156MOL0     C20961   5.960   4.565   0.416  0.6078 -0.0870  0.5908
  156MOL0     C20962   6.054   4.639   0.512 -0.6951  0.2197  0.9449
  156MOL0     C20963   6.198   4.594   0.508 -0.0330 -0.0065 -0.6507
  156MOL0     C20964   6.270   4.644   0.392  0.0110  0.4865  1.2123
  156MOL0     C20965   6.407   4.577   0.379  0.8968 -0.3198 -0.0122
  156MOL0     C20966   6.499   4.646   0.269  0.4381  0.5090  0.2741
  156MOL0     C20967   6.647   4.595   0.245  0.3523  0.6830  0.2786
  156MOL0     C20968   6.646   4.447   0.194  0.0520 -0.3011 -0.8928
  156MOL0    Cl20969   6.631   4.322   0.333 -0.1378 -0.2993  0.3724
  156MOL0     C20970   5.719   4.381   0.437 -0.1891  0.0504  0.1397
  156MOL0     C20971   5.610   4.313   0.488 -0.1455  0.7343  0.3540
  156MOL0     O20972   5.374   4.134   0.466 -0.2341 -0.1092  0.0657
  156MOL0     C20973   5.161   4.018   0.604  0.4734  0.2237  0.2720
  156MOL0     C20974   5.067   3.944   0.669 -0.4653  0.3084 -0.6495
  156MOL0     N20975   4.846   3.394   0.658 -0.8505  0.3670 -0.1691
  156MOL0     N20976   4.838   3.287   0.728  0.4097  0.5829  0.0898
  156MOL0     C20977   3.823   2.648   1.274  0.1525 -0.4818  0.6053
  156MOL0     C20978   3.681   2.646   1.248  0.1732 -0.3297  0.0448
  156MOL0     C20979   3.246   2.832   1.183 -0.6729 -0.0665  0.6708
  156MOL0     C20980   3.181   2.746   1.265  0.3661  0.0044  0.2890
  156MOL0     C20981   3.038   2.743   1.273  0.4148 -0.2949  0.2195
  156MOL0     C20982   2.957   2.819   1.186  0.3283 -1.1716 -0.3198
  156MOL0     O20983   2.820   2.801   1.176 -0.3453 -0.1409  0.0661
  156MOL0     C20984   2.763   2.829   1.044  0.1953 -0.2510  0.3799
  156MOL0     C20985   2.618   2.767   1.021  0.4997 -0.0972  0.4406
  156MOL0     C20986   2.549   2.832   0.904  0.9162 -0.3699  1.3188
  156MOL0     C20987   2.610   2.817   0.760 -0.5042  1.1070  0.2354
  156MOL0     C20988   2.730   2.895   0.741 -0.0542  0.3376 -0.4631
  156MOL0     C20989   2.826   2.966   0.742  0.1323  0.1296  0.3915
  156MOL0     C20990   3.037   2.893   1.091  0.5084  0.0960  0.4320
  156MOL0     C20991   3.174   2.907   1.093  0.1488  0.1082  0.1932
  156MOL0     C20992   3.232   3.003   0.992  0.0692  0.4572  0.1581
  156MOL0     H20993   3.601   2.908   1.438  0.0161  1.9011 -1.2636
  156MOL0     H20994   3.827   2.917   1.486  1.6444 -0.7118  0.5851
  156MOL0     H20995   4.023   2.945   1.342 -0.8273  0.0193  0.5886
  156MOL0     H20996   4.109   2.876   1.475 -1.4528 -0.0156 -0.2018
  156MOL0     H20997   4.188   2.803   1.186 -0.1045  1.8377 -0.8911
  156MOL0     H20998   4.268   2.759   1.332 -2.0881 -1.9944 -0.2720
  156MOL0     H20999   4.336   2.985   1.373 -0.5814 -2.9968  1.6445
  156MOL0     H21000   4.227   3.054   1.248  0.9827  0.9146 -1.6067
  156MOL0     H21001   4.506   2.948   1.258  2.1844 -2.0674 -1.9036
  156MOL0     H21002   4.408   2.869   1.125 -0.0866 -2.2227  2.0670
  156MOL0     H21003   4.357   3.147   1.112  0.2411  0.5095  0.5485
  156MOL0     H21004   4.517   3.137   1.172 -1.3763  0.8128 -0.8715
  156MOL0     H21005   4.557   2.955   0.969 -2.4085 -1.4972 -0.9867
  156MOL0     H21006   4.403   3.022   0.908  2.8353  0.9450 -3.2597
  156MOL0     H21007   4.613   3.210   0.993  2.9261  1.3319 -1.6645
  156MOL0     H21008   4.470   3.233   0.882  0.6917  0.3214 -0.5777
  156MOL0     H21009   4.712   3.053   0.826  1.1218  0.4118  0.0663
  156MOL0     H21010   4.579   3.105   0.705  0.2987  2.2750 -1.1116
  156MOL0     H21011   4.525   3.365   0.677  0.2619  1.0280 -1.3117
  156MOL0     H21012   4.765   3.570   0.472 -0.7182  1.1066 -2.6434
  156MOL0     H21013   4.596   3.566   0.527 -0.6079  1.2841  2.4439
  156MOL0     H21014   4.717   3.790   0.593  1.8328  1.5708  2.3257
  156MOL0     H21015   4.640   3.686   0.727  0.6234  3.3465  1.3679
  156MOL0     H21016   4.931   3.688   0.656  1.0213 -0.6921  1.3885
  156MOL0     H21017   4.860   3.597   0.791  0.8086  0.2518  1.9216
  156MOL0     H21018   4.807   3.802   0.918  1.9677  2.3020  1.7184
  156MOL0     H21019   4.821   3.900   0.782  0.2875 -0.4603 -1.4112
  156MOL0     H21020   5.252   3.892   0.957  1.6819 -0.4719 -0.7452
  156MOL0     H21021   5.402   4.014   0.836 -1.7699  4.4739  1.0537
  156MOL0     H21022   5.731   4.184   0.762 -0.6611  0.8062 -0.1503
  156MOL0     H21023   5.934   4.320   0.696 -0.0483  1.3912 -0.5528
  156MOL0     H21024   5.990   4.555   0.311 -2.9599 -2.6938 -0.3711
  156MOL0     H21025   5.866   4.621   0.415  1.2318  1.1279  2.9545
  156MOL0     H21026   6.044   4.747   0.501  0.8496  0.3468  0.5422
  156MOL0     H21027   6.029   4.638   0.619 -1.5014  3.1396  0.8803
  156MOL0     H21028   6.243   4.644   0.594 -0.1268  0.0185 -0.6163
  156MOL0     H21029   6.208   4.485   0.510 -0.7664 -0.1002  2.1435
  156MOL0     H21030   6.269   4.752   0.378 -0.4407  0.2528 -0.7830
  156MOL0     H21031   6.211   4.620   0.303  1.4946  1.1192  0.0043
  156MOL0     H21032   6.389   4.474   0.347 -0.4511  0.2040 -1.0471
  156MOL0     H21033   6.452   4.580   0.478  2.8490 -0.5390 -0.8548
  156MOL0     H21034   6.436   4.622   0.183 -0.8962  1.8374  0.8368
  156MOL0     H21035   6.504   4.756   0.264  1.9215  0.4465 -0.0069
  156MOL0     H21036   6.708   4.611   0.335 -0.7585  0.0604  1.1555
  156MOL0     H21037   6.686   4.647   0.157 -2.3754  0.3471 -1.2085
  156MOL0     H21038   6.573   4.434   0.114 -0.4828  0.6820 -0.5931
  156MOL0     H21039   6.745   4.441   0.150  0.2354  2.9838 -1.2077
  156MOL0     H21040   5.711   4.420   0.336 -2.9055  0.6535  0.5105
  156MOL0     H21041   5.516   4.332   0.437 -0.1519  1.0695  0.4858
  156MOL0     H21042   5.141   4.053   0.503 -0.6598 -0.2576  0.3120
  156MOL0     H21043   4.972   3.919   0.622 -0.6543 -0.9813  0.3630
  156MOL0     H21044   3.887   2.569   1.236  1.3333  0.5150  0.4694
  156MOL0     H21045   3.633   2.566   1.193 -2.2365  0.1521  1.3221
  156MOL0     H21046   3.244   2.686   1.331  2.9455  1.6039 -0.5866
  156MOL0     H21047   2.986   2.686   1.349 -1.1364  0.4081 -0.2713
  156MOL0     H21048   2.827   2.796   0.962 -2.1726  1.4326 -2.3547
  156MOL0     H21049   2.759   2.938   1.038 -1.2164 -0.2580  0.6530
  156MOL0     H21050   2.548   2.779   1.104 -1.0284 -1.7372 -0.5412
  156MOL0     H21051   2.633   2.660   1.002  2.6418  0.6674 -3.1819
  156MOL0     H21052   2.532   2.936   0.930  0.0368  0.2208 -1.3260
  156MOL0     H21053   2.444   2.800   0.898  0.4954  0.7390  2.3683
  156MOL0     H21054   2.608   2.714   0.722 -0.7287  1.0493  0.3978
  156MOL0     H21055   2.532   2.858   0.696 -0.9956  0.7080  0.5664
  156MOL0     H21056   2.910   3.032   0.734  0.5403 -0.6232 -2.3568
  156MOL0     H21057   2.984   2.955   1.019  1.1840  1.7268  1.2883
  156MOL0     H21058   3.156   3.039   0.922  0.4399 -0.8327 -0.9505
  156MOL0     H21059   3.275   3.087   1.047 -2.4004  0.6591  1.9095
  156MOL0     H21060   3.299   2.941   0.932  2.9640  1.5682  2.0073
  157MOL0     O21061   0.379   6.252   9.661 -0.5520  0.1592  0.5382
  157MOL0     C21062   0.393   6.373   9.654  0.9881  0.2293 -0.7135
  157MOL0     O21063   0.493   6.448   9.601 -0.9467  0.4138 -0.1865
  157MOL0     C21064   0.609   6.376   9.608 -0.0286  0.6051  0.3836
  157MOL0     C21065   0.646   6.292   9.506  0.7226 -0.0699 -0.4896
  157MOL0     C21066   0.757   6.206   9.512 -0.4866  0.8072 -0.5574
  157MOL0     C21067   0.849   6.217   9.614 -0.7478 -0.0396 -0.4140
  157MOL0     O21068   0.960   6.135   9.612 -0.0594  0.2091  0.6537
  157MOL0     C21069   1.066   6.149   9.706 -0.3101 -0.9044  0.3411
  157MOL0     C21070   1.151   6.272   9.680  0.1494  0.3511 -0.7795
  157MOL0     C21071   1.277   6.286   9.778  0.3415 -0.8188  0.5577
  157MOL0     C21072   1.347   6.422   9.749 -0.5737 -0.3730 -0.5865
  157MOL0     C21073   1.463   6.441   9.853 -1.1842  0.0189  0.1078
  157MOL0     C21074   1.589   6.339   9.841 -0.1762  0.2261 -1.1586
  157MOL0     C21075   1.694   6.404   9.754 -1.1896 -0.3365 -0.4236
  157MOL0     C21076   1.731   6.332   9.620  0.7660 -0.4455 -0.3078
  157MOL0     N21077   1.857   6.264   9.631  0.1823 -0.4464  0.0189
  157MOL0     C21078   1.904   6.182   9.726  0.4338 -0.5561  0.7121
  157MOL0     C21079   2.028   6.153   9.692 -0.1445 -0.9121 -0.9237
  157MOL0     C21080   2.118   6.072   9.785  0.1305 -0.0355 -0.3466
  157MOL0     C21081   2.149   6.145   9.916 -1.0275  1.6847  0.5204
  157MOL0     C21082   2.188   6.291   9.890  0.1548  0.6023  0.9448
  157MOL0     C21083   2.258   6.350  10.004 -0.4744 -0.1380  0.0133
  157MOL0     O21084   2.275   6.498   9.983 -0.1014  0.5079  0.6066
  157MOL0     C21085   2.398   6.524   9.943 -0.4795 -0.0880  0.2036
  157MOL0     C21086   2.470   6.583  10.045  0.1631 -0.7641 -0.9993
  157MOL0     C21087   2.608   6.630  10.029  0.2690 -0.5935 -0.7098
  157MOL0     C21088   2.665   6.616   9.902  0.4096 -0.2957  0.2007
  157MOL0     C21089   2.797   6.676   9.863 -0.2425 -0.7884 -0.5065
  157MOL0     O21090   2.885   6.714   9.960  0.1093 -0.1833  0.1331
  157MOL0     C21091   3.008   6.751   9.918  0.3826 -0.3343 -0.0168
  157MOL0     C21092   3.121   6.681   9.960  0.1521 -0.4654  0.3120
  157MOL0     C21093   3.250   6.738   9.923 -0.3988  0.3034 -0.1523
  157MOL0     C21094   3.271   6.847   9.839 -0.5277 -0.2385  0.4716
  157MOL0     O21095   3.388   6.905   9.802 -0.3021 -0.0783 -0.3923
  157MOL0     C21096   3.507   6.830   9.830  0.6748  0.4480  0.6729
  157MOL0     C21097   3.618   6.926   9.795  0.2949  0.3143 -0.8848
  157MOL0     C21098   3.748   6.860   9.821  0.3243  0.2116  0.5389
  157MOL0     C21099   3.863   6.957   9.759  0.9217  0.7827 -0.1059
  157MOL0     C21100   4.001   6.883   9.748  0.4407  0.7484  0.6558
  157MOL0     C21101   4.088   6.943   9.640  0.6542  0.1971 -0.0300
  157MOL0     C21102   4.234   6.894   9.643 -1.1242  0.5603 -0.1357
  157MOL0     C21103   4.330   6.996   9.586 -0.3277  0.3719  0.3077
  157MOL0    Cl21104   4.502   6.949   9.556 -0.1592  0.6101 -0.0896
  157MOL0     C21105   3.154   6.917   9.801 -0.3965 -0.9843  0.3074
  157MOL0     C21106   3.025   6.871   9.846 -0.5666  0.1864 -0.3851
  157MOL0     O21107   2.824   6.676   9.742  0.2316  0.3947  0.3088
  157MOL0     C21108   2.595   6.537   9.807 -0.5496  0.7624 -0.5465
  157MOL0     C21109   2.457   6.501   9.824 -0.0673 -0.0443 -0.2123
  157MOL0     N21110   2.064   6.220   9.581 -0.1748  0.7137  0.0542
  157MOL0     N21111   1.961   6.279   9.545  0.7510 -0.7714 -0.2880
  157MOL0     C21112   0.811   6.300   9.724  0.6127 -0.3041  0.1859
  157MOL0     C21113   0.690   6.376   9.721 -0.2828 -0.3381  0.1481
  157MOL0     C21114   0.265   6.464   9.677  0.0541 -0.3155 -0.2646
  157MOL0     C21115   0.145   6.391   9.677  0.4104 -0.3357 -0.8810
  157MOL0     C21116   0.020   6.457   9.696 -0.2886 -0.0050  0.5991
  157MOL0     C21117   0.015   6.595   9.710  0.0657  0.6646 -0.5853
  157MOL0     O21118  -0.105   6.673   9.729 -0.1362  0.5631 -0.0679
  157MOL0     C21119  -0.238   6.606   9.731 -0.7194 -0.7895 -0.0716
  157MOL0     C21120  -0.310   6.644   9.601  0.3553 -0.3152  1.0225
  157MOL0     C21121  -0.337   6.796   9.622  0.2408 -0.3327 -0.7388
  157MOL0     C21122  -0.457   6.840   9.543 -0.1712 -0.9260 -0.6301
  157MOL0     C21123  -0.581   6.775   9.586  0.1470 -0.9556 -0.5214
  157MOL0     C21124  -0.674   6.705   9.633  0.5209 -0.8002  0.5848
  157MOL0     C21125   0.136   6.667   9.716 -0.2781 -0.0736  0.8016
  157MOL0     C21126   0.261   6.606   9.693  0.3936  0.2824 -0.5266
  157MOL0     C21127   0.385   6.697   9.694 -0.1139 -0.7697  0.3769
  157MOL0     H21128   0.570   6.283   9.429  0.6635 -1.4143 -0.3033
  157MOL0     H21129   0.787   6.126   9.445  1.2931 -0.3942  1.5085
  157MOL0     H21130   1.020   6.154   9.806  0.4319 -1.7554  0.7411
  157MOL0     H21131   1.120   6.054   9.700 -1.9975 -1.8917  0.1112
  157MOL0     H21132   1.090   6.363   9.679  1.7058  1.5528  2.1623
  157MOL0     H21133   1.196   6.267   9.580  0.1817  1.4411 -0.8359
  157MOL0     H21134   1.340   6.198   9.767 -2.5607 -2.9803  0.0928
  157MOL0     H21135   1.228   6.288   9.875 -2.0974 -0.7770 -0.6075
  157MOL0     H21136   1.367   6.406   9.642 -1.5800 -4.9861 -0.2697
  157MOL0     H21137   1.268   6.497   9.757 -1.4874 -1.4915  1.4544
  157MOL0     H21138   1.494   6.546   9.856  1.0035 -0.5622  3.3765
  157MOL0     H21139   1.412   6.421   9.948  1.7047  2.2489  2.3524
  157MOL0     H21140   1.622   6.333   9.945 -1.5096  2.0280 -0.5672
  157MOL0     H21141   1.561   6.239   9.808  0.8355 -1.1407  1.8600
  157MOL0     H21142   1.781   6.418   9.819 -1.6949 -0.7515  0.3660
  157MOL0     H21143   1.662   6.504   9.726  0.4222  1.2905  2.9219
  157MOL0     H21144   1.641   6.275   9.597 -0.4029  0.3581  1.9954
  157MOL0     H21145   1.740   6.403   9.538 -0.8269 -2.5103 -2.3878
  157MOL0     H21146   1.868   6.145   9.822 -1.3416 -0.6255  0.0528
  157MOL0     H21147   2.067   5.980   9.816  1.2673  0.4832  3.6745
  157MOL0     H21148   2.217   6.050   9.746  1.5572  2.0296  1.8456
  157MOL0     H21149   2.060   6.150   9.980 -1.5415  1.2746 -0.1587
  157MOL0     H21150   2.226   6.081   9.959  0.3868  0.5975 -3.2642
  157MOL0     H21151   2.093   6.343   9.874  0.6560  0.7569 -2.0754
  157MOL0     H21152   2.250   6.297   9.801 -0.0405 -0.2613  0.7353
  157MOL0     H21153   2.352   6.294   9.998 -0.1477  0.5736 -3.6669
  157MOL0     H21154   2.207   6.332  10.099 -1.5191 -1.3062 -0.7424
  157MOL0     H21155   2.426   6.594  10.143  0.7328 -0.5598 -0.7587
  157MOL0     H21156   2.653   6.696  10.103 -0.2837  0.2400 -1.1117
  157MOL0     H21157   3.114   6.600  10.032 -0.1417  0.6858  1.6311
  157MOL0     H21158   3.329   6.681   9.970  0.0741 -1.2412 -2.6450
  157MOL0     H21159   3.509   6.797   9.934 -1.7941 -1.2187  0.2810
  157MOL0     H21160   3.514   6.740   9.768  0.7553  1.4850 -0.9091
  157MOL0     H21161   3.608   6.964   9.693  0.2381  1.4693 -0.4657
  157MOL0     H21162   3.607   7.019   9.850 -1.0332  1.2026 -2.5653
  157MOL0     H21163   3.759   6.829   9.925 -0.2931  0.0018  0.5431
  157MOL0     H21164   3.757   6.763   9.770  1.0089  1.1814 -1.2904
  157MOL0     H21165   3.872   7.045   9.823  0.9192 -1.3199  2.9999
  157MOL0     H21166   3.842   6.972   9.653  1.4280 -1.3393 -0.5516
  157MOL0     H21167   3.986   6.778   9.723  0.8129  1.0106 -0.7794
  157MOL0     H21168   4.044   6.886   9.848  1.4818  0.6150  0.2347
  157MOL0     H21169   4.049   6.931   9.539 -0.7271  3.1653  0.0443
  157MOL0     H21170   4.091   7.049   9.667  1.5675 -0.2484  1.7777
  157MOL0     H21171   4.238   6.808   9.575  2.5219  0.0699  0.5344
  157MOL0     H21172   4.263   6.865   9.744 -1.8298  0.2830 -0.0038
  157MOL0     H21173   4.285   7.036   9.495 -1.3214 -0.7512  0.2794
  157MOL0     H21174   4.335   7.081   9.655 -2.0952  2.9013 -2.4406
  157MOL0     H21175   3.147   7.000   9.732 -0.9850  0.5678  2.1499
  157MOL0     H21176   2.935   6.924   9.816 -2.8559 -3.8635 -1.4164
  157MOL0     H21177   2.639   6.509   9.711 -2.9380 -0.9100 -1.2615
  157MOL0     H21178   2.392   6.455   9.750  0.2992  1.1834 -1.3283
  157MOL0     H21179   0.876   6.299   9.811 -0.1980 -1.1444  0.7974
  157MOL0     H21180   0.660   6.440   9.803  1.7927  2.6688 -1.2825
  157MOL0     H21181   0.152   6.285   9.651 -0.1727  0.3632 -4.4037
  157MOL0     H21182  -0.071   6.399   9.692 -2.0082  2.6004 -1.6062
  157MOL0     H21183  -0.289   6.638   9.822  1.6047 -1.4604  1.5366
  157MOL0     H21184  -0.239   6.496   9.732 -2.0419 -0.8448 -1.6954
  157MOL0     H21185  -0.403   6.588   9.592 -0.0879  0.2253  2.1012
  157MOL0     H21186  -0.254   6.624   9.509 -1.3354  1.4030 -0.4555
  157MOL0     H21187  -0.247   6.852   9.597 -0.6773  0.1633 -3.2143
  157MOL0     H21188  -0.360   6.819   9.726 -0.0052  1.0701 -1.0882
  157MOL0     H21189  -0.474   6.948   9.542  0.3077 -0.8488 -0.6575
  157MOL0     H21190  -0.443   6.817   9.437 -0.4097 -4.6085 -0.0129
  157MOL0     H21191  -0.742   6.635   9.676  1.8848 -2.1551  0.6530
  157MOL0     H21192   0.133   6.774   9.728  3.0844 -0.0587  2.6256
  157MOL0     H21193   0.443   6.681   9.785 -1.2773  1.0893  1.5157
  157MOL0     H21194   0.434   6.674   9.599  0.9604  3.5942 -0.3307
  157MOL0     H21195   0.353   6.801   9.687 -0.0268 -0.7509  0.2588
  158MOL0     O21196  10.980   8.462   4.869 -0.0710  0.1120 -0.3782
  158MOL0     C21197  10.970   8.427   4.750  0.1962  0.2340  0.1777
  158MOL0     O21198  11.052   8.472   4.656  0.4138 -0.3003  0.2316
  158MOL0     C21199  11.095   8.597   4.680 -0.3723  0.0283  0.2073
  158MOL0     C21200  11.028   8.715   4.648  0.4951  0.3981 -0.2353
  158MOL0     C21201  11.091   8.842   4.651 -0.1738 -0.7663 -0.3880
  158MOL0     C21202  11.209   8.852   4.718 -0.1415 -0.3076 -0.0117
  158MOL0     O21203  11.254   8.982   4.742  0.0158  0.3999 -0.6636
  158MOL0     C21204  11.385   9.002   4.797 -0.8884  0.0669 -0.2557
  158MOL0     C21205  11.423   9.137   4.753 -0.0746 -0.0558  0.7963
  158MOL0     C21206  11.576   9.152   4.760  0.6211 -0.0218 -0.3726
  158MOL0     C21207  11.614   9.295   4.719  0.3234  0.0463  1.2072
  158MOL0     C21208  11.752   9.314   4.769 -0.5241 -0.0171 -0.0885
  158MOL0     C21209  11.829   9.447   4.726  0.0611  0.5343 -0.6133
  158MOL0     C21210  11.844   9.456   4.578 -0.1483  0.2477  1.1119
  158MOL0     C21211  11.925   9.583   4.537  0.0099  0.2156 -0.0620
  158MOL0     N21212  12.068   9.558   4.563 -0.6796  0.1282  0.3769
  158MOL0     C21213  12.136   9.630   4.655  0.8971 -0.1586  0.5302
  158MOL0     C21214  12.257   9.580   4.656 -0.3898 -0.9081 -0.2592
  158MOL0     C21215  12.375   9.639   4.731  0.5508  0.4230 -0.2481
  158MOL0     C21216  12.455   9.729   4.643 -0.0455  0.4060 -0.4061
  158MOL0     C21217  12.585   9.784   4.704  0.5834  0.8380 -0.3856
  158MOL0     C21218  12.657   9.865   4.596 -0.1746  0.2148 -0.5688
  158MOL0     O21219  12.784   9.915   4.639  0.7678  0.2204 -0.0273
  158MOL0     C21220  12.895   9.837   4.655  0.2888  0.8809  0.1405
  158MOL0     C21221  12.987   9.883   4.739 -0.5178  0.7262 -1.5439
  158MOL0     C21222  13.093   9.792   4.783  0.2828 -0.1759  0.7779
  158MOL0     C21223  13.118   9.669   4.717  0.6755 -1.2462 -0.6068
  158MOL0     C21224  13.233   9.583   4.758  0.2880 -0.2446 -0.3116
  158MOL0     O21225  13.235   9.460   4.699  0.6365  1.1475 -0.0919
  158MOL0     C21226  13.309   9.364   4.759  0.0738  0.2929 -0.2535
  158MOL0     C21227  13.443   9.384   4.802 -0.3046 -0.1140  0.4721
  158MOL0     C21228  13.512   9.278   4.850 -0.2337 -0.0733 -0.3314
  158MOL0     C21229  13.472   9.149   4.856 -0.1851  0.5593  0.3126
  158MOL0     O21230  13.544   9.045   4.895  1.0226 -0.4196 -0.1285
  158MOL0     C21231  13.687   9.050   4.897  0.3646  0.2609  0.2455
  158MOL0     C21232  13.746   8.908   4.906 -0.0886  0.0163 -1.1433
  158MOL0     C21233  13.703   8.822   5.023  0.7306  0.0261  0.8223
  158MOL0     C21234  13.598   8.727   4.971  0.3936  1.4325 -0.2731
  158MOL0     C21235  13.533   8.619   5.073 -0.5221 -0.3208  0.0415
  158MOL0     C21236  13.451   8.511   5.001 -0.9637 -0.7368  0.1308
  158MOL0     C21237  13.407   8.397   5.097  0.4372 -0.1480  0.1537
  158MOL0     C21238  13.511   8.320   5.174 -0.3201  0.1108 -0.6627
  158MOL0    Cl21239  13.528   8.418   5.319  0.0848 -0.2192  0.1448
  158MOL0     C21240  13.334   9.129   4.817  0.5923 -0.7719 -0.2440
  158MOL0     C21241  13.255   9.232   4.760  0.0809  0.5478 -0.9126
  158MOL0     O21242  13.312   9.625   4.846  0.3532  0.5226  0.4763
  158MOL0     C21243  13.021   9.621   4.626 -0.0642 -0.1333  0.1085
  158MOL0     C21244  12.906   9.700   4.599 -0.4334 -0.9028  0.8382
  158MOL0     N21245  12.247   9.473   4.570 -0.2477 -0.5283 -0.0443
  158MOL0     N21246  12.141   9.457   4.509  0.1304 -0.5280 -0.5245
  158MOL0     C21247  11.269   8.734   4.771 -0.7253  0.0876  0.0133
  158MOL0     C21248  11.217   8.609   4.754  0.6690  0.4938 -0.1819
  158MOL0     C21249  10.866   8.324   4.716 -1.0256  0.5907  0.0991
  158MOL0     C21250  10.805   8.333   4.589  0.3605 -1.7132 -0.6393
  158MOL0     C21251  10.698   8.250   4.540 -1.2814 -0.7469  0.4457
  158MOL0     C21252  10.659   8.148   4.622  0.5927  0.5413 -0.2746
  158MOL0     O21253  10.560   8.053   4.594 -0.1487  0.0451  0.9089
  158MOL0     C21254  10.445   8.106   4.534 -0.6411 -1.2534  0.3611
  158MOL0     C21255  10.332   7.998   4.532  0.1296  0.5985  0.3277
  158MOL0     C21256  10.265   7.997   4.670  0.4260  0.7808  0.1328
  158MOL0     C21257  10.154   7.890   4.688 -0.1082 -0.8046  0.0698
  158MOL0     C21258  10.038   7.932   4.610 -0.0461  0.6344 -0.5654
  158MOL0     C21259   9.962   7.954   4.524  1.0431  0.5889 -0.2784
  158MOL0     C21260  10.719   8.133   4.749 -0.7329  0.5161  0.1859
  158MOL0     C21261  10.821   8.218   4.795 -0.5732 -0.3624 -0.2033
  158MOL0     C21262  10.871   8.186   4.933  0.5680  0.0897  0.7101
  158MOL0     H21263  10.939   8.715   4.587 -1.2032 -0.2168  2.0864
  158MOL0     H21264  11.050   8.932   4.606  1.4683  0.0465 -0.3218
  158MOL0     H21265  11.376   9.001   4.906 -1.0511  0.3632 -0.2650
  158MOL0     H21266  11.462   8.932   4.764  0.9199  1.8414  0.0033
  158MOL0     H21267  11.371   9.205   4.823  0.4052 -1.2391  2.3677
  158MOL0     H21268  11.396   9.165   4.651 -1.4273 -1.9189  0.5866
  158MOL0     H21269  11.628   9.080   4.697 -0.7223 -1.3240 -0.0389
  158MOL0     H21270  11.596   9.129   4.865 -3.1683 -0.0490  0.4726
  158MOL0     H21271  11.613   9.299   4.610 -2.1206  2.0323  1.2389
  158MOL0     H21272  11.537   9.367   4.748  0.5995  0.5311  0.7562
  158MOL0     H21273  11.748   9.313   4.878 -4.1262 -3.4645 -0.0363
  158MOL0     H21274  11.821   9.234   4.740  0.6901  1.0222 -0.1862
  158MOL0     H21275  11.764   9.528   4.760  1.5838  1.2766  0.6960
  158MOL0     H21276  11.927   9.452   4.775 -0.0789  3.2472 -0.4290
  158MOL0     H21277  11.749   9.478   4.528 -0.0968  2.1870  1.7713
  158MOL0     H21278  11.887   9.362   4.543  0.0437  1.8580 -3.7003
  158MOL0     H21279  11.914   9.608   4.431  1.6282 -1.7971 -0.7716
  158MOL0     H21280  11.896   9.674   4.591 -0.1849  0.1070  0.0161
  158MOL0     H21281  12.077   9.694   4.719 -0.8371 -1.7552  0.6225
  158MOL0     H21282  12.347   9.686   4.826  0.0038  0.6026 -0.4955
  158MOL0     H21283  12.442   9.559   4.763 -0.8914 -1.4453 -1.6937
  158MOL0     H21284  12.488   9.665   4.560  2.7126  1.5667 -0.3265
  158MOL0     H21285  12.393   9.809   4.602  0.3858  1.1552  0.3641
  158MOL0     H21286  12.650   9.708   4.749 -1.7473 -0.2184  1.4237
  158MOL0     H21287  12.549   9.851   4.782  1.4327 -1.5548  2.2458
  158MOL0     H21288  12.597   9.951   4.562 -1.4757 -0.2457  0.4594
  158MOL0     H21289  12.661   9.801   4.507  0.4644  3.8622 -3.4559
  158MOL0     H21290  12.967   9.978   4.787 -0.8403  0.2298 -0.6616
  158MOL0     H21291  13.168   9.818   4.857  1.7272 -0.7211 -0.4528
  158MOL0     H21292  13.487   9.483   4.792 -1.9928  0.7447  1.1613
  158MOL0     H21293  13.606   9.293   4.902  1.1755 -2.8831 -1.8064
  158MOL0     H21294  13.725   9.103   4.808  0.7697 -0.7976 -0.2265
  158MOL0     H21295  13.720   9.103   4.987 -0.3362  0.0730  0.6157
  158MOL0     H21296  13.742   8.862   4.807 -0.6148  0.0609 -1.1485
  158MOL0     H21297  13.849   8.927   4.937 -1.2880  1.4792  2.4509
  158MOL0     H21298  13.782   8.751   5.050 -1.0302 -1.8147  1.3805
  158MOL0     H21299  13.678   8.880   5.113  1.4831  0.2595  0.8892
  158MOL0     H21300  13.645   8.663   4.896 -1.9313 -3.1418  1.7527
  158MOL0     H21301  13.522   8.774   4.908 -2.1753 -0.8895  0.9042
  158MOL0     H21302  13.471   8.670   5.147 -2.5086 -1.6605 -0.6480
  158MOL0     H21303  13.620   8.580   5.128  0.9130  1.0510 -1.1510
  158MOL0     H21304  13.367   8.570   4.965  1.5536  1.8745 -1.8720
  158MOL0     H21305  13.510   8.473   4.917  2.8923  0.6603  1.9503
  158MOL0     H21306  13.349   8.326   5.037 -2.4501  0.7656  1.6515
  158MOL0     H21307  13.332   8.428   5.170  0.3998 -2.3466  1.1097
  158MOL0     H21308  13.476   8.224   5.212  0.5218 -0.3984 -1.1498
  158MOL0     H21309  13.599   8.315   5.110  0.7054  0.7278  0.6318
  158MOL0     H21310  13.294   9.029   4.832 -2.0299  0.0726 -1.1905
  158MOL0     H21311  13.157   9.203   4.723  0.6669 -2.0893 -0.6472
  158MOL0     H21312  13.021   9.522   4.581  2.0784  0.1690 -0.6650
  158MOL0     H21313  12.828   9.666   4.531 -0.7161  0.8342  0.2335
  158MOL0     H21314  11.350   8.724   4.842  0.4539 -1.9118 -1.4981
  158MOL0     H21315  11.256   8.515   4.790  2.8691  0.5412 -2.2327
  158MOL0     H21316  10.836   8.411   4.520  0.1877 -1.0093  0.0678
  158MOL0     H21317  10.670   8.259   4.435 -1.6972 -0.9361  0.5408
  158MOL0     H21318  10.450   8.141   4.430  0.8922 -0.0715  0.7978
  158MOL0     H21319  10.414   8.200   4.581 -2.7171  0.3910 -3.7499
  158MOL0     H21320  10.375   7.898   4.522 -0.0507  0.4143  1.2785
  158MOL0     H21321  10.255   8.008   4.455  0.1775 -0.0115  0.1975
  158MOL0     H21322  10.228   8.096   4.698  1.2695  1.2566 -0.3878
  158MOL0     H21323  10.341   7.978   4.747 -2.0575 -1.5618  2.1848
  158MOL0     H21324  10.203   7.796   4.664  0.3245 -0.6897  0.4851
  158MOL0     H21325  10.137   7.888   4.796  1.2823 -1.9496  0.2902
  158MOL0     H21326   9.887   7.990   4.457 -0.4100 -3.8559 -1.3881
  158MOL0     H21327  10.691   8.044   4.805  0.6884 -0.3632 -0.4234
  158MOL0     H21328  10.860   8.269   5.002 -1.5257 -0.3235  0.9289
  158MOL0     H21329  10.810   8.106   4.976 -0.9885  1.1197  0.4755
  158MOL0     H21330  10.978   8.162   4.937  0.2687 -1.2773  1.0626
  159MOL0     O21331   7.947   8.210   4.825  0.1478 -0.3101 -0.1835
  159MOL0     C21332   7.922   8.326   4.869 -0.2156  0.1816 -0.4574
  159MOL0     O21333   7.801   8.378   4.901  0.1062  0.0885  0.2540
  159MOL0     C21334   7.698   8.300   4.864  0.8662 -0.0666 -0.2681
  159MOL0     C21335   7.662   8.286   4.731 -0.1109 -0.0188 -0.3915
  159MOL0     C21336   7.569   8.186   4.701  0.5919 -0.9934 -0.2334
  159MOL0     C21337   7.492   8.124   4.803 -0.5510 -0.1295 -0.0406
  159MOL0     O21338   7.400   8.027   4.784 -0.6720 -0.3604  0.7879
  159MOL0     C21339   7.422   7.924   4.689 -0.6252  0.7164  0.3015
  159MOL0     C21340   7.309   7.823   4.694 -0.3108  0.0263 -0.5927
  159MOL0     C21341   7.185   7.898   4.647  0.6531 -0.0912  0.7045
  159MOL0     C21342   7.067   7.791   4.617  0.5964  0.2249  0.0204
  159MOL0     C21343   6.938   7.857   4.572  0.1826  0.3754  0.3897
  159MOL0     C21344   6.813   7.782   4.623 -0.0705  0.4476 -0.2231
  159MOL0     C21345   6.678   7.854   4.584 -0.0366  0.4049 -1.1761
  159MOL0     C21346   6.558   7.817   4.677 -0.2702  0.2907  0.9930
  159MOL0     N21347   6.518   7.677   4.666  0.4819 -0.2114 -0.4994
  159MOL0     C21348   6.440   7.607   4.580 -0.5148 -0.4363  0.7998
  159MOL0     C21349   6.429   7.483   4.620  0.1395 -0.2472 -0.6857
  159MOL0     C21350   6.358   7.375   4.541 -0.0972 -0.2463 -0.0343
  159MOL0     C21351   6.411   7.230   4.561  0.0363 -0.0732 -0.0490
  159MOL0     C21352   6.536   7.206   4.471  0.2080 -0.1273  0.4205
  159MOL0     C21353   6.670   7.278   4.505  0.7782  0.1293 -0.2560
  159MOL0     O21354   6.755   7.276   4.396 -1.2502  0.1946 -0.0844
  159MOL0     C21355   6.886   7.314   4.417 -0.5163  0.1064  0.0658
  159MOL0     C21356   6.940   7.383   4.532  0.6907 -1.1956 -0.1721
  159MOL0     C21357   7.082   7.398   4.547  0.1559  0.1314  0.1726
  159MOL0     C21358   7.170   7.344   4.453  0.7087 -1.0028  0.8680
  159MOL0     C21359   7.316   7.367   4.457 -0.6722 -0.3630 -0.3585
  159MOL0     O21360   7.388   7.271   4.385  0.4550 -0.1316  0.4016
  159MOL0     C21361   7.531   7.279   4.389  0.9320  0.1787 -1.0044
  159MOL0     C21362   7.596   7.326   4.281 -0.0244 -0.2813  0.3643
  159MOL0     C21363   7.729   7.360   4.285  0.4888 -0.3062 -0.6690
  159MOL0     C21364   7.802   7.352   4.403  0.0178 -0.1230  0.5279
  159MOL0     O21365   7.935   7.384   4.401 -0.1760  0.1132 -0.9042
  159MOL0     C21366   8.022   7.274   4.433 -0.3629 -0.2833 -0.0300
  159MOL0     C21367   8.067   7.197   4.306 -0.7760 -0.1374 -0.1571
  159MOL0     C21368   8.190   7.112   4.330 -0.0373  1.0474 -0.0456
  159MOL0     C21369   8.242   7.044   4.207 -0.1777  0.2351 -0.7787
  159MOL0     C21370   8.346   6.932   4.234 -0.3693 -0.4610 -0.1341
  159MOL0     C21371   8.450   6.991   4.334 -0.2597 -0.1434 -0.9728
  159MOL0     C21372   8.573   6.896   4.346 -0.1961 -0.1161  0.3488
  159MOL0     C21373   8.664   6.895   4.227 -0.7172  0.2379 -0.1528
  159MOL0    Cl21374   8.783   6.759   4.249 -0.1393  0.2199  0.2056
  159MOL0     C21375   7.740   7.304   4.514  0.4524 -0.2853  0.2240
  159MOL0     C21376   7.611   7.254   4.505 -0.1638 -0.7053  0.6150
  159MOL0     O21377   7.365   7.466   4.515  0.2258 -0.4630  0.4414
  159MOL0     C21378   7.115   7.279   4.340  0.7241  0.3358  0.5836
  159MOL0     C21379   6.977   7.271   4.319 -0.0351  0.2800 -0.0682
  159MOL0     N21380   6.498   7.470   4.740 -0.4935  0.2675 -0.4261
  159MOL0     N21381   6.551   7.588   4.761 -0.7556 -0.5182 -0.2003
  159MOL0     C21382   7.519   8.148   4.933 -0.0224 -0.2598 -0.7578
  159MOL0     C21383   7.631   8.238   4.965  0.6547 -0.5563 -0.1824
  159MOL0     C21384   8.034   8.402   4.911 -0.2593  0.2927  0.2826
  159MOL0     C21385   8.040   8.458   5.046  0.0673 -0.5426 -0.7212
  159MOL0     C21386   8.153   8.530   5.080 -0.4804  0.4547  0.0406
  159MOL0     C21387   8.271   8.541   4.996  0.0351  0.0628  0.3923
  159MOL0     O21388   8.390   8.608   5.023 -0.7297 -0.0954  0.1110
  159MOL0     C21389   8.426   8.612   5.165  0.6263 -0.5286  0.4622
  159MOL0     C21390   8.560   8.690   5.189 -0.1074  0.3233  0.2031
  159MOL0     C21391   8.606   8.656   5.329  0.1402  0.5051 -0.2826
  159MOL0     C21392   8.752   8.619   5.330  0.0657 -0.0432  0.1846
  159MOL0     C21393   8.837   8.709   5.259 -0.8839 -0.1425 -1.1064
  159MOL0     C21394   8.905   8.775   5.185  0.9114 -0.5239  0.6983
  159MOL0     C21395   8.260   8.480   4.867 -0.1705  0.2847  0.5055
  159MOL0     C21396   8.148   8.414   4.825  0.2029  0.1954 -0.7777
  159MOL0     C21397   8.141   8.378   4.677  0.6522  0.3703  1.3357
  159MOL0     H21398   7.713   8.334   4.649  2.7336  0.8329  1.7129
  159MOL0     H21399   7.535   8.170   4.599 -0.9879  1.2515 -0.1293
  159MOL0     H21400   7.448   7.960   4.589 -3.6108 -0.1954 -0.9254
  159MOL0     H21401   7.508   7.865   4.721 -2.3394 -1.5453  1.0511
  159MOL0     H21402   7.300   7.785   4.796 -0.7732 -0.2073 -0.7149
  159MOL0     H21403   7.321   7.733   4.634 -2.9712 -1.0155  0.2770
  159MOL0     H21404   7.211   7.950   4.555  0.4791  1.8554  1.7100
  159MOL0     H21405   7.146   7.968   4.722 -1.6903 -0.2430 -0.3032
  159MOL0     H21406   7.104   7.720   4.543  2.6630  2.3734 -1.1372
  159MOL0     H21407   7.055   7.748   4.717 -0.9414  0.4692 -0.0464
  159MOL0     H21408   6.935   7.956   4.618  0.4802 -1.5051  4.9903
  159MOL0     H21409   6.926   7.865   4.464 -0.5345  2.2505  0.5736
  159MOL0     H21410   6.822   7.680   4.584 -1.5082  0.7001 -1.2916
  159MOL0     H21411   6.832   7.780   4.731  3.3391  1.5664 -0.6811
  159MOL0     H21412   6.671   7.833   4.477  1.0195  2.4079 -1.7043
  159MOL0     H21413   6.689   7.962   4.600  0.5234  0.2040 -0.0957
  159MOL0     H21414   6.569   7.853   4.779  0.2995  4.9514 -0.4898
  159MOL0     H21415   6.480   7.884   4.641  0.7355 -0.7092 -3.7159
  159MOL0     H21416   6.401   7.653   4.489 -2.6010 -2.0405  0.7985
  159MOL0     H21417   6.252   7.378   4.568 -0.1188  0.7842 -0.2010
  159MOL0     H21418   6.360   7.401   4.434 -0.7206 -1.5496 -0.3803
  159MOL0     H21419   6.431   7.220   4.668  1.3460 -2.3089 -0.4361
  159MOL0     H21420   6.329   7.165   4.531  0.8063 -0.1824 -2.0849
  159MOL0     H21421   6.512   7.232   4.367  1.2182  3.3042  0.9142
  159MOL0     H21422   6.561   7.100   4.466  1.6249  0.0046  2.9104
  159MOL0     H21423   6.712   7.236   4.597 -0.1488  3.2523  1.7502
  159MOL0     H21424   6.648   7.383   4.522 -0.7843 -0.0211 -1.1666
  159MOL0     H21425   6.877   7.419   4.613  1.7404  0.2384  0.0454
  159MOL0     H21426   7.124   7.458   4.627 -2.5234  0.3868  1.4708
  159MOL0     H21427   7.537   7.341   4.191  0.3095  0.2663  0.2336
  159MOL0     H21428   7.782   7.392   4.196  3.0379 -0.7230  0.6210
  159MOL0     H21429   8.110   7.314   4.486 -1.5673  0.3307  1.5942
  159MOL0     H21430   7.969   7.209   4.503  1.0716 -3.3770 -1.6188
  159MOL0     H21431   7.979   7.138   4.280 -3.5777  2.2642  2.9270
  159MOL0     H21432   8.084   7.264   4.221  0.4491 -1.9197 -1.3873
  159MOL0     H21433   8.273   7.176   4.362  1.5409 -1.8783  2.2509
  159MOL0     H21434   8.158   7.050   4.414  1.1030 -0.8039 -0.9132
  159MOL0     H21435   8.294   7.120   4.149 -0.6711 -0.9928 -2.9295
  159MOL0     H21436   8.163   7.005   4.143 -1.6403  2.1299 -0.1950
  159MOL0     H21437   8.391   6.896   4.140  1.5756 -1.7733  1.2251
  159MOL0     H21438   8.290   6.849   4.277 -2.2651  2.4436  3.5780
  159MOL0     H21439   8.484   7.093   4.312  0.6330  0.1401  1.4151
  159MOL0     H21440   8.400   6.996   4.431  0.0425 -2.6920 -0.6355
  159MOL0     H21441   8.532   6.796   4.364  0.9462 -0.3675  1.7327
  159MOL0     H21442   8.635   6.913   4.435 -0.6268  1.3596  0.4014
  159MOL0     H21443   8.601   6.879   4.139  1.1397  0.9489 -1.6868
  159MOL0     H21444   8.712   6.993   4.231  1.9945 -1.0282  1.1436
  159MOL0     H21445   7.793   7.295   4.609  0.4982 -0.7619  0.1529
  159MOL0     H21446   7.556   7.215   4.590 -2.3395  2.1966  0.7153
  159MOL0     H21447   7.183   7.243   4.264  1.1576  0.5597  0.8617
  159MOL0     H21448   6.932   7.218   4.236  0.8421  1.9942 -1.7100
  159MOL0     H21449   7.466   8.107   5.018  1.0095 -1.0224 -0.4619
  159MOL0     H21450   7.658   8.249   5.069 -2.9458  2.1032  0.6876
  159MOL0     H21451   7.952   8.456   5.110 -0.2392  5.0135 -0.4867
  159MOL0     H21452   8.144   8.580   5.176 -1.8260 -0.6073  0.4873
  159MOL0     H21453   8.439   8.509   5.198  2.0826  0.0106  1.6735
  159MOL0     H21454   8.347   8.656   5.225  0.0977 -4.2660  2.7999
  159MOL0     H21455   8.536   8.796   5.186 -0.0793  0.3692  1.3036
  159MOL0     H21456   8.635   8.658   5.115 -2.7160 -0.2298 -2.4258
  159MOL0     H21457   8.555   8.566   5.366  0.5768 -0.3588 -1.7013
  159MOL0     H21458   8.590   8.743   5.393  2.3511 -0.8906  2.3530
  159MOL0     H21459   8.779   8.582   5.430  2.8033 -2.5766 -1.3207
  159MOL0     H21460   8.763   8.524   5.276  3.9347  1.0076 -1.1756
  159MOL0     H21461   8.963   8.842   5.124 -0.5101  0.7458  0.6554
  159MOL0     H21462   8.345   8.489   4.800 -1.6146  0.6439 -1.3656
  159MOL0     H21463   8.037   8.397   4.651  0.3289  1.6519  3.4031
  159MOL0     H21464   8.208   8.438   4.615 -0.1434  0.6775  0.7566
  159MOL0     H21465   8.169   8.273   4.661 -3.4097 -0.4056 -2.8684
  160MOL0     O21466   0.236   2.784   1.799 -1.3110 -1.1890 -0.3819
  160MOL0     C21467   0.142   2.799   1.723  0.4273 -0.2520 -0.4263
  160MOL0     O21468   0.113   2.708   1.624  0.3449 -0.3679 -0.0535
  160MOL0     C21469   0.210   2.610   1.604 -1.3580 -0.3773 -0.6900
  160MOL0     C21470   0.307   2.649   1.516 -0.1962  0.1136 -1.0060
  160MOL0     C21471   0.429   2.592   1.512 -0.3687 -0.2837 -0.2530
  160MOL0     C21472   0.462   2.489   1.601  0.1773  0.8640 -0.4064
  160MOL0     O21473   0.582   2.421   1.607  0.6952  0.5096 -0.3523
  160MOL0     C21474   0.690   2.453   1.522 -0.2318 -0.5561 -0.1292
  160MOL0     C21475   0.805   2.357   1.543 -1.4749  0.6109  0.2458
  160MOL0     C21476   0.934   2.414   1.485 -0.3858 -0.0469 -1.0467
  160MOL0     C21477   1.051   2.312   1.469  0.3417 -0.1041 -0.4853
  160MOL0     C21478   1.183   2.382   1.419  0.1624 -0.5752 -0.7813
  160MOL0     C21479   1.301   2.294   1.378 -0.0162  0.5755  0.6276
  160MOL0     C21480   1.390   2.242   1.493 -0.3823 -0.9679  0.5866
  160MOL0     C21481   1.464   2.364   1.559 -0.5658 -0.2894  0.0752
  160MOL0     N21482   1.536   2.321   1.668  0.5287  1.0111 -0.0063
  160MOL0     C21483   1.482   2.292   1.796  0.2693  0.5135 -0.3051
  160MOL0     C21484   1.593   2.276   1.872  0.1403 -0.7723 -0.2510
  160MOL0     C21485   1.591   2.271   2.027  0.1056 -0.5474 -0.3646
  160MOL0     C21486   1.560   2.404   2.098  0.1648 -0.0495 -0.5571
  160MOL0     C21487   1.665   2.514   2.072 -0.5693 -0.0117  0.5274
  160MOL0     C21488   1.799   2.497   2.138 -0.3842  0.4655 -0.0343
  160MOL0     O21489   1.792   2.521   2.280 -0.2591  0.0197  0.3852
  160MOL0     C21490   1.909   2.489   2.349  0.5084 -0.3920  0.6127
  160MOL0     C21491   1.978   2.364   2.329  0.7474  0.8519 -0.7195
  160MOL0     C21492   2.094   2.342   2.403 -0.0577 -0.1185 -1.1804
  160MOL0     C21493   2.152   2.453   2.475  0.8658  1.4009  0.2870
  160MOL0     C21494   2.284   2.441   2.546 -0.0628 -0.2500 -0.1461
  160MOL0     O21495   2.320   2.547   2.623  0.0402 -0.1724  0.6352
  160MOL0     C21496   2.443   2.554   2.695  0.0645 -0.3238 -0.1544
  160MOL0     C21497   2.493   2.462   2.791 -0.1143  0.6272  1.4221
  160MOL0     C21498   2.617   2.478   2.856 -1.2947 -1.0227  0.6588
  160MOL0     C21499   2.705   2.582   2.828 -0.8071 -0.8441  0.6046
  160MOL0     O21500   2.833   2.597   2.878 -0.1037  0.2303 -1.2087
  160MOL0     C21501   2.846   2.561   3.024  0.6668  0.4395  0.1450
  160MOL0     C21502   2.996   2.558   3.084  0.7649  0.4409  0.8184
  160MOL0     C21503   3.065   2.702   3.095  0.6159  0.3865 -0.1514
  160MOL0     C21504   3.200   2.682   3.162  0.1380 -0.8277 -0.1334
  160MOL0     C21505   3.283   2.813   3.175  0.0540  1.3380  0.1407
  160MOL0     C21506   3.285   2.901   3.045 -0.4253 -0.1175 -0.5251
  160MOL0     C21507   3.377   3.024   3.059 -0.3176 -0.0578  0.0134
  160MOL0     C21508   3.533   2.995   3.039 -0.3601  0.7377  0.5234
  160MOL0    Cl21509   3.580   2.935   2.871  0.0317 -0.0094  0.0073
  160MOL0     C21510   2.661   2.674   2.726  0.3292  0.3895  0.4058
  160MOL0     C21511   2.532   2.662   2.670  0.7611 -0.1989  0.2616
  160MOL0     O21512   2.338   2.333   2.547 -0.1715 -0.1321  0.7420
  160MOL0     C21513   2.083   2.569   2.498 -0.1103  0.3599  0.1811
  160MOL0     C21514   1.968   2.588   2.421 -0.0557  0.3709  0.5483
  160MOL0     N21515   1.706   2.297   1.795  0.1786 -0.2907  0.2369
  160MOL0     N21516   1.674   2.308   1.676  0.1512  0.1309 -0.3149
  160MOL0     C21517   0.363   2.438   1.683 -0.1018 -0.1619  0.2678
  160MOL0     C21518   0.236   2.492   1.683 -0.1796  0.1116 -0.5935
  160MOL0     C21519   0.046   2.903   1.753 -0.5737 -1.0377 -0.5864
  160MOL0     C21520   0.102   3.028   1.812  0.8510 -0.0121  0.4098
  160MOL0     C21521   0.015   3.131   1.835 -0.0889  0.8168  0.3559
  160MOL0     C21522  -0.117   3.128   1.787  0.0757 -0.1096 -0.6538
  160MOL0     O21523  -0.188   3.252   1.787  0.1605  0.8701  0.6209
  160MOL0     C21524  -0.316   3.262   1.713 -0.4565  0.1161 -0.1209
  160MOL0     C21525  -0.368   3.403   1.741  0.0473 -0.2351 -0.7882
  160MOL0     C21526  -0.523   3.409   1.728 -0.3166 -0.2680  0.2867
  160MOL0     C21527  -0.600   3.353   1.846 -0.1839 -0.6439 -0.0897
  160MOL0     C21528  -0.741   3.369   1.807 -0.0520  0.1426  0.1885
  160MOL0     C21529  -0.859   3.369   1.789 -0.0445 -0.3370 -0.1957
  160MOL0     C21530  -0.158   3.011   1.724 -0.1855 -0.3431  1.3290
  160MOL0     C21531  -0.084   2.899   1.706  0.4365 -0.4107 -1.1838
  160MOL0     C21532  -0.149   2.781   1.636  0.5986  0.3050  0.3042
  160MOL0     H21533   0.296   2.735   1.450 -1.1308  0.9465  0.1884
  160MOL0     H21534   0.490   2.625   1.428  0.0272 -4.0546 -1.6315
  160MOL0     H21535   0.652   2.448   1.419  0.4200  0.8006 -0.4598
  160MOL0     H21536   0.722   2.554   1.549 -3.1475  1.2243 -2.5725
  160MOL0     H21537   0.780   2.256   1.509  0.0401 -0.4536  2.1287
  160MOL0     H21538   0.824   2.343   1.650  1.1743 -0.1868 -0.2611
  160MOL0     H21539   0.960   2.504   1.542 -3.2518 -0.5233  1.2878
  160MOL0     H21540   0.897   2.445   1.387 -0.6719 -0.6378 -1.1263
  160MOL0     H21541   1.064   2.264   1.566 -4.0759  1.1668  0.9638
  160MOL0     H21542   1.014   2.231   1.406 -0.5858 -0.0782  0.0041
  160MOL0     H21543   1.159   2.445   1.333  4.3817 -0.2286 -1.9348
  160MOL0     H21544   1.208   2.456   1.496 -2.8649 -1.8350  1.6036
  160MOL0     H21545   1.266   2.203   1.328  0.3531  0.9533 -0.3341
  160MOL0     H21546   1.361   2.353   1.309  0.0557  0.8931  0.9613
  160MOL0     H21547   1.472   2.177   1.463  1.7532  0.7700  2.3392
  160MOL0     H21548   1.331   2.185   1.566  1.5272 -1.9453  1.4494
  160MOL0     H21549   1.520   2.411   1.477 -0.7411 -0.5507 -0.1960
  160MOL0     H21550   1.387   2.432   1.596 -0.1862  0.1410  0.0795
  160MOL0     H21551   1.380   2.302   1.832  0.3938  2.3593 -0.3963
  160MOL0     H21552   1.508   2.202   2.046  0.6954 -1.1457  0.0888
  160MOL0     H21553   1.682   2.226   2.068 -0.4538 -1.8847 -0.5372
  160MOL0     H21554   1.464   2.434   2.054 -0.6573 -2.1056 -0.2607
  160MOL0     H21555   1.536   2.389   2.203 -2.0877 -1.6393 -1.2237
  160MOL0     H21556   1.615   2.609   2.091  1.8156  1.0758  1.8217
  160MOL0     H21557   1.689   2.508   1.965 -3.6507 -2.7125 -0.1779
  160MOL0     H21558   1.860   2.576   2.093 -1.7446  1.8150  0.3967
  160MOL0     H21559   1.845   2.402   2.108  4.0239  2.2465  0.4682
  160MOL0     H21560   1.932   2.281   2.275  0.0084 -0.4147  1.7094
  160MOL0     H21561   2.152   2.250   2.397  0.0230 -0.0206 -1.8931
  160MOL0     H21562   2.433   2.373   2.809 -2.2534  1.7614  0.2463
  160MOL0     H21563   2.664   2.403   2.919  2.4647 -0.9221 -1.7635
  160MOL0     H21564   2.800   2.646   3.075 -1.6271 -0.6424  0.0029
  160MOL0     H21565   2.798   2.465   3.049  0.2051  1.5737  4.3943
  160MOL0     H21566   2.973   2.511   3.180 -2.5009 -0.7339 -0.3816
  160MOL0     H21567   3.049   2.481   3.027  1.4041  1.0390  0.5952
  160MOL0     H21568   3.074   2.750   2.997  0.0816  1.4016  0.2816
  160MOL0     H21569   3.003   2.765   3.160 -0.4154 -1.1208  0.3899
  160MOL0     H21570   3.259   2.613   3.101 -0.1628 -0.7776 -0.4852
  160MOL0     H21571   3.174   2.642   3.261 -1.0349 -1.2709 -0.5945
  160MOL0     H21572   3.385   2.784   3.205 -0.5495  0.1204  1.0910
  160MOL0     H21573   3.240   2.879   3.251 -0.3563  0.0508  1.0574
  160MOL0     H21574   3.317   2.847   2.955  0.5464 -0.7137  0.1532
  160MOL0     H21575   3.183   2.936   3.029 -0.6529 -0.8286 -0.6371
  160MOL0     H21576   3.356   3.072   3.156 -2.0750 -3.3314  1.4095
  160MOL0     H21577   3.359   3.097   2.979  0.4524  0.0248 -0.0953
  160MOL0     H21578   3.592   3.084   3.063 -2.7984  1.7958  3.0559
  160MOL0     H21579   3.560   2.925   3.118  1.9806 -0.3522 -1.1167
  160MOL0     H21580   2.721   2.759   2.697 -2.2287  2.6911  1.3942
  160MOL0     H21581   2.489   2.735   2.603  2.1709 -0.9516 -1.5657
  160MOL0     H21582   2.118   2.654   2.556 -1.3247  1.0944 -0.1420
  160MOL0     H21583   1.910   2.679   2.428 -1.9344 -0.6253 -0.9395
  160MOL0     H21584   0.387   2.367   1.761  1.2977  1.5648  1.4797
  160MOL0     H21585   0.162   2.462   1.756 -0.0469  2.9197  0.8125
  160MOL0     H21586   0.209   3.035   1.829  1.1100 -1.7013 -0.3314
  160MOL0     H21587   0.058   3.222   1.875 -0.0843  1.6115 -1.3531
  160MOL0     H21588  -0.382   3.185   1.754  0.8153 -0.5645  0.7235
  160MOL0     H21589  -0.290   3.248   1.607  0.3109  0.1110  0.0575
  160MOL0     H21590  -0.323   3.473   1.671 -1.5187  0.2535 -1.3382
  160MOL0     H21591  -0.349   3.432   1.845  3.0469  1.0435 -1.5858
  160MOL0     H21592  -0.561   3.359   1.638 -2.6614 -0.0317  1.0619
  160MOL0     H21593  -0.560   3.509   1.706 -0.4904 -0.7356 -1.7858
  160MOL0     H21594  -0.584   3.245   1.858 -0.3416 -0.7356 -0.6804
  160MOL0     H21595  -0.577   3.411   1.936 -0.2112 -0.6988 -0.0477
  160MOL0     H21596  -0.963   3.374   1.767  0.3121 -2.6905 -3.0106
  160MOL0     H21597  -0.259   3.013   1.684  0.4767  0.6124 -0.4525
  160MOL0     H21598  -0.256   2.787   1.655  0.7860 -0.1195  1.5982
  160MOL0     H21599  -0.120   2.775   1.530 -0.2716  1.6534 -0.0371
  160MOL0     H21600  -0.123   2.690   1.691 -0.2186  0.9274  1.7813
  161MOL0     O21601   0.781  10.623   5.028 -0.0047 -0.4277  0.0608
  161MOL0     C21602   0.709  10.554   4.951 -0.5176  0.2728 -0.0810
  161MOL0     O21603   0.709  10.571   4.815  0.3381 -0.3846  0.2573
  161MOL0     C21604   0.763  10.680   4.765 -0.3719 -0.0575 -0.0104
  161MOL0     C21605   0.882  10.662   4.688  0.3849  0.3192  0.3069
  161MOL0     C21606   0.956  10.778   4.645 -0.0522  0.5443 -0.0615
  161MOL0     C21607   0.912  10.910   4.670 -0.1893 -0.6688 -0.8598
  161MOL0     O21608   0.982  11.028   4.646 -0.0711 -0.2240 -0.2862
  161MOL0     C21609   1.130  11.006   4.638 -0.0327  0.0507  0.2940
  161MOL0     C21610   1.200  11.144   4.638 -0.3937 -0.0811  0.0245
  161MOL0     C21611   1.350  11.123   4.608 -0.4084 -0.3717  0.2846
  161MOL0     C21612   1.431  11.252   4.577  0.6472  0.5807  0.4980
  161MOL0     C21613   1.568  11.211   4.531  0.9360 -0.0385 -0.4071
  161MOL0     C21614   1.642  11.340   4.503 -0.1687  0.4131  0.7002
  161MOL0     C21615   1.789  11.310   4.471 -0.7874 -0.2074  0.1959
  161MOL0     C21616   1.865  11.441   4.431 -0.5829 -0.3582 -0.0219
  161MOL0     N21617   2.002  11.405   4.403 -0.1884 -0.3650  0.1240
  161MOL0     C21618   2.065  11.423   4.283  0.3386  0.2922 -0.2252
  161MOL0     C21619   2.196  11.427   4.316  0.0148 -0.0609 -0.3247
  161MOL0     C21620   2.310  11.470   4.230 -0.3201  0.7749  0.5993
  161MOL0     C21621   2.325  11.375   4.102 -0.1831  0.5192 -0.0765
  161MOL0     C21622   2.439  11.414   4.016 -0.2748  0.7153 -0.5804
  161MOL0     C21623   2.447  11.329   3.894  0.8559  0.2797  0.2802
  161MOL0     O21624   2.476  11.184   3.914 -0.0941  0.4686 -0.2578
  161MOL0     C21625   2.603  11.144   3.927 -0.1485  0.4419  0.6545
  161MOL0     C21626   2.618  11.006   3.960 -0.8152  0.1901 -0.0992
  161MOL0     C21627   2.748  10.942   3.970 -0.0711  0.1611  0.0265
  161MOL0     C21628   2.871  11.022   3.958  0.4015  0.3997  0.1699
  161MOL0     C21629   3.010  10.973   3.969 -0.1607 -0.3838 -0.0467
  161MOL0     O21630   3.114  11.060   3.963 -0.2961  0.2133 -0.0954
  161MOL0     C21631   3.244  11.017   3.948  0.1407 -0.3164  0.3814
  161MOL0     C21632   3.336  11.123   3.934  0.3574  0.6750  0.1619
  161MOL0     C21633   3.475  11.101   3.913  0.3963 -0.1082 -0.5479
  161MOL0     C21634   3.530  10.972   3.901 -0.2165 -0.0593 -0.1323
  161MOL0     O21635   3.659  10.948   3.878 -0.2397  0.1151 -0.0617
  161MOL0     C21636   3.739  11.051   3.803  0.7822  0.1833  0.1931
  161MOL0     C21637   3.870  11.001   3.747  0.8747  0.2142  0.1526
  161MOL0     C21638   3.940  11.100   3.653 -0.7517 -0.0652 -0.7233
  161MOL0     C21639   4.078  11.045   3.605  0.6247  0.0433  0.7561
  161MOL0     C21640   4.138  11.161   3.518  0.9089  0.3511 -0.5017
  161MOL0     C21641   4.289  11.151   3.482 -0.9748 -0.0638 -0.6522
  161MOL0     C21642   4.321  11.010   3.419 -0.6461  0.3958  0.2630
  161MOL0     C21643   4.477  11.005   3.390 -0.0597  0.3324 -0.2744
  161MOL0    Cl21644   4.544  10.854   3.312  0.2252  0.1405 -0.1450
  161MOL0     C21645   3.444  10.867   3.929  0.5350  0.4792  0.2033
  161MOL0     C21646   3.298  10.891   3.937 -0.9166 -0.3275  0.5966
  161MOL0     O21647   3.024  10.849   3.978  0.5572 -0.0040 -0.4116
  161MOL0     C21648   2.848  11.159   3.924 -0.1713  0.1525 -0.9803
  161MOL0     C21649   2.722  11.217   3.917 -0.3315 -0.1011 -0.2334
  161MOL0     N21650   2.213  11.404   4.447  0.9759  0.3055  0.2636
  161MOL0     N21651   2.095  11.395   4.504 -0.2245  0.5566  0.8049
  161MOL0     C21652   0.790  10.918   4.737 -0.3335  0.2003 -0.0920
  161MOL0     C21653   0.714  10.807   4.781  0.4459  0.0187  0.2088
  161MOL0     C21654   0.625  10.441   4.997  0.1097 -0.2922  0.0662
  161MOL0     C21655   0.545  10.389   4.894  0.5676  0.4203 -0.0408
  161MOL0     C21656   0.442  10.294   4.924 -0.0293 -1.0682  0.1800
  161MOL0     C21657   0.423  10.253   5.049  0.0871 -0.0255  0.3456
  161MOL0     O21658   0.322  10.171   5.070 -0.1504 -0.1694 -0.0285
  161MOL0     C21659   0.221  10.229   5.144 -0.1778 -0.5613 -0.4113
  161MOL0     C21660   0.084  10.137   5.148 -0.0831 -0.8929 -1.0849
  161MOL0     C21661   0.017  10.110   5.011  0.2336 -0.6825  0.3659
  161MOL0     C21662  -0.124  10.062   5.044 -0.1644 -0.0700 -0.0892
  161MOL0     C21663  -0.209  10.030   4.936  0.0875 -0.7241 -0.2532
  161MOL0     C21664  -0.293   9.994   4.852  0.4266  0.1248 -0.0257
  161MOL0     C21665   0.508  10.292   5.147 -0.1823  0.7174 -0.1306
  161MOL0     C21666   0.608  10.392   5.128 -0.0749 -0.7305 -0.6416
  161MOL0     C21667   0.676  10.436   5.250  0.5923 -0.4814  0.1324
  161MOL0     H21668   0.902  10.557   4.668 -2.9342 -0.3473 -0.1388
  161MOL0     H21669   1.051  10.760   4.595 -1.8103 -3.2490 -2.5034
  161MOL0     H21670   1.162  10.940   4.719  2.3249  1.0510  0.2449
  161MOL0     H21671   1.151  10.950   4.546  0.8340 -2.0666  1.6908
  161MOL0     H21672   1.181  11.201   4.730  0.2637 -0.0527  0.1488
  161MOL0     H21673   1.152  11.211   4.566 -0.7080  0.3253  0.6122
  161MOL0     H21674   1.354  11.048   4.529 -1.2515 -1.2990  1.0974
  161MOL0     H21675   1.400  11.091   4.701 -0.7148 -0.1050  0.5448
  161MOL0     H21676   1.380  11.308   4.498 -2.4738  0.0346  1.9891
  161MOL0     H21677   1.420  11.311   4.668  0.5725 -0.0652  0.9126
  161MOL0     H21678   1.612  11.164   4.619 -1.7976  0.7134  1.4879
  161MOL0     H21679   1.565  11.139   4.449  2.2391 -1.0463  0.3814
  161MOL0     H21680   1.597  11.389   4.416 -0.7293  1.9068  1.7972
  161MOL0     H21681   1.629  11.416   4.581  2.3013  1.2801  0.3822
  161MOL0     H21682   1.803  11.233   4.393 -1.6691  0.3697 -0.5435
  161MOL0     H21683   1.847  11.275   4.557  1.4175 -0.1845 -1.1993
  161MOL0     H21684   1.818  11.504   4.356 -1.0566  1.8386  1.9765
  161MOL0     H21685   1.864  11.505   4.520 -0.1936  1.7426 -1.4471
  161MOL0     H21686   2.029  11.452   4.184  0.9003 -0.2022 -0.5747
  161MOL0     H21687   2.303  11.578   4.213  2.4371  0.9157 -0.0437
  161MOL0     H21688   2.403  11.453   4.285 -0.7026 -1.7388  0.6015
  161MOL0     H21689   2.331  11.269   4.127 -2.7791  0.3811  0.1950
  161MOL0     H21690   2.236  11.385   4.039  0.2729  0.7603 -0.6978
  161MOL0     H21691   2.533  11.420   4.070 -0.7972  1.3627  0.2789
  161MOL0     H21692   2.405  11.512   3.981 -4.4790 -0.4039 -0.1819
  161MOL0     H21693   2.528  11.382   3.843  1.4147  1.3265  2.1518
  161MOL0     H21694   2.368  11.334   3.819  1.5219 -0.3949 -0.4987
  161MOL0     H21695   2.525  10.952   3.973 -1.6921  2.0635  1.9143
  161MOL0     H21696   2.764  10.843   4.011  1.4399  1.3174  2.4619
  161MOL0     H21697   3.293  11.222   3.923 -0.1774  0.4351  0.0451
  161MOL0     H21698   3.547  11.182   3.905  1.9736 -1.1715  1.7175
  161MOL0     H21699   3.677  11.096   3.724  1.6764  1.6293  0.2830
  161MOL0     H21700   3.752  11.130   3.878 -0.8325  0.3008  0.3900
  161MOL0     H21701   3.941  10.991   3.829  0.7625 -0.4343  0.1680
  161MOL0     H21702   3.859  10.903   3.702 -1.1436 -1.8054  4.4995
  161MOL0     H21703   3.877  11.116   3.565 -1.9191 -0.0977  0.0945
  161MOL0     H21704   3.952  11.196   3.704  0.2363  0.1858 -1.3901
  161MOL0     H21705   4.058  10.961   3.538 -2.2938 -0.4149  2.0610
  161MOL0     H21706   4.149  11.015   3.683  0.8021 -3.1270 -0.4706
  161MOL0     H21707   4.119  11.253   3.573 -2.6206 -1.1466  1.0479
  161MOL0     H21708   4.075  11.163   3.429 -0.8127 -0.1059  0.6640
  161MOL0     H21709   4.311  11.234   3.415 -2.1058 -0.2544 -1.2793
  161MOL0     H21710   4.363  11.160   3.562 -1.4081 -0.7926 -0.1580
  161MOL0     H21711   4.269  11.001   3.323  2.8331  1.2324 -1.8802
  161MOL0     H21712   4.294  10.927   3.485 -0.0108 -0.3531 -0.3950
  161MOL0     H21713   4.503  11.090   3.327  1.2351  0.4708  0.4033
  161MOL0     H21714   4.543  11.026   3.475  1.4519  1.5677 -1.6977
  161MOL0     H21715   3.476  10.763   3.933 -0.0322  0.2024 -1.6784
  161MOL0     H21716   3.237  10.801   3.940  0.4917 -1.3279  0.1779
  161MOL0     H21717   2.927  11.226   3.891 -0.9616  0.6983 -1.7974
  161MOL0     H21718   2.714  11.323   3.893 -1.8266 -0.4786 -1.6437
  161MOL0     H21719   0.739  11.013   4.748  0.0497  0.4018 -0.0525
  161MOL0     H21720   0.617  10.827   4.825 -0.2613  2.5369 -2.2189
  161MOL0     H21721   0.531  10.425   4.792 -3.0379  0.0441  0.1714
  161MOL0     H21722   0.372  10.267   4.845  1.1716  3.2007 -2.7065
  161MOL0     H21723   0.211  10.331   5.107  4.4612 -0.4201 -1.9367
  161MOL0     H21724   0.244  10.240   5.250 -3.0213 -0.6412  0.2899
  161MOL0     H21725   0.009  10.187   5.210 -0.7741 -3.3173  0.1984
  161MOL0     H21726   0.111  10.046   5.203  1.6809  0.4278  0.3782
  161MOL0     H21727   0.079  10.043   4.951  0.7242  0.5222 -0.5236
  161MOL0     H21728   0.019  10.199   4.948 -4.2583  0.0355  0.9082
  161MOL0     H21729  -0.114   9.978   5.113  0.2543 -0.1738 -0.2775
  161MOL0     H21730  -0.181  10.137   5.099  1.9381 -0.2855  2.5774
  161MOL0     H21731  -0.341   9.954   4.765  1.1491  0.1297 -0.4297
  161MOL0     H21732   0.492  10.265   5.251  1.9472 -3.5780 -0.7061
  161MOL0     H21733   0.760  10.368   5.270  1.7849  0.9785  0.2134
  161MOL0     H21734   0.711  10.539   5.246  1.4854 -0.7941 -0.7019
  161MOL0     H21735   0.615  10.429   5.340  3.2694 -0.4156  2.1004
  162MOL0     O21736   6.534   4.803   8.806  0.2916 -0.0983  0.1926
  162MOL0     C21737   6.553   4.712   8.717  0.1500 -0.5055  0.4725
  162MOL0     O21738   6.665   4.650   8.692  0.2716 -0.0170 -0.1834
  162MOL0     C21739   6.766   4.656   8.777 -0.3367 -0.0340 -0.2503
  162MOL0     C21740   6.867   4.749   8.765  0.9945 -0.2991 -0.5375
  162MOL0     C21741   6.965   4.764   8.864 -0.9727  0.0214 -0.3589
  162MOL0     C21742   6.971   4.675   8.976 -0.0239 -0.1458  0.2620
  162MOL0     O21743   7.064   4.692   9.071 -0.2206 -0.1831 -0.6267
  162MOL0     C21744   7.098   4.820   9.108  0.3067  0.2097 -0.0752
  162MOL0     C21745   7.251   4.840   9.080 -0.0578 -0.0090  0.5626
  162MOL0     C21746   7.300   4.983   9.072 -0.6668 -0.0553 -0.5217
  162MOL0     C21747   7.457   4.974   9.075  0.7569  0.5339  0.0961
  162MOL0     C21748   7.501   5.119   9.051  0.5505  0.1974 -0.2087
  162MOL0     C21749   7.489   5.164   8.908 -0.0178 -0.3380  0.2388
  162MOL0     C21750   7.598   5.278   8.883  0.9111 -0.1188 -0.3674
  162MOL0     C21751   7.590   5.394   8.982  0.6825  0.2188 -0.4041
  162MOL0     N21752   7.673   5.509   8.929  0.0320  0.6309  0.2940
  162MOL0     C21753   7.644   5.615   8.851 -0.2121  0.3741  0.2288
  162MOL0     C21754   7.762   5.680   8.848 -0.0477  0.4296 -0.0725
  162MOL0     C21755   7.777   5.818   8.787  0.4462 -0.7185 -0.2054
  162MOL0     C21756   7.867   5.907   8.867 -0.4639 -0.2646  0.0078
  162MOL0     C21757   7.888   6.042   8.806 -0.4824 -1.0674  0.4813
  162MOL0     C21758   8.011   6.108   8.873  1.2698 -0.5995 -0.1849
  162MOL0     O21759   7.990   6.109   9.016  0.2287  0.6538 -0.1665
  162MOL0     C21760   8.084   6.163   9.102  0.5975  1.0460 -0.3152
  162MOL0     C21761   8.199   6.225   9.065 -0.5863 -0.9297  0.5232
  162MOL0     C21762   8.292   6.285   9.157  0.0964  0.3689 -0.0745
  162MOL0     C21763   8.263   6.281   9.294  1.0600  0.5477 -0.3628
  162MOL0     C21764   8.352   6.347   9.385 -0.2894 -0.6133 -0.4282
  162MOL0     O21765   8.440   6.437   9.334 -0.4154 -0.4046  0.0873
  162MOL0     C21766   8.515   6.505   9.422 -0.3098 -0.0951 -0.1390
  162MOL0     C21767   8.584   6.448   9.536 -0.4654  0.1150 -0.6628
  162MOL0     C21768   8.676   6.517   9.614  0.6463 -0.3979 -0.9107
  162MOL0     C21769   8.697   6.651   9.592  1.2930  0.6700 -0.3227
  162MOL0     O21770   8.779   6.720   9.677  0.2766 -0.1596 -0.8752
  162MOL0     C21771   8.818   6.860   9.655 -0.1453 -1.0071  0.4487
  162MOL0     C21772   8.906   6.909   9.774 -0.8096 -0.1625 -0.1163
  162MOL0     C21773   8.966   7.045   9.755  0.0347 -0.2667  0.2523
  162MOL0     C21774   9.050   7.101   9.873  0.1607  0.3236  0.7718
  162MOL0     C21775   9.194   7.055   9.881  0.6098 -1.0927  0.3997
  162MOL0     C21776   9.271   7.102  10.000 -1.1086 -0.2101  0.3736
  162MOL0     C21777   9.315   7.250   9.992  0.2813 -0.3010 -0.3977
  162MOL0     C21778   9.438   7.276   9.912  0.1512 -0.3420  0.1019
  162MOL0    Cl21779   9.484   7.447   9.925  0.2006 -0.6414  0.5330
  162MOL0     C21780   8.627   6.713   9.482  0.8359  0.4820 -0.3039
  162MOL0     C21781   8.542   6.639   9.401  0.3449  0.2440 -0.1469
  162MOL0     O21782   8.337   6.319   9.501 -0.2459 -0.0090 -0.5462
  162MOL0     C21783   8.142   6.208   9.338 -0.1912  0.3548 -0.1947
  162MOL0     C21784   8.059   6.149   9.241 -0.3319 -0.2369  0.1643
  162MOL0     N21785   7.858   5.616   8.923  0.3109  0.6925  0.4461
  162MOL0     N21786   7.806   5.520   8.975  0.4788 -0.8631 -0.3237
  162MOL0     C21787   6.880   4.571   8.985 -0.1086 -0.5369  0.7582
  162MOL0     C21788   6.772   4.566   8.894  0.1268 -0.0459  0.3442
  162MOL0     C21789   6.434   4.658   8.658 -1.0273  0.0040  0.5813
  162MOL0     C21790   6.428   4.677   8.520 -0.4593  0.1131 -0.7159
  162MOL0     C21791   6.317   4.623   8.454  0.2591 -0.2012 -0.5011
  162MOL0     C21792   6.223   4.545   8.527 -0.6376 -0.2349  0.3891
  162MOL0     O21793   6.115   4.501   8.455  0.4323  0.5589 -0.3019
  162MOL0     C21794   6.026   4.401   8.513  0.4586 -0.9429 -0.0149
  162MOL0     C21795   5.915   4.368   8.405  0.1723  0.0425  0.2511
  162MOL0     C21796   5.835   4.261   8.468 -0.2322  0.1535  0.2138
  162MOL0     C21797   5.708   4.227   8.385  0.3611 -0.2351  0.3367
  162MOL0     C21798   5.604   4.325   8.432  0.2973 -0.0884  0.2175
  162MOL0     C21799   5.509   4.402   8.445  0.8204 -0.1489 -0.1756
  162MOL0     C21800   6.244   4.509   8.658 -0.2761  0.5112 -0.7976
  162MOL0     C21801   6.345   4.575   8.728 -0.1895 -0.0505  0.8300
  162MOL0     C21802   6.363   4.543   8.873  0.3088  1.2334 -0.3193
  162MOL0     H21803   6.865   4.817   8.680 -1.3074  1.3414  0.7158
  162MOL0     H21804   7.041   4.842   8.862  0.8829 -1.5661  2.0127
  162MOL0     H21805   7.048   4.901   9.053  1.6196  2.1495  1.4488
  162MOL0     H21806   7.080   4.838   9.215 -2.7252 -0.4119 -0.3941
  162MOL0     H21807   7.263   4.793   8.982  0.9899  3.5176 -1.1700
  162MOL0     H21808   7.316   4.785   9.148 -0.7110  0.2862  1.4457
  162MOL0     H21809   7.259   5.037   9.158  1.0875  1.0739 -0.3307
  162MOL0     H21810   7.278   5.032   8.977 -0.1644 -1.9498 -1.6481
  162MOL0     H21811   7.486   4.936   9.173 -1.7638  0.2776  0.8231
  162MOL0     H21812   7.492   4.904   8.999 -1.2217 -0.2969 -0.1112
  162MOL0     H21813   7.432   5.180   9.109 -3.0104 -2.6271 -1.1506
  162MOL0     H21814   7.604   5.137   9.084  0.5741  1.1178 -0.7506
  162MOL0     H21815   7.510   5.079   8.842  0.2077  0.6472 -0.9861
  162MOL0     H21816   7.390   5.210   8.898  0.3250  0.3884  0.1423
  162MOL0     H21817   7.583   5.314   8.781  3.7041 -0.8858 -1.1245
  162MOL0     H21818   7.700   5.239   8.887  0.6657 -0.7363  0.0486
  162MOL0     H21819   7.491   5.437   9.000 -0.0441  0.5678 -4.3983
  162MOL0     H21820   7.621   5.362   9.082 -1.0068 -0.5397 -0.0955
  162MOL0     H21821   7.548   5.623   8.800  0.7913  1.0311 -1.6438
  162MOL0     H21822   7.820   5.808   8.686  0.1018 -3.1851 -0.1689
  162MOL0     H21823   7.678   5.862   8.769  0.0281 -2.2567 -2.1097
  162MOL0     H21824   7.834   5.915   8.971 -1.3529 -0.6630 -0.2328
  162MOL0     H21825   7.970   5.870   8.877  0.3895  1.6812 -1.1509
  162MOL0     H21826   7.796   6.100   8.821 -0.6821 -1.7332  2.0312
  162MOL0     H21827   7.907   6.042   8.698 -3.2521 -1.8953 -0.0968
  162MOL0     H21828   8.018   6.212   8.838 -2.9458 -1.4232 -4.5682
  162MOL0     H21829   8.098   6.049   8.846  0.3542 -2.5724  0.9761
  162MOL0     H21830   8.221   6.222   8.958 -3.0841  2.7999 -0.3011
  162MOL0     H21831   8.381   6.341   9.129  0.5346 -0.6724 -0.8450
  162MOL0     H21832   8.585   6.340   9.552 -1.3185 -0.0219 -1.4235
  162MOL0     H21833   8.709   6.447   9.690 -1.4949  0.0298  0.5307
  162MOL0     H21834   8.874   6.869   9.562  1.7304  1.5878  1.7210
  162MOL0     H21835   8.736   6.931   9.642  2.1342  1.4834 -1.3278
  162MOL0     H21836   8.853   6.918   9.869 -1.5530  0.4725 -0.5832
  162MOL0     H21837   8.983   6.833   9.792 -2.0281 -0.7400  3.4563
  162MOL0     H21838   9.020   7.048   9.660 -3.6069 -0.2585 -2.0234
  162MOL0     H21839   8.888   7.119   9.735  0.7200  1.1015  2.3282
  162MOL0     H21840   9.000   7.085   9.969 -0.1535 -2.9065  0.2129
  162MOL0     H21841   9.065   7.208   9.860 -0.9791  0.2465 -1.9343
  162MOL0     H21842   9.250   7.071   9.788  3.4526 -1.4796  1.9107
  162MOL0     H21843   9.188   6.946   9.892 -1.3298 -1.1857 -1.0500
  162MOL0     H21844   9.220   7.092  10.096 -0.5935 -0.9609  0.5765
  162MOL0     H21845   9.364   7.045  10.003 -0.6190  0.4735 -0.9743
  162MOL0     H21846   9.336   7.289  10.092 -1.9877  0.0774 -0.0234
  162MOL0     H21847   9.240   7.317   9.950 -0.5440  0.7130  2.4460
  162MOL0     H21848   9.527   7.224   9.947  1.8602  0.2875 -3.0123
  162MOL0     H21849   9.409   7.255   9.809 -2.1784 -1.6377  0.9266
  162MOL0     H21850   8.638   6.819   9.461 -1.1076  1.0473  1.1626
  162MOL0     H21851   8.497   6.696   9.321  0.3302  3.2823  1.8745
  162MOL0     H21852   8.118   6.192   9.442  0.4291  1.1752  0.0799
  162MOL0     H21853   7.979   6.083   9.274  0.8244 -2.3608 -1.0204
  162MOL0     H21854   6.883   4.502   9.069  0.1656 -0.8662  0.4771
  162MOL0     H21855   6.698   4.488   8.910 -0.5335  0.3101 -0.8274
  162MOL0     H21856   6.500   4.738   8.466 -3.6799  4.0727 -1.0766
  162MOL0     H21857   6.308   4.632   8.346  0.2146  2.8954 -0.3376
  162MOL0     H21858   5.969   4.442   8.597  0.4660 -2.0939  0.5678
  162MOL0     H21859   6.081   4.308   8.529  0.1250 -1.1268  0.0814
  162MOL0     H21860   5.962   4.326   8.315  1.0719  0.8643  0.3221
  162MOL0     H21861   5.854   4.453   8.373  2.7572  1.7205 -0.4832
  162MOL0     H21862   5.813   4.281   8.574  0.4031 -1.4641  0.6834
  162MOL0     H21863   5.910   4.182   8.474  0.2261  0.6753  3.9291
  162MOL0     H21864   5.726   4.219   8.277  1.2684 -1.4484  0.5524
  162MOL0     H21865   5.685   4.124   8.412 -2.4294  0.3025  0.3021
  162MOL0     H21866   5.423   4.455   8.480  0.2827 -2.8652  3.2475
  162MOL0     H21867   6.174   4.440   8.704 -1.4024  0.7039 -2.1689
  162MOL0     H21868   6.335   4.625   8.940 -2.2556 -0.2291  0.5431
  162MOL0     H21869   6.300   4.463   8.912  1.2098  0.8587  0.3934
  162MOL0     H21870   6.468   4.519   8.891  0.5997  0.5208 -2.6249
  163MOL0     O21871   2.720   9.092   3.262  0.4292 -0.6100 -0.2820
  163MOL0     C21872   2.751   9.026   3.353  0.5362  1.3481  0.0770
  163MOL0     O21873   2.868   8.952   3.362  0.5303  0.7519 -0.2497
  163MOL0     C21874   2.957   8.962   3.257  0.0694  0.0351 -0.1185
  163MOL0     C21875   3.083   9.013   3.275 -0.4058 -0.2161  0.2350
  163MOL0     C21876   3.176   9.021   3.171 -0.1032  0.1905  1.3838
  163MOL0     C21877   3.140   8.962   3.054  0.6719  0.3325  0.7649
  163MOL0     O21878   3.233   8.961   2.944 -0.1759 -0.6695  0.0533
  163MOL0     C21879   3.365   8.900   2.972 -0.1307  0.2129 -0.4131
  163MOL0     C21880   3.433   8.848   2.845  0.0966 -0.2170 -0.3391
  163MOL0     C21881   3.469   8.964   2.753  0.5421 -0.1611 -0.1357
  163MOL0     C21882   3.513   8.907   2.617  0.5562 -0.5708  0.2906
  163MOL0     C21883   3.644   8.843   2.607 -0.2807  0.4752 -0.5347
  163MOL0     C21884   3.760   8.917   2.675 -0.1971  0.2039  0.3349
  163MOL0     C21885   3.884   8.827   2.702  0.5759  0.4463 -0.2876
  163MOL0     C21886   3.850   8.721   2.806  0.2120  0.4108  0.4746
  163MOL0     N21887   3.975   8.647   2.828  0.5182  0.5042  0.2829
  163MOL0     C21888   4.032   8.557   2.739 -0.2552 -0.5186  0.0562
  163MOL0     C21889   4.129   8.495   2.813 -0.1309  0.1612 -0.3045
  163MOL0     C21890   4.235   8.403   2.758  0.1595 -0.5070  0.3073
  163MOL0     C21891   4.375   8.461   2.792  0.4244 -0.4815 -0.4049
  163MOL0     C21892   4.416   8.586   2.717  0.1479 -0.3630 -0.8019
  163MOL0     C21893   4.567   8.604   2.750  0.6766  1.2339 -0.2806
  163MOL0     O21894   4.643   8.522   2.664  0.6476  0.5390 -0.9347
  163MOL0     C21895   4.777   8.534   2.687  0.6447  0.1413  0.1484
  163MOL0     C21896   4.861   8.585   2.582 -0.7203  0.4995  0.4569
  163MOL0     C21897   5.006   8.590   2.604  0.1501 -1.1369  0.6488
  163MOL0     C21898   5.068   8.532   2.713  1.2302  0.6002 -0.2525
  163MOL0     C21899   5.213   8.527   2.727 -0.1026  0.6600 -0.4720
  163MOL0     O21900   5.288   8.566   2.622 -0.1015 -0.3303  0.6554
  163MOL0     C21901   5.423   8.562   2.636 -0.6505  0.6053 -0.3864
  163MOL0     C21902   5.503   8.617   2.748 -0.4177  0.3123 -0.0872
  163MOL0     C21903   5.643   8.616   2.735  0.7743 -0.1322  0.2825
  163MOL0     C21904   5.698   8.570   2.621 -0.2124  0.0757 -0.2638
  163MOL0     O21905   5.835   8.566   2.589 -0.5571  0.2717 -0.6928
  163MOL0     C21906   5.913   8.548   2.711 -0.5967 -0.6084  0.2104
  163MOL0     C21907   6.039   8.484   2.668 -0.0458 -0.0720  0.8949
  163MOL0     C21908   6.130   8.472   2.789 -0.4926  0.4233 -0.0078
  163MOL0     C21909   6.278   8.439   2.755 -0.7952  0.5378 -0.4873
  163MOL0     C21910   6.347   8.388   2.879 -1.2644  0.1522 -0.5728
  163MOL0     C21911   6.492   8.339   2.856  0.0933  0.7947  0.7051
  163MOL0     C21912   6.591   8.459   2.891  0.1159  0.5312 -0.1032
  163MOL0     C21913   6.709   8.472   2.797  0.1958 -0.3864  0.3668
  163MOL0    Cl21914   6.674   8.499   2.625  0.4241  0.5101 -0.1439
  163MOL0     C21915   5.620   8.528   2.515 -0.8162  0.6782 -0.9338
  163MOL0     C21916   5.485   8.527   2.520 -0.6476  0.0689  0.9200
  163MOL0     O21917   5.262   8.485   2.839  0.6731 -0.4274 -0.2444
  163MOL0     C21918   4.977   8.471   2.810  0.3951  0.0690 -0.3988
  163MOL0     C21919   4.837   8.474   2.800 -0.0237 -0.0049  0.2615
  163MOL0     N21920   4.131   8.546   2.943 -0.6449 -0.3370 -0.1017
  163MOL0     N21921   4.024   8.621   2.951 -0.0619  0.1182  0.7233
  163MOL0     C21922   3.006   8.912   3.031  0.2651 -0.6800 -0.3843
  163MOL0     C21923   2.913   8.914   3.133 -0.9147  0.1996 -0.7587
  163MOL0     C21924   2.663   9.012   3.481 -0.2926 -0.8023 -0.2298
  163MOL0     C21925   2.726   9.013   3.608  0.1361 -0.3098 -0.1846
  163MOL0     C21926   2.644   8.996   3.720  0.3145  0.0294  0.5652
  163MOL0     C21927   2.506   8.983   3.714 -0.0560  0.7583  0.9192
  163MOL0     O21928   2.442   8.983   3.836 -0.2378 -0.0452  0.3599
  163MOL0     C21929   2.310   8.932   3.842  0.1197  0.4500 -0.0656
  163MOL0     C21930   2.256   8.958   3.987 -0.2182 -0.0823  0.3809
  163MOL0     C21931   2.118   8.902   4.008  0.5205 -0.0368 -0.7657
  163MOL0     C21932   2.006   8.984   3.942 -0.0836  0.1462  0.1981
  163MOL0     C21933   1.881   8.940   3.997  0.3554  0.3974 -0.5661
  163MOL0     C21934   1.786   8.884   4.049  0.2284  0.4205 -0.8536
  163MOL0     C21935   2.454   8.966   3.587 -0.4185  0.0599  0.0626
  163MOL0     C21936   2.521   8.991   3.469  0.4767 -0.0207 -0.2300
  163MOL0     C21937   2.446   8.980   3.330 -0.3572 -0.4404 -0.7409
  163MOL0     H21938   3.104   9.040   3.378 -4.5184  2.5985  0.5833
  163MOL0     H21939   3.277   9.059   3.179  0.3729 -0.3796 -1.0550
  163MOL0     H21940   3.433   8.962   3.032  0.9087 -0.7592 -0.5624
  163MOL0     H21941   3.350   8.816   3.041 -0.3726  0.0177 -0.7034
  163MOL0     H21942   3.361   8.784   2.795 -1.0224  0.4870  0.3217
  163MOL0     H21943   3.523   8.788   2.861  0.6336  0.8367  0.7921
  163MOL0     H21944   3.543   9.035   2.791 -2.0251  3.3408 -1.1099
  163MOL0     H21945   3.374   9.018   2.743 -0.0054 -0.9357  0.7435
  163MOL0     H21946   3.429   8.842   2.589 -0.7838 -0.7105  3.9917
  163MOL0     H21947   3.528   8.985   2.543  0.6171  0.3199  1.2265
  163MOL0     H21948   3.633   8.747   2.659  0.6975  0.5733 -0.1298
  163MOL0     H21949   3.677   8.829   2.504  0.5929  2.8765 -0.6386
  163MOL0     H21950   3.790   9.006   2.619  1.1651 -0.3145  0.2219
  163MOL0     H21951   3.728   8.949   2.775 -0.9512  1.0938 -0.1789
  163MOL0     H21952   3.971   8.886   2.734  0.4759 -0.3318  1.5944
  163MOL0     H21953   3.904   8.777   2.607 -1.3878  1.0206 -1.0377
  163MOL0     H21954   3.826   8.779   2.896  0.6784  1.9586 -0.3593
  163MOL0     H21955   3.768   8.651   2.785  1.3097 -0.7612 -0.0364
  163MOL0     H21956   4.015   8.544   2.633 -1.1679  1.0182 -0.0288
  163MOL0     H21957   4.219   8.305   2.806 -1.0822  0.1334  1.2661
  163MOL0     H21958   4.224   8.395   2.650  0.2209  1.3009  0.1443
  163MOL0     H21959   4.373   8.471   2.900  0.2044 -1.1038 -0.3490
  163MOL0     H21960   4.445   8.380   2.771 -2.3967 -3.7425  1.7746
  163MOL0     H21961   4.366   8.678   2.750  2.7918  0.9900 -0.2831
  163MOL0     H21962   4.404   8.578   2.608 -2.1052  1.8375 -0.8117
  163MOL0     H21963   4.593   8.563   2.848  0.7362  1.8507 -0.0336
  163MOL0     H21964   4.592   8.710   2.740  0.3491  1.3092 -0.3194
  163MOL0     H21965   4.818   8.621   2.488  0.5968 -1.6001 -1.0142
  163MOL0     H21966   5.069   8.630   2.526  1.6298 -0.7953  1.9687
  163MOL0     H21967   5.470   8.661   2.841 -0.1099  2.4032 -0.9123
  163MOL0     H21968   5.698   8.658   2.819  0.9673 -1.7809  1.0243
  163MOL0     H21969   5.927   8.649   2.751  1.9923 -0.5267 -0.7341
  163MOL0     H21970   5.859   8.483   2.781 -0.3123  0.3920  1.3893
  163MOL0     H21971   6.020   8.388   2.619  0.6444 -0.8481  2.0874
  163MOL0     H21972   6.087   8.552   2.598 -3.9574  2.5334  0.4267
  163MOL0     H21973   6.151   8.567   2.839  0.9609 -0.0232  0.2632
  163MOL0     H21974   6.079   8.401   2.856 -0.6495 -1.3333 -1.8906
  163MOL0     H21975   6.328   8.535   2.742  1.6963 -0.4997  0.8068
  163MOL0     H21976   6.289   8.369   2.671  2.0017 -0.4848  0.6047
  163MOL0     H21977   6.294   8.297   2.907 -1.1998  0.9249  2.3234
  163MOL0     H21978   6.345   8.456   2.965 -1.5011 -0.7151  0.1146
  163MOL0     H21979   6.510   8.247   2.912 -0.8236  0.3610  0.3146
  163MOL0     H21980   6.504   8.310   2.751  0.3960 -2.1169  1.4509
  163MOL0     H21981   6.617   8.468   2.997 -2.1124  0.5543  0.4911
  163MOL0     H21982   6.537   8.554   2.882  0.2264  0.3756 -5.7342
  163MOL0     H21983   6.753   8.567   2.832 -0.9793 -0.0393  0.9440
  163MOL0     H21984   6.786   8.394   2.805 -0.6705 -1.3222 -0.2583
  163MOL0     H21985   5.667   8.496   2.423  3.9226  1.7313  0.8077
  163MOL0     H21986   5.432   8.505   2.428  0.2682  0.8891  0.1665
  163MOL0     H21987   5.010   8.430   2.905 -0.3459  0.1047 -0.1184
  163MOL0     H21988   4.783   8.429   2.883  0.5492 -1.0603  0.0856
  163MOL0     H21989   2.974   8.873   2.935  1.8236 -0.8220 -0.8674
  163MOL0     H21990   2.815   8.870   3.116  0.3224 -3.7616  1.2814
  163MOL0     H21991   2.834   9.018   3.617  0.1872 -1.8696  0.4082
  163MOL0     H21992   2.687   8.986   3.820 -0.4427  0.0764  0.9040
  163MOL0     H21993   2.300   8.825   3.820  2.4223 -0.2080  1.6835
  163MOL0     H21994   2.252   8.996   3.774 -0.6302  0.1887  0.3186
  163MOL0     H21995   2.247   9.067   3.995 -2.6682 -0.1150 -0.7811
  163MOL0     H21996   2.330   8.931   4.063  0.2101 -1.5486 -0.5261
  163MOL0     H21997   2.103   8.899   4.116  2.1858  1.1430 -0.4555
  163MOL0     H21998   2.122   8.798   3.974  2.0758 -0.7383  1.3331
  163MOL0     H21999   2.014   9.090   3.964  1.6001  0.2432 -0.6630
  163MOL0     H22000   2.024   8.978   3.834  1.2219 -0.9362  0.4438
  163MOL0     H22001   1.716   8.819   4.098  1.5076  0.6802  1.4736
  163MOL0     H22002   2.346   8.960   3.574 -0.1138 -0.4116 -2.9925
  163MOL0     H22003   2.511   8.942   3.250 -1.6901 -1.7097 -1.2831
  163MOL0     H22004   2.368   8.907   3.357 -1.0749  0.6295  0.1760
  163MOL0     H22005   2.392   9.070   3.301 -0.1435  0.1224  0.5495
  164MOL0     O22006  10.764   2.167  11.056 -0.5436  0.0991 -0.1782
  164MOL0     C22007  10.843   2.138  11.150  0.3700 -0.4036  0.6459
  164MOL0     O22008  10.814   2.160  11.283 -0.0878  0.1533 -0.7485
  164MOL0     C22009  10.731   2.270  11.313  0.8575 -0.2448  0.2683
  164MOL0     C22010  10.598   2.299  11.273  0.4995 -0.0389 -0.6230
  164MOL0     C22011  10.528   2.405  11.322  0.9872 -0.1900 -0.2741
  164MOL0     C22012  10.583   2.492  11.420  0.9792  0.5829  0.5679
  164MOL0     O22013  10.510   2.595  11.469  0.1142 -0.4605  0.2762
  164MOL0     C22014  10.484   2.688  11.368 -0.0123  0.1490 -0.1403
  164MOL0     C22015  10.420   2.820  11.420  0.2897  1.4381 -0.4721
  164MOL0     C22016  10.499   2.894  11.530  0.4729  0.0339 -0.3112
  164MOL0     C22017  10.419   3.016  11.560 -0.4132  0.9342  0.0289
  164MOL0     C22018  10.496   3.120  11.647  0.0751  0.5756  0.0807
  164MOL0     C22019  10.429   3.256  11.688 -0.2775 -0.3594 -0.6027
  164MOL0     C22020  10.525   3.354  11.761 -0.1627  0.1596  1.1226
  164MOL0     C22021  10.545   3.330  11.912  0.2680  0.5185 -0.2841
  164MOL0     N22022  10.669   3.397  11.964 -0.0543  0.3569  0.2956
  164MOL0     C22023  10.720   3.509  11.908 -0.7239 -0.3421 -0.1011
  164MOL0     C22024  10.850   3.514  11.927  0.1320 -0.5137  0.7145
  164MOL0     C22025  10.944   3.618  11.892  0.1447 -0.1398 -0.1319
  164MOL0     C22026  11.097   3.574  11.906  0.9931 -0.3732 -0.6305
  164MOL0     C22027  11.172   3.636  11.790 -0.2906 -0.6829 -0.0925
  164MOL0     C22028  11.316   3.587  11.781  0.9750 -0.5474 -0.4302
  164MOL0     O22029  11.382   3.631  11.892 -0.1689 -0.5327  0.1527
  164MOL0     C22030  11.510   3.612  11.903 -0.1190 -0.0247 -0.8478
  164MOL0     C22031  11.583   3.529  11.816 -0.9282 -0.5279  0.0026
  164MOL0     C22032  11.719   3.511  11.836  0.6818 -0.1304  1.1635
  164MOL0     C22033  11.788   3.562  11.951 -0.5480  0.2806 -0.1927
  164MOL0     C22034  11.931   3.534  11.966  0.4947 -0.2621  0.5454
  164MOL0     O22035  12.010   3.624  12.047  0.5021  0.4319  0.0523
  164MOL0     C22036  12.141   3.608  12.044 -0.3600  0.1990 -0.3751
  164MOL0     C22037  12.206   3.501  12.103  0.3482 -0.4723 -0.4849
  164MOL0     C22038  12.349   3.493  12.116  1.0373  0.2481 -0.3935
  164MOL0     C22039  12.428   3.605  12.070  0.2723 -0.0587  0.4855
  164MOL0     O22040  12.558   3.589  12.075 -0.1601  0.3348  0.5579
  164MOL0     C22041  12.630   3.680  12.155  0.4807  0.2554  0.0252
  164MOL0     C22042  12.773   3.687  12.112  0.5008  0.4994  0.1440
  164MOL0     C22043  12.847   3.561  12.078 -0.0317  0.2486 -0.3264
  164MOL0     C22044  12.987   3.582  12.132  0.3702 -0.0662  0.0147
  164MOL0     C22045  13.080   3.474  12.083 -0.4190  0.5461 -0.6934
  164MOL0     C22046  13.132   3.508  11.940 -0.2034  0.1870  0.2324
  164MOL0     C22047  13.229   3.405  11.886  0.5422 -0.6918 -0.5369
  164MOL0     C22048  13.270   3.436  11.744 -0.1105  0.1218  0.5571
  164MOL0    Cl22049  13.396   3.565  11.747  0.3701 -0.8095 -0.1269
  164MOL0     C22050  12.355   3.711  12.011  0.2900  0.5065 -0.2215
  164MOL0     C22051  12.212   3.721  12.011 -0.7506  0.7420  0.0834
  164MOL0     O22052  11.977   3.433  11.912 -0.0879  0.7413  0.0898
  164MOL0     C22053  11.715   3.646  12.039 -1.4506 -0.0553  0.3263
  164MOL0     C22054  11.576   3.673  12.018  0.7848 -0.6641  0.7763
  164MOL0     N22055  10.883   3.403  12.003  0.1046 -0.6982  0.2841
  164MOL0     N22056  10.777   3.345  12.031  0.4469  1.2038  1.0249
  164MOL0     C22057  10.710   2.471  11.463 -0.2203  0.4779 -0.8107
  164MOL0     C22058  10.786   2.357  11.416  0.2439 -0.5892 -0.1011
  164MOL0     C22059  10.964   2.062  11.112 -0.8568 -0.2986  0.0572
  164MOL0     C22060  10.991   1.944  11.185 -0.1902 -1.0854 -0.3029
  164MOL0     C22061  11.114   1.881  11.170  0.2613  0.2270  0.1663
  164MOL0     C22062  11.200   1.910  11.070 -0.6940 -0.4763  0.5105
  164MOL0     O22063  11.314   1.836  11.038  0.7810  0.1328  0.0838
  164MOL0     C22064  11.338   1.708  11.104  0.3569  0.2234  0.3459
  164MOL0     C22065  11.466   1.635  11.043  0.9253  0.0418  1.2310
  164MOL0     C22066  11.457   1.485  11.065 -0.4779 -0.2547 -0.0267
  164MOL0     C22067  11.500   1.442  11.208  0.5656 -0.0001  0.0271
  164MOL0     C22068  11.383   1.438  11.297  0.8486  0.9091  0.4827
  164MOL0     C22069  11.294   1.424  11.383 -0.5520  0.5350 -0.0147
  164MOL0     C22070  11.163   2.013  10.982  0.5062 -0.0034  0.1525
  164MOL0     C22071  11.047   2.089  10.999  0.4968 -0.6904 -0.2284
  164MOL0     C22072  11.019   2.215  10.921 -0.1693 -0.6329  0.8378
  164MOL0     H22073  10.560   2.236  11.192  2.4830  1.7150 -3.1044
  164MOL0     H22074  10.425   2.417  11.288 -0.1435  0.0893  2.9002
  164MOL0     H22075  10.575   2.713  11.313  0.5704  0.1847  0.8171
  164MOL0     H22076  10.418   2.635  11.299  0.1492  0.5267 -0.5935
  164MOL0     H22077  10.325   2.803  11.472  1.5279  3.9620  3.0785
  164MOL0     H22078  10.386   2.885  11.339 -0.4594  0.4467 -0.9640
  164MOL0     H22079  10.593   2.929  11.487 -0.5040  1.8542 -1.1008
  164MOL0     H22080  10.519   2.838  11.621 -0.7520  3.6516  2.4187
  164MOL0     H22081  10.396   3.064  11.464 -0.5878  1.6220  0.4057
  164MOL0     H22082  10.327   2.992  11.613 -0.8943 -1.7633 -1.8460
  164MOL0     H22083  10.540   3.078  11.739 -1.5995  1.2767  1.2610
  164MOL0     H22084  10.590   3.150  11.601 -0.2373  1.2255 -0.1399
  164MOL0     H22085  10.380   3.306  11.604 -2.5119 -2.1967 -0.4988
  164MOL0     H22086  10.348   3.231  11.758  0.6829  0.2102  0.7615
  164MOL0     H22087  10.466   3.443  11.740 -2.4527 -1.7289 -1.1241
  164MOL0     H22088  10.623   3.351  11.711 -0.1318  0.5632  1.1591
  164MOL0     H22089  10.456   3.378  11.955  0.4681  2.1341 -1.5618
  164MOL0     H22090  10.545   3.225  11.942  1.2073  0.5141 -0.2653
  164MOL0     H22091  10.660   3.581  11.853 -1.6025  1.0005  2.4154
  164MOL0     H22092  10.927   3.627  11.784  2.3125  1.4363 -0.4228
  164MOL0     H22093  10.922   3.710  11.946  1.4041  0.4875 -0.6486
  164MOL0     H22094  11.131   3.623  11.998  2.2520 -0.4797 -1.0257
  164MOL0     H22095  11.112   3.466  11.917  1.5601 -0.2646 -0.2834
  164MOL0     H22096  11.169   3.745  11.794  3.6336 -0.3393 -1.7312
  164MOL0     H22097  11.122   3.611  11.696  1.5619 -0.0198 -1.3149
  164MOL0     H22098  11.348   3.624  11.683 -4.1961  1.0894 -1.8034
  164MOL0     H22099  11.315   3.477  11.782  0.2427 -0.5864  2.1123
  164MOL0     H22100  11.539   3.489  11.725 -1.0610  2.3991 -1.3372
  164MOL0     H22101  11.769   3.447  11.764 -1.0549  2.1003 -2.2406
  164MOL0     H22102  12.153   3.424  12.158  0.7943 -0.9746 -0.7377
  164MOL0     H22103  12.383   3.402  12.164 -2.9723 -0.0612  2.4444
  164MOL0     H22104  12.589   3.781  12.140  0.9087  0.0659 -3.2504
  164MOL0     H22105  12.634   3.651  12.260  2.9111 -2.4992 -0.6935
  164MOL0     H22106  12.784   3.759  12.030 -1.3987 -2.0602 -2.6211
  164MOL0     H22107  12.812   3.734  12.202  2.0331 -1.1685  0.4227
  164MOL0     H22108  12.800   3.473  12.123  0.2691  0.6096  0.7317
  164MOL0     H22109  12.844   3.536  11.972 -1.0278 -3.5820  0.4583
  164MOL0     H22110  12.976   3.595  12.241  0.0004  2.4634 -0.2417
  164MOL0     H22111  13.024   3.677  12.092  1.6590 -1.2615 -1.7629
  164MOL0     H22112  13.043   3.371  12.088  1.0465  0.0573  1.7398
  164MOL0     H22113  13.171   3.484  12.143 -2.2068 -1.4420  2.7041
  164MOL0     H22114  13.045   3.528  11.876 -2.2117  0.2708  2.8102
  164MOL0     H22115  13.185   3.603  11.944 -1.8853  1.2575 -1.2099
  164MOL0     H22116  13.185   3.306  11.901 -1.6885  0.5514  2.0646
  164MOL0     H22117  13.317   3.396  11.951 -1.3711 -3.3780  1.9155
  164MOL0     H22118  13.310   3.348  11.692 -2.4460  0.8438 -2.8241
  164MOL0     H22119  13.185   3.459  11.680  0.9341  1.6561 -0.3676
  164MOL0     H22120  12.408   3.803  11.989  1.4856  0.6564  2.7955
  164MOL0     H22121  12.164   3.813  11.980 -0.1155  1.1843  0.3810
  164MOL0     H22122  11.760   3.676  12.133  2.3337 -1.7617 -0.7641
  164MOL0     H22123  11.522   3.733  12.090 -0.7173 -0.7478 -0.2232
  164MOL0     H22124  10.753   2.529  11.544 -0.8549  1.4564 -1.1687
  164MOL0     H22125  10.883   2.340  11.463  0.3802  1.4819  0.4376
  164MOL0     H22126  10.928   1.916  11.268 -1.1279  1.5315 -0.0334
  164MOL0     H22127  11.139   1.797  11.234 -0.4376  2.4499  3.6176
  164MOL0     H22128  11.252   1.642  11.089  1.0893 -0.3290 -1.6025
  164MOL0     H22129  11.354   1.729  11.210 -1.4556 -0.2984  0.7556
  164MOL0     H22130  11.551   1.681  11.093  0.5889  2.7654 -0.4802
  164MOL0     H22131  11.469   1.659  10.936 -0.6158 -0.3052  1.0850
  164MOL0     H22132  11.528   1.431  11.001  0.0392 -0.6000  0.8185
  164MOL0     H22133  11.358   1.450  11.033  0.8332 -1.2986 -3.3451
  164MOL0     H22134  11.533   1.339  11.187 -0.3844  0.1347 -2.4325
  164MOL0     H22135  11.584   1.507  11.236  0.6417 -1.0642  2.5785
  164MOL0     H22136  11.216   1.419  11.457  0.8256  1.5410  1.6062
  164MOL0     H22137  11.241   2.028  10.908 -0.4569 -2.3953 -1.4735
  164MOL0     H22138  11.023   2.189  10.815  2.4663 -4.3006  1.6518
  164MOL0     H22139  10.929   2.269  10.953  0.9940  0.2772  2.8062
  164MOL0     H22140  11.100   2.283  10.949  0.0971 -1.2885  1.7137
  165MOL0     O22141  11.020   1.280   0.741 -0.1782  0.8941 -0.1880
  165MOL0     C22142  11.000   1.293   0.628 -0.4378  0.0220  0.9660
  165MOL0     O22143  11.087   1.250   0.534 -0.2105 -0.4998 -0.3195
  165MOL0     C22144  11.205   1.191   0.580  0.0783  0.4626  0.1716
  165MOL0     C22145  11.323   1.264   0.561  0.2853  0.6327  0.0855
  165MOL0     C22146  11.440   1.208   0.617 -0.7812 -0.7553 -0.0175
  165MOL0     C22147  11.452   1.080   0.658  0.2908 -0.7226  0.4659
  165MOL0     O22148  11.577   1.057   0.701 -0.3293 -0.4569  0.0433
  165MOL0     C22149  11.609   0.941   0.779  0.8046 -0.4833  0.0969
  165MOL0     C22150  11.629   0.972   0.922  0.4863  0.3151 -0.3766
  165MOL0     C22151  11.758   1.046   0.941 -0.3088  0.2645 -0.0056
  165MOL0     C22152  11.893   0.968   0.947 -0.1830  0.0536  0.7468
  165MOL0     C22153  12.014   1.027   0.877 -0.0495  0.1046 -0.4854
  165MOL0     C22154  12.151   0.968   0.919 -0.1164 -0.4221 -0.0105
  165MOL0     C22155  12.269   1.057   0.881 -0.0273  0.9991  0.4829
  165MOL0     C22156  12.397   0.988   0.923  0.3786  0.1677  0.5810
  165MOL0     N22157  12.507   1.055   0.865  0.0375 -0.1542 -0.2220
  165MOL0     C22158  12.545   1.180   0.886  0.2643  0.6187 -0.3076
  165MOL0     C22159  12.648   1.193   0.800  0.1877  0.7311  0.2636
  165MOL0     C22160  12.691   1.333   0.762 -0.2043 -0.9376  0.1828
  165MOL0     C22161  12.822   1.384   0.821  0.3103  0.6357 -0.5141
  165MOL0     C22162  12.860   1.528   0.780  0.0291 -0.0313  0.6750
  165MOL0     C22163  13.019   1.548   0.782  0.0082 -0.3960 -0.7454
  165MOL0     O22164  13.081   1.521   0.906  0.3265  0.6031  0.0165
  165MOL0     C22165  13.213   1.559   0.916 -0.5912  0.1709  0.0947
  165MOL0     C22166  13.314   1.500   0.841 -0.1865  0.0838  0.4083
  165MOL0     C22167  13.440   1.557   0.844  0.2773 -0.6515  0.1961
  165MOL0     C22168  13.475   1.662   0.931  0.1497 -0.3888  0.7574
  165MOL0     C22169  13.610   1.714   0.948 -1.3362 -0.2453  0.5758
  165MOL0     O22170  13.645   1.773   1.071 -0.3076  0.0517  0.0788
  165MOL0     C22171  13.780   1.797   1.081  0.3833  0.5738 -0.1503
  165MOL0     C22172  13.849   1.735   1.181 -0.0247  0.2706  0.0950
  165MOL0     C22173  13.984   1.753   1.196 -0.1210  0.2497 -0.1328
  165MOL0     C22174  14.061   1.852   1.125  0.2767 -0.3865  0.1454
  165MOL0     O22175  14.191   1.857   1.145 -0.7191  0.6780  0.8019
  165MOL0     C22176  14.267   1.934   1.050  0.6910 -0.4341  0.3447
  165MOL0     C22177  14.419   1.924   1.076  0.0916  0.4625  0.6153
  165MOL0     C22178  14.494   1.995   0.959 -0.3261 -0.8039  0.4862
  165MOL0     C22179  14.645   1.969   0.974  0.3975  0.4619 -0.3409
  165MOL0     C22180  14.710   2.041   0.856  0.3484  0.4575 -0.1680
  165MOL0     C22181  14.852   1.994   0.852 -0.5738  0.0785  0.2320
  165MOL0     C22182  14.916   2.029   0.717  0.2754 -0.4575  0.7887
  165MOL0     C22183  15.047   1.963   0.698 -0.1717  0.4582 -0.3775
  165MOL0    Cl22184  15.123   1.937   0.528 -0.2013  0.4701  0.1902
  165MOL0     C22185  13.986   1.931   1.032 -0.5127 -0.1738 -1.0094
  165MOL0     C22186  13.850   1.894   1.003 -0.0024 -0.2823 -1.0767
  165MOL0     O22187  13.691   1.693   0.852  0.2706  1.0080 -0.2301
  165MOL0     C22188  13.374   1.712   1.015  0.4756  0.9151  0.4273
  165MOL0     C22189  13.239   1.663   1.000 -0.3876  1.2638 -0.0243
  165MOL0     N22190  12.676   1.084   0.730  0.9545 -0.0034  0.2288
  165MOL0     N22191  12.593   0.996   0.777 -0.0948 -0.0019 -0.0699
  165MOL0     C22192  11.333   0.997   0.674 -0.2642  0.5286 -0.1861
  165MOL0     C22193  11.210   1.054   0.626 -0.5565  0.0791  0.1950
  165MOL0     C22194  10.886   1.367   0.585  0.6597  0.2829 -0.2653
  165MOL0     C22195  10.881   1.397   0.453 -0.1203  0.5295 -0.2763
  165MOL0     C22196  10.786   1.484   0.397  0.3372 -0.2601  0.2807
  165MOL0     C22197  10.672   1.527   0.476  0.9705  0.0770 -0.8363
  165MOL0     O22198  10.570   1.602   0.422 -0.2623  0.3277 -1.0868
  165MOL0     C22199  10.572   1.640   0.282  0.4127 -0.8171 -0.2783
  165MOL0     C22200  10.540   1.522   0.185 -1.0753 -0.4138 -0.2034
  165MOL0     C22201  10.559   1.548   0.038  0.2634  0.7412 -0.6614
  165MOL0     C22202  10.637   1.441  -0.040 -0.2295  0.1788  0.3622
  165MOL0     C22203  10.778   1.446  -0.015  0.5159 -0.5700 -0.2386
  165MOL0     C22204  10.882   1.510  -0.005 -0.0626  1.4031 -0.1924
  165MOL0     C22205  10.671   1.504   0.612 -0.4012  0.7934  0.1711
  165MOL0     C22206  10.781   1.428   0.669 -0.7758 -0.2360 -0.4457
  165MOL0     C22207  10.778   1.420   0.822 -1.1337 -0.3198  0.7503
  165MOL0     H22208  11.306   1.363   0.521 -1.4355  0.7973  1.1246
  165MOL0     H22209  11.525   1.275   0.604 -0.9796  0.0844  2.4874
  165MOL0     H22210  11.534   0.865   0.759 -1.4597  1.9103 -1.1117
  165MOL0     H22211  11.702   0.893   0.747  1.5262  0.3141  0.9369
  165MOL0     H22212  11.647   0.885   0.985  2.2945  2.5673  2.4961
  165MOL0     H22213  11.548   1.031   0.965 -0.1419  0.0522 -1.1803
  165MOL0     H22214  11.749   1.082   1.043 -0.7564 -0.7007  0.3115
  165MOL0     H22215  11.768   1.129   0.871  2.2658  0.6076  0.7017
  165MOL0     H22216  11.922   0.952   1.052 -0.4991  0.2846  0.8707
  165MOL0     H22217  11.869   0.871   0.902 -0.1749 -0.3045  1.4939
  165MOL0     H22218  12.001   1.018   0.769  2.6400 -1.6257 -0.7593
  165MOL0     H22219  12.007   1.133   0.903 -2.3367 -0.6496  2.5746
  165MOL0     H22220  12.159   0.960   1.028  1.5277  3.0162  0.2804
  165MOL0     H22221  12.164   0.873   0.866 -1.3112  1.2421 -3.6736
  165MOL0     H22222  12.263   1.159   0.919  2.6187  1.6581 -0.6624
  165MOL0     H22223  12.279   1.065   0.772  1.0741 -1.2802  0.3668
  165MOL0     H22224  12.404   0.997   1.032 -0.3747  1.1704  0.5585
  165MOL0     H22225  12.395   0.883   0.890  0.5567  1.1099 -2.7527
  165MOL0     H22226  12.491   1.260   0.938 -0.8700 -1.3733  1.7803
  165MOL0     H22227  12.702   1.334   0.653  1.5460  0.9686  0.3070
  165MOL0     H22228  12.613   1.403   0.792  2.7817  2.8331 -0.0964
  165MOL0     H22229  12.809   1.386   0.930 -0.0098 -0.1543 -0.5294
  165MOL0     H22230  12.909   1.323   0.797  2.4484  2.7463  1.3847
  165MOL0     H22231  12.819   1.614   0.833  3.7805  3.5102 -1.5157
  165MOL0     H22232  12.830   1.534   0.675  3.0199  1.7776 -0.2140
  165MOL0     H22233  13.021   1.654   0.755  1.4674  0.2492  1.6145
  165MOL0     H22234  13.065   1.490   0.702 -2.0005 -1.1775 -1.4121
  165MOL0     H22235  13.288   1.421   0.771 -0.4903  1.0366 -0.5765
  165MOL0     H22236  13.510   1.522   0.769  0.7000  2.5001 -1.0390
  165MOL0     H22237  13.789   1.672   1.246 -1.5234  0.7142 -0.8152
  165MOL0     H22238  14.030   1.688   1.269 -2.0258 -0.2336  0.7010
  165MOL0     H22239  14.252   1.896   0.948  0.7696 -0.9278  0.5130
  165MOL0     H22240  14.235   2.038   1.037  3.2622  0.1585 -2.6886
  165MOL0     H22241  14.436   1.969   1.175 -2.6895  0.1990  1.2913
  165MOL0     H22242  14.451   1.820   1.079  0.3058  0.5266  0.6236
  165MOL0     H22243  14.454   1.968   0.862 -3.1798  1.9897  0.7059
  165MOL0     H22244  14.476   2.102   0.976 -1.0323 -1.4841  5.8416
  165MOL0     H22245  14.669   1.864   0.955 -3.0159 -0.2345 -1.3807
  165MOL0     H22246  14.686   2.014   1.066 -1.0314  1.4277 -0.1499
  165MOL0     H22247  14.702   2.149   0.864 -2.2350  0.3023  0.3065
  165MOL0     H22248  14.662   2.005   0.765  0.5051  2.4547 -1.0837
  165MOL0     H22249  14.900   2.037   0.941  2.1860  0.4454 -1.3270
  165MOL0     H22250  14.853   1.886   0.867  0.4813 -0.3203 -2.2274
  165MOL0     H22251  14.912   2.136   0.697  2.4767 -0.3971  0.4563
  165MOL0     H22252  14.864   1.978   0.634  0.0657  1.8367 -0.5834
  165MOL0     H22253  15.115   2.026   0.757  1.7053 -0.9565 -0.9315
  165MOL0     H22254  15.045   1.867   0.751 -0.7217  0.2750 -0.7314
  165MOL0     H22255  14.031   2.001   0.963  2.1415 -1.3014 -0.5648
  165MOL0     H22256  13.803   1.932   0.913 -2.1438 -0.7531 -0.2324
  165MOL0     H22257  13.396   1.792   1.086 -0.4320 -1.0711  3.1291
  165MOL0     H22258  13.156   1.701   1.059  0.5094  1.3248  1.2521
  165MOL0     H22259  11.337   0.892   0.699 -0.3452 -0.7616 -4.7158
  165MOL0     H22260  11.126   0.986   0.630 -0.0432 -0.7086 -1.6961
  165MOL0     H22261  10.949   1.348   0.383 -0.3690  3.0090 -2.4172
  165MOL0     H22262  10.790   1.500   0.290  0.4101  4.9780  0.7924
  165MOL0     H22263  10.668   1.683   0.254 -0.2651  1.1381  0.2630
  165MOL0     H22264  10.502   1.724   0.274 -0.3596 -0.9552  3.3039
  165MOL0     H22265  10.435   1.495   0.199 -1.7464  0.4847 -2.8879
  165MOL0     H22266  10.598   1.434   0.216  0.6452  1.3028  1.7201
  165MOL0     H22267  10.607   1.645   0.023  1.2034  0.0706 -2.1903
  165MOL0     H22268  10.459   1.566  -0.003  0.0892 -1.6722 -1.4296
  165MOL0     H22269  10.604   1.339  -0.015 -0.6512 -0.5520 -2.7912
  165MOL0     H22270  10.621   1.450  -0.147 -3.1751 -1.0443  0.5999
  165MOL0     H22271  10.961   1.583  -0.005  0.9663  0.3251  0.8059
  165MOL0     H22272  10.607   1.559   0.680 -0.4643  0.6362  0.2403
  165MOL0     H22273  10.881   1.442   0.853  0.0891 -3.1856 -0.8996
  165MOL0     H22274  10.699   1.483   0.864 -0.1866  1.3187  0.1768
  165MOL0     H22275  10.750   1.317   0.843 -1.2185 -0.8197 -1.5363
  166MOL0     O22276  11.159   7.360   2.515  0.3878  0.9523  0.8207
  166MOL0     C22277  11.080   7.271   2.545  0.1246  0.3113 -0.4177
  166MOL0     O22278  11.102   7.130   2.538  0.4598 -0.5057  0.2760
  166MOL0     C22279  11.214   7.091   2.458  0.2756  0.5486  0.2054
  166MOL0     C22280  11.320   6.996   2.511  1.0846 -0.8661  0.1806
  166MOL0     C22281  11.424   6.957   2.422  0.0323  0.7090 -0.6929
  166MOL0     C22282  11.416   6.978   2.282 -0.2352  0.2273 -0.8797
  166MOL0     O22283  11.510   6.925   2.197  0.6478 -0.3048 -0.0536
  166MOL0     C22284  11.623   6.995   2.193 -0.0834 -0.5625 -0.0171
  166MOL0     C22285  11.732   6.897   2.143 -0.4894  0.4584  0.7872
  166MOL0     C22286  11.782   6.804   2.263  0.1422  0.0099 -0.2825
  166MOL0     C22287  11.897   6.875   2.341  0.6376 -0.1637 -0.3434
  166MOL0     C22288  11.932   6.807   2.474  0.6300  0.0947 -0.0492
  166MOL0     C22289  11.990   6.661   2.461 -0.5940 -0.1052 -0.0954
  166MOL0     C22290  12.053   6.598   2.587 -0.2003  0.3661 -1.0412
  166MOL0     C22291  12.178   6.650   2.665 -0.1571 -0.0827  1.0370
  166MOL0     N22292  12.306   6.640   2.594 -0.8553 -0.0273 -0.0288
  166MOL0     C22293  12.338   6.524   2.519  0.0842 -0.1908 -0.5469
  166MOL0     C22294  12.458   6.556   2.463  0.5154 -1.0151  0.4372
  166MOL0     C22295  12.536   6.466   2.374  0.5164 -0.2217  0.0574
  166MOL0     C22296  12.686   6.485   2.396  0.8318  0.1891  0.1848
  166MOL0     C22297  12.743   6.347   2.367 -0.4906 -0.3912  0.9633
  166MOL0     C22298  12.899   6.367   2.380 -0.2540 -0.0022  0.1268
  166MOL0     O22299  12.955   6.242   2.373  0.1428  0.2994 -0.3605
  166MOL0     C22300  13.092   6.231   2.351 -0.5022  0.1657  0.6074
  166MOL0     C22301  13.140   6.102   2.359  1.0323 -0.1546  0.8186
  166MOL0     C22302  13.275   6.076   2.353 -0.2207 -0.5906 -0.4431
  166MOL0     C22303  13.370   6.182   2.358 -0.2642  0.4046 -0.4892
  166MOL0     C22304  13.519   6.159   2.379 -0.1122 -0.5629  0.3852
  166MOL0     O22305  13.590   6.273   2.408  0.0828 -0.5608  0.2390
  166MOL0     C22306  13.723   6.259   2.441  0.1367  0.3520  0.0276
  166MOL0     C22307  13.774   6.149   2.514 -0.0091 -0.5255  0.1676
  166MOL0     C22308  13.907   6.144   2.553  0.3079 -0.8019  0.4580
  166MOL0     C22309  14.001   6.235   2.496  0.1470 -0.1546  0.0299
  166MOL0     O22310  14.126   6.218   2.533  0.1943 -0.3212 -0.3196
  166MOL0     C22311  14.219   6.298   2.461 -0.2894 -0.3759 -0.3062
  166MOL0     C22312  14.354   6.273   2.527 -0.0881  0.3369 -0.5935
  166MOL0     C22313  14.414   6.132   2.519  0.1355 -0.0569  0.1048
  166MOL0     C22314  14.534   6.116   2.607  0.7529 -1.0235 -0.1402
  166MOL0     C22315  14.593   5.982   2.575 -1.2196  0.6525 -0.6862
  166MOL0     C22316  14.717   5.957   2.657  0.3380  0.1275  1.0651
  166MOL0     C22317  14.770   5.819   2.611  0.0616 -0.2919 -0.1073
  166MOL0     C22318  14.869   5.771   2.716  0.2071  1.1463  0.3197
  166MOL0    Cl22319  15.013   5.877   2.722 -0.0879  0.1456 -0.0571
  166MOL0     C22320  13.947   6.347   2.431  0.3704 -0.2290 -0.5361
  166MOL0     C22321  13.809   6.355   2.407  0.5354  0.0142  0.1515
  166MOL0     O22322  13.558   6.047   2.364 -0.0438 -0.0859 -0.0508
  166MOL0     C22323  13.322   6.315   2.356 -0.4994  0.7102 -0.8417
  166MOL0     C22324  13.180   6.338   2.352 -0.9281  0.6148 -0.5573
  166MOL0     N22325  12.502   6.681   2.504  0.1352 -0.7819  0.1298
  166MOL0     N22326  12.405   6.730   2.589 -0.0273 -0.0152  0.9608
  166MOL0     C22327  11.322   7.075   2.235 -0.2841  1.7311  1.1877
  166MOL0     C22328  11.225   7.120   2.324 -0.2661  0.0432  0.1990
  166MOL0     C22329  10.957   7.312   2.607  0.5855 -0.2070 -0.5355
  166MOL0     C22330  10.893   7.237   2.706 -0.6093 -0.5617  0.2084
  166MOL0     C22331  10.779   7.276   2.771 -0.3426  0.6699  0.3447
  166MOL0     C22332  10.709   7.388   2.729 -0.3592  1.1563  0.0952
  166MOL0     O22333  10.585   7.430   2.778 -0.3177  0.4947 -0.1778
  166MOL0     C22334  10.483   7.333   2.821  0.2054 -0.2266  1.2139
  166MOL0     C22335  10.356   7.410   2.876 -0.4602 -0.1658  0.0376
  166MOL0     C22336  10.307   7.533   2.800  0.4335  0.8732 -0.6123
  166MOL0     C22337  10.249   7.500   2.661 -0.4353 -0.1002  0.1820
  166MOL0     C22338  10.128   7.410   2.669 -0.8074  0.7049 -0.3404
  166MOL0     C22339  10.031   7.338   2.693  0.5446  0.1291 -0.1901
  166MOL0     C22340  10.769   7.464   2.629 -0.7794 -0.2496  0.2544
  166MOL0     C22341  10.889   7.432   2.575 -0.5890  0.1200  0.4004
  166MOL0     C22342  10.946   7.537   2.476  0.3986 -0.2948  0.2359
  166MOL0     H22343  11.319   6.966   2.615  1.6948 -1.0280  0.1445
  166MOL0     H22344  11.499   6.905   2.481 -3.5440 -0.4208  3.4353
  166MOL0     H22345  11.618   7.071   2.115 -0.1415  0.1117  0.6298
  166MOL0     H22346  11.655   7.036   2.289  2.1085 -0.3626 -0.7680
  166MOL0     H22347  11.818   6.951   2.103 -2.2079  1.3850 -1.8961
  166MOL0     H22348  11.681   6.842   2.064 -0.9311  1.7874  0.1280
  166MOL0     H22349  11.825   6.712   2.222  0.1504  0.5353 -1.5083
  166MOL0     H22350  11.697   6.779   2.327  0.5874 -3.0967 -0.7664
  166MOL0     H22351  11.984   6.877   2.274  1.2522  2.7662  0.3971
  166MOL0     H22352  11.880   6.981   2.362  2.2161  0.0301  0.1076
  166MOL0     H22353  12.005   6.870   2.526  0.2682  0.5291 -0.0578
  166MOL0     H22354  11.843   6.809   2.538 -1.0706  2.0527 -2.2893
  166MOL0     H22355  11.912   6.591   2.429 -1.9418  2.1859 -2.1514
  166MOL0     H22356  12.062   6.667   2.379 -2.0478 -1.4707 -1.5410
  166MOL0     H22357  12.069   6.492   2.569 -1.7454 -0.1973  0.5615
  166MOL0     H22358  11.978   6.593   2.667  0.5301 -2.0158 -0.4279
  166MOL0     H22359  12.168   6.756   2.687 -0.9907  0.2355 -0.6643
  166MOL0     H22360  12.191   6.594   2.758  2.0585 -0.5204  0.5143
  166MOL0     H22361  12.279   6.435   2.502 -0.6743  0.3160 -0.6361
  166MOL0     H22362  12.510   6.366   2.411 -4.1788  0.9570  0.6743
  166MOL0     H22363  12.508   6.471   2.268 -1.1723 -1.7653  0.3759
  166MOL0     H22364  12.736   6.558   2.331 -0.6357 -0.4144 -1.7222
  166MOL0     H22365  12.706   6.522   2.497 -0.5327  3.6228 -0.6724
  166MOL0     H22366  12.727   6.302   2.269 -1.8671 -0.6218  1.2715
  166MOL0     H22367  12.718   6.275   2.446 -0.2498 -1.0023  0.4876
  166MOL0     H22368  12.923   6.411   2.478 -1.9535  1.3930 -0.0336
  166MOL0     H22369  12.928   6.432   2.297 -0.2062  0.9213  0.8526
  166MOL0     H22370  13.068   6.021   2.368  1.9202 -0.8265  2.4862
  166MOL0     H22371  13.316   5.975   2.358 -0.3140 -0.6045  0.1746
  166MOL0     H22372  13.708   6.071   2.550  1.9938 -0.9392  3.2891
  166MOL0     H22373  13.932   6.048   2.595  2.1766  0.0644  1.4410
  166MOL0     H22374  14.218   6.269   2.355  0.7330  1.1759 -0.7749
  166MOL0     H22375  14.211   6.406   2.474 -0.1272 -0.4490  0.4484
  166MOL0     H22376  14.431   6.343   2.495  1.6198 -0.8263  0.7980
  166MOL0     H22377  14.347   6.306   2.631 -2.4429  2.9419 -1.4616
  166MOL0     H22378  14.326   6.073   2.546  1.3018 -2.3164 -0.7122
  166MOL0     H22379  14.443   6.126   2.413  2.7176 -0.0297  0.7563
  166MOL0     H22380  14.507   6.108   2.713 -0.4308  2.2908 -0.0687
  166MOL0     H22381  14.605   6.197   2.589 -1.0709  0.9477  1.0013
  166MOL0     H22382  14.630   5.997   2.473 -2.3280  3.4487 -0.7957
  166MOL0     H22383  14.529   5.894   2.575 -0.1173 -0.1714 -0.0972
  166MOL0     H22384  14.803   6.024   2.649  0.3607  0.1075  1.1481
  166MOL0     H22385  14.686   5.953   2.762 -2.4667  4.1156  0.6371
  166MOL0     H22386  14.819   5.827   2.513 -2.1534  0.6083 -1.2176
  166MOL0     H22387  14.693   5.744   2.592  1.6435 -1.8541 -0.5953
  166MOL0     H22388  14.825   5.772   2.816  0.4140  1.4519  0.4056
  166MOL0     H22389  14.909   5.671   2.694  0.4641  1.2948  0.1102
  166MOL0     H22390  13.993   6.441   2.402 -2.2887  2.3662  2.8827
  166MOL0     H22391  13.773   6.445   2.358 -0.0947  1.6693  3.3779
  166MOL0     H22392  13.394   6.395   2.369 -3.2615  3.1654  0.7706
  166MOL0     H22393  13.147   6.441   2.346 -1.1386  0.8121  2.5427
  166MOL0     H22394  11.324   7.101   2.130  0.8074 -0.8803  0.5093
  166MOL0     H22395  11.137   7.173   2.291  0.2798  0.6751 -0.2845
  166MOL0     H22396  10.926   7.138   2.733 -2.7705 -1.9679 -1.9062
  166MOL0     H22397  10.738   7.208   2.845 -1.9807 -1.3317 -2.1804
  166MOL0     H22398  10.527   7.262   2.891  0.5625 -1.2909 -0.0691
  166MOL0     H22399  10.456   7.268   2.737 -0.7539  0.6159  0.8458
  166MOL0     H22400  10.390   7.444   2.974  0.9154 -0.6700 -0.2499
  166MOL0     H22401  10.275   7.338   2.892 -0.4144  0.0178  1.1937
  166MOL0     H22402  10.385   7.609   2.791 -0.8324  2.4274  0.8029
  166MOL0     H22403  10.230   7.576   2.865 -0.0941  0.0420 -0.6691
  166MOL0     H22404  10.214   7.587   2.604 -1.9031 -0.7064  0.1167
  166MOL0     H22405  10.337   7.470   2.603 -0.5020 -0.3409  0.2048
  166MOL0     H22406   9.947   7.273   2.706 -0.7055  2.0102  1.9399
  166MOL0     H22407  10.719   7.541   2.572  1.0353 -0.2590 -1.4585
  166MOL0     H22408  10.859   7.586   2.432 -1.3404 -0.6577  2.9821
  166MOL0     H22409  10.992   7.615   2.537  0.3316  0.7986 -1.0653
  166MOL0     H22410  11.002   7.497   2.392 -1.3079 -3.6751  0.4881
  167MOL0     O22411   3.271   3.064   9.259  0.1437  0.0824 -0.1470
  167MOL0     C22412   3.309   3.081   9.376 -0.0149  0.2643 -0.5811
  167MOL0     O22413   3.287   3.194   9.446 -0.3822  0.1165 -0.3534
  167MOL0     C22414   3.192   3.293   9.426 -0.1303 -0.3763 -0.3738
  167MOL0     C22415   3.179   3.383   9.535 -0.3827  0.5106 -0.0113
  167MOL0     C22416   3.099   3.494   9.531  0.5016  0.0411  0.7853
  167MOL0     C22417   3.018   3.517   9.414  0.5762  0.6024 -0.1599
  167MOL0     O22418   2.943   3.630   9.418 -0.6510 -0.0839  0.0764
  167MOL0     C22419   2.814   3.622   9.353  0.7716 -0.5721 -0.2123
  167MOL0     C22420   2.731   3.740   9.406  0.5665 -0.4735 -0.9545
  167MOL0     C22421   2.587   3.753   9.345 -0.0949  0.9387  0.5572
  167MOL0     C22422   2.503   3.845   9.438 -0.3573  0.7128  0.4077
  167MOL0     C22423   2.353   3.850   9.386  0.6093 -0.2057 -0.2677
  167MOL0     C22424   2.272   3.741   9.452 -1.1188  0.2018  0.3279
  167MOL0     C22425   2.119   3.767   9.443  0.2003 -0.7351  0.6060
  167MOL0     C22426   2.055   3.649   9.498  1.9528  0.1788  0.1933
  167MOL0     N22427   2.106   3.623   9.632  0.6352  0.0247  0.0267
  167MOL0     C22428   2.097   3.712   9.736 -1.2652 -0.3819 -0.0396
  167MOL0     C22429   2.160   3.648   9.842 -0.3578 -0.9555 -0.2350
  167MOL0     C22430   2.204   3.714   9.976  0.4989  0.2228  0.3669
  167MOL0     C22431   2.135   3.637  10.092  0.5620  1.0113 -0.2862
  167MOL0     C22432   1.979   3.662  10.117  0.3966 -0.5073  0.3883
  167MOL0     C22433   1.891   3.570  10.047 -0.3584  1.0704 -0.1377
  167MOL0     O22434   1.754   3.588  10.087  0.1427  0.2305 -0.3177
  167MOL0     C22435   1.672   3.631   9.989 -0.2725 -0.8152  0.1879
  167MOL0     C22436   1.538   3.602   9.999  0.7951  0.3473 -0.4737
  167MOL0     C22437   1.445   3.654   9.909  1.0443  0.9760  0.0961
  167MOL0     C22438   1.486   3.716   9.788 -1.1192  0.1218  0.4969
  167MOL0     C22439   1.386   3.769   9.687  0.3622 -0.0356  0.2265
  167MOL0     O22440   1.259   3.719   9.696 -0.6175 -0.6442 -0.0043
  167MOL0     C22441   1.153   3.754   9.601 -0.3448 -0.1962  0.0010
  167MOL0     C22442   1.142   3.885   9.542 -0.3821  0.6055 -0.1676
  167MOL0     C22443   1.037   3.923   9.457  0.1371  0.0581  0.3267
  167MOL0     C22444   0.946   3.825   9.414 -0.2174  0.4561 -0.2686
  167MOL0     O22445   0.872   3.872   9.310  0.1980 -0.3785  0.3788
  167MOL0     C22446   0.857   3.785   9.200 -0.6092  0.5525 -0.6144
  167MOL0     C22447   0.738   3.823   9.125  0.1789  0.6613 -0.0082
  167MOL0     C22448   0.779   3.823   8.972 -0.1730 -0.7004  1.1367
  167MOL0     C22449   0.853   3.943   8.918  0.3774 -0.0322 -0.1192
  167MOL0     C22450   0.917   3.913   8.783  0.3059 -1.0353 -1.9031
  167MOL0     C22451   0.941   4.035   8.704 -0.1705 -0.6466  0.7573
  167MOL0     C22452   1.055   4.126   8.754 -0.1297 -0.0161  1.2701
  167MOL0     C22453   1.047   4.252   8.669 -1.4904  0.4006 -0.0857
  167MOL0    Cl22454   1.181   4.361   8.726 -0.0585 -0.3313  0.1576
  167MOL0     C22455   0.948   3.700   9.483 -0.3543  0.8585 -0.5795
  167MOL0     C22456   1.044   3.674   9.574 -0.7598  0.1393 -0.8109
  167MOL0     O22457   1.421   3.841   9.596 -0.2455  0.6600  0.3104
  167MOL0     C22458   1.623   3.732   9.770 -0.0768 -0.3501  0.7620
  167MOL0     C22459   1.715   3.700   9.870 -0.2434 -1.0185  0.3141
  167MOL0     N22460   2.206   3.531   9.803  0.0971  0.0461 -0.2502
  167MOL0     N22461   2.153   3.511   9.686 -0.8303 -0.1218 -0.0103
  167MOL0     C22462   3.030   3.420   9.311  0.1464 -1.3207  0.0936
  167MOL0     C22463   3.126   3.318   9.313  0.5679 -0.0418 -0.0954
  167MOL0     C22464   3.378   2.965   9.439  0.4437  1.2112 -0.1901
  167MOL0     C22465   3.486   2.904   9.364 -0.9343  0.5799  0.1611
  167MOL0     C22466   3.566   2.804   9.425  0.0117 -0.7874  0.9533
  167MOL0     C22467   3.538   2.758   9.551 -0.6689 -0.2726  0.0937
  167MOL0     O22468   3.626   2.661   9.600  0.2530 -0.6726  0.4848
  167MOL0     C22469   3.610   2.603   9.732 -0.9448 -0.1940 -0.5763
  167MOL0     C22470   3.530   2.481   9.707 -0.6322  0.3371 -0.6712
  167MOL0     C22471   3.532   2.386   9.826  0.6495 -0.2361  0.1976
  167MOL0     C22472   3.457   2.252   9.805 -1.0064 -0.1698 -0.0787
  167MOL0     C22473   3.532   2.173   9.712 -0.6414 -0.9896 -0.7566
  167MOL0     C22474   3.602   2.100   9.653 -0.3841  0.4515 -0.2052
  167MOL0     C22475   3.434   2.816   9.620  0.4746  0.1819 -0.7144
  167MOL0     C22476   3.356   2.921   9.571  0.7085  0.1751  0.2975
  167MOL0     C22477   3.249   2.976   9.663  0.5383 -0.2446  0.1027
  167MOL0     H22478   3.248   3.361   9.615 -1.2587 -3.5858 -0.1364
  167MOL0     H22479   3.112   3.554   9.621  1.5312  0.3421  0.4430
  167MOL0     H22480   2.825   3.631   9.244 -3.5058 -3.8457 -1.1699
  167MOL0     H22481   2.749   3.535   9.367 -2.8342  1.7510 -1.2997
  167MOL0     H22482   2.790   3.831   9.393 -1.0984  0.8349  0.2642
  167MOL0     H22483   2.725   3.717   9.513  1.3862  1.2577 -0.5040
  167MOL0     H22484   2.541   3.654   9.332 -0.7607  1.4321 -1.1669
  167MOL0     H22485   2.590   3.805   9.249  1.7505  3.4117  1.8441
  167MOL0     H22486   2.515   3.815   9.543  2.5020 -2.3383 -0.6110
  167MOL0     H22487   2.547   3.945   9.428 -1.8079  1.2380 -1.1772
  167MOL0     H22488   2.303   3.938   9.427  0.5541 -0.7009  0.7655
  167MOL0     H22489   2.355   3.845   9.277 -1.1301 -0.5439 -0.3104
  167MOL0     H22490   2.301   3.644   9.409  0.9156  0.7840  0.3018
  167MOL0     H22491   2.310   3.735   9.554  0.2319  1.1530 -0.0887
  167MOL0     H22492   2.075   3.791   9.346 -2.9853 -1.3067  1.7682
  167MOL0     H22493   2.102   3.853   9.509  1.5686  1.4763 -1.7541
  167MOL0     H22494   1.947   3.660   9.490  2.1063  0.6873 -5.5083
  167MOL0     H22495   2.068   3.556   9.442 -2.7090 -0.8295  0.3680
  167MOL0     H22496   2.080   3.819   9.730  1.5684  0.1722  0.2148
  167MOL0     H22497   2.313   3.711   9.968  0.5375  2.4349 -0.8050
  167MOL0     H22498   2.174   3.818   9.994 -1.1158 -0.3071  0.8661
  167MOL0     H22499   2.161   3.531  10.098  0.2711  0.8763 -1.2299
  167MOL0     H22500   2.173   3.683  10.184 -3.7184  0.5432  1.9595
  167MOL0     H22501   1.955   3.766  10.094  1.8910  0.0237  1.0948
  167MOL0     H22502   1.951   3.645  10.221  2.2659  2.6103  1.5298
  167MOL0     H22503   1.913   3.470  10.086 -1.2244  1.0385  0.2900
  167MOL0     H22504   1.919   3.571   9.941  1.5754  0.6804  0.3308
  167MOL0     H22505   1.506   3.557  10.092 -0.0523  1.4513 -0.2063
  167MOL0     H22506   1.339   3.643   9.931  1.1395  1.4024  0.8109
  167MOL0     H22507   1.216   3.962   9.559 -2.3977  2.4752  0.7733
  167MOL0     H22508   1.041   4.017   9.403 -0.3896 -0.9939 -1.6455
  167MOL0     H22509   0.948   3.799   9.141  1.1169  3.0253  2.3207
  167MOL0     H22510   0.851   3.676   9.209 -0.2953  0.5840  0.0755
  167MOL0     H22511   0.658   3.749   9.133  1.4318 -0.7061  0.3797
  167MOL0     H22512   0.703   3.920   9.163  2.8529  1.2654  1.1296
  167MOL0     H22513   0.825   3.731   8.936 -3.0302 -1.3079 -1.3627
  167MOL0     H22514   0.683   3.824   8.920 -0.0602  2.0314  0.8074
  167MOL0     H22515   0.935   3.968   8.986 -0.5026 -0.2076  1.0435
  167MOL0     H22516   0.781   4.026   8.917  0.4827  0.0520 -0.8501
  167MOL0     H22517   0.859   3.848   8.716 -0.2161 -0.3255 -2.1603
  167MOL0     H22518   1.006   3.854   8.806 -0.2154 -1.3777 -0.6820
  167MOL0     H22519   0.979   4.004   8.606 -1.9455  0.2589 -0.2784
  167MOL0     H22520   0.849   4.090   8.683 -0.7197 -0.8858  2.4139
  167MOL0     H22521   1.159   4.093   8.741  0.9658  3.5760 -0.4178
  167MOL0     H22522   1.036   4.156   8.857  1.1918 -0.2209  1.5876
  167MOL0     H22523   1.052   4.226   8.563  3.0874  2.7550 -0.6887
  167MOL0     H22524   0.949   4.298   8.687 -0.7046  1.7913  0.8923
  167MOL0     H22525   0.869   3.629   9.461  1.2699 -1.1121 -0.3086
  167MOL0     H22526   1.046   3.581   9.631 -3.9589  0.7126  0.4375
  167MOL0     H22527   1.664   3.785   9.686 -1.3059  0.2555  0.5302
  167MOL0     H22528   1.817   3.733   9.849 -1.5151  3.9163  0.7186
  167MOL0     H22529   2.971   3.438   9.222 -1.4073  2.6115  1.6967
  167MOL0     H22530   3.149   3.265   9.221  1.6077 -1.2234  0.8007
  167MOL0     H22531   3.512   2.956   9.272  0.2449  0.2004  0.2575
  167MOL0     H22532   3.656   2.776   9.372  0.0567 -1.8778  1.5708
  167MOL0     H22533   3.576   2.673   9.809 -0.3230 -0.6792  0.1644
  167MOL0     H22534   3.713   2.570   9.752 -0.2568  1.6577 -0.8791
  167MOL0     H22535   3.553   2.443   9.607 -2.3497  5.0219 -3.1774
  167MOL0     H22536   3.424   2.511   9.702 -0.5764  0.3449 -2.5987
  167MOL0     H22537   3.493   2.434   9.916  2.3482  0.2089  0.7376
  167MOL0     H22538   3.631   2.358   9.864  1.8409  4.2816  0.9734
  167MOL0     H22539   3.442   2.195   9.897  0.8986 -0.1897  0.2659
  167MOL0     H22540   3.359   2.272   9.761 -1.8539 -2.4172  0.6629
  167MOL0     H22541   3.661   2.025   9.605  1.0730 -1.4853  4.0400
  167MOL0     H22542   3.405   2.786   9.720 -0.3588  1.3614 -0.5817
  167MOL0     H22543   3.280   3.048   9.740 -2.7123 -0.7748  2.0877
  167MOL0     H22544   3.170   3.016   9.598  0.6206 -2.4390 -1.4767
  167MOL0     H22545   3.198   2.893   9.713  2.6905 -0.1694  2.6024
  168MOL0     O22546  10.900   5.978  10.655 -0.4770 -0.4966  0.0211
  168MOL0     C22547  10.940   6.019  10.549  0.8674  0.3224  0.2351
  168MOL0     O22548  11.067   6.066  10.519  0.3910 -0.1530 -0.4439
  168MOL0     C22549  11.153   6.072  10.626  0.6849 -1.2799  0.9675
  168MOL0     C22550  11.131   6.180  10.717  0.6042  0.7229  0.7061
  168MOL0     C22551  11.213   6.201  10.824  0.2891  1.0339  0.6942
  168MOL0     C22552  11.326   6.122  10.838 -0.0069  0.0405 -0.0562
  168MOL0     O22553  11.406   6.148  10.948 -0.3834 -0.2933  0.2462
  168MOL0     C22554  11.529   6.080  10.970 -0.1301  0.0272  0.6011
  168MOL0     C22555  11.504   5.961  11.057  0.6266  0.5004  0.7744
  168MOL0     C22556  11.637   5.901  11.104 -0.4328 -0.5579  0.9528
  168MOL0     C22557  11.723   5.858  10.985 -0.7294  1.0461 -1.2772
  168MOL0     C22558  11.809   5.724  11.016  0.4280  0.4296  0.2622
  168MOL0     C22559  11.867   5.647  10.895  0.1187  0.5158  0.8456
  168MOL0     C22560  11.905   5.716  10.766 -0.0104  0.4066  0.0496
  168MOL0     C22561  11.930   5.625  10.644 -0.2452  0.9874  0.3611
  168MOL0     N22562  11.960   5.709  10.523 -0.4927 -0.0311 -0.1670
  168MOL0     C22563  11.890   5.819  10.465  0.5573 -0.4427  0.0329
  168MOL0     C22564  11.954   5.847  10.349 -0.3008  0.0995  0.2844
  168MOL0     C22565  11.908   5.973  10.271 -0.2378  0.7050 -0.4207
  168MOL0     C22566  11.882   5.937  10.120 -0.0179 -0.6980  0.3005
  168MOL0     C22567  11.907   6.063  10.031  0.3166  0.1880 -0.2010
  168MOL0     C22568  11.777   6.146  10.016 -0.6183 -0.4937 -0.5385
  168MOL0     O22569  11.725   6.183  10.141  0.1062 -0.0739 -0.1337
  168MOL0     C22570  11.609   6.258  10.147  0.1452  0.6017  0.9683
  168MOL0     C22571  11.529   6.231  10.258 -0.0305 -0.2905  0.3041
  168MOL0     C22572  11.401   6.281  10.277  0.1578  0.4857 -0.4605
  168MOL0     C22573  11.343   6.359  10.178 -0.0325  0.2439  0.3759
  168MOL0     C22574  11.211   6.419  10.191  0.0766 -0.9571  0.0045
  168MOL0     O22575  11.122   6.365  10.274  0.2608 -0.3017 -0.0305
  168MOL0     C22576  11.025   6.449  10.322  0.0779 -0.5573 -0.3959
  168MOL0     C22577  10.906   6.390  10.330  0.7217  0.0617 -0.1359
  168MOL0     C22578  10.792   6.468  10.379 -0.6211  0.7158  0.0595
  168MOL0     C22579  10.819   6.600  10.427 -1.4365  0.3579 -0.3004
  168MOL0     O22580  10.728   6.688  10.480  0.1756  0.0791  0.2668
  168MOL0     C22581  10.606   6.642  10.515 -0.4224  1.0281 -0.0728
  168MOL0     C22582  10.538   6.761  10.588 -0.3112 -0.1610 -0.1124
  168MOL0     C22583  10.397   6.729  10.636 -0.0248  0.2362 -0.3485
  168MOL0     C22584  10.324   6.604  10.566  0.5229 -0.1063  0.3028
  168MOL0     C22585  10.174   6.608  10.593 -0.2457  0.6098  0.4968
  168MOL0     C22586  10.095   6.688  10.484 -0.1526 -0.1571 -0.0936
  168MOL0     C22587   9.944   6.671  10.523  0.1659  0.2975  0.3251
  168MOL0     C22588   9.847   6.728  10.429 -0.5849 -1.7198 -0.3496
  168MOL0    Cl22589   9.862   6.653  10.254  0.4354 -0.3450 -0.0941
  168MOL0     C22590  10.943   6.664  10.404 -0.1531  0.3588  0.1314
  168MOL0     C22591  11.048   6.591  10.356  0.4449  0.5492 -0.6005
  168MOL0     O22592  11.190   6.521  10.117  0.2983 -0.0797  0.4133
  168MOL0     C22593  11.422   6.380  10.059  0.1048 -0.5910 -0.0144
  168MOL0     C22594  11.548   6.328  10.043 -0.8210 -0.0166  0.6276
  168MOL0     N22595  12.057   5.760  10.334  0.4956 -0.4584  0.2150
  168MOL0     N22596  12.067   5.685  10.443  0.3962 -0.0413 -0.1924
  168MOL0     C22597  11.349   6.016  10.748  0.2994 -0.4945 -0.4946
  168MOL0     C22598  11.268   5.994  10.637  0.4959  0.8656  0.2282
  168MOL0     C22599  10.837   6.040  10.440 -0.3797  0.2161 -0.3372
  168MOL0     C22600  10.709   6.068  10.478 -0.1640 -0.3911 -0.5045
  168MOL0     C22601  10.609   6.068  10.383 -0.0928  0.2383  0.1409
  168MOL0     C22602  10.637   6.053  10.247  1.0212 -0.7168  0.5931
  168MOL0     O22603  10.539   6.075  10.149  0.7252 -0.5479 -0.6861
  168MOL0     C22604  10.409   6.116  10.170  0.2732  0.5470  0.7035
  168MOL0     C22605  10.370   6.192  10.038  0.2414  0.6997  0.2076
  168MOL0     C22606  10.321   6.095   9.930 -0.3670  0.1686  1.5441
  168MOL0     C22607  10.266   6.167   9.806  0.6599 -0.0588 -0.2985
  168MOL0     C22608  10.217   6.063   9.722 -0.6034  0.6097  1.2161
  168MOL0     C22609  10.170   5.981   9.655  0.2018  0.3285  0.2410
  168MOL0     C22610  10.766   6.026  10.205  0.2693 -0.0107 -0.1629
  168MOL0     C22611  10.865   6.025  10.299 -0.8282  0.1521 -0.7400
  168MOL0     C22612  11.002   5.980  10.260  0.3357 -0.6975  0.4830
  168MOL0     H22613  11.040   6.237  10.704  0.7581  0.8977  0.3819
  168MOL0     H22614  11.202   6.271  10.906  3.3142 -1.4152  3.4336
  168MOL0     H22615  11.595   6.056  10.886  3.0991 -1.3568  3.2942
  168MOL0     H22616  11.589   6.140  11.040 -1.7823 -1.5389  3.5938
  168MOL0     H22617  11.462   5.880  10.996  0.6961  0.2138  1.1006
  168MOL0     H22618  11.438   5.978  11.143 -1.1409 -1.3744 -0.1109
  168MOL0     H22619  11.607   5.826  11.178 -2.8313  1.0061  1.7179
  168MOL0     H22620  11.700   5.974  11.156  1.6825 -0.8327 -1.0921
  168MOL0     H22621  11.672   5.843  10.890 -2.9624 -3.1181  0.3098
  168MOL0     H22622  11.804   5.930  10.976  0.0600  0.0767 -2.0991
  168MOL0     H22623  11.885   5.743  11.092  0.0800  0.1104  0.7001
  168MOL0     H22624  11.742   5.658  11.072  0.5181 -2.6151 -2.8638
  168MOL0     H22625  11.956   5.594  10.929  0.1908 -0.4104 -0.7151
  168MOL0     H22626  11.798   5.567  10.866 -2.9420  3.5364 -0.9098
  168MOL0     H22627  12.000   5.766  10.788  0.0858 -0.6516  2.3886
  168MOL0     H22628  11.822   5.784  10.745 -0.2611 -0.1478 -0.7843
  168MOL0     H22629  12.008   5.550  10.661 -1.7519 -0.9048 -0.6216
  168MOL0     H22630  11.839   5.567  10.626 -0.7118  0.3400  3.9100
  168MOL0     H22631  11.810   5.872  10.514  0.4269 -2.0335  1.6492
  168MOL0     H22632  11.812   6.005  10.311 -1.4940 -2.0607 -0.9673
  168MOL0     H22633  11.972   6.058  10.295 -2.8343  2.6719 -0.0373
  168MOL0     H22634  11.962   5.866  10.097 -1.2017 -3.1524  3.0767
  168MOL0     H22635  11.788   5.889  10.091  0.3965 -1.8720  0.8476
  168MOL0     H22636  11.937   6.033   9.930 -2.8508  0.1368 -1.2200
  168MOL0     H22637  11.981   6.134  10.069  1.2267 -1.5989  1.5353
  168MOL0     H22638  11.701   6.093   9.958 -3.0930  0.2533  1.7946
  168MOL0     H22639  11.812   6.234   9.962  0.6283  1.0297  2.4913
  168MOL0     H22640  11.580   6.174  10.336 -0.5796 -0.7719  0.3162
  168MOL0     H22641  11.350   6.264  10.371  0.3680 -0.3611 -0.4894
  168MOL0     H22642  10.888   6.284  10.316  2.4846 -0.3615  0.4543
  168MOL0     H22643  10.690   6.430  10.379 -1.4220  2.7555 -0.0812
  168MOL0     H22644  10.566   6.616  10.417 -0.1728  1.5727 -0.3235
  168MOL0     H22645  10.632   6.557  10.579  3.0752  0.4265 -2.0717
  168MOL0     H22646  10.595   6.792  10.677 -0.8744 -1.7634  0.8445
  168MOL0     H22647  10.524   6.839  10.513 -1.7937 -1.2361 -0.9925
  168MOL0     H22648  10.403   6.705  10.743 -1.6636 -1.0001 -0.4885
  168MOL0     H22649  10.337   6.820  10.628  2.3388  1.8902 -0.2575
  168MOL0     H22650  10.361   6.508  10.605  0.3804 -0.9787 -1.5921
  168MOL0     H22651  10.335   6.600  10.458 -0.5437  1.4208  0.1097
  168MOL0     H22652  10.160   6.653  10.691 -0.0113 -1.2918  1.4628
  168MOL0     H22653  10.137   6.505  10.587 -0.2177  0.6812 -1.8287
  168MOL0     H22654  10.119   6.795  10.479 -0.2725 -0.0917  0.6398
  168MOL0     H22655  10.129   6.642  10.390  0.1268  0.0860 -0.1155
  168MOL0     H22656   9.938   6.726  10.617 -0.4395  2.5825 -0.9622
  168MOL0     H22657   9.915   6.566  10.526 -0.6189  0.4416 -1.1667
  168MOL0     H22658   9.745   6.714  10.465 -1.0873  2.0929  0.1994
  168MOL0     H22659   9.862   6.836  10.432 -1.3658 -1.6106  0.0479
  168MOL0     H22660  10.965   6.769  10.426  2.8035 -0.4334  1.4631
  168MOL0     H22661  11.138   6.646  10.330  1.0918 -0.6162 -0.9131
  168MOL0     H22662  11.374   6.434   9.978  0.0938  3.0008  2.1821
  168MOL0     H22663  11.593   6.320   9.944 -2.5371 -2.2746 -0.0519
  168MOL0     H22664  11.441   5.959  10.739 -0.1295 -0.8692 -3.6597
  168MOL0     H22665  11.292   5.913  10.569  0.7232 -0.5507  1.9012
  168MOL0     H22666  10.683   6.079  10.583 -1.0677 -0.6524 -0.6875
  168MOL0     H22667  10.505   6.088  10.407 -1.4039 -1.4993 -3.3325
  168MOL0     H22668  10.408   6.190  10.251 -1.6297  3.6773 -1.9489
  168MOL0     H22669  10.345   6.030  10.194  1.0252  0.3606  2.2128
  168MOL0     H22670  10.460   6.245  10.008  2.4028 -2.3891  0.6956
  168MOL0     H22671  10.283   6.252  10.065 -0.0308  0.1912  0.4866
  168MOL0     H22672  10.245   6.038   9.983 -1.5521 -1.0737 -1.2636
  168MOL0     H22673  10.407   6.033   9.901 -1.4199  0.4093 -2.8006
  168MOL0     H22674  10.184   6.232   9.838  1.7275  2.5701 -2.5016
  168MOL0     H22675  10.339   6.226   9.751  2.3464 -1.7511  0.0335
  168MOL0     H22676  10.121   5.914   9.586  2.7011 -1.0995 -0.2499
  168MOL0     H22677  10.797   5.995  10.105  0.3471 -0.3544 -0.0331
  168MOL0     H22678  11.005   5.932  10.162 -0.7737 -1.4481  0.8003
  168MOL0     H22679  11.080   6.057  10.251 -0.2273 -0.3523 -3.3088
  168MOL0     H22680  11.042   5.906  10.330  2.0417 -0.1195  0.1824
  169MOL0     O22681   1.318   3.646   2.123 -0.4581 -0.6411  0.2104
  169MOL0     C22682   1.262   3.540   2.120 -1.1042  0.4154  0.0138
  169MOL0     O22683   1.309   3.417   2.175 -0.7135 -0.3078  0.0380
  169MOL0     C22684   1.433   3.419   2.238  0.0268 -0.7436 -0.2582
  169MOL0     C22685   1.494   3.518   2.325 -0.2147 -0.4096  0.6449
  169MOL0     C22686   1.608   3.498   2.405  0.2576 -0.2058  0.5270
  169MOL0     C22687   1.667   3.370   2.404  0.6692  0.3429  0.5162
  169MOL0     O22688   1.768   3.314   2.474 -0.5310 -0.0738 -0.3883
  169MOL0     C22689   1.855   3.399   2.542  0.3664 -0.2729 -0.4437
  169MOL0     C22690   1.948   3.308   2.623  0.6707  0.4141  0.3596
  169MOL0     C22691   2.050   3.378   2.696  0.3601 -0.2339  0.5370
  169MOL0     C22692   2.193   3.318   2.690 -0.3592 -0.4721  0.1911
  169MOL0     C22693   2.205   3.197   2.784 -0.2380  0.0558  0.2064
  169MOL0     C22694   2.350   3.156   2.814 -0.3708 -0.1275 -0.2496
  169MOL0     C22695   2.451   3.260   2.868  0.2341 -0.2827 -0.5719
  169MOL0     C22696   2.403   3.353   2.979 -0.0656 -0.2869 -0.2070
  169MOL0     N22697   2.371   3.289   3.104  0.1056  0.1213 -0.3610
  169MOL0     C22698   2.467   3.252   3.201  0.5359 -0.0884  0.3221
  169MOL0     C22699   2.392   3.192   3.300  0.3177  0.4710  0.1925
  169MOL0     C22700   2.434   3.132   3.430  0.1821 -0.3000  0.1502
  169MOL0     C22701   2.583   3.136   3.450  0.0590  0.4383 -0.6545
  169MOL0     C22702   2.623   3.033   3.564  0.4287 -0.1572 -0.1511
  169MOL0     C22703   2.759   3.050   3.626  0.0016  0.2358 -0.2160
  169MOL0     O22704   2.861   3.040   3.533  0.2159  0.8189  0.5796
  169MOL0     C22705   2.989   3.014   3.592  0.9525 -0.1545 -0.1993
  169MOL0     C22706   3.045   3.075   3.705  0.4540  0.1524 -0.6310
  169MOL0     C22707   3.169   3.044   3.746 -0.3982 -0.6887 -0.1474
  169MOL0     C22708   3.257   2.960   3.679 -0.3410 -0.0553 -1.2728
  169MOL0     C22709   3.394   2.937   3.725  0.4390 -0.4286 -0.7977
  169MOL0     O22710   3.439   3.011   3.831 -0.2793  0.0817 -0.8544
  169MOL0     C22711   3.560   2.990   3.902  0.2833  0.0826  0.5293
  169MOL0     C22712   3.571   3.067   4.019 -0.9173 -0.8547 -0.1617
  169MOL0     C22713   3.685   3.059   4.102  0.4188  0.3189 -0.9503
  169MOL0     C22714   3.791   2.972   4.075 -0.4625 -0.5349  0.2854
  169MOL0     O22715   3.908   2.967   4.156  0.6523 -0.1388 -0.3226
  169MOL0     C22716   3.926   3.082   4.235 -0.5246 -0.1375 -0.5141
  169MOL0     C22717   4.070   3.048   4.274  0.2159 -0.7707  0.7900
  169MOL0     C22718   4.137   3.168   4.349  1.0553  0.1881  0.8186
  169MOL0     C22719   4.083   3.195   4.485  0.2053 -0.3921 -0.0889
  169MOL0     C22720   4.196   3.263   4.568  0.7341 -0.3158 -0.2567
  169MOL0     C22721   4.304   3.173   4.599 -0.1290 -0.1631 -0.2237
  169MOL0     C22722   4.431   3.241   4.657 -0.0071 -0.1083 -0.3171
  169MOL0     C22723   4.503   3.153   4.754 -0.2001  0.2319 -0.2658
  169MOL0    Cl22724   4.401   3.157   4.907 -0.0248  0.1356  0.0177
  169MOL0     C22725   3.776   2.894   3.962 -0.7641  0.3322 -1.1654
  169MOL0     C22726   3.665   2.902   3.873  0.5105 -0.0409  0.6972
  169MOL0     O22727   3.464   2.853   3.669 -0.0150  0.2626  0.1433
  169MOL0     C22728   3.197   2.888   3.567  0.0214 -1.2853  0.7914
  169MOL0     C22729   3.063   2.916   3.531  0.9538 -0.8895  0.9199
  169MOL0     N22730   2.257   3.204   3.261 -0.7965  0.1325 -0.3368
  169MOL0     N22731   2.246   3.262   3.151  0.2724  0.6591  0.2509
  169MOL0     C22732   1.610   3.277   2.316  0.2250  0.6393 -0.9900
  169MOL0     C22733   1.496   3.304   2.253 -0.3154 -0.1367 -0.0084
  169MOL0     C22734   1.125   3.530   2.052 -0.3106 -0.9350 -0.1897
  169MOL0     C22735   1.057   3.404   2.055  1.0379  0.0832 -0.6186
  169MOL0     C22736   0.918   3.397   2.010 -0.6207  1.1020  0.3076
  169MOL0     C22737   0.862   3.507   1.949 -0.0356  0.0164 -0.0212
  169MOL0     O22738   0.724   3.525   1.924 -0.1212 -0.2918  0.2525
  169MOL0     C22739   0.629   3.430   1.974 -0.7403 -0.6894 -0.0179
  169MOL0     C22740   0.609   3.302   1.885  0.0648  0.3466  0.2111
  169MOL0     C22741   0.554   3.306   1.741  0.4981 -0.6615 -0.9615
  169MOL0     C22742   0.403   3.304   1.741 -0.5538  0.4961  0.4679
  169MOL0     C22743   0.341   3.430   1.789 -0.5772  0.4322  0.2459
  169MOL0     C22744   0.291   3.531   1.835 -0.4198  0.5322  0.0771
  169MOL0     C22745   0.929   3.631   1.933 -0.7151  0.3334 -1.7460
  169MOL0     C22746   1.064   3.649   1.993  0.1928 -0.6063  0.1388
  169MOL0     C22747   1.116   3.791   1.988 -0.4194 -0.0711 -0.3486
  169MOL0     H22748   1.448   3.616   2.325  0.8308  0.3070 -3.7761
  169MOL0     H22749   1.637   3.578   2.472 -3.3721  2.5667 -0.8556
  169MOL0     H22750   1.909   3.465   2.473 -1.7725  2.1161 -0.0098
  169MOL0     H22751   1.818   3.468   2.619  0.9158 -1.3937  0.8531
  169MOL0     H22752   1.991   3.236   2.554 -0.5187  0.8895 -0.9167
  169MOL0     H22753   1.888   3.252   2.695  0.6598  0.8002  0.6541
  169MOL0     H22754   2.019   3.390   2.800 -0.7070 -1.0726  0.3327
  169MOL0     H22755   2.064   3.482   2.665 -1.0927  0.7401  2.8204
  169MOL0     H22756   2.223   3.295   2.588 -0.8114  0.6761 -0.2247
  169MOL0     H22757   2.268   3.394   2.713  0.9812 -0.2647 -3.9953
  169MOL0     H22758   2.169   3.219   2.884  0.5435  0.0312  0.4978
  169MOL0     H22759   2.156   3.110   2.740  1.3990 -2.1667  2.5098
  169MOL0     H22760   2.340   3.073   2.885 -0.0490 -0.0006 -0.0542
  169MOL0     H22761   2.395   3.108   2.727  2.6248 -3.8293  2.9420
  169MOL0     H22762   2.495   3.307   2.780  4.0827 -0.0277  1.2762
  169MOL0     H22763   2.542   3.208   2.902  0.3769 -1.0484 -2.0486
  169MOL0     H22764   2.488   3.422   2.981 -0.4347  0.2740 -2.0627
  169MOL0     H22765   2.319   3.411   2.939 -0.5167 -0.8255 -0.0630
  169MOL0     H22766   2.575   3.252   3.203  0.5338  0.2001  0.5346
  169MOL0     H22767   2.379   3.177   3.513 -0.4489 -1.0220  0.1401
  169MOL0     H22768   2.419   3.023   3.431 -1.1677 -0.1754  3.0467
  169MOL0     H22769   2.633   3.102   3.359 -0.8714 -1.6454 -0.4401
  169MOL0     H22770   2.615   3.236   3.480 -2.3566  0.8926  0.6089
  169MOL0     H22771   2.628   2.935   3.515 -2.1140 -1.5800  2.2014
  169MOL0     H22772   2.551   3.014   3.643  1.1732 -1.5431  0.2184
  169MOL0     H22773   2.774   2.964   3.692  0.3459 -1.8589 -2.8291
  169MOL0     H22774   2.768   3.151   3.667  1.6268  0.5531 -1.3025
  169MOL0     H22775   2.999   3.153   3.764  2.8087  0.3927  1.0383
  169MOL0     H22776   3.196   3.092   3.839 -3.1596 -1.0375  0.9367
  169MOL0     H22777   3.510   3.155   4.039  2.1042  1.5102 -0.4825
  169MOL0     H22778   3.686   3.116   4.194 -1.4429  1.6877 -1.7019
  169MOL0     H22779   3.919   3.173   4.174  0.1995 -0.8017 -1.6182
  169MOL0     H22780   3.857   3.087   4.320  0.4877  0.2456  0.3192
  169MOL0     H22781   4.072   2.964   4.344 -1.7390  1.0080  3.2236
  169MOL0     H22782   4.128   3.029   4.184 -0.4697 -2.3598  0.6602
  169MOL0     H22783   4.244   3.158   4.332  0.7831 -0.1564 -0.7959
  169MOL0     H22784   4.117   3.260   4.293 -3.2420 -1.8136 -1.4087
  169MOL0     H22785   4.040   3.107   4.533 -1.9222  2.1969  3.1381
  169MOL0     H22786   4.006   3.272   4.476  0.0279 -0.4572  0.7356
  169MOL0     H22787   4.150   3.296   4.662  1.4061  2.7541 -0.8928
  169MOL0     H22788   4.237   3.351   4.518  2.4155 -0.6071  0.5312
  169MOL0     H22789   4.266   3.102   4.673  0.9957  0.7974  1.3709
  169MOL0     H22790   4.344   3.133   4.506 -0.4214  1.9816 -1.3410
  169MOL0     H22791   4.394   3.326   4.714 -0.7734 -0.3479 -0.4378
  169MOL0     H22792   4.501   3.272   4.579  0.1980 -2.0181 -0.9507
  169MOL0     H22793   4.523   3.051   4.719  1.6782  0.7060 -0.6813
  169MOL0     H22794   4.599   3.202   4.771  0.0619  0.5339 -2.3157
  169MOL0     H22795   3.858   2.829   3.935 -1.7485 -0.4930 -2.2990
  169MOL0     H22796   3.662   2.845   3.781  1.6942  3.2709 -1.5700
  169MOL0     H22797   3.251   2.825   3.498 -0.6446 -0.0417 -0.9296
  169MOL0     H22798   3.019   2.870   3.443  1.3955 -1.3099  0.9173
  169MOL0     H22799   1.643   3.174   2.322 -1.5380  0.1307  1.3763
  169MOL0     H22800   1.443   3.233   2.190 -1.9730  1.6455 -0.7303
  169MOL0     H22801   1.104   3.318   2.101  0.1134 -0.2761 -0.3266
  169MOL0     H22802   0.864   3.307   2.040 -0.1528  0.4738 -0.6593
  169MOL0     H22803   0.528   3.471   1.987 -0.3385  0.8331 -1.3578
  169MOL0     H22804   0.658   3.398   2.074 -1.9161 -3.0572 -0.3593
  169MOL0     H22805   0.530   3.246   1.936  1.1983 -1.8781 -0.3608
  169MOL0     H22806   0.702   3.245   1.877 -0.3700 -0.3265 -0.1340
  169MOL0     H22807   0.584   3.215   1.686  0.2849 -3.6749  3.3908
  169MOL0     H22808   0.581   3.402   1.698 -0.1990  1.6148  3.1943
  169MOL0     H22809   0.367   3.286   1.639  0.5781 -1.2187  0.3426
  169MOL0     H22810   0.374   3.218   1.802  1.2604 -1.9113 -1.8190
  169MOL0     H22811   0.265   3.621   1.887  3.9937  2.2127 -0.1701
  169MOL0     H22812   0.887   3.725   1.898 -0.2386  0.7811 -1.1371
  169MOL0     H22813   1.209   3.787   1.930 -0.9279  1.4534 -1.3079
  169MOL0     H22814   1.042   3.862   1.949  0.0130  2.2071  2.5957
  169MOL0     H22815   1.134   3.824   2.091 -0.9869  1.2518 -0.6582
  170MOL0     O22816   0.253   6.679   8.089 -0.5359 -0.0444  0.1036
  170MOL0     C22817   0.203   6.572   8.075 -0.8658 -0.6617  0.3555
  170MOL0     O22818   0.278   6.465   8.028  0.5462 -0.1221  0.2098
  170MOL0     C22819   0.413   6.468   8.032  0.0281  0.8644 -0.7264
  170MOL0     C22820   0.485   6.513   8.145 -0.3469  0.3060 -0.8353
  170MOL0     C22821   0.627   6.500   8.148 -0.2362 -0.2008  0.2083
  170MOL0     C22822   0.701   6.450   8.051  0.4464  0.4844  1.0366
  170MOL0     O22823   0.845   6.433   8.046 -0.5054  0.2117  0.1504
  170MOL0     C22824   0.934   6.502   8.131 -0.2825  0.0839  0.2904
  170MOL0     C22825   1.078   6.446   8.119  0.3621  0.3077 -1.0672
  170MOL0     C22826   1.134   6.513   7.997 -0.4251 -0.3490  0.8146
  170MOL0     C22827   1.259   6.448   7.945  0.4021  0.4814 -1.1182
  170MOL0     C22828   1.304   6.498   7.811  0.0313 -0.3358  0.6477
  170MOL0     C22829   1.399   6.612   7.807 -0.0337  0.6541  0.4393
  170MOL0     C22830   1.387   6.751   7.875  0.7324 -0.2318  0.2876
  170MOL0     C22831   1.266   6.833   7.818 -0.1160  0.9552  0.3310
  170MOL0     N22832   1.244   6.955   7.893 -0.3353  0.1351 -0.1828
  170MOL0     C22833   1.299   7.076   7.865  0.2566 -0.2058 -0.7459
  170MOL0     C22834   1.254   7.153   7.959  0.3174 -0.2683 -0.2049
  170MOL0     C22835   1.287   7.287   7.965  0.4633 -0.1507 -0.0461
  170MOL0     C22836   1.418   7.305   8.033 -0.0475 -0.1086 -0.1207
  170MOL0     C22837   1.460   7.450   8.012 -0.0716  0.3349 -0.2499
  170MOL0     C22838   1.599   7.476   8.076 -0.3209 -0.9812 -0.8452
  170MOL0     O22839   1.634   7.615   8.070  0.3542 -0.7088 -1.0913
  170MOL0     C22840   1.759   7.660   8.100  0.8432  0.0929 -0.0886
  170MOL0     C22841   1.872   7.587   8.147  0.1882  0.1484 -1.2301
  170MOL0     C22842   1.989   7.654   8.184  0.1632 -0.7007  0.5310
  170MOL0     C22843   2.020   7.783   8.150  0.1972  0.4888 -0.8244
  170MOL0     C22844   2.155   7.843   8.167 -0.7609 -0.6659  0.2473
  170MOL0     O22845   2.172   7.963   8.105  0.2679  0.2584 -0.6439
  170MOL0     C22846   2.289   8.024   8.116 -1.1324  0.7716 -0.7832
  170MOL0     C22847   2.328   8.099   8.232  0.1563  0.3571  0.8783
  170MOL0     C22848   2.450   8.165   8.234  0.4780  0.4483 -0.9549
  170MOL0     C22849   2.551   8.144   8.146  0.7609  0.3741  0.2027
  170MOL0     O22850   2.666   8.210   8.171 -0.2130  0.5044 -0.9706
  170MOL0     C22851   2.788   8.165   8.116 -0.9726  0.4765  0.2317
  170MOL0     C22852   2.907   8.240   8.187 -0.3928  0.2990  0.3976
  170MOL0     C22853   3.036   8.209   8.118 -0.6185 -0.6591 -0.3506
  170MOL0     C22854   3.127   8.333   8.142  0.1410 -0.2776  0.6935
  170MOL0     C22855   3.279   8.306   8.144 -0.6523 -0.1034  0.0281
  170MOL0     C22856   3.369   8.413   8.069  0.2542 -0.0886 -1.2084
  170MOL0     C22857   3.514   8.378   8.074  0.1776  0.6658 -0.4064
  170MOL0     C22858   3.566   8.323   8.213  0.4198  0.5896  0.1339
  170MOL0    Cl22859   3.743   8.354   8.226 -0.0203  0.1853  0.3080
  170MOL0     C22860   2.516   8.076   8.028 -0.3468  0.0765  0.0157
  170MOL0     C22861   2.382   8.021   8.012 -1.3150  1.2490  0.2947
  170MOL0     O22862   2.249   7.781   8.224  1.3480 -0.3646 -0.5455
  170MOL0     C22863   1.916   7.854   8.084 -0.5733 -0.0023 -1.0621
  170MOL0     C22864   1.781   7.795   8.076  0.0099 -0.5077 -1.0353
  170MOL0     N22865   1.176   7.083   8.053 -0.4377  0.6703  0.1594
  170MOL0     N22866   1.166   6.962   7.999  0.0713  0.6148 -0.8209
  170MOL0     C22867   0.631   6.404   7.934 -0.2258  0.1167  0.5067
  170MOL0     C22868   0.488   6.405   7.929  0.4924 -0.3172  1.1682
  170MOL0     C22869   0.057   6.552   8.062  0.0904 -0.1689  0.5263
  170MOL0     C22870   0.008   6.436   7.988 -0.4546  0.1735 -0.4285
  170MOL0     C22871  -0.126   6.410   7.967  0.5553 -0.6918 -0.2118
  170MOL0     C22872  -0.223   6.508   8.009 -0.2895  0.1586 -0.1883
  170MOL0     O22873  -0.356   6.508   7.997  0.5017  0.2937 -0.3851
  170MOL0     C22874  -0.424   6.380   7.967  0.0403  0.2383 -0.3798
  170MOL0     C22875  -0.464   6.300   8.097  0.1351 -0.1807  0.2364
  170MOL0     C22876  -0.571   6.390   8.174 -0.0148  0.4910  0.3751
  170MOL0     C22877  -0.631   6.299   8.281  0.6165 -0.6607 -0.0839
  170MOL0     C22878  -0.752   6.365   8.334  0.0523  0.2383  0.1503
  170MOL0     C22879  -0.856   6.419   8.371 -0.7752 -0.9957  1.2961
  170MOL0     C22880  -0.175   6.616   8.078 -0.3400 -0.1332  0.5517
  170MOL0     C22881  -0.039   6.645   8.109  0.0663 -0.2609  0.4933
  170MOL0     C22882   0.005   6.774   8.178 -1.1282 -0.5479 -0.2022
  170MOL0     H22883   0.436   6.553   8.234  0.1349  2.1206 -1.3429
  170MOL0     H22884   0.685   6.531   8.234  2.7918 -0.5079 -1.5601
  170MOL0     H22885   0.930   6.607   8.102 -1.4048  0.2374  0.9347
  170MOL0     H22886   0.900   6.505   8.235 -2.0480 -1.2548 -0.1828
  170MOL0     H22887   1.080   6.337   8.124 -1.9929  0.2358  4.1122
  170MOL0     H22888   1.138   6.486   8.201  1.3947 -0.1353 -1.5975
  170MOL0     H22889   1.151   6.618   8.023  0.3074 -0.3139  0.2259
  170MOL0     H22890   1.056   6.509   7.920  0.4785 -2.4819 -0.0486
  170MOL0     H22891   1.336   6.466   8.021 -2.6112  2.1236  1.8077
  170MOL0     H22892   1.228   6.344   7.934  1.3174  0.0311  0.1619
  170MOL0     H22893   1.358   6.418   7.759  0.5767 -1.2109  2.4659
  170MOL0     H22894   1.218   6.522   7.748 -1.6268 -2.1689  2.0737
  170MOL0     H22895   1.495   6.576   7.845 -1.9377 -1.6568  3.6309
  170MOL0     H22896   1.413   6.626   7.700 -3.4191  2.2147  0.0703
  170MOL0     H22897   1.477   6.813   7.870  1.0487 -0.6651  0.5472
  170MOL0     H22898   1.368   6.736   7.982  0.2343 -0.7186  0.1364
  170MOL0     H22899   1.274   6.854   7.711  1.1403 -0.8958  0.0172
  170MOL0     H22900   1.169   6.784   7.827  0.0362  0.2315 -1.6359
  170MOL0     H22901   1.364   7.105   7.784 -0.4942  0.7646 -1.0139
  170MOL0     H22902   1.302   7.330   7.865  2.4358  1.2959  0.8117
  170MOL0     H22903   1.212   7.344   8.020 -1.3828 -2.6659  0.2432
  170MOL0     H22904   1.403   7.291   8.141 -1.3036  1.0310 -0.1160
  170MOL0     H22905   1.491   7.234   7.992 -0.5862 -1.2245  0.7785
  170MOL0     H22906   1.387   7.525   8.045 -2.0105 -1.8351  0.6898
  170MOL0     H22907   1.461   7.464   7.903  3.2299  1.8987 -0.1451
  170MOL0     H22908   1.677   7.418   8.026 -0.6451 -0.2101 -2.3131
  170MOL0     H22909   1.605   7.455   8.183 -1.0737  0.8020 -0.4242
  170MOL0     H22910   1.855   7.485   8.182 -1.9525  0.9268  0.1533
  170MOL0     H22911   2.066   7.591   8.228  0.6911 -0.3955  0.0530
  170MOL0     H22912   2.264   8.115   8.319 -2.1831  2.2683 -1.0346
  170MOL0     H22913   2.477   8.223   8.321 -1.3701 -2.3251  1.6469
  170MOL0     H22914   2.798   8.056   8.118 -0.3363  0.5464  1.4210
  170MOL0     H22915   2.792   8.186   8.009 -1.9657  0.9363  0.2796
  170MOL0     H22916   2.875   8.343   8.203  0.5097  0.6002  0.3356
  170MOL0     H22917   2.922   8.192   8.284 -0.0390 -0.5614 -0.0693
  170MOL0     H22918   3.073   8.126   8.178  0.9963 -0.3682 -0.8787
  170MOL0     H22919   3.034   8.184   8.011  2.1353 -0.6253 -0.4915
  170MOL0     H22920   3.113   8.396   8.230  2.4935  0.1196  0.8616
  170MOL0     H22921   3.114   8.398   8.056 -0.2878 -1.3902 -0.1096
  170MOL0     H22922   3.301   8.207   8.103 -1.6361 -0.3722  0.1086
  170MOL0     H22923   3.302   8.310   8.251 -1.5472  1.4153  0.1881
  170MOL0     H22924   3.345   8.425   7.963  2.8550 -1.8751 -2.1079
  170MOL0     H22925   3.357   8.509   8.121 -0.6673  0.2368 -1.9971
  170MOL0     H22926   3.565   8.473   8.057 -0.7558  0.7516 -3.3032
  170MOL0     H22927   3.537   8.304   7.997  1.3858 -0.4372  0.9465
  170MOL0     H22928   3.516   8.371   8.298 -4.3529 -0.1091 -1.9832
  170MOL0     H22929   3.544   8.217   8.227 -1.0976  0.3065 -3.4894
  170MOL0     H22930   2.583   8.085   7.943  0.9837  3.5665  1.2413
  170MOL0     H22931   2.338   7.964   7.932 -1.6339  1.1216  0.5571
  170MOL0     H22932   1.951   7.955   8.064  4.2304 -0.3975  3.2284
  170MOL0     H22933   1.701   7.864   8.054  0.4494  0.6284  0.7216
  170MOL0     H22934   0.683   6.360   7.850 -1.6118  0.0245 -0.3270
  170MOL0     H22935   0.440   6.360   7.843  1.2755 -0.3348  0.7332
  170MOL0     H22936   0.087   6.374   7.948 -0.5542  0.8331 -1.6726
  170MOL0     H22937  -0.158   6.322   7.913 -0.5423  0.2757 -1.1776
  170MOL0     H22938  -0.368   6.311   7.904 -2.1871 -1.9198 -0.1213
  170MOL0     H22939  -0.516   6.407   7.914 -2.4176 -0.3737  3.1862
  170MOL0     H22940  -0.375   6.290   8.160  0.3871  1.1426  0.1117
  170MOL0     H22941  -0.493   6.200   8.063 -1.3535  1.3338 -3.3783
  170MOL0     H22942  -0.653   6.416   8.107 -0.9402 -1.3338  0.7143
  170MOL0     H22943  -0.528   6.475   8.227  1.7450 -1.1130  1.6914
  170MOL0     H22944  -0.666   6.208   8.232  0.0474  0.7657 -2.4607
  170MOL0     H22945  -0.564   6.275   8.364  0.4582 -4.2092 -0.7971
  170MOL0     H22946  -0.950   6.469   8.382 -0.9122 -0.2499 -2.0251
  170MOL0     H22947  -0.246   6.686   8.120 -2.5088 -1.9746  0.1083
  170MOL0     H22948   0.035   6.837   8.094  0.7940 -0.3105  0.6137
  170MOL0     H22949  -0.071   6.823   8.239 -0.8485  4.8519 -3.5694
  170MOL0     H22950   0.091   6.756   8.243 -0.3248  1.8508 -0.4905
  171MOL0     O22951   3.331   3.050  10.858 -0.2219 -0.9958  0.7232
  171MOL0     C22952   3.267   3.148  10.871 -0.1466 -0.5814 -0.2888
  171MOL0     O22953   3.314   3.277  10.885 -0.4257 -0.5122 -0.3257
  171MOL0     C22954   3.452   3.281  10.875  0.3570 -1.2936 -0.3583
  171MOL0     C22955   3.514   3.317  10.759 -0.1207 -0.0843 -0.3925
  171MOL0     C22956   3.653   3.330  10.754 -0.4647  0.1280  0.0990
  171MOL0     C22957   3.732   3.316  10.868  0.2279 -0.5576 -0.4211
  171MOL0     O22958   3.863   3.331  10.854  0.3154 -0.3864  0.2417
  171MOL0     C22959   3.958   3.220  10.884 -1.1382 -0.6821  0.7079
  171MOL0     C22960   4.090   3.263  10.830  0.1642 -0.2349 -0.6837
  171MOL0     C22961   4.158   3.370  10.926  0.1068  0.4219  0.4837
  171MOL0     C22962   4.281   3.428  10.856 -0.3477 -0.4058 -0.2237
  171MOL0     C22963   4.324   3.562  10.938  0.0441 -0.4099  0.1054
  171MOL0     C22964   4.465   3.602  10.893 -0.5915  0.5166 -0.1825
  171MOL0     C22965   4.528   3.721  10.964  0.1561 -0.7872 -0.7065
  171MOL0     C22966   4.667   3.751  10.924 -0.0635  0.2280 -0.2810
  171MOL0     N22967   4.706   3.886  10.960  0.4237 -0.1844  0.7477
  171MOL0     C22968   4.804   3.901  11.047  0.0970 -0.2116 -0.5393
  171MOL0     C22969   4.833   4.032  11.036 -0.2531 -0.6982 -0.3994
  171MOL0     C22970   4.933   4.111  11.127 -0.1190 -0.1419 -0.4259
  171MOL0     C22971   5.078   4.112  11.063  0.4173 -0.3933 -0.0908
  171MOL0     C22972   5.160   4.220  11.134 -0.4799 -0.5181  0.3306
  171MOL0     C22973   5.287   4.230  11.054 -0.5948 -0.5736 -1.2983
  171MOL0     O22974   5.355   4.333  11.124  1.2597  0.1494  0.3628
  171MOL0     C22975   5.484   4.362  11.100  0.0224 -1.4889  0.0808
  171MOL0     C22976   5.554   4.451  11.180  0.3845 -0.0789  0.4914
  171MOL0     C22977   5.686   4.494  11.139  0.9130 -0.3132 -0.4245
  171MOL0     C22978   5.749   4.437  11.030 -0.1997 -0.5637  0.2868
  171MOL0     C22979   5.882   4.492  11.000 -0.2475  0.4070  1.1626
  171MOL0     O22980   5.958   4.561  11.090  0.1511 -0.3607 -0.5136
  171MOL0     C22981   6.061   4.637  11.045  0.3356 -0.3832 -0.0359
  171MOL0     C22982   6.192   4.585  11.024  0.2052 -0.0693 -0.4291
  171MOL0     C22983   6.293   4.668  10.980 -0.4545  0.5996 -0.7463
  171MOL0     C22984   6.260   4.791  10.924 -0.6494  0.7969  0.4751
  171MOL0     O22985   6.363   4.845  10.854 -0.3379  0.3179 -1.0351
  171MOL0     C22986   6.328   4.968  10.785  0.4153 -0.5460 -0.5018
  171MOL0     C22987   6.464   5.023  10.732  0.7253 -0.3594 -0.1899
  171MOL0     C22988   6.548   5.066  10.848 -0.7153 -0.4234 -0.1617
  171MOL0     C22989   6.677   5.108  10.778  1.1497  0.8013  0.4575
  171MOL0     C22990   6.785   5.126  10.876 -0.5187  0.4500 -0.4939
  171MOL0     C22991   6.852   4.997  10.927 -0.0629  0.3691  0.0636
  171MOL0     C22992   7.007   4.999  10.962 -0.6414 -0.3777 -0.2135
  171MOL0     C22993   7.039   5.000  11.108 -1.2098 -0.3663 -0.2479
  171MOL0    Cl22994   7.222   4.964  11.114  0.2685 -0.4002  0.1800
  171MOL0     C22995   6.123   4.838  10.935  0.1471 -0.3205  0.0724
  171MOL0     C22996   6.030   4.761  10.998  0.0947 -0.2675  0.1683
  171MOL0     O22997   5.915   4.457  10.889 -0.7656 -0.2488  0.0157
  171MOL0     C22998   5.682   4.337  10.957 -0.3015  0.0987 -0.3691
  171MOL0     C22999   5.551   4.307  10.992 -0.1275  0.1318 -0.1045
  171MOL0     N23000   4.768   4.082  10.925 -0.2451  0.3945 -1.1061
  171MOL0     N23001   4.687   3.993  10.880  0.4438  0.2694  1.3503
  171MOL0     C23002   3.668   3.272  10.985 -0.0514 -0.1799 -0.1078
  171MOL0     C23003   3.527   3.269  10.997  0.3976  1.1971  0.7331
  171MOL0     C23004   3.120   3.132  10.887  0.4275 -0.9032 -0.2246
  171MOL0     C23005   3.048   3.252  10.887  0.0724  0.5150  0.6759
  171MOL0     C23006   2.908   3.250  10.903 -0.4660  0.7181  0.4434
  171MOL0     C23007   2.840   3.126  10.914 -0.3659 -0.0162 -1.0922
  171MOL0     O23008   2.707   3.110  10.937  0.1221  0.2441  0.3867
  171MOL0     C23009   2.631   3.229  10.916 -1.1045 -0.5817  0.0765
  171MOL0     C23010   2.484   3.187  10.906  0.2538  0.0308  0.0227
  171MOL0     C23011   2.439   3.105  11.039  0.0960  0.4058  0.2615
  171MOL0     C23012   2.422   2.956  11.008 -0.4595 -0.1660  0.6872
  171MOL0     C23013   2.367   2.891  11.123  0.5396  0.7014 -0.5654
  171MOL0     C23014   2.333   2.833  11.220 -0.1933  0.4609 -0.9350
  171MOL0     C23015   2.920   3.012  10.931  0.4635 -0.2230 -0.1651
  171MOL0     C23016   3.053   3.008  10.920  0.2038  0.4071 -0.0293
  171MOL0     C23017   3.125   2.872  10.928 -0.0267  0.4208 -0.7021
  171MOL0     H23018   3.459   3.334  10.667 -0.5408 -3.1323 -0.8129
  171MOL0     H23019   3.693   3.350  10.655 -1.6913  1.1221 -0.2241
  171MOL0     H23020   3.970   3.197  10.990 -0.3077 -1.3055  0.4919
  171MOL0     H23021   3.915   3.126  10.846 -0.0753 -1.5441  1.5528
  171MOL0     H23022   4.063   3.303  10.732  0.6149  0.3925 -0.5590
  171MOL0     H23023   4.157   3.178  10.811 -1.4056 -1.6478 -0.1133
  171MOL0     H23024   4.185   3.315  11.016 -1.3323 -0.3700  0.4695
  171MOL0     H23025   4.086   3.446  10.956 -0.5229  1.2465 -2.7535
  171MOL0     H23026   4.362   3.357  10.840  0.4701  0.9827 -2.9245
  171MOL0     H23027   4.277   3.462  10.752  3.1008  1.9717  0.2612
  171MOL0     H23028   4.251   3.637  10.905 -0.5892 -1.0939 -0.0688
  171MOL0     H23029   4.311   3.557  11.046 -1.6208  0.4331 -0.0209
  171MOL0     H23030   4.538   3.521  10.893  2.0788  2.7659 -0.3061
  171MOL0     H23031   4.473   3.621  10.785  1.0433 -1.3468 -0.4375
  171MOL0     H23032   4.522   3.699  11.071 -3.0866  1.1619 -0.3444
  171MOL0     H23033   4.466   3.807  10.939 -0.0715 -0.2196  1.6133
  171MOL0     H23034   4.731   3.681  10.979  0.5705  0.6025 -0.5348
  171MOL0     H23035   4.687   3.753  10.817  1.0823  0.5796 -0.0713
  171MOL0     H23036   4.847   3.830  11.118 -0.9750  0.6030  0.9876
  171MOL0     H23037   4.882   4.207  11.132 -0.9869 -0.6345  0.8788
  171MOL0     H23038   4.932   4.076  11.231  0.5234 -0.1075 -0.4041
  171MOL0     H23039   5.117   4.011  11.079 -0.1217 -0.7202 -0.7791
  171MOL0     H23040   5.073   4.133  10.956  2.0522 -1.1026 -0.3210
  171MOL0     H23041   5.179   4.180  11.234  1.9207 -1.3249 -0.3863
  171MOL0     H23042   5.113   4.318  11.145  2.5771  1.0934 -0.0373
  171MOL0     H23043   5.263   4.267  10.954  0.6858 -0.6603 -1.6439
  171MOL0     H23044   5.357   4.146  11.061  0.8007  0.6207 -0.1712
  171MOL0     H23045   5.517   4.493  11.273  0.8779 -3.4383  2.4011
  171MOL0     H23046   5.740   4.568  11.198  1.1192 -0.4585 -0.4309
  171MOL0     H23047   6.238   4.492  11.056  0.8369  1.5713  4.1781
  171MOL0     H23048   6.396   4.634  10.981  0.3112  2.7810  0.2374
  171MOL0     H23049   6.265   4.943  10.699  0.4772 -2.3860 -0.0724
  171MOL0     H23050   6.288   5.045  10.851 -0.6907  2.6609 -4.4768
  171MOL0     H23051   6.502   4.945  10.665 -2.3690 -0.9909 -1.4020
  171MOL0     H23052   6.445   5.111  10.670 -1.2102 -2.3276 -2.6502
  171MOL0     H23053   6.499   5.146  10.906  2.6032  0.4851  1.6700
  171MOL0     H23054   6.573   4.981  10.912  0.7095 -1.1799 -1.6374
  171MOL0     H23055   6.662   5.201  10.723  0.9227 -1.4318 -3.6490
  171MOL0     H23056   6.702   5.031  10.704  1.6652  2.1271 -0.7881
  171MOL0     H23057   6.751   5.178  10.966  1.3625  1.6272 -0.4180
  171MOL0     H23058   6.870   5.174  10.827 -0.3830 -0.0129 -0.7176
  171MOL0     H23059   6.796   4.954  11.011  1.6091  0.1011  1.0740
  171MOL0     H23060   6.840   4.926  10.845  0.3724  0.0036  0.3142
  171MOL0     H23061   7.067   5.084  10.930  2.0832 -2.3693 -0.7771
  171MOL0     H23062   7.051   4.912  10.912 -2.2452 -1.5124  0.2373
  171MOL0     H23063   7.010   5.094  11.155 -0.5712 -0.1571 -0.2582
  171MOL0     H23064   6.984   4.921  11.160  0.0876 -0.5580  0.8868
  171MOL0     H23065   6.087   4.938  10.910  0.6169 -0.6407 -2.0441
  171MOL0     H23066   5.929   4.797  11.011  0.4611  0.2469  1.7482
  171MOL0     H23067   5.723   4.294  10.866 -1.4167  0.0538 -0.8656
  171MOL0     H23068   5.501   4.243  10.919  0.8875  2.1707 -2.7191
  171MOL0     H23069   3.738   3.251  11.065 -2.0952 -1.7232  1.3852
  171MOL0     H23070   3.475   3.259  11.092 -0.4105 -0.6018  0.1419
  171MOL0     H23071   3.087   3.351  10.865  1.6639 -0.4617 -1.3317
  171MOL0     H23072   2.854   3.344  10.900  2.1236  2.4048  2.2214
  171MOL0     H23073   2.653   3.277  10.820  0.0425 -0.6682  0.2797
  171MOL0     H23074   2.656   3.300  10.995 -0.2235 -0.5780 -0.1903
  171MOL0     H23075   2.463   3.128  10.817  0.9490 -3.6152  2.0551
  171MOL0     H23076   2.430   3.282  10.906 -0.8556 -0.5559  1.5980
  171MOL0     H23077   2.346   3.146  11.079 -0.4100 -0.6764  0.2498
  171MOL0     H23078   2.503   3.112  11.128 -1.6906 -0.0272  1.6411
  171MOL0     H23079   2.356   2.943  10.923 -2.0956  0.0855  1.8672
  171MOL0     H23080   2.518   2.914  10.978 -1.1841 -0.1102 -1.8888
  171MOL0     H23081   2.315   2.783  11.313 -0.0521  1.7087 -0.2213
  171MOL0     H23082   2.861   2.924  10.949  0.4108 -0.1551 -0.0067
  171MOL0     H23083   3.050   2.796  10.949  1.0165 -0.2883  0.6223
  171MOL0     H23084   3.168   2.845  10.831  2.0780 -0.4612  0.4105
  171MOL0     H23085   3.205   2.865  11.002  1.0429  2.3022 -1.5854
  172MOL0     O23086   9.497  10.929   6.268  0.1532 -0.1389  0.4721
  172MOL0     C23087   9.417  10.929   6.363  0.4244  0.5913 -0.2501
  172MOL0     O23088   9.444  10.922   6.496 -0.8170  0.9195 -0.3988
  172MOL0     C23089   9.571  10.944   6.543 -0.1463 -0.0654 -0.1145
  172MOL0     C23090   9.666  11.030   6.488 -0.7752 -1.0226 -0.6931
  172MOL0     C23091   9.787  11.066   6.556  0.1580 -0.2138 -0.5974
  172MOL0     C23092   9.811  11.014   6.683  0.6254  0.2551 -0.2252
  172MOL0     O23093   9.914  11.045   6.765 -0.4664 -0.1569 -0.1029
  172MOL0     C23094  10.040  11.093   6.702  0.2709 -0.5046 -0.7421
  172MOL0     C23095  10.113  10.974   6.649 -0.8073  0.6427 -0.1756
  172MOL0     C23096  10.271  10.999   6.641 -0.3239  0.8547 -1.0997
  172MOL0     C23097  10.297  11.110   6.543  0.3751  0.0722 -0.3739
  172MOL0     C23098  10.441  11.130   6.504  0.5061 -0.7937 -0.3697
  172MOL0     C23099  10.523  11.148   6.631  0.2749  0.5183 -0.2738
  172MOL0     C23100  10.662  11.198   6.593 -0.5525  0.3083 -0.3186
  172MOL0     C23101  10.750  11.203   6.717  0.0692  0.0861  0.8856
  172MOL0     N23102  10.888  11.183   6.672  0.4100  0.0910 -0.0252
  172MOL0     C23103  10.947  11.057   6.649  0.6043  0.2063 -0.8569
  172MOL0     C23104  11.047  11.092   6.561 -0.1746 -0.0176  0.2900
  172MOL0     C23105  11.158  10.996   6.510  0.2178  0.5527  0.1631
  172MOL0     C23106  11.301  11.044   6.559  0.4595  0.5103 -0.3510
  172MOL0     C23107  11.321  11.024   6.704  0.6642 -0.3635 -0.4002
  172MOL0     C23108  11.433  11.107   6.763  0.3565  0.5561 -1.1217
  172MOL0     O23109  11.439  11.093   6.909 -0.3479  0.7336  0.1844
  172MOL0     C23110  11.524  11.177   6.973  0.6612 -0.2561  0.0435
  172MOL0     C23111  11.646  11.221   6.918 -0.0145 -0.2316  0.7746
  172MOL0     C23112  11.716  11.308   6.994  0.1707 -0.0649  0.4573
  172MOL0     C23113  11.680  11.348   7.121 -0.3968  0.3709 -0.6467
  172MOL0     C23114  11.775  11.432   7.197 -0.6830  1.0180 -0.0502
  172MOL0     O23115  11.894  11.470   7.132  0.1928 -0.0047  0.2176
  172MOL0     C23116  11.976  11.574   7.160  1.3738 -0.2131 -0.8939
  172MOL0     C23117  11.930  11.687   7.225 -0.3524 -0.6918  0.3199
  172MOL0     C23118  12.023  11.788   7.259  0.0192 -0.0615 -0.1688
  172MOL0     C23119  12.157  11.768   7.232 -0.8896  0.2744 -0.3238
  172MOL0     O23120  12.265  11.849   7.266  0.4541  0.5665  0.5418
  172MOL0     C23121  12.222  11.973   7.319 -0.6045 -0.0969 -0.0303
  172MOL0     C23122  12.336  12.064   7.371 -0.1328 -0.0067 -0.8510
  172MOL0     C23123  12.439  12.001   7.460  0.5412  0.7855 -1.0062
  172MOL0     C23124  12.382  11.884   7.557  0.3649 -0.3827  0.8543
  172MOL0     C23125  12.482  11.831   7.663 -0.2674 -0.5299 -0.5297
  172MOL0     C23126  12.415  11.804   7.800  0.8200 -0.4768  0.1580
  172MOL0     C23127  12.515  11.754   7.911 -0.2871  0.4655  0.4344
  172MOL0     C23128  12.566  11.610   7.893  0.0519 -0.2394 -0.9889
  172MOL0    Cl23129  12.654  11.560   7.742  0.1125 -0.2138  0.0562
  172MOL0     C23130  12.198  11.654   7.164 -0.4939  0.2439  0.1599
  172MOL0     C23131  12.104  11.561   7.119 -0.1250 -0.3187  1.0661
  172MOL0     O23132  11.742  11.465   7.307 -0.4849 -0.3915 -0.1539
  172MOL0     C23133  11.557  11.307   7.174  0.2483  0.2095 -0.5704
  172MOL0     C23134  11.474  11.232   7.094  0.5041 -1.0068 -0.3111
  172MOL0     N23135  11.047  11.227   6.533 -0.4902  0.1736  0.3878
  172MOL0     N23136  10.947  11.279   6.602 -1.1198 -0.3473  0.3327
  172MOL0     C23137   9.713  10.934   6.740 -0.1276 -0.2980 -0.0684
  172MOL0     C23138   9.593  10.904   6.672 -0.6260  0.0213  0.0475
  172MOL0     C23139   9.274  10.950   6.330  0.8808  0.2990  0.5341
  172MOL0     C23140   9.238  10.975   6.198  0.0960 -0.4879  1.3406
  172MOL0     C23141   9.106  10.981   6.151  0.3243  0.1386  0.0014
  172MOL0     C23142   8.997  10.974   6.241  0.4333 -0.5137  0.1218
  172MOL0     O23143   8.863  10.976   6.197  0.2053 -0.0274 -0.2830
  172MOL0     C23144   8.831  11.026   6.062 -0.3391  0.0654  0.0774
  172MOL0     C23145   8.679  11.032   6.028  0.7021  0.7995  0.2013
  172MOL0     C23146   8.613  10.886   6.031  0.1592  0.6519  0.3810
  172MOL0     C23147   8.486  10.875   5.948 -0.6298 -0.1005  0.1991
  172MOL0     C23148   8.393  10.985   5.990  0.5936 -0.0589 -0.0110
  172MOL0     C23149   8.314  11.065   6.030 -0.2901 -0.2309  0.1903
  172MOL0     C23150   9.027  10.942   6.372  0.1449 -0.7478  1.2876
  172MOL0     C23151   9.159  10.937   6.417 -0.4564  0.1527 -0.6623
  172MOL0     C23152   9.175  10.934   6.565 -0.1812  0.2716 -0.2324
  172MOL0     H23153   9.673  11.060   6.384  0.1266 -1.9707 -0.9140
  172MOL0     H23154   9.857  11.124   6.496  0.0196  0.8208  0.2115
  172MOL0     H23155  10.029  11.172   6.628  2.0701 -0.3104 -0.8562
  172MOL0     H23156  10.105  11.152   6.766 -3.1675  3.1408 -0.2376
  172MOL0     H23157  10.076  10.948   6.549 -0.7019 -2.5569  0.5062
  172MOL0     H23158  10.087  10.888   6.711 -1.3258  0.2137 -0.9646
  172MOL0     H23159  10.304  10.904   6.598 -1.0586  0.1087 -0.0497
  172MOL0     H23160  10.319  11.014   6.739 -2.0641  1.5409 -0.3197
  172MOL0     H23161  10.236  11.095   6.454  0.5925 -1.7314 -0.2602
  172MOL0     H23162  10.267  11.201   6.596 -0.6051 -0.6579  0.3754
  172MOL0     H23163  10.472  11.048   6.439  0.2398 -2.8489  1.9731
  172MOL0     H23164  10.440  11.225   6.449 -0.5382  0.7357  2.1090
  172MOL0     H23165  10.487  11.220   6.704 -0.5669 -1.1490  1.0187
  172MOL0     H23166  10.523  11.048   6.675 -1.0332  1.1938  1.3790
  172MOL0     H23167  10.650  11.299   6.553  0.7115  2.2049  3.6242
  172MOL0     H23168  10.712  11.132   6.522  3.0018  2.3787  0.0415
  172MOL0     H23169  10.733  11.300   6.764  1.2147  0.2268  1.0286
  172MOL0     H23170  10.721  11.130   6.793 -0.2985  1.1448  1.7952
  172MOL0     H23171  10.919  10.959   6.686  0.2838 -0.2219 -2.1591
  172MOL0     H23172  11.139  10.895   6.546  2.5677  0.1165  0.3018
  172MOL0     H23173  11.158  11.004   6.401  0.4290 -3.1219 -0.2146
  172MOL0     H23174  11.378  10.986   6.507  0.0337  1.3569 -2.0152
  172MOL0     H23175  11.316  11.150   6.539 -0.7766  1.1952  1.9615
  172MOL0     H23176  11.343  10.917   6.710 -1.9465 -0.9396  0.5014
  172MOL0     H23177  11.228  11.047   6.758  0.8931  1.5725 -0.7578
  172MOL0     H23178  11.427  11.213   6.739  0.4034  0.5448 -1.1829
  172MOL0     H23179  11.532  11.071   6.733  1.4970  1.0206  1.7162
  172MOL0     H23180  11.685  11.197   6.819 -0.2924  2.1455  0.0086
  172MOL0     H23181  11.798  11.346   6.934 -1.4831  0.4480 -1.5754
  172MOL0     H23182  11.824  11.686   7.246 -0.6242 -2.1525 -0.9437
  172MOL0     H23183  11.987  11.869   7.321  2.2874  1.3437 -0.5445
  172MOL0     H23184  12.163  12.035   7.250  1.0947 -1.5011 -2.9224
  172MOL0     H23185  12.163  11.961   7.410 -2.3057 -1.1436 -1.2111
  172MOL0     H23186  12.383  12.106   7.281 -1.1187 -0.3104 -1.5283
  172MOL0     H23187  12.276  12.144   7.415 -0.4967 -0.0045 -1.3403
  172MOL0     H23188  12.518  11.960   7.395 -0.0794 -1.2101 -0.5845
  172MOL0     H23189  12.485  12.080   7.519  1.6014 -0.5054 -0.0408
  172MOL0     H23190  12.356  11.796   7.499 -0.6177  1.7556 -2.2068
  172MOL0     H23191  12.291  11.917   7.609  2.2420  0.5801  3.8177
  172MOL0     H23192  12.570  11.895   7.677  1.7577 -3.0851 -0.8737
  172MOL0     H23193  12.518  11.737   7.621  0.3935 -0.7796  0.5635
  172MOL0     H23194  12.366  11.896   7.833  1.9225 -0.0980  0.7991
  172MOL0     H23195  12.333  11.733   7.785  1.0766 -1.0384  1.2866
  172MOL0     H23196  12.459  11.760   8.004 -0.0395  4.1532  0.5029
  172MOL0     H23197  12.599  11.819   7.936  2.0069 -2.7282  1.7742
  172MOL0     H23198  12.633  11.592   7.978  1.9694  3.7716 -1.4371
  172MOL0     H23199  12.481  11.541   7.894  1.5547 -2.1985  0.1227
  172MOL0     H23200  12.302  11.639   7.136 -0.4095  3.3931 -1.7086
  172MOL0     H23201  12.135  11.471   7.067  0.0267  1.3280 -1.8528
  172MOL0     H23202  11.529  11.344   7.272 -1.9514  0.0288 -1.0862
  172MOL0     H23203  11.379  11.217   7.144 -0.2356  0.7345 -1.1075
  172MOL0     H23204   9.721  10.901   6.843  0.2836  3.6898  1.3430
  172MOL0     H23205   9.521  10.844   6.727 -0.8939 -0.8564 -1.2035
  172MOL0     H23206   9.308  10.984   6.116 -1.9369 -3.7431 -1.0310
  172MOL0     H23207   9.092  10.988   6.044 -1.9512 -0.8505  0.1607
  172MOL0     H23208   8.867  10.962   5.981 -1.4001 -3.2169  2.0130
  172MOL0     H23209   8.875  11.125   6.049 -0.6684  0.4993  2.0729
  172MOL0     H23210   8.659  11.083   5.933  0.9179  1.1140  0.3262
  172MOL0     H23211   8.633  11.093   6.106 -1.2785  0.9005 -0.9519
  172MOL0     H23212   8.585  10.858   6.133  3.3598 -2.2742  0.6441
  172MOL0     H23213   8.688  10.812   6.005 -0.7943 -0.7626  1.4510
  172MOL0     H23214   8.507  10.884   5.841 -2.4701 -0.4544 -0.2291
  172MOL0     H23215   8.433  10.781   5.962  1.3988 -1.2655  0.4081
  172MOL0     H23216   8.245  11.142   6.061  0.7908  0.6586  0.4282
  172MOL0     H23217   8.955  10.898   6.440 -0.3595  0.2251  1.4065
  172MOL0     H23218   9.081  10.958   6.615  1.3384  2.2023  1.9136
  172MOL0     H23219   9.220  10.842   6.603  0.9128  0.7668 -0.2845
  172MOL0     H23220   9.240  11.015   6.600  0.1947 -1.2322  2.8628
  173MOL0     O23221   7.615   7.087   8.505 -0.0072 -0.0690  0.1066
  173MOL0     C23222   7.539   7.178   8.482  0.1233  0.2003  0.3556
  173MOL0     O23223   7.566   7.284   8.394  0.2592 -0.1434  0.4276
  173MOL0     C23224   7.663   7.268   8.297 -0.1323  0.5657 -0.6981
  173MOL0     C23225   7.777   7.340   8.322  0.1310  0.2567  0.3014
  173MOL0     C23226   7.882   7.332   8.229 -0.0330  0.3382 -0.4053
  173MOL0     C23227   7.877   7.256   8.114 -0.2461 -0.9639  0.1216
  173MOL0     O23228   7.987   7.238   8.034  0.2681 -0.2412  0.8748
  173MOL0     C23229   8.102   7.200   8.100  0.4137 -0.6148 -0.2035
  173MOL0     C23230   8.216   7.215   7.996 -0.1918 -0.3208 -0.3782
  173MOL0     C23231   8.354   7.172   8.054 -0.5307 -0.0602  0.2377
  173MOL0     C23232   8.457   7.161   7.951  1.0005 -0.2056 -0.5963
  173MOL0     C23233   8.568   7.052   7.969 -0.5590 -0.3534  0.1638
  173MOL0     C23234   8.667   7.087   8.082 -0.7495 -0.2673  0.1053
  173MOL0     C23235   8.785   6.976   8.057 -1.0479 -0.1092  1.1754
  173MOL0     C23236   8.898   6.974   8.161  0.9711 -0.5131  0.6595
  173MOL0     N23237   8.964   6.849   8.152 -0.2869  0.1965 -0.2868
  173MOL0     C23238   8.907   6.724   8.178 -0.2678  0.3609  0.1089
  173MOL0     C23239   8.997   6.641   8.130 -0.1785 -0.7915 -0.4303
  173MOL0     C23240   8.941   6.496   8.102 -0.2727 -0.5541  0.5267
  173MOL0     C23241   9.001   6.392   8.190  0.4429  0.2461  0.2904
  173MOL0     C23242   9.152   6.398   8.225 -0.6799  0.0334  0.3929
  173MOL0     C23243   9.230   6.358   8.095  0.0179  0.7540  0.0103
  173MOL0     O23244   9.370   6.338   8.124  0.4008 -0.1782  0.2247
  173MOL0     C23245   9.457   6.439   8.088 -0.0153 -0.3220  0.4733
  173MOL0     C23246   9.465   6.495   7.959 -0.0652 -0.2321  0.7386
  173MOL0     C23247   9.555   6.604   7.931 -0.7378  1.0654 -0.5081
  173MOL0     C23248   9.656   6.637   8.030  0.2506 -0.4049  0.2563
  173MOL0     C23249   9.768   6.727   7.993  0.0945 -0.2473 -0.5117
  173MOL0     O23250   9.817   6.805   8.103 -0.3234  0.4080 -0.0180
  173MOL0     C23251   9.916   6.893   8.068 -0.3818  0.0004  0.2391
  173MOL0     C23252  10.033   6.893   8.146  0.1860  0.1585 -0.2521
  173MOL0     C23253  10.124   6.996   8.134  0.2634  0.2789 -0.5457
  173MOL0     C23254  10.104   7.095   8.038 -0.2900 -1.0361  0.0994
  173MOL0     O23255  10.209   7.185   8.004 -0.0476 -0.1546 -0.5331
  173MOL0     C23256  10.249   7.214   7.865 -0.3542 -0.5456 -0.7275
  173MOL0     C23257  10.353   7.105   7.830 -0.6024  0.1708  0.3194
  173MOL0     C23258  10.497   7.129   7.884 -0.5576 -0.0186  0.7834
  173MOL0     C23259  10.570   7.246   7.822 -0.6474  0.4471 -0.7127
  173MOL0     C23260  10.717   7.244   7.858  0.1179 -0.0123  0.1121
  173MOL0     C23261  10.750   7.239   8.006 -0.5140 -0.3138  0.6271
  173MOL0     C23262  10.903   7.231   8.034 -0.2637  0.8154 -0.1956
  173MOL0     C23263  10.981   7.116   7.966  0.0100  0.5700 -0.4431
  173MOL0    Cl23264  10.938   6.950   8.035  0.1292  0.0188  0.0282
  173MOL0     C23265   9.981   7.105   7.970  0.5021  0.8017 -0.7026
  173MOL0     C23266   9.884   7.001   7.984 -0.6912  0.6436 -0.3037
  173MOL0     O23267   9.801   6.733   7.876  0.3499  0.2991 -0.1232
  173MOL0     C23268   9.643   6.573   8.159 -0.3445 -0.1341  0.1978
  173MOL0     C23269   9.546   6.480   8.183 -0.7625  0.1398  0.2186
  173MOL0     N23270   9.116   6.707   8.097  0.6544 -0.1828  0.1193
  173MOL0     N23271   9.096   6.834   8.108 -0.1662  0.3073 -0.1937
  173MOL0     C23272   7.757   7.188   8.082  0.0425 -0.0523  0.6748
  173MOL0     C23273   7.649   7.204   8.175 -0.0246  0.1156  0.4884
  173MOL0     C23274   7.400   7.180   8.546  0.9645 -0.3421 -0.0847
  173MOL0     C23275   7.298   7.209   8.463  0.1228 -0.4781  0.9080
  173MOL0     C23276   7.166   7.222   8.498  0.1325 -0.1887 -0.0316
  173MOL0     C23277   7.136   7.217   8.633  0.5909 -0.0975  0.0463
  173MOL0     O23278   7.011   7.205   8.681 -0.2061 -0.3085  0.1920
  173MOL0     C23279   6.892   7.232   8.598 -0.4904 -0.3166 -0.3053
  173MOL0     C23280   6.761   7.213   8.665  0.3451  0.5699  0.9001
  173MOL0     C23281   6.735   7.333   8.756 -0.0302  0.3211 -0.2464
  173MOL0     C23282   6.616   7.320   8.865 -0.8402  0.0634  0.2823
  173MOL0     C23283   6.479   7.348   8.820  0.3088 -0.1126  0.5153
  173MOL0     C23284   6.371   7.376   8.776 -0.6781 -0.7879  0.9586
  173MOL0     C23285   7.246   7.181   8.717 -0.1821  1.1003 -0.1432
  173MOL0     C23286   7.380   7.176   8.681 -0.7902  0.5038  0.1405
  173MOL0     C23287   7.480   7.158   8.782 -0.3526  0.1674 -0.5989
  173MOL0     H23288   7.786   7.391   8.418  1.2207  1.4339 -0.3928
  173MOL0     H23289   7.970   7.390   8.253  0.8300 -0.5590 -1.2604
  173MOL0     H23290   8.123   7.263   8.187  2.3578 -1.5700  0.0856
  173MOL0     H23291   8.103   7.094   8.126  3.1804 -1.1725 -2.1231
  173MOL0     H23292   8.233   7.319   7.966 -0.1209 -0.3322 -0.3791
  173MOL0     H23293   8.197   7.156   7.906  3.3438 -0.5995 -1.1064
  173MOL0     H23294   8.352   7.070   8.094 -1.1014  0.5309  1.7821
  173MOL0     H23295   8.382   7.246   8.129 -1.3787 -1.5232  2.0847
  173MOL0     H23296   8.407   7.133   7.858  2.9962 -3.2481 -0.9004
  173MOL0     H23297   8.503   7.261   7.954 -2.5625  1.5862 -0.1774
  173MOL0     H23298   8.523   6.954   7.987 -1.3236  0.0224  0.3443
  173MOL0     H23299   8.615   7.039   7.871 -1.7074 -2.7273 -0.1435
  173MOL0     H23300   8.713   7.186   8.078 -2.2240  0.4768  0.7406
  173MOL0     H23301   8.612   7.075   8.175 -1.5266 -2.9141 -0.6153
  173MOL0     H23302   8.826   6.987   7.956 -0.4323 -3.1331  0.9908
  173MOL0     H23303   8.740   6.876   8.056  2.0175 -1.8427 -3.8978
  173MOL0     H23304   8.961   7.063   8.157 -2.1561  1.8410 -0.5294
  173MOL0     H23305   8.848   6.971   8.258  0.0913  2.1842  0.3684
  173MOL0     H23306   8.804   6.700   8.203 -0.3899 -1.6454 -1.9408
  173MOL0     H23307   8.835   6.492   8.127  0.3975 -3.8939  3.6528
  173MOL0     H23308   8.959   6.475   7.996  2.4379  1.7066  0.4266
  173MOL0     H23309   8.940   6.403   8.280 -0.9000  0.3772 -0.6055
  173MOL0     H23310   8.987   6.296   8.140 -0.1414  0.1565  0.6136
  173MOL0     H23311   9.187   6.322   8.294 -2.5723  0.7630  2.2731
  173MOL0     H23312   9.175   6.491   8.278 -2.7411  0.3566  0.8054
  173MOL0     H23313   9.201   6.438   8.027 -2.0159  1.6290  1.7758
  173MOL0     H23314   9.187   6.265   8.057 -0.0295  0.2765  1.1885
  173MOL0     H23315   9.409   6.467   7.871  2.8161  2.5531 -2.2764
  173MOL0     H23316   9.553   6.643   7.830 -2.5153 -1.5726 -1.6045
  173MOL0     H23317  10.047   6.819   8.224 -0.7276 -0.3955 -0.6026
  173MOL0     H23318  10.224   6.993   8.176  1.5106  2.0496 -3.1036
  173MOL0     H23319  10.165   7.225   7.797 -0.5727  1.3746 -0.1923
  173MOL0     H23320  10.305   7.308   7.863 -1.7471  0.4819  2.4015
  173MOL0     H23321  10.314   7.019   7.886 -4.0853  3.1114  2.9164
  173MOL0     H23322  10.361   7.080   7.724 -0.2479  0.3550  0.2995
  173MOL0     H23323  10.503   7.143   7.992  2.1530 -0.4215  0.7512
  173MOL0     H23324  10.551   7.037   7.861 -0.0670  0.4063  0.2161
  173MOL0     H23325  10.529   7.343   7.850 -1.3747 -0.3351  1.1316
  173MOL0     H23326  10.554   7.231   7.715  1.2315 -2.8258 -0.6748
  173MOL0     H23327  10.764   7.333   7.815 -0.7220 -1.0145 -3.2142
  173MOL0     H23328  10.753   7.149   7.816 -1.5664 -0.7000  0.1419
  173MOL0     H23329  10.714   7.324   8.065  1.5457 -0.8132  2.7724
  173MOL0     H23330  10.707   7.151   8.055  3.0323 -2.0637  0.9383
  173MOL0     H23331  10.906   7.202   8.139 -0.9483  2.0390  0.1689
  173MOL0     H23332  10.950   7.329   8.023 -2.9739  1.9506 -3.6379
  173MOL0     H23333  10.980   7.116   7.857  3.5997 -0.7029 -0.6020
  173MOL0     H23334  11.086   7.135   7.989  0.0679  1.5144 -1.4209
  173MOL0     H23335   9.968   7.184   7.897 -4.2334  0.8159 -0.1491
  173MOL0     H23336   9.785   7.006   7.939 -2.4699  1.9417  3.3940
  173MOL0     H23337   9.713   6.596   8.239  1.4308 -0.3781 -1.2105
  173MOL0     H23338   9.538   6.440   8.283  1.2457 -0.7878  0.0469
  173MOL0     H23339   7.744   7.138   7.987  0.8833  0.1648  0.4398
  173MOL0     H23340   7.555   7.154   8.157  0.8012 -1.3446  0.0238
  173MOL0     H23341   7.311   7.218   8.355  0.1198  0.3013  0.9657
  173MOL0     H23342   7.090   7.227   8.421 -0.0213 -1.7132 -0.0033
  173MOL0     H23343   6.900   7.175   8.506  2.5036  1.7674 -1.5276
  173MOL0     H23344   6.909   7.336   8.568 -2.7562  0.2679  0.2575
  173MOL0     H23345   6.780   7.125   8.728  3.2944  0.6996  0.3496
  173MOL0     H23346   6.687   7.180   8.592  1.6550 -1.3483  0.3521
  173MOL0     H23347   6.712   7.422   8.696  0.0855  1.1896  0.9684
  173MOL0     H23348   6.825   7.347   8.817 -0.9965  2.9188  0.7627
  173MOL0     H23349   6.625   7.218   8.904  0.5283 -0.0997 -0.3942
  173MOL0     H23350   6.647   7.396   8.938 -1.6304 -1.5767  2.4422
  173MOL0     H23351   6.276   7.403   8.734  0.4333  0.8745 -0.6646
  173MOL0     H23352   7.220   7.158   8.820 -0.0792  2.0757  0.1116
  173MOL0     H23353   7.446   7.157   8.885  1.7076  4.6513  0.3837
  173MOL0     H23354   7.520   7.058   8.761  0.3262  0.4258 -0.5747
  173MOL0     H23355   7.561   7.231   8.767  2.8594 -2.0012  3.8464
  174MOL0     O23356   7.796   9.488  10.360  0.0866  0.3140  0.2348
  174MOL0     C23357   7.788   9.404  10.267  0.2037 -0.6760 -0.6931
  174MOL0     O23358   7.883   9.379  10.169 -1.1399 -0.6035 -0.1191
  174MOL0     C23359   8.007   9.420  10.163 -0.9399 -0.1530  0.0506
  174MOL0     C23360   8.070   9.409  10.038  0.0744 -0.4849  0.8746
  174MOL0     C23361   8.208   9.448  10.010  0.7371 -0.2042  0.1909
  174MOL0     C23362   8.288   9.495  10.117 -0.4254  0.3673 -0.6996
  174MOL0     O23363   8.414   9.549  10.110  0.4228  0.1520 -0.1288
  174MOL0     C23364   8.467   9.551   9.972 -0.0313 -0.3823  0.0290
  174MOL0     C23365   8.602   9.609   9.973 -0.0463  0.3245  0.4923
  174MOL0     C23366   8.617   9.752  10.031 -0.1561  0.6620  0.2710
  174MOL0     C23367   8.754   9.798   9.988  0.6892 -0.2592  0.0677
  174MOL0     C23368   8.785   9.937  10.046 -0.2610  0.3500  0.8035
  174MOL0     C23369   8.905  10.009   9.986  0.3930 -0.3337 -0.1773
  174MOL0     C23370   9.039   9.939  10.043  0.5428 -0.4521  0.1188
  174MOL0     C23371   9.075   9.973  10.194  0.1984 -0.2819 -0.0838
  174MOL0     N23372   9.203   9.907  10.226  0.3475 -0.9975 -1.0166
  174MOL0     C23373   9.320   9.975  10.245 -0.4672 -0.3881 -0.6111
  174MOL0     C23374   9.413   9.874  10.246  1.0124 -0.6344  0.2962
  174MOL0     C23375   9.570   9.883  10.252 -0.2624 -0.4496 -0.5589
  174MOL0     C23376   9.613   9.964  10.365 -0.8524 -0.7552 -0.9021
  174MOL0     C23377   9.582   9.919  10.508 -0.1687  0.6929  0.6007
  174MOL0     C23378   9.633   9.778  10.548  0.0102  1.1992  0.5989
  174MOL0     O23379   9.570   9.728  10.665  0.2205  0.6424  0.6293
  174MOL0     C23380   9.465   9.648  10.664 -0.2749  0.6110 -0.2489
  174MOL0     C23381   9.433   9.587  10.788  0.2141  0.7682 -0.9434
  174MOL0     C23382   9.322   9.505  10.788 -0.1481  0.3097  0.3460
  174MOL0     C23383   9.234   9.487  10.676 -0.4487 -0.1383 -0.8015
  174MOL0     C23384   9.112   9.403  10.684 -0.6736  0.7024 -0.5263
  174MOL0     O23385   9.106   9.327  10.796  0.2828 -0.4262 -0.3821
  174MOL0     C23386   8.990   9.276  10.834  0.9807 -0.4205  0.1017
  174MOL0     C23387   8.864   9.343  10.826  0.4367 -0.5476  0.2503
  174MOL0     C23388   8.754   9.287  10.891 -0.1933  0.4888 -0.1177
  174MOL0     C23389   8.762   9.164  10.956  0.1762  0.0978  0.0106
  174MOL0     O23390   8.646   9.105  11.013  0.3124  0.1923  0.5339
  174MOL0     C23391   8.530   9.097  10.933  0.3698  0.6413 -0.0980
  174MOL0     C23392   8.413   9.030  11.007 -0.0461  0.2737  1.4566
  174MOL0     C23393   8.308   8.965  10.909 -0.1249 -0.1069 -0.0622
  174MOL0     C23394   8.196   8.881  10.980  0.7421  0.6618 -0.8203
  174MOL0     C23395   8.099   8.805  10.882  0.7565  0.2307 -0.1015
  174MOL0     C23396   7.992   8.721  10.944  0.4359  0.7105 -0.4806
  174MOL0     C23397   8.056   8.589  10.972 -0.2769  0.2897 -0.1508
  174MOL0     C23398   7.960   8.496  11.035 -0.1862 -0.5955  0.2839
  174MOL0    Cl23399   7.831   8.446  10.913 -0.2682  0.0555  0.0204
  174MOL0     C23400   8.887   9.103  10.959  0.0951  0.5753  0.3325
  174MOL0     C23401   9.000   9.156  10.903  0.2274 -0.2683 -0.6278
  174MOL0     O23402   9.038   9.395  10.588  0.2530 -0.1210 -0.2111
  174MOL0     C23403   9.268   9.556  10.561 -0.3536 -1.1443  0.1133
  174MOL0     C23404   9.379   9.640  10.550  0.7346 -0.2248 -0.1382
  174MOL0     N23405   9.343   9.755  10.237 -0.5159  0.5992  1.0807
  174MOL0     N23406   9.216   9.770  10.236  0.4473  0.1873  0.1785
  174MOL0     C23407   8.232   9.488  10.249 -0.0718  0.2553  0.0653
  174MOL0     C23408   8.088   9.462  10.268  0.2031 -1.2510  0.8439
  174MOL0     C23409   7.656   9.334  10.232  0.4995  0.0624  0.4123
  174MOL0     C23410   7.636   9.289  10.099  0.3439 -0.9383  0.1672
  174MOL0     C23411   7.511   9.244  10.062 -0.1377 -0.4915 -0.3341
  174MOL0     C23412   7.415   9.210  10.162  0.7409  0.1853  0.5703
  174MOL0     O23413   7.296   9.143  10.141  0.4823  0.1145  0.7309
  174MOL0     C23414   7.272   9.085  10.010  0.9080  0.0887 -0.3622
  174MOL0     C23415   7.134   9.015  10.005 -0.8355 -0.5252  0.6017
  174MOL0     C23416   7.022   9.111   9.982  0.8377 -0.0940 -0.3293
  174MOL0     C23417   6.884   9.057  10.034  0.0537  0.5915  1.1174
  174MOL0     C23418   6.822   8.961   9.942 -0.5940 -0.5449  1.0612
  174MOL0     C23419   6.774   8.881   9.857 -0.0189 -0.6860  0.2912
  174MOL0     C23420   7.434   9.244  10.290 -0.0826 -1.0480  0.1174
  174MOL0     C23421   7.552   9.308  10.327  0.4994 -0.4828  0.1203
  174MOL0     C23422   7.562   9.354  10.474 -0.1565 -0.9228  0.0259
  174MOL0     H23423   8.004   9.389   9.954  0.1260 -0.3391  0.7998
  174MOL0     H23424   8.239   9.431   9.907  1.1640  1.9472 -0.0882
  174MOL0     H23425   8.470   9.448   9.937 -0.2619 -0.2792 -0.3012
  174MOL0     H23426   8.400   9.601   9.902 -0.0910 -1.5573 -0.7754
  174MOL0     H23427   8.629   9.608   9.867 -2.6943 -1.5173 -0.2491
  174MOL0     H23428   8.666   9.538  10.026  0.5989 -0.3240 -1.1069
  174MOL0     H23429   8.617   9.731  10.139 -0.8938 -0.5158  0.0663
  174MOL0     H23430   8.544   9.820   9.986 -0.1624 -2.1838 -4.7312
  174MOL0     H23431   8.829   9.720   9.999 -0.9379 -1.8416  0.3311
  174MOL0     H23432   8.751   9.802   9.879  1.6039 -1.9263 -0.0486
  174MOL0     H23433   8.698   9.988  10.003  2.2222  1.7124 -3.1432
  174MOL0     H23434   8.785   9.934  10.155 -2.4023 -0.7503  0.8330
  174MOL0     H23435   8.901   9.997   9.878 -1.4101 -2.4199  0.0529
  174MOL0     H23436   8.897  10.116  10.008 -1.3058 -0.5999  0.7011
  174MOL0     H23437   9.123   9.961   9.977  0.5861 -2.9714 -0.7928
  174MOL0     H23438   9.028   9.830  10.036  1.5510 -0.5100 -0.8308
  174MOL0     H23439   9.087  10.081  10.200 -0.9943 -0.0763 -0.9610
  174MOL0     H23440   8.999   9.937  10.263 -2.0033  3.9444 -0.0310
  174MOL0     H23441   9.343  10.082  10.248  0.8648 -0.6761  0.6405
  174MOL0     H23442   9.622   9.787  10.254  0.3855 -0.1803 -2.4080
  174MOL0     H23443   9.599   9.932  10.159 -2.5070  1.0933 -0.5178
  174MOL0     H23444   9.723   9.968  10.360 -0.8513  0.7703 -0.3043
  174MOL0     H23445   9.576  10.066  10.351  0.6148 -0.1183 -0.4074
  174MOL0     H23446   9.473   9.927  10.509 -0.2055  0.2401  0.6406
  174MOL0     H23447   9.628   9.979  10.587  0.5461  1.6939 -0.5325
  174MOL0     H23448   9.742   9.782  10.559  0.6009 -3.6524 -0.8718
  174MOL0     H23449   9.619   9.701  10.471  3.5125  0.5193  0.4433
  174MOL0     H23450   9.498   9.602  10.874  2.1491 -4.4873 -1.1248
  174MOL0     H23451   9.307   9.453  10.882  1.8177 -3.0473 -1.0164
  174MOL0     H23452   8.856   9.441  10.781 -0.2064  0.9047  3.3028
  174MOL0     H23453   8.660   9.341  10.883  1.0191  2.5721 -1.6030
  174MOL0     H23454   8.499   9.200  10.915 -1.2833  0.4417  1.2874
  174MOL0     H23455   8.544   9.035  10.845  1.0550 -0.8911  1.0352
  174MOL0     H23456   8.453   8.946  11.064 -0.1692 -0.4977  0.4193
  174MOL0     H23457   8.362   9.097  11.078 -1.8940 -1.0030  1.4070
  174MOL0     H23458   8.256   9.048  10.860  2.6170  1.4473 -0.5047
  174MOL0     H23459   8.361   8.900  10.840  1.6425 -0.3803  1.4767
  174MOL0     H23460   8.134   8.930  11.056  1.2264 -0.2774  0.2135
  174MOL0     H23461   8.255   8.800  11.024 -0.8374  0.3890  0.9311
  174MOL0     H23462   8.157   8.740  10.817  2.3749  1.9165 -0.4377
  174MOL0     H23463   8.064   8.883  10.813 -0.0994  0.3497  0.4487
  174MOL0     H23464   7.962   8.767  11.039  1.3908 -2.7412  1.6617
  174MOL0     H23465   7.901   8.719  10.882 -0.3145 -0.3207  0.6086
  174MOL0     H23466   8.144   8.588  11.036 -0.1390  5.7785  0.2591
  174MOL0     H23467   8.090   8.547  10.877  2.3147  0.4719  0.6309
  174MOL0     H23468   8.008   8.402  11.066 -2.9912 -2.1107  0.3581
  174MOL0     H23469   7.906   8.541  11.118  0.5727 -0.0656  0.4994
  174MOL0     H23470   8.903   9.005  11.003  0.6721  0.5782  0.1471
  174MOL0     H23471   9.091   9.105  10.933  0.0395 -1.1744 -1.5106
  174MOL0     H23472   9.199   9.532  10.480  0.4459  1.6578 -1.5131
  174MOL0     H23473   9.401   9.686  10.454 -0.1226  1.6226  0.5180
  174MOL0     H23474   8.289   9.522  10.335 -0.5853 -1.7230  1.2520
  174MOL0     H23475   8.032   9.490  10.356 -1.3650 -0.8109 -0.2607
  174MOL0     H23476   7.712   9.309  10.025  0.4878  1.9870  0.9470
  174MOL0     H23477   7.474   9.221   9.962 -1.9960 -1.6031  0.5448
  174MOL0     H23478   7.339   9.015   9.958  0.2742  0.2532 -1.4398
  174MOL0     H23479   7.264   9.169   9.940 -0.1590  0.0027 -0.3618
  174MOL0     H23480   7.127   8.968  10.104 -1.5919 -2.2143 -0.2109
  174MOL0     H23481   7.154   8.942   9.926  4.3143  3.4993 -2.4347
  174MOL0     H23482   7.010   9.136   9.876 -1.7282  0.4972  0.0475
  174MOL0     H23483   7.040   9.207  10.031  5.4641 -0.8675 -0.0772
  174MOL0     H23484   6.896   9.014  10.134  1.2230  2.3946  1.8104
  174MOL0     H23485   6.814   9.141  10.034 -1.2287 -0.3394  4.0794
  174MOL0     H23486   6.732   8.799   9.802 -2.4349 -0.7902  2.1843
  174MOL0     H23487   7.362   9.210  10.364  0.0434 -1.2796  0.1336
  174MOL0     H23488   7.620   9.288  10.540 -1.6114 -0.2614  2.0474
  174MOL0     H23489   7.606   9.454  10.471 -1.0722 -0.4939 -3.2017
  174MOL0     H23490   7.461   9.351  10.515 -0.8149  1.0734 -1.3102
  175MOL0     O23491   4.827   8.630   5.171 -0.0288 -0.0884 -0.1198
  175MOL0     C23492   4.844   8.742   5.222 -0.1368 -0.8951  0.2886
  175MOL0     O23493   4.965   8.790   5.266  0.5007  0.2039  0.5187
  175MOL0     C23494   5.081   8.716   5.242  0.6852  0.8024  0.1259
  175MOL0     C23495   5.179   8.685   5.338 -1.3034  0.0420  0.4166
  175MOL0     C23496   5.306   8.641   5.309  0.2995 -0.3737 -0.0356
  175MOL0     C23497   5.333   8.617   5.178  0.1654  0.6394  0.1825
  175MOL0     O23498   5.451   8.568   5.149  0.3737  0.3343  0.5134
  175MOL0     C23499   5.521   8.625   5.043 -1.0591 -0.8987 -0.1922
  175MOL0     C23500   5.668   8.578   5.062  1.0889  0.5569 -0.3748
  175MOL0     C23501   5.775   8.635   4.968 -0.0813  0.1665 -1.1147
  175MOL0     C23502   5.904   8.552   4.979 -0.0367  0.3539  0.0717
  175MOL0     C23503   6.035   8.628   4.950 -0.6366 -0.1232  0.5801
  175MOL0     C23504   6.086   8.728   5.058  0.6432 -0.2460  1.2855
  175MOL0     C23505   6.235   8.758   5.050  0.5100  0.7735 -0.6541
  175MOL0     C23506   6.283   8.892   5.119 -0.4193  0.6748  0.2625
  175MOL0     N23507   6.186   9.003   5.090 -0.2741  0.6353  0.0762
  175MOL0     C23508   6.074   9.051   5.158 -0.2471  0.1591 -1.3986
  175MOL0     C23509   6.045   9.168   5.094  0.1581  0.8440 -0.0916
  175MOL0     C23510   5.936   9.257   5.131 -0.3836  0.0045 -0.7788
  175MOL0     C23511   5.823   9.209   5.214  0.2412  0.7074  0.1450
  175MOL0     C23512   5.723   9.321   5.224  0.3699 -0.4567 -0.4122
  175MOL0     C23513   5.596   9.268   5.288  0.5408  0.1433 -0.6791
  175MOL0     O23514   5.518   9.380   5.330 -0.2263 -0.3794  0.0464
  175MOL0     C23515   5.389   9.366   5.360 -0.3248  0.0480 -0.2928
  175MOL0     C23516   5.317   9.248   5.345 -0.3975  1.1907  0.6003
  175MOL0     C23517   5.187   9.244   5.361  0.2780  0.3024  0.3413
  175MOL0     C23518   5.114   9.355   5.392 -0.5068 -0.1839 -0.4649
  175MOL0     C23519   4.971   9.356   5.399  0.5388 -0.4937  0.4650
  175MOL0     O23520   4.909   9.479   5.401  0.1046  0.0310  0.8961
  175MOL0     C23521   4.785   9.487   5.459 -0.2216  0.2391 -0.3766
  175MOL0     C23522   4.681   9.556   5.396 -0.8799  0.6505 -0.3696
  175MOL0     C23523   4.552   9.564   5.456 -0.5863  0.3221  0.2982
  175MOL0     C23524   4.521   9.529   5.585 -0.1126  0.4432  0.2703
  175MOL0     O23525   4.402   9.568   5.630 -0.0922  1.1949 -0.6407
  175MOL0     C23526   4.370   9.539   5.770  0.5475  0.2927 -0.0441
  175MOL0     C23527   4.222   9.555   5.786  0.3093 -0.1278  0.8172
  175MOL0     C23528   4.181   9.697   5.740 -0.6043  0.2353  0.6264
  175MOL0     C23529   4.025   9.726   5.755 -0.5138  0.6060 -0.3134
  175MOL0     C23530   3.980   9.860   5.710  0.4552 -0.0309 -0.6496
  175MOL0     C23531   3.834   9.891   5.773 -0.1140 -1.3491  1.0111
  175MOL0     C23532   3.805  10.037   5.751 -0.2730 -0.1290  0.2889
  175MOL0     C23533   3.664  10.069   5.799 -0.4173  0.2677  0.7543
  175MOL0    Cl23534   3.650  10.013   5.966  0.1347  0.1216 -0.1686
  175MOL0     C23535   4.625   9.473   5.656  0.1857 -0.7228  0.0160
  175MOL0     C23536   4.755   9.450   5.598  0.5108 -0.2248  0.9493
  175MOL0     O23537   4.908   9.248   5.398  0.1948 -0.1553 -0.2411
  175MOL0     C23538   5.180   9.477   5.414 -0.1378  0.1286  0.0249
  175MOL0     C23539   5.318   9.477   5.403 -0.0117 -0.0657 -0.5022
  175MOL0     N23540   6.141   9.195   4.995  0.2394 -0.5481 -0.0891
  175MOL0     N23541   6.217   9.094   4.992  0.1663  0.1958  0.3362
  175MOL0     C23542   5.240   8.631   5.075  0.2122 -0.2572 -1.0654
  175MOL0     C23543   5.113   8.681   5.108 -0.6903 -0.3094 -0.1807
  175MOL0     C23544   4.729   8.828   5.226  0.0591 -0.3846  0.0363
  175MOL0     C23545   4.745   8.949   5.305  0.1135  0.9073 -0.7737
  175MOL0     C23546   4.647   9.044   5.323 -0.4239  0.5443  0.0848
  175MOL0     C23547   4.522   9.017   5.266 -0.3323 -1.1890  0.1544
  175MOL0     O23548   4.418   9.108   5.282  0.4006 -0.0061 -0.6002
  175MOL0     C23549   4.424   9.216   5.370  0.8318  0.0018 -0.4142
  175MOL0     C23550   4.306   9.320   5.346  0.7014  1.2209  0.4026
  175MOL0     C23551   4.173   9.264   5.405  1.2517 -0.3076  0.2806
  175MOL0     C23552   4.054   9.223   5.313 -0.1519  0.0442  0.0509
  175MOL0     C23553   3.952   9.184   5.400  0.2445  0.0527 -0.3208
  175MOL0     C23554   3.863   9.148   5.479 -0.0244  0.0085  0.9600
  175MOL0     C23555   4.506   8.909   5.181 -0.1303 -0.2729 -0.3519
  175MOL0     C23556   4.599   8.806   5.167  0.2812  0.5081 -0.3494
  175MOL0     C23557   4.559   8.684   5.079  0.0621 -0.3795  0.6403
  175MOL0     H23558   5.169   8.706   5.445 -0.9005 -3.2511  1.2038
  175MOL0     H23559   5.374   8.631   5.393 -0.7711 -1.5562  0.7272
  175MOL0     H23560   5.480   8.595   4.946 -1.2525 -0.6687 -0.1822
  175MOL0     H23561   5.539   8.733   5.046 -2.4771 -0.6723  1.9336
  175MOL0     H23562   5.659   8.471   5.044 -2.1273  0.6304  0.1037
  175MOL0     H23563   5.692   8.590   5.168  0.3364 -1.2916  0.0451
  175MOL0     H23564   5.807   8.733   5.005  2.0652 -0.7601 -0.3490
  175MOL0     H23565   5.729   8.653   4.871 -0.8705  1.7171 -0.4917
  175MOL0     H23566   5.909   8.506   5.078 -2.5696 -2.8521 -1.0999
  175MOL0     H23567   5.884   8.465   4.916 -1.8346  1.2560 -0.6692
  175MOL0     H23568   6.109   8.548   4.947  1.9750  2.1610  0.3574
  175MOL0     H23569   6.041   8.668   4.849  0.5853 -1.9550 -0.1221
  175MOL0     H23570   6.024   8.818   5.048 -0.1174 -1.0195 -1.9309
  175MOL0     H23571   6.055   8.682   5.152  0.0298  2.2723  2.4189
  175MOL0     H23572   6.265   8.771   4.945  1.2424  0.3351 -0.5103
  175MOL0     H23573   6.288   8.671   5.091 -2.5281 -2.1494 -2.4075
  175MOL0     H23574   6.297   8.875   5.226  0.8333  0.2030  0.0434
  175MOL0     H23575   6.386   8.904   5.083 -0.7658 -3.5828 -2.9975
  175MOL0     H23576   6.036   8.995   5.243  0.5838 -0.1461 -1.2125
  175MOL0     H23577   5.979   9.345   5.180  0.8458  0.1639 -2.0859
  175MOL0     H23578   5.894   9.290   5.036  1.3024 -0.3056 -1.6575
  175MOL0     H23579   5.771   9.129   5.161  0.6455  0.7621 -0.3419
  175MOL0     H23580   5.856   9.184   5.315 -0.1327  1.4595  0.4559
  175MOL0     H23581   5.697   9.361   5.126 -2.8166 -0.1935  0.4293
  175MOL0     H23582   5.764   9.407   5.278 -1.9152  1.3722 -1.4237
  175MOL0     H23583   5.622   9.212   5.378 -1.1741 -2.7967 -1.8660
  175MOL0     H23584   5.563   9.201   5.208  1.5626  0.8453 -1.7174
  175MOL0     H23585   5.372   9.157   5.321  0.2944  2.1612 -1.7547
  175MOL0     H23586   5.134   9.151   5.342  1.7777 -0.0727 -2.6307
  175MOL0     H23587   4.706   9.602   5.301 -1.1881  0.2262 -0.6587
  175MOL0     H23588   4.464   9.600   5.402 -2.0769  1.0509  3.0555
  175MOL0     H23589   4.394   9.436   5.799 -0.4773  0.2023  0.5434
  175MOL0     H23590   4.431   9.601   5.836  1.6676 -1.0525  0.2234
  175MOL0     H23591   4.181   9.479   5.719  0.0476  0.4377  0.3226
  175MOL0     H23592   4.185   9.544   5.888 -0.8025  0.2209  0.4713
  175MOL0     H23593   4.238   9.768   5.801 -0.0842  0.3784 -0.0174
  175MOL0     H23594   4.203   9.707   5.633 -3.0811  0.9355  0.1255
  175MOL0     H23595   4.010   9.709   5.862  0.3048 -3.1602 -0.6793
  175MOL0     H23596   3.967   9.645   5.710  2.1268 -0.7155 -1.5109
  175MOL0     H23597   3.976   9.865   5.600  2.9304 -0.6560 -0.8221
  175MOL0     H23598   4.059   9.928   5.744 -0.8585  0.8746  0.7095
  175MOL0     H23599   3.762   9.831   5.715 -3.2747  2.7910  0.1773
  175MOL0     H23600   3.822   9.864   5.878  0.1710 -2.3360  0.8005
  175MOL0     H23601   3.808  10.068   5.646 -0.9881 -0.5679  0.1299
  175MOL0     H23602   3.867  10.100   5.816  0.9488 -0.1738 -0.7774
  175MOL0     H23603   3.643  10.177   5.803  0.7019  0.5300 -0.1399
  175MOL0     H23604   3.586  10.021   5.738 -1.1515  0.4132  1.5491
  175MOL0     H23605   4.626   9.456   5.763 -1.8358  1.2462  0.4243
  175MOL0     H23606   4.844   9.428   5.655  1.2452  2.6004  1.0161
  175MOL0     H23607   5.135   9.574   5.431 -0.3002  0.4205 -1.8506
  175MOL0     H23608   5.375   9.564   5.433  1.6515 -1.1351 -0.4160
  175MOL0     H23609   5.252   8.600   4.972 -0.0522  0.1289 -1.2126
  175MOL0     H23610   5.033   8.695   5.037 -3.2413  2.1023  2.8614
  175MOL0     H23611   4.830   8.965   5.371 -0.5375  0.9928  0.0556
  175MOL0     H23612   4.664   9.124   5.394 -0.7588 -0.7579  1.6991
  175MOL0     H23613   4.515   9.273   5.350  1.2698 -0.8401 -0.8711
  175MOL0     H23614   4.415   9.177   5.472 -0.0251 -0.9036 -0.8183
  175MOL0     H23615   4.296   9.345   5.240  0.3956 -0.3314  0.0353
  175MOL0     H23616   4.327   9.411   5.402  0.2246  0.8762  1.1592
  175MOL0     H23617   4.142   9.345   5.471 -1.6907 -2.5990  1.9378
  175MOL0     H23618   4.201   9.179   5.467  0.3696 -1.1635 -0.4655
  175MOL0     H23619   4.031   9.308   5.247 -0.1481 -1.0870 -1.4658
  175MOL0     H23620   4.083   9.136   5.253  0.0027 -0.8907  1.4432
  175MOL0     H23621   3.792   9.118   5.553  0.3720 -3.1511  0.2013
  175MOL0     H23622   4.406   8.907   5.139  0.4898  2.3233 -2.1630
  175MOL0     H23623   4.623   8.685   4.990 -0.9190  3.4144 -0.1870
  175MOL0     H23624   4.569   8.594   5.140  0.2757  1.2814  3.2234
  175MOL0     H23625   4.467   8.677   5.019  3.1749 -1.7088 -4.6375
  176MOL0     O23626   1.076   9.386  10.150  0.2255  0.3531  0.2079
  176MOL0     C23627   1.033   9.468  10.067  0.4156  0.3203 -0.9211
  176MOL0     O23628   1.089   9.579  10.038 -0.4387 -0.6766 -0.9178
  176MOL0     C23629   1.226   9.579  10.042 -0.7933 -0.4897 -0.8923
  176MOL0     C23630   1.283   9.692  10.107 -0.2166 -0.0636  1.1521
  176MOL0     C23631   1.420   9.714  10.113 -0.7538 -0.9089 -0.2871
  176MOL0     C23632   1.508   9.620  10.057 -0.4394  0.0166  0.9491
  176MOL0     O23633   1.645   9.633  10.059 -0.2545 -0.3754  0.4890
  176MOL0     C23634   1.698   9.761  10.100  1.0260  0.1899  0.3278
  176MOL0     C23635   1.816   9.738  10.198 -0.0259 -0.2348 -0.2696
  176MOL0     C23636   1.939   9.671  10.124  0.9771  0.3267  0.0959
  176MOL0     C23637   2.067   9.692  10.195  0.0420  0.6935 -0.2414
  176MOL0     C23638   2.193   9.676  10.110  0.5826  0.6357  0.1782
  176MOL0     C23639   2.331   9.652  10.169 -1.4257 -0.6828  0.5027
  176MOL0     C23640   2.423   9.652  10.045 -0.6411  0.4648 -0.1004
  176MOL0     C23641   2.574   9.645  10.074  0.6758 -0.3280  1.0356
  176MOL0     N23642   2.637   9.747  10.147  0.1149 -0.2802 -1.3423
  176MOL0     C23643   2.630   9.882  10.114  0.1452  0.4768  0.1547
  176MOL0     C23644   2.742   9.939  10.169  0.9744  1.0393  0.1476
  176MOL0     C23645   2.800  10.083  10.139 -0.1117  0.1333  0.4423
  176MOL0     C23646   2.941  10.091  10.060  0.3421 -0.2565 -0.1242
  176MOL0     C23647   2.995  10.225  10.022 -0.0090  0.1986  0.2444
  176MOL0     C23648   3.095  10.275  10.131 -0.3543 -0.2015 -0.3292
  176MOL0     O23649   3.207  10.189  10.139 -0.2923 -0.1895  0.7645
  176MOL0     C23650   3.319  10.234  10.204  0.3325 -0.5716  0.5808
  176MOL0     C23651   3.328  10.363  10.256 -0.6759  0.4301  0.1745
  176MOL0     C23652   3.427  10.388  10.350 -0.7564  0.3343 -0.0325
  176MOL0     C23653   3.542  10.307  10.367  0.9236 -0.1022  0.6441
  176MOL0     C23654   3.657  10.358  10.452 -0.5610  0.0973  0.1246
  176MOL0     O23655   3.770  10.275  10.470  0.5141  0.3188  0.2545
  176MOL0     C23656   3.874  10.348  10.522 -0.3083 -0.2438 -0.1455
  176MOL0     C23657   3.977  10.396  10.445 -0.6196 -0.0703  0.5247
  176MOL0     C23658   4.096  10.439  10.499 -0.0353 -0.7758 -0.5863
  176MOL0     C23659   4.107  10.454  10.638 -0.4592 -0.1688 -0.9729
  176MOL0     O23660   4.223  10.487  10.696 -0.3425 -0.7839 -0.2047
  176MOL0     C23661   4.321  10.545  10.614  0.1991 -0.4772 -0.9112
  176MOL0     C23662   4.428  10.598  10.719  0.8355  0.1287 -0.4256
  176MOL0     C23663   4.548  10.661  10.654 -0.6686 -0.7788 -0.9986
  176MOL0     C23664   4.666  10.665  10.748 -0.5759 -0.4644  0.0047
  176MOL0     C23665   4.782  10.744  10.686  0.9129  0.8272 -0.3764
  176MOL0     C23666   4.913  10.736  10.771  0.8308 -0.1508 -0.7278
  176MOL0     C23667   5.029  10.833  10.732  0.0338  0.0256  1.0073
  176MOL0     C23668   5.140  10.843  10.825 -0.0220 -0.5545  0.1098
  176MOL0    Cl23669   5.247  10.700  10.815 -0.0010 -0.2529 -0.0394
  176MOL0     C23670   4.003  10.421  10.717 -0.3017 -0.0272 -0.1877
  176MOL0     C23671   3.890  10.362  10.661 -1.1172  0.3913  0.2382
  176MOL0     O23672   3.644  10.472  10.497 -0.5955  0.0179  0.0315
  176MOL0     C23673   3.535  10.184  10.306  0.8287  0.8475  0.1803
  176MOL0     C23674   3.418  10.143  10.236  0.2053  0.5745 -1.0158
  176MOL0     N23675   2.805   9.839  10.244  0.3436 -0.2258  0.0395
  176MOL0     N23676   2.739   9.735  10.235  0.2474  1.1388 -0.8578
  176MOL0     C23677   1.457   9.504   9.993 -0.2562 -0.5377  0.5811
  176MOL0     C23678   1.310   9.484   9.992 -0.2337  0.0168  1.0117
  176MOL0     C23679   0.902   9.439  10.006 -0.8570 -0.1208  0.3015
  176MOL0     C23680   0.859   9.309   9.997  0.0101  1.1368 -0.6469
  176MOL0     C23681   0.741   9.265   9.956  1.1020 -0.5164  0.5501
  176MOL0     C23682   0.648   9.359   9.907 -0.3160 -0.0750  0.3282
  176MOL0     O23683   0.519   9.328   9.855 -0.4797  0.0853 -0.3833
  176MOL0     C23684   0.468   9.200   9.891 -0.5377  0.7135  0.0637
  176MOL0     C23685   0.443   9.187  10.041  0.6634  0.5738 -0.2220
  176MOL0     C23686   0.380   9.050  10.074 -0.3100 -0.6424  0.1401
  176MOL0     C23687   0.367   9.020  10.221 -0.2685  0.6256 -0.0594
  176MOL0     C23688   0.500   9.001  10.278 -0.0279 -0.6774 -0.3773
  176MOL0     C23689   0.613   8.976  10.304 -0.5595 -0.6655 -0.1507
  176MOL0     C23690   0.689   9.493   9.905  0.2493 -0.3323 -0.2314
  176MOL0     C23691   0.812   9.539   9.955 -0.3936 -0.5361 -0.7143
  176MOL0     C23692   0.841   9.691   9.945  0.3640 -0.3155  0.6834
  176MOL0     H23693   1.202   9.750  10.149 -1.9115 -1.6471  0.2410
  176MOL0     H23694   1.449   9.802  10.169  1.0756 -1.9141  0.4138
  176MOL0     H23695   1.737   9.801  10.006 -1.8748 -1.3961 -1.7271
  176MOL0     H23696   1.635   9.843  10.138  0.7452  1.5532 -2.7503
  176MOL0     H23697   1.782   9.670  10.276 -0.2686  1.2242  0.9314
  176MOL0     H23698   1.851   9.834  10.238  0.5966 -0.3727 -0.4758
  176MOL0     H23699   1.935   9.729  10.031 -0.0893  0.8445  0.4463
  176MOL0     H23700   1.912   9.569  10.097 -0.6898  0.5209  0.8976
  176MOL0     H23701   2.069   9.793  10.235  0.6865  1.0171 -1.0664
  176MOL0     H23702   2.082   9.625  10.280  2.2696  1.2069 -0.1649
  176MOL0     H23703   2.172   9.599  10.035 -0.3643  0.8559  0.2116
  176MOL0     H23704   2.190   9.770  10.054  0.1327 -0.1228 -1.1352
  176MOL0     H23705   2.359   9.729  10.242  1.2605  0.3425 -1.4150
  176MOL0     H23706   2.337   9.550  10.210  0.8040 -1.1115 -0.7191
  176MOL0     H23707   2.395   9.744   9.994  0.1312  0.3936 -0.6727
  176MOL0     H23708   2.396   9.571   9.976 -4.0017  0.7613  0.7299
  176MOL0     H23709   2.595   9.546  10.116 -0.9236 -0.5040  1.4540
  176MOL0     H23710   2.631   9.634   9.981 -0.4608 -1.4705  0.4364
  176MOL0     H23711   2.566   9.935  10.044 -0.1681  5.1784  3.5451
  176MOL0     H23712   2.719  10.130  10.083  0.1987 -0.4870 -0.5581
  176MOL0     H23713   2.809  10.129  10.238  0.0140  0.6411  0.1960
  176MOL0     H23714   3.015  10.048  10.129  1.7509  2.6097  0.2800
  176MOL0     H23715   2.916  10.039   9.967 -0.0315 -0.3017  0.0032
  176MOL0     H23716   2.923  10.306  10.012  0.1983  0.3179 -0.3288
  176MOL0     H23717   3.048  10.207   9.928 -0.1321  0.0028  0.2118
  176MOL0     H23718   3.052  10.287  10.231  0.1533  3.3731 -0.4091
  176MOL0     H23719   3.126  10.373  10.093 -1.2969 -0.2828 -1.3463
  176MOL0     H23720   3.254  10.440  10.237  0.1201  0.5033 -3.1826
  176MOL0     H23721   3.418  10.478  10.410 -2.6641 -0.6213  1.1900
  176MOL0     H23722   3.972  10.384  10.337 -1.9007 -2.8156  0.7879
  176MOL0     H23723   4.187  10.467  10.448 -0.1736  3.0387  0.9008
  176MOL0     H23724   4.374  10.473  10.551 -2.1549 -2.9952 -0.1710
  176MOL0     H23725   4.288  10.633  10.557 -0.4177  1.6552  2.4645
  176MOL0     H23726   4.375  10.677  10.774  3.7755  0.9731  1.4262
  176MOL0     H23727   4.453  10.517  10.789 -1.8208  0.5770  1.2000
  176MOL0     H23728   4.583  10.617  10.560 -0.5497 -0.3190 -1.1749
  176MOL0     H23729   4.511  10.761  10.630 -1.5505 -0.1634  2.3715
  176MOL0     H23730   4.708  10.568  10.775 -0.6504 -1.3590 -2.7652
  176MOL0     H23731   4.629  10.728  10.830 -0.6567 -1.9537  1.1429
  176MOL0     H23732   4.758  10.849  10.665  1.5473  1.1099  0.2778
  176MOL0     H23733   4.808  10.703  10.588  0.9261  0.2273 -0.1247
  176MOL0     H23734   4.881  10.749  10.875 -0.7148 -0.3123 -1.1527
  176MOL0     H23735   4.957  10.636  10.759  3.2321  1.1306 -3.6732
  176MOL0     H23736   4.982  10.931  10.720 -0.0554 -0.0602  0.6337
  176MOL0     H23737   5.073  10.811  10.635  2.3274 -0.0325  2.0046
  176MOL0     H23738   5.200  10.931  10.800 -0.2874 -0.5528 -0.5417
  176MOL0     H23739   5.097  10.872  10.922 -2.0582  1.3491 -1.2597
  176MOL0     H23740   4.020  10.443  10.822  1.8981 -2.2981  0.0403
  176MOL0     H23741   3.804  10.331  10.719 -0.1354  1.0101  2.1026
  176MOL0     H23742   3.627  10.130  10.324  0.2050 -0.0218  0.8234
  176MOL0     H23743   3.411  10.040  10.204  0.8103 -0.8783  2.9729
  176MOL0     H23744   1.527   9.439   9.941  3.5439  2.7188  1.0748
  176MOL0     H23745   1.270   9.397   9.940 -0.2162  0.4768  0.2083
  176MOL0     H23746   0.927   9.244  10.053  0.7026  3.5379  1.5383
  176MOL0     H23747   0.718   9.159   9.964  3.0288 -0.8471  2.8796
  176MOL0     H23748   0.543   9.125   9.864 -0.4921  0.7554  0.0725
  176MOL0     H23749   0.381   9.170   9.831 -1.7073 -0.4541  2.2212
  176MOL0     H23750   0.372   9.268  10.062 -2.3591 -2.2938  1.6679
  176MOL0     H23751   0.534   9.188  10.101  1.4781 -1.3817 -1.3027
  176MOL0     H23752   0.435   8.967  10.027  1.6860  0.9813 -0.5520
  176MOL0     H23753   0.279   9.047  10.034  0.7755  0.2302 -3.0133
  176MOL0     H23754   0.323   9.103  10.278  2.9940  2.4467  0.0600
  176MOL0     H23755   0.300   8.935  10.232 -0.4285  0.8363  0.7334
  176MOL0     H23756   0.713   8.943  10.326 -0.1055  0.6752 -0.1475
  176MOL0     H23757   0.611   9.561   9.872  1.7735  1.1194 -1.0052
  176MOL0     H23758   0.869   9.737  10.040  1.9326  0.7749 -0.2714
  176MOL0     H23759   0.933   9.706   9.887 -1.2622  0.2026 -1.9367
  176MOL0     H23760   0.758   9.744   9.898 -0.6171 -1.6467  0.8435
  177MOL0     O23761   1.622   1.835   1.252 -0.0850 -0.3134  0.8024
  177MOL0     C23762   1.564   1.847   1.362 -0.7520  0.2363  0.1035
  177MOL0     O23763   1.617   1.850   1.490 -0.0145 -0.2387 -0.3155
  177MOL0     C23764   1.752   1.875   1.489 -0.1303 -0.0418 -0.4944
  177MOL0     C23765   1.837   1.777   1.428  0.4546 -0.6453  0.1040
  177MOL0     C23766   1.977   1.802   1.429  1.1100 -0.5161 -0.7378
  177MOL0     C23767   2.027   1.917   1.497  0.8251 -1.4056  0.8066
  177MOL0     O23768   2.162   1.938   1.493  0.6253 -0.2318 -0.1401
  177MOL0     C23769   2.240   1.832   1.548  0.1120  0.2925 -0.0955
  177MOL0     C23770   2.383   1.886   1.559  0.1754 -0.0641 -0.5627
  177MOL0     C23771   2.433   1.870   1.711 -0.2557  0.4303 -0.5312
  177MOL0     C23772   2.575   1.922   1.706  0.3728 -0.6656 -0.4577
  177MOL0     C23773   2.633   1.952   1.851 -0.3234 -1.4246  0.7830
  177MOL0     C23774   2.622   1.836   1.946 -0.0445 -0.0779 -0.3945
  177MOL0     C23775   2.670   1.898   2.082 -0.7827  0.3965 -0.3723
  177MOL0     C23776   2.709   1.779   2.183 -0.6043 -1.1493 -0.4687
  177MOL0     N23777   2.602   1.719   2.253  0.1224 -0.1160  0.2891
  177MOL0     C23778   2.588   1.726   2.391  0.2555  0.1014 -0.1183
  177MOL0     C23779   2.478   1.654   2.417  0.1093 -0.1167 -0.3204
  177MOL0     C23780   2.408   1.628   2.563 -0.3172  0.4675  0.2697
  177MOL0     C23781   2.495   1.647   2.682 -0.9562 -0.4054 -0.0475
  177MOL0     C23782   2.426   1.630   2.812  0.0270 -0.3498 -0.7268
  177MOL0     C23783   2.332   1.734   2.848 -0.2034  0.0926  0.3441
  177MOL0     O23784   2.264   1.692   2.966  1.0575 -0.7870 -0.1895
  177MOL0     C23785   2.135   1.746   2.997 -0.2508 -0.2601  0.2529
  177MOL0     C23786   2.028   1.671   3.002 -0.4005  0.7080 -0.4878
  177MOL0     C23787   1.897   1.738   3.012  0.1550  0.9433 -0.3652
  177MOL0     C23788   1.883   1.877   3.017 -0.8427 -0.6271  0.2374
  177MOL0     C23789   1.749   1.938   3.038  0.3607 -0.7037  0.1889
  177MOL0     O23790   1.643   1.855   3.065 -0.5820  0.5978 -0.3489
  177MOL0     C23791   1.520   1.910   3.076  0.0762 -0.2608  0.9309
  177MOL0     C23792   1.458   1.898   3.197 -0.1269 -0.4819  0.2620
  177MOL0     C23793   1.329   1.938   3.208 -0.3239  1.1403 -0.2953
  177MOL0     C23794   1.256   1.995   3.102  0.0466 -1.0056 -0.3185
  177MOL0     O23795   1.125   2.031   3.103 -0.7654  0.2918 -0.2968
  177MOL0     C23796   1.046   1.982   3.214 -0.1097 -0.4025 -0.0154
  177MOL0     C23797   0.898   2.003   3.202 -0.1490  0.8079 -0.4011
  177MOL0     C23798   0.860   2.160   3.204 -0.5389  0.0073  0.1582
  177MOL0     C23799   0.712   2.184   3.224  0.1640 -0.6271  0.2891
  177MOL0     C23800   0.689   2.331   3.253 -0.9881  0.4613 -0.0230
  177MOL0     C23801   0.557   2.352   3.323 -0.7726  0.3020  0.7468
  177MOL0     C23802   0.513   2.495   3.332 -0.1739  0.5068  0.5380
  177MOL0     C23803   0.500   2.568   3.196  0.3541 -0.6891  0.5570
  177MOL0    Cl23804   0.364   2.489   3.115 -0.3262  0.2254  0.1095
  177MOL0     C23805   1.320   2.002   2.982 -0.0705 -0.1822  0.8274
  177MOL0     C23806   1.450   1.958   2.974  0.1231 -0.3369  0.5864
  177MOL0     O23807   1.735   2.061   3.009 -0.0640 -0.2422 -0.3126
  177MOL0     C23808   2.001   1.953   2.997 -0.4343  0.5410 -0.3688
  177MOL0     C23809   2.122   1.887   2.990 -0.4624 -0.5733 -0.2487
  177MOL0     N23810   2.427   1.611   2.298  0.7023  0.4651 -0.7267
  177MOL0     N23811   2.498   1.645   2.201 -0.1652 -0.7823  0.7021
  177MOL0     C23812   1.937   2.009   1.550 -0.3776  0.2632 -0.0132
  177MOL0     C23813   1.801   1.990   1.545 -0.5609 -0.0754 -0.3677
  177MOL0     C23814   1.414   1.867   1.356 -0.0086 -0.7352  0.9126
  177MOL0     C23815   1.343   1.903   1.472 -0.2572 -0.0814 -0.5918
  177MOL0     C23816   1.209   1.940   1.476 -0.0994  0.9900  0.4233
  177MOL0     C23817   1.138   1.935   1.356  0.1210  0.1994 -0.3059
  177MOL0     O23818   1.019   2.001   1.368 -0.3785 -0.7681 -0.2157
  177MOL0     C23819   0.905   1.911   1.353 -0.0088  0.1193 -0.2892
  177MOL0     C23820   0.776   1.948   1.435 -0.6335  0.2201  0.2199
  177MOL0     C23821   0.655   1.845   1.429  0.1706 -0.5473  0.3622
  177MOL0     C23822   0.664   1.730   1.534  0.1885 -0.3927 -0.6765
  177MOL0     C23823   0.537   1.708   1.598  0.0468  0.2374 -0.6136
  177MOL0     C23824   0.434   1.671   1.646 -0.6651  0.0023 -0.3143
  177MOL0     C23825   1.200   1.891   1.243  0.7428  0.7551 -0.7514
  177MOL0     C23826   1.337   1.858   1.234  0.2450  0.7720  0.4914
  177MOL0     C23827   1.382   1.816   1.090  0.1476  0.8620 -0.6231
  177MOL0     H23828   1.801   1.684   1.385  0.6492 -0.3649 -0.6798
  177MOL0     H23829   2.043   1.730   1.380  0.6811 -2.5315  1.4511
  177MOL0     H23830   2.200   1.805   1.646  0.3642 -3.6139 -0.8883
  177MOL0     H23831   2.232   1.735   1.497  2.4443 -0.4695  0.8704
  177MOL0     H23832   2.387   1.994   1.546  1.6008  0.2028  1.6719
  177MOL0     H23833   2.455   1.843   1.488 -1.3704 -0.1561 -2.1523
  177MOL0     H23834   2.425   1.770   1.755  0.5667  0.2135 -0.8525
  177MOL0     H23835   2.374   1.931   1.780 -1.6986 -3.5065  2.0962
  177MOL0     H23836   2.641   1.859   1.645 -0.2082 -1.2510 -0.4921
  177MOL0     H23837   2.558   2.024   1.670 -0.5910  0.0922  1.9542
  177MOL0     H23838   2.733   1.995   1.845 -0.6196 -0.9472 -2.9781
  177MOL0     H23839   2.579   2.034   1.901 -1.5406 -1.6007 -0.1877
  177MOL0     H23840   2.518   1.802   1.956  0.1826 -1.2480 -1.8262
  177MOL0     H23841   2.683   1.755   1.906  0.4080 -0.8192  1.6693
  177MOL0     H23842   2.584   1.954   2.120 -0.8167 -1.2459  2.2250
  177MOL0     H23843   2.749   1.971   2.064 -1.8521  1.7633  0.2414
  177MOL0     H23844   2.768   1.701   2.134  3.2406  0.4454  1.2650
  177MOL0     H23845   2.779   1.830   2.250  0.7452 -0.0592 -2.6130
  177MOL0     H23846   2.637   1.796   2.458 -3.4158  3.7116 -0.8313
  177MOL0     H23847   2.316   1.686   2.567  0.1505  1.2636 -0.2057
  177MOL0     H23848   2.369   1.526   2.555  1.5259 -0.3500  0.9419
  177MOL0     H23849   2.580   1.577   2.677  1.9459  2.8816 -4.4614
  177MOL0     H23850   2.552   1.740   2.687  0.0756 -0.9903 -0.4252
  177MOL0     H23851   2.502   1.625   2.891 -1.1769 -1.2658  0.4258
  177MOL0     H23852   2.377   1.533   2.825  1.6021 -1.1980 -0.7859
  177MOL0     H23853   2.253   1.744   2.774  2.8324  1.1601 -3.0722
  177MOL0     H23854   2.391   1.826   2.855  2.8423 -1.5785 -0.9792
  177MOL0     H23855   2.048   1.565   2.987 -2.4196 -0.0646  1.6841
  177MOL0     H23856   1.803   1.688   3.032  0.9706  0.7010  3.7699
  177MOL0     H23857   1.518   1.851   3.274  1.9078  0.6544 -0.5624
  177MOL0     H23858   1.297   1.924   3.311 -0.4212  2.1706 -0.1757
  177MOL0     H23859   1.063   1.875   3.229  3.0218  0.1616  1.3344
  177MOL0     H23860   1.075   2.038   3.304  3.2447 -3.5817  1.1134
  177MOL0     H23861   0.868   1.957   3.108  1.1385  0.7803 -0.8142
  177MOL0     H23862   0.842   1.947   3.278 -0.2983  0.2860 -0.8956
  177MOL0     H23863   0.908   2.205   3.291 -0.5903 -2.5287  1.6060
  177MOL0     H23864   0.900   2.200   3.110  0.7980 -1.7698 -0.0962
  177MOL0     H23865   0.689   2.122   3.312 -1.9449 -0.3435  0.0004
  177MOL0     H23866   0.653   2.154   3.137  1.5154 -0.0634 -0.8501
  177MOL0     H23867   0.701   2.394   3.164 -1.4051 -1.4743 -1.5187
  177MOL0     H23868   0.775   2.363   3.312  0.4187 -0.8747 -1.2775
  177MOL0     H23869   0.475   2.303   3.271  1.0493 -0.3913 -1.6657
  177MOL0     H23870   0.574   2.294   3.414  0.1141  0.3743  0.6401
  177MOL0     H23871   0.586   2.541   3.401  0.7388  0.3046 -0.2725
  177MOL0     H23872   0.415   2.496   3.381 -0.4935  2.2233 -0.0756
  177MOL0     H23873   0.475   2.674   3.209  0.0531 -1.0472  3.7669
  177MOL0     H23874   0.593   2.570   3.138  0.4308  0.6637  0.6924
  177MOL0     H23875   1.273   2.042   2.892  1.5977 -0.0214 -0.0234
  177MOL0     H23876   1.496   1.958   2.876  0.1013 -1.2660  0.5708
  177MOL0     H23877   1.999   2.062   3.007  0.7924  0.5260  0.2547
  177MOL0     H23878   2.217   1.940   2.993  1.2124 -3.3931  0.4918
  177MOL0     H23879   1.969   2.100   1.600 -2.3412  0.3726  1.1367
  177MOL0     H23880   1.730   2.061   1.586 -2.1284 -0.0742 -2.9075
  177MOL0     H23881   1.396   1.922   1.565  0.8829 -0.3726 -1.1689
  177MOL0     H23882   1.160   1.965   1.570 -2.5504  0.9465 -0.7678
  177MOL0     H23883   0.923   1.804   1.369 -0.9056  0.0109  0.0330
  177MOL0     H23884   0.884   1.914   1.245 -3.0944  1.9113  0.2591
  177MOL0     H23885   0.733   2.039   1.394 -1.4019 -0.6085 -0.8597
  177MOL0     H23886   0.802   1.964   1.540  0.6513 -0.9386  0.1103
  177MOL0     H23887   0.652   1.804   1.328  3.5194  2.8466 -1.3773
  177MOL0     H23888   0.574   1.916   1.447  0.5349 -0.0478  0.0834
  177MOL0     H23889   0.695   1.636   1.488  0.2963 -0.2500 -0.8976
  177MOL0     H23890   0.744   1.743   1.608 -1.4953  0.5563  1.0837
  177MOL0     H23891   0.348   1.628   1.694 -2.1268 -0.4897 -3.1445
  177MOL0     H23892   1.137   1.886   1.155 -0.7101  0.5020  0.2754
  177MOL0     H23893   1.304   1.783   1.022  1.6821 -0.4267 -1.8520
  177MOL0     H23894   1.437   1.891   1.032 -2.2015  0.3847 -3.7548
  177MOL0     H23895   1.457   1.737   1.100  1.0547  1.4435 -2.4109
  178MOL0     O23896   0.494   1.178  11.108  0.4250 -0.2577  0.4791
  178MOL0     C23897   0.455   1.070  11.146 -0.0009 -0.3196 -0.0884
  178MOL0     O23898   0.465   0.956  11.081 -0.2823 -0.6165 -0.1295
  178MOL0     C23899   0.531   0.958  10.961 -1.8742 -0.2813  0.0953
  178MOL0     C23900   0.615   0.854  10.929  0.3835  0.1006  0.0958
  178MOL0     C23901   0.686   0.853  10.806 -0.4243 -0.0232  0.3144
  178MOL0     C23902   0.662   0.948  10.706 -0.1027  0.3435 -0.7609
  178MOL0     O23903   0.734   0.935  10.593 -1.0111  0.1211 -0.0899
  178MOL0     C23904   0.736   1.052  10.503  0.4278 -0.1226 -0.1400
  178MOL0     C23905   0.622   1.034  10.405  0.2495 -0.2843  0.4541
  178MOL0     C23906   0.621   0.901  10.323 -0.1121  1.4825  0.5484
  178MOL0     C23907   0.667   0.912  10.174 -0.2687  0.4542  0.5215
  178MOL0     C23908   0.710   0.777  10.111 -0.0049  0.2295  0.0277
  178MOL0     C23909   0.840   0.775  10.027  0.2125  0.3390  0.4283
  178MOL0     C23910   0.849   0.883   9.916 -0.1813 -0.3230 -0.0382
  178MOL0     C23911   0.994   0.891   9.870  0.0773 -0.3303  0.6527
  178MOL0     N23912   1.064   0.766   9.848 -0.4248  0.1307  0.0360
  178MOL0     C23913   1.126   0.682   9.941 -0.8468  0.3992 -0.6305
  178MOL0     C23914   1.176   0.579   9.872 -0.4347  0.5078  0.1387
  178MOL0     C23915   1.268   0.473   9.939  0.1228  0.0507  1.0283
  178MOL0     C23916   1.396   0.530  10.000 -0.3338 -0.7812 -0.2708
  178MOL0     C23917   1.481   0.630   9.913 -0.7450 -0.1571  0.0430
  178MOL0     C23918   1.605   0.676  10.004  0.6399 -0.1075  0.6179
  178MOL0     O23919   1.685   0.566  10.042  0.5364  0.5924  0.3321
  178MOL0     C23920   1.804   0.544   9.972  0.1342  0.3503  0.8139
  178MOL0     C23921   1.852   0.623   9.859 -0.3608 -0.0276  0.1511
  178MOL0     C23922   1.978   0.583   9.800 -0.4756  0.2061  0.2602
  178MOL0     C23923   2.064   0.495   9.865  0.3784  0.0549  0.3642
  178MOL0     C23924   2.197   0.463   9.806 -0.1474  0.1925  0.3605
  178MOL0     O23925   2.252   0.350   9.860 -0.1524 -0.1134  0.0707
  178MOL0     C23926   2.376   0.316   9.814 -1.1002  0.7162 -0.3555
  178MOL0     C23927   2.416   0.299   9.685  0.1798 -0.0770  0.6108
  178MOL0     C23928   2.545   0.267   9.647  0.9469  1.0592  0.6135
  178MOL0     C23929   2.643   0.235   9.753  1.9947 -0.3864  0.4709
  178MOL0     O23930   2.770   0.211   9.726 -0.0184 -0.4752  0.2039
  178MOL0     C23931   2.824   0.246   9.589  0.3558 -0.2038 -0.5042
  178MOL0     C23932   2.979   0.249   9.600  0.7793 -0.3403  0.0689
  178MOL0     C23933   3.032   0.104   9.588 -0.2193  0.5729  0.1258
  178MOL0     C23934   3.176   0.117   9.567 -0.5143  0.1959 -0.1010
  178MOL0     C23935   3.261  -0.018   9.551 -0.1951  0.3255 -0.4152
  178MOL0     C23936   3.216  -0.134   9.645  0.8939 -0.9472 -0.4110
  178MOL0     C23937   3.336  -0.219   9.693 -0.1497 -0.3914  0.7744
  178MOL0     C23938   3.421  -0.165   9.809 -0.4775 -0.1222  0.0229
  178MOL0    Cl23939   3.539  -0.291   9.870  0.2714  0.0998 -0.0889
  178MOL0     C23940   2.596   0.233   9.881 -0.0076  0.7673 -0.1979
  178MOL0     C23941   2.472   0.273   9.916  0.0071  0.0185  0.1969
  178MOL0     O23942   2.244   0.538   9.722  0.4713 -0.0299  0.6800
  178MOL0     C23943   2.025   0.429   9.983  0.0068 -0.5926  0.7505
  178MOL0     C23944   1.896   0.456  10.032 -0.4782  0.4824  0.6870
  178MOL0     N23945   1.137   0.593   9.734 -0.3998  0.2350 -0.8592
  178MOL0     N23946   1.077   0.704   9.728 -0.3990 -0.4615 -0.1703
  178MOL0     C23947   0.573   1.051  10.741 -0.7899  0.4877  0.1819
  178MOL0     C23948   0.500   1.050  10.855 -0.4161 -0.3078 -1.0165
  178MOL0     C23949   0.363   1.080  11.263 -1.0322 -1.0436 -0.9213
  178MOL0     C23950   0.308   0.962  11.307 -0.0895  0.4246 -0.8854
  178MOL0     C23951   0.238   0.954  11.426  0.2718 -0.4344  1.3074
  178MOL0     C23952   0.224   1.066  11.509  0.4190  0.9026  0.9449
  178MOL0     O23953   0.150   1.058  11.628  0.1611  0.3861  0.0296
  178MOL0     C23954   0.069   0.947  11.653  0.4556  0.2080 -0.0192
  178MOL0     C23955  -0.047   0.928  11.569 -0.1521  0.0346  1.2876
  178MOL0     C23956  -0.138   1.044  11.553 -0.1498 -0.1271  0.6892
  178MOL0     C23957  -0.280   1.022  11.502  0.1943  0.6739  0.5954
  178MOL0     C23958  -0.361   0.978  11.617  0.0879 -0.0032 -0.2766
  178MOL0     C23959  -0.430   0.949  11.713 -0.1776  1.3361 -0.4152
  178MOL0     C23960   0.283   1.189  11.473  0.6840  0.1005  0.5083
  178MOL0     C23961   0.354   1.195  11.352 -0.5199  0.2123 -0.6564
  178MOL0     C23962   0.431   1.335  11.332 -0.9682 -0.2864  0.2455
  178MOL0     H23963   0.640   0.781  11.005  3.0197  1.3408  0.5351
  178MOL0     H23964   0.752   0.769  10.784 -3.7552 -3.3207  1.7227
  178MOL0     H23965   0.715   1.152  10.543 -0.3762 -0.4735  0.3405
  178MOL0     H23966   0.829   1.037  10.448  2.1655  0.3799  2.4605
  178MOL0     H23967   0.624   1.116  10.333  0.9621 -0.7327 -0.0496
  178MOL0     H23968   0.531   1.034  10.466  0.4185 -3.8591  0.9309
  178MOL0     H23969   0.520   0.859  10.318 -1.2840  4.1962 -0.0893
  178MOL0     H23970   0.680   0.822  10.371 -1.0164 -0.1546 -0.9102
  178MOL0     H23971   0.582   0.946  10.114 -0.2674 -2.1640 -1.1605
  178MOL0     H23972   0.751   0.981  10.164 -0.5172  0.4605 -2.0873
  178MOL0     H23973   0.727   0.700  10.187  0.7704 -0.5567 -0.9183
  178MOL0     H23974   0.633   0.745  10.041 -1.1483  1.9258  0.4472
  178MOL0     H23975   0.919   0.785  10.102  0.9241 -0.7253 -0.1638
  178MOL0     H23976   0.866   0.680   9.982  2.2455 -0.6290  3.3675
  178MOL0     H23977   0.813   0.982   9.947 -2.6608 -1.2793  0.2950
  178MOL0     H23978   0.785   0.839   9.839 -0.7445 -1.5183  1.0869
  178MOL0     H23979   0.979   0.936   9.772 -4.4280  0.5474  1.5198
  178MOL0     H23980   1.059   0.964   9.920  0.5192 -0.7884  0.7644
  178MOL0     H23981   1.124   0.689  10.049 -0.9798 -0.9320 -0.5257
  178MOL0     H23982   1.209   0.417  10.012  1.1022  0.4097  2.1315
  178MOL0     H23983   1.297   0.395   9.867 -1.0667 -0.5197  1.1455
  178MOL0     H23984   1.344   0.586  10.079 -0.1753 -1.3655  0.2508
  178MOL0     H23985   1.461   0.450  10.038 -0.0190 -0.1583  0.5479
  178MOL0     H23986   1.418   0.718   9.899 -2.2066 -1.4244 -1.9061
  178MOL0     H23987   1.508   0.593   9.813  1.8281 -0.6978  0.8618
  178MOL0     H23988   1.557   0.700  10.100  0.5215 -3.2874  1.4797
  178MOL0     H23989   1.669   0.754   9.963  0.7236 -0.4563  0.0717
  178MOL0     H23990   1.791   0.694   9.804 -1.0187 -0.4442  0.3277
  178MOL0     H23991   2.001   0.640   9.711 -0.0145  0.9809  0.8663
  178MOL0     H23992   2.343   0.314   9.606  2.1437 -1.5952 -1.6046
  178MOL0     H23993   2.567   0.251   9.542  1.6602 -1.7361  1.1321
  178MOL0     H23994   2.786   0.174   9.517 -3.0517  2.7499 -1.9488
  178MOL0     H23995   2.781   0.343   9.565 -3.9194 -2.0887 -1.3683
  178MOL0     H23996   3.004   0.314   9.516  0.6953  3.6975  2.8942
  178MOL0     H23997   3.006   0.296   9.694 -0.5008  1.0405 -0.2221
  178MOL0     H23998   3.011   0.050   9.681 -0.5136 -1.2331 -0.9320
  178MOL0     H23999   2.991   0.053   9.500 -0.1659 -1.1939  1.0751
  178MOL0     H24000   3.220   0.186   9.639 -0.4300  0.9842 -0.8863
  178MOL0     H24001   3.192   0.173   9.474  1.4720 -0.6090 -0.2993
  178MOL0     H24002   3.368   0.007   9.551  0.1142 -0.9342 -1.3810
  178MOL0     H24003   3.237  -0.067   9.456 -0.9599 -1.5138  0.6794
  178MOL0     H24004   3.149  -0.103   9.727 -0.6655  0.4078 -2.1056
  178MOL0     H24005   3.156  -0.209   9.593  0.1943 -0.7330  0.0669
  178MOL0     H24006   3.402  -0.233   9.607  1.8657 -1.3495  2.3948
  178MOL0     H24007   3.313  -0.324   9.714  1.6699 -0.6417  1.6860
  178MOL0     H24008   3.478  -0.086   9.760 -1.9937 -0.0601 -1.7616
  178MOL0     H24009   3.358  -0.119   9.885 -2.7334 -2.0731 -0.5515
  178MOL0     H24010   2.666   0.196   9.956 -0.8209 -3.1704 -1.1890
  178MOL0     H24011   2.445   0.264  10.021  2.2811  0.3566  0.8669
  178MOL0     H24012   2.094   0.356  10.024  1.6395 -0.4342 -1.5076
  178MOL0     H24013   1.857   0.409  10.122 -3.0738 -0.8319 -0.9813
  178MOL0     H24014   0.547   1.119  10.660  3.2949 -0.1589 -1.9525
  178MOL0     H24015   0.417   1.118  10.872  0.9745  1.0475  0.7657
  178MOL0     H24016   0.317   0.870  11.251 -0.8960  1.1161 -2.2086
  178MOL0     H24017   0.192   0.856  11.433  1.0059 -0.8379  0.6844
  178MOL0     H24018   0.027   0.964  11.753  1.2871 -0.6571  0.4971
  178MOL0     H24019   0.131   0.858  11.669  1.6562  0.8580 -0.9415
  178MOL0     H24020  -0.115   0.848  11.601 -0.5498  0.4990  1.6240
  178MOL0     H24021  -0.006   0.910  11.470  1.0477  0.2451  1.7271
  178MOL0     H24022  -0.084   1.103  11.478  1.9212  0.2733  2.3948
  178MOL0     H24023  -0.133   1.103  11.645 -1.3137  3.3313 -1.2897
  178MOL0     H24024  -0.326   1.114  11.464 -0.2890  0.5666  0.9062
  178MOL0     H24025  -0.271   0.939  11.432 -1.5094 -2.0061  3.3422
  178MOL0     H24026  -0.492   0.925  11.797 -0.1070 -0.6554 -0.8873
  178MOL0     H24027   0.288   1.278  11.533  0.5659  0.9663 -0.7230
  178MOL0     H24028   0.419   1.406  11.416  0.3897  1.1972 -0.7586
  178MOL0     H24029   0.539   1.320  11.333 -0.1419  3.5724 -3.3648
  178MOL0     H24030   0.414   1.380  11.234  1.5584 -0.0089 -0.1371
  179MOL0     O24031   3.318   7.782   1.263  0.9502 -0.0553 -0.3878
  179MOL0     C24032   3.257   7.701   1.337  0.9180  0.2639  0.6941
  179MOL0     O24033   3.322   7.607   1.414 -0.6952  0.5329  0.1113
  179MOL0     C24034   3.460   7.626   1.420 -0.0399  0.6494 -0.1749
  179MOL0     C24035   3.507   7.741   1.485  0.1950 -0.7955 -0.6397
  179MOL0     C24036   3.646   7.759   1.502 -0.3437 -0.4397  0.1901
  179MOL0     C24037   3.733   7.661   1.470 -1.1365  0.7334  0.0880
  179MOL0     O24038   3.865   7.686   1.491  0.0107 -0.8058  0.0048
  179MOL0     C24039   3.954   7.614   1.570 -0.4166  0.4748  0.2422
  179MOL0     C24040   4.080   7.694   1.585 -0.4229  0.7115  0.2924
  179MOL0     C24041   4.193   7.640   1.659  0.1034 -0.0587  0.4859
  179MOL0     C24042   4.294   7.562   1.573  0.4158 -0.5815  0.0016
  179MOL0     C24043   4.413   7.516   1.657 -0.5304  0.6381 -0.2252
  179MOL0     C24044   4.524   7.458   1.573  0.4620  0.1849 -0.2252
  179MOL0     C24045   4.487   7.340   1.489 -0.4676 -0.7585 -0.0172
  179MOL0     C24046   4.481   7.199   1.549  0.0597  0.1170  0.4988
  179MOL0     N24047   4.612   7.130   1.550 -0.2957 -0.4050 -0.3068
  179MOL0     C24048   4.701   7.119   1.657  0.0909  0.5199  0.5934
  179MOL0     C24049   4.798   7.034   1.612 -0.3892 -0.0456 -0.9618
  179MOL0     C24050   4.920   6.991   1.697 -0.3192 -0.0151  1.0323
  179MOL0     C24051   5.047   7.077   1.674 -0.5978 -0.1819 -0.5850
  179MOL0     C24052   5.159   7.033   1.775  0.3549  0.8266  0.0582
  179MOL0     C24053   5.299   7.050   1.719  0.9891 -0.8835 -0.4867
  179MOL0     O24054   5.401   6.998   1.807 -0.4899  0.4074  0.0696
  179MOL0     C24055   5.521   7.066   1.788 -0.8241 -0.0969  0.5765
  179MOL0     C24056   5.564   7.158   1.874 -0.3672 -0.2326  0.4176
  179MOL0     C24057   5.680   7.227   1.844 -0.2738 -0.1378 -0.2572
  179MOL0     C24058   5.750   7.207   1.725  0.1018  0.0418 -0.2980
  179MOL0     C24059   5.868   7.286   1.692 -0.0709  0.0017 -0.1624
  179MOL0     O24060   5.921   7.360   1.799  0.6201  0.5554 -0.5046
  179MOL0     C24061   6.026   7.446   1.770  0.5534  0.1552 -0.2079
  179MOL0     C24062   6.153   7.441   1.806  0.8942 -0.5869 -0.0842
  179MOL0     C24063   6.248   7.527   1.762 -0.6941 -0.2862 -0.1313
  179MOL0     C24064   6.206   7.647   1.683 -0.4769  0.1682 -0.5108
  179MOL0     O24065   6.287   7.751   1.637  0.5217 -0.2181  0.3068
  179MOL0     C24066   6.420   7.752   1.678  0.1361 -0.1104 -0.5307
  179MOL0     C24067   6.507   7.638   1.624 -0.0800 -0.2332  0.2247
  179MOL0     C24068   6.614   7.594   1.717  0.0673 -0.6701  0.1871
  179MOL0     C24069   6.708   7.706   1.763 -0.2195  0.2346  0.4798
  179MOL0     C24070   6.824   7.656   1.861  0.5983 -0.1049  0.1183
  179MOL0     C24071   6.947   7.748   1.854  0.1320  0.0636  0.6942
  179MOL0     C24072   7.073   7.693   1.925  0.9313 -0.1253 -0.0344
  179MOL0     C24073   7.202   7.765   1.870 -0.1737 -0.0471 -0.9064
  179MOL0    Cl24074   7.196   7.933   1.878  0.2767 -0.1282  0.2211
  179MOL0     C24075   6.064   7.657   1.649 -0.1927 -0.0046  0.0742
  179MOL0     C24076   5.980   7.550   1.686  0.2572 -0.0034 -0.0023
  179MOL0     O24077   5.927   7.259   1.585  0.4266  0.1993  0.1092
  179MOL0     C24078   5.704   7.112   1.634  0.5276  0.1499  0.9938
  179MOL0     C24079   5.592   7.040   1.666  0.1990  0.4519  0.4169
  179MOL0     N24080   4.783   7.019   1.479 -0.0385  0.5603  0.0008
  179MOL0     N24081   4.673   7.074   1.441  1.1695 -0.0896  0.0587
  179MOL0     C24082   3.688   7.541   1.401 -0.1037  0.6395 -0.3315
  179MOL0     C24083   3.550   7.523   1.383  0.0698  0.2255 -0.8585
  179MOL0     C24084   3.105   7.694   1.325 -0.3496  0.0535 -0.0183
  179MOL0     C24085   3.040   7.801   1.267  1.0633 -0.2898 -0.5783
  179MOL0     C24086   2.903   7.804   1.253  1.0783  0.3182 -0.3908
  179MOL0     C24087   2.823   7.701   1.303 -0.4990  0.0850 -0.6717
  179MOL0     O24088   2.688   7.696   1.297 -0.1640  0.2552  0.6153
  179MOL0     C24089   2.623   7.799   1.235  0.4293 -0.9575  0.6880
  179MOL0     C24090   2.469   7.758   1.226  0.6745  0.0809 -0.6127
  179MOL0     C24091   2.374   7.868   1.157 -0.3139 -0.0882  0.6285
  179MOL0     C24092   2.351   7.996   1.246 -0.4548 -0.2331  0.5451
  179MOL0     C24093   2.448   8.102   1.201  0.1491 -0.4912  0.8009
  179MOL0     C24094   2.530   8.174   1.138  0.6598  0.4452 -1.1539
  179MOL0     C24095   2.884   7.591   1.365  0.0366 -0.3767  0.2866
  179MOL0     C24096   3.025   7.586   1.372 -0.7425  0.1203  0.1583
  179MOL0     C24097   3.082   7.450   1.402  0.8339 -0.6052 -0.1361
  179MOL0     H24098   3.435   7.814   1.520  0.7479  0.4841 -2.0656
  179MOL0     H24099   3.685   7.852   1.541 -2.1601  0.4254  0.0511
  179MOL0     H24100   3.914   7.602   1.671 -2.6152 -2.3225 -0.8032
  179MOL0     H24101   3.977   7.513   1.533  2.6491  0.4322  1.9364
  179MOL0     H24102   4.060   7.797   1.618  0.0809  1.7602 -2.4528
  179MOL0     H24103   4.102   7.702   1.479 -1.3077  0.3785  0.0798
  179MOL0     H24104   4.154   7.579   1.741  3.4150  0.5859  2.7489
  179MOL0     H24105   4.235   7.728   1.710 -3.1092  0.8865  1.7303
  179MOL0     H24106   4.241   7.473   1.538  0.1051 -1.0651  1.6262
  179MOL0     H24107   4.334   7.629   1.496 -0.6478  2.6117  2.0260
  179MOL0     H24108   4.453   7.599   1.717 -0.9395  0.6240  0.0712
  179MOL0     H24109   4.375   7.443   1.729 -2.9302  1.8749 -0.1544
  179MOL0     H24110   4.563   7.543   1.516  0.2626  1.9746  2.1435
  179MOL0     H24111   4.608   7.423   1.634  1.1885  0.1485 -1.2286
  179MOL0     H24112   4.560   7.333   1.407  1.0329 -0.3032  1.2320
  179MOL0     H24113   4.395   7.365   1.436 -0.0621 -0.6364 -0.6845
  179MOL0     H24114   4.426   7.198   1.643  0.5591 -2.0087  0.8005
  179MOL0     H24115   4.413   7.145   1.483  2.3426 -1.1433 -0.9448
  179MOL0     H24116   4.683   7.172   1.750 -1.6239 -2.2018  1.9599
  179MOL0     H24117   4.892   7.002   1.802  0.2836  0.9103  1.1163
  179MOL0     H24118   4.948   6.890   1.665 -0.8145  0.4276 -0.9480
  179MOL0     H24119   5.088   7.067   1.573 -0.4464 -2.3207 -0.3598
  179MOL0     H24120   5.028   7.182   1.697  2.0095 -0.0080  1.1555
  179MOL0     H24121   5.151   6.924   1.784 -1.8701  0.9768  0.5471
  179MOL0     H24122   5.144   7.083   1.871 -2.1811 -0.7590  0.6060
  179MOL0     H24123   5.322   7.156   1.703  1.6499 -0.5251  2.2902
  179MOL0     H24124   5.309   7.007   1.619 -1.3098  0.1866 -1.2444
  179MOL0     H24125   5.503   7.185   1.959 -0.2205  0.3960  0.3228
  179MOL0     H24126   5.715   7.308   1.907 -0.9004  0.4463 -0.6530
  179MOL0     H24127   6.182   7.372   1.885 -3.1204 -2.2461  0.2262
  179MOL0     H24128   6.348   7.501   1.795 -0.9522 -2.9249 -1.2144
  179MOL0     H24129   6.469   7.848   1.664  2.7867 -1.2622  0.3002
  179MOL0     H24130   6.414   7.738   1.787 -0.8470  1.9564 -0.2644
  179MOL0     H24131   6.435   7.565   1.589  0.1085  0.4143 -1.6157
  179MOL0     H24132   6.564   7.673   1.537  1.7178  3.0016  2.4646
  179MOL0     H24133   6.570   7.561   1.812  3.3690 -1.4162  1.6017
  179MOL0     H24134   6.662   7.510   1.665 -0.3951 -0.9918  0.2727
  179MOL0     H24135   6.648   7.782   1.813 -1.2065 -0.2775  0.0995
  179MOL0     H24136   6.758   7.745   1.674 -1.1214  0.7795  0.1974
  179MOL0     H24137   6.860   7.561   1.821 -0.0509  0.7487 -2.6910
  179MOL0     H24138   6.774   7.642   1.957  1.8721 -2.5514  0.5103
  179MOL0     H24139   6.992   7.769   1.757  0.5300  1.4532  1.1560
  179MOL0     H24140   6.909   7.844   1.893  1.2898  1.3728 -1.2352
  179MOL0     H24141   7.069   7.588   1.898 -1.3725  0.1426 -0.9327
  179MOL0     H24142   7.074   7.708   2.033 -0.8019 -2.9083  0.4509
  179MOL0     H24143   7.290   7.744   1.931  0.3956  3.1811 -0.4184
  179MOL0     H24144   7.231   7.729   1.771  1.0537 -3.5494  0.5598
  179MOL0     H24145   6.028   7.727   1.575 -0.2499  0.3577  0.4402
  179MOL0     H24146   5.879   7.551   1.645  0.2609 -1.7879 -0.1043
  179MOL0     H24147   5.749   7.100   1.536  0.3327 -1.1866  1.0528
  179MOL0     H24148   5.544   6.974   1.595  1.1849 -0.5162  0.6218
  179MOL0     H24149   3.767   7.479   1.360  0.0148  0.9088 -0.5158
  179MOL0     H24150   3.504   7.430   1.352  0.8133 -0.3164 -0.3680
  179MOL0     H24151   3.095   7.885   1.225 -0.5389 -0.0018 -2.2117
  179MOL0     H24152   2.852   7.877   1.192  1.0072  1.2739  0.7646
  179MOL0     H24153   2.657   7.816   1.133 -3.3745 -2.5597 -1.0123
  179MOL0     H24154   2.640   7.894   1.287 -1.5790  1.7312 -3.0977
  179MOL0     H24155   2.429   7.734   1.325  2.5976 -2.9171 -0.4612
  179MOL0     H24156   2.459   7.672   1.160 -5.0594  0.4675 -0.7052
  179MOL0     H24157   2.283   7.822   1.117 -0.3995  2.0264 -1.8880
  179MOL0     H24158   2.434   7.897   1.071  0.8054 -1.8889  0.7661
  179MOL0     H24159   2.248   8.032   1.240 -0.0382  1.5876  2.9067
  179MOL0     H24160   2.371   7.970   1.350 -5.2563  1.2884  2.0981
  179MOL0     H24161   2.597   8.236   1.083  0.0751  1.0250 -1.2254
  179MOL0     H24162   2.836   7.507   1.413  1.4317 -1.3853 -0.0332
  179MOL0     H24163   3.186   7.429   1.374  1.9551  1.1223  2.2939
  179MOL0     H24164   3.078   7.435   1.511 -2.0077 -3.5949 -0.5115
  179MOL0     H24165   3.014   7.377   1.357  0.0623  0.3682 -0.5692
  180MOL0     O24166  10.312   9.583   7.972 -0.9622 -0.1710  0.5928
  180MOL0     C24167  10.275   9.628   7.860  0.6733  0.2235 -0.3178
  180MOL0     O24168  10.360   9.679   7.765 -0.1492  0.4725  0.7011
  180MOL0     C24169  10.499   9.688   7.802  0.2855  0.1528 -0.9869
  180MOL0     C24170  10.575   9.580   7.850 -0.3987 -0.1535  1.3334
  180MOL0     C24171  10.704   9.594   7.883  0.3246 -0.0744  0.5558
  180MOL0     C24172  10.774   9.717   7.873  0.6504  0.9474  0.1795
  180MOL0     O24173  10.909   9.715   7.914  0.1204  0.3841  0.3126
  180MOL0     C24174  10.981   9.843   7.913 -0.5621  0.0524 -0.5282
  180MOL0     C24175  11.130   9.798   7.920 -0.0933 -0.0586  0.4041
  180MOL0     C24176  11.168   9.678   8.010  0.1271  0.0068  0.0325
  180MOL0     C24177  11.316   9.671   8.050 -0.0980  0.0471  0.0806
  180MOL0     C24178  11.365   9.532   8.100  0.0824  0.6754  0.0954
  180MOL0     C24179  11.509   9.538   8.147  0.1261  1.0145 -0.1557
  180MOL0     C24180  11.600   9.570   8.028  0.5692  0.1118  0.2913
  180MOL0     C24181  11.742   9.540   8.053 -0.0738  0.4744 -0.1654
  180MOL0     N24182  11.799   9.604   8.170 -0.1585  0.5612 -0.4930
  180MOL0     C24183  11.909   9.689   8.171 -0.3102  0.1420  0.8498
  180MOL0     C24184  11.951   9.702   8.303 -0.4250 -0.1396  0.4020
  180MOL0     C24185  12.063   9.793   8.348 -0.1059  0.3378  0.4368
  180MOL0     C24186  12.193   9.731   8.308 -0.7954  0.4982  0.0093
  180MOL0     C24187  12.311   9.812   8.365 -0.0135 -0.1019 -0.7689
  180MOL0     C24188  12.442   9.732   8.366 -0.3780 -0.0136 -0.1190
  180MOL0     O24189  12.544   9.813   8.436  0.5197  0.2366 -0.2432
  180MOL0     C24190  12.678   9.794   8.422  0.6609  0.6771 -0.2475
  180MOL0     C24191  12.764   9.901   8.425 -0.2161 -1.1862 -0.1380
  180MOL0     C24192  12.899   9.885   8.394  0.3009  0.1320  0.6842
  180MOL0     C24193  12.945   9.762   8.354 -0.3677  0.0603  1.0987
  180MOL0     C24194  13.094   9.746   8.330 -0.2989 -0.4692  0.3292
  180MOL0     O24195  13.179   9.862   8.345  0.7841  0.1016 -0.7190
  180MOL0     C24196  13.297   9.861   8.275  0.1692  0.0507 -0.0339
  180MOL0     C24197  13.405   9.779   8.313 -1.0081 -1.0446  1.2620
  180MOL0     C24198  13.532   9.799   8.246 -0.1102  0.0483 -0.5923
  180MOL0     C24199  13.545   9.900   8.148  0.8931  0.1097  0.0581
  180MOL0     O24200  13.665   9.888   8.081  0.1695 -0.4296  0.3373
  180MOL0     C24201  13.757   9.971   8.149  0.1070 -0.2571 -0.3643
  180MOL0     C24202  13.842   9.890   8.241  0.1573  0.7499  0.1866
  180MOL0     C24203  13.955   9.970   8.297  0.5239 -0.3605  0.1621
  180MOL0     C24204  14.054   9.883   8.361  0.4856 -0.4036  1.1280
  180MOL0     C24205  14.196   9.868   8.301  0.2460 -0.4011  0.2820
  180MOL0     C24206  14.300   9.978   8.339 -0.5606  0.2436  0.5463
  180MOL0     C24207  14.456   9.959   8.330 -0.6588  0.7895 -0.2266
  180MOL0     C24208  14.504   9.922   8.192 -0.5892 -0.3704 -0.1810
  180MOL0    Cl24209  14.679   9.876   8.206 -0.3242  0.0907 -0.0171
  180MOL0     C24210  13.442   9.996   8.138 -0.3376  0.1057  0.1530
  180MOL0     C24211  13.320   9.976   8.196 -0.0213 -0.0178  1.2380
  180MOL0     O24212  13.132   9.638   8.286  0.2661 -0.5330  0.6107
  180MOL0     C24213  12.863   9.651   8.365 -0.3342  0.2927 -0.4005
  180MOL0     C24214  12.724   9.663   8.396 -0.2177  0.4518  0.3499
  180MOL0     N24215  11.850   9.656   8.384  0.3527  0.4193  0.5004
  180MOL0     N24216  11.768   9.589   8.305 -0.1170  0.0641  0.5246
  180MOL0     C24217  10.697   9.829   7.853  0.8666 -0.3991  1.1012
  180MOL0     C24218  10.565   9.815   7.801  0.0191 -0.3258 -2.0192
  180MOL0     C24219  10.128   9.610   7.825  0.1836 -0.2870  0.2890
  180MOL0     C24220  10.045   9.546   7.914 -0.3732 -1.0951  0.2975
  180MOL0     C24221   9.909   9.549   7.897  0.1651  0.9347  0.4543
  180MOL0     C24222   9.842   9.588   7.785  0.4602 -0.9833  0.1259
  180MOL0     O24223   9.713   9.556   7.778 -0.0970 -0.1369  0.3024
  180MOL0     C24224   9.629   9.670   7.801  0.3065  0.6576 -0.5259
  180MOL0     C24225   9.507   9.647   7.891 -0.6691  0.2833  0.9041
  180MOL0     C24226   9.431   9.769   7.923 -0.2753 -0.1791 -0.5027
  180MOL0     C24227   9.296   9.744   8.005 -0.0444 -0.3453  0.5221
  180MOL0     C24228   9.185   9.823   7.944 -0.5527 -0.0478 -0.4294
  180MOL0     C24229   9.098   9.885   7.883  0.1269  0.0981 -0.6382
  180MOL0     C24230   9.920   9.645   7.687  1.1433 -0.1616  0.9404
  180MOL0     C24231  10.060   9.657   7.706 -0.2542  0.1035  0.2303
  180MOL0     C24232  10.136   9.721   7.590 -0.2270  0.3533  1.2341
  180MOL0     H24233  10.531   9.481   7.851  1.0563 -0.9564 -1.4690
  180MOL0     H24234  10.761   9.507   7.912 -1.6241 -0.8233  2.3690
  180MOL0     H24235  10.977   9.898   7.819  1.9231 -1.2535 -1.5168
  180MOL0     H24236  10.963   9.909   7.998 -2.9552 -2.1126  0.7831
  180MOL0     H24237  11.193   9.881   7.953  1.0668 -0.7013 -0.1489
  180MOL0     H24238  11.162   9.763   7.821  0.2916  1.5366 -0.0625
  180MOL0     H24239  11.147   9.587   7.954 -0.9774 -0.6563  1.4572
  180MOL0     H24240  11.100   9.674   8.096 -3.0715 -1.0737 -2.3714
  180MOL0     H24241  11.380   9.711   7.972  1.3592  1.9526  2.1303
  180MOL0     H24242  11.344   9.742   8.128  2.9762  0.8242 -1.5806
  180MOL0     H24243  11.309   9.516   8.193  1.9041  4.2041  2.0094
  180MOL0     H24244  11.337   9.451   8.032  0.9280 -0.6134  1.2284
  180MOL0     H24245  11.512   9.612   8.228 -2.1429 -0.1194  1.0605
  180MOL0     H24246  11.533   9.442   8.195 -1.1537  1.0192  0.5309
  180MOL0     H24247  11.599   9.678   8.012  0.9950  0.3598  1.8396
  180MOL0     H24248  11.562   9.520   7.938 -0.6109  2.7361 -0.7872
  180MOL0     H24249  11.752   9.431   8.064  1.6850  0.6000 -0.1338
  180MOL0     H24250  11.801   9.570   7.966  0.5213 -0.0126  0.0550
  180MOL0     H24251  11.952   9.740   8.086  0.0512 -1.8335 -0.2293
  180MOL0     H24252  12.059   9.890   8.299 -0.0866  1.3556  2.3541
  180MOL0     H24253  12.065   9.805   8.457 -1.6414 -4.5319  1.2541
  180MOL0     H24254  12.197   9.629   8.348 -1.6962  0.1164 -0.8292
  180MOL0     H24255  12.212   9.713   8.202  2.7254  0.6985  0.4959
  180MOL0     H24256  12.294   9.844   8.468 -0.1719  0.7236 -1.0442
  180MOL0     H24257  12.323   9.906   8.311 -0.4193  0.5340  0.2283
  180MOL0     H24258  12.475   9.717   8.262 -1.6954 -0.9115 -0.4329
  180MOL0     H24259  12.425   9.640   8.423 -1.1470  2.1899  3.5022
  180MOL0     H24260  12.734  10.004   8.438  0.0685 -1.0893 -0.2326
  180MOL0     H24261  12.958   9.976   8.386  4.7788 -2.4076  1.0927
  180MOL0     H24262  13.402   9.712   8.399 -0.6993  2.0043  3.8039
  180MOL0     H24263  13.620   9.735   8.253  0.0327  0.3834  1.3454
  180MOL0     H24264  13.824  10.012   8.072  1.3370 -0.8276  0.3725
  180MOL0     H24265  13.713  10.056   8.203  1.5851 -0.9959  2.1744
  180MOL0     H24266  13.778   9.852   8.322  0.1926 -0.1002 -0.1767
  180MOL0     H24267  13.887   9.808   8.184 -2.5903  0.0100 -1.0750
  180MOL0     H24268  13.993  10.026   8.210  1.3638 -4.0568 -2.0796
  180MOL0     H24269  13.921  10.046   8.368 -2.3661 -0.3288 -1.1311
  180MOL0     H24270  14.008   9.785   8.378 -0.2514 -0.1523  0.6294
  180MOL0     H24271  14.070   9.921   8.462  0.4584 -0.9067  1.3226
  180MOL0     H24272  14.187   9.864   8.192 -0.5712 -1.3034  0.3743
  180MOL0     H24273  14.254   9.783   8.338 -0.6355 -0.5569  1.3570
  180MOL0     H24274  14.268  10.070   8.291 -0.0002  0.5553  0.7642
  180MOL0     H24275  14.284  10.000   8.445  2.5043  1.4906  0.8410
  180MOL0     H24276  14.483   9.881   8.402 -1.4815  0.2677 -0.4700
  180MOL0     H24277  14.516  10.048   8.351  1.8134 -0.5979 -0.9043
  180MOL0     H24278  14.445   9.842   8.146 -0.3831 -1.6881  1.7186
  180MOL0     H24279  14.513  10.011   8.130 -0.7423  0.8982  1.5192
  180MOL0     H24280  13.462  10.092   8.091 -1.7685 -0.1602 -1.0833
  180MOL0     H24281  13.237  10.043   8.175 -1.8636 -2.4149  0.3998
  180MOL0     H24282  12.905   9.556   8.334  1.4847  1.0109 -0.2715
  180MOL0     H24283  12.663   9.574   8.384 -0.5382  0.7624 -0.4062
  180MOL0     H24284  10.734   9.931   7.862 -2.0557  0.7999  0.5802
  180MOL0     H24285  10.508   9.902   7.768 -1.1356 -0.4084 -0.3329
  180MOL0     H24286  10.085   9.502   8.005  0.4148 -1.1094 -0.0463
  180MOL0     H24287   9.847   9.486   7.959 -0.8996  1.2170 -0.2975
  180MOL0     H24288   9.592   9.703   7.703 -0.1031 -1.0638 -0.9800
  180MOL0     H24289   9.679   9.761   7.834  0.2724  0.2826  0.5882
  180MOL0     H24290   9.535   9.600   7.986  2.9540  0.9587  0.3307
  180MOL0     H24291   9.440   9.591   7.825 -0.2639 -0.7752  1.3665
  180MOL0     H24292   9.387   9.822   7.838 -1.7533 -1.4374 -0.5638
  180MOL0     H24293   9.496   9.836   7.981  0.3109 -0.2518 -1.0650
  180MOL0     H24294   9.271   9.638   7.994  1.9554 -0.8202  0.1417
  180MOL0     H24295   9.293   9.760   8.114 -4.1283 -3.1495  1.0207
  180MOL0     H24296   9.028   9.943   7.826 -1.5729 -2.4236 -1.2931
  180MOL0     H24297   9.878   9.680   7.592 -2.2965 -1.1015  1.9794
  180MOL0     H24298  10.075   9.758   7.507 -1.2335 -2.9793  0.3378
  180MOL0     H24299  10.202   9.803   7.621  0.8376 -0.8675  2.3130
  180MOL0     H24300  10.205   9.641   7.560  1.4454  2.5928 -1.3968
  181MOL0     O24301   8.740   0.004   6.042 -0.6379 -0.5204  0.0383
  181MOL0     C24302   8.737   0.023   5.923 -0.1148 -0.3565  0.6422
  181MOL0     O24303   8.842   0.004   5.830 -0.3059  0.2599  0.0375
  181MOL0     C24304   8.961  -0.027   5.892 -0.0598  0.3066  0.3953
  181MOL0     C24305   9.049  -0.117   5.830 -0.5497  0.6090  0.4866
  181MOL0     C24306   9.178  -0.149   5.880  0.0773 -0.4615  0.1704
  181MOL0     C24307   9.219  -0.086   5.999  0.7388 -0.3584  0.7490
  181MOL0     O24308   9.338  -0.122   6.057 -0.0215  0.4443 -1.1734
  181MOL0     C24309   9.422  -0.013   6.109  1.0387 -0.3465  0.1385
  181MOL0     C24310   9.558  -0.094   6.126  0.5067 -0.0102 -0.1459
  181MOL0     C24311   9.670  -0.010   6.190 -0.1875  0.4177  0.1626
  181MOL0     C24312   9.796  -0.095   6.204 -0.6805  0.1772  0.5080
  181MOL0     C24313   9.910  -0.001   6.240  0.5771  0.6341  0.3677
  181MOL0     C24314  10.032  -0.090   6.269 -0.3159 -0.3051  0.1668
  181MOL0     C24315  10.151  -0.006   6.298  0.5758 -0.6084 -1.0735
  181MOL0     C24316  10.213   0.087   6.199  0.4865 -0.5514 -0.4073
  181MOL0     N24317  10.306   0.188   6.271 -0.1314 -0.3439  0.2126
  181MOL0     C24318  10.292   0.318   6.252 -0.4035 -0.2999  0.2457
  181MOL0     C24319  10.404   0.376   6.307  0.1821 -0.8799 -0.4952
  181MOL0     C24320  10.436   0.524   6.314 -0.4033 -0.6209 -0.2745
  181MOL0     C24321  10.583   0.544   6.282  0.6338  0.4744 -0.1688
  181MOL0     C24322  10.653   0.608   6.391  0.0682 -0.3489  0.3612
  181MOL0     C24323  10.682   0.517   6.511  0.3287  0.0739 -0.4912
  181MOL0     O24324  10.746   0.588   6.614 -0.3768  0.3290  0.2289
  181MOL0     C24325  10.884   0.589   6.610 -0.1305 -0.0511  0.0840
  181MOL0     C24326  10.943   0.670   6.709 -0.0888 -0.3933  0.1420
  181MOL0     C24327  11.086   0.703   6.705  0.3944 -0.4259 -0.0598
  181MOL0     C24328  11.167   0.652   6.599  0.8251 -0.5935 -0.5656
  181MOL0     C24329  11.311   0.675   6.590  0.0065 -0.7038  0.9819
  181MOL0     O24330  11.372   0.627   6.481 -0.5080 -0.0046 -0.3231
  181MOL0     C24331  11.502   0.646   6.448  0.7620  0.8235  0.2540
  181MOL0     C24332  11.592   0.740   6.493  0.3365 -1.0028  0.1623
  181MOL0     C24333  11.730   0.745   6.459  0.4279  0.6448 -1.2379
  181MOL0     C24334  11.773   0.652   6.365  0.8821  0.5413 -0.1893
  181MOL0     O24335  11.903   0.658   6.334  0.1868  0.0683  0.4995
  181MOL0     C24336  11.982   0.577   6.430  0.6560  0.0019  1.0103
  181MOL0     C24337  12.128   0.599   6.394 -0.0958  0.0302 -0.4990
  181MOL0     C24338  12.146   0.751   6.390 -0.5851 -0.5688  0.1430
  181MOL0     C24339  12.288   0.796   6.384  0.5421  0.0092 -0.1291
  181MOL0     C24340  12.345   0.937   6.402  0.7060  0.5073  0.2887
  181MOL0     C24341  12.498   0.936   6.395 -1.2334  0.4532 -0.2110
  181MOL0     C24342  12.580   1.056   6.456 -0.5180  0.0380 -0.1214
  181MOL0     C24343  12.733   1.024   6.444 -0.3133  0.0581  0.1875
  181MOL0    Cl24344  12.824   1.168   6.478  0.1728 -0.0213 -0.2685
  181MOL0     C24345  11.685   0.553   6.309  0.1199  0.2972 -0.7921
  181MOL0     C24346  11.554   0.553   6.350 -1.1915  0.1575  1.1588
  181MOL0     O24347  11.372   0.718   6.687 -0.4422  0.3102 -0.4204
  181MOL0     C24348  11.104   0.576   6.496  1.0970 -0.3593 -0.3434
  181MOL0     C24349  10.965   0.548   6.496  0.1648 -0.1676  0.0421
  181MOL0     N24350  10.487   0.275   6.359 -0.0579 -0.3078 -0.3717
  181MOL0     N24351  10.423   0.162   6.336  0.1204 -0.4872 -0.0400
  181MOL0     C24352   9.136   0.018   6.056 -0.4103  1.1013  0.2317
  181MOL0     C24353   9.013   0.049   6.004 -0.3768 -0.2693 -0.3578
  181MOL0     C24354   8.605   0.046   5.871 -0.2960  0.8407 -0.0738
  181MOL0     C24355   8.591   0.043   5.734  0.2462  0.8638  0.3392
  181MOL0     C24356   8.469   0.035   5.668  1.0760  0.4903  0.2477
  181MOL0     C24357   8.351   0.042   5.747 -0.1350  0.3790  0.8120
  181MOL0     O24358   8.229   0.032   5.690  0.2314 -0.3633  0.5666
  181MOL0     C24359   8.205   0.110   5.570 -0.2562  0.6995 -0.5790
  181MOL0     C24360   8.171   0.250   5.605  0.0131 -0.9124  0.6630
  181MOL0     C24361   8.074   0.319   5.503  0.5254  0.5676  0.3150
  181MOL0     C24362   7.933   0.266   5.519 -0.0845 -0.4547  0.0409
  181MOL0     C24363   7.842   0.372   5.492  0.3528 -0.0884  1.0859
  181MOL0     C24364   7.753   0.457   5.463 -0.8246  0.9104  0.8556
  181MOL0     C24365   8.352   0.076   5.880  0.0625  1.1551  0.4960
  181MOL0     C24366   8.477   0.070   5.944  0.6677  0.1446 -0.2070
  181MOL0     C24367   8.459   0.076   6.092 -0.2684 -0.7477  0.3421
  181MOL0     H24368   9.022  -0.165   5.736  2.6539 -1.0844  0.3147
  181MOL0     H24369   9.251  -0.207   5.825  1.8585  0.2080  1.7377
  181MOL0     H24370   9.422   0.057   6.025  0.0838 -0.6217 -0.1006
  181MOL0     H24371   9.382   0.022   6.205 -1.2035 -4.6906  1.0801
  181MOL0     H24372   9.603  -0.140   6.037  0.3999 -1.3960  0.4936
  181MOL0     H24373   9.524  -0.173   6.193 -0.2491  2.6105  2.7730
  181MOL0     H24374   9.648   0.026   6.291 -1.3467  0.3417 -0.0493
  181MOL0     H24375   9.674   0.083   6.133  3.3679  0.4002  0.1909
  181MOL0     H24376   9.777  -0.178   6.272  2.4369 -1.0281  0.0805
  181MOL0     H24377   9.823  -0.143   6.110  1.1134 -1.0026  1.5695
  181MOL0     H24378   9.933   0.067   6.157 -0.2468  2.6415  1.7098
  181MOL0     H24379   9.888   0.053   6.333 -0.3935  2.1742 -0.7065
  181MOL0     H24380  10.012  -0.146   6.361 -0.1945  1.0694  1.0597
  181MOL0     H24381  10.047  -0.159   6.186 -3.4880  0.0383 -0.8521
  181MOL0     H24382  10.232  -0.074   6.326  2.0880  1.7968  0.7648
  181MOL0     H24383  10.132   0.051   6.389 -0.6085 -2.5391 -0.0350
  181MOL0     H24384  10.262   0.036   6.116  3.3072 -1.1931  1.5249
  181MOL0     H24385  10.130   0.141   6.153 -0.9578 -3.2290 -1.1395
  181MOL0     H24386  10.209   0.371   6.207 -0.7644 -1.6340 -0.7329
  181MOL0     H24387  10.371   0.588   6.253 -0.2965  0.7497  0.9960
  181MOL0     H24388  10.416   0.554   6.417 -0.2087  2.0640 -0.9323
  181MOL0     H24389  10.626   0.449   6.249 -2.9616 -0.4589 -2.7213
  181MOL0     H24390  10.598   0.605   6.192  1.7170  0.3624 -0.0773
  181MOL0     H24391  10.584   0.686   6.424  0.0946  1.8028 -3.9133
  181MOL0     H24392  10.749   0.654   6.366  0.2134  0.6191  2.5457
  181MOL0     H24393  10.739   0.429   6.483  0.5119  0.6635 -2.0567
  181MOL0     H24394  10.584   0.484   6.548  1.3804 -1.1825  1.3156
  181MOL0     H24395  10.882   0.709   6.789 -3.3498 -0.7717 -1.9862
  181MOL0     H24396  11.137   0.758   6.783  0.7169 -2.3342  1.1331
  181MOL0     H24397  11.554   0.816   6.561 -0.2221  0.9856 -2.2109
  181MOL0     H24398  11.801   0.809   6.510 -1.1733  1.9864 -0.5766
  181MOL0     H24399  11.954   0.611   6.530  0.5216  2.3253  0.2495
  181MOL0     H24400  11.969   0.469   6.416 -1.0375  0.2937  0.0510
  181MOL0     H24401  12.191   0.546   6.466  2.2055 -0.7961 -2.9267
  181MOL0     H24402  12.155   0.559   6.296  1.6809  1.5588 -0.6891
  181MOL0     H24403  12.106   0.793   6.297 -2.9159 -1.0105  0.8749
  181MOL0     H24404  12.079   0.791   6.466 -1.4511  0.1244 -0.9422
  181MOL0     H24405  12.334   0.754   6.294 -1.5744 -0.6923 -0.9468
  181MOL0     H24406  12.329   0.743   6.471 -0.0097  1.2712  0.9290
  181MOL0     H24407  12.304   0.986   6.491  0.7665 -1.1208  1.2387
  181MOL0     H24408  12.312   1.008   6.325  1.9513  0.1669 -0.5836
  181MOL0     H24409  12.543   0.852   6.450  0.3060 -0.7742 -3.1262
  181MOL0     H24410  12.533   0.929   6.292 -2.0539 -3.0404 -0.3817
  181MOL0     H24411  12.553   1.079   6.559  0.1168  0.1732  0.0153
  181MOL0     H24412  12.565   1.145   6.394 -2.0820 -0.8392 -1.0768
  181MOL0     H24413  12.756   0.944   6.515 -0.2563  1.2359  1.5625
  181MOL0     H24414  12.748   0.994   6.341 -0.7922 -3.1358  0.9638
  181MOL0     H24415  11.712   0.472   6.242  2.5387  0.7275 -0.4490
  181MOL0     H24416  11.493   0.466   6.328 -0.1375 -0.5934  1.1000
  181MOL0     H24417  11.166   0.538   6.415  0.0020 -2.5829 -0.2096
  181MOL0     H24418  10.919   0.496   6.413 -0.1867 -0.7443  0.5941
  181MOL0     H24419   9.144   0.076   6.148 -1.5350  0.4438  0.7683
  181MOL0     H24420   8.954   0.132   6.044  1.0507  0.6165 -0.0306
  181MOL0     H24421   8.681   0.040   5.673 -1.8608 -0.2719 -3.0055
  181MOL0     H24422   8.469   0.023   5.561 -0.8411 -1.5610  0.3927
  181MOL0     H24423   8.114   0.063   5.531 -1.4900  3.6293 -1.4520
  181MOL0     H24424   8.284   0.103   5.495  1.0881 -1.9385  0.9301
  181MOL0     H24425   8.265   0.306   5.614 -0.8737  0.6589  0.5062
  181MOL0     H24426   8.117   0.253   5.700 -3.2986 -2.4237 -1.0101
  181MOL0     H24427   8.107   0.299   5.400  1.8687 -2.0623  1.1595
  181MOL0     H24428   8.081   0.428   5.515 -1.8002  0.8223 -0.1200
  181MOL0     H24429   7.913   0.187   5.445 -3.2822 -2.1087  2.4494
  181MOL0     H24430   7.914   0.244   5.624  2.7230 -3.9255  0.0525
  181MOL0     H24431   7.692   0.541   5.436  0.0307  1.3322  0.2117
  181MOL0     H24432   8.257   0.106   5.923 -0.5577  2.4031 -1.5844
  181MOL0     H24433   8.549   0.120   6.135  0.3024 -0.6281 -0.9269
  181MOL0     H24434   8.377   0.144   6.120 -2.7040 -4.0754  2.0050
  181MOL0     H24435   8.437  -0.022   6.135 -6.1103  0.2866  0.4917
  182MOL0     O24436   2.205   0.541   7.825 -0.5326  0.5343 -1.0380
  182MOL0     C24437   2.104   0.489   7.781  0.1682 -0.8032  0.0514
  182MOL0     O24438   2.090   0.451   7.647 -0.2845  0.0184  0.0423
  182MOL0     C24439   2.189   0.379   7.590  0.1523  0.4307 -0.3595
  182MOL0     C24440   2.280   0.296   7.657 -0.8650 -0.0421 -1.0530
  182MOL0     C24441   2.380   0.220   7.587  0.3296  0.4639 -0.4455
  182MOL0     C24442   2.381   0.218   7.443  0.6473 -0.5313  1.2592
  182MOL0     O24443   2.474   0.150   7.375  0.2730 -0.0210 -0.7134
  182MOL0     C24444   2.427   0.074   7.264 -0.0430 -0.0986 -0.0621
  182MOL0     C24445   2.535  -0.016   7.211 -0.3127 -0.1752 -0.3876
  182MOL0     C24446   2.663   0.047   7.151 -0.0811  0.2086 -0.3538
  182MOL0     C24447   2.753  -0.052   7.082 -0.1318 -0.0191 -0.5696
  182MOL0     C24448   2.846   0.020   6.984  0.1034 -0.4775  0.8758
  182MOL0     C24449   2.895  -0.088   6.890  0.0270  0.7293  1.1523
  182MOL0     C24450   3.015  -0.043   6.809  0.4848  0.5770 -0.0935
  182MOL0     C24451   3.067  -0.154   6.715 -0.5052 -0.1452  0.6730
  182MOL0     N24452   3.194  -0.130   6.653  0.4392  0.7587 -0.4231
  182MOL0     C24453   3.314  -0.113   6.722  0.1456 -0.1225 -0.4193
  182MOL0     C24454   3.407  -0.102   6.631 -0.8241  0.0951  0.3863
  182MOL0     C24455   3.558  -0.087   6.644  0.6743  0.5447  0.7420
  182MOL0     C24456   3.630  -0.201   6.575 -0.1813  0.5970 -0.1249
  182MOL0     C24457   3.786  -0.198   6.602  1.1259  0.9505  0.6229
  182MOL0     C24458   3.853  -0.260   6.474 -0.3948 -0.3956 -0.7963
  182MOL0     O24459   3.999  -0.276   6.494 -0.1483 -0.6057 -0.0967
  182MOL0     C24460   4.086  -0.280   6.384  0.1798  0.4512 -0.7828
  182MOL0     C24461   4.213  -0.231   6.403 -0.4753  0.2618  0.4316
  182MOL0     C24462   4.316  -0.250   6.307 -0.7229  0.3345  0.6106
  182MOL0     C24463   4.290  -0.312   6.187 -0.4054  1.3677 -0.0377
  182MOL0     C24464   4.406  -0.345   6.099  0.2308 -0.7406 -0.5949
  182MOL0     O24465   4.536  -0.307   6.139 -0.3361  0.4460 -0.4726
  182MOL0     C24466   4.640  -0.355   6.068 -0.4965  0.3097 -0.1998
  182MOL0     C24467   4.758  -0.386   6.141  0.0962 -0.9798  0.1443
  182MOL0     C24468   4.863  -0.440   6.072 -0.5859  0.1449  0.2765
  182MOL0     C24469   4.870  -0.449   5.933  0.2462  0.4066  0.3624
  182MOL0     O24470   4.979  -0.485   5.861 -0.6764 -0.3574 -0.4912
  182MOL0     C24471   5.104  -0.519   5.924 -0.3105 -0.8293  0.2047
  182MOL0     C24472   5.210  -0.559   5.826  0.1172  0.5884  0.2328
  182MOL0     C24473   5.347  -0.604   5.897  0.4112 -0.8384 -0.1160
  182MOL0     C24474   5.450  -0.661   5.798  0.2553  1.0878 -0.1154
  182MOL0     C24475   5.570  -0.699   5.882  0.1693 -0.4369  0.5813
  182MOL0     C24476   5.697  -0.739   5.807 -0.6348 -0.1098 -0.1783
  182MOL0     C24477   5.705  -0.701   5.654  0.1254 -0.8184 -0.4699
  182MOL0     C24478   5.833  -0.757   5.583 -1.1974  0.7008 -0.5128
  182MOL0    Cl24479   5.982  -0.659   5.613 -0.0715  0.0543 -0.0147
  182MOL0     C24480   4.761  -0.413   5.855  0.6943 -0.3619 -0.7379
  182MOL0     C24481   4.648  -0.365   5.925 -0.0044 -0.8505  0.3704
  182MOL0     O24482   4.378  -0.423   6.005 -0.9557 -0.0604 -0.1962
  182MOL0     C24483   4.157  -0.364   6.168  0.1505 -0.4469  0.3112
  182MOL0     C24484   4.052  -0.351   6.262 -1.2195 -0.9392  0.8154
  182MOL0     N24485   3.355  -0.103   6.506  0.2388 -0.2816  0.1196
  182MOL0     N24486   3.226  -0.102   6.522  0.5988 -0.0236  1.0379
  182MOL0     C24487   2.290   0.311   7.381 -0.1137  0.8408  0.4121
  182MOL0     C24488   2.195   0.383   7.452 -0.8051  0.4730 -1.1350
  182MOL0     C24489   1.989   0.471   7.871  0.7920 -0.1686 -0.7008
  182MOL0     C24490   1.870   0.423   7.815  0.0505  0.0524  0.4263
  182MOL0     C24491   1.759   0.398   7.903 -0.9775 -0.3765 -0.2942
  182MOL0     C24492   1.771   0.412   8.044 -0.4607 -0.2763  0.4223
  182MOL0     O24493   1.655   0.388   8.110 -0.2598  0.2183 -0.3834
  182MOL0     C24494   1.645   0.415   8.248 -0.6988  0.0149 -0.9800
  182MOL0     C24495   1.499   0.382   8.293  0.0995 -0.6572  0.1741
  182MOL0     C24496   1.401   0.441   8.193  0.3011  0.0520  0.5801
  182MOL0     C24497   1.262   0.417   8.255 -0.8977  0.9975 -0.7750
  182MOL0     C24498   1.163   0.517   8.215 -0.3553 -0.7440  0.0171
  182MOL0     C24499   1.093   0.599   8.169  0.0294  0.1501  0.0195
  182MOL0     C24500   1.894   0.448   8.099  0.1541 -0.0531 -0.4549
  182MOL0     C24501   2.004   0.479   8.013  1.2141 -0.6195  0.0803
  182MOL0     C24502   2.120   0.533   8.087 -0.1907 -0.3003  0.4079
  182MOL0     H24503   2.281   0.293   7.766  1.9463  0.9709 -0.9578
  182MOL0     H24504   2.456   0.153   7.625 -0.6440 -0.1036  0.5630
  182MOL0     H24505   2.342   0.012   7.295  1.6522 -0.9242  3.5100
  182MOL0     H24506   2.393   0.141   7.185 -2.0160 -1.0855 -0.1005
  182MOL0     H24507   2.488  -0.078   7.135 -1.3435  2.3674 -1.9582
  182MOL0     H24508   2.562  -0.088   7.288 -0.3440  0.9942  0.7528
  182MOL0     H24509   2.714   0.101   7.231  1.7617 -1.0880 -0.5839
  182MOL0     H24510   2.621   0.123   7.085 -0.2825  2.4352  2.1258
  182MOL0     H24511   2.814  -0.110   7.151 -0.6092 -2.0639 -1.7767
  182MOL0     H24512   2.699  -0.133   7.033  1.4123 -0.9319 -0.8550
  182MOL0     H24513   2.794   0.092   6.921  1.3814  0.3808  0.7624
  182MOL0     H24514   2.921   0.070   7.046 -0.8949 -1.7623  3.2334
  182MOL0     H24515   2.916  -0.183   6.940  0.0013  0.8640  1.4223
  182MOL0     H24516   2.815  -0.106   6.817  1.9134  1.2675 -1.1564
  182MOL0     H24517   3.096  -0.011   6.874 -0.1384 -2.4462  2.3980
  182MOL0     H24518   2.991   0.044   6.747 -0.6281 -2.6602 -4.7345
  182MOL0     H24519   3.080  -0.250   6.767  0.6237 -1.2747 -1.5533
  182MOL0     H24520   2.997  -0.165   6.632  0.6765 -2.3226 -0.0969
  182MOL0     H24521   3.333  -0.112   6.829 -1.8420  0.6264 -0.0371
  182MOL0     H24522   3.591   0.010   6.606  0.7488 -0.4677 -1.9816
  182MOL0     H24523   3.587  -0.095   6.749  0.5549 -1.3488  0.6612
  182MOL0     H24524   3.591  -0.301   6.598 -1.5554  0.7851 -1.5111
  182MOL0     H24525   3.614  -0.177   6.470 -1.6610  1.5887  0.2859
  182MOL0     H24526   3.812  -0.257   6.691  1.2259  1.4574  0.9334
  182MOL0     H24527   3.813  -0.093   6.617 -3.3055  2.3263  0.2058
  182MOL0     H24528   3.823  -0.197   6.389  0.4547 -2.0971 -2.4251
  182MOL0     H24529   3.811  -0.358   6.451  0.2836 -0.6148 -1.1165
  182MOL0     H24530   4.223  -0.181   6.499  0.4467 -0.5718  0.7879
  182MOL0     H24531   4.413  -0.213   6.337  0.6993 -0.3207 -2.7356
  182MOL0     H24532   4.757  -0.364   6.248  0.9479 -0.1321 -0.0089
  182MOL0     H24533   4.957  -0.461   6.122  0.4029  1.7199 -0.8014
  182MOL0     H24534   5.142  -0.432   5.979  1.5336 -1.8272  0.5913
  182MOL0     H24535   5.090  -0.598   5.999 -1.3445 -1.8900 -1.0630
  182MOL0     H24536   5.172  -0.641   5.765  2.6528 -0.3805 -0.1454
  182MOL0     H24537   5.236  -0.470   5.767  0.0571  0.1574 -0.4470
  182MOL0     H24538   5.393  -0.523   5.953 -1.0837  1.0150 -1.4452
  182MOL0     H24539   5.319  -0.679   5.971 -2.9739 -0.8903 -1.2686
  182MOL0     H24540   5.477  -0.586   5.723  0.7289 -0.8929 -2.0385
  182MOL0     H24541   5.405  -0.746   5.745  1.1731 -0.1488  1.0282
  182MOL0     H24542   5.538  -0.775   5.954 -1.7673 -1.8776 -1.6611
  182MOL0     H24543   5.596  -0.606   5.934  2.8263 -0.7159 -0.1176
  182MOL0     H24544   5.779  -0.687   5.856 -0.5318 -0.2458 -0.2082
  182MOL0     H24545   5.708  -0.848   5.810  0.1557 -0.0870  4.4031
  182MOL0     H24546   5.710  -0.591   5.649  2.0825 -0.7684  1.0111
  182MOL0     H24547   5.619  -0.741   5.602 -0.8481 -0.7196  1.0026
  182MOL0     H24548   5.848  -0.861   5.613 -0.1396  1.0754  0.3535
  182MOL0     H24549   5.813  -0.740   5.477 -1.0721 -0.1329 -0.6756
  182MOL0     H24550   4.770  -0.414   5.747 -0.5019 -5.7802 -1.0868
  182MOL0     H24551   4.573  -0.320   5.862 -1.1543 -1.8195  1.0039
  182MOL0     H24552   4.139  -0.398   6.067  2.4976  0.3831 -0.4631
  182MOL0     H24553   3.954  -0.385   6.228 -1.1333 -1.4132  1.0423
  182MOL0     H24554   2.305   0.328   7.275  0.9885  0.4602  0.5005
  182MOL0     H24555   2.135   0.461   7.406 -1.8850 -0.7073 -1.8084
  182MOL0     H24556   1.859   0.410   7.708 -0.6114  3.0597  0.0249
  182MOL0     H24557   1.666   0.361   7.862 -0.2930 -1.6909 -0.7316
  182MOL0     H24558   1.664   0.519   8.277  0.0836 -0.5148  0.5202
  182MOL0     H24559   1.719   0.357   8.304 -0.0139  1.8877  0.1702
  182MOL0     H24560   1.486   0.424   8.393  0.5586 -0.1351  0.0190
  182MOL0     H24561   1.475   0.276   8.305  0.8538 -0.8543  0.0397
  182MOL0     H24562   1.410   0.393   8.096 -1.7818  2.3534 -0.8533
  182MOL0     H24563   1.425   0.547   8.182 -0.3406  0.3816  2.1003
  182MOL0     H24564   1.236   0.321   8.212  2.7161  0.8505 -3.0119
  182MOL0     H24565   1.277   0.421   8.364  0.4781  3.5605 -0.9810
  182MOL0     H24566   1.026   0.674   8.130 -0.8761  1.7917  4.1441
  182MOL0     H24567   1.899   0.458   8.207 -2.4557 -0.4613 -0.2531
  182MOL0     H24568   2.109   0.551   8.194 -1.1982  0.6064  0.1635
  182MOL0     H24569   2.204   0.465   8.066  0.8634  1.4536 -1.3863
  182MOL0     H24570   2.148   0.628   8.041  2.3142 -0.6025  1.1308
  183MOL0     O24571   9.379   3.319   2.316  0.0939 -0.4763  0.1190
  183MOL0     C24572   9.446   3.286   2.215  0.1674 -0.0737 -0.2432
  183MOL0     O24573   9.401   3.234   2.101  0.4084 -0.1498 -0.2145
  183MOL0     C24574   9.274   3.254   2.077  1.5355 -0.2998  0.0789
  183MOL0     C24575   9.163   3.177   2.122 -0.4807 -0.0652 -0.2421
  183MOL0     C24576   9.031   3.213   2.092  0.1853 -0.6915  0.3387
  183MOL0     C24577   9.012   3.308   1.986  0.1953 -0.1853 -1.3815
  183MOL0     O24578   8.881   3.336   1.967  0.4801  0.3383  0.0513
  183MOL0     C24579   8.850   3.458   1.900  0.1713 -0.3746  0.5151
  183MOL0     C24580   8.710   3.514   1.934  0.7757 -0.1909 -0.2991
  183MOL0     C24581   8.601   3.408   1.880  0.7230 -1.2364  0.0493
  183MOL0     C24582   8.472   3.481   1.879 -0.3091  0.3382  0.1261
  183MOL0     C24583   8.362   3.388   1.833  0.4237 -0.2599 -0.1954
  183MOL0     C24584   8.234   3.461   1.782 -0.0653  0.0119  0.7747
  183MOL0     C24585   8.141   3.351   1.728  0.6805  0.1957  0.5283
  183MOL0     C24586   8.004   3.406   1.695 -0.1793 -0.3419  0.1061
  183MOL0     N24587   8.006   3.480   1.564 -0.3006  0.2044 -0.4029
  183MOL0     C24588   8.026   3.431   1.439 -0.2349  1.0348 -0.7997
  183MOL0     C24589   8.043   3.546   1.360 -0.0083 -1.4387  0.6639
  183MOL0     C24590   8.086   3.546   1.215 -0.0911 -0.4097 -0.4743
  183MOL0     C24591   8.158   3.678   1.187  0.5602 -0.8931  0.0745
  183MOL0     C24592   8.289   3.703   1.275 -0.1365  0.1590  0.1036
  183MOL0     C24593   8.389   3.590   1.258 -0.6391 -0.3425 -0.1406
  183MOL0     O24594   8.499   3.614   1.345  0.0018  0.4105  0.2467
  183MOL0     C24595   8.601   3.522   1.344  0.0031 -1.1522  1.1066
  183MOL0     C24596   8.666   3.508   1.461 -1.0738  0.4242 -0.4052
  183MOL0     C24597   8.784   3.420   1.464  1.0522 -0.5116 -0.7737
  183MOL0     C24598   8.832   3.357   1.346  0.2699  1.1016  0.2911
  183MOL0     C24599   8.953   3.283   1.353  0.2631  0.3539 -0.6881
  183MOL0     O24600   9.009   3.255   1.471 -0.0741  0.5224 -1.0336
  183MOL0     C24601   9.132   3.192   1.497 -0.0906  1.0584 -0.0767
  183MOL0     C24602   9.215   3.119   1.409  0.1613 -1.1434  0.2773
  183MOL0     C24603   9.338   3.071   1.452 -0.6143 -0.3016  0.2968
  183MOL0     C24604   9.382   3.077   1.585 -0.5805  0.2746 -0.3438
  183MOL0     O24605   9.503   3.019   1.624  0.0005  0.6424 -0.0494
  183MOL0     C24606   9.612   3.071   1.557 -0.5010 -0.2831 -0.6476
  183MOL0     C24607   9.734   3.064   1.656  1.2703  0.0018  0.0990
  183MOL0     C24608   9.847   3.162   1.598  0.8696 -0.4128 -0.7277
  183MOL0     C24609   9.982   3.115   1.663  0.3765  0.3100 -0.1896
  183MOL0     C24610  10.104   3.205   1.636 -0.5859  0.6988  0.2670
  183MOL0     C24611  10.079   3.339   1.696  0.3469  0.0423 -0.5556
  183MOL0     C24612  10.085   3.347   1.850 -1.1954  0.7964  0.6061
  183MOL0     C24613  10.107   3.490   1.899  0.8244  0.1758 -0.2177
  183MOL0    Cl24614  10.263   3.542   1.853  0.3542 -0.0411 -0.0565
  183MOL0     C24615   9.297   3.140   1.679  0.1597  1.0397 -0.0914
  183MOL0     C24616   9.171   3.199   1.632 -0.7952 -0.2818 -0.2714
  183MOL0     O24617   9.011   3.258   1.243  0.5815 -0.7457  0.4126
  183MOL0     C24618   8.754   3.375   1.226 -0.2768 -0.1629  0.7323
  183MOL0     C24619   8.635   3.446   1.231 -0.0100  0.6989  0.2655
  183MOL0     N24620   8.036   3.652   1.437 -0.2829 -0.0666 -0.3873
  183MOL0     N24621   8.010   3.614   1.561  1.0661  0.8179  1.0146
  183MOL0     C24622   9.122   3.375   1.932  0.3931 -0.1636 -0.8727
  183MOL0     C24623   9.245   3.355   1.981 -1.6224  0.4906  0.0355
  183MOL0     C24624   9.589   3.316   2.236 -0.5827  0.0873  0.6832
  183MOL0     C24625   9.630   3.369   2.358 -0.4585  0.7050 -0.5519
  183MOL0     C24626   9.762   3.400   2.376 -0.3093  0.5808 -0.0027
  183MOL0     C24627   9.858   3.389   2.270 -0.7191  0.4723  0.4573
  183MOL0     O24628   9.993   3.411   2.281 -0.3844  0.0145 -0.0019
  183MOL0     C24629  10.062   3.368   2.402  0.1415  0.7266 -0.6297
  183MOL0     C24630  10.092   3.481   2.502 -0.3226 -0.0261  0.0148
  183MOL0     C24631  10.092   3.619   2.431  0.4209  0.2700  0.4436
  183MOL0     C24632  10.188   3.633   2.311 -0.5145  0.0357  0.0882
  183MOL0     C24633  10.321   3.640   2.368 -0.3812  0.0204  0.4010
  183MOL0     C24634  10.423   3.641   2.424 -1.2139  0.7722  0.4541
  183MOL0     C24635   9.813   3.351   2.148  0.4346  0.5360  0.6677
  183MOL0     C24636   9.678   3.305   2.126 -0.7049  0.0688  0.6288
  183MOL0     C24637   9.650   3.266   1.986  0.2342  0.0862  0.7765
  183MOL0     H24638   9.188   3.099   2.193 -0.2976  0.2085 -0.0026
  183MOL0     H24639   8.939   3.173   2.133  0.1950 -0.2506  0.8028
  183MOL0     H24640   8.916   3.542   1.926 -1.3013  0.3052  2.2704
  183MOL0     H24641   8.847   3.429   1.795 -0.0136 -0.6676  0.5992
  183MOL0     H24642   8.694   3.610   1.884  1.3526 -0.7836 -1.6862
  183MOL0     H24643   8.697   3.524   2.042 -0.4850  0.5394 -0.4983
  183MOL0     H24644   8.601   3.316   1.940 -0.7248  0.4075  2.7678
  183MOL0     H24645   8.622   3.378   1.777  2.9502 -0.3658  0.2012
  183MOL0     H24646   8.459   3.514   1.983  0.2215  1.9660 -0.2900
  183MOL0     H24647   8.476   3.568   1.812 -0.3256  1.5085  1.5813
  183MOL0     H24648   8.407   3.326   1.755  1.7422 -1.2295  1.2676
  183MOL0     H24649   8.346   3.339   1.930  2.6811  0.8060  0.8138
  183MOL0     H24650   8.197   3.529   1.859  0.8224  1.4239 -0.0144
  183MOL0     H24651   8.264   3.531   1.703 -2.0942 -0.1801 -0.2302
  183MOL0     H24652   8.126   3.277   1.808  3.0977  0.2757  1.1294
  183MOL0     H24653   8.191   3.306   1.642  1.0909  0.0299  0.8481
  183MOL0     H24654   7.932   3.325   1.687  0.1295 -0.5890 -0.2247
  183MOL0     H24655   7.966   3.471   1.774  1.4652  0.7630  0.0412
  183MOL0     H24656   8.027   3.325   1.415 -1.2063  0.3298  1.9749
  183MOL0     H24657   8.144   3.456   1.190 -1.1703 -1.3262  0.2102
  183MOL0     H24658   7.997   3.542   1.152 -0.9699 -0.9249  0.7709
  183MOL0     H24659   8.175   3.680   1.079 -0.5592  0.6664 -0.1066
  183MOL0     H24660   8.085   3.758   1.202  0.4151 -0.9383 -0.3765
  183MOL0     H24661   8.270   3.712   1.383  0.2708 -1.3193  0.3145
  183MOL0     H24662   8.344   3.795   1.252  0.4608 -0.8075 -2.6645
  183MOL0     H24663   8.428   3.609   1.158 -1.4740  1.1294 -0.2111
  183MOL0     H24664   8.350   3.488   1.271  1.8173 -1.2766  0.5248
  183MOL0     H24665   8.635   3.559   1.552  1.5862 -2.9066  2.7016
  183MOL0     H24666   8.826   3.407   1.563 -0.7795  1.9325  0.4353
  183MOL0     H24667   9.185   3.104   1.306 -1.2539  0.7066  0.3551
  183MOL0     H24668   9.402   3.017   1.383 -1.7550 -1.1519 -0.1280
  183MOL0     H24669   9.623   3.017   1.462 -1.2379 -1.2291 -0.2095
  183MOL0     H24670   9.607   3.179   1.541 -0.7325 -0.0044  1.1186
  183MOL0     H24671   9.702   3.118   1.746 -1.1011 -0.3702 -0.4466
  183MOL0     H24672   9.756   2.961   1.685 -0.3662 -0.2511  0.5842
  183MOL0     H24673   9.849   3.164   1.489 -1.6261  3.0633 -0.8898
  183MOL0     H24674   9.815   3.266   1.612 -0.0134 -0.7334 -0.2637
  183MOL0     H24675  10.001   3.012   1.631 -4.2985 -1.0186  0.5411
  183MOL0     H24676   9.977   3.113   1.772 -1.5869 -2.0668 -0.2492
  183MOL0     H24677  10.100   3.211   1.527  0.4474  0.9665  0.2344
  183MOL0     H24678  10.197   3.154   1.660 -1.4038 -2.0388 -1.8510
  183MOL0     H24679  10.162   3.402   1.662  1.6087  0.0156  2.2170
  183MOL0     H24680   9.989   3.387   1.655  1.1074  2.4887  0.4274
  183MOL0     H24681  10.160   3.279   1.892 -1.1549 -1.4253 -2.7483
  183MOL0     H24682   9.992   3.307   1.892 -1.2275  1.4352  1.1653
  183MOL0     H24683  10.022   3.550   1.863  1.2488  3.2838  3.3307
  183MOL0     H24684  10.101   3.494   2.008 -1.9781  3.1936 -0.3061
  183MOL0     H24685   9.319   3.147   1.786  3.0817  2.1810 -0.6581
  183MOL0     H24686   9.090   3.235   1.695 -1.1421 -0.3901 -0.6504
  183MOL0     H24687   8.795   3.342   1.130  2.2142  2.5946  0.6984
  183MOL0     H24688   8.578   3.450   1.138  1.7185  3.7175 -0.8013
  183MOL0     H24689   9.102   3.435   1.844  2.1624 -0.4312 -1.4867
  183MOL0     H24690   9.327   3.408   1.933  0.9566 -1.2385  2.2389
  183MOL0     H24691   9.553   3.374   2.435 -1.0204 -0.9009 -0.9664
  183MOL0     H24692   9.799   3.427   2.474  1.0024 -0.4216 -0.1987
  183MOL0     H24693  10.152   3.323   2.359 -2.0035 -3.6628 -1.1524
  183MOL0     H24694   9.995   3.297   2.452 -0.1096  2.4936  1.6773
  183MOL0     H24695  10.187   3.455   2.549  0.6611  1.3838 -1.0934
  183MOL0     H24696  10.014   3.479   2.578  0.1053 -0.2283  0.4529
  183MOL0     H24697  10.116   3.702   2.498 -0.5553  2.4896 -1.7962
  183MOL0     H24698   9.992   3.636   2.392  0.3421  1.9283  1.2607
  183MOL0     H24699  10.175   3.549   2.242 -0.3434 -0.2901  0.4464
  183MOL0     H24700  10.173   3.728   2.259 -0.8388 -0.6908 -1.1832
  183MOL0     H24701  10.517   3.621   2.472 -0.4102 -1.6779 -1.9172
  183MOL0     H24702   9.892   3.354   2.072 -0.6186  3.3182 -0.4614
  183MOL0     H24703   9.570   3.328   1.945  1.1252  0.9618  0.3259
  183MOL0     H24704   9.741   3.281   1.927 -2.7776 -0.1878 -4.4455
  183MOL0     H24705   9.636   3.158   1.972 -1.9593  0.3495  0.6922
  184MOL0     O24706  11.296  10.423   3.039 -0.1134 -0.0242 -0.0618
  184MOL0     C24707  11.263  10.343   2.951 -0.5792 -0.3170 -0.2037
  184MOL0     O24708  11.352  10.294   2.856  0.0991  0.1094  1.2023
  184MOL0     C24709  11.469  10.366   2.852  0.8115 -0.1338 -0.0672
  184MOL0     C24710  11.573  10.331   2.923  0.5102  0.1647  0.2404
  184MOL0     C24711  11.692  10.409   2.915 -0.2985  1.1192 -0.1587
  184MOL0     C24712  11.698  10.511   2.825 -0.3232  0.6335  1.3871
  184MOL0     O24713  11.823  10.568   2.798 -0.6674  0.0815  0.4207
  184MOL0     C24714  11.828  10.694   2.720 -0.8307  0.3916 -0.4299
  184MOL0     C24715  11.963  10.761   2.729  0.5461  0.0896 -0.6796
  184MOL0     C24716  12.063  10.753   2.607  0.0668  0.4448  0.0499
  184MOL0     C24717  12.187  10.665   2.623 -1.0105 -0.2887 -0.1792
  184MOL0     C24718  12.296  10.686   2.512 -0.2608 -0.1880  0.1182
  184MOL0     C24719  12.319  10.826   2.459  0.5863 -0.7736 -0.1026
  184MOL0     C24720  12.433  10.829   2.357  0.4938 -0.0503  0.4402
  184MOL0     C24721  12.514  10.958   2.360 -0.3158 -0.0104 -0.4492
  184MOL0     N24722  12.598  10.961   2.478  0.3475 -0.6614  0.3666
  184MOL0     C24723  12.560  11.035   2.600  0.5006  0.5622  0.5767
  184MOL0     C24724  12.635  10.975   2.699 -0.5885 -0.9826 -1.0917
  184MOL0     C24725  12.630  11.012   2.844  0.0140  0.5792  0.1647
  184MOL0     C24726  12.717  11.130   2.900 -1.5582 -0.5651  0.5508
  184MOL0     C24727  12.667  11.278   2.883 -0.2480 -0.6002  1.0462
  184MOL0     C24728  12.527  11.306   2.938 -0.2586 -0.1439  0.6783
  184MOL0     O24729  12.437  11.245   2.845  0.4912 -0.2004 -0.2149
  184MOL0     C24730  12.301  11.266   2.854  0.1519 -0.8259  0.5336
  184MOL0     C24731  12.208  11.162   2.867 -0.6067  0.6061  0.1308
  184MOL0     C24732  12.073  11.182   2.882 -0.3984  0.3660 -0.9723
  184MOL0     C24733  12.033  11.312   2.898  0.8778  0.8679  0.0360
  184MOL0     C24734  11.891  11.336   2.939 -0.0808 -0.0040  0.7358
  184MOL0     O24735  11.805  11.234   2.944 -0.3713  0.4068 -0.6333
  184MOL0     C24736  11.671  11.258   2.957 -0.3316  0.6279 -0.5401
  184MOL0     C24737  11.586  11.190   3.050  0.3072  0.0893  0.1092
  184MOL0     C24738  11.444  11.209   3.051  0.1048  0.0854  0.0454
  184MOL0     C24739  11.371  11.305   2.970  0.3150  0.4126 -0.1602
  184MOL0     O24740  11.238  11.336   2.982  0.4513 -0.7598 -0.4860
  184MOL0     C24741  11.155  11.228   3.010 -0.5690 -0.3968 -0.0746
  184MOL0     C24742  11.016  11.288   3.001 -0.4332 -0.0527 -0.9893
  184MOL0     C24743  10.985  11.390   3.108  0.1718  0.3974  1.0195
  184MOL0     C24744  10.847  11.445   3.077  0.9094  0.7455  0.6381
  184MOL0     C24745  10.829  11.591   3.116  0.7315 -0.4682 -0.6912
  184MOL0     C24746  10.690  11.652   3.101 -0.1792  0.6163  0.4227
  184MOL0     C24747  10.631  11.655   2.951  0.4624 -0.5785 -0.2730
  184MOL0     C24748  10.485  11.717   2.941  0.1644  0.1383 -0.2948
  184MOL0    Cl24749  10.348  11.640   3.050 -0.0640 -0.3697  0.2128
  184MOL0     C24750  11.458  11.376   2.885 -0.1338 -0.2802  0.4334
  184MOL0     C24751  11.602  11.346   2.873 -0.2771 -0.1315  0.1759
  184MOL0     O24752  11.866  11.449   2.961  0.5217 -0.4467  0.1591
  184MOL0     C24753  12.120  11.420   2.869  0.0630 -0.1694 -0.6194
  184MOL0     C24754  12.248  11.399   2.840 -0.2709  0.4017 -0.1165
  184MOL0     N24755  12.721  10.888   2.641  0.3284 -0.0317 -0.3415
  184MOL0     N24756  12.696  10.877   2.515 -0.0153 -0.3920  0.5197
  184MOL0     C24757  11.589  10.529   2.742  0.3812 -0.6218 -0.2301
  184MOL0     C24758  11.464  10.465   2.758  0.0265  0.0955 -0.1636
  184MOL0     C24759  11.121  10.288   2.954 -0.0619  0.3679  0.1248
  184MOL0     C24760  11.108  10.157   2.918 -0.5698 -0.1827 -0.3399
  184MOL0     C24761  10.985  10.091   2.917  0.1198 -0.3001 -0.3038
  184MOL0     C24762  10.868  10.156   2.966  0.1178  0.6870 -0.1483
  184MOL0     O24763  10.762  10.084   2.976 -0.4833  0.6038 -0.4316
  184MOL0     C24764  10.648  10.131   3.043  0.4812 -0.5511 -0.9563
  184MOL0     C24765  10.541  10.018   3.042  0.5518 -0.3481  0.1401
  184MOL0     C24766  10.519   9.942   2.912 -0.1239 -0.5848  0.5305
  184MOL0     C24767  10.396   9.849   2.887 -0.2737 -0.6835 -0.7169
  184MOL0     C24768  10.395   9.731   2.975  0.2562  0.3957 -0.2833
  184MOL0     C24769  10.384   9.642   3.060  0.0008  0.0612 -0.0815
  184MOL0     C24770  10.882  10.293   2.997  0.5468  0.5305 -0.2380
  184MOL0     C24771  11.003  10.360   2.992  0.2498 -0.3830  0.9003
  184MOL0     C24772  11.004  10.503   3.017  0.1261 -0.0480 -0.2909
  184MOL0     H24773  11.584  10.239   2.980 -1.8248  1.3176  2.8165
  184MOL0     H24774  11.782  10.392   2.973 -0.7712  1.8586  0.8090
  184MOL0     H24775  11.814  10.690   2.612 -2.5671  1.3416 -0.2728
  184MOL0     H24776  11.758  10.764   2.765  0.1943  0.9717  0.2990
  184MOL0     H24777  12.006  10.747   2.829 -0.0542 -0.7823 -0.5336
  184MOL0     H24778  11.926  10.864   2.728 -3.3017 -1.0923  0.9379
  184MOL0     H24779  12.103  10.854   2.590  1.0764  0.8729  4.0434
  184MOL0     H24780  12.019  10.717   2.514  1.2220 -0.8230 -0.0455
  184MOL0     H24781  12.224  10.679   2.725 -0.9286  0.0361 -0.2544
  184MOL0     H24782  12.160  10.559   2.625  4.8896 -2.1004  2.1641
  184MOL0     H24783  12.384  10.646   2.563 -0.7658  0.5713  1.6582
  184MOL0     H24784  12.271  10.614   2.433 -0.9795 -0.6872  0.7783
  184MOL0     H24785  12.228  10.854   2.406  3.5247  2.2901 -4.1749
  184MOL0     H24786  12.341  10.897   2.540  1.8886 -2.5032  1.1268
  184MOL0     H24787  12.388  10.811   2.259 -0.5716  0.2772  0.8539
  184MOL0     H24788  12.506  10.748   2.365  0.3813 -0.3036 -0.8846
  184MOL0     H24789  12.571  10.953   2.267 -3.0615  0.8775 -2.2853
  184MOL0     H24790  12.451  11.047   2.359 -0.7435 -0.2511  1.1195
  184MOL0     H24791  12.480  11.107   2.614  0.3052  0.4176  0.1887
  184MOL0     H24792  12.527  11.008   2.880 -0.3643 -1.3300 -0.9914
  184MOL0     H24793  12.673  10.918   2.880  1.1792  1.4703  1.1762
  184MOL0     H24794  12.730  11.116   3.008 -1.6631 -2.9413  0.3098
  184MOL0     H24795  12.818  11.118   2.860 -0.1934 -1.5386  3.9366
  184MOL0     H24796  12.675  11.293   2.775  2.9048  0.6235  1.3295
  184MOL0     H24797  12.731  11.357   2.926  0.1102  1.2157 -2.4540
  184MOL0     H24798  12.509  11.414   2.942 -1.1900 -0.3017  1.0265
  184MOL0     H24799  12.505  11.265   3.036 -1.2957  1.4737  1.1730
  184MOL0     H24800  12.241  11.058   2.865 -2.2861  0.0376 -2.4869
  184MOL0     H24801  12.007  11.099   2.906 -1.1011  1.1799  0.0009
  184MOL0     H24802  11.635  11.122   3.118  1.5077  0.1628 -0.6485
  184MOL0     H24803  11.386  11.157   3.127  2.2251 -2.0652  0.2862
  184MOL0     H24804  11.157  11.158   2.926 -0.0870  2.3010 -2.4360
  184MOL0     H24805  11.181  11.182   3.106  1.8749 -1.8468 -1.3238
  184MOL0     H24806  11.018  11.320   2.897  0.5131  0.2107 -0.8958
  184MOL0     H24807  10.942  11.207   3.002  0.2475 -0.7014  0.6906
  184MOL0     H24808  11.003  11.342   3.205  1.4185 -1.1250  0.0905
  184MOL0     H24809  11.052  11.477   3.101  1.6495 -0.6184  1.8191
  184MOL0     H24810  10.777  11.377   3.128  0.5486  2.0952  2.0390
  184MOL0     H24811  10.836  11.446   2.969  2.3874 -1.3614  0.4061
  184MOL0     H24812  10.892  11.654   3.053  0.8776 -0.0191 -0.1012
  184MOL0     H24813  10.861  11.590   3.220  1.7344  1.9436 -0.9199
  184MOL0     H24814  10.622  11.592   3.162  1.7647 -0.1994  1.8810
  184MOL0     H24815  10.691  11.754   3.140  1.0960  0.6970  0.2153
  184MOL0     H24816  10.617  11.548   2.929 -1.7774 -1.1418  3.1104
  184MOL0     H24817  10.698  11.700   2.878  0.4872  0.6441  0.4786
  184MOL0     H24818  10.497  11.823   2.968  3.5689 -0.7186  2.1347
  184MOL0     H24819  10.449  11.702   2.839  1.7660 -2.6949 -0.5329
  184MOL0     H24820  11.410  11.448   2.820 -1.1382 -1.7647 -0.5488
  184MOL0     H24821  11.653  11.401   2.795 -0.1105  1.2042  1.1954
  184MOL0     H24822  12.087  11.523   2.880 -2.7240 -1.0567  0.1378
  184MOL0     H24823  12.313  11.483   2.821 -0.3324  1.0549  2.2112
  184MOL0     H24824  11.597  10.613   2.674 -1.0539 -0.9429 -0.8311
  184MOL0     H24825  11.377  10.486   2.697 -0.5865  1.8599  1.2087
  184MOL0     H24826  11.202  10.104   2.906  0.4811  1.0908  1.6712
  184MOL0     H24827  10.987   9.992   2.872 -0.6950 -0.5607  0.2155
  184MOL0     H24828  10.624  10.228   2.999  2.3323  0.5351  0.2484
  184MOL0     H24829  10.669  10.156   3.148 -0.3295 -1.1695 -0.6350
  184MOL0     H24830  10.444  10.062   3.068  0.2475 -2.0308  2.1215
  184MOL0     H24831  10.564   9.943   3.118 -0.7539 -1.0691 -0.1331
  184MOL0     H24832  10.606   9.885   2.880  1.1538  1.5247  0.0310
  184MOL0     H24833  10.501  10.035   2.857 -2.0652  0.7292  3.1516
  184MOL0     H24834  10.306   9.903   2.919 -0.8588  0.2897 -3.6406
  184MOL0     H24835  10.377   9.805   2.788 -4.5937  0.1789 -0.4834
  184MOL0     H24836  10.386   9.566   3.135  1.0033  2.1128  2.1289
  184MOL0     H24837  10.797  10.354   3.027 -0.9741 -1.0347 -1.1911
  184MOL0     H24838  11.076  10.528   3.095 -0.9564  0.8323  0.4758
  184MOL0     H24839  11.036  10.547   2.922 -1.2198 -1.8289 -1.6382
  184MOL0     H24840  10.913  10.556   3.050  1.0739  1.4781 -0.0080
  185MOL0     O24841   3.826   5.514   9.345  0.1876 -0.0833 -0.1989
  185MOL0     C24842   3.776   5.515   9.234  1.0790 -0.6044  1.1306
  185MOL0     O24843   3.851   5.513   9.116  0.9022  0.1616 -0.8343
  185MOL0     C24844   3.985   5.542   9.126  0.2897 -0.8035  0.8311
  185MOL0     C24845   4.046   5.665   9.111 -0.0670  0.0737  0.0628
  185MOL0     C24846   4.177   5.687   9.091 -0.6694  1.6875 -0.4935
  185MOL0     C24847   4.268   5.587   9.103  0.7226 -0.3195  0.0979
  185MOL0     O24848   4.397   5.619   9.067 -0.1295 -0.4337 -0.5720
  185MOL0     C24849   4.497   5.520   9.101  0.8804  0.1950  0.7955
  185MOL0     C24850   4.632   5.577   9.063 -0.3567 -0.1358 -0.9572
  185MOL0     C24851   4.659   5.715   9.132 -0.4217  0.2481 -0.4414
  185MOL0     C24852   4.809   5.748   9.155 -0.6827  0.4468 -0.2630
  185MOL0     C24853   4.887   5.777   9.021 -0.9862 -0.1936  0.3840
  185MOL0     C24854   5.043   5.761   9.033 -0.0021  0.0352  0.5146
  185MOL0     C24855   5.107   5.872   9.119  0.9299  0.2042 -0.1160
  185MOL0     C24856   5.243   5.834   9.172 -0.0022 -0.0414  0.4592
  185MOL0     N24857   5.318   5.790   9.059  0.1893 -0.7871  0.3573
  185MOL0     C24858   5.366   5.663   9.040 -0.6810  0.1966 -0.0959
  185MOL0     C24859   5.424   5.661   8.919  0.5261  0.1396  0.0135
  185MOL0     C24860   5.506   5.553   8.848  0.2969 -0.7956 -0.6637
  185MOL0     C24861   5.637   5.591   8.782  0.2355 -0.3206 -1.1590
  185MOL0     C24862   5.612   5.583   8.633 -0.7559  0.3622  0.3020
  185MOL0     C24863   5.732   5.638   8.555 -0.2157  0.6653  0.1409
  185MOL0     O24864   5.843   5.553   8.568 -0.1086 -0.4584  0.5199
  185MOL0     C24865   5.962   5.612   8.592 -0.6538  0.6352 -0.0231
  185MOL0     C24866   6.037   5.558   8.697 -0.4278 -0.1239  0.1317
  185MOL0     C24867   6.157   5.631   8.737 -0.2969  1.0243 -0.6683
  185MOL0     C24868   6.202   5.748   8.667 -0.3949 -0.1004  0.6623
  185MOL0     C24869   6.319   5.825   8.716 -0.3129  0.1277 -0.6511
  185MOL0     O24870   6.399   5.765   8.809 -0.5779 -0.3549  0.1692
  185MOL0     C24871   6.529   5.825   8.812  0.4194  0.2560 -0.4708
  185MOL0     C24872   6.551   5.926   8.902  0.7203  0.6747  0.3642
  185MOL0     C24873   6.683   5.972   8.910 -0.3411 -1.4451  0.5222
  185MOL0     C24874   6.786   5.922   8.827  0.4815 -0.0214  0.5228
  185MOL0     O24875   6.912   5.975   8.842  0.0219 -0.9659 -0.2497
  185MOL0     C24876   6.927   6.078   8.741 -1.1151  0.0525 -0.8650
  185MOL0     C24877   7.033   6.181   8.778 -0.4029 -0.2752  0.3944
  185MOL0     C24878   7.179   6.135   8.753 -0.7788  0.0643  0.4954
  185MOL0     C24879   7.265   6.253   8.818  1.1438 -0.3990  0.0997
  185MOL0     C24880   7.402   6.245   8.755 -0.4534 -0.2174 -0.3658
  185MOL0     C24881   7.481   6.360   8.817  0.3046 -0.1456 -0.6562
  185MOL0     C24882   7.617   6.384   8.749 -0.5160 -0.5478  0.1514
  185MOL0     C24883   7.712   6.455   8.851 -0.2441 -0.7233  0.2973
  185MOL0    Cl24884   7.868   6.451   8.766  0.1320 -0.0513  0.0864
  185MOL0     C24885   6.754   5.823   8.735 -0.9126 -0.2500 -0.0996
  185MOL0     C24886   6.629   5.771   8.731 -0.2551  0.8082 -0.7224
  185MOL0     O24887   6.346   5.936   8.667 -0.5592  0.3562  0.5025
  185MOL0     C24888   6.131   5.786   8.555  0.5088 -0.5566 -0.5055
  185MOL0     C24889   6.011   5.722   8.519 -0.1585  0.3332 -0.4169
  185MOL0     N24890   5.424   5.791   8.861 -0.5023 -0.2206  0.0737
  185MOL0     N24891   5.364   5.866   8.952 -0.8027 -0.3242  0.1292
  185MOL0     C24892   4.220   5.462   9.130  0.5712  0.0148  0.0889
  185MOL0     C24893   4.078   5.436   9.138 -0.5126 -0.5023  0.4246
  185MOL0     C24894   3.629   5.528   9.208 -0.2632 -0.7007  0.4935
  185MOL0     C24895   3.576   5.515   9.075 -0.2234 -0.1720 -0.1402
  185MOL0     C24896   3.444   5.534   9.061  0.9120 -0.2830 -0.0791
  185MOL0     C24897   3.346   5.566   9.157  0.5585  0.1604 -0.4741
  185MOL0     O24898   3.213   5.571   9.139 -0.3621  0.1949 -0.0764
  185MOL0     C24899   3.137   5.604   9.257  0.0785 -0.4069 -0.5994
  185MOL0     C24900   2.998   5.585   9.221  0.2780  0.1267  0.4097
  185MOL0     C24901   2.937   5.710   9.152 -0.9276  0.1519 -0.5113
  185MOL0     C24902   2.790   5.680   9.110 -1.4322 -0.2870 -0.7268
  185MOL0     C24903   2.740   5.785   9.020 -0.6927 -0.1768  0.3793
  185MOL0     C24904   2.676   5.863   8.951  0.4815  1.0711 -0.0156
  185MOL0     C24905   3.405   5.599   9.280  0.7099 -0.4199 -0.3622
  185MOL0     C24906   3.538   5.572   9.307 -0.1663  0.2669  0.7900
  185MOL0     C24907   3.583   5.621   9.445 -0.2009  0.1780  0.5006
  185MOL0     H24908   3.979   5.748   9.088 -0.6352 -0.4537 -0.2121
  185MOL0     H24909   4.211   5.789   9.080  1.3292  1.1272  0.0948
  185MOL0     H24910   4.492   5.494   9.207 -2.3289 -0.0051  0.6978
  185MOL0     H24911   4.471   5.427   9.050 -1.4213 -0.3891  2.8725
  185MOL0     H24912   4.632   5.600   8.956 -0.5143  3.5300 -0.3052
  185MOL0     H24913   4.716   5.508   9.075  2.6726  3.4318  0.1725
  185MOL0     H24914   4.603   5.705   9.226  1.2563 -2.6369  0.3919
  185MOL0     H24915   4.619   5.792   9.067  1.2822  0.9523 -0.7047
  185MOL0     H24916   4.812   5.845   9.205  0.7771  1.3449 -1.9558
  185MOL0     H24917   4.872   5.670   9.201 -0.7127  0.9957  0.7387
  185MOL0     H24918   4.855   5.709   8.941  0.6858 -0.8545  0.2531
  185MOL0     H24919   4.871   5.881   8.991 -0.1465  0.0338  0.7067
  185MOL0     H24920   5.070   5.662   9.071  1.0829 -1.1695 -2.9741
  185MOL0     H24921   5.090   5.758   8.934  1.1073  0.5291  1.0189
  185MOL0     H24922   5.040   5.885   9.204 -0.6716  1.0856 -1.4482
  185MOL0     H24923   5.121   5.973   9.080  1.9417  0.9810  2.0994
  185MOL0     H24924   5.271   5.924   9.229  0.3958 -0.0545  0.2825
  185MOL0     H24925   5.247   5.748   9.239 -0.1641 -0.3627  0.0569
  185MOL0     H24926   5.365   5.584   9.114  0.0796  1.3301  1.1731
  185MOL0     H24927   5.533   5.486   8.930 -2.3740 -0.2356  0.7777
  185MOL0     H24928   5.438   5.499   8.781 -0.1349  1.3646 -2.0595
  185MOL0     H24929   5.670   5.687   8.823  1.0118 -1.1276  0.1773
  185MOL0     H24930   5.710   5.515   8.810 -1.3077 -2.4091 -2.4558
  185MOL0     H24931   5.520   5.623   8.591 -0.3706 -0.7332 -1.6660
  185MOL0     H24932   5.600   5.477   8.610 -0.2561  0.9875 -3.4624
  185MOL0     H24933   5.750   5.739   8.593 -1.6625  0.5123  1.3487
  185MOL0     H24934   5.712   5.635   8.447 -2.7965 -0.5537  0.5723
  185MOL0     H24935   6.001   5.473   8.754 -0.9129  2.1849  3.5674
  185MOL0     H24936   6.212   5.593   8.822 -0.0895  1.0017 -0.8088
  185MOL0     H24937   6.466   5.958   8.960 -0.9458 -0.1912 -1.4812
  185MOL0     H24938   6.707   6.060   8.968 -1.9666  0.1907 -1.1452
  185MOL0     H24939   6.972   6.023   8.658  1.5161 -1.4580  1.4117
  185MOL0     H24940   6.832   6.129   8.719 -0.2524  2.9241  1.3783
  185MOL0     H24941   7.016   6.273   8.720  2.4529  0.8686  1.2148
  185MOL0     H24942   7.010   6.208   8.882  1.1976  1.8300  0.2774
  185MOL0     H24943   7.189   6.036   8.798  0.2479  1.0870  2.6795
  185MOL0     H24944   7.206   6.129   8.647  2.7588  0.1745  1.2582
  185MOL0     H24945   7.268   6.246   8.927 -0.7361 -2.8086  0.0672
  185MOL0     H24946   7.221   6.350   8.795 -1.7820 -1.3982  1.0587
  185MOL0     H24947   7.393   6.278   8.651 -2.3404  0.1495 -0.1147
  185MOL0     H24948   7.465   6.159   8.778 -1.1859 -0.4675  0.7859
  185MOL0     H24949   7.418   6.449   8.806 -2.9412 -1.8224  2.3452
  185MOL0     H24950   7.485   6.340   8.924 -1.4516  0.1032 -0.5135
  185MOL0     H24951   7.602   6.461   8.673  0.7437 -0.1517  0.2936
  185MOL0     H24952   7.659   6.290   8.714 -2.4927 -1.3292 -0.2578
  185MOL0     H24953   7.681   6.556   8.880 -1.2390 -1.5097  2.1146
  185MOL0     H24954   7.716   6.404   8.948  1.0431  1.8853  1.7187
  185MOL0     H24955   6.834   5.776   8.679  1.6812  1.7276  1.7092
  185MOL0     H24956   6.607   5.692   8.661 -0.4041  1.5262 -1.5044
  185MOL0     H24957   6.160   5.870   8.492  1.4448 -1.0416 -0.7429
  185MOL0     H24958   5.951   5.756   8.436  0.0337 -1.9441 -1.5504
  185MOL0     H24959   4.281   5.374   9.150 -2.2983 -2.2713 -0.5581
  185MOL0     H24960   4.042   5.335   9.156  0.2595 -1.4728 -2.8053
  185MOL0     H24961   3.643   5.514   8.990 -1.2856  3.3902 -1.1903
  185MOL0     H24962   3.407   5.508   8.962 -0.6778  1.7111 -0.0851
  185MOL0     H24963   3.153   5.708   9.286  0.0649 -0.4619 -0.3908
  185MOL0     H24964   3.162   5.537   9.340  1.2091  0.6450 -0.0701
  185MOL0     H24965   2.940   5.571   9.312 -0.0932  3.6509  0.8858
  185MOL0     H24966   2.984   5.507   9.146 -0.6815  0.6318  0.0465
  185MOL0     H24967   2.987   5.727   9.056 -0.8720  4.8077  0.0836
  185MOL0     H24968   2.940   5.793   9.224  1.1650 -0.7931  0.5688
  185MOL0     H24969   2.785   5.579   9.067  3.2843 -0.4285 -1.4240
  185MOL0     H24970   2.722   5.690   9.195  2.1603  2.2126  2.1680
  185MOL0     H24971   2.615   5.932   8.896 -0.4506 -1.5164 -2.4792
  185MOL0     H24972   3.349   5.640   9.363  0.1557 -0.5430 -0.6689
  185MOL0     H24973   3.616   5.538   9.508 -1.4313 -1.2640 -0.6484
  185MOL0     H24974   3.661   5.694   9.421  0.2078 -0.0042  1.2697
  185MOL0     H24975   3.501   5.663   9.504 -0.2454 -1.1079  1.3817
  186MOL0     O24976   7.559   9.343   8.370 -0.5301  0.0251 -0.2978
  186MOL0     C24977   7.644   9.291   8.291  1.1870 -0.1821  0.0637
  186MOL0     O24978   7.643   9.298   8.162 -0.3551 -0.1435  0.6176
  186MOL0     C24979   7.523   9.310   8.097 -0.6460  1.3284  0.1730
  186MOL0     C24980   7.393   9.258   8.132 -0.0076  0.9105 -0.7043
  186MOL0     C24981   7.284   9.268   8.045 -0.8696 -0.5245  0.0117
  186MOL0     C24982   7.296   9.324   7.912  0.1189 -0.1353 -0.4180
  186MOL0     O24983   7.201   9.340   7.819 -0.7109  1.3059  0.2416
  186MOL0     C24984   7.066   9.314   7.846  0.5194 -0.2130 -0.3179
  186MOL0     C24985   6.985   9.290   7.716  0.4786  0.5802  0.3469
  186MOL0     C24986   6.832   9.336   7.720 -1.0822  0.1176  0.6054
  186MOL0     C24987   6.751   9.271   7.836  0.0184 -0.3046  0.2239
  186MOL0     C24988   6.603   9.321   7.857 -0.6204 -0.4581 -0.7468
  186MOL0     C24989   6.510   9.302   7.734  0.2451  0.0935 -0.2750
  186MOL0     C24990   6.358   9.328   7.746  0.1818  0.2169 -0.2693
  186MOL0     C24991   6.277   9.331   7.616 -0.7249 -0.7738 -0.3424
  186MOL0     N24992   6.322   9.419   7.507 -0.9959 -0.0958 -0.2186
  186MOL0     C24993   6.394   9.530   7.519 -0.6404 -0.1983 -0.2593
  186MOL0     C24994   6.459   9.559   7.404  0.4174  1.1684  0.1031
  186MOL0     C24995   6.536   9.690   7.384 -0.5065  0.4322  0.9340
  186MOL0     C24996   6.631   9.696   7.507  1.1660 -0.6150 -0.4123
  186MOL0     C24997   6.744   9.805   7.491 -0.9285  0.0634  0.0788
  186MOL0     C24998   6.854   9.804   7.602  0.3647  0.7155 -1.0465
  186MOL0     O24999   6.956   9.880   7.538 -0.5145 -0.0713  0.4457
  186MOL0     C25000   7.050   9.938   7.619  0.1590 -0.0465  0.0166
  186MOL0     C25001   7.101  10.048   7.565  0.0716  0.2185  1.1253
  186MOL0     C25002   7.203  10.125   7.626  0.1165  0.0081  0.1318
  186MOL0     C25003   7.240  10.101   7.763 -0.9446  0.8905 -0.0259
  186MOL0     C25004   7.355  10.178   7.829  0.3092 -1.1559  0.1535
  186MOL0     O25005   7.354  10.201   7.961  0.3930 -0.7290 -0.3948
  186MOL0     C25006   7.447  10.280   8.018 -0.0920 -0.3450  1.3523
  186MOL0     C25007   7.468  10.411   7.966 -0.1398 -0.3289  0.3553
  186MOL0     C25008   7.545  10.499   8.038 -0.5059 -0.3216  0.8195
  186MOL0     C25009   7.621  10.456   8.151 -1.0140 -0.3530  0.0406
  186MOL0     O25010   7.691  10.556   8.209  0.2221 -0.0825  0.5855
  186MOL0     C25011   7.807  10.520   8.289 -0.6923  0.3785 -0.2630
  186MOL0     C25012   7.923  10.618   8.283  0.1811 -0.1434 -0.3316
  186MOL0     C25013   7.981  10.624   8.143 -0.0288 -0.3481  0.1008
  186MOL0     C25014   8.135  10.646   8.154 -0.5674 -0.7666 -0.4709
  186MOL0     C25015   8.177  10.703   8.016 -0.3817  0.1400  0.2205
  186MOL0     C25016   8.323  10.751   8.014  0.1750  0.0592  0.0764
  186MOL0     C25017   8.359  10.861   8.106  0.8187  0.8317  0.0513
  186MOL0     C25018   8.513  10.891   8.101 -0.2976 -0.0065  0.6221
  186MOL0    Cl25019   8.574  10.952   7.944  0.0547 -0.4474 -0.2218
  186MOL0     C25020   7.595  10.327   8.203 -0.6791 -0.4385 -0.7479
  186MOL0     C25021   7.512  10.241   8.135  0.4869  0.5813  0.4175
  186MOL0     O25022   7.433  10.231   7.741 -0.3640  0.1949 -0.2655
  186MOL0     C25023   7.185   9.993   7.821  0.3420 -0.3678  0.7764
  186MOL0     C25024   7.093   9.915   7.754 -0.0901 -0.2926  0.6670
  186MOL0     N25025   6.421   9.462   7.315 -0.2079  0.1693  0.6282
  186MOL0     N25026   6.340   9.381   7.378 -1.2006  0.2026  0.2157
  186MOL0     C25027   7.421   9.371   7.884  0.3035  0.0952 -0.1449
  186MOL0     C25028   7.535   9.367   7.969 -0.2401  0.0374 -0.2576
  186MOL0     C25029   7.773   9.253   8.339 -0.5365 -0.1602  0.0433
  186MOL0     C25030   7.851   9.159   8.262 -0.2061 -0.4071  0.2317
  186MOL0     C25031   7.974   9.113   8.307 -0.7200 -0.5064 -0.7616
  186MOL0     C25032   8.037   9.164   8.422  0.0610  0.0409  0.1277
  186MOL0     O25033   8.163   9.112   8.450 -0.1083  0.4492 -0.8484
  186MOL0     C25034   8.210   9.139   8.585  0.4252 -0.6752  0.1050
  186MOL0     C25035   8.337   9.078   8.608 -0.0051 -0.1070  0.2555
  186MOL0     C25036   8.427   9.138   8.711 -1.1974  0.5545 -0.0802
  186MOL0     C25037   8.580   9.089   8.698  0.6092  0.4886  0.8904
  186MOL0     C25038   8.633   9.047   8.832 -0.0649 -0.0567 -0.3160
  186MOL0     C25039   8.688   9.009   8.935  0.7260  0.6462 -0.6808
  186MOL0     C25040   7.967   9.264   8.494  0.3809  0.4435  0.0127
  186MOL0     C25041   7.839   9.311   8.455  0.5453  0.3206  0.3754
  186MOL0     C25042   7.774   9.411   8.547 -0.2126  0.8819  0.0935
  186MOL0     H25043   7.370   9.206   8.224 -0.7181 -1.8525 -2.3448
  186MOL0     H25044   7.190   9.233   8.086 -0.9463  0.1330  0.3978
  186MOL0     H25045   7.059   9.222   7.905 -2.6302 -0.1515 -0.4376
  186MOL0     H25046   7.026   9.395   7.906  0.6449 -0.8377  0.6295
  186MOL0     H25047   6.989   9.184   7.690 -0.4735  0.6428 -0.0880
  186MOL0     H25048   7.030   9.339   7.630  0.4372 -2.5858 -1.6249
  186MOL0     H25049   6.802   9.289   7.626  0.4516 -0.7792  0.5284
  186MOL0     H25050   6.823   9.445   7.717 -1.6282  0.1119  1.4603
  186MOL0     H25051   6.756   9.163   7.821  2.5888 -0.1620 -0.4661
  186MOL0     H25052   6.817   9.298   7.919  1.8999  1.3838 -1.6866
  186MOL0     H25053   6.552   9.260   7.932 -2.0449 -0.2171 -1.4825
  186MOL0     H25054   6.602   9.424   7.894  0.3374 -1.4486  2.3748
  186MOL0     H25055   6.558   9.369   7.661 -0.4760 -0.0188 -0.8628
  186MOL0     H25056   6.527   9.199   7.700 -0.7031  0.3327 -1.5500
  186MOL0     H25057   6.339   9.414   7.811 -0.7622 -1.5108  1.8715
  186MOL0     H25058   6.322   9.245   7.807 -3.0636  2.3234  0.9418
  186MOL0     H25059   6.270   9.229   7.580  2.1129 -1.4707  0.8229
  186MOL0     H25060   6.179   9.372   7.646  1.6200  4.9818  0.8346
  186MOL0     H25061   6.395   9.596   7.605  0.2568  0.8114 -1.0249
  186MOL0     H25062   6.590   9.695   7.290 -0.3415 -2.9025  0.7190
  186MOL0     H25063   6.467   9.773   7.405 -0.1740  1.6210 -2.1808
  186MOL0     H25064   6.567   9.726   7.590 -0.6815 -1.4578 -1.4799
  186MOL0     H25065   6.673   9.599   7.533  3.1306  0.5580  1.0588
  186MOL0     H25066   6.706   9.908   7.485  0.1749  0.4781 -0.0804
  186MOL0     H25067   6.790   9.803   7.392  0.2588  1.8649  0.5380
  186MOL0     H25068   6.890   9.705   7.631 -0.2298  0.7989 -0.0001
  186MOL0     H25069   6.814   9.860   7.687 -1.6364  0.9170 -2.0409
  186MOL0     H25070   7.065  10.073   7.465 -0.9466  0.9940  1.6758
  186MOL0     H25071   7.246  10.211   7.576  0.1653  0.6763  1.2942
  186MOL0     H25072   7.419  10.450   7.877  0.7582 -0.7940 -0.3637
  186MOL0     H25073   7.551  10.598   7.996  1.6601 -0.8676 -0.2858
  186MOL0     H25074   7.782  10.511   8.395  3.1889  1.1032  0.8519
  186MOL0     H25075   7.843  10.418   8.268 -0.8868 -1.2276  5.5836
  186MOL0     H25076   7.885  10.717   8.312  1.2145  0.4565 -0.9603
  186MOL0     H25077   8.000  10.587   8.354 -0.3575 -1.2597 -0.2117
  186MOL0     H25078   7.966  10.531   8.087  0.6390 -1.6634  1.9735
  186MOL0     H25079   7.946  10.713   8.091  3.9653  0.6856 -1.1505
  186MOL0     H25080   8.187  10.550   8.163 -1.8118 -1.4054  0.0945
  186MOL0     H25081   8.154  10.714   8.238 -2.2660  1.9024 -2.1138
  186MOL0     H25082   8.118  10.791   7.990 -2.9581 -0.7777  2.4412
  186MOL0     H25083   8.158  10.631   7.936  0.0523 -1.3880  1.4209
  186MOL0     H25084   8.389  10.666   8.036 -0.2394  0.3072  2.4830
  186MOL0     H25085   8.344  10.765   7.907  1.3596 -3.3592 -0.2765
  186MOL0     H25086   8.329  10.839   8.209  1.1231 -1.6941 -0.3498
  186MOL0     H25087   8.299  10.948   8.080 -1.9202 -0.9391  0.1113
  186MOL0     H25088   8.543  10.976   8.163  4.0205 -1.0889  0.3545
  186MOL0     H25089   8.569  10.802   8.131 -1.0658 -1.2833 -1.5604
  186MOL0     H25090   7.645  10.300   8.296 -0.4575 -0.7738 -0.9592
  186MOL0     H25091   7.491  10.146   8.183  1.7531  0.5334  0.9063
  186MOL0     H25092   7.210   9.969   7.923  0.6266 -2.2265  0.2987
  186MOL0     H25093   7.046   9.838   7.814 -0.4143 -0.7478 -0.1522
  186MOL0     H25094   7.439   9.421   7.790  0.5538 -0.6924 -0.5242
  186MOL0     H25095   7.627   9.414   7.935 -0.8357  0.4016 -1.4195
  186MOL0     H25096   7.825   9.117   8.166 -0.9785 -2.1645  1.1581
  186MOL0     H25097   8.025   9.032   8.255  0.4450 -0.2331 -0.0894
  186MOL0     H25098   8.139   9.119   8.665  1.1830  0.8842  1.2263
  186MOL0     H25099   8.234   9.246   8.585  0.7700 -0.6675 -2.7917
  186MOL0     H25100   8.387   9.066   8.512  0.4557  1.5821  0.2466
  186MOL0     H25101   8.314   8.978   8.646 -0.9013 -0.1786 -0.4419
  186MOL0     H25102   8.389   9.118   8.811 -2.6178  0.2150 -0.6564
  186MOL0     H25103   8.425   9.247   8.706 -1.4709  0.9251  4.4157
  186MOL0     H25104   8.595   8.998   8.639 -0.4124 -1.0063  2.7970
  186MOL0     H25105   8.643   9.172   8.666  0.2599  0.8612  1.1581
  186MOL0     H25106   8.744   8.987   9.024 -2.2602  1.7554  1.6673
  186MOL0     H25107   8.021   9.306   8.578  1.7349 -1.6163  0.2646
  186MOL0     H25108   7.736   9.493   8.485  0.3427  0.3018 -1.0284
  186MOL0     H25109   7.698   9.361   8.608 -1.5725 -0.0311 -2.1985
  186MOL0     H25110   7.845   9.456   8.617 -1.4378  0.9495  1.3552
  187MOL0     O25111  10.266   6.287   8.481  0.0925 -0.0725 -0.2890
  187MOL0     C25112  10.190   6.315   8.578 -0.6272  0.1799  0.4009
  187MOL0     O25113  10.238   6.368   8.698 -0.0008  1.1133  0.8508
  187MOL0     C25114  10.370   6.353   8.709 -0.3722  0.3676  0.3983
  187MOL0     C25115  10.454   6.460   8.678 -0.4137 -0.2056 -1.2780
  187MOL0     C25116  10.591   6.443   8.707 -0.1866  0.7309  1.1417
  187MOL0     C25117  10.641   6.317   8.761  0.6584 -0.3027 -0.1480
  187MOL0     O25118  10.778   6.298   8.781 -0.0535 -0.5893 -0.3969
  187MOL0     C25119  10.871   6.374   8.709 -0.2445  0.0155 -0.0016
  187MOL0     C25120  11.005   6.378   8.777  0.2535  0.2091 -0.1223
  187MOL0     C25121  11.081   6.243   8.769 -0.1261  0.4478 -0.1505
  187MOL0     C25122  11.023   6.127   8.842  0.1270 -0.5531 -0.2245
  187MOL0     C25123  11.141   6.025   8.844  1.1455 -0.4203 -1.1375
  187MOL0     C25124  11.095   5.915   8.937 -0.0294  0.4368 -0.1398
  187MOL0     C25125  11.185   5.797   8.939  0.9116 -0.2406  1.1451
  187MOL0     C25126  11.148   5.706   9.052  0.0111 -0.0813  0.2717
  187MOL0     N25127  11.025   5.632   9.031  0.3109  0.2212  0.3083
  187MOL0     C25128  10.903   5.671   9.084 -0.3197  0.3681  0.1238
  187MOL0     C25129  10.815   5.597   9.015  0.3223  0.2699 -0.7173
  187MOL0     C25130  10.668   5.594   9.044 -0.0065 -0.5600  0.2339
  187MOL0     C25131  10.571   5.629   8.936  0.8121 -0.6480  0.7305
  187MOL0     C25132  10.421   5.603   8.979 -0.6281 -0.5985 -0.2391
  187MOL0     C25133  10.309   5.630   8.870 -0.0475 -0.1893  0.0724
  187MOL0     O25134  10.339   5.744   8.785  0.1481  0.4533 -0.1809
  187MOL0     C25135  10.259   5.784   8.682 -0.2126 -0.4862 -0.0661
  187MOL0     C25136  10.297   5.895   8.595  0.1561 -0.1148 -0.8196
  187MOL0     C25137  10.205   5.935   8.501  0.9556  0.2841  0.4916
  187MOL0     C25138  10.076   5.870   8.486  0.3389 -0.2173 -1.5219
  187MOL0     C25139   9.983   5.919   8.383 -0.2400 -0.2246 -0.8866
  187MOL0     O25140  10.028   6.008   8.294  0.4128  0.3456 -0.2813
  187MOL0     C25141   9.937   6.026   8.193 -0.3607 -0.2668  1.2773
  187MOL0     C25142   9.839   6.129   8.200 -0.5463  0.1459 -0.0515
  187MOL0     C25143   9.749   6.141   8.091  0.6263  0.1895 -0.3734
  187MOL0     C25144   9.755   6.064   7.980 -0.5479 -0.0218  0.9696
  187MOL0     O25145   9.675   6.060   7.867 -0.4727 -0.2255  0.7500
  187MOL0     C25146   9.577   6.168   7.858  0.4149  0.9921 -0.2453
  187MOL0     C25147   9.538   6.179   7.715  0.5791 -0.1216  0.3049
  187MOL0     C25148   9.483   6.047   7.665  0.4285  0.2287 -0.0467
  187MOL0     C25149   9.495   6.023   7.514 -0.9621 -0.3233  0.0674
  187MOL0     C25150   9.630   6.046   7.447  0.3833 -0.3306 -0.9021
  187MOL0     C25151   9.723   5.929   7.473 -1.0581  0.3694  0.5772
  187MOL0     C25152   9.867   5.936   7.407  0.2716 -0.2262  0.4114
  187MOL0     C25153   9.937   6.067   7.448 -0.1766  0.9059  0.1339
  187MOL0    Cl25154   9.898   6.198   7.330 -0.2838  0.4888 -0.3808
  187MOL0     C25155   9.859   5.977   7.967 -0.2451  0.1780 -0.2311
  187MOL0     C25156   9.952   5.959   8.072  0.4703 -0.6853  0.1712
  187MOL0     O25157   9.867   5.867   8.379  0.2906 -0.7033 -0.1278
  187MOL0     C25158  10.041   5.761   8.567  0.1056  0.2055  0.1517
  187MOL0     C25159  10.134   5.717   8.655  0.4308  0.1749 -0.5458
  187MOL0     N25160  10.882   5.510   8.927  0.7158  0.5188  0.2113
  187MOL0     N25161  11.002   5.534   8.940  0.0237 -0.5861 -0.4260
  187MOL0     C25162  10.555   6.217   8.794 -0.1298 -0.0234  0.8376
  187MOL0     C25163  10.421   6.226   8.762 -0.0917 -0.4927  0.7350
  187MOL0     C25164  10.046   6.309   8.549 -1.0085  0.1449 -0.5069
  187MOL0     C25165   9.971   6.200   8.593 -0.0285 -0.3832  0.1247
  187MOL0     C25166   9.835   6.186   8.565  0.4213  0.1551 -0.3307
  187MOL0     C25167   9.768   6.291   8.508  0.1427  0.5820  0.2022
  187MOL0     O25168   9.638   6.293   8.476  0.7366 -0.1472 -0.0615
  187MOL0     C25169   9.550   6.203   8.547  0.6734 -0.4573  0.1566
  187MOL0     C25170   9.528   6.066   8.468 -0.0533 -0.2318  0.1890
  187MOL0     C25171   9.478   6.100   8.329  0.4528 -0.7899 -0.1916
  187MOL0     C25172   9.482   5.980   8.235  0.2256 -0.0397  0.4166
  187MOL0     C25173   9.383   5.985   8.123  0.1536 -0.0510  0.0780
  187MOL0     C25174   9.311   5.977   8.031  0.4949  0.4627 -0.1360
  187MOL0     C25175   9.834   6.411   8.477 -0.0559 -0.6695  0.3747
  187MOL0     C25176   9.978   6.421   8.491  0.7154  0.1992 -0.7251
  187MOL0     C25177  10.052   6.549   8.445  0.0714  0.2788  0.7208
  187MOL0     H25178  10.412   6.554   8.643 -1.9690  0.9413  3.0329
  187MOL0     H25179  10.654   6.528   8.685 -1.3986  1.8162  1.7154
  187MOL0     H25180  10.885   6.336   8.607 -2.0930 -3.4972  0.9123
  187MOL0     H25181  10.840   6.477   8.688 -0.7362 -0.0299  0.5040
  187MOL0     H25182  10.985   6.414   8.878 -2.3460  1.2413 -0.9026
  187MOL0     H25183  11.070   6.447   8.723  1.5478 -0.1686  0.9291
  187MOL0     H25184  11.181   6.269   8.804 -0.4433  3.5414 -1.2041
  187MOL0     H25185  11.086   6.215   8.663 -1.4880  1.2476 -0.4602
  187MOL0     H25186  10.990   6.152   8.944  0.2537 -1.1665 -0.0276
  187MOL0     H25187  10.931   6.090   8.796 -1.9934  2.0814  1.5580
  187MOL0     H25188  11.165   5.989   8.744  1.3368 -0.3781 -1.1084
  187MOL0     H25189  11.230   6.070   8.889 -0.3629  0.2518  1.3509
  187MOL0     H25190  11.078   5.950   9.039 -0.5188  0.4271 -0.2162
  187MOL0     H25191  10.996   5.875   8.913  0.5848 -1.6721  0.6782
  187MOL0     H25192  11.290   5.825   8.937  1.2716 -1.5403  0.9000
  187MOL0     H25193  11.181   5.742   8.844  0.4432  0.3600  0.8055
  187MOL0     H25194  11.229   5.633   9.061 -0.4382 -0.5193  0.8933
  187MOL0     H25195  11.138   5.762   9.146  0.4214  0.2842  0.1035
  187MOL0     H25196  10.871   5.745   9.157 -0.9954 -1.2087  1.4905
  187MOL0     H25197  10.637   5.495   9.077 -1.5698 -1.3213 -3.1301
  187MOL0     H25198  10.654   5.662   9.128  0.4388 -1.7009  1.2595
  187MOL0     H25199  10.577   5.736   8.912  1.5491 -0.1657  2.8989
  187MOL0     H25200  10.601   5.579   8.844 -0.7262 -0.9324  0.3401
  187MOL0     H25201  10.406   5.664   9.069 -1.8824  0.2994 -1.0249
  187MOL0     H25202  10.417   5.497   9.007  1.3546 -1.2169 -2.0100
  187MOL0     H25203  10.218   5.645   8.929  1.7264  0.6132  2.8137
  187MOL0     H25204  10.302   5.535   8.817  0.3011 -0.9432  1.3476
  187MOL0     H25205  10.396   5.934   8.618  0.7459 -2.5721  1.2800
  187MOL0     H25206  10.223   6.022   8.439  1.1055  0.9878  1.4917
  187MOL0     H25207   9.842   6.195   8.286 -1.5215  1.9739 -1.3584
  187MOL0     H25208   9.671   6.216   8.100 -0.8376 -1.2828 -0.3417
  187MOL0     H25209   9.486   6.155   7.918  0.0162 -0.7759 -1.1511
  187MOL0     H25210   9.617   6.266   7.885 -0.8575  2.1747 -2.3938
  187MOL0     H25211   9.465   6.261   7.707 -0.1434 -0.7572  0.2023
  187MOL0     H25212   9.624   6.220   7.661  1.6790 -1.8146  0.7189
  187MOL0     H25213   9.538   5.967   7.715 -0.5223 -1.7501 -2.0013
  187MOL0     H25214   9.378   6.034   7.693  0.1869  0.8766 -0.6206
  187MOL0     H25215   9.427   6.092   7.463  0.3336 -0.1852 -1.5491
  187MOL0     H25216   9.472   5.919   7.492 -1.3115 -0.5782  1.5506
  187MOL0     H25217   9.675   6.132   7.496 -0.9267 -0.9620  1.5883
  187MOL0     H25218   9.617   6.060   7.340  0.6883  1.5226 -0.7213
  187MOL0     H25219   9.742   5.917   7.580  2.3871  1.3375  0.1861
  187MOL0     H25220   9.673   5.836   7.443 -0.7407  1.1596 -2.7977
  187MOL0     H25221   9.860   5.931   7.298 -0.9547  0.3153  0.4576
  187MOL0     H25222   9.918   5.848   7.448 -2.5374 -0.2799  4.3625
  187MOL0     H25223   9.903   6.095   7.549 -0.4752 -1.5589  0.8023
  187MOL0     H25224  10.046   6.062   7.441  0.1945  3.8385  2.0243
  187MOL0     H25225   9.870   5.927   7.871  0.5519 -0.5256  0.2158
  187MOL0     H25226  10.043   5.901   8.059  1.3365  0.3120  1.5953
  187MOL0     H25227   9.942   5.715   8.569  0.7568 -1.2570  0.8352
  187MOL0     H25228  10.108   5.622   8.701 -2.3776 -0.8388 -3.7403
  187MOL0     H25229  10.571   6.126   8.850 -1.8178 -1.2449 -0.5568
  187MOL0     H25230  10.344   6.157   8.792 -0.4020 -0.1793  0.6635
  187MOL0     H25231  10.009   6.108   8.637  0.4817 -0.5129 -0.5585
  187MOL0     H25232   9.775   6.099   8.590 -3.4245  2.4877 -0.6250
  187MOL0     H25233   9.452   6.251   8.550  0.9454  0.4475 -2.5010
  187MOL0     H25234   9.575   6.190   8.653  1.1783 -0.4522  0.0437
  187MOL0     H25235   9.450   6.008   8.518 -0.6405  1.3798  1.2273
  187MOL0     H25236   9.615   6.000   8.470  1.7272  1.9823  2.3020
  187MOL0     H25237   9.547   6.170   8.282  2.2369 -0.0975  3.0898
  187MOL0     H25238   9.374   6.130   8.342  0.1989 -1.5144 -0.4799
  187MOL0     H25239   9.579   5.971   8.185  0.6316  0.1165  1.1591
  187MOL0     H25240   9.456   5.889   8.291  1.9825 -2.4262 -2.3317
  187MOL0     H25241   9.250   5.975   7.944  1.4541  1.5888 -0.8636
  187MOL0     H25242   9.771   6.493   8.442  0.0682 -1.2422 -1.3011
  187MOL0     H25243  10.158   6.531   8.424 -0.0554  0.4061 -0.0324
  187MOL0     H25244  10.017   6.564   8.343 -3.4627  0.9352  1.9058
  187MOL0     H25245  10.033   6.634   8.512  0.8140  0.1390  1.1283
  188MOL0     O25246   5.586   6.011  10.749  0.9271 -0.1953 -0.1780
  188MOL0     C25247   5.477   6.073  10.744 -0.6325  0.0133  0.4069
  188MOL0     O25248   5.457   6.209  10.687  0.5965 -0.1957 -0.3871
  188MOL0     C25249   5.572   6.273  10.645  0.6731  0.1190 -0.7704
  188MOL0     C25250   5.594   6.303  10.515 -0.5817  0.6178  1.1151
  188MOL0     C25251   5.701   6.382  10.476 -0.0757 -0.3316  0.5576
  188MOL0     C25252   5.789   6.427  10.573  0.1440 -0.1304 -0.4141
  188MOL0     O25253   5.899   6.499  10.545 -0.9508 -0.1799 -0.3958
  188MOL0     C25254   5.995   6.422  10.468  0.6454  0.4092 -0.2802
  188MOL0     C25255   6.117   6.508  10.420 -0.4659  0.3059  0.2182
  188MOL0     C25256   6.173   6.587  10.537 -0.3284  0.0291  0.3144
  188MOL0     C25257   6.266   6.709  10.492  0.2320  0.3832  0.7904
  188MOL0     C25258   6.362   6.752  10.596 -0.9015 -0.5171 -0.2998
  188MOL0     C25259   6.441   6.881  10.564 -0.8627 -0.0444 -0.2256
  188MOL0     C25260   6.527   6.925  10.684 -0.1034  0.5516  0.6347
  188MOL0     C25261   6.572   7.069  10.671  0.0671 -0.1265 -0.2740
  188MOL0     N25262   6.660   7.089  10.557  0.4034  0.3410 -0.4748
  188MOL0     C25263   6.792   7.047  10.560  0.0386  0.3040  0.0503
  188MOL0     C25264   6.844   7.102  10.448  0.2133  0.9798  1.0531
  188MOL0     C25265   6.992   7.079  10.400 -1.2766  0.5283  0.5340
  188MOL0     C25266   7.019   7.040  10.254 -0.0591  0.0953 -0.4356
  188MOL0     C25267   7.007   6.891  10.235 -0.2224  0.5471 -0.0632
  188MOL0     C25268   7.048   6.858  10.086  0.7306  0.2752  0.3218
  188MOL0     O25269   7.195   6.863  10.108 -0.1728 -0.2261  0.0800
  188MOL0     C25270   7.268   6.894  10.000 -0.5924  0.7476 -0.0814
  188MOL0     C25271   7.400   6.918  10.038 -0.9421 -0.1738  0.1911
  188MOL0     C25272   7.500   6.940   9.940  0.1804 -1.0308 -1.0980
  188MOL0     C25273   7.467   6.935   9.803  0.1042  0.2082  0.0104
  188MOL0     C25274   7.580   6.966   9.702  1.3048  0.8558 -0.2591
  188MOL0     O25275   7.707   6.972   9.741  0.6201 -0.3861  0.6970
  188MOL0     C25276   7.795   7.001   9.644 -0.4057  0.1085 -0.2650
  188MOL0     C25277   7.818   6.915   9.542  0.5151 -0.7115  0.6944
  188MOL0     C25278   7.903   6.958   9.437 -0.2392 -0.0651  0.3705
  188MOL0     C25279   7.979   7.070   9.434  0.5301 -0.1425  0.1607
  188MOL0     O25280   8.056   7.112   9.334 -0.3810  0.0775 -0.1721
  188MOL0     C25281   8.120   7.010   9.264  0.5831 -0.3200  0.5284
  188MOL0     C25282   8.249   7.079   9.225 -0.4352 -0.7947  0.2909
  188MOL0     C25283   8.339   7.088   9.338 -0.2336  0.3645 -0.4156
  188MOL0     C25284   8.485   7.109   9.289 -0.2123  0.1786 -0.6996
  188MOL0     C25285   8.561   7.162   9.417 -0.5804 -0.7391 -0.4860
  188MOL0     C25286   8.705   7.217   9.396  0.8809  0.0356 -0.4377
  188MOL0     C25287   8.791   7.113   9.351 -0.1694 -0.3399  1.1879
  188MOL0     C25288   8.943   7.150   9.368 -0.6377  0.2593 -0.5858
  188MOL0    Cl25289   9.053   7.014   9.341 -0.4090  0.3136 -0.0491
  188MOL0     C25290   7.961   7.153   9.545 -0.0001  0.9046 -0.4166
  188MOL0     C25291   7.878   7.109   9.653 -1.2084  0.3743 -0.0806
  188MOL0     O25292   7.535   6.998   9.593 -0.2566  0.2998  0.0426
  188MOL0     C25293   7.335   6.905   9.770 -0.1733  0.0289  0.0600
  188MOL0     C25294   7.237   6.904   9.870 -0.6275 -0.3631 -0.5098
  188MOL0     N25295   6.747   7.173  10.374 -0.6915 -0.4110 -1.0118
  188MOL0     N25296   6.637   7.154  10.438  0.7671 -0.3306  0.5222
  188MOL0     C25297   5.765   6.383  10.702 -0.0189  0.2544  0.4141
  188MOL0     C25298   5.660   6.304  10.739  0.1150  0.3118 -0.0747
  188MOL0     C25299   5.350   5.994  10.778 -0.7395  1.1002 -0.1029
  188MOL0     C25300   5.230   6.035  10.720  0.7448  0.2149 -0.6246
  188MOL0     C25301   5.111   5.970  10.745 -0.1202  0.0720 -0.3607
  188MOL0     C25302   5.107   5.860  10.828 -0.1422 -1.0134 -1.1438
  188MOL0     O25303   4.987   5.812  10.887 -0.2008  0.4219  0.1489
  188MOL0     C25304   4.895   5.765  10.774 -0.7441  0.5100 -0.8722
  188MOL0     C25305   4.968   5.668  10.671  0.3046 -0.1246  0.4098
  188MOL0     C25306   5.010   5.542  10.750 -1.5068  0.8346  0.5154
  188MOL0     C25307   5.054   5.427  10.660  0.8783 -0.7593 -0.2030
  188MOL0     C25308   5.164   5.455  10.580 -0.6446  0.3924  0.5328
  188MOL0     C25309   5.257   5.486  10.517  1.0756  0.4333  0.0301
  188MOL0     C25310   5.230   5.823  10.887 -0.4891 -0.3289  1.3353
  188MOL0     C25311   5.349   5.885  10.866 -0.0655  0.1630  0.3060
  188MOL0     C25312   5.461   5.819  10.941  0.8374 -0.7558  0.6459
  188MOL0     H25313   5.518   6.260  10.449  0.4760 -1.4427  1.1502
  188MOL0     H25314   5.704   6.395  10.368  0.4753 -0.0782  0.6029
  188MOL0     H25315   6.039   6.346  10.533  0.0592  2.2910  2.5332
  188MOL0     H25316   5.943   6.381  10.381  0.1068  2.8818 -1.2134
  188MOL0     H25317   6.080   6.572  10.339 -1.7439 -1.0886 -0.3444
  188MOL0     H25318   6.195   6.443  10.380  0.7278  1.0414  1.2644
  188MOL0     H25319   6.247   6.516  10.574  0.7911  1.8661  1.7990
  188MOL0     H25320   6.095   6.627  10.603 -0.8752  1.8991 -1.3823
  188MOL0     H25321   6.326   6.669  10.410  0.0248  2.0323 -0.2197
  188MOL0     H25322   6.203   6.793  10.462 -1.6042 -0.5059  1.9191
  188MOL0     H25323   6.309   6.766  10.691 -0.8912  0.4514 -0.4277
  188MOL0     H25324   6.437   6.674  10.605  0.9165  1.1229 -0.5628
  188MOL0     H25325   6.513   6.854  10.486  0.7302  0.4919  1.0078
  188MOL0     H25326   6.372   6.959  10.527 -1.4207  1.0816  2.9093
  188MOL0     H25327   6.611   6.856  10.697  0.3548  1.3996  2.5247
  188MOL0     H25328   6.458   6.907  10.767  0.9538 -0.6826  1.2917
  188MOL0     H25329   6.490   7.141  10.666  0.3215  0.1807 -0.0463
  188MOL0     H25330   6.623   7.091  10.765 -1.8305  1.3652  0.4928
  188MOL0     H25331   6.843   6.983  10.631  1.5384  0.0516 -1.1934
  188MOL0     H25332   7.047   7.173  10.408  2.0572 -1.1662 -0.7686
  188MOL0     H25333   7.046   7.007  10.463  2.0864  0.5556 -2.0197
  188MOL0     H25334   6.941   7.085  10.192 -1.5130 -1.0482  0.4782
  188MOL0     H25335   7.115   7.086  10.231  1.6422 -2.3785  1.2390
  188MOL0     H25336   6.902   6.862  10.249 -0.3708  0.7320 -0.7278
  188MOL0     H25337   7.066   6.833  10.306 -0.0025  1.8284  0.8388
  188MOL0     H25338   6.998   6.924  10.015 -1.8897 -2.0665 -0.1858
  188MOL0     H25339   7.015   6.755  10.069  0.2707 -0.1025  3.0900
  188MOL0     H25340   7.410   6.933  10.145  0.0827 -0.9604  0.2130
  188MOL0     H25341   7.595   6.989   9.955 -0.3926  0.5521 -2.3097
  188MOL0     H25342   7.775   6.816   9.526  1.5239 -1.1670  0.7009
  188MOL0     H25343   7.911   6.896   9.348  0.2444  0.8466 -0.2287
  188MOL0     H25344   8.138   6.912   9.310  0.4331 -1.0359 -0.8711
  188MOL0     H25345   8.050   6.984   9.184  1.4877 -2.9278  0.4887
  188MOL0     H25346   8.296   7.023   9.143  0.0958 -0.4651  0.3702
  188MOL0     H25347   8.223   7.175   9.180  1.8640  0.3245  1.2256
  188MOL0     H25348   8.301   7.170   9.399 -2.0414  0.0237 -1.0190
  188MOL0     H25349   8.334   6.992   9.390  1.0531  0.3095 -0.3565
  188MOL0     H25350   8.483   7.192   9.218  0.2653 -1.6512 -2.9669
  188MOL0     H25351   8.534   7.021   9.248  1.8047 -0.2582  2.3494
  188MOL0     H25352   8.588   7.088   9.493 -0.3873 -0.9003 -0.7099
  188MOL0     H25353   8.503   7.229   9.481  0.3938 -0.3792  0.0409
  188MOL0     H25354   8.706   7.303   9.328  0.3465  0.3315 -0.0755
  188MOL0     H25355   8.740   7.253   9.494 -3.8111  1.1572  1.0644
  188MOL0     H25356   8.771   7.102   9.244 -0.9711  0.8930  1.1915
  188MOL0     H25357   8.773   7.015   9.394 -2.2328 -0.7482 -0.4041
  188MOL0     H25358   8.963   7.227   9.293 -0.5505  0.9597  0.1397
  188MOL0     H25359   8.962   7.198   9.464  2.5009  0.9350 -1.4291
  188MOL0     H25360   8.007   7.250   9.560  1.4452  0.3124 -0.8631
  188MOL0     H25361   7.867   7.171   9.741 -1.7493  0.4774 -0.2178
  188MOL0     H25362   7.299   6.880   9.670  0.2952  0.0134 -0.1072
  188MOL0     H25363   7.131   6.892   9.847 -2.1414  4.3256  2.5547
  188MOL0     H25364   5.831   6.423  10.778  1.7250 -0.8096 -0.4756
  188MOL0     H25365   5.641   6.284  10.844  0.0378  0.8427  0.0188
  188MOL0     H25366   5.222   6.113  10.645  1.6063  0.3942 -0.5463
  188MOL0     H25367   5.022   6.027  10.720  0.5321  1.5736  0.6006
  188MOL0     H25368   4.854   5.853  10.723 -0.1941  2.6975  2.1851
  188MOL0     H25369   4.810   5.714  10.822  0.1392  0.9791  1.2735
  188MOL0     H25370   5.049   5.724  10.625  0.2561 -1.3100 -1.2197
  188MOL0     H25371   4.901   5.639  10.590 -0.1254 -1.0380  1.0693
  188MOL0     H25372   4.926   5.517  10.815 -1.5147  0.1862  0.2681
  188MOL0     H25373   5.089   5.566  10.822 -1.5065 -1.7698  1.5010
  188MOL0     H25374   5.084   5.345  10.725 -1.8665 -1.7369 -0.0296
  188MOL0     H25375   4.971   5.390  10.598  0.0337  0.5608  0.0937
  188MOL0     H25376   5.335   5.532  10.460 -1.1165  2.8139 -1.2947
  188MOL0     H25377   5.218   5.733  10.946 -0.7950  0.4973  2.5490
  188MOL0     H25378   5.535   5.897  10.964  2.0861 -1.5385 -0.5545
  188MOL0     H25379   5.436   5.763  11.031  0.8137 -1.2530  0.3321
  188MOL0     H25380   5.508   5.749  10.872  0.7571 -0.5712  0.4027
  189MOL0     O25381   2.425   1.211  11.045  1.1156 -0.3387 -0.4476
  189MOL0     C25382   2.339   1.260  10.969 -0.1041 -0.2213 -0.1131
  189MOL0     O25383   2.364   1.354  10.868 -0.1894 -0.3990 -0.7295
  189MOL0     C25384   2.485   1.426  10.865  0.3977 -0.2583 -0.3100
  189MOL0     C25385   2.546   1.487  10.983 -0.7755  0.0496  0.3711
  189MOL0     C25386   2.672   1.544  10.978 -0.4006  0.3280  1.5542
  189MOL0     C25387   2.733   1.561  10.843  0.1875 -0.0847 -0.6210
  189MOL0     O25388   2.862   1.620  10.825 -0.2205 -0.2509 -0.6118
  189MOL0     C25389   2.954   1.605  10.928 -0.5814  0.1478 -0.2745
  189MOL0     C25390   3.085   1.611  10.850 -0.4363  0.4002 -0.2160
  189MOL0     C25391   3.094   1.470  10.807  0.3717  0.0137 -0.2562
  189MOL0     C25392   3.224   1.451  10.727  0.0012  0.2654  0.0936
  189MOL0     C25393   3.241   1.325  10.634  0.0863  0.6247  0.9351
  189MOL0     C25394   3.354   1.349  10.535 -0.2119 -0.6685  1.1331
  189MOL0     C25395   3.373   1.259  10.419  0.1335  0.8881  0.4835
  189MOL0     C25396   3.370   1.107  10.456  0.3403  0.0803 -0.0606
  189MOL0     N25397   3.467   1.064  10.552 -0.0478 -0.3435 -0.1335
  189MOL0     C25398   3.601   1.044  10.520 -0.5350  0.4221 -0.3137
  189MOL0     C25399   3.667   1.008  10.637 -0.4523 -0.0764 -0.3196
  189MOL0     C25400   3.816   0.973  10.636 -0.3963 -0.4360 -0.3139
  189MOL0     C25401   3.858   0.898  10.762 -0.7322 -0.8157  0.3752
  189MOL0     C25402   3.793   0.760  10.778  0.9985  0.2263 -0.1149
  189MOL0     C25403   3.874   0.657  10.868 -0.2920 -1.3297  0.2006
  189MOL0     O25404   3.996   0.621  10.797  0.4391 -0.1148 -0.2989
  189MOL0     C25405   4.084   0.530  10.840 -0.4845 -0.4341 -0.0977
  189MOL0     C25406   4.211   0.544  10.795  0.0999 -0.0736  0.3007
  189MOL0     C25407   4.307   0.445  10.827  0.1762  0.5023 -1.0414
  189MOL0     C25408   4.276   0.335  10.907  0.1254 -0.0978 -0.0731
  189MOL0     C25409   4.374   0.237  10.945  0.2228  0.4062 -0.2565
  189MOL0     O25410   4.505   0.277  10.932  1.0417  0.8611 -0.1188
  189MOL0     C25411   4.606   0.186  10.959 -0.1530 -0.7627  0.2650
  189MOL0     C25412   4.727   0.249  11.003  0.3697  0.5764 -0.5129
  189MOL0     C25413   4.839   0.166  11.027  0.0592 -0.2817 -0.0249
  189MOL0     C25414   4.822   0.024  11.000 -0.2310 -0.1699  0.4859
  189MOL0     O25415   4.929  -0.061  11.006  0.1275  0.4282 -0.5371
  189MOL0     C25416   5.008  -0.049  10.892  0.2713  0.1970  0.4291
  189MOL0     C25417   5.121  -0.152  10.887  0.1626  1.4159 -0.2309
  189MOL0     C25418   5.236  -0.132  10.992 -0.7202  0.1509  0.5685
  189MOL0     C25419   5.331  -0.250  11.008 -0.4573  0.2018 -0.2531
  189MOL0     C25420   5.429  -0.228  11.125  0.1485 -0.4460 -0.0714
  189MOL0     C25421   5.492  -0.360  11.173 -0.5189 -0.6411 -0.1952
  189MOL0     C25422   5.620  -0.328  11.253 -0.0023 -0.0496 -0.0349
  189MOL0     C25423   5.662  -0.460  11.317 -0.6057  0.1171 -0.1628
  189MOL0    Cl25424   5.705  -0.577  11.180  0.5907  0.1443 -0.5359
  189MOL0     C25425   4.705  -0.043  10.956  0.5925 -0.8006 -0.0747
  189MOL0     C25426   4.603   0.051  10.941  0.0347  0.4936  0.9456
  189MOL0     O25427   4.329   0.119  10.968 -0.4453  0.2141 -0.3993
  189MOL0     C25428   4.149   0.333  10.958  0.0066 -0.1849  0.6230
  189MOL0     C25429   4.057   0.428  10.928  0.3965  0.1600  0.0853
  189MOL0     N25430   3.571   1.024  10.741  0.4230 -0.2565  0.8919
  189MOL0     N25431   3.454   1.062  10.691  0.0242 -0.5842  0.1898
  189MOL0     C25432   2.669   1.515  10.728  0.2416 -0.4040  0.1968
  189MOL0     C25433   2.542   1.453  10.737  0.0570 -0.6455 -0.0348
  189MOL0     C25434   2.193   1.215  10.971  0.0717  1.1100  0.0503
  189MOL0     C25435   2.098   1.297  10.916  0.3483  0.2969 -0.2538
  189MOL0     C25436   1.956   1.280  10.924  0.2068 -0.3851 -0.0105
  189MOL0     C25437   1.914   1.157  10.981 -0.2687 -0.4343  0.0403
  189MOL0     O25438   1.780   1.122  10.989  0.4642 -1.0461 -0.2465
  189MOL0     C25439   1.684   1.202  10.919  0.0973  0.1676  0.3942
  189MOL0     C25440   1.620   1.315  11.004 -0.0162 -0.3828 -0.0089
  189MOL0     C25441   1.539   1.414  10.915  0.7577 -0.3708 -0.1506
  189MOL0     C25442   1.416   1.343  10.860  0.0611  0.5176  0.0024
  189MOL0     C25443   1.303   1.347  10.953  0.3167  0.3714 -0.0256
  189MOL0     C25444   1.207   1.351  11.026  0.0770 -0.0333  0.3671
  189MOL0     C25445   2.017   1.073  11.034  0.0942  0.7865  0.2832
  189MOL0     C25446   2.153   1.098  11.034 -0.9859 -0.1307  0.5801
  189MOL0     C25447   2.246   0.987  11.083 -0.1849 -0.2733  0.2720
  189MOL0     H25448   2.500   1.482  11.081 -1.5362  0.4427  0.0442
  189MOL0     H25449   2.736   1.555  11.064  2.6222 -2.8915  0.0107
  189MOL0     H25450   2.941   1.674  11.011 -0.2943  0.4031 -0.4408
  189MOL0     H25451   2.960   1.507  10.977 -0.9794 -0.5503 -1.5366
  189MOL0     H25452   3.163   1.623  10.925  2.9735 -1.2665 -3.1896
  189MOL0     H25453   3.079   1.688  10.772 -0.2393  0.0222 -0.6094
  189MOL0     H25454   3.007   1.446  10.746 -0.0427 -0.3317  0.4516
  189MOL0     H25455   3.083   1.388  10.879 -1.2935 -0.7533 -1.3369
  189MOL0     H25456   3.226   1.539  10.662  0.2063 -0.7455 -1.3085
  189MOL0     H25457   3.307   1.463  10.798 -0.9188 -0.9900  1.4284
  189MOL0     H25458   3.259   1.237  10.696  3.1917 -0.6449 -1.4782
  189MOL0     H25459   3.148   1.309  10.577  0.1109  1.0769  0.7670
  189MOL0     H25460   3.352   1.451  10.496 -0.7210 -1.4687 -1.0429
  189MOL0     H25461   3.443   1.344  10.599 -1.8784  0.4037  3.6995
  189MOL0     H25462   3.472   1.285  10.381  1.8938 -0.8780  3.5032
  189MOL0     H25463   3.296   1.276  10.343 -2.3042 -0.6729  2.4511
  189MOL0     H25464   3.268   1.079  10.485  0.0950 -0.7939 -1.6351
  189MOL0     H25465   3.397   1.046  10.370  2.3537  0.2557  0.3888
  189MOL0     H25466   3.643   1.046  10.420  1.6359  2.5067  0.5396
  189MOL0     H25467   3.844   0.915  10.548  0.8351  1.0621 -0.9553
  189MOL0     H25468   3.865   1.070  10.625 -0.9589 -0.2306 -1.1521
  189MOL0     H25469   3.968   0.900  10.764 -0.6575 -1.2363 -1.2864
  189MOL0     H25470   3.841   0.957  10.852  3.6408  1.5974 -0.1229
  189MOL0     H25471   3.754   0.717  10.685  1.1822  0.7488 -0.4371
  189MOL0     H25472   3.698   0.783  10.828  0.9837  0.3993 -0.2200
  189MOL0     H25473   3.820   0.565  10.889  2.3153 -3.0893 -0.3226
  189MOL0     H25474   3.909   0.705  10.960  1.2399  1.6720 -1.7561
  189MOL0     H25475   4.231   0.628  10.730 -0.5698 -0.8770 -0.9847
  189MOL0     H25476   4.406   0.454  10.782 -0.3594 -0.1480 -2.3913
  189MOL0     H25477   4.731   0.357  11.008 -1.9856  0.7807 -1.5520
  189MOL0     H25478   4.937   0.212  11.031 -0.0388 -0.1049  0.5835
  189MOL0     H25479   4.949  -0.053  10.801  1.5919  1.2159 -0.5144
  189MOL0     H25480   5.054   0.049  10.911  3.0850 -1.6691  4.9330
  189MOL0     H25481   5.098  -0.259  10.883  1.3121  1.1731 -1.1057
  189MOL0     H25482   5.172  -0.139  10.791  0.4096  0.2256 -0.2852
  189MOL0     H25483   5.292  -0.042  10.967  0.6357 -0.0268  2.7258
  189MOL0     H25484   5.199  -0.101  11.091 -1.0716 -2.6882  1.4210
  189MOL0     H25485   5.386  -0.278  10.917 -0.4116  0.7193 -0.3900
  189MOL0     H25486   5.269  -0.337  11.028  0.7877  0.0639  3.9386
  189MOL0     H25487   5.376  -0.177  11.206 -0.1318  0.4908 -0.8312
  189MOL0     H25488   5.511  -0.165  11.089  1.1386 -1.3002  0.6216
  189MOL0     H25489   5.419  -0.417  11.230  0.3948  0.6515  2.4175
  189MOL0     H25490   5.510  -0.422  11.085 -3.4834 -2.5683  0.4220
  189MOL0     H25491   5.592  -0.269  11.341  2.4493 -0.0742  0.8079
  189MOL0     H25492   5.698  -0.283  11.190  0.3418  0.4122  0.7081
  189MOL0     H25493   5.751  -0.463  11.381 -1.1640  0.5309  0.6611
  189MOL0     H25494   5.584  -0.482  11.390 -2.2907  3.4618 -0.7535
  189MOL0     H25495   4.697  -0.146  10.925 -1.5464 -0.2972 -1.3940
  189MOL0     H25496   4.513   0.018  10.889  0.4536 -1.0791  1.1415
  189MOL0     H25497   4.127   0.251  11.025  0.7716 -0.2148  0.8526
  189MOL0     H25498   3.961   0.402  10.971  0.8318 -1.7478 -0.0119
  189MOL0     H25499   2.717   1.532  10.633 -3.6493  1.8754 -1.6073
  189MOL0     H25500   2.484   1.435  10.647 -0.9458  1.0143  0.2466
  189MOL0     H25501   2.118   1.393  10.871  0.4611  0.5039  0.2313
  189MOL0     H25502   1.887   1.351  10.879  0.1805 -0.5249 -0.1934
  189MOL0     H25503   1.607   1.129  10.890  0.1779 -0.9910  2.8580
  189MOL0     H25504   1.737   1.232  10.828  1.0932  0.7428  1.1535
  189MOL0     H25505   1.695   1.363  11.068 -1.6144 -0.6503  2.1924
  189MOL0     H25506   1.547   1.263  11.067 -1.5334  1.0691 -0.5074
  189MOL0     H25507   1.590   1.444  10.823 -3.4443  1.1905 -2.1990
  189MOL0     H25508   1.510   1.504  10.971  0.1115  0.3489 -1.6022
  189MOL0     H25509   1.380   1.389  10.767  2.1505 -0.5369 -1.4213
  189MOL0     H25510   1.437   1.243  10.820 -1.9657  1.3646 -3.6226
  189MOL0     H25511   1.119   1.334  11.085 -1.1955 -2.3594 -1.9853
  189MOL0     H25512   1.979   0.979  11.072  0.6344  0.3163 -0.3105
  189MOL0     H25513   2.292   1.030  11.172  1.2634  0.4544 -0.7878
  189MOL0     H25514   2.190   0.896  11.105 -2.1140  0.0531 -2.6648
  189MOL0     H25515   2.329   0.971  11.014 -2.5117  1.1532 -3.1821
  190MOL0     O25516  11.180   3.805   4.798 -0.4097  0.4602  0.1334
  190MOL0     C25517  11.129   3.905   4.853  0.2864 -0.2911  0.0171
  190MOL0     O25518  11.156   3.943   4.987 -0.2656 -0.8573 -0.8018
  190MOL0     C25519  11.245   3.870   5.046 -0.7031  0.4813 -0.1775
  190MOL0     C25520  11.380   3.911   5.043 -1.1699  0.3305  0.2652
  190MOL0     C25521  11.481   3.851   5.114  0.0730 -0.0026 -0.0115
  190MOL0     C25522  11.447   3.735   5.186 -0.4859 -0.6416 -0.3392
  190MOL0     O25523  11.542   3.672   5.266  0.2903 -0.0134 -0.4406
  190MOL0     C25524  11.562   3.531   5.236 -0.5892  0.0623  0.1237
  190MOL0     C25525  11.657   3.470   5.344  0.1439  0.3662 -0.1269
  190MOL0     C25526  11.807   3.509   5.340  0.0918  0.4402  0.8981
  190MOL0     C25527  11.882   3.408   5.412  0.3125  0.0409 -0.1610
  190MOL0     C25528  12.037   3.437   5.416  0.6722 -0.4124 -0.7436
  190MOL0     C25529  12.115   3.315   5.480 -0.1649  0.5909 -0.4745
  190MOL0     C25530  12.272   3.320   5.485 -0.9788 -0.0775  0.1812
  190MOL0     C25531  12.333   3.207   5.568 -0.1292  0.3675  0.4308
  190MOL0     N25532  12.282   3.232   5.709 -0.2958  0.0493 -0.2182
  190MOL0     C25533  12.336   3.331   5.788 -0.2229  1.3921 -0.1463
  190MOL0     C25534  12.253   3.320   5.904 -0.3076 -0.1380 -0.2331
  190MOL0     C25535  12.289   3.395   6.026 -0.5214  0.5681 -0.2950
  190MOL0     C25536  12.416   3.362   6.102 -0.4115  0.2851  0.3060
  190MOL0     C25537  12.419   3.447   6.220  0.9079  0.3441  0.1122
  190MOL0     C25538  12.541   3.417   6.293  0.0004  0.2816 -0.9634
  190MOL0     O25539  12.557   3.522   6.390  0.5208 -0.0923  0.9274
  190MOL0     C25540  12.678   3.555   6.429  0.3918 -0.1128 -0.5447
  190MOL0     C25541  12.712   3.529   6.559 -0.3008 -0.1925 -0.0253
  190MOL0     C25542  12.824   3.588   6.612 -0.2969  0.6718 -0.4091
  190MOL0     C25543  12.918   3.670   6.536 -0.3961 -0.4242  0.1498
  190MOL0     C25544  13.046   3.730   6.591 -0.0718  0.2972  0.1602
  190MOL0     O25545  13.097   3.671   6.693 -0.4363 -0.4881 -0.5286
  190MOL0     C25546  13.205   3.733   6.747 -0.2083  0.0301  0.4563
  190MOL0     C25547  13.189   3.859   6.816  0.5271 -0.4956  0.2167
  190MOL0     C25548  13.292   3.924   6.880 -1.3860  1.1731 -0.8050
  190MOL0     C25549  13.420   3.871   6.867  0.7862 -0.5201 -0.4272
  190MOL0     O25550  13.535   3.921   6.926  0.2693 -0.0433 -0.1415
  190MOL0     C25551  13.526   4.066   6.962 -0.3083  0.7850 -0.2261
  190MOL0     C25552  13.658   4.095   7.035 -0.8497  0.8073  0.0103
  190MOL0     C25553  13.689   4.008   7.156 -0.3938  0.2534 -0.0799
  190MOL0     C25554  13.799   3.900   7.136 -0.9472  0.8843 -0.6104
  190MOL0     C25555  13.885   3.880   7.267 -0.3648  0.7022 -0.3333
  190MOL0     C25556  13.984   3.761   7.273  0.8481  0.8282 -0.3985
  190MOL0     C25557  14.108   3.798   7.197  0.0764  1.1171  0.6357
  190MOL0     C25558  14.181   3.670   7.147 -0.2969  0.1789 -0.6024
  190MOL0    Cl25559  14.288   3.613   7.285 -0.0222 -0.1291  0.4635
  190MOL0     C25560  13.445   3.746   6.795  0.2984 -0.3667  0.7086
  190MOL0     C25561  13.337   3.676   6.736  0.6047 -0.1147  0.4039
  190MOL0     O25562  13.086   3.827   6.533 -0.5937 -0.8368 -0.2514
  190MOL0     C25563  12.874   3.696   6.405 -0.3521 -0.4019  0.8147
  190MOL0     C25564  12.750   3.643   6.355 -0.1593  0.6187 -0.1356
  190MOL0     N25565  12.161   3.221   5.884 -0.4808 -0.4386  0.4063
  190MOL0     N25566  12.173   3.171   5.770 -1.5218 -0.4266  0.2327
  190MOL0     C25567  11.315   3.691   5.196  0.1158  0.1756  0.1817
  190MOL0     C25568  11.215   3.756   5.129  0.6466 -0.1900 -0.4473
  190MOL0     C25569  11.031   3.984   4.779  1.2554 -0.4802  0.0879
  190MOL0     C25570  10.971   4.085   4.852  1.0048  0.9508  1.2228
  190MOL0     C25571  10.866   4.160   4.802  1.2344 -0.3566  0.5535
  190MOL0     C25572  10.809   4.133   4.673 -1.0193  0.5064 -1.1477
  190MOL0     O25573  10.703   4.206   4.635 -0.2654  0.1233  0.0737
  190MOL0     C25574  10.669   4.197   4.503 -0.3226  0.6441  0.4323
  190MOL0     C25575  10.543   4.283   4.492  0.2217  0.8659  0.0325
  190MOL0     C25576  10.441   4.235   4.385  0.2147  0.4984 -0.0644
  190MOL0     C25577  10.313   4.312   4.366  0.1763  0.6595  0.3404
  190MOL0     C25578  10.236   4.261   4.255  0.1334  0.2437  0.6593
  190MOL0     C25579  10.183   4.226   4.154 -0.0026  0.0032  0.1560
  190MOL0     C25580  10.866   4.019   4.611  0.0828 -1.3450 -0.8745
  190MOL0     C25581  10.980   3.948   4.651 -0.0176 -0.0352 -0.0055
  190MOL0     C25582  11.023   3.829   4.559  0.4180 -0.0533 -0.3074
  190MOL0     H25583  11.417   3.997   4.988 -1.9133 -0.1134 -0.9558
  190MOL0     H25584  11.585   3.882   5.114 -0.5035  2.4510 -3.3586
  190MOL0     H25585  11.469   3.473   5.235  0.3120 -1.4586  0.4175
  190MOL0     H25586  11.601   3.528   5.134 -1.6660 -0.7155 -0.2899
  190MOL0     H25587  11.646   3.362   5.342 -0.7207  0.2891  3.4206
  190MOL0     H25588  11.625   3.498   5.444  3.0313  0.5874  0.8293
  190MOL0     H25589  11.817   3.604   5.393 -1.8092  1.1954 -0.0016
  190MOL0     H25590  11.832   3.511   5.234  1.8467 -0.3530  1.2586
  190MOL0     H25591  11.845   3.406   5.515  0.9455 -0.7938  0.0606
  190MOL0     H25592  11.874   3.307   5.369  1.0268  0.3467 -1.0369
  190MOL0     H25593  12.076   3.460   5.317  3.9066 -0.6745  0.3432
  190MOL0     H25594  12.047   3.529   5.474 -1.2594 -0.2980 -0.5231
  190MOL0     H25595  12.078   3.315   5.583 -2.3847  2.4257 -1.1999
  190MOL0     H25596  12.080   3.220   5.438 -2.9113 -0.2434  3.1624
  190MOL0     H25597  12.292   3.419   5.528 -0.8926 -0.8662  2.0197
  190MOL0     H25598  12.322   3.324   5.388  0.4160 -0.0084  0.8808
  190MOL0     H25599  12.307   3.109   5.527 -0.8131  0.4078  0.7596
  190MOL0     H25600  12.443   3.211   5.571 -0.0321 -1.8167  1.4466
  190MOL0     H25601  12.423   3.389   5.761  1.0067 -1.9882 -4.8838
  190MOL0     H25602  12.287   3.502   6.003  2.4969  0.4580 -1.4815
  190MOL0     H25603  12.212   3.369   6.099  0.6316 -3.4653 -0.2778
  190MOL0     H25604  12.419   3.255   6.126 -0.2943  0.0810 -0.6059
  190MOL0     H25605  12.504   3.377   6.040 -0.6325 -4.2348 -1.5135
  190MOL0     H25606  12.333   3.441   6.287 -1.1436 -2.2989 -2.4950
  190MOL0     H25607  12.419   3.549   6.181  2.8835 -0.5316 -2.4591
  190MOL0     H25608  12.628   3.417   6.227 -0.5100  2.1750 -1.6970
  190MOL0     H25609  12.545   3.315   6.332  0.7783  1.0826  1.1587
  190MOL0     H25610  12.655   3.462   6.623  1.5630 -1.4643  0.3654
  190MOL0     H25611  12.845   3.564   6.715  0.0783  2.3907 -0.0569
  190MOL0     H25612  13.091   3.905   6.819  1.5800  2.2750 -2.4411
  190MOL0     H25613  13.278   4.013   6.940  1.2113  1.9201 -1.1793
  190MOL0     H25614  13.521   4.133   6.876 -0.8009  0.3594 -0.5329
  190MOL0     H25615  13.443   4.078   7.032  0.3747  1.4963  0.4728
  190MOL0     H25616  13.740   4.094   6.963  1.2675  1.4055  2.2849
  190MOL0     H25617  13.648   4.198   7.073 -3.7824  0.6042  0.0192
  190MOL0     H25618  13.734   4.064   7.238  0.0832 -0.3055  0.0453
  190MOL0     H25619  13.604   3.952   7.195  1.7787 -3.9195 -0.7832
  190MOL0     H25620  13.869   3.925   7.055  1.0438  1.5631  1.2265
  190MOL0     H25621  13.763   3.806   7.095  0.5543 -1.7367  3.4534
  190MOL0     H25622  13.812   3.877   7.348 -0.4240  3.9064 -0.1182
  190MOL0     H25623  13.946   3.969   7.288  0.8618 -0.7783  2.9657
  190MOL0     H25624  13.999   3.735   7.378  1.6153  0.7807 -0.5136
  190MOL0     H25625  13.938   3.669   7.238  1.2135 -1.3191  4.0747
  190MOL0     H25626  14.178   3.862   7.252  1.4573 -0.7621  1.1809
  190MOL0     H25627  14.078   3.849   7.105  0.4697  0.6718  0.2583
  190MOL0     H25628  14.111   3.595   7.108 -1.6120 -0.8929  3.3768
  190MOL0     H25629  14.243   3.696   7.060  0.3661 -1.4773 -0.6621
  190MOL0     H25630  13.543   3.703   6.777  0.4361  1.5085 -4.5018
  190MOL0     H25631  13.345   3.586   6.676  1.0686 -0.5798  1.1497
  190MOL0     H25632  12.941   3.743   6.334  0.9467 -0.1491  2.1641
  190MOL0     H25633  12.695   3.672   6.266  0.8826 -0.1416 -1.0527
  190MOL0     H25634  11.272   3.613   5.258  0.0685 -1.1198 -1.4122
  190MOL0     H25635  11.112   3.724   5.137  1.1275 -2.4960 -2.2577
  190MOL0     H25636  11.011   4.114   4.949  0.7104  1.3015  1.2412
  190MOL0     H25637  10.818   4.249   4.841  2.7820  1.4054 -1.3606
  190MOL0     H25638  10.643   4.094   4.477  0.7257  0.7432 -1.1239
  190MOL0     H25639  10.745   4.229   4.432 -1.1721  1.4212 -0.1540
  190MOL0     H25640  10.580   4.382   4.463 -2.2889  1.8681  0.0422
  190MOL0     H25641  10.487   4.288   4.585  0.1707  0.1579  0.0483
  190MOL0     H25642  10.425   4.136   4.427  0.3684  0.4028 -0.2276
  190MOL0     H25643  10.500   4.244   4.293 -0.5942  1.1687 -0.5239
  190MOL0     H25644  10.255   4.307   4.458 -4.2122  0.1734 -2.2094
  190MOL0     H25645  10.340   4.416   4.344  1.0382  0.0823 -1.5539
  190MOL0     H25646  10.136   4.193   4.063 -0.9659  3.5159 -0.7791
  190MOL0     H25647  10.822   3.990   4.516 -1.8641 -0.8840 -0.1537
  190MOL0     H25648  10.999   3.732   4.603  0.1357 -0.4280 -1.2615
  190MOL0     H25649  10.970   3.833   4.464 -0.1194  1.0569  0.0218
  190MOL0     H25650  11.132   3.824   4.546  0.4171 -0.8257 -0.0712
  191MOL0     O25651  11.079   4.844   1.444 -0.2680 -0.2678 -0.0557
  191MOL0     C25652  11.153   4.915   1.374  0.3192 -0.5613 -0.4229
  191MOL0     O25653  11.291   4.920   1.386  0.2867 -0.6301  0.0099
  191MOL0     C25654  11.356   4.815   1.466  1.1067 -0.1134 -0.1312
  191MOL0     C25655  11.446   4.733   1.400 -0.6103  0.2509  0.0364
  191MOL0     C25656  11.505   4.635   1.476 -0.1509  0.7452 -0.1965
  191MOL0     C25657  11.463   4.593   1.611 -0.1137 -0.2149  0.6672
  191MOL0     O25658  11.510   4.479   1.667  0.4055 -0.3432 -0.4601
  191MOL0     C25659  11.413   4.386   1.705  1.2176 -1.3001 -0.2499
  191MOL0     C25660  11.474   4.250   1.700  0.3548  0.1948 -0.3013
  191MOL0     C25661  11.596   4.228   1.791  0.1054  0.0154 -0.4548
  191MOL0     C25662  11.645   4.082   1.785  0.4493  0.7176 -0.4685
  191MOL0     C25663  11.750   4.063   1.901  0.9883  0.0179  0.4674
  191MOL0     C25664  11.747   3.923   1.949 -0.3311 -0.2238  0.1997
  191MOL0     C25665  11.852   3.879   2.048 -0.7516  0.6038 -0.3552
  191MOL0     C25666  11.977   3.856   1.965 -0.6547  0.7973 -0.6986
  191MOL0     N25667  12.092   3.874   2.053 -0.5231 -0.2818  0.2076
  191MOL0     C25668  12.117   3.799   2.167  0.3676  1.0190 -0.7993
  191MOL0     C25669  12.215   3.866   2.231  0.3908 -0.4774  0.2848
  191MOL0     C25670  12.262   3.842   2.369 -0.4401 -0.5634 -0.1128
  191MOL0     C25671  12.361   3.725   2.386 -0.1135 -0.3558 -1.1041
  191MOL0     C25672  12.345   3.668   2.524  0.1106  0.8347 -0.0423
  191MOL0     C25673  12.478   3.601   2.561  0.4969  0.4335 -0.4091
  191MOL0     O25674  12.466   3.577   2.703  0.6286  0.1228 -0.3604
  191MOL0     C25675  12.577   3.524   2.764  0.8765 -0.0180 -0.5075
  191MOL0     C25676  12.586   3.530   2.905  0.1585 -0.1755  0.7003
  191MOL0     C25677  12.689   3.476   2.972 -0.7204  0.0669 -0.4006
  191MOL0     C25678  12.785   3.394   2.906 -0.1296 -0.1871  0.8146
  191MOL0     C25679  12.886   3.305   2.976  1.0337 -0.6870 -1.2847
  191MOL0     O25680  12.969   3.226   2.899  0.3516 -0.5174 -0.1970
  191MOL0     C25681  13.060   3.144   2.960  0.2885 -0.8768 -0.1998
  191MOL0     C25682  13.014   3.023   3.011 -0.8551 -0.2718 -0.6627
  191MOL0     C25683  13.092   2.927   3.074 -0.7882  0.0487 -0.5684
  191MOL0     C25684  13.225   2.960   3.112 -0.3347 -0.8449  0.7373
  191MOL0     O25685  13.298   2.892   3.200 -0.4075  0.5061  0.0281
  191MOL0     C25686  13.237   2.878   3.331  0.1676 -0.3223  0.0122
  191MOL0     C25687  13.344   2.815   3.413 -0.2480  0.5055 -0.3452
  191MOL0     C25688  13.375   2.666   3.370 -0.5252  0.1050 -0.3621
  191MOL0     C25689  13.244   2.583   3.377  0.0150  0.0664  0.5329
  191MOL0     C25690  13.277   2.434   3.390  0.3894 -0.0127  0.5580
  191MOL0     C25691  13.151   2.348   3.408 -0.7943 -0.2576  0.5979
  191MOL0     C25692  13.191   2.204   3.454 -0.3444  0.7641  0.3643
  191MOL0     C25693  13.139   2.093   3.352 -0.6767 -0.5578  0.3789
  191MOL0    Cl25694  13.134   1.927   3.433  0.3772 -0.4345 -0.1557
  191MOL0     C25695  13.278   3.076   3.051  0.1992 -1.6133 -0.2193
  191MOL0     C25696  13.198   3.167   2.986 -0.1722 -0.7283  0.4426
  191MOL0     O25697  12.876   3.304   3.095 -0.0177  0.8953 -1.0353
  191MOL0     C25698  12.778   3.392   2.770 -0.2337  0.8041  0.7863
  191MOL0     C25699  12.681   3.459   2.696  0.2217 -0.0597  0.9147
  191MOL0     N25700  12.260   3.964   2.147 -0.6956 -0.0463 -0.1064
  191MOL0     N25701  12.182   3.974   2.041 -0.1291  0.1832  0.2753
  191MOL0     C25702  11.362   4.676   1.674 -0.5922 -0.5672  0.6150
  191MOL0     C25703  11.311   4.784   1.597 -0.3540 -0.0639  0.4805
  191MOL0     C25704  11.098   5.029   1.308 -1.1274 -0.0765  0.5317
  191MOL0     C25705  11.096   5.037   1.171  0.6086 -0.0293  0.7460
  191MOL0     C25706  11.049   5.154   1.100  1.1612 -0.3850  0.2904
  191MOL0     C25707  10.986   5.255   1.180 -0.4162  0.0796 -0.0464
  191MOL0     O25708  10.921   5.371   1.139  0.4394  0.3787  0.7830
  191MOL0     C25709  10.843   5.358   1.021 -0.0205 -0.1543 -0.1416
  191MOL0     C25710  10.707   5.324   1.072 -0.1398 -0.0016 -0.4925
  191MOL0     C25711  10.619   5.263   0.965 -0.2651 -0.0232  0.2471
  191MOL0     C25712  10.566   5.360   0.856  0.2877 -0.6635 -0.0819
  191MOL0     C25713  10.669   5.385   0.742 -0.3142  0.3022 -0.2100
  191MOL0     C25714  10.756   5.408   0.656  0.4429  0.2847  0.6735
  191MOL0     C25715  10.994   5.248   1.317 -0.4448  0.7682 -0.1316
  191MOL0     C25716  11.047   5.134   1.383  0.4945 -0.2355  0.3301
  191MOL0     C25717  11.058   5.135   1.528  0.1504  0.2106 -0.0037
  191MOL0     H25718  11.473   4.734   1.295  1.5528 -2.4611  0.4242
  191MOL0     H25719  11.584   4.577   1.428  0.9638  2.4354 -0.4752
  191MOL0     H25720  11.375   4.406   1.805  1.1900 -4.5488  0.4946
  191MOL0     H25721  11.325   4.380   1.640  0.2549  0.0157  0.8676
  191MOL0     H25722  11.514   4.218   1.604 -0.2991 -3.5690  0.5095
  191MOL0     H25723  11.401   4.170   1.717 -1.1514  1.7404  0.9172
  191MOL0     H25724  11.580   4.256   1.896  0.6651 -0.5985 -0.1977
  191MOL0     H25725  11.679   4.291   1.757  0.9201 -0.2651  0.9050
  191MOL0     H25726  11.564   4.014   1.810  1.1993  0.0701  0.2254
  191MOL0     H25727  11.684   4.053   1.687 -0.8165 -2.3834 -0.1497
  191MOL0     H25728  11.847   4.096   1.862 -0.4177  2.1545 -1.4871
  191MOL0     H25729  11.714   4.118   1.989  0.7063  1.0013 -0.2436
  191MOL0     H25730  11.649   3.914   1.997 -0.2190  0.9571  0.6799
  191MOL0     H25731  11.748   3.853   1.865 -0.6880 -1.6682  1.3535
  191MOL0     H25732  11.818   3.782   2.086 -2.5777  1.1799 -0.4340
  191MOL0     H25733  11.859   3.950   2.130 -2.0197 -0.4838  0.7339
  191MOL0     H25734  11.970   3.760   1.914 -2.9909  1.4151 -1.6791
  191MOL0     H25735  11.986   3.938   1.893  2.5685  0.4553 -0.7926
  191MOL0     H25736  12.061   3.713   2.204  3.0651 -0.5780 -0.1782
  191MOL0     H25737  12.315   3.928   2.412 -1.1123 -1.1681  2.1090
  191MOL0     H25738  12.169   3.815   2.421  1.1618 -1.4287  2.5007
  191MOL0     H25739  12.344   3.640   2.319 -1.5254 -1.8045  0.9799
  191MOL0     H25740  12.457   3.776   2.371 -1.1609  2.1813  0.2381
  191MOL0     H25741  12.266   3.592   2.518 -1.0201  2.0097 -0.2608
  191MOL0     H25742  12.321   3.747   2.596  2.9184  1.5400  0.2372
  191MOL0     H25743  12.557   3.671   2.532 -1.3831  1.4323 -3.7005
  191MOL0     H25744  12.488   3.510   2.500  1.0112  0.8348 -0.9375
  191MOL0     H25745  12.510   3.573   2.968  0.3637  1.2097  0.0434
  191MOL0     H25746  12.689   3.481   3.081 -1.6659 -1.7229 -0.2670
  191MOL0     H25747  12.909   3.005   2.992 -0.6379 -1.4599 -0.8269
  191MOL0     H25748  13.042   2.839   3.113 -1.7824  0.4279 -0.9682
  191MOL0     H25749  13.230   2.982   3.364  2.9929  0.1734 -0.7209
  191MOL0     H25750  13.141   2.827   3.328 -0.9525  1.3498  2.8647
  191MOL0     H25751  13.437   2.873   3.409  1.3827 -1.5744  2.8426
  191MOL0     H25752  13.308   2.808   3.517 -0.9552  1.6724 -0.4876
  191MOL0     H25753  13.424   2.663   3.272  0.2118  0.7455 -0.0235
  191MOL0     H25754  13.448   2.627   3.443 -1.1019 -1.0299 -0.3616
  191MOL0     H25755  13.183   2.611   3.291 -2.3030  2.8182  2.8693
  191MOL0     H25756  13.199   2.619   3.470  1.1593  0.0806  1.0950
  191MOL0     H25757  13.352   2.411   3.466 -0.6693 -0.1934  1.5776
  191MOL0     H25758  13.318   2.407   3.293  1.7489 -0.7052  1.3068
  191MOL0     H25759  13.083   2.402   3.475 -0.0977  2.4730 -0.7830
  191MOL0     H25760  13.093   2.345   3.315  0.1363 -4.7461 -0.0641
  191MOL0     H25761  13.140   2.200   3.551 -1.2144  1.5908 -0.0405
  191MOL0     H25762  13.298   2.187   3.472 -0.4668 -0.8316 -0.3094
  191MOL0     H25763  13.043   2.133   3.317 -0.7726  0.6318  1.8602
  191MOL0     H25764  13.213   2.094   3.271  0.5976 -0.6707  1.5044
  191MOL0     H25765  13.383   3.103   3.062 -0.1293  0.2242 -1.3132
  191MOL0     H25766  13.245   3.254   2.940 -2.9180 -0.2928 -1.8355
  191MOL0     H25767  12.855   3.335   2.720  1.5351  1.5686  2.4854
  191MOL0     H25768  12.695   3.459   2.589  5.8521  2.7154  1.3038
  191MOL0     H25769  11.326   4.655   1.775 -1.1434 -0.4607  0.4400
  191MOL0     H25770  11.235   4.846   1.644 -0.4789 -0.1644  0.4156
  191MOL0     H25771  11.137   4.954   1.113  0.0736  0.4873 -0.3847
  191MOL0     H25772  11.039   5.153   0.992 -1.3151  1.2188  0.4328
  191MOL0     H25773  10.894   5.289   0.952  1.8098  2.7400 -1.8872
  191MOL0     H25774  10.844   5.448   0.959 -2.4854  0.1999  0.2294
  191MOL0     H25775  10.663   5.411   1.121  1.3138  0.3808  0.1619
  191MOL0     H25776  10.732   5.239   1.136  3.2295  0.8367 -0.5139
  191MOL0     H25777  10.539   5.206   1.013  2.2414 -1.7180  2.7512
  191MOL0     H25778  10.686   5.189   0.921 -2.0145 -1.3795 -0.2168
  191MOL0     H25779  10.474   5.325   0.808  0.1199  1.6886 -1.6575
  191MOL0     H25780  10.540   5.461   0.889 -1.5071 -1.2555  0.4222
  191MOL0     H25781  10.816   5.445   0.575 -1.4586  3.8967  0.7204
  191MOL0     H25782  10.948   5.333   1.367  0.9982  1.2226  0.4677
  191MOL0     H25783  11.143   5.085   1.573 -0.4759 -1.0934 -0.2340
  191MOL0     H25784  11.070   5.240   1.556  1.2041 -0.4440  2.1625
  191MOL0     H25785  10.965   5.093   1.567 -0.3193 -0.1745 -1.4769
  192MOL0     O25786   6.029   1.351  10.229 -0.7044  0.0578 -0.2092
  192MOL0     C25787   5.958   1.440  10.278 -0.2223 -0.2580  0.3108
  192MOL0     O25788   5.994   1.512  10.380 -0.5478 -0.2333  0.1250
  192MOL0     C25789   6.118   1.502  10.446 -0.5364 -0.3252  0.3471
  192MOL0     C25790   6.156   1.388  10.516 -0.9751  0.5204 -0.0186
  192MOL0     C25791   6.288   1.363  10.569  0.3704  0.7412  0.0588
  192MOL0     C25792   6.374   1.466  10.551 -0.4991 -0.3043 -0.5003
  192MOL0     O25793   6.507   1.441  10.592  0.3816  0.2750 -0.2780
  192MOL0     C25794   6.614   1.548  10.584  0.3431  0.7376 -0.3272
  192MOL0     C25795   6.603   1.629  10.716  0.3917 -0.2051  0.7754
  192MOL0     C25796   6.716   1.721  10.745  0.0747 -0.2746 -0.5823
  192MOL0     C25797   6.835   1.632  10.790  0.0420  0.8474  0.1071
  192MOL0     C25798   6.943   1.718  10.854 -0.6490 -0.4181  0.2592
  192MOL0     C25799   7.074   1.656  10.856 -0.4380  0.5415  0.1779
  192MOL0     C25800   7.196   1.737  10.912 -0.5830  1.1405  0.2478
  192MOL0     C25801   7.188   1.747  11.067 -0.1121 -0.2800 -0.1685
  192MOL0     N25802   7.328   1.795  11.100 -0.3310 -0.2928  0.9866
  192MOL0     C25803   7.450   1.731  11.109  0.0882  0.3800  0.7507
  192MOL0     C25804   7.546   1.832  11.149  0.0997  0.3821 -0.3525
  192MOL0     C25805   7.693   1.816  11.195 -0.8088  0.2633  1.0905
  192MOL0     C25806   7.691   1.797  11.349  0.6728  0.5822  0.4357
  192MOL0     C25807   7.692   1.928  11.426  0.6561 -0.7435  0.5785
  192MOL0     C25808   7.710   1.885  11.575 -1.2530  0.6803  0.1793
  192MOL0     O25809   7.830   1.816  11.603  0.3868  0.5165  0.2841
  192MOL0     C25810   7.948   1.888  11.625  1.4722 -0.7328  0.2537
  192MOL0     C25811   7.967   2.029  11.609 -0.0225  0.9556  0.0977
  192MOL0     C25812   8.085   2.104  11.637 -0.7825 -0.6460  0.1166
  192MOL0     C25813   8.200   2.028  11.668 -1.1516 -0.2459 -0.4154
  192MOL0     C25814   8.338   2.093  11.656  0.9403 -0.6094 -0.2382
  192MOL0     O25815   8.448   2.008  11.676  0.9641 -0.0839 -0.1093
  192MOL0     C25816   8.561   2.075  11.699 -0.1333  0.1383 -0.2860
  192MOL0     C25817   8.648   2.117  11.600 -0.5035 -0.2573  0.3715
  192MOL0     C25818   8.759   2.198  11.630  0.5771  0.5681  0.3167
  192MOL0     C25819   8.784   2.223  11.766 -0.4008  0.5227  0.0886
  192MOL0     O25820   8.912   2.281  11.779  0.0586  0.3903 -0.1992
  192MOL0     C25821   8.918   2.395  11.860  0.3598 -0.1917 -0.9469
  192MOL0     C25822   9.066   2.431  11.892 -0.2600 -0.0502 -0.2692
  192MOL0     C25823   9.083   2.526  12.012 -0.1462  0.1564  0.8529
  192MOL0     C25824   9.065   2.457  12.155  0.9525  0.1046  0.3797
  192MOL0     C25825   9.162   2.336  12.186 -0.9733 -0.1323  0.0073
  192MOL0     C25826   9.290   2.414  12.238  0.8812  0.5416  0.2452
  192MOL0     C25827   9.381   2.302  12.298 -0.5951 -0.5554  0.2460
  192MOL0     C25828   9.486   2.374  12.388 -0.7504 -0.1564 -0.3731
  192MOL0    Cl25829   9.529   2.265  12.511 -0.0100 -0.2039  0.1912
  192MOL0     C25830   8.697   2.181  11.868 -0.3883  0.7310  0.3892
  192MOL0     C25831   8.581   2.108  11.831 -0.4764  0.1653 -0.2357
  192MOL0     O25832   8.349   2.219  11.651 -0.0094 -0.2016 -0.2337
  192MOL0     C25833   8.185   1.886  11.685 -0.4343  0.2209  0.9486
  192MOL0     C25834   8.065   1.824  11.660  0.2537 -0.3111  0.6599
  192MOL0     N25835   7.481   1.948  11.159 -0.1520 -0.6590  0.3787
  192MOL0     N25836   7.355   1.929  11.128  0.4518  0.0585  0.3205
  192MOL0     C25837   6.332   1.589  10.494 -0.0762  0.2100 -0.0950
  192MOL0     C25838   6.211   1.607  10.434  0.8905  0.1233  0.1291
  192MOL0     C25839   5.827   1.468  10.232 -0.6479  0.1454  0.1112
  192MOL0     C25840   5.772   1.358  10.164 -0.6569 -0.6877  0.0594
  192MOL0     C25841   5.641   1.361  10.123 -0.6469 -0.1101  0.0882
  192MOL0     C25842   5.575   1.487  10.106  0.3110  0.5924  1.2831
  192MOL0     O25843   5.461   1.500  10.029 -0.0363  0.0940  0.3570
  192MOL0     C25844   5.425   1.396   9.937  0.0152 -0.6274  0.2033
  192MOL0     C25845   5.340   1.460   9.831 -0.2264  0.4251 -0.7075
  192MOL0     C25846   5.201   1.496   9.879  0.3896 -0.2581 -0.0119
  192MOL0     C25847   5.110   1.534   9.768 -0.3633  0.4157  0.3145
  192MOL0     C25848   5.093   1.425   9.677  0.1435  0.7824 -0.4054
  192MOL0     C25849   5.092   1.322   9.619 -0.3031  0.2243  0.4315
  192MOL0     C25850   5.627   1.598  10.173  0.3139 -0.1057  1.3240
  192MOL0     C25851   5.753   1.590  10.237 -0.1237 -0.5465 -0.0767
  192MOL0     C25852   5.809   1.716  10.305  0.3907  0.2182 -0.2008
  192MOL0     H25853   6.081   1.311  10.529 -1.7699  1.6726  3.1532
  192MOL0     H25854   6.301   1.266  10.617  1.8795  0.4282 -0.9177
  192MOL0     H25855   6.715   1.507  10.582 -0.7063 -2.0645 -0.6264
  192MOL0     H25856   6.598   1.597  10.488 -2.2099 -2.1314 -1.5598
  192MOL0     H25857   6.583   1.559  10.797  2.4709 -3.6870 -1.4513
  192MOL0     H25858   6.510   1.685  10.712  0.3126  0.0076  3.6114
  192MOL0     H25859   6.683   1.793  10.820 -0.1486 -2.6900  1.7668
  192MOL0     H25860   6.747   1.773  10.654 -3.0956  1.1471 -0.9578
  192MOL0     H25861   6.811   1.558  10.867  2.6415  1.1218  1.2769
  192MOL0     H25862   6.873   1.582  10.701  0.5326  1.5209 -0.0658
  192MOL0     H25863   6.960   1.805  10.790  0.1188 -1.8553 -1.6010
  192MOL0     H25864   6.910   1.741  10.955 -1.4235  0.9537 -0.2764
  192MOL0     H25865   7.077   1.557  10.903 -2.8462  0.5245  0.4080
  192MOL0     H25866   7.105   1.655  10.751 -1.7278  2.4773 -0.2681
  192MOL0     H25867   7.202   1.837  10.870  0.3807  1.7173  1.6727
  192MOL0     H25868   7.282   1.672  10.893 -2.8704 -1.7255 -1.0318
  192MOL0     H25869   7.113   1.818  11.102 -1.0633 -0.5930 -1.4890
  192MOL0     H25870   7.182   1.642  11.098 -0.9870 -1.7515 -4.6584
  192MOL0     H25871   7.468   1.624  11.115  1.4164  0.5746  0.5608
  192MOL0     H25872   7.740   1.724  11.158  0.7052  0.3660  2.6131
  192MOL0     H25873   7.754   1.902  11.164 -0.0193 -1.0444 -1.1380
  192MOL0     H25874   7.606   1.732  11.373  0.2782  0.7751 -0.4137
  192MOL0     H25875   7.779   1.737  11.375  2.0111  2.3774  0.2569
  192MOL0     H25876   7.599   1.985  11.417  0.0541 -1.9712 -1.5864
  192MOL0     H25877   7.769   1.996  11.389 -2.2214  2.3323 -0.2033
  192MOL0     H25878   7.627   1.818  11.600 -1.1228 -0.2916 -1.8027
  192MOL0     H25879   7.707   1.981  11.628  0.8222  0.4931  0.7161
  192MOL0     H25880   7.881   2.086  11.574 -0.0569 -0.0077 -1.4839
  192MOL0     H25881   8.092   2.213  11.635  1.2647 -0.7167  0.9368
  192MOL0     H25882   8.629   2.091  11.496  3.6111  0.5923 -0.7991
  192MOL0     H25883   8.823   2.215  11.544  2.6196 -1.9351  1.1885
  192MOL0     H25884   8.887   2.475  11.792  1.6815  0.0527 -1.2904
  192MOL0     H25885   8.862   2.387  11.954  2.0965  2.0934  0.4006
  192MOL0     H25886   9.128   2.341  11.904  0.2077  0.0617 -1.6486
  192MOL0     H25887   9.113   2.473  11.803  2.6222 -3.7707 -0.7842
  192MOL0     H25888   9.184   2.568  12.005  0.3824 -1.2772 -1.2968
  192MOL0     H25889   9.024   2.616  11.996  2.0154  1.5342  0.1290
  192MOL0     H25890   8.962   2.423  12.166  1.1588 -0.2510  1.3377
  192MOL0     H25891   9.079   2.539  12.225  0.1236  1.8592 -1.4314
  192MOL0     H25892   9.184   2.275  12.098 -0.6762  0.4900 -0.3530
  192MOL0     H25893   9.130   2.283  12.276  2.0761 -0.1645  1.1866
  192MOL0     H25894   9.340   2.471  12.159  3.2432 -1.3275  0.2615
  192MOL0     H25895   9.259   2.481  12.319  0.6130  0.9996 -0.2271
  192MOL0     H25896   9.436   2.249  12.220 -1.3922 -2.7067  1.0604
  192MOL0     H25897   9.324   2.228  12.356 -0.1168 -1.5974 -0.5723
  192MOL0     H25898   9.578   2.402  12.335  1.2978 -2.9268  1.4742
  192MOL0     H25899   9.447   2.466  12.432  2.2583  1.6704 -1.2281
  192MOL0     H25900   8.725   2.208  11.969 -0.0903  1.1066  0.2107
  192MOL0     H25901   8.504   2.081  11.903 -0.5467 -3.3116 -1.4187
  192MOL0     H25902   8.269   1.819  11.702  0.5556  0.8858 -0.9891
  192MOL0     H25903   8.058   1.718  11.683 -1.2040 -0.2058  0.7766
  192MOL0     H25904   6.398   1.672  10.470  0.0331  1.2614  3.3207
  192MOL0     H25905   6.198   1.691  10.367  1.3937 -0.2436 -0.4355
  192MOL0     H25906   5.821   1.264  10.138  0.3795 -0.1444  0.0088
  192MOL0     H25907   5.614   1.271  10.069  2.7417 -1.4377  0.3958
  192MOL0     H25908   5.377   1.311   9.985 -1.2056 -0.4007 -0.5856
  192MOL0     H25909   5.519   1.356   9.896  2.8079  3.6438  1.6949
  192MOL0     H25910   5.336   1.387   9.750  1.2881  0.6248 -1.0061
  192MOL0     H25911   5.380   1.551   9.783 -1.8731  0.4288 -2.1987
  192MOL0     H25912   5.221   1.583   9.942  1.0670  1.1126 -2.0146
  192MOL0     H25913   5.153   1.417   9.939  0.2878 -0.4360 -0.3277
  192MOL0     H25914   5.012   1.567   9.804 -0.7563  0.2384 -0.5580
  192MOL0     H25915   5.166   1.612   9.717  1.1017  0.4190  1.8427
  192MOL0     H25916   5.096   1.221   9.586 -0.7754  0.9839 -2.1159
  192MOL0     H25917   5.565   1.685  10.157 -1.2377 -1.4561 -0.5599
  192MOL0     H25918   5.801   1.702  10.413 -3.1716  3.2561  0.1320
  192MOL0     H25919   5.914   1.731  10.277  0.8391  2.3478  2.1682
  192MOL0     H25920   5.755   1.805  10.272  1.7911  0.7416 -1.1641
  193MOL0     O25921   4.061   5.730   8.520  0.4852 -0.0882  0.9410
  193MOL0     C25922   3.973   5.644   8.509  0.0232  0.2653  0.2115
  193MOL0     O25923   3.988   5.515   8.527  0.7135  0.2514  0.1924
  193MOL0     C25924   4.113   5.458   8.516  0.2805 -0.1981 -0.0426
  193MOL0     C25925   4.158   5.379   8.407 -1.0410 -0.1475 -0.3663
  193MOL0     C25926   4.293   5.335   8.400 -0.0766  0.3703 -0.0844
  193MOL0     C25927   4.377   5.365   8.504  0.8617 -0.2110 -0.2961
  193MOL0     O25928   4.508   5.321   8.497 -0.2212  0.1375  0.4122
  193MOL0     C25929   4.610   5.413   8.538 -0.3535 -0.3783 -0.0357
  193MOL0     C25930   4.669   5.375   8.674 -0.5974  0.1128 -0.6614
  193MOL0     C25931   4.775   5.464   8.727 -0.2068  0.2904 -0.1152
  193MOL0     C25932   4.904   5.472   8.643  0.3894  0.4801 -0.1500
  193MOL0     C25933   4.998   5.574   8.718  0.8711  0.0017 -0.4592
  193MOL0     C25934   5.145   5.576   8.668 -0.6405  0.0609  0.3463
  193MOL0     C25935   5.153   5.577   8.508  0.1601 -0.5029  0.1741
  193MOL0     C25936   5.087   5.709   8.444 -0.1372  0.5352  0.4505
  193MOL0     N25937   5.105   5.707   8.298  0.5544  0.1645 -0.1523
  193MOL0     C25938   5.222   5.687   8.225  0.7784  0.1015 -0.3914
  193MOL0     C25939   5.187   5.653   8.098 -0.7988 -0.2792  0.2878
  193MOL0     C25940   5.284   5.623   7.987 -0.4164  0.6816  0.5132
  193MOL0     C25941   5.292   5.727   7.881  0.3964 -0.0037 -0.1171
  193MOL0     C25942   5.395   5.836   7.924 -0.0715 -0.5110 -0.0178
  193MOL0     C25943   5.365   5.959   7.843  0.5461  0.1882 -0.2875
  193MOL0     O25944   5.465   6.052   7.861 -0.7148 -0.1386 -0.1496
  193MOL0     C25945   5.583   6.053   7.789  0.8168  0.1101  0.1238
  193MOL0     C25946   5.676   5.943   7.794  0.7223 -0.2513  0.3926
  193MOL0     C25947   5.801   5.946   7.727 -0.3696  0.2658  0.3323
  193MOL0     C25948   5.845   6.066   7.671  1.1030 -0.4899 -0.0686
  193MOL0     C25949   5.976   6.087   7.623  0.2882  0.1802 -0.6632
  193MOL0     O25950   6.015   6.011   7.516 -0.3185 -0.2918 -0.3562
  193MOL0     C25951   6.151   6.011   7.493  0.8698 -0.3750  0.4755
  193MOL0     C25952   6.214   6.098   7.396 -0.2473  0.0806  0.0542
  193MOL0     C25953   6.360   6.100   7.387  0.0300  0.7364 -0.1093
  193MOL0     C25954   6.431   6.012   7.470 -0.3748 -0.2187  0.7492
  193MOL0     O25955   6.565   5.994   7.440  0.2306 -0.3974 -0.0357
  193MOL0     C25956   6.642   5.931   7.544 -0.0751  0.4335  0.9299
  193MOL0     C25957   6.791   5.913   7.515 -0.3720 -0.1502  0.0320
  193MOL0     C25958   6.853   6.038   7.483  0.1721 -0.2947 -0.7105
  193MOL0     C25959   6.991   6.024   7.423 -0.4584  0.9284 -0.2004
  193MOL0     C25960   7.096   5.969   7.517  0.8284 -0.1531  0.8164
  193MOL0     C25961   7.241   5.983   7.466 -0.5175 -0.0255  0.5610
  193MOL0     C25962   7.317   5.906   7.575 -1.0004  0.7674 -0.3654
  193MOL0     C25963   7.446   5.844   7.516 -0.4005  0.3296  0.6903
  193MOL0    Cl25964   7.565   5.823   7.652 -0.2773  0.3243  0.2463
  193MOL0     C25965   6.370   5.919   7.557 -0.0554  0.1639  0.6720
  193MOL0     C25966   6.232   5.926   7.572  0.0048  1.2575 -0.4070
  193MOL0     O25967   6.049   6.157   7.696 -0.9501  0.5395  0.1785
  193MOL0     C25968   5.754   6.173   7.677  0.3253 -0.3971  0.3409
  193MOL0     C25969   5.627   6.173   7.730  0.4534  0.7797  0.0777
  193MOL0     N25970   5.047   5.657   8.100  0.3834  0.2567  0.0546
  193MOL0     N25971   5.000   5.697   8.214 -0.8374  0.4564  0.3452
  193MOL0     C25972   4.327   5.425   8.619  0.3220 -0.2325  0.1541
  193MOL0     C25973   4.196   5.474   8.624 -0.4438  0.8189  0.2240
  193MOL0     C25974   3.835   5.678   8.468 -0.1973  0.0039 -0.3134
  193MOL0     C25975   3.809   5.740   8.340 -0.5622  1.0596  1.0179
  193MOL0     C25976   3.686   5.761   8.296  0.9368 -0.8887  0.3455
  193MOL0     C25977   3.579   5.766   8.377  0.0595 -0.4052 -0.6501
  193MOL0     O25978   3.457   5.817   8.361 -0.3993 -0.2557  0.7630
  193MOL0     C25979   3.416   5.867   8.225 -0.3467 -0.7574 -0.8692
  193MOL0     C25980   3.269   5.891   8.203 -0.6974  0.4101 -0.0259
  193MOL0     C25981   3.174   5.772   8.213 -0.0294 -0.3658 -0.1355
  193MOL0     C25982   3.036   5.787   8.138 -0.4644 -0.0966  0.2833
  193MOL0     C25983   2.973   5.657   8.117 -0.4802  0.4716 -0.6667
  193MOL0     C25984   2.958   5.541   8.085 -0.9576  0.3909  0.7321
  193MOL0     C25985   3.599   5.703   8.502 -0.0984  0.8577 -0.9545
  193MOL0     C25986   3.726   5.647   8.544  0.4735  0.3658  0.7013
  193MOL0     C25987   3.737   5.587   8.686  0.2272 -0.1942 -0.1463
  193MOL0     H25988   4.094   5.350   8.324 -2.9321 -0.8848  1.2718
  193MOL0     H25989   4.330   5.266   8.325 -0.3671 -0.6170  0.6685
  193MOL0     H25990   4.695   5.419   8.470 -1.2829  2.8481 -1.1099
  193MOL0     H25991   4.573   5.516   8.543 -0.6838 -0.5137  0.4515
  193MOL0     H25992   4.708   5.273   8.669 -0.7606 -0.0645  1.0055
  193MOL0     H25993   4.587   5.374   8.747  0.4757 -2.1795  0.6489
  193MOL0     H25994   4.797   5.425   8.827 -0.8841 -1.3271 -0.5617
  193MOL0     H25995   4.724   5.557   8.751 -1.4928 -1.4424  5.2631
  193MOL0     H25996   4.952   5.375   8.633 -0.3330  0.1803 -0.8021
  193MOL0     H25997   4.883   5.512   8.543  2.7774  3.1504  0.2652
  193MOL0     H25998   4.963   5.677   8.710  1.0280  0.3577  2.3070
  193MOL0     H25999   5.003   5.555   8.826  0.7537 -0.4601 -0.5340
  193MOL0     H26000   5.184   5.672   8.702  1.1994 -0.1877 -0.8891
  193MOL0     H26001   5.200   5.494   8.715  0.5306 -0.1558 -1.3243
  193MOL0     H26002   5.093   5.493   8.473 -0.5380 -1.5275  3.4828
  193MOL0     H26003   5.259   5.569   8.483  0.6966  1.1589  1.6926
  193MOL0     H26004   4.981   5.714   8.472 -0.2903  0.5187 -0.1231
  193MOL0     H26005   5.121   5.806   8.482 -0.6820  1.3249 -0.9827
  193MOL0     H26006   5.321   5.684   8.270  0.4701  0.7980  0.3513
  193MOL0     H26007   5.386   5.600   8.019 -0.0477  0.2119 -0.9324
  193MOL0     H26008   5.246   5.530   7.944  0.4510 -0.5103  2.2092
  193MOL0     H26009   5.315   5.672   7.789  0.7691 -1.6455  0.9110
  193MOL0     H26010   5.195   5.776   7.865 -0.2741 -0.5771  1.8993
  193MOL0     H26011   5.494   5.793   7.909 -0.8137 -2.5624  0.6301
  193MOL0     H26012   5.377   5.864   8.028 -4.4283  0.3798 -0.7904
  193MOL0     H26013   5.270   6.002   7.877  0.7064  0.5203 -0.2617
  193MOL0     H26014   5.346   5.928   7.739 -1.8928 -0.6357  0.3264
  193MOL0     H26015   5.655   5.847   7.839 -1.5585  1.2664  2.8786
  193MOL0     H26016   5.862   5.856   7.729  0.3888  0.7799  0.5129
  193MOL0     H26017   6.156   6.159   7.328 -0.8991 -0.7471 -0.1592
  193MOL0     H26018   6.407   6.164   7.312 -2.5956  1.5811 -1.1358
  193MOL0     H26019   6.622   5.984   7.637 -1.3868  0.6417  0.5598
  193MOL0     H26020   6.609   5.827   7.553  0.6592 -0.0223 -1.1138
  193MOL0     H26021   6.848   5.869   7.598 -0.7034  0.2256  0.4636
  193MOL0     H26022   6.806   5.848   7.429  1.6685 -0.5825  0.6527
  193MOL0     H26023   6.789   6.086   7.408  1.0766  0.2225 -1.1712
  193MOL0     H26024   6.858   6.105   7.569  1.4732  0.3001 -1.2133
  193MOL0     H26025   7.027   6.122   7.390  2.0630  1.4937  3.4847
  193MOL0     H26026   6.984   5.956   7.338 -1.8806  1.1492 -0.2696
  193MOL0     H26027   7.068   5.864   7.531 -2.6096  0.6737  1.2521
  193MOL0     H26028   7.078   6.019   7.612 -0.2128 -2.5280  1.9549
  193MOL0     H26029   7.259   5.942   7.366 -3.0158  1.7401 -0.7108
  193MOL0     H26030   7.265   6.089   7.478  2.6191 -0.6357  0.3853
  193MOL0     H26031   7.262   5.825   7.625 -0.9087  0.5084 -0.6791
  193MOL0     H26032   7.330   5.974   7.659 -2.9038 -1.2833  1.7547
  193MOL0     H26033   7.425   5.748   7.467  0.6153  0.3272  0.2283
  193MOL0     H26034   7.482   5.911   7.438  0.4273 -1.2367 -0.3353
  193MOL0     H26035   6.418   5.849   7.625  1.1918  0.4437  0.1075
  193MOL0     H26036   6.180   5.851   7.631  1.6370 -1.8186 -2.5976
  193MOL0     H26037   5.791   6.272   7.649  0.6045  0.0598  2.1856
  193MOL0     H26038   5.562   6.260   7.738 -0.2703  0.1433  1.6338
  193MOL0     H26039   4.395   5.439   8.702  1.0242 -0.0926 -0.4414
  193MOL0     H26040   4.159   5.521   8.714 -4.1928 -1.2031 -0.0592
  193MOL0     H26041   3.894   5.778   8.285  0.2786  1.7118  2.7090
  193MOL0     H26042   3.685   5.799   8.194  0.5864 -0.4023  0.5307
  193MOL0     H26043   3.450   5.792   8.153  0.8249 -0.3459 -0.7674
  193MOL0     H26044   3.463   5.966   8.217 -0.4509 -0.4627  1.5220
  193MOL0     H26045   3.261   5.932   8.102 -2.0341  3.9349  1.3303
  193MOL0     H26046   3.234   5.960   8.281  1.8157  2.7805 -0.8507
  193MOL0     H26047   3.146   5.747   8.316 -3.7934  3.0438 -0.0892
  193MOL0     H26048   3.229   5.689   8.168  2.1547  1.4108 -0.9634
  193MOL0     H26049   2.972   5.853   8.197  2.5911  3.1321  0.2884
  193MOL0     H26050   3.051   5.828   8.038  0.7343 -0.4958  0.2751
  193MOL0     H26051   2.944   5.438   8.061 -0.1552  0.9175 -2.6346
  193MOL0     H26052   3.514   5.686   8.567  0.8873 -3.9929 -0.5578
  193MOL0     H26053   3.698   5.485   8.690 -2.0821  0.6361 -0.2438
  193MOL0     H26054   3.841   5.585   8.721  0.2063 -1.2310 -0.1148
  193MOL0     H26055   3.676   5.649   8.753  0.7839  3.4438 -2.7334
  194MOL0     O26056   3.276  10.946   6.008  0.2506  0.6745  0.3284
  194MOL0     C26057   3.282  10.964   6.127 -0.1708 -0.2576  0.4962
  194MOL0     O26058   3.398  10.981   6.201  0.2745  0.1400 -0.1076
  194MOL0     C26059   3.516  10.984   6.131  0.5931  0.5653 -0.0883
  194MOL0     C26060   3.567  11.116   6.098 -0.0948  0.0584 -0.3736
  194MOL0     C26061   3.701  11.128   6.048  0.5707 -0.0488 -0.3250
  194MOL0     C26062   3.770  11.010   6.015 -0.0386  0.2042  0.3236
  194MOL0     O26063   3.883  11.027   5.945 -0.3917 -0.6378 -0.4619
  194MOL0     C26064   3.859  11.016   5.803  0.5835 -0.6141 -0.3921
  194MOL0     C26065   3.968  11.087   5.729 -0.5183 -0.1249  0.5937
  194MOL0     C26066   4.101  11.017   5.700  0.4814  0.2573 -0.5442
  194MOL0     C26067   4.096  10.873   5.737  0.6499 -0.7191  0.0930
  194MOL0     C26068   4.231  10.801   5.713  0.7826 -0.0592  1.6171
  194MOL0     C26069   4.248  10.670   5.782 -0.0549 -0.1510  0.4562
  194MOL0     C26070   4.376  10.590   5.749  0.3740  0.3311 -0.5648
  194MOL0     C26071   4.358  10.443   5.809 -0.5280 -0.3443  0.0539
  194MOL0     N26072   4.476  10.371   5.788  0.2790  0.6522  0.0755
  194MOL0     C26073   4.536  10.345   5.669 -0.1453 -0.6189 -0.2137
  194MOL0     C26074   4.667  10.305   5.704 -0.0881  0.0321  0.4870
  194MOL0     C26075   4.777  10.263   5.607  0.8477 -0.1754 -0.5050
  194MOL0     C26076   4.839  10.127   5.625  0.1371  0.8303 -0.3926
  194MOL0     C26077   4.959  10.107   5.530 -0.6541  0.6658 -0.0761
  194MOL0     C26078   5.049   9.995   5.562 -0.2496  0.8867  0.0521
  194MOL0     O26079   5.181  10.036   5.510  0.6027 -0.3597  0.4286
  194MOL0     C26080   5.282   9.952   5.521 -0.3460 -0.2324 -0.3985
  194MOL0     C26081   5.329   9.893   5.404  0.6731 -0.2971 -0.9815
  194MOL0     C26082   5.448   9.821   5.416  0.5887  0.7074 -0.4019
  194MOL0     C26083   5.514   9.810   5.537  0.5881  0.6153 -0.3007
  194MOL0     C26084   5.653   9.751   5.547  0.1033 -0.0228 -0.3798
  194MOL0     O26085   5.723   9.736   5.430 -0.2632 -0.0241 -0.4469
  194MOL0     C26086   5.852   9.685   5.411  0.0754 -0.7983 -0.7921
  194MOL0     C26087   5.895   9.680   5.282  0.3882  0.6457  0.6291
  194MOL0     C26088   6.021   9.638   5.250  0.7880 -0.4746 -0.0088
  194MOL0     C26089   6.118   9.609   5.353 -0.7302  0.7181  0.1419
  194MOL0     O26090   6.252   9.581   5.325  0.7556 -0.0706 -0.0558
  194MOL0     C26091   6.300   9.587   5.187 -0.0700 -0.2144  0.5630
  194MOL0     C26092   6.312   9.438   5.147  0.2330  0.2460  0.1843
  194MOL0     C26093   6.431   9.375   5.221  0.2656 -0.1053  1.3538
  194MOL0     C26094   6.461   9.232   5.165  0.6218 -0.5460  0.0473
  194MOL0     C26095   6.592   9.159   5.206  0.5044 -0.1621  0.2113
  194MOL0     C26096   6.712   9.243   5.171 -0.1124  1.0190 -0.4934
  194MOL0     C26097   6.851   9.177   5.189  0.8204 -1.3380  0.4816
  194MOL0     C26098   6.971   9.265   5.142  0.4607  0.6481 -0.7260
  194MOL0    Cl26099   7.117   9.169   5.194 -0.0223  0.3540 -0.1547
  194MOL0     C26100   6.072   9.613   5.485  0.9164 -0.5558 -0.2207
  194MOL0     C26101   5.940   9.656   5.517 -0.1476  0.2649  0.0384
  194MOL0     O26102   5.700   9.720   5.659 -0.1790  0.3044  0.3010
  194MOL0     C26103   5.453   9.856   5.657 -0.2371 -0.1140  0.6124
  194MOL0     C26104   5.332   9.925   5.644  0.0225  0.5600 -0.5438
  194MOL0     N26105   4.671  10.289   5.839  0.6635 -0.1530  0.4469
  194MOL0     N26106   4.553  10.330   5.890  0.1243 -0.0003  0.4109
  194MOL0     C26107   3.710  10.885   6.020  0.7764 -0.2802  0.3565
  194MOL0     C26108   3.589  10.873   6.095 -1.0194  0.7641  0.3427
  194MOL0     C26109   3.143  10.976   6.193  0.0471  0.2300 -1.0928
  194MOL0     C26110   3.135  10.968   6.330 -0.3051 -0.1837 -1.1731
  194MOL0     C26111   3.020  10.971   6.403  0.2195 -0.2821 -0.9784
  194MOL0     C26112   2.894  10.978   6.342 -0.5128 -0.0666 -0.9168
  194MOL0     O26113   2.784  10.980   6.421 -0.1989 -0.6024 -0.0070
  194MOL0     C26114   2.660  10.946   6.364 -0.6489  0.2805  0.6355
  194MOL0     C26115   2.591  11.081   6.334  0.2364 -0.7729 -0.3432
  194MOL0     C26116   2.467  11.062   6.252  0.2411 -0.4267  0.0437
  194MOL0     C26117   2.400  11.203   6.230  0.0113  0.0033 -0.8643
  194MOL0     C26118   2.311  11.226   6.344 -0.2249 -0.1490  0.3580
  194MOL0     C26119   2.247  11.249   6.448 -0.1268  0.4014  0.3629
  194MOL0     C26120   2.899  10.999   6.202 -0.0298  0.2876  0.8360
  194MOL0     C26121   3.015  10.991   6.126  0.0170 -0.0720 -0.0239
  194MOL0     C26122   3.015  11.000   5.971 -0.4460  0.4618 -0.2385
  194MOL0     H26123   3.518  11.209   6.125  2.0953  0.9807  0.6770
  194MOL0     H26124   3.743  11.228   6.040  0.7226  0.0247  1.0789
  194MOL0     H26125   3.849  10.911   5.774 -0.7421 -1.8333  3.8098
  194MOL0     H26126   3.773  11.079   5.779  1.0631 -0.0809 -0.7416
  194MOL0     H26127   3.987  11.184   5.775 -1.3613  1.1702 -1.6500
  194MOL0     H26128   3.916  11.130   5.643 -2.4123  0.9211  2.1990
  194MOL0     H26129   4.179  11.072   5.754 -2.5185  3.2323  1.1238
  194MOL0     H26130   4.127  11.033   5.595  0.3919  2.4992 -0.2834
  194MOL0     H26131   4.056  10.854   5.837 -2.5424  1.5356 -0.5928
  194MOL0     H26132   4.023  10.830   5.668  0.5777  2.4073 -1.9967
  194MOL0     H26133   4.236  10.786   5.605 -1.1038 -0.2996  1.5364
  194MOL0     H26134   4.317  10.860   5.747  0.8150 -0.6540  2.6204
  194MOL0     H26135   4.245  10.697   5.888  1.1843 -4.5387  1.8269
  194MOL0     H26136   4.166  10.600   5.765  2.9007 -3.4214 -1.7836
  194MOL0     H26137   4.453  10.643   5.807 -2.4261  1.1350  2.8044
  194MOL0     H26138   4.409  10.590   5.645  1.5686 -0.9072 -0.2114
  194MOL0     H26139   4.331  10.449   5.914 -0.7948 -0.8153  0.0169
  194MOL0     H26140   4.278  10.399   5.749 -2.6993  0.4601  2.2387
  194MOL0     H26141   4.490  10.362   5.572 -0.7356  5.4252  0.7834
  194MOL0     H26142   4.738  10.267   5.505 -0.8180  2.9033  0.1405
  194MOL0     H26143   4.849  10.344   5.623  0.0633  0.3760  0.3371
  194MOL0     H26144   4.883  10.134   5.725 -1.2799 -0.8739  0.3990
  194MOL0     H26145   4.764  10.048   5.624  1.8278 -0.8754 -1.3652
  194MOL0     H26146   5.015  10.200   5.531  1.0690 -0.2946 -1.5013
  194MOL0     H26147   4.925  10.096   5.427 -0.0688  1.3175 -0.3431
  194MOL0     H26148   5.006   9.906   5.516  1.3733 -0.3348  0.7676
  194MOL0     H26149   5.045   9.989   5.671  0.3097  1.2339  0.0969
  194MOL0     H26150   5.300   9.930   5.307  1.4014  2.8293 -0.0923
  194MOL0     H26151   5.488   9.801   5.317 -1.7191 -1.1605 -1.0718
  194MOL0     H26152   5.831   9.707   5.198 -0.6530  0.5471  1.3797
  194MOL0     H26153   6.021   9.621   5.143 -0.5929 -1.8470  0.1720
  194MOL0     H26154   6.243   9.644   5.114  1.5334 -2.1709 -2.4272
  194MOL0     H26155   6.399   9.633   5.193 -0.6988  1.8020 -2.5612
  194MOL0     H26156   6.222   9.394   5.189  0.9873  0.8447  2.6046
  194MOL0     H26157   6.307   9.414   5.040 -1.5867  0.4724  0.1876
  194MOL0     H26158   6.524   9.432   5.225  0.7520 -0.2550 -2.8608
  194MOL0     H26159   6.400   9.366   5.325 -0.5022 -1.3473  1.0387
  194MOL0     H26160   6.455   9.232   5.056 -1.9948 -0.0999  0.1418
  194MOL0     H26161   6.379   9.165   5.192 -0.2963  0.0337 -1.2341
  194MOL0     H26162   6.588   9.060   5.160 -0.1977 -1.3951  2.6979
  194MOL0     H26163   6.597   9.144   5.314  1.0006  0.4293  0.2734
  194MOL0     H26164   6.696   9.291   5.074 -1.6873  2.5883  0.4879
  194MOL0     H26165   6.722   9.322   5.246  0.3463  0.6142 -0.1200
  194MOL0     H26166   6.835   9.094   5.120  1.6547  0.6214 -2.2457
  194MOL0     H26167   6.864   9.157   5.296  0.1713  2.1979  1.3513
  194MOL0     H26168   6.967   9.309   5.043  1.2088  3.0038  0.2258
  194MOL0     H26169   6.974   9.356   5.202  0.1736 -0.4322  1.0164
  194MOL0     H26170   6.140   9.601   5.569  0.6532  1.0116  0.2501
  194MOL0     H26171   5.913   9.645   5.622 -1.4711 -2.6512 -0.5040
  194MOL0     H26172   5.498   9.833   5.753 -0.5460 -0.5060  0.6655
  194MOL0     H26173   5.290   9.957   5.739  0.8140  3.0158 -0.9463
  194MOL0     H26174   3.759  10.793   5.992  0.2291  0.0427 -1.8742
  194MOL0     H26175   3.552  10.772   6.106 -0.1931  0.2873 -1.1231
  194MOL0     H26176   3.229  10.954   6.383 -0.3920 -0.3178 -1.0529
  194MOL0     H26177   3.022  10.970   6.512 -1.8141 -1.0405 -0.9088
  194MOL0     H26178   2.607  10.886   6.439 -0.0074  1.9997  2.5670
  194MOL0     H26179   2.661  10.887   6.272 -0.8608 -0.9085  1.3728
  194MOL0     H26180   2.659  11.150   6.283 -0.1470 -2.4475 -3.3729
  194MOL0     H26181   2.570  11.115   6.435  2.1434 -4.5188  1.5180
  194MOL0     H26182   2.400  10.988   6.295 -0.0005 -0.3317 -0.1639
  194MOL0     H26183   2.501  11.025   6.155 -1.0456 -1.7619  0.0659
  194MOL0     H26184   2.474  11.281   6.208 -2.5246  1.9567 -3.0934
  194MOL0     H26185   2.336  11.197   6.141 -1.4102  1.1086  0.0448
  194MOL0     H26186   2.196  11.254   6.542  0.5651  2.8886  0.6933
  194MOL0     H26187   2.807  11.025   6.152  2.4628  0.6573 -4.2289
  194MOL0     H26188   3.069  11.092   5.946 -0.0185 -0.4006 -2.8147
  194MOL0     H26189   3.071  10.922   5.918  3.0337  2.0854  0.7991
  194MOL0     H26190   2.913  11.011   5.932  0.3375 -0.7430 -2.8844
  195MOL0     O26191   9.446   9.799   4.620 -0.0741  0.3021  0.2702
  195MOL0     C26192   9.378   9.738   4.537 -0.3919  0.3112  0.4838
  195MOL0     O26193   9.375   9.758   4.402 -0.7050 -0.3020  0.7388
  195MOL0     C26194   9.483   9.839   4.354 -0.4993  0.1150  0.5613
  195MOL0     C26195   9.612   9.804   4.366 -0.0087 -0.2748 -0.4586
  195MOL0     C26196   9.715   9.868   4.302  0.8065 -0.7440  0.5463
  195MOL0     C26197   9.679   9.992   4.231 -0.5494  1.0907  0.4431
  195MOL0     O26198   9.771  10.078   4.192  0.1891 -0.3232  0.2551
  195MOL0     C26199   9.847  10.140   4.297 -0.1436 -0.3122 -0.2523
  195MOL0     C26200  10.000  10.128   4.266 -0.5235  0.7920  0.0573
  195MOL0     C26201  10.038   9.981   4.280 -0.5441 -1.1916  0.0151
  195MOL0     C26202  10.193   9.966   4.268  0.1241 -0.3605  0.0402
  195MOL0     C26203  10.221   9.820   4.266  1.1015  1.1832 -0.1508
  195MOL0     C26204  10.230   9.761   4.407 -0.5120 -0.6536  0.1317
  195MOL0     C26205  10.288   9.619   4.425 -0.2001 -0.4607 -0.2000
  195MOL0     C26206  10.436   9.601   4.418 -0.7413  0.0660  0.0088
  195MOL0     N26207  10.490   9.471   4.473 -0.1830  0.2379  0.5666
  195MOL0     C26208  10.483   9.419   4.600 -0.1591 -0.4905 -0.0320
  195MOL0     C26209  10.552   9.308   4.597 -0.6152 -0.1206 -0.1807
  195MOL0     C26210  10.590   9.226   4.709  0.6413 -0.1393 -0.0150
  195MOL0     C26211  10.479   9.115   4.737 -0.3309  0.5848  0.8713
  195MOL0     C26212  10.344   9.172   4.796 -0.2323  0.3461 -0.3219
  195MOL0     C26213  10.364   9.237   4.944  0.7349 -0.4938  0.0057
  195MOL0     O26214  10.408   9.366   4.924 -0.2686  0.4822  1.1674
  195MOL0     C26215  10.478   9.425   5.027  0.6557  0.2895 -1.0716
  195MOL0     C26216  10.571   9.522   4.990  0.4211  0.0526  0.2309
  195MOL0     C26217  10.665   9.561   5.075  0.4309  0.1952 -0.7053
  195MOL0     C26218  10.672   9.511   5.206 -0.0768 -0.3258  0.6836
  195MOL0     C26219  10.781   9.552   5.291  0.2581 -1.2034  0.0835
  195MOL0     O26220  10.894   9.601   5.233 -0.4271 -0.2288  0.0700
  195MOL0     C26221  11.016   9.621   5.299  0.3082 -0.8691  0.8570
  195MOL0     C26222  11.049   9.586   5.428  0.1533 -0.7670 -0.4434
  195MOL0     C26223  11.171   9.622   5.484 -0.2799 -0.2517  0.0743
  195MOL0     C26224  11.275   9.686   5.412  0.0167  0.2592 -0.1492
  195MOL0     O26225  11.398   9.695   5.484  0.2701 -0.2600  0.5063
  195MOL0     C26226  11.515   9.691   5.396 -0.1447  0.5866 -0.8793
  195MOL0     C26227  11.638   9.711   5.488 -0.0278 -0.2364  0.2326
  195MOL0     C26228  11.761   9.678   5.406 -0.2177 -0.5696 -1.4426
  195MOL0     C26229  11.894   9.669   5.495  0.8080  0.7679  0.0437
  195MOL0     C26230  12.014   9.684   5.407 -0.7451 -0.7744 -1.0275
  195MOL0     C26231  12.143   9.645   5.486  0.3594 -1.3320  0.2413
  195MOL0     C26232  12.261   9.686   5.404  0.3073 -0.1762  0.0741
  195MOL0     C26233  12.397   9.645   5.473  0.5818  0.3032  0.1854
  195MOL0    Cl26234  12.438   9.724   5.633  0.1074 -0.2590 -0.3267
  195MOL0     C26235  11.249   9.702   5.272 -0.3985  0.5140 -0.9958
  195MOL0     C26236  11.118   9.675   5.218 -0.2433  0.7610 -0.5247
  195MOL0     O26237  10.755   9.543   5.412  0.3163  0.9998 -0.3568
  195MOL0     C26238  10.575   9.420   5.245  0.5810  0.1165 -0.9956
  195MOL0     C26239  10.470   9.385   5.160 -0.7585 -0.8426 -0.3186
  195MOL0     N26240  10.587   9.283   4.462 -0.3432  0.2349 -0.4572
  195MOL0     N26241  10.548   9.375   4.389 -0.3386  0.9613  0.1002
  195MOL0     C26242   9.544  10.015   4.204  1.0670 -0.0356 -0.6600
  195MOL0     C26243   9.446   9.939   4.267  0.4301 -0.6596  0.2568
  195MOL0     C26244   9.272   9.653   4.603 -0.4462 -0.4487  0.7063
  195MOL0     C26245   9.151   9.666   4.544 -0.5124 -0.9955 -0.1677
  195MOL0     C26246   9.051   9.578   4.582  1.1053  0.0787  0.9565
  195MOL0     C26247   9.071   9.478   4.676  0.2485 -0.5562  0.5278
  195MOL0     O26248   8.968   9.407   4.728 -0.8455 -0.1160 -0.1256
  195MOL0     C26249   8.840   9.424   4.666 -0.1186  0.5217 -0.1994
  195MOL0     C26250   8.740   9.325   4.741  0.0546  0.4260  0.5798
  195MOL0     C26251   8.604   9.328   4.666  0.2777  0.2799 -0.1146
  195MOL0     C26252   8.514   9.228   4.732 -0.4054 -0.1156 -0.3042
  195MOL0     C26253   8.383   9.218   4.666  0.1253 -0.2636  0.0538
  195MOL0     C26254   8.267   9.216   4.619 -0.4305  0.4965 -0.6628
  195MOL0     C26255   9.192   9.463   4.739 -1.0772 -0.8278  0.1607
  195MOL0     C26256   9.298   9.541   4.696  0.0701 -0.4668  0.1682
  195MOL0     C26257   9.429   9.511   4.751  0.1646  0.5506  0.0463
  195MOL0     H26258   9.628   9.723   4.437  0.0127  1.8577  2.1231
  195MOL0     H26259   9.818   9.837   4.312  0.9627 -2.6559 -4.2353
  195MOL0     H26260   9.829  10.247   4.300  1.3078 -0.0141 -1.1606
  195MOL0     H26261   9.830  10.101   4.398  0.6655 -0.0587 -0.0064
  195MOL0     H26262  10.060  10.193   4.331  2.3712 -2.1389  0.5427
  195MOL0     H26263  10.009  10.153   4.159 -1.1347  1.3372  0.1215
  195MOL0     H26264   9.990   9.923   4.201  0.1291 -3.1133  0.9555
  195MOL0     H26265  10.005   9.939   4.375  2.1494  0.9601  2.0905
  195MOL0     H26266  10.243  10.001   4.177  2.9912 -3.3690  0.2499
  195MOL0     H26267  10.248  10.012   4.350 -2.1879  5.6519 -1.2850
  195MOL0     H26268  10.153   9.768   4.199  0.7331  1.7421 -0.2138
  195MOL0     H26269  10.317   9.803   4.216  0.6188  1.4143 -1.1862
  195MOL0     H26270  10.307   9.823   4.455 -0.7216  0.1429 -0.5329
  195MOL0     H26271  10.138   9.771   4.465  1.2823  1.9413  2.8032
  195MOL0     H26272  10.233   9.545   4.367 -0.7194 -2.2380  2.3557
  195MOL0     H26273  10.284   9.595   4.532 -0.2312  0.2287 -0.0389
  195MOL0     H26274  10.468   9.626   4.316  3.2720  1.7500  1.5070
  195MOL0     H26275  10.478   9.688   4.470  1.1169 -1.1456  0.6222
  195MOL0     H26276  10.431   9.459   4.687 -0.3309 -0.4001 -0.1763
  195MOL0     H26277  10.683   9.172   4.689  0.5724  0.4233 -2.0086
  195MOL0     H26278  10.608   9.294   4.793  1.3897  1.7911 -1.6609
  195MOL0     H26279  10.461   9.061   4.643  1.7308 -1.8655  1.7445
  195MOL0     H26280  10.505   9.027   4.797  0.2373 -0.5017 -0.8504
  195MOL0     H26281  10.271   9.091   4.808  1.6128 -1.7114 -2.0204
  195MOL0     H26282  10.303   9.243   4.725  1.8518 -1.6301 -3.7738
  195MOL0     H26283  10.433   9.169   4.992  1.8783 -0.9348 -2.1413
  195MOL0     H26284  10.267   9.242   4.995  2.1187 -1.7567  2.9810
  195MOL0     H26285  10.563   9.548   4.884  0.2188  0.1468  0.2699
  195MOL0     H26286  10.739   9.629   5.032  0.5288 -1.0733 -2.6347
  195MOL0     H26287  10.977   9.530   5.486 -1.6164  1.6081 -0.1695
  195MOL0     H26288  11.197   9.592   5.585  2.1011  0.5521 -0.2297
  195MOL0     H26289  11.523   9.593   5.349 -2.0611  0.3260 -0.7525
  195MOL0     H26290  11.510   9.778   5.329  3.0542  1.7160  0.1391
  195MOL0     H26291  11.630   9.811   5.530 -2.0644 -1.1077  2.1264
  195MOL0     H26292  11.617   9.640   5.568  1.8659 -2.4130 -1.0538
  195MOL0     H26293  11.746   9.590   5.342 -1.6979 -0.9777 -0.5606
  195MOL0     H26294  11.777   9.761   5.336  1.9558 -1.3029 -1.9254
  195MOL0     H26295  11.896   9.571   5.543  0.0836  0.9444  0.4351
  195MOL0     H26296  11.886   9.741   5.577  2.3566 -0.4042  1.2921
  195MOL0     H26297  12.037   9.782   5.364  1.0896 -0.5422  0.3382
  195MOL0     H26298  12.007   9.604   5.332 -0.9490 -0.9713 -0.8002
  195MOL0     H26299  12.146   9.706   5.577  1.4494 -0.5023 -0.3195
  195MOL0     H26300  12.142   9.539   5.515  2.4910 -1.6839 -0.8261
  195MOL0     H26301  12.256   9.793   5.383 -0.1797  0.0209  1.1409
  195MOL0     H26302  12.262   9.645   5.303  0.7316  2.0235 -0.8600
  195MOL0     H26303  12.399   9.537   5.492  1.4782  0.1526 -0.7264
  195MOL0     H26304  12.481   9.657   5.405 -0.3976 -2.3730 -1.6753
  195MOL0     H26305  11.327   9.743   5.209  1.1769  0.3961  0.7941
  195MOL0     H26306  11.109   9.707   5.115  2.3031  0.4083 -0.9169
  195MOL0     H26307  10.571   9.399   5.352  2.2892  1.3189 -0.6627
  195MOL0     H26308  10.396   9.316   5.200  0.4176 -0.3137  3.1249
  195MOL0     H26309   9.503  10.092   4.139 -1.5994 -0.9464 -0.1863
  195MOL0     H26310   9.345   9.964   4.238  1.2017 -0.7814 -3.0299
  195MOL0     H26311   9.123   9.744   4.473  0.6570  0.9367  1.4045
  195MOL0     H26312   8.955   9.587   4.532 -1.1709 -1.1626  4.6584
  195MOL0     H26313   8.851   9.386   4.564 -1.0171 -0.6726  0.1212
  195MOL0     H26314   8.805   9.527   4.668  1.1281  0.9419  0.6033
  195MOL0     H26315   8.730   9.364   4.843 -1.9177  2.8708 -0.4449
  195MOL0     H26316   8.777   9.222   4.735 -0.8813  0.0934  0.2188
  195MOL0     H26317   8.615   9.282   4.568  2.3605 -1.9746  1.0882
  195MOL0     H26318   8.556   9.426   4.655 -0.6198 -0.2109 -0.6995
  195MOL0     H26319   8.565   9.133   4.746  2.3372  1.2247 -0.5585
  195MOL0     H26320   8.507   9.271   4.832  1.8316  0.8239 -0.4969
  195MOL0     H26321   8.170   9.205   4.575  0.2180  1.9575 -2.6324
  195MOL0     H26322   9.199   9.376   4.804 -1.4072 -2.5833 -2.0476
  195MOL0     H26323   9.506   9.538   4.678 -0.6942  5.2409  0.5590
  195MOL0     H26324   9.444   9.564   4.846 -1.5454 -0.2280  0.7994
  195MOL0     H26325   9.440   9.405   4.773  2.8812  0.3796 -1.6339
  196MOL0     O26326   1.191  10.318   8.821  1.0809 -0.3126 -0.1852
  196MOL0     C26327   1.147  10.220   8.758  0.7449 -0.8677  0.7732
  196MOL0     O26328   1.210  10.133   8.677 -0.0234  0.2349  0.0538
  196MOL0     C26329   1.345  10.157   8.673  0.0659  0.4278 -0.7303
  196MOL0     C26330   1.420  10.060   8.732 -0.1323 -0.6059  1.1024
  196MOL0     C26331   1.565  10.070   8.730  0.1459  1.0793 -0.0858
  196MOL0     C26332   1.624  10.187   8.686  1.1615  1.0289 -0.2009
  196MOL0     O26333   1.760  10.209   8.684  0.1445  0.4513  1.1975
  196MOL0     C26334   1.837  10.098   8.635  0.7115  0.2385 -0.3416
  196MOL0     C26335   1.981  10.151   8.641 -0.1337  0.2229  0.2769
  196MOL0     C26336   2.076  10.067   8.547 -0.5646 -0.7792  0.0042
  196MOL0     C26337   2.223  10.129   8.546  0.3464  0.1026  0.7124
  196MOL0     C26338   2.290  10.146   8.682 -0.0031  0.7414 -0.3349
  196MOL0     C26339   2.314  10.018   8.760 -0.9803 -0.9448 -0.6574
  196MOL0     C26340   2.452   9.957   8.735  0.9116  0.1681  0.4462
  196MOL0     C26341   2.467   9.821   8.795 -0.1302  1.2086 -0.1204
  196MOL0     N26342   2.548   9.731   8.710  0.1362 -0.0929 -0.7412
  196MOL0     C26343   2.504   9.626   8.630 -0.4529  0.3278  0.7907
  196MOL0     C26344   2.616   9.585   8.567 -0.3260  0.3915  0.3401
  196MOL0     C26345   2.625   9.465   8.485 -0.4051  0.4757  0.6821
  196MOL0     C26346   2.519   9.475   8.369  0.4057  0.6733  0.9240
  196MOL0     C26347   2.538   9.359   8.268  0.1556  0.2092 -0.0745
  196MOL0     C26348   2.416   9.314   8.201  0.3485  0.5582 -0.0594
  196MOL0     O26349   2.344   9.236   8.293 -0.2731 -0.0436 -0.1999
  196MOL0     C26350   2.216   9.276   8.335  0.3089  0.4933 -0.3614
  196MOL0     C26351   2.148   9.392   8.307 -0.5317  1.1838  0.5173
  196MOL0     C26352   2.016   9.412   8.346 -0.2231  0.6426 -1.3380
  196MOL0     C26353   1.942   9.301   8.398  0.2486  0.2205  0.4623
  196MOL0     C26354   1.804   9.303   8.435  0.0090  0.1940  0.0002
  196MOL0     O26355   1.745   9.176   8.465 -0.6013 -0.4636 -0.5052
  196MOL0     C26356   1.612   9.159   8.505 -0.3931 -0.4560  1.6030
  196MOL0     C26357   1.553   9.037   8.469 -0.6120 -0.3577 -1.1771
  196MOL0     C26358   1.421   9.010   8.519  0.3171  0.6103 -0.0932
  196MOL0     C26359   1.348   9.106   8.595  0.0779  1.2214 -0.2672
  196MOL0     O26360   1.221   9.085   8.644  0.5836  0.8262 -0.5104
  196MOL0     C26361   1.126   9.002   8.571 -0.1297  0.0392 -0.2682
  196MOL0     C26362   0.991   9.039   8.628  0.5749  0.0484 -1.1587
  196MOL0     C26363   0.887   8.948   8.563  0.3504 -0.3181  0.4768
  196MOL0     C26364   0.760   8.969   8.636 -0.1527 -0.1690 -0.5207
  196MOL0     C26365   0.644   8.893   8.572  0.4951  0.3281 -0.5923
  196MOL0     C26366   0.513   8.928   8.650 -0.0236 -0.9354 -0.0823
  196MOL0     C26367   0.384   8.877   8.577 -0.4256 -0.6394 -0.0018
  196MOL0     C26368   0.271   8.890   8.683  0.0460  0.4516  0.2959
  196MOL0    Cl26369   0.274   9.066   8.733  0.0841 -0.1166  0.3372
  196MOL0     C26370   1.408   9.223   8.629 -0.1948  0.3181 -0.1823
  196MOL0     C26371   1.539   9.255   8.576 -0.8145 -0.4251 -0.4915
  196MOL0     O26372   1.752   9.411   8.450  0.2501 -1.4484  0.1543
  196MOL0     C26373   2.013   9.177   8.420 -0.0461  0.4094 -0.0654
  196MOL0     C26374   2.148   9.174   8.399 -0.8603  0.7145  0.8819
  196MOL0     N26375   2.723   9.654   8.616 -0.4310  0.3837 -0.4837
  196MOL0     N26376   2.676   9.748   8.696 -0.4319  1.2378  0.1151
  196MOL0     C26377   1.540  10.277   8.621 -0.3740 -0.2925  0.7981
  196MOL0     C26378   1.401  10.269   8.618  0.2952 -0.1775  1.6063
  196MOL0     C26379   1.002  10.211   8.780 -1.1860  0.1719 -0.6154
  196MOL0     C26380   0.934  10.333   8.774  0.2986  1.1115  0.5999
  196MOL0     C26381   0.797  10.333   8.798 -0.0029  0.1284 -0.3000
  196MOL0     C26382   0.731  10.210   8.831 -0.1660  0.5683 -0.1201
  196MOL0     O26383   0.595  10.188   8.852 -0.3569 -1.0209  0.6105
  196MOL0     C26384   0.515  10.289   8.788  0.0155  0.1250 -0.2826
  196MOL0     C26385   0.367  10.249   8.799  0.2543  0.0227 -0.1562
  196MOL0     C26386   0.275  10.316   8.700  0.6694 -0.0725 -0.3166
  196MOL0     C26387   0.122  10.284   8.707 -0.1125  0.1250  0.2443
  196MOL0     C26388   0.050  10.336   8.591 -0.1532 -0.5667 -0.2294
  196MOL0     C26389   0.000  10.375   8.490  0.3814  0.1658  0.0410
  196MOL0     C26390   0.803  10.097   8.850  0.9337 -0.2924  1.4455
  196MOL0     C26391   0.943  10.093   8.812 -0.0844  1.4408  0.0347
  196MOL0     C26392   1.014   9.960   8.824 -0.7619  0.5999  0.1132
  196MOL0     H26393   1.370   9.981   8.787 -0.4736 -0.8382  0.4781
  196MOL0     H26394   1.620   9.991   8.781  1.2870  1.6698 -0.3761
  196MOL0     H26395   1.828  10.007   8.696 -0.7620 -0.2481 -1.2365
  196MOL0     H26396   1.816  10.086   8.529  0.2179 -1.5318 -0.0695
  196MOL0     H26397   2.012  10.151   8.746  0.6529  1.4366  0.0630
  196MOL0     H26398   1.980  10.254   8.605 -0.6326  0.5560  1.2183
  196MOL0     H26399   2.038  10.061   8.445  0.9205 -1.2606 -0.5449
  196MOL0     H26400   2.083   9.965   8.586  0.0191 -0.0413  1.9784
  196MOL0     H26401   2.282  10.062   8.483 -0.8064 -0.3686  0.1141
  196MOL0     H26402   2.213  10.226   8.497 -2.3467 -1.3034 -1.7979
  196MOL0     H26403   2.380  10.203   8.658  0.7220  0.0178  0.5894
  196MOL0     H26404   2.221  10.201   8.747 -0.2512 -1.7355  1.6720
  196MOL0     H26405   2.308  10.044   8.866 -0.9182  0.0251 -0.8771
  196MOL0     H26406   2.232   9.951   8.734 -1.9848  0.1709 -0.4800
  196MOL0     H26407   2.533  10.021   8.770 -1.1414  3.3652 -0.1500
  196MOL0     H26408   2.466   9.942   8.628  1.8071  0.5980  0.4974
  196MOL0     H26409   2.513   9.833   8.894 -0.1483  1.5336 -0.1476
  196MOL0     H26410   2.373   9.770   8.815  1.3733 -1.6040  0.2617
  196MOL0     H26411   2.405   9.596   8.596  1.3579  0.0499 -5.3464
  196MOL0     H26412   2.722   9.465   8.435  0.9210 -0.6886  3.0854
  196MOL0     H26413   2.615   9.380   8.554 -1.9240  0.8358  0.9431
  196MOL0     H26414   2.424   9.468   8.423 -1.0837  0.1089 -1.6065
  196MOL0     H26415   2.514   9.571   8.317 -0.5661  1.8273  3.0110
  196MOL0     H26416   2.587   9.272   8.313 -1.8136  1.0360  4.1709
  196MOL0     H26417   2.595   9.404   8.186  1.5891 -0.9328  0.2584
  196MOL0     H26418   2.442   9.250   8.116  2.0174  1.6730 -0.4380
  196MOL0     H26419   2.353   9.397   8.166 -2.4600  0.2224  3.6199
  196MOL0     H26420   2.196   9.469   8.248  0.5976 -0.1866 -0.4138
  196MOL0     H26421   1.957   9.502   8.339  0.3849  1.1751  0.0432
  196MOL0     H26422   1.615   8.967   8.415  0.7931  0.4482 -0.6590
  196MOL0     H26423   1.372   8.916   8.495 -1.8196  1.5364  0.3919
  196MOL0     H26424   1.135   9.022   8.464 -0.9945 -0.0404 -0.3633
  196MOL0     H26425   1.140   8.894   8.587  0.6447 -0.0813 -1.6156
  196MOL0     H26426   0.997   9.020   8.735  3.1062  1.9748 -0.8624
  196MOL0     H26427   0.957   9.142   8.620 -1.2176 -0.4065  0.0014
  196MOL0     H26428   0.864   8.992   8.465 -2.5211 -2.0391  0.2648
  196MOL0     H26429   0.920   8.845   8.571  0.8157 -0.1554  0.6262
  196MOL0     H26430   0.724   9.073   8.638 -4.1004 -1.1212 -4.5263
  196MOL0     H26431   0.788   8.938   8.737  4.0421  0.8282 -1.2172
  196MOL0     H26432   0.660   8.787   8.554  0.3349  0.3335 -0.7826
  196MOL0     H26433   0.631   8.941   8.474  2.3427 -0.2562 -1.1540
  196MOL0     H26434   0.519   8.880   8.748 -0.5539  1.5838  1.2811
  196MOL0     H26435   0.515   9.036   8.668  0.6327 -0.8770 -0.4555
  196MOL0     H26436   0.401   8.775   8.540  0.1431  0.4806 -3.1980
  196MOL0     H26437   0.370   8.944   8.491  0.4622  1.3455  1.3227
  196MOL0     H26438   0.176   8.880   8.631 -0.6961  3.0446  0.9971
  196MOL0     H26439   0.273   8.823   8.769 -2.4004 -0.0448  0.0231
  196MOL0     H26440   1.359   9.287   8.702 -0.1288 -1.1259  1.1884
  196MOL0     H26441   1.590   9.347   8.602 -1.7797 -0.3163  1.1320
  196MOL0     H26442   1.963   9.090   8.462 -1.2000  1.9851  1.9939
  196MOL0     H26443   2.203   9.090   8.439 -0.1131  0.3383 -0.8322
  196MOL0     H26444   1.590  10.365   8.581  1.6676 -1.2443  1.1390
  196MOL0     H26445   1.335  10.332   8.559  0.9920 -1.4228 -0.6099
  196MOL0     H26446   0.983  10.429   8.756  1.0278  0.2691 -2.5719
  196MOL0     H26447   0.746  10.427   8.781  1.0631  0.8275  0.3038
  196MOL0     H26448   0.533  10.283   8.680  2.3987 -3.9620  0.1040
  196MOL0     H26449   0.535  10.389   8.828  0.9115  0.3299 -1.2148
  196MOL0     H26450   0.338  10.242   8.904  0.8182 -1.9462 -0.1003
  196MOL0     H26451   0.358  10.147   8.760  1.6427  0.7151 -2.4891
  196MOL0     H26452   0.325  10.303   8.604 -1.5831 -1.4685 -1.3816
  196MOL0     H26453   0.272  10.423   8.722 -3.1899  0.2454 -1.7326
  196MOL0     H26454   0.103  10.177   8.720  3.1467 -0.4729  1.1018
  196MOL0     H26455   0.072  10.333   8.792 -0.1165  1.6044 -0.5866
  196MOL0     H26456  -0.044  10.397   8.396 -0.0736 -0.0366  0.2054
  196MOL0     H26457   0.756  10.001   8.872  0.7724 -0.4065  0.6410
  196MOL0     H26458   1.057   9.935   8.727  0.4977 -0.7733  0.9813
  196MOL0     H26459   1.088   9.957   8.905 -0.3780 -2.5376 -0.2320
  196MOL0     H26460   0.950   9.876   8.852  0.0407 -0.0568  0.0271
  197MOL0     O26461   8.739   8.988   5.877  0.0324  0.0819 -0.0310
  197MOL0     C26462   8.687   8.878   5.842  0.0689 -0.1772 -0.7825
  197MOL0     O26463   8.724   8.809   5.733 -0.0124 -0.0856  1.1978
  197MOL0     C26464   8.795   8.866   5.638  0.6107 -0.3529  0.7619
  197MOL0     C26465   8.764   8.979   5.567  0.1720 -0.5336  0.0211
  197MOL0     C26466   8.863   9.023   5.468 -0.1446 -0.4359 -1.2215
  197MOL0     C26467   8.986   8.956   5.450  0.5877  1.6758  0.7940
  197MOL0     O26468   9.081   9.006   5.368  0.2234  0.0089 -0.4507
  197MOL0     C26469   9.133   9.138   5.407 -0.5442  0.3158  0.0609
  197MOL0     C26470   9.250   9.117   5.513  0.2938 -0.2750 -0.0715
  197MOL0     C26471   9.308   9.255   5.549  0.0741  0.0853 -0.2239
  197MOL0     C26472   9.426   9.245   5.651 -1.1279 -0.3353 -0.1817
  197MOL0     C26473   9.502   9.376   5.690  0.2527  0.0047 -1.4826
  197MOL0     C26474   9.609   9.345   5.796 -0.2382  0.1626 -0.3104
  197MOL0     C26475   9.692   9.478   5.820 -0.4905 -0.1733  0.1353
  197MOL0     C26476   9.842   9.458   5.790  0.5670 -0.7194  0.1486
  197MOL0     N26477   9.920   9.584   5.784 -0.3888  0.3283  0.2810
  197MOL0     C26478   9.935   9.686   5.688  0.5305  0.1806 -0.2411
  197MOL0     C26479  10.040   9.765   5.728  0.2523  0.9792 -0.7724
  197MOL0     C26480  10.111   9.885   5.656 -0.0622 -0.5746  0.3062
  197MOL0     C26481  10.242   9.928   5.711 -0.4801  0.0264  0.6640
  197MOL0     C26482  10.326   9.993   5.596 -0.0784 -0.3680  0.5587
  197MOL0     C26483  10.467  10.038   5.651  0.0366  0.8582  0.6580
  197MOL0     O26484  10.470  10.177   5.688 -0.4436 -0.4055  0.2145
  197MOL0     C26485  10.588  10.218   5.747 -0.4904  0.0346  0.6404
  197MOL0     C26486  10.712  10.188   5.682 -0.0614  0.1766  0.0194
  197MOL0     C26487  10.833  10.223   5.742  0.0724 -0.0969  0.4754
  197MOL0     C26488  10.832  10.299   5.862 -0.7238  0.0396 -0.3520
  197MOL0     C26489  10.959  10.342   5.925 -0.3540 -0.1796  0.0985
  197MOL0     O26490  11.071  10.329   5.837  0.2855  0.0891 -0.2997
  197MOL0     C26491  11.183  10.401   5.852  0.3078  0.2516  0.7154
  197MOL0     C26492  11.195  10.530   5.914 -0.6242 -0.3102  0.0702
  197MOL0     C26493  11.320  10.595   5.913  0.6215  0.3599  0.2750
  197MOL0     C26494  11.438  10.533   5.859  0.6860  0.0344  0.5010
  197MOL0     O26495  11.554  10.606   5.870 -0.4308  0.6581 -0.8467
  197MOL0     C26496  11.655  10.519   5.915  0.0152 -0.6072  0.2329
  197MOL0     C26497  11.789  10.606   5.937 -0.0640  0.6089  0.5793
  197MOL0     C26498  11.914  10.520   5.960  0.7140  0.3208 -0.2534
  197MOL0     C26499  12.030  10.614   6.013 -0.2804  0.0045 -0.3874
  197MOL0     C26500  12.163  10.544   6.012  0.6909  0.0562 -0.0393
  197MOL0     C26501  12.276  10.650   6.039 -1.0739  0.0984 -0.2679
  197MOL0     C26502  12.414  10.596   6.072 -0.2144 -0.2394 -0.0445
  197MOL0     C26503  12.506  10.715   6.119 -0.2247  0.8024  0.5770
  197MOL0    Cl26504  12.514  10.852   6.005  0.6209 -0.0699  0.0917
  197MOL0     C26505  11.422  10.403   5.804  0.3009  0.1605 -0.0075
  197MOL0     C26506  11.292  10.332   5.808 -0.6502  0.2121  0.2987
  197MOL0     O26507  10.957  10.391   6.031 -0.3379 -0.5222  0.8525
  197MOL0     C26508  10.705  10.340   5.911 -0.1730 -0.3812 -0.3276
  197MOL0     C26509  10.585  10.307   5.856 -0.2708 -0.2914 -0.4255
  197MOL0     N26510  10.075   9.708   5.851  0.3137 -0.9336 -0.2285
  197MOL0     N26511  10.010   9.607   5.877 -0.6882  0.8312 -0.6456
  197MOL0     C26512   9.009   8.851   5.531 -0.9171 -0.2729 -0.9786
  197MOL0     C26513   8.912   8.798   5.620  0.1835 -0.4078 -0.4174
  197MOL0     C26514   8.584   8.812   5.924  0.6330  0.2120 -0.3748
  197MOL0     C26515   8.579   8.667   5.928 -0.3702  0.2594 -0.7100
  197MOL0     C26516   8.490   8.585   6.011  0.3940 -1.1259 -0.1714
  197MOL0     C26517   8.384   8.655   6.078 -0.4349 -0.8659 -0.0187
  197MOL0     O26518   8.296   8.596   6.167  0.0881 -0.8315  0.0908
  197MOL0     C26519   8.293   8.460   6.184 -0.1647  0.1252  0.3593
  197MOL0     C26520   8.152   8.433   6.253  0.3658  0.5950  0.6474
  197MOL0     C26521   8.037   8.399   6.154  0.5275  0.7224 -0.9750
  197MOL0     C26522   8.028   8.479   6.013 -0.8016 -0.2944 -0.0521
  197MOL0     C26523   7.896   8.473   5.952 -0.4546  0.1728  1.1426
  197MOL0     C26524   7.776   8.483   5.917 -1.0178 -0.6437 -0.1882
  197MOL0     C26525   8.385   8.800   6.063 -0.3771  0.8598 -0.2719
  197MOL0     C26526   8.481   8.877   5.995  0.1893  0.3582  0.1851
  197MOL0     C26527   8.459   9.032   5.997  1.2486  0.1348  0.9453
  197MOL0     H26528   8.673   9.036   5.584  1.1180  1.2092 -0.5188
  197MOL0     H26529   8.846   9.115   5.413 -2.3255  0.9723  1.5940
  197MOL0     H26530   9.176   9.194   5.323  1.9799 -4.1603 -1.9632
  197MOL0     H26531   9.054   9.202   5.446  1.1305  1.4440  1.8274
  197MOL0     H26532   9.337   9.068   5.467  0.3609 -0.0807 -0.1530
  197MOL0     H26533   9.219   9.062   5.603  0.4732  0.0593  0.1992
  197MOL0     H26534   9.235   9.329   5.581  1.7848  0.8277  2.2503
  197MOL0     H26535   9.352   9.283   5.453  0.1167  1.1456  0.0996
  197MOL0     H26536   9.407   9.188   5.742 -1.8864  0.4406  0.1587
  197MOL0     H26537   9.504   9.183   5.605  2.3787  4.3802 -1.3121
  197MOL0     H26538   9.545   9.434   5.608  1.4052  0.8813 -0.2991
  197MOL0     H26539   9.436   9.447   5.741 -2.0401 -1.9662 -1.5170
  197MOL0     H26540   9.564   9.305   5.887  0.8180  0.8845  0.5531
  197MOL0     H26541   9.683   9.273   5.758 -2.4492 -2.0605 -0.6369
  197MOL0     H26542   9.688   9.516   5.923 -3.0774  0.5560 -0.1465
  197MOL0     H26543   9.648   9.558   5.759  0.4074 -0.7532 -1.3202
  197MOL0     H26544   9.882   9.395   5.870  0.2087 -0.5536  0.4604
  197MOL0     H26545   9.854   9.405   5.696 -1.2038 -1.7699  0.4690
  197MOL0     H26546   9.884   9.699   5.593  0.0710  0.4061  0.0315
  197MOL0     H26547  10.120   9.854   5.552 -1.9746  1.5728 -0.5789
  197MOL0     H26548  10.041   9.969   5.661 -0.3369 -0.5474 -2.4909
  197MOL0     H26549  10.224  10.003   5.789 -0.7716  2.5665 -1.6752
  197MOL0     H26550  10.307   9.857   5.762  1.8684  3.0740  2.2739
  197MOL0     H26551  10.283  10.085   5.557 -0.3158 -1.1226 -1.0625
  197MOL0     H26552  10.330   9.920   5.515 -2.1714 -2.0127  1.8314
  197MOL0     H26553  10.544  10.021   5.576  0.5199  0.2397  1.2794
  197MOL0     H26554  10.495   9.981   5.740  0.4564 -0.1468 -0.0949
  197MOL0     H26555  10.715  10.149   5.581  0.8929  0.1305  0.0569
  197MOL0     H26556  10.921  10.186   5.689 -1.1512 -1.3338 -0.7860
  197MOL0     H26557  11.103  10.580   5.940  1.4736  2.9134  1.9108
  197MOL0     H26558  11.327  10.698   5.947 -1.8608  0.3771  0.9894
  197MOL0     H26559  11.634  10.467   6.009  0.5228  0.2128  0.8138
  197MOL0     H26560  11.677  10.448   5.835 -0.0007 -1.6658  1.1423
  197MOL0     H26561  11.804  10.660   5.844  2.6600 -2.0474 -0.6944
  197MOL0     H26562  11.775  10.684   6.012 -1.8548 -0.2156  1.1641
  197MOL0     H26563  11.907  10.439   6.034  2.4086  1.3468  1.1114
  197MOL0     H26564  11.949  10.476   5.866 -0.1106 -0.6469 -0.1270
  197MOL0     H26565  12.013  10.636   6.118  2.2735  2.0632 -0.2866
  197MOL0     H26566  12.024  10.709   5.959 -2.0418 -0.6062 -1.3498
  197MOL0     H26567  12.166  10.503   5.911  0.2753 -1.6081  0.5814
  197MOL0     H26568  12.168  10.463   6.086 -1.7406  1.1554  1.4781
  197MOL0     H26569  12.277  10.724   5.958  3.1632  2.2056  1.3961
  197MOL0     H26570  12.246  10.695   6.135  1.7179 -1.3163  1.3952
  197MOL0     H26571  12.453  10.537   5.989  0.8495  2.4214 -1.5446
  197MOL0     H26572  12.410  10.524   6.155  1.5843  0.6543  0.8631
  197MOL0     H26573  12.479  10.745   6.220  0.4135  0.8173  0.7441
  197MOL0     H26574  12.607  10.672   6.119 -1.5672 -2.8243  2.8707
  197MOL0     H26575  11.497  10.339   5.757  1.0111  2.0005 -1.4834
  197MOL0     H26576  11.280  10.231   5.769  0.8015  0.5991 -1.3141
  197MOL0     H26577  10.698  10.406   5.997 -2.4701 -2.2159  1.0216
  197MOL0     H26578  10.488  10.320   5.902 -0.1859 -1.8236  0.2543
  197MOL0     H26579   9.104   8.802   5.511 -0.7940 -1.1347  1.3420
  197MOL0     H26580   8.927   8.699   5.661 -3.4073 -1.0158 -0.2989
  197MOL0     H26581   8.651   8.610   5.870  0.2788 -2.7868  2.6884
  197MOL0     H26582   8.496   8.477   6.006  1.1551 -1.1659  1.1659
  197MOL0     H26583   8.374   8.423   6.247 -0.1941 -1.1526 -0.3164
  197MOL0     H26584   8.298   8.408   6.088 -0.2463  3.1147 -1.3701
  197MOL0     H26585   8.122   8.525   6.303 -0.9908  1.3691 -1.4113
  197MOL0     H26586   8.156   8.356   6.330 -2.6888 -0.6917 -0.3085
  197MOL0     H26587   7.951   8.429   6.215  0.9612 -0.2783  0.1635
  197MOL0     H26588   8.030   8.290   6.147  0.8189  0.7566 -1.9083
  197MOL0     H26589   8.041   8.586   6.032 -1.6071 -0.2468  0.2368
  197MOL0     H26590   8.103   8.447   5.939  0.9624  2.2422  0.5075
  197MOL0     H26591   7.671   8.490   5.898 -1.0200  0.2209  0.1066
  197MOL0     H26592   8.296   8.842   6.108 -1.6396 -1.9914  0.1622
  197MOL0     H26593   8.430   9.057   5.895  0.1625 -2.0449  0.6638
  197MOL0     H26594   8.374   9.057   6.061  0.3318  0.2812 -0.2858
  197MOL0     H26595   8.547   9.080   6.040  3.3998 -2.4509 -0.3001
  198MOL0     O26596   4.679   4.052   7.644 -0.4314  0.3702  0.5912
  198MOL0     C26597   4.635   3.985   7.552  0.0476  0.5348  0.5818
  198MOL0     O26598   4.709   3.907   7.465 -0.1656 -0.1215 -0.2262
  198MOL0     C26599   4.848   3.898   7.472 -0.6236  0.5263 -0.5366
  198MOL0     C26600   4.907   3.805   7.388 -0.8106  0.7510  0.2214
  198MOL0     C26601   5.046   3.796   7.367  0.4389  0.2735  0.3138
  198MOL0     C26602   5.131   3.873   7.438 -0.1006 -0.1351  0.0821
  198MOL0     O26603   5.263   3.871   7.421 -0.0802 -1.1979  0.6433
  198MOL0     C26604   5.319   3.795   7.315  0.4824 -0.6946  0.0042
  198MOL0     C26605   5.465   3.793   7.345  0.3206  0.1788  1.5339
  198MOL0     C26606   5.535   3.689   7.252  0.3674  0.4168 -0.3161
  198MOL0     C26607   5.683   3.686   7.307  0.2538 -0.8816  0.3122
  198MOL0     C26608   5.777   3.605   7.218  0.0461  1.1575  0.0802
  198MOL0     C26609   5.919   3.655   7.235 -0.3933 -0.1955  0.6055
  198MOL0     C26610   6.009   3.559   7.163 -0.1569 -0.1204 -0.1155
  198MOL0     C26611   6.140   3.636   7.139 -0.8012 -0.3036 -0.7877
  198MOL0     N26612   6.217   3.674   7.263  0.5781 -0.3943  0.7946
  198MOL0     C26613   6.330   3.743   7.260 -0.8620 -0.1231 -0.1303
  198MOL0     C26614   6.388   3.720   7.381 -0.2894 -0.1524  0.0935
  198MOL0     C26615   6.525   3.755   7.422  0.0463  0.3625 -1.4038
  198MOL0     C26616   6.548   3.887   7.497  0.1453  0.9255  0.3320
  198MOL0     C26617   6.510   4.008   7.406  0.5951  0.9922 -0.1558
  198MOL0     C26618   6.594   4.021   7.274  0.3410  0.1536 -0.0630
  198MOL0     O26619   6.735   4.037   7.298  0.0311 -0.2887 -0.1531
  198MOL0     C26620   6.806   4.096   7.202 -0.2432  0.3933 -0.2565
  198MOL0     C26621   6.931   4.144   7.251  0.7793  0.4688 -1.1374
  198MOL0     C26622   7.025   4.201   7.168  0.3372 -0.1865 -0.1454
  198MOL0     C26623   7.001   4.209   7.032 -0.2440 -0.4363 -1.1039
  198MOL0     C26624   7.106   4.260   6.945  0.4848  0.5267 -0.2210
  198MOL0     O26625   7.237   4.237   6.978  0.4264  0.1848  0.0908
  198MOL0     C26626   7.335   4.259   6.884 -0.1520  0.6915 -0.8512
  198MOL0     C26627   7.436   4.162   6.880  0.5984 -0.0948  0.7747
  198MOL0     C26628   7.544   4.165   6.799 -0.1019 -1.0956 -0.0265
  198MOL0     C26629   7.565   4.286   6.728 -0.5806 -0.5939 -0.0764
  198MOL0     O26630   7.675   4.317   6.651 -0.0512  0.4345 -0.0733
  198MOL0     C26631   7.773   4.224   6.641 -0.6752  0.1853 -0.6028
  198MOL0     C26632   7.897   4.282   6.571 -0.9574  0.0617 -0.4967
  198MOL0     C26633   8.026   4.204   6.603  0.6684  0.1146  0.7213
  198MOL0     C26634   8.148   4.267   6.544 -0.1908 -0.9445  0.1061
  198MOL0     C26635   8.211   4.356   6.657 -0.2501 -0.5620 -0.4897
  198MOL0     C26636   8.346   4.432   6.616 -1.9228 -0.5050 -0.1439
  198MOL0     C26637   8.334   4.528   6.488 -0.4762 -0.3035  0.0470
  198MOL0     C26638   8.466   4.608   6.480  0.4408  0.3520 -0.5574
  198MOL0    Cl26639   8.608   4.504   6.499 -0.4623 -0.0997 -0.0723
  198MOL0     C26640   7.471   4.382   6.740  0.7535  0.3277  0.9650
  198MOL0     C26641   7.352   4.375   6.812 -0.1868  0.1431 -0.0135
  198MOL0     O26642   7.067   4.296   6.832 -0.1543 -0.1601 -0.6692
  198MOL0     C26643   6.893   4.147   6.986 -0.1480 -0.1620 -0.0190
  198MOL0     C26644   6.789   4.097   7.067  0.1567  0.1448 -0.0178
  198MOL0     N26645   6.308   3.631   7.451 -0.4599  0.0105  0.1480
  198MOL0     N26646   6.198   3.602   7.381 -0.3113  0.4676 -0.2602
  198MOL0     C26647   5.074   3.964   7.530 -0.5347  0.0403  0.6406
  198MOL0     C26648   4.939   3.979   7.545  0.9637  1.2572 -0.2965
  198MOL0     C26649   4.491   4.008   7.523 -0.7667 -0.0434  1.2501
  198MOL0     C26650   4.433   4.134   7.554  0.8690  0.9371  0.2251
  198MOL0     C26651   4.301   4.165   7.512 -0.1941  0.7323 -0.2668
  198MOL0     C26652   4.216   4.074   7.454 -0.8100  0.7743  1.1012
  198MOL0     O26653   4.084   4.094   7.419 -0.5472 -0.0482  1.0011
  198MOL0     C26654   4.025   4.221   7.441  0.0655 -0.3929  0.1095
  198MOL0     C26655   3.899   4.246   7.367  0.6503  0.1659 -1.1342
  198MOL0     C26656   3.796   4.135   7.410  0.5231  0.2501 -0.3179
  198MOL0     C26657   3.659   4.159   7.340 -0.1197  0.4093 -0.1299
  198MOL0     C26658   3.593   4.029   7.342  0.1818  0.0069 -0.3786
  198MOL0     C26659   3.550   3.920   7.339  0.7057  0.6425 -0.6358
  198MOL0     C26660   4.273   3.951   7.418 -1.2072 -0.4170 -0.5905
  198MOL0     C26661   4.408   3.917   7.455 -0.3405  0.8028  0.5530
  198MOL0     C26662   4.453   3.768   7.426  0.4540 -0.0617 -0.4564
  198MOL0     H26663   4.832   3.748   7.333  0.1768  0.9426 -1.3875
  198MOL0     H26664   5.076   3.725   7.291  0.3126  0.7369 -0.1769
  198MOL0     H26665   5.277   3.694   7.321 -0.6059 -0.2138  1.0093
  198MOL0     H26666   5.295   3.839   7.218 -2.3611 -1.2715  0.3723
  198MOL0     H26667   5.487   3.758   7.446 -0.8539  0.1546  1.7960
  198MOL0     H26668   5.500   3.895   7.330 -1.5522  0.3377 -3.7232
  198MOL0     H26669   5.555   3.728   7.152  0.8340  1.0783  0.0261
  198MOL0     H26670   5.490   3.590   7.245  1.5841 -0.1733  0.1127
  198MOL0     H26671   5.719   3.789   7.313  0.8919 -1.1612  1.9846
  198MOL0     H26672   5.677   3.654   7.412  1.5771 -0.0363  0.6690
  198MOL0     H26673   5.761   3.499   7.237 -1.8887  1.3658 -0.2007
  198MOL0     H26674   5.749   3.607   7.112  1.2576 -1.4869 -0.3679
  198MOL0     H26675   5.912   3.757   7.195  0.2805 -0.3441  0.0889
  198MOL0     H26676   5.941   3.658   7.342 -3.2395 -0.3697  1.2803
  198MOL0     H26677   5.962   3.539   7.066 -2.6978 -3.1181  1.5748
  198MOL0     H26678   6.017   3.466   7.219 -1.7179 -0.5784 -0.6030
  198MOL0     H26679   6.215   3.572   7.092  1.4430  2.5473 -1.3306
  198MOL0     H26680   6.140   3.730   7.084  0.9204  1.7236  2.3647
  198MOL0     H26681   6.365   3.792   7.170 -0.6121  0.7633  0.4299
  198MOL0     H26682   6.545   3.678   7.497 -1.4412  2.0133  0.7904
  198MOL0     H26683   6.599   3.727   7.346 -0.6429 -3.2420 -0.9173
  198MOL0     H26684   6.492   3.892   7.591 -1.1580  1.5312 -0.4446
  198MOL0     H26685   6.655   3.894   7.516  0.9659 -2.6516 -2.0023
  198MOL0     H26686   6.527   4.106   7.452  0.9463  2.5276 -3.3405
  198MOL0     H26687   6.406   4.004   7.374  1.2814  0.5514 -2.5148
  198MOL0     H26688   6.552   4.103   7.214 -0.3438 -0.1748 -0.0460
  198MOL0     H26689   6.590   3.926   7.220 -0.3887  0.4370 -0.5305
  198MOL0     H26690   6.943   4.139   7.359  0.9173 -1.3983 -1.2074
  198MOL0     H26691   7.118   4.245   7.203  0.5871  0.1562 -1.2114
  198MOL0     H26692   7.430   4.078   6.947  0.7039 -2.1298 -1.6289
  198MOL0     H26693   7.621   4.088   6.800  0.7140 -0.3475  2.2099
  198MOL0     H26694   7.799   4.181   6.739 -0.6680 -2.4660 -1.6702
  198MOL0     H26695   7.739   4.145   6.574  2.0755 -2.4794  0.8682
  198MOL0     H26696   7.884   4.293   6.463 -0.7208 -0.0352 -0.5364
  198MOL0     H26697   7.903   4.379   6.622  0.5451 -0.0473 -0.4255
  198MOL0     H26698   8.028   4.182   6.710 -4.4295  0.4334  1.0989
  198MOL0     H26699   8.008   4.105   6.561 -1.0810 -0.3735  2.4868
  198MOL0     H26700   8.130   4.317   6.449  0.9031 -0.0177  0.3738
  198MOL0     H26701   8.217   4.185   6.523  1.6397  0.5837 -0.0748
  198MOL0     H26702   8.226   4.304   6.751 -1.4752  2.7653  1.7551
  198MOL0     H26703   8.153   4.445   6.684  3.4851  1.6281  1.1066
  198MOL0     H26704   8.379   4.504   6.691 -0.0787 -0.0370 -1.3296
  198MOL0     H26705   8.431   4.364   6.605  0.0707  1.7617  0.1907
  198MOL0     H26706   8.247   4.594   6.492 -0.8516 -0.8396  1.0105
  198MOL0     H26707   8.320   4.466   6.399 -1.1543 -1.0828  0.6793
  198MOL0     H26708   8.469   4.659   6.383 -2.8947  1.2741 -0.2950
  198MOL0     H26709   8.469   4.683   6.559 -2.6144 -1.2021  1.1937
  198MOL0     H26710   7.488   4.475   6.687  1.3072 -0.0688  0.4346
  198MOL0     H26711   7.288   4.460   6.833 -1.7725 -1.2197  0.8910
  198MOL0     H26712   6.872   4.153   6.879 -1.7390  2.8978  0.3252
  198MOL0     H26713   6.712   4.033   7.026  0.2052  0.9403 -1.4297
  198MOL0     H26714   5.151   4.023   7.579  2.4625 -2.2774 -0.9863
  198MOL0     H26715   4.910   4.053   7.619  0.3804  0.0245  0.7391
  198MOL0     H26716   4.488   4.214   7.604  2.4453 -1.1401  1.9854
  198MOL0     H26717   4.268   4.267   7.522 -0.4214  0.8976 -2.2566
  198MOL0     H26718   4.096   4.295   7.403  1.8236 -1.2652  1.5539
  198MOL0     H26719   3.999   4.254   7.543  1.1816  0.6815  0.0771
  198MOL0     H26720   3.923   4.233   7.261  1.9461 -0.3495 -0.7980
  198MOL0     H26721   3.854   4.345   7.376 -1.1194 -0.7686  1.7097
  198MOL0     H26722   3.797   4.142   7.519 -4.4179 -0.7010  0.0123
  198MOL0     H26723   3.838   4.039   7.381 -3.1659 -1.5641 -0.1476
  198MOL0     H26724   3.593   4.235   7.382 -1.9590  0.0166 -2.1073
  198MOL0     H26725   3.689   4.185   7.238  3.0445 -0.5424  0.4550
  198MOL0     H26726   3.523   3.817   7.351  1.1901  0.4745 -0.9548
  198MOL0     H26727   4.215   3.869   7.378 -0.6052 -0.5085 -1.2944
  198MOL0     H26728   4.521   3.739   7.507  0.4681  2.4155  0.5095
  198MOL0     H26729   4.366   3.704   7.439 -0.8021  2.0442  2.7837
  198MOL0     H26730   4.480   3.738   7.325 -0.6987 -0.1118 -0.7666
  199MOL0     O26731   8.104   9.570   0.030 -0.1263  0.2073  0.0425
  199MOL0     C26732   8.054   9.559   0.140  0.4551 -0.0604  0.2024
  199MOL0     O26733   8.133   9.540   0.249  0.5316  0.0829 -0.6597
  199MOL0     C26734   8.267   9.573   0.261 -0.0073  0.3628 -0.7505
  199MOL0     C26735   8.328   9.674   0.186 -0.9006  0.6993 -0.1055
  199MOL0     C26736   8.456   9.703   0.198  0.4899 -0.4154  0.4385
  199MOL0     C26737   8.547   9.625   0.269  1.6716 -0.1550 -0.4148
  199MOL0     O26738   8.679   9.651   0.275  0.5370 -0.1052  0.2374
  199MOL0     C26739   8.781   9.545   0.281  0.4078  0.2377  0.1877
  199MOL0     C26740   8.884   9.575   0.389  0.0674 -0.0228  0.8667
  199MOL0     C26741   8.995   9.683   0.362  0.2147 -0.1937 -0.2081
  199MOL0     C26742   9.068   9.642   0.237  0.5085  0.2030  1.0891
  199MOL0     C26743   9.194   9.721   0.217 -0.1455 -0.1790 -0.0813
  199MOL0     C26744   9.269   9.681   0.091  0.1687 -0.4387 -0.2988
  199MOL0     C26745   9.192   9.707  -0.038  0.7686  0.5079  0.1903
  199MOL0     C26746   9.277   9.685  -0.165 -0.1141  0.1866 -0.3396
  199MOL0     N26747   9.311   9.547  -0.176  0.2321 -0.1348  0.7932
  199MOL0     C26748   9.439   9.489  -0.178  0.6861  0.0918  0.2345
  199MOL0     C26749   9.412   9.369  -0.223 -0.9048  0.2069 -0.4557
  199MOL0     C26750   9.519   9.271  -0.254  0.2419 -0.0248  0.3736
  199MOL0     C26751   9.619   9.315  -0.365  0.5578  0.4207  0.3409
  199MOL0     C26752   9.715   9.217  -0.434 -1.2157 -0.1694  0.2150
  199MOL0     C26753   9.769   9.279  -0.576 -0.5654 -0.0023 -0.8312
  199MOL0     O26754   9.818   9.404  -0.554 -0.4841  0.3089  0.0196
  199MOL0     C26755   9.857   9.478  -0.660 -0.2112  0.2214 -0.5441
  199MOL0     C26756   9.895   9.612  -0.634 -0.3535  0.4039 -0.2811
  199MOL0     C26757   9.956   9.697  -0.722 -0.4512 -1.2511 -0.2243
  199MOL0     C26758   9.980   9.653  -0.853  0.8767 -0.7093 -0.1501
  199MOL0     C26759  10.027   9.746  -0.961  0.8676  0.5987  0.0032
  199MOL0     O26760  10.042   9.695  -1.087  0.2811 -0.4813  0.4044
  199MOL0     C26761  10.081   9.776  -1.196 -0.7201  0.7126  0.3758
  199MOL0     C26762  10.221   9.794  -1.203  0.0402  0.0168  0.5584
  199MOL0     C26763  10.277   9.875  -1.299  0.1361  0.4214 -1.1283
  199MOL0     C26764  10.197   9.959  -1.372  0.3215  0.3025  0.2604
  199MOL0     O26765  10.272  10.048  -1.438 -0.5582  0.7293 -0.7190
  199MOL0     C26766  10.212  10.123  -1.541  0.3591 -0.3045  0.0437
  199MOL0     C26767  10.336  10.213  -1.588  0.1476  1.0914 -0.3678
  199MOL0     C26768  10.358  10.329  -1.493  0.1828 -0.5914 -0.2467
  199MOL0     C26769  10.378  10.469  -1.561  0.0513 -0.1518 -0.8293
  199MOL0     C26770  10.469  10.558  -1.482 -0.3549  0.3409  0.6406
  199MOL0     C26771  10.441  10.615  -1.352  0.3554 -0.7338 -0.6845
  199MOL0     C26772  10.312  10.703  -1.353 -0.1978  0.5775 -0.1601
  199MOL0     C26773  10.270  10.741  -1.211 -0.0569  0.3817  1.1041
  199MOL0    Cl26774  10.193  10.605  -1.138 -0.7257  0.0697 -0.2060
  199MOL0     C26775  10.052   9.942  -1.373 -0.7723  0.1343  0.0612
  199MOL0     C26776   9.995   9.844  -1.282 -0.2048  0.3941  0.1049
  199MOL0     O26777  10.045   9.864  -0.931  0.6012 -0.3612 -0.0248
  199MOL0     C26778   9.938   9.517  -0.879 -0.6211 -0.0283  0.7264
  199MOL0     C26779   9.875   9.432  -0.787 -0.7694 -1.0785 -0.3255
  199MOL0     N26780   9.278   9.357  -0.255 -0.2204 -0.1838 -0.0206
  199MOL0     N26781   9.216   9.458  -0.211 -0.3707 -0.0504  0.4564
  199MOL0     C26782   8.487   9.530   0.355 -0.3667 -0.3440 -0.1405
  199MOL0     C26783   8.352   9.512   0.358 -0.5765 -0.3167  0.4843
  199MOL0     C26784   7.902   9.564   0.153  0.4216 -0.1021 -0.4352
  199MOL0     C26785   7.846   9.568   0.285 -0.0779 -0.0489 -0.1110
  199MOL0     C26786   7.708   9.585   0.304  0.9410  0.5322  0.6050
  199MOL0     C26787   7.619   9.605   0.200 -0.2776 -0.4487  0.2051
  199MOL0     O26788   7.480   9.610   0.224 -0.2151 -0.3817  0.5973
  199MOL0     C26789   7.424   9.634   0.353 -0.9374  0.5149  0.5868
  199MOL0     C26790   7.395   9.493   0.408 -0.4588 -0.4508 -0.1396
  199MOL0     C26791   7.277   9.437   0.330  0.6137 -0.9358  0.4024
  199MOL0     C26792   7.228   9.308   0.404 -0.3374  0.0829 -0.6036
  199MOL0     C26793   7.163   9.326   0.534 -0.4021  0.0682 -0.1521
  199MOL0     C26794   7.104   9.366   0.629  0.5655  0.4266 -0.3447
  199MOL0     C26795   7.672   9.612   0.078 -0.2637  0.1984  0.7448
  199MOL0     C26796   7.808   9.594   0.041 -0.5065  0.3245 -0.0443
  199MOL0     C26797   7.846   9.596  -0.106 -0.1208  0.3057  0.2675
  199MOL0     H26798   8.283   9.756   0.131  1.6291  2.4115  0.1657
  199MOL0     H26799   8.508   9.778   0.140  4.1141 -2.2506  0.9660
  199MOL0     H26800   8.732   9.453   0.316 -1.2975  1.9056  2.5000
  199MOL0     H26801   8.831   9.535   0.185 -2.9355 -1.0462 -1.5824
  199MOL0     H26802   8.931   9.479   0.415 -1.0477 -0.9041 -0.2580
  199MOL0     H26803   8.829   9.601   0.480  1.3658  1.4150  1.2868
  199MOL0     H26804   9.067   9.697   0.444 -1.4832 -0.5505  1.4203
  199MOL0     H26805   8.947   9.779   0.344  0.4656  0.4685  2.2358
  199MOL0     H26806   9.098   9.538   0.249  0.4403  0.3209  2.4646
  199MOL0     H26807   9.004   9.653   0.150  2.3112  2.9696 -0.0477
  199MOL0     H26808   9.170   9.827   0.202  0.0008 -0.2222 -0.6199
  199MOL0     H26809   9.254   9.722   0.309 -0.5411  0.5412  0.1795
  199MOL0     H26810   9.367   9.731   0.092 -0.2475  0.4435  1.8718
  199MOL0     H26811   9.299   9.576   0.081  0.2491 -0.4532  0.0829
  199MOL0     H26812   9.155   9.809  -0.028  0.4550  0.3745  0.3997
  199MOL0     H26813   9.103   9.644  -0.041  1.2674 -0.3157  1.5422
  199MOL0     H26814   9.217   9.726  -0.246 -1.0406 -2.2682 -1.0040
  199MOL0     H26815   9.367   9.746  -0.163 -0.3211  0.5530 -1.4634
  199MOL0     H26816   9.538   9.533  -0.171  1.4992 -1.6306  0.0595
  199MOL0     H26817   9.580   9.249  -0.166 -2.4223  2.2752  2.9948
  199MOL0     H26818   9.466   9.183  -0.292  1.9220 -1.0874  0.3873
  199MOL0     H26819   9.553   9.353  -0.444 -1.2448  0.2845  1.7164
  199MOL0     H26820   9.672   9.403  -0.326 -1.2974  1.6542  0.2235
  199MOL0     H26821   9.669   9.118  -0.441 -1.7443 -0.0148  1.2367
  199MOL0     H26822   9.793   9.191  -0.361  0.1284  1.5285 -0.5627
  199MOL0     H26823   9.688   9.273  -0.649 -0.6295  0.0645 -0.7643
  199MOL0     H26824   9.855   9.224  -0.615 -0.6354  2.1726 -4.5317
  199MOL0     H26825   9.883   9.642  -0.530 -3.9952  0.7542 -0.6677
  199MOL0     H26826   9.964   9.802  -0.699 -0.5832 -1.6197  1.6405
  199MOL0     H26827  10.275   9.730  -1.134  1.4064  1.5127  0.9394
  199MOL0     H26828  10.385   9.884  -1.301  0.2206 -0.5236 -1.1853
  199MOL0     H26829  10.192  10.055  -1.624  1.2327  1.4442 -1.6754
  199MOL0     H26830  10.117  10.174  -1.522 -0.1825 -0.9470 -0.8794
  199MOL0     H26831  10.427  10.155  -1.601 -0.3629 -0.1828  1.3166
  199MOL0     H26832  10.326  10.254  -1.689  0.7742  3.5349  0.4834
  199MOL0     H26833  10.289  10.338  -1.408  0.4986 -2.5658  0.2668
  199MOL0     H26834  10.452  10.294  -1.449 -0.3458 -0.7487  0.8102
  199MOL0     H26835  10.287  10.529  -1.567  2.3916  3.8197 -0.1893
  199MOL0     H26836  10.414  10.455  -1.664 -1.8143 -0.5802 -1.4726
  199MOL0     H26837  10.506  10.637  -1.548 -0.2379  0.1232  0.4426
  199MOL0     H26838  10.560  10.499  -1.464 -0.1319  0.6213  0.4387
  199MOL0     H26839  10.433  10.524  -1.291 -2.7707 -0.6905 -0.8802
  199MOL0     H26840  10.521  10.682  -1.321 -2.3982  2.2540  0.4823
  199MOL0     H26841  10.232  10.640  -1.392  0.8679 -1.7552  1.2267
  199MOL0     H26842  10.342  10.789  -1.414  2.7671 -0.7986 -0.8582
  199MOL0     H26843  10.361  10.773  -1.159  0.2222 -0.2453  1.0139
  199MOL0     H26844  10.191  10.817  -1.205 -1.3095 -0.7539 -0.2616
  199MOL0     H26845   9.978   9.999  -1.429 -2.0709  0.1044  1.6580
  199MOL0     H26846   9.889   9.824  -1.277  0.1710 -2.1325 -0.4857
  199MOL0     H26847   9.976   9.478  -0.973  0.7628  2.0209  0.3738
  199MOL0     H26848   9.840   9.334  -0.818 -2.1527 -0.6459 -0.1901
  199MOL0     H26849   8.553   9.471   0.417 -0.2414  1.8666  2.0292
  199MOL0     H26850   8.309   9.444   0.430  1.4213  0.3030  2.3500
  199MOL0     H26851   7.909   9.545   0.370 -2.7429 -0.5494  1.8694
  199MOL0     H26852   7.669   9.574   0.404  1.5203 -1.6397  0.6404
  199MOL0     H26853   7.335   9.698   0.352 -1.2323  0.1680 -2.2164
  199MOL0     H26854   7.492   9.666   0.432 -0.0184  2.0902 -0.7962
  199MOL0     H26855   7.378   9.497   0.515 -1.2027 -0.1326 -0.2660
  199MOL0     H26856   7.482   9.434   0.378 -0.4210 -0.2214 -0.5005
  199MOL0     H26857   7.296   9.413   0.225  2.2733  2.1828 -0.1282
  199MOL0     H26858   7.196   9.510   0.343  0.2145 -1.6675  2.3407
  199MOL0     H26859   7.151   9.274   0.334 -3.7692  1.9696  1.9529
  199MOL0     H26860   7.315   9.243   0.417  2.4988  3.9323  1.5643
  199MOL0     H26861   7.048   9.407   0.711 -1.4502 -3.4906  0.4747
  199MOL0     H26862   7.615   9.631  -0.012  0.2396  2.6257  0.8546
  199MOL0     H26863   7.868   9.699  -0.133 -1.7113  0.6591  0.2451
  199MOL0     H26864   7.936   9.535  -0.118 -1.3410 -1.8289  1.1400
  199MOL0     H26865   7.769   9.554  -0.172  1.4378 -0.2265 -1.2774
  200MOL0     O26866   1.607   0.101   3.705 -0.6675  0.1054 -0.0235
  200MOL0     C26867   1.515   0.163   3.663 -0.2590  0.3000  0.4946
  200MOL0     O26868   1.522   0.262   3.575  0.0858 -0.8386  0.2684
  200MOL0     C26869   1.644   0.277   3.516 -0.3278 -0.3294 -0.2077
  200MOL0     C26870   1.632   0.298   3.382 -0.1001  0.1537 -1.2381
  200MOL0     C26871   1.746   0.306   3.296  0.2122 -0.7460  0.8330
  200MOL0     C26872   1.871   0.300   3.353 -0.4414 -0.1218 -0.2813
  200MOL0     O26873   1.979   0.318   3.263  0.3990 -0.5506  0.4974
  200MOL0     C26874   2.108   0.285   3.309 -0.3960  0.1840  0.3406
  200MOL0     C26875   2.203   0.352   3.199  0.7021  0.4671 -0.2686
  200MOL0     C26876   2.196   0.507   3.195 -0.2056  0.0372 -0.1307
  200MOL0     C26877   2.254   0.557   3.065 -0.8623  0.4290  0.0047
  200MOL0     C26878   2.301   0.707   3.063 -0.3570  0.0458  0.3982
  200MOL0     C26879   2.455   0.726   3.086 -0.6743 -0.5110  0.3341
  200MOL0     C26880   2.500   0.694   3.227  0.4221 -0.0436 -0.0852
  200MOL0     C26881   2.447   0.775   3.345  0.1541 -0.4617 -0.5538
  200MOL0     N26882   2.469   0.921   3.352 -0.1711  0.0445 -0.1419
  200MOL0     C26883   2.428   1.022   3.263  0.5618 -0.3895  0.4231
  200MOL0     C26884   2.490   1.131   3.306  0.5772  0.0196 -0.5801
  200MOL0     C26885   2.494   1.264   3.246  0.3801 -0.7614  0.6209
  200MOL0     C26886   2.615   1.349   3.273  0.8805  0.3101  0.9291
  200MOL0     C26887   2.602   1.477   3.194  0.5408  0.2032 -0.0877
  200MOL0     C26888   2.478   1.561   3.231 -0.3326 -0.1666 -0.1170
  200MOL0     O26889   2.495   1.701   3.195  0.0662 -0.7354 -0.3120
  200MOL0     C26890   2.417   1.798   3.244  0.5186 -0.1548 -0.2000
  200MOL0     C26891   2.465   1.928   3.227  0.1567 -0.8918 -1.0615
  200MOL0     C26892   2.397   2.032   3.296  0.3335  0.1144 -0.7219
  200MOL0     C26893   2.275   2.007   3.359 -0.3159  0.2918 -0.8290
  200MOL0     C26894   2.215   2.106   3.447  0.5663  0.8589 -0.2314
  200MOL0     O26895   2.131   2.061   3.555 -0.0918 -0.0670  0.2911
  200MOL0     C26896   2.110   2.145   3.659 -1.2605  0.2625 -0.0397
  200MOL0     C26897   2.198   2.252   3.704  0.6223 -0.3127 -0.0461
  200MOL0     C26898   2.154   2.350   3.790 -0.2980 -0.6522  0.2661
  200MOL0     C26899   2.027   2.347   3.842  0.8047 -0.1272  0.2691
  200MOL0     O26900   1.965   2.447   3.916  0.3865  0.9312  0.1811
  200MOL0     C26901   1.883   2.522   3.831 -1.0723 -0.1809  0.7442
  200MOL0     C26902   1.784   2.605   3.896 -0.9197  0.4584  0.7331
  200MOL0     C26903   1.671   2.523   3.951 -0.1233 -0.1645 -0.3464
  200MOL0     C26904   1.597   2.460   3.839  0.1362 -0.3434 -0.6934
  200MOL0     C26905   1.452   2.429   3.892  0.0996 -0.0599  0.5774
  200MOL0     C26906   1.437   2.367   4.029 -0.1096 -0.2313  0.2960
  200MOL0     C26907   1.513   2.235   4.057 -0.2695  0.4463 -0.3219
  200MOL0     C26908   1.522   2.202   4.208 -0.5021  0.1937 -0.4135
  200MOL0    Cl26909   1.362   2.192   4.268 -0.1923  0.2173  0.0002
  200MOL0     C26910   1.949   2.232   3.819 -0.4763 -0.1576  0.1737
  200MOL0     C26911   1.988   2.135   3.731 -0.0589 -0.4917  0.4371
  200MOL0     O26912   2.239   2.221   3.425  0.4472  0.4523 -0.5138
  200MOL0     C26913   2.220   1.875   3.363  0.8686 -0.5289 -0.3055
  200MOL0     C26914   2.296   1.772   3.310  0.3606 -1.0929  0.0592
  200MOL0     N26915   2.565   1.095   3.416 -0.1526 -1.1761 -0.4913
  200MOL0     N26916   2.560   0.973   3.436 -0.7680 -0.4319 -0.4517
  200MOL0     C26917   1.883   0.288   3.488  0.4377 -0.1133 -0.2833
  200MOL0     C26918   1.767   0.279   3.572 -0.4681 -0.5637  0.1346
  200MOL0     C26919   1.381   0.123   3.714 -0.7420 -0.0131 -0.0779
  200MOL0     C26920   1.288   0.225   3.686  0.7249 -0.8933  0.3931
  200MOL0     C26921   1.161   0.216   3.737 -0.3595  0.3101 -0.6852
  200MOL0     C26922   1.117   0.097   3.796 -0.1830 -0.0948  0.0415
  200MOL0     O26923   0.981   0.102   3.826  0.0126 -0.5577 -0.5188
  200MOL0     C26924   0.923  -0.025   3.866  0.4209  0.0383 -0.5325
  200MOL0     C26925   0.779  -0.027   3.839  0.4515 -0.4036  0.3500
  200MOL0     C26926   0.706   0.054   3.941 -0.4958 -0.8925  0.7569
  200MOL0     C26927   0.561   0.085   3.900 -0.0811 -0.8010  0.7824
  200MOL0     C26928   0.476  -0.037   3.917  1.1612  0.2093 -0.2256
  200MOL0     C26929   0.403  -0.138   3.934 -0.2195  0.1151  0.3868
  200MOL0     C26930   1.204  -0.000   3.830 -0.7246  0.1844 -0.1310
  200MOL0     C26931   1.342   0.011   3.794  0.4781  0.1505 -0.0388
  200MOL0     C26932   1.435  -0.109   3.832 -0.7613  1.1227  1.5266
  200MOL0     H26933   1.532   0.297   3.339 -2.0860 -2.2283  2.8798
  200MOL0     H26934   1.730   0.320   3.190 -1.4028 -4.9166  0.3538
  200MOL0     H26935   2.141   0.344   3.395  1.6187  0.9253 -0.8870
  200MOL0     H26936   2.127   0.178   3.316 -0.3266  0.1491 -0.3032
  200MOL0     H26937   2.162   0.322   3.102 -0.0961  3.4421 -0.9307
  200MOL0     H26938   2.308   0.322   3.198  0.0286 -2.1886 -0.4898
  200MOL0     H26939   2.251   0.554   3.278  0.7029 -0.0600 -0.6641
  200MOL0     H26940   2.090   0.532   3.192 -0.4962 -1.2149 -0.7972
  200MOL0     H26941   2.343   0.494   3.061  0.5035  2.1669  1.5668
  200MOL0     H26942   2.177   0.546   2.988 -0.7232  3.5636 -0.6823
  200MOL0     H26943   2.275   0.777   2.983 -0.1735  1.5590  1.6074
  200MOL0     H26944   2.242   0.746   3.147  0.4192 -2.2886  2.1358
  200MOL0     H26945   2.510   0.664   3.014 -1.5154 -1.1343  0.2032
  200MOL0     H26946   2.483   0.831   3.074 -0.8215 -0.4354  0.6424
  200MOL0     H26947   2.609   0.694   3.238  0.2390  1.3042  2.6015
  200MOL0     H26948   2.463   0.592   3.244 -1.1286  0.6517  0.8502
  200MOL0     H26949   2.337   0.775   3.346  0.0260  2.9093  2.2498
  200MOL0     H26950   2.483   0.739   3.442  0.2068  1.4707  0.1952
  200MOL0     H26951   2.355   1.021   3.183 -0.2214  1.0667  1.0756
  200MOL0     H26952   2.479   1.260   3.138 -1.1124 -1.4850  0.8267
  200MOL0     H26953   2.413   1.324   3.289  0.6545  0.9579 -1.1144
  200MOL0     H26954   2.623   1.373   3.380 -2.0370 -0.6850  1.4586
  200MOL0     H26955   2.705   1.292   3.252  1.0852  0.0664  2.3260
  200MOL0     H26956   2.621   1.454   3.088 -1.2417  0.4190 -0.4980
  200MOL0     H26957   2.687   1.539   3.221  1.5765 -1.7588  1.3848
  200MOL0     H26958   2.458   1.547   3.338 -3.0679 -5.7472 -1.0353
  200MOL0     H26959   2.388   1.531   3.176  0.3736 -0.2030 -1.2751
  200MOL0     H26960   2.561   1.943   3.179 -0.6423  0.6096 -2.2878
  200MOL0     H26961   2.451   2.126   3.296 -1.1701  1.0331  0.5816
  200MOL0     H26962   2.292   2.274   3.653 -1.0126  1.4424 -2.5328
  200MOL0     H26963   2.217   2.435   3.813 -1.3412  0.9367 -2.2765
  200MOL0     H26964   1.957   2.592   3.793 -0.5616 -1.4013 -0.6148
  200MOL0     H26965   1.837   2.460   3.753  1.8050 -2.1517  0.4609
  200MOL0     H26966   1.838   2.661   3.973  1.7681 -1.7009  0.5745
  200MOL0     H26967   1.743   2.679   3.827  1.3188 -0.5403 -1.8556
  200MOL0     H26968   1.705   2.445   4.019  0.1499  0.5828  0.3977
  200MOL0     H26969   1.608   2.588   4.013 -1.9210 -1.1632 -1.0467
  200MOL0     H26970   1.645   2.372   3.794 -1.4286 -0.8554 -1.4318
  200MOL0     H26971   1.595   2.530   3.754 -0.1714  0.4559 -0.0359
  200MOL0     H26972   1.408   2.357   3.823  1.7587  1.0206 -1.7396
  200MOL0     H26973   1.386   2.516   3.893 -0.8166 -0.5669 -2.9690
  200MOL0     H26974   1.478   2.441   4.098  2.6570 -1.8292  0.5183
  200MOL0     H26975   1.330   2.356   4.046 -0.4138  2.1803  0.2221
  200MOL0     H26976   1.617   2.225   4.023 -0.7041  0.2449 -1.6549
  200MOL0     H26977   1.459   2.151   4.012  0.1234  0.6634 -1.2117
  200MOL0     H26978   1.575   2.113   4.242 -3.5491 -0.5054  3.1833
  200MOL0     H26979   1.564   2.286   4.264  2.0170 -0.8167 -0.6674
  200MOL0     H26980   1.855   2.223   3.872  0.6572  1.4534  2.6315
  200MOL0     H26981   1.927   2.045   3.726 -1.9926  0.6249  2.3031
  200MOL0     H26982   2.126   1.858   3.414 -1.2098  2.4938 -2.7185
  200MOL0     H26983   2.263   1.671   3.335 -0.3722 -0.8095  0.2779
  200MOL0     H26984   1.977   0.300   3.542  0.1972  4.3821 -0.4802
  200MOL0     H26985   1.778   0.272   3.679  0.6823  1.4655  0.1987
  200MOL0     H26986   1.298   0.308   3.618  0.8012 -0.8351  0.4759
  200MOL0     H26987   1.088   0.296   3.735 -2.1912 -1.2721 -0.0848
  200MOL0     H26988   0.949  -0.058   3.967  2.6192 -0.8128 -1.3149
  200MOL0     H26989   0.973  -0.100   3.804  2.4434  1.6328 -0.9227
  200MOL0     H26990   0.729  -0.124   3.836  0.6513 -0.4843 -0.8300
  200MOL0     H26991   0.756   0.016   3.741 -0.0801 -0.5001  0.4303
  200MOL0     H26992   0.739   0.158   3.949 -1.3420 -0.7865  5.6917
  200MOL0     H26993   0.708   0.013   4.042 -1.8734 -2.4808  0.1827
  200MOL0     H26994   0.516   0.162   3.963 -2.6434 -2.0131  0.5320
  200MOL0     H26995   0.552   0.118   3.796 -1.7975 -1.6329  0.6336
  200MOL0     H26996   0.337  -0.221   3.952  0.4505 -0.3053  0.9727
  200MOL0     H26997   1.173  -0.085   3.891 -0.3545  1.3371  1.7336
  200MOL0     H26998   1.466  -0.156   3.738  2.1654  3.9445  0.9017
  200MOL0     H26999   1.523  -0.067   3.880  0.3627  0.9641 -0.3109
  200MOL0     H27000   1.405  -0.188   3.902  0.7454 -1.9837 -1.0423
  201MOL0     O27001   8.498  10.880   5.008  1.0326 -0.6440 -0.4096
  201MOL0     C27002   8.495  10.801   5.103 -0.9772  0.8907  0.1173
  201MOL0     O27003   8.602  10.747   5.170  0.0573  0.2325  0.4738
  201MOL0     C27004   8.730  10.783   5.133  0.5846  0.8151  1.3332
  201MOL0     C27005   8.832  10.798   5.233  0.4992  0.7074 -0.6212
  201MOL0     C27006   8.967  10.822   5.201  0.5039 -0.1357 -0.0127
  201MOL0     C27007   9.003  10.813   5.060 -0.2548  0.0617 -0.2431
  201MOL0     O27008   9.129  10.831   5.011  0.0932 -0.4538 -0.2475
  201MOL0     C27009   9.231  10.899   5.091  0.2952  0.6774  0.4464
  201MOL0     C27010   9.359  10.925   5.012  0.2550 -0.5533  0.3634
  201MOL0     C27011   9.473  11.001   5.085 -0.2757 -0.0520  0.0471
  201MOL0     C27012   9.610  10.992   5.012 -0.9200 -0.5190 -0.4410
  201MOL0     C27013   9.725  11.052   5.099  0.9537 -0.1382 -0.1230
  201MOL0     C27014   9.859  11.014   5.032 -0.5017 -0.7921 -0.0057
  201MOL0     C27015   9.904  10.879   5.064 -0.1689  0.2267 -0.3669
  201MOL0     C27016  10.062  10.863   5.059  0.1604 -0.0522  0.0130
  201MOL0     N27017  10.104  10.722   5.050  0.4452 -0.7197  0.1273
  201MOL0     C27018  10.110  10.656   4.929 -0.4492  0.1318 -0.0205
  201MOL0     C27019  10.142  10.529   4.976 -0.4740 -0.0253 -0.1374
  201MOL0     C27020  10.170  10.415   4.888 -0.5442  0.9086  0.8649
  201MOL0     C27021  10.306  10.362   4.904 -0.8234  0.1012  0.2113
  201MOL0     C27022  10.411  10.455   4.831  0.3534 -0.1114 -0.2529
  201MOL0     C27023  10.550  10.400   4.832  0.6227  0.1393 -0.2361
  201MOL0     O27024  10.617  10.451   4.944  0.0625  0.0093 -0.3283
  201MOL0     C27025  10.753  10.458   4.959 -0.3182  0.4539 -0.9260
  201MOL0     C27026  10.852  10.396   4.874 -0.0633 -0.0457  0.1122
  201MOL0     C27027  10.988  10.398   4.924  0.1604 -0.7662 -0.4335
  201MOL0     C27028  11.024  10.465   5.047 -0.2514  0.6948  0.6328
  201MOL0     C27029  11.159  10.462   5.102 -0.6316 -0.4279 -0.0841
  201MOL0     O27030  11.185  10.523   5.220 -0.3537 -0.0602  0.0915
  201MOL0     C27031  11.311  10.531   5.269 -0.7960  0.0249 -0.7047
  201MOL0     C27032  11.332  10.527   5.406  0.2213  0.2308 -0.4183
  201MOL0     C27033  11.456  10.548   5.464 -0.4313 -0.2176  0.2755
  201MOL0     C27034  11.567  10.588   5.383 -0.8980  0.5321 -0.0589
  201MOL0     O27035  11.687  10.622   5.442  0.1847 -1.0697  0.7103
  201MOL0     C27036  11.689  10.682   5.574 -0.2339 -0.1676  0.0550
  201MOL0     C27037  11.815  10.772   5.592  0.4240  0.7550  1.1817
  201MOL0     C27038  11.947  10.692   5.592  0.1529  0.9071 -0.5356
  201MOL0     C27039  12.071  10.783   5.614 -0.2051 -0.3965  0.2674
  201MOL0     C27040  12.208  10.712   5.586  0.0602  0.0289 -0.1545
  201MOL0     C27041  12.326  10.799   5.601 -0.2892 -0.0995  0.3858
  201MOL0     C27042  12.471  10.739   5.596  0.0031  0.5199 -0.5998
  201MOL0     C27043  12.591  10.832   5.633 -0.5964  0.5901  0.5431
  201MOL0    Cl27044  12.594  10.991   5.540 -0.3791  0.1053  0.0598
  201MOL0     C27045  11.552  10.600   5.249  0.0259 -1.0703  0.0623
  201MOL0     C27046  11.424  10.571   5.188  0.4753 -0.5630 -0.7837
  201MOL0     O27047  11.239  10.409   5.028  0.1849  0.2733 -0.1175
  201MOL0     C27048  10.917  10.514   5.134 -0.4334 -0.0558 -0.0627
  201MOL0     C27049  10.784  10.511   5.085  0.7201 -0.7061 -0.0985
  201MOL0     N27050  10.159  10.530   5.110  0.3097 -0.7474  0.7428
  201MOL0     N27051  10.139  10.648   5.156 -0.2008 -0.1673 -0.5653
  201MOL0     C27052   8.902  10.801   4.964 -0.9418 -0.0489 -0.3971
  201MOL0     C27053   8.771  10.789   4.997  0.7946  1.2952  0.1933
  201MOL0     C27054   8.372  10.750   5.144  0.6511  0.2803 -0.5576
  201MOL0     C27055   8.265  10.842   5.153 -0.5679 -0.2156  0.8029
  201MOL0     C27056   8.134  10.804   5.180 -0.3794 -0.0435 -0.6916
  201MOL0     C27057   8.096  10.676   5.213  0.8284 -0.0438 -0.8410
  201MOL0     O27058   7.968  10.640   5.260 -0.0869  0.8226 -0.2684
  201MOL0     C27059   7.948  10.517   5.324  0.6881  0.4200  0.2089
  201MOL0     C27060   7.828  10.536   5.409  0.1681  0.6209  0.7531
  201MOL0     C27061   7.831  10.640   5.520 -0.0813  0.3859 -0.9775
  201MOL0     C27062   7.707  10.632   5.613  0.0442 -0.2432  0.2532
  201MOL0     C27063   7.729  10.539   5.715  0.4028  0.1409 -0.2805
  201MOL0     C27064   7.743  10.440   5.789 -0.2147  0.4221  0.0253
  201MOL0     C27065   8.200  10.579   5.206 -0.2565  0.3400 -0.9122
  201MOL0     C27066   8.333  10.612   5.167 -0.7657 -0.9589  0.4984
  201MOL0     C27067   8.433  10.490   5.151  0.0608 -0.8438  0.5808
  201MOL0     H27068   8.793  10.795   5.334 -0.4544 -2.9102 -0.9571
  201MOL0     H27069   9.033  10.855   5.281  0.0910 -0.4235  0.4502
  201MOL0     H27070   9.196  11.001   5.107  1.4374  1.8964 -3.5519
  201MOL0     H27071   9.253  10.846   5.184 -0.7146  0.0761  0.3539
  201MOL0     H27072   9.336  10.991   4.928  0.0100 -1.9749 -0.7339
  201MOL0     H27073   9.385  10.824   4.979 -1.9229 -0.9476 -0.3601
  201MOL0     H27074   9.498  10.966   5.186  2.4978  0.4645 -0.3778
  201MOL0     H27075   9.449  11.106   5.100  1.1527  0.1320  1.3586
  201MOL0     H27076   9.626  10.885   4.996  2.6131 -0.4719  1.6940
  201MOL0     H27077   9.605  11.057   4.924 -1.1482  2.7249  1.8338
  201MOL0     H27078   9.705  11.159   5.109  0.9313 -0.0690 -0.8646
  201MOL0     H27079   9.716  11.008   5.199 -5.2381 -0.0034 -0.2135
  201MOL0     H27080   9.851  11.035   4.925 -0.7494  1.2902  0.3749
  201MOL0     H27081   9.927  11.089   5.074 -0.6879 -0.7967  0.3035
  201MOL0     H27082   9.851  10.816   4.992 -2.2905  0.6253  0.7883
  201MOL0     H27083   9.883  10.851   5.167  1.9123 -1.7443 -0.4002
  201MOL0     H27084  10.100  10.918   4.973  1.3921  1.4031  1.4290
  201MOL0     H27085  10.113  10.905   5.146 -0.2201 -0.6555  0.5400
  201MOL0     H27086  10.098  10.678   4.824 -1.9553 -3.3441 -0.7263
  201MOL0     H27087  10.109  10.329   4.918 -1.2025  1.1103  0.1559
  201MOL0     H27088  10.143  10.428   4.783  0.3927 -0.1400  0.4791
  201MOL0     H27089  10.333  10.351   5.010  0.0623 -0.0710 -0.0237
  201MOL0     H27090  10.318  10.263   4.859 -2.1303  0.4677 -0.9997
  201MOL0     H27091  10.431  10.557   4.867  2.0130 -0.7695  0.8347
  201MOL0     H27092  10.371  10.460   4.729  2.6853  0.0971 -1.2231
  201MOL0     H27093  10.608  10.436   4.747  0.3916 -0.5549 -0.6895
  201MOL0     H27094  10.553  10.291   4.827  0.1624  0.0863  0.4662
  201MOL0     H27095  10.834  10.339   4.784 -1.6345 -0.4246  0.6369
  201MOL0     H27096  11.061  10.334   4.874 -0.2228 -1.6993  0.1628
  201MOL0     H27097  11.246  10.502   5.468  1.0452  1.0851  1.1272
  201MOL0     H27098  11.455  10.545   5.572  0.8353 -0.5442  0.2968
  201MOL0     H27099  11.598  10.741   5.582 -1.8085 -2.6066  1.3304
  201MOL0     H27100  11.689  10.599   5.645  1.5331 -1.7270 -1.6385
  201MOL0     H27101  11.823  10.837   5.503  0.4317 -2.0574 -1.0111
  201MOL0     H27102  11.802  10.838   5.678 -2.8201  2.5286 -0.4711
  201MOL0     H27103  11.943  10.614   5.668 -1.0848  0.8409 -0.6511
  201MOL0     H27104  11.978  10.654   5.494  6.7314  1.3656  0.9152
  201MOL0     H27105  12.059  10.814   5.718 -3.3793 -3.6020  1.0652
  201MOL0     H27106  12.065  10.863   5.540 -1.6042 -3.4032 -3.1948
  201MOL0     H27107  12.211  10.669   5.485  0.6654  1.3439 -0.7264
  201MOL0     H27108  12.214  10.626   5.654 -1.5465 -1.7447 -2.1327
  201MOL0     H27109  12.332  10.879   5.527  1.0333 -2.7612 -2.6253
  201MOL0     H27110  12.314  10.841   5.701 -0.8724  2.4916 -0.7121
  201MOL0     H27111  12.485  10.708   5.492  0.4293 -1.6024  0.0590
  201MOL0     H27112  12.480  10.643   5.648  0.7017  0.4541 -0.8385
  201MOL0     H27113  12.602  10.862   5.737 -0.2924 -2.1648  1.3734
  201MOL0     H27114  12.682  10.774   5.616 -2.3048 -2.0718 -0.2245
  201MOL0     H27115  11.641  10.633   5.196 -0.1052 -1.7936 -0.6295
  201MOL0     H27116  11.394  10.588   5.085 -5.4490  1.8860  0.9267
  201MOL0     H27117  10.946  10.539   5.236  2.9920 -4.0992  0.2039
  201MOL0     H27118  10.709  10.557   5.149 -0.0777  1.8722 -2.6859
  201MOL0     H27119   8.928  10.804   4.859  0.9427  4.3226  0.0035
  201MOL0     H27120   8.703  10.794   4.913  0.9313 -2.0041 -0.2399
  201MOL0     H27121   8.297  10.945   5.144  6.3719 -1.8880  1.2103
  201MOL0     H27122   8.058  10.881   5.187  0.2753  0.4792  1.7184
  201MOL0     H27123   8.031  10.482   5.386  0.8741  2.4054  1.1665
  201MOL0     H27124   7.932  10.443   5.245  1.4341  0.4957 -0.0289
  201MOL0     H27125   7.802  10.441   5.457  1.1115 -0.6041 -1.0353
  201MOL0     H27126   7.745  10.569   5.346  0.2128  0.4324  0.5963
  201MOL0     H27127   7.830  10.737   5.469 -1.6500  1.0186  0.1496
  201MOL0     H27128   7.919  10.636   5.585 -1.1785  2.6346  0.8146
  201MOL0     H27129   7.682  10.732   5.651 -2.9237 -1.4513  1.8409
  201MOL0     H27130   7.628  10.594   5.548  0.9754 -1.5924 -0.1300
  201MOL0     H27131   7.743  10.355   5.853  1.8984  0.1305 -0.2677
  201MOL0     H27132   8.174  10.478   5.238  0.0458  0.8157  0.9989
  201MOL0     H27133   8.466  10.471   5.049  1.5820  0.1794  0.8384
  201MOL0     H27134   8.528  10.508   5.203 -0.6832 -0.9944  2.0534
  201MOL0     H27135   8.384  10.406   5.203 -1.5609 -3.0378 -3.9821
  202MOL0     O27136   8.400   8.215   5.449  0.2313 -0.4982  0.2601
  202MOL0     C27137   8.390   8.178   5.562 -0.6180 -0.5410  0.2763
  202MOL0     O27138   8.493   8.174   5.651  0.6090  0.1748  0.5390
  202MOL0     C27139   8.618   8.225   5.614  0.1139 -0.2722 -0.3037
  202MOL0     C27140   8.656   8.346   5.662 -0.7223 -0.4061 -0.7489
  202MOL0     C27141   8.777   8.409   5.621  0.0907 -0.1305 -0.4665
  202MOL0     C27142   8.873   8.339   5.539  0.2263  0.2337 -0.0499
  202MOL0     O27143   8.980   8.410   5.495 -0.2150  0.6551 -0.1073
  202MOL0     C27144   9.067   8.351   5.398  0.7805  0.1122 -0.1593
  202MOL0     C27145   9.139   8.468   5.332 -0.3448 -0.0669 -0.2835
  202MOL0     C27146   9.227   8.555   5.427  0.0924  0.2675  0.5809
  202MOL0     C27147   9.312   8.648   5.342 -0.1924 -0.1105  0.5116
  202MOL0     C27148   9.399   8.748   5.427 -0.4251 -0.1458 -0.3836
  202MOL0     C27149   9.460   8.856   5.338 -0.0451 -0.3606  0.2241
  202MOL0     C27150   9.573   8.934   5.406  1.0897  0.8746 -0.5567
  202MOL0     C27151   9.606   9.060   5.324 -1.1591  0.1582 -0.1239
  202MOL0     N27152   9.727   9.115   5.375 -0.4284  0.2924  0.4437
  202MOL0     C27153   9.855   9.078   5.346 -0.2097 -0.2280  1.4700
  202MOL0     C27154   9.928   9.166   5.414  0.0246  0.0476 -0.3643
  202MOL0     C27155  10.082   9.165   5.425  0.3040 -0.6986 -0.6859
  202MOL0     C27156  10.138   9.227   5.300 -0.0929 -0.2048 -0.1552
  202MOL0     C27157  10.094   9.381   5.276  0.0290  0.6854  0.1037
  202MOL0     C27158  10.134   9.473   5.397  0.5922  0.2183  0.7067
  202MOL0     O27159  10.274   9.490   5.396  0.6146  0.2039  0.1343
  202MOL0     C27160  10.330   9.554   5.501 -0.0722 -0.1703 -0.7217
  202MOL0     C27161  10.313   9.509   5.635 -0.0634 -0.0347 -0.6330
  202MOL0     C27162  10.397   9.565   5.728 -0.0378 -0.4512 -0.6579
  202MOL0     C27163  10.491   9.663   5.696 -0.1376 -0.5413 -0.2540
  202MOL0     C27164  10.582   9.726   5.792 -0.4998  0.7310 -0.6759
  202MOL0     O27165  10.688   9.795   5.749  0.7300  0.5300 -0.2547
  202MOL0     C27166  10.763   9.864   5.838  0.7186 -0.0556 -0.4787
  202MOL0     C27167  10.724   9.952   5.940  0.9885  0.2869  0.1766
  202MOL0     C27168  10.819  10.016   6.029  0.1640  0.3011 -0.4517
  202MOL0     C27169  10.951   9.988   6.001 -0.2301 -0.1696 -0.4455
  202MOL0     O27170  11.036  10.053   6.092  0.5508 -0.1445 -0.1822
  202MOL0     C27171  11.173  10.020   6.088 -0.4696  0.3396 -0.0368
  202MOL0     C27172  11.250  10.127   6.165 -0.1864 -0.6461 -0.5935
  202MOL0     C27173  11.273  10.080   6.315 -0.9438 -0.3553 -0.1062
  202MOL0     C27174  11.305  10.201   6.412  0.3439 -0.4908 -0.1781
  202MOL0     C27175  11.354  10.142   6.547  0.3212  0.3488  0.9767
  202MOL0     C27176  11.332  10.240   6.666 -0.3595 -0.1749 -0.6343
  202MOL0     C27177  11.186  10.256   6.709 -0.4939 -0.5025  0.5869
  202MOL0     C27178  11.107  10.130   6.720  0.7613  0.0614 -0.9559
  202MOL0    Cl27179  10.970  10.152   6.838 -0.0983  0.2256 -0.3306
  202MOL0     C27180  10.989   9.898   5.904 -0.3963 -0.7265  0.0824
  202MOL0     C27181  10.899   9.839   5.822  0.2124  0.0585  0.7801
  202MOL0     O27182  10.546   9.707   5.911 -0.4806  0.1650 -0.5571
  202MOL0     C27183  10.502   9.706   5.564  0.4649 -0.3446 -0.3598
  202MOL0     C27184  10.434   9.642   5.469 -0.4197  1.1213 -0.6731
  202MOL0     N27185   9.853   9.250   5.484 -0.2220  0.1904 -0.1266
  202MOL0     N27186   9.728   9.224   5.461  0.4289 -0.4437 -0.8694
  202MOL0     C27187   8.837   8.212   5.502 -0.1054 -0.5489  0.9262
  202MOL0     C27188   8.711   8.154   5.536  0.6269  0.0618  0.2963
  202MOL0     C27189   8.263   8.123   5.606  0.1761 -0.8310  0.5850
  202MOL0     C27190   8.167   8.093   5.501 -0.5526 -0.6910  0.3529
  202MOL0     C27191   8.039   8.043   5.529 -0.4993 -0.2795  0.6980
  202MOL0     C27192   8.011   7.997   5.657  0.5561 -0.0752  0.2635
  202MOL0     O27193   7.898   7.922   5.672 -0.6647 -0.1931  0.2240
  202MOL0     C27194   7.877   7.823   5.769 -0.1338 -0.5690  0.4667
  202MOL0     C27195   7.989   7.716   5.750 -0.6056  0.0023 -0.1496
  202MOL0     C27196   7.969   7.623   5.867  0.0266  0.3521 -0.1787
  202MOL0     C27197   8.096   7.586   5.955 -0.1666  0.1606  0.6026
  202MOL0     C27198   8.202   7.530   5.875 -0.1805 -0.2030  0.7400
  202MOL0     C27199   8.288   7.499   5.792  0.3841  0.0229  0.6245
  202MOL0     C27200   8.099   8.023   5.763 -1.3739  0.1536 -1.2829
  202MOL0     C27201   8.221   8.097   5.739  0.3092  0.5755  0.0407
  202MOL0     C27202   8.293   8.147   5.862  0.3677  0.1918  0.7103
  202MOL0     H27203   8.598   8.400   5.736 -0.4901  1.1013 -1.6370
  202MOL0     H27204   8.787   8.506   5.668  2.2615 -0.2069 -0.6970
  202MOL0     H27205   9.148   8.292   5.441  2.9361  2.3388 -0.9242
  202MOL0     H27206   9.027   8.282   5.323 -0.1179 -0.2313  0.6191
  202MOL0     H27207   9.061   8.529   5.286 -0.4662 -0.5316 -0.6935
  202MOL0     H27208   9.203   8.428   5.253  0.5654 -0.2380  0.5172
  202MOL0     H27209   9.287   8.487   5.488  0.4154  0.3363  0.3412
  202MOL0     H27210   9.158   8.607   5.493 -2.6904 -1.4930 -0.7403
  202MOL0     H27211   9.375   8.594   5.271 -2.4537 -0.0306 -1.6979
  202MOL0     H27212   9.248   8.712   5.280  2.7102  1.5402 -1.0052
  202MOL0     H27213   9.340   8.797   5.504  0.5962 -2.5841  2.1379
  202MOL0     H27214   9.474   8.680   5.469 -0.6905 -0.7762 -0.8976
  202MOL0     H27215   9.506   8.805   5.253  0.5910 -0.5760  0.6904
  202MOL0     H27216   9.383   8.926   5.306 -0.3108 -0.2747  1.0262
  202MOL0     H27217   9.666   8.877   5.417  1.7002  2.1232  1.0457
  202MOL0     H27218   9.527   8.968   5.499  0.7926 -3.2893  1.0526
  202MOL0     H27219   9.620   9.025   5.221 -3.7290 -0.9688 -0.1665
  202MOL0     H27220   9.523   9.131   5.328 -1.0774  0.2144  3.6254
  202MOL0     H27221   9.888   8.994   5.286 -0.5422  1.0235 -0.5313
  202MOL0     H27222  10.121   9.217   5.512 -0.0789 -0.8264 -0.4392
  202MOL0     H27223  10.122   9.063   5.435  1.0672 -0.2707  0.8540
  202MOL0     H27224  10.247   9.222   5.310  0.2163  1.0985 -2.3784
  202MOL0     H27225  10.105   9.176   5.210 -0.4774  0.8518 -0.6290
  202MOL0     H27226   9.987   9.372   5.259  0.0314 -1.8072  1.0152
  202MOL0     H27227  10.134   9.413   5.179 -0.0854 -0.8506 -0.4858
  202MOL0     H27228  10.108   9.425   5.491  1.8626 -1.3126  0.3350
  202MOL0     H27229  10.079   9.566   5.384 -1.7082 -1.1909 -0.2059
  202MOL0     H27230  10.239   9.435   5.664  0.6199 -0.5829 -0.2565
  202MOL0     H27231  10.381   9.538   5.832 -1.4533 -0.3435 -0.8371
  202MOL0     H27232  10.616   9.957   5.948  0.7287 -2.9799  0.1262
  202MOL0     H27233  10.792  10.089   6.106 -0.1433  0.8162 -1.0383
  202MOL0     H27234  11.210   9.921   6.115  2.0230  0.8206 -1.3234
  202MOL0     H27235  11.198  10.031   5.982 -0.7086  2.5098  0.0850
  202MOL0     H27236  11.347  10.143   6.116 -0.5781 -3.1450 -2.4063
  202MOL0     H27237  11.191  10.219   6.166  0.0247 -0.4937  1.4604
  202MOL0     H27238  11.177  10.039   6.346 -1.4459 -0.0552 -1.2270
  202MOL0     H27239  11.351  10.003   6.320  0.3131  0.8432 -0.4407
  202MOL0     H27240  11.212  10.257   6.427  0.4763 -0.8236  2.1792
  202MOL0     H27241  11.378  10.268   6.367  0.5033  1.2559  2.4882
  202MOL0     H27242  11.460  10.117   6.554  1.0843  3.2814  0.9655
  202MOL0     H27243  11.294  10.051   6.555 -0.8341  1.1213  1.3520
  202MOL0     H27244  11.383  10.207   6.757 -3.0482  0.9943  1.4224
  202MOL0     H27245  11.378  10.335   6.640  0.1844  0.0812  1.1405
  202MOL0     H27246  11.135  10.327   6.645  0.0893 -2.3230 -2.0464
  202MOL0     H27247  11.197  10.299   6.809  0.8173  0.8883 -0.1191
  202MOL0     H27248  11.064  10.109   6.621 -2.4200  0.4859  0.2128
  202MOL0     H27249  11.165  10.046   6.760 -0.7442 -0.6526 -0.1922
  202MOL0     H27250  11.090   9.864   5.886  0.6202  2.5951 -1.2590
  202MOL0     H27251  10.933   9.776   5.740  0.5465  1.1186  0.0920
  202MOL0     H27252  10.584   9.775   5.543  0.5660  0.1290  1.4374
  202MOL0     H27253  10.466   9.668   5.368  0.2638  1.8678 -0.2703
  202MOL0     H27254   8.902   8.155   5.437  0.3199 -1.1085  1.8180
  202MOL0     H27255   8.684   8.062   5.485 -0.9203  1.4315 -1.5255
  202MOL0     H27256   8.191   8.114   5.397  1.4432  2.7923  1.3426
  202MOL0     H27257   7.977   8.023   5.442  3.2999  1.9243 -2.8872
  202MOL0     H27258   7.781   7.785   5.733 -1.1103  0.1346  2.1995
  202MOL0     H27259   7.867   7.859   5.872 -0.4933 -0.4667  0.3974
  202MOL0     H27260   8.090   7.759   5.745 -0.3623 -0.7123 -2.1595
  202MOL0     H27261   7.980   7.660   5.657 -2.5384  0.3793 -0.2133
  202MOL0     H27262   7.918   7.534   5.831  1.4097 -1.8395  2.8483
  202MOL0     H27263   7.897   7.676   5.931  1.6657 -0.2276  2.2631
  202MOL0     H27264   8.132   7.669   6.016  0.7330  0.6241 -0.5223
  202MOL0     H27265   8.062   7.512   6.029 -1.3643 -0.7604 -0.8003
  202MOL0     H27266   8.353   7.472   5.712 -1.4155  0.4373 -1.0368
  202MOL0     H27267   8.071   7.990   5.862 -3.3287  1.6128 -1.2941
  202MOL0     H27268   8.217   8.172   5.937  0.3127  1.4874  0.2325
  202MOL0     H27269   8.363   8.074   5.905 -0.2316 -1.1507 -0.4942
  202MOL0     H27270   8.340   8.244   5.846  1.5509 -0.6367 -1.1004
  203MOL0     O27271   2.198   2.201   7.137  0.1977  0.1908  0.6270
  203MOL0     C27272   2.097   2.265   7.105 -0.1987 -0.5371 -0.5141
  203MOL0     O27273   2.088   2.398   7.071 -0.9248 -0.5180  0.4541
  203MOL0     C27274   2.198   2.474   7.063  0.2793  0.3738  0.1300
  203MOL0     C27275   2.203   2.554   6.948  0.2163  0.5327 -0.1454
  203MOL0     C27276   2.314   2.629   6.929 -0.7151  0.5962  0.6677
  203MOL0     C27277   2.423   2.643   7.019 -0.0157 -1.0567  0.4574
  203MOL0     O27278   2.528   2.723   6.985  0.3860 -0.2833  0.5126
  203MOL0     C27279   2.664   2.690   7.029  0.4059  0.1500  0.8214
  203MOL0     C27280   2.715   2.607   6.913 -0.2201  1.0756 -0.4909
  203MOL0     C27281   2.869   2.608   6.905  0.3922  0.8354  0.7886
  203MOL0     C27282   2.917   2.569   6.763  0.3478  0.8341  0.0624
  203MOL0     C27283   3.067   2.525   6.780  0.4422 -0.6579 -0.0580
  203MOL0     C27284   3.126   2.486   6.632 -0.7203 -0.2321 -0.0728
  203MOL0     C27285   3.274   2.448   6.637 -0.1831  0.0733 -0.8820
  203MOL0     C27286   3.326   2.427   6.495 -0.5014  1.1402  0.8219
  203MOL0     N27287   3.477   2.431   6.487  0.0607  0.7869  0.0839
  203MOL0     C27288   3.562   2.330   6.458 -0.6804  0.5463 -0.3702
  203MOL0     C27289   3.690   2.378   6.486 -0.2872  0.3097  0.0543
  203MOL0     C27290   3.824   2.312   6.459  0.2441  0.1422  0.1255
  203MOL0     C27291   3.907   2.393   6.347 -0.6731  1.0751 -0.0015
  203MOL0     C27292   4.004   2.487   6.423 -0.8229  0.5070 -0.0055
  203MOL0     C27293   4.132   2.426   6.470  0.0784 -0.9909 -0.8907
  203MOL0     O27294   4.195   2.502   6.571 -0.9395 -0.0212 -0.1292
  203MOL0     C27295   4.283   2.597   6.527  0.4226 -0.0987  0.0376
  203MOL0     C27296   4.237   2.726   6.563  0.5717  0.5701 -0.2410
  203MOL0     C27297   4.310   2.831   6.515 -0.5553 -0.4518 -0.0851
  203MOL0     C27298   4.430   2.819   6.447 -0.4031  0.0919 -0.2640
  203MOL0     C27299   4.508   2.943   6.408  0.0614 -0.3319 -0.5570
  203MOL0     O27300   4.623   2.920   6.332  0.6151  0.7699 -0.2499
  203MOL0     C27301   4.691   3.020   6.288  0.2107  0.1249  0.0981
  203MOL0     C27302   4.632   3.128   6.215 -0.2136 -0.1370 -0.0132
  203MOL0     C27303   4.709   3.243   6.195  0.3038 -1.0728 -0.6308
  203MOL0     C27304   4.843   3.254   6.239 -0.4454  0.6142  0.1628
  203MOL0     O27305   4.904   3.379   6.217  0.4151  0.9049 -0.6154
  203MOL0     C27306   5.040   3.381   6.213 -0.0675 -0.2216  0.4195
  203MOL0     C27307   5.117   3.402   6.342  0.5180 -1.0492 -0.0264
  203MOL0     C27308   5.245   3.311   6.366  0.5929  0.3553 -0.6158
  203MOL0     C27309   5.354   3.363   6.282  0.0228 -0.5191 -0.3822
  203MOL0     C27310   5.482   3.290   6.318  0.6187 -0.7669  0.2778
  203MOL0     C27311   5.598   3.341   6.236  0.1669 -0.3409  0.0167
  203MOL0     C27312   5.672   3.452   6.320 -0.3118  0.1059 -0.0138
  203MOL0     C27313   5.618   3.591   6.320 -0.6286 -0.1621 -0.0236
  203MOL0    Cl27314   5.590   3.663   6.155 -0.1753 -0.1359 -0.3479
  203MOL0     C27315   4.899   3.143   6.306  0.4230  0.4531 -0.6056
  203MOL0     C27316   4.822   3.027   6.334  0.2951 -0.2749 -0.3665
  203MOL0     O27317   4.468   3.053   6.456  0.3534  0.6339  0.3312
  203MOL0     C27318   4.481   2.689   6.425 -0.2025 -0.1309  0.6133
  203MOL0     C27319   4.405   2.579   6.461  0.6827 -0.3560  0.2843
  203MOL0     N27320   3.676   2.509   6.538 -0.1793 -0.7907  0.2126
  203MOL0     N27321   3.552   2.536   6.532  0.0123 -0.3646  0.4156
  203MOL0     C27322   2.409   2.568   7.132  0.1400 -0.1276  0.0924
  203MOL0     C27323   2.295   2.485   7.158 -0.6632 -0.2814 -0.2079
  203MOL0     C27324   1.958   2.197   7.109 -0.3897 -0.4462  0.8125
  203MOL0     C27325   1.847   2.277   7.061 -0.1235  0.2942 -1.0865
  203MOL0     C27326   1.721   2.224   7.059  0.0647  0.1757  0.8832
  203MOL0     C27327   1.705   2.088   7.084 -0.1536 -0.0748  0.4630
  203MOL0     O27328   1.571   2.048   7.065  0.6810 -0.1828 -0.1760
  203MOL0     C27329   1.516   1.934   7.132  0.2291  0.7963 -0.0071
  203MOL0     C27330   1.516   1.823   7.033  0.5140 -0.8630 -0.8569
  203MOL0     C27331   1.470   1.694   7.108 -0.4552 -0.0005 -0.3591
  203MOL0     C27332   1.495   1.572   7.019  0.7461  0.9169 -0.2828
  203MOL0     C27333   1.434   1.451   7.082  0.3430  0.0070 -0.2165
  203MOL0     C27334   1.373   1.357   7.125 -0.3899  0.5611  0.4538
  203MOL0     C27335   1.808   2.010   7.130  0.4115 -0.0501 -0.1992
  203MOL0     C27336   1.934   2.063   7.146 -0.3141 -0.7207 -0.0421
  203MOL0     C27337   2.046   1.963   7.175 -0.6783  0.0555 -0.4470
  203MOL0     H27338   2.135   2.552   6.864 -1.3145  1.3951  1.0125
  203MOL0     H27339   2.316   2.670   6.828  2.2054 -0.8360  0.0325
  203MOL0     H27340   2.730   2.776   7.042 -0.1639  0.4462  1.9037
  203MOL0     H27341   2.669   2.634   7.123 -1.6148  0.6483  1.2685
  203MOL0     H27342   2.683   2.658   6.821  2.8133  1.7732 -1.2512
  203MOL0     H27343   2.665   2.510   6.921  1.9606 -0.0345  0.2733
  203MOL0     H27344   2.900   2.528   6.973 -0.1223  2.1988  2.6999
  203MOL0     H27345   2.915   2.703   6.934  1.1046 -0.1243  2.9860
  203MOL0     H27346   2.867   2.475   6.736  2.8510 -0.4641 -0.3689
  203MOL0     H27347   2.907   2.652   6.693 -1.3281 -0.4694 -1.3466
  203MOL0     H27348   3.116   2.609   6.830  0.4803 -0.1574 -0.9114
  203MOL0     H27349   3.071   2.436   6.844 -1.8305  0.8115  2.3288
  203MOL0     H27350   3.076   2.398   6.591 -2.3122  0.7504 -0.3667
  203MOL0     H27351   3.119   2.572   6.565  1.5351  0.6280  0.7073
  203MOL0     H27352   3.303   2.369   6.707 -1.1266  0.0113 -0.5429
  203MOL0     H27353   3.315   2.546   6.664 -0.0628 -0.6245  1.7710
  203MOL0     H27354   3.275   2.336   6.464 -1.8905  1.9907  0.5015
  203MOL0     H27355   3.299   2.502   6.420  0.6804 -0.9032 -1.8193
  203MOL0     H27356   3.537   2.233   6.415 -2.7343  0.4904  0.8069
  203MOL0     H27357   3.888   2.301   6.547 -1.9089 -1.3078  1.5813
  203MOL0     H27358   3.800   2.213   6.420  2.0471 -1.1800  2.1420
  203MOL0     H27359   3.959   2.315   6.290 -2.7125 -1.4785  1.3952
  203MOL0     H27360   3.843   2.458   6.286  0.7734  4.0088  1.3746
  203MOL0     H27361   3.946   2.523   6.508 -3.4125  1.4084 -2.0254
  203MOL0     H27362   4.025   2.576   6.364 -1.1904  0.2305 -0.5584
  203MOL0     H27363   4.200   2.404   6.387  0.6649 -0.4880 -0.5473
  203MOL0     H27364   4.118   2.326   6.512  0.8791 -0.4972  0.6132
  203MOL0     H27365   4.158   2.743   6.636  0.7179  1.5064 -0.2828
  203MOL0     H27366   4.280   2.932   6.541 -1.0429 -1.0481  1.8667
  203MOL0     H27367   4.529   3.132   6.182  0.9225 -1.1384 -4.2847
  203MOL0     H27368   4.656   3.324   6.146 -0.8304 -0.6910  1.1114
  203MOL0     H27369   5.086   3.310   6.143 -0.7076  0.2887 -0.5344
  203MOL0     H27370   5.058   3.475   6.159 -2.8163 -0.5070 -1.1563
  203MOL0     H27371   5.150   3.506   6.347 -0.1317 -0.8819  2.7669
  203MOL0     H27372   5.047   3.392   6.426  2.4355 -1.0510  1.6600
  203MOL0     H27373   5.266   3.315   6.474  1.0488  1.3609 -0.7255
  203MOL0     H27374   5.214   3.216   6.322 -1.8966  1.6789 -1.9440
  203MOL0     H27375   5.366   3.469   6.307 -1.7425 -0.0015 -1.5516
  203MOL0     H27376   5.333   3.355   6.175  0.0395  0.6540 -0.4828
  203MOL0     H27377   5.469   3.183   6.303  1.7750 -1.0603  1.1823
  203MOL0     H27378   5.501   3.299   6.426  1.3373  0.1516  0.0839
  203MOL0     H27379   5.677   3.272   6.205 -0.6678 -0.1265 -2.8982
  203MOL0     H27380   5.565   3.376   6.138 -4.0257 -1.0943  0.9620
  203MOL0     H27381   5.773   3.461   6.278 -0.6967  2.6023 -0.5146
  203MOL0     H27382   5.675   3.419   6.424 -0.5133 -1.6173 -0.5210
  203MOL0     H27383   5.530   3.594   6.384 -1.1328  1.9258 -0.7369
  203MOL0     H27384   5.692   3.661   6.359 -2.1369  2.3288 -1.3887
  203MOL0     H27385   5.003   3.143   6.337  0.0165  0.1327  0.8442
  203MOL0     H27386   4.863   2.954   6.403 -0.8243 -2.0282 -1.4891
  203MOL0     H27387   4.578   2.684   6.376 -0.5948 -0.0352 -0.2023
  203MOL0     H27388   4.431   2.475   6.445 -0.7977 -0.9847  1.6317
  203MOL0     H27389   2.471   2.589   7.218  1.5545 -3.0926 -0.0831
  203MOL0     H27390   2.289   2.437   7.255 -1.3700 -1.9587 -1.0531
  203MOL0     H27391   1.856   2.382   7.035 -0.1873  1.4387  2.8538
  203MOL0     H27392   1.640   2.295   7.046 -0.0977 -0.4576 -2.3353
  203MOL0     H27393   1.419   1.956   7.178 -0.7097 -0.4889 -1.2799
  203MOL0     H27394   1.588   1.903   7.207  1.1569 -1.2166 -1.6243
  203MOL0     H27395   1.615   1.805   6.990  0.6091 -1.1344 -0.5328
  203MOL0     H27396   1.452   1.841   6.946 -0.0247 -1.2859 -0.5500
  203MOL0     H27397   1.367   1.692   7.146 -0.2536  0.1993  0.2057
  203MOL0     H27398   1.536   1.670   7.192 -3.5563 -4.3840  1.1779
  203MOL0     H27399   1.445   1.584   6.922  0.2012 -6.2368 -1.4211
  203MOL0     H27400   1.604   1.563   7.020  0.6532 -0.7128 -1.0024
  203MOL0     H27401   1.321   1.276   7.172  1.1919  0.4637  2.1660
  203MOL0     H27402   1.784   1.906   7.145 -1.0147  0.3073  0.0855
  203MOL0     H27403   2.086   1.986   7.275  0.2669  0.5106 -0.9139
  203MOL0     H27404   2.005   1.862   7.185  2.2598 -1.0144  3.0200
  203MOL0     H27405   2.128   1.958   7.103  1.5154  0.0159  1.8958
  204MOL0     O27406  10.065   8.891   6.206 -0.3164  0.0264 -0.1917
  204MOL0     C27407  10.034   8.802   6.284  0.5500  0.3285  0.5023
  204MOL0     O27408  10.113   8.693   6.310  0.3699  0.7402 -1.2836
  204MOL0     C27409  10.226   8.677   6.233 -0.2955  0.5080  0.4004
  204MOL0     C27410  10.317   8.776   6.193 -0.5392  0.1193  0.4380
  204MOL0     C27411  10.428   8.738   6.117 -0.4974 -0.1010  0.3889
  204MOL0     C27412  10.460   8.599   6.088  0.6495  1.1200 -0.2278
  204MOL0     O27413  10.580   8.590   6.020 -0.4739  0.2348 -0.5621
  204MOL0     C27414  10.654   8.469   6.011 -0.5150  0.1345 -1.1000
  204MOL0     C27415  10.739   8.435   6.135 -1.1519 -0.6459 -1.1024
  204MOL0     C27416  10.853   8.532   6.166 -0.0514  0.7762 -0.4689
  204MOL0     C27417  10.822   8.669   6.213  0.5689  0.7430  0.4147
  204MOL0     C27418  10.945   8.749   6.239 -0.1186  0.3501 -0.8670
  204MOL0     C27419  10.927   8.900   6.241  0.2980  0.7577  0.4708
  204MOL0     C27420  11.054   8.980   6.276 -0.5913  0.9451  0.5324
  204MOL0     C27421  11.153   8.997   6.165 -0.2725  0.2436  0.1634
  204MOL0     N27422  11.274   9.066   6.220 -0.0839  0.3930 -0.1572
  204MOL0     C27423  11.403   9.019   6.226  0.2913 -0.3234  0.1267
  204MOL0     C27424  11.476   9.122   6.270  0.2201 -0.5255 -0.0893
  204MOL0     C27425  11.634   9.120   6.262  0.3590 -0.1997 -0.3831
  204MOL0     C27426  11.701   9.068   6.136 -1.0866 -0.0273 -0.2845
  204MOL0     C27427  11.860   9.046   6.163 -0.4692  1.0385  0.9045
  204MOL0     C27428  11.923   8.978   6.040  1.0365 -0.1654 -0.1618
  204MOL0     O27429  12.050   8.948   6.089 -0.1298 -1.2651  0.1198
  204MOL0     C27430  12.151   8.930   5.994 -0.3513  0.4186 -0.4754
  204MOL0     C27431  12.285   8.907   6.038  0.2716  0.3199  0.0583
  204MOL0     C27432  12.383   8.884   5.946  0.2213 -0.0810 -0.3035
  204MOL0     C27433  12.358   8.899   5.802  0.3819 -0.1046 -0.9510
  204MOL0     C27434  12.471   8.902   5.706 -0.7154  0.9289 -0.2989
  204MOL0     O27435  12.583   8.836   5.738 -0.1117 -0.9398  0.5373
  204MOL0     C27436  12.673   8.826   5.639  0.0349 -0.2823 -0.5482
  204MOL0     C27437  12.713   8.703   5.595 -0.1263  0.2192 -0.4306
  204MOL0     C27438  12.794   8.681   5.485 -0.2457 -0.2900 -0.4358
  204MOL0     C27439  12.853   8.793   5.423  0.1242  0.4032 -0.7189
  204MOL0     O27440  12.951   8.798   5.324  0.7308 -0.0830 -0.7786
  204MOL0     C27441  12.959   8.669   5.250  0.5252 -0.9030  0.1395
  204MOL0     C27442  13.064   8.685   5.143 -0.3138 -0.3066  0.0430
  204MOL0     C27443  13.043   8.787   5.040  0.3942 -0.2099 -0.7270
  204MOL0     C27444  12.946   8.735   4.929  0.7585 -0.2206 -0.9216
  204MOL0     C27445  12.932   8.855   4.825 -0.1184  0.6830  0.0289
  204MOL0     C27446  12.846   8.829   4.703 -0.4951  0.7224 -0.0504
  204MOL0     C27447  12.703   8.833   4.731  0.4408  0.6723  0.7340
  204MOL0     C27448  12.609   8.784   4.623 -0.8589  0.3632 -0.2087
  204MOL0    Cl27449  12.640   8.877   4.469 -0.1029 -0.0905 -0.2324
  204MOL0     C27450  12.825   8.922   5.476  0.4322 -0.2225  0.7148
  204MOL0     C27451  12.731   8.941   5.577  0.1683  0.0333  0.4924
  204MOL0     O27452  12.455   8.964   5.602  0.7150  0.2635 -0.9095
  204MOL0     C27453  12.227   8.926   5.760 -0.7383  0.0169  0.1152
  204MOL0     C27454  12.126   8.948   5.856  0.0770 -0.2624 -0.5738
  204MOL0     N27455  11.395   9.231   6.291  0.2173  0.1415 -0.7071
  204MOL0     N27456  11.282   9.192   6.259  0.9484  0.5590  0.2586
  204MOL0     C27457  10.379   8.501   6.148 -0.0300  0.3278 -0.0880
  204MOL0     C27458  10.268   8.534   6.226  0.3177 -0.0214 -0.2070
  204MOL0     C27459   9.907   8.819   6.359 -0.0133  0.2476  0.1089
  204MOL0     C27460   9.901   8.742   6.481  0.0429  0.1650  0.8522
  204MOL0     C27461   9.802   8.764   6.573 -0.5299 -0.4000  0.3993
  204MOL0     C27462   9.705   8.864   6.547 -0.1703  0.9658 -0.1785
  204MOL0     O27463   9.616   8.906   6.639  0.3920  0.1199 -1.1447
  204MOL0     C27464   9.566   8.802   6.739 -0.1749 -0.0708 -0.1920
  204MOL0     C27465   9.411   8.824   6.769  0.1633  0.2113 -0.1035
  204MOL0     C27466   9.339   8.944   6.693  0.0835 -0.6676 -0.9916
  204MOL0     C27467   9.186   8.945   6.696 -0.7001 -0.7376 -0.5045
  204MOL0     C27468   9.124   9.042   6.605  0.0365 -0.5041 -0.7556
  204MOL0     C27469   9.052   9.120   6.555  0.6623 -0.5161  0.2549
  204MOL0     C27470   9.707   8.938   6.428 -0.1039  0.4829  0.4505
  204MOL0     C27471   9.805   8.909   6.330 -0.1482  0.4357 -0.1966
  204MOL0     C27472   9.798   8.985   6.197  0.0846 -0.2215  0.2965
  204MOL0     H27473  10.296   8.879   6.222 -1.1762  0.0456  0.2576
  204MOL0     H27474  10.495   8.803   6.060 -1.0441 -0.6307 -0.9092
  204MOL0     H27475  10.585   8.386   5.996  2.0743 -1.9069 -2.4583
  204MOL0     H27476  10.721   8.463   5.926  0.0405 -0.1605 -0.6456
  204MOL0     H27477  10.785   8.340   6.106 -1.4463 -0.7295 -1.2945
  204MOL0     H27478  10.672   8.420   6.220  0.9711 -1.5754  0.5156
  204MOL0     H27479  10.907   8.545   6.072  0.1588  1.1437 -0.2980
  204MOL0     H27480  10.924   8.486   6.235  0.2596  3.1512  0.9237
  204MOL0     H27481  10.769   8.724   6.135  1.8023  1.3398 -0.0316
  204MOL0     H27482  10.767   8.662   6.308 -4.4807  3.9881 -1.8255
  204MOL0     H27483  11.005   8.709   6.322 -1.0023  2.2256  0.7464
  204MOL0     H27484  11.015   8.728   6.158  1.7474  1.6127  0.3390
  204MOL0     H27485  10.890   8.939   6.145 -1.5291  1.0653  1.2544
  204MOL0     H27486  10.858   8.917   6.324 -1.5171  1.8863 -1.1636
  204MOL0     H27487  11.094   8.951   6.374 -2.4361 -1.3364  0.7013
  204MOL0     H27488  11.014   9.081   6.290  1.2357  1.3894  3.3158
  204MOL0     H27489  11.173   8.896   6.127 -1.6252 -0.5138  1.3742
  204MOL0     H27490  11.122   9.054   6.078  0.7747 -0.2835 -0.5713
  204MOL0     H27491  11.444   8.922   6.198  1.0416  0.0485 -0.0935
  204MOL0     H27492  11.666   9.224   6.268  0.5407 -0.3264  1.2212
  204MOL0     H27493  11.675   9.072   6.352 -2.6880  0.7948  1.6788
  204MOL0     H27494  11.666   8.970   6.104  0.3519 -0.1082 -1.7690
  204MOL0     H27495  11.679   9.133   6.051 -1.2059 -0.9477 -0.9717
  204MOL0     H27496  11.868   8.970   6.242 -1.7904 -0.4705 -0.3231
  204MOL0     H27497  11.909   9.139   6.193 -0.1972  0.9585  0.7148
  204MOL0     H27498  11.921   9.051   5.958 -3.7125  1.1769  0.8665
  204MOL0     H27499  11.880   8.881   6.012  2.6104 -1.2093  0.9005
  204MOL0     H27500  12.319   8.892   6.140  1.2064 -1.3336 -0.4519
  204MOL0     H27501  12.483   8.852   5.974 -0.1264 -2.8836 -1.9019
  204MOL0     H27502  12.657   8.618   5.634 -1.8487  0.3575 -2.4017
  204MOL0     H27503  12.812   8.577   5.458 -0.8007 -0.6935  0.6614
  204MOL0     H27504  12.984   8.585   5.315 -4.3473 -2.1315  0.8227
  204MOL0     H27505  12.860   8.649   5.208 -0.9144  0.0816  2.8602
  204MOL0     H27506  13.157   8.714   5.193 -0.6074  0.4830  0.1626
  204MOL0     H27507  13.086   8.590   5.095 -0.7261  1.3743 -3.8457
  204MOL0     H27508  12.999   8.880   5.078  0.6858  0.0383 -0.9968
  204MOL0     H27509  13.142   8.806   4.999  0.2225 -0.3354 -1.2150
  204MOL0     H27510  12.847   8.726   4.974  0.9817  1.9156  0.1147
  204MOL0     H27511  12.983   8.643   4.883 -0.7022 -3.1150  3.1096
  204MOL0     H27512  13.034   8.867   4.789  0.6495 -2.9162  0.6224
  204MOL0     H27513  12.893   8.941   4.880 -0.2158 -0.7512  2.3437
  204MOL0     H27514  12.870   8.902   4.626 -0.0451  0.3476 -0.2726
  204MOL0     H27515  12.867   8.728   4.667  0.4571  0.2964  1.5758
  204MOL0     H27516  12.663   8.932   4.752 -0.6413  1.0545 -2.5436
  204MOL0     H27517  12.690   8.779   4.825  0.2493  1.1212  0.9655
  204MOL0     H27518  12.609   8.675   4.609 -0.7776  0.2379  0.7262
  204MOL0     H27519  12.504   8.805   4.643 -1.1142  0.0537 -1.1581
  204MOL0     H27520  12.864   9.011   5.428  3.3796  0.4743  3.9776
  204MOL0     H27521  12.711   9.037   5.624 -1.3953 -1.0272  2.1171
  204MOL0     H27522  12.200   8.935   5.655  1.4060  1.3743 -0.3934
  204MOL0     H27523  12.031   8.960   5.805 -0.1918 -0.3432 -0.0938
  204MOL0     H27524  10.396   8.399   6.116 -5.4021 -0.4969 -1.3535
  204MOL0     H27525  10.202   8.458   6.266 -0.8299  1.3535  0.6151
  204MOL0     H27526   9.961   8.654   6.505 -3.8513 -2.6958  1.0313
  204MOL0     H27527   9.791   8.700   6.660 -4.1257  0.2891  0.6047
  204MOL0     H27528   9.628   8.810   6.829  0.5255  3.1747 -0.8440
  204MOL0     H27529   9.579   8.704   6.692  1.9626 -0.9889  2.1010
  204MOL0     H27530   9.383   8.830   6.875 -1.2768 -0.8018 -0.3859
  204MOL0     H27531   9.367   8.727   6.741 -1.8183  0.5562  1.5134
  204MOL0     H27532   9.367   8.947   6.587 -0.8181 -0.5567 -1.2319
  204MOL0     H27533   9.373   9.040   6.733 -0.3634 -1.1508  0.6522
  204MOL0     H27534   9.153   8.844   6.670 -0.7724 -1.0926  0.8638
  204MOL0     H27535   9.151   8.963   6.799 -0.1769  1.5731 -0.6853
  204MOL0     H27536   8.984   9.193   6.516  1.4419  0.6362  0.9769
  204MOL0     H27537   9.632   9.016   6.421 -0.2744  0.3744  0.9987
  204MOL0     H27538   9.881   9.056   6.197 -0.7396  0.8054  2.1679
  204MOL0     H27539   9.796   8.912   6.115  0.1436 -1.0483  1.0197
  204MOL0     H27540   9.705   9.043   6.199  0.7207  0.8119  0.6426
  205MOL0     O27541   1.386  10.079   0.185 -0.3841 -0.5378  0.5476
  205MOL0     C27542   1.283  10.140   0.183  0.1366 -0.6334  0.0236
  205MOL0     O27543   1.259  10.248   0.264 -0.2373 -0.1370  0.5565
  205MOL0     C27544   1.364  10.287   0.346  0.1760  0.6320 -0.2898
  205MOL0     C27545   1.490  10.345   0.291 -0.1825 -0.6521 -0.0068
  205MOL0     C27546   1.573  10.410   0.378  0.6684 -0.0051  0.1521
  205MOL0     C27547   1.560  10.395   0.518 -0.8554  0.1484  0.5412
  205MOL0     O27548   1.658  10.461   0.592  0.0041  0.0883  0.1477
  205MOL0     C27549   1.660  10.425   0.730 -1.2777  0.6528  0.2075
  205MOL0     C27550   1.735  10.289   0.739 -0.7777 -0.0435  0.2957
  205MOL0     C27551   1.875  10.291   0.677 -0.2752 -0.4263  0.3297
  205MOL0     C27552   1.962  10.180   0.733  0.4192  1.0526  0.5775
  205MOL0     C27553   2.107  10.196   0.690  1.0775 -0.3885  0.1771
  205MOL0     C27554   2.176  10.066   0.696  0.3559 -0.1455  0.3363
  205MOL0     C27555   2.326  10.089   0.725 -0.5693 -1.0839  0.5558
  205MOL0     C27556   2.422   9.963   0.730  0.3848 -0.0722  0.2796
  205MOL0     N27557   2.558   9.999   0.782  0.0975  0.2024 -0.5150
  205MOL0     C27558   2.652  10.078   0.730  0.5677 -0.3388 -0.2736
  205MOL0     C27559   2.758  10.086   0.818  0.3205 -0.1511 -0.1291
  205MOL0     C27560   2.877  10.163   0.787  0.1011 -0.0563  0.1882
  205MOL0     C27561   3.009  10.103   0.860 -1.3132  0.2404  0.3551
  205MOL0     C27562   3.055   9.972   0.786  0.0065  0.3141  0.0188
  205MOL0     C27563   3.203   9.948   0.797  0.5980 -0.0558  0.9892
  205MOL0     O27564   3.274  10.044   0.732 -0.0536 -1.3687  0.3075
  205MOL0     C27565   3.404  10.022   0.699  0.4605 -0.0602 -0.1088
  205MOL0     C27566   3.446  10.096   0.591 -0.6441 -0.6511  0.2627
  205MOL0     C27567   3.574  10.079   0.539 -0.5961 -0.1338 -0.4787
  205MOL0     C27568   3.666   9.991   0.591 -0.0015 -0.5057 -1.2754
  205MOL0     C27569   3.807  10.002   0.551 -0.2123 -0.3850  0.5528
  205MOL0     O27570   3.882   9.902   0.583 -0.2341 -0.3065  0.1001
  205MOL0     C27571   4.008   9.901   0.535  0.6675  0.1047  0.7981
  205MOL0     C27572   4.111   9.993   0.565  0.3826 -0.3248 -0.2280
  205MOL0     C27573   4.230   9.977   0.505  0.2941  0.1243 -0.3755
  205MOL0     C27574   4.253   9.884   0.408 -0.4582  0.7741 -0.7073
  205MOL0     O27575   4.383   9.870   0.358  0.1752  0.2893  0.1423
  205MOL0     C27576   4.432   9.750   0.291  0.6450 -0.3465  0.1961
  205MOL0     C27577   4.585   9.770   0.273  0.5725 -0.2776  0.4995
  205MOL0     C27578   4.651   9.760   0.410  0.1881  0.0515  0.2996
  205MOL0     C27579   4.800   9.784   0.408  0.5500 -0.1284 -0.8081
  205MOL0     C27580   4.857   9.779   0.548 -0.2607  0.9319  0.7924
  205MOL0     C27581   5.000   9.835   0.558 -0.8725 -0.1189  0.4119
  205MOL0     C27582   5.114   9.728   0.558 -0.1089  0.1818  0.0052
  205MOL0     C27583   5.133   9.650   0.425 -0.0546 -0.8178  0.0539
  205MOL0    Cl27584   5.200   9.762   0.297  0.4267 -0.3853  0.3187
  205MOL0     C27585   4.150   9.796   0.372 -0.3336  0.2898 -1.3289
  205MOL0     C27586   4.028   9.805   0.431  0.3534 -0.2279 -0.2497
  205MOL0     O27587   3.842  10.106   0.497  0.1846 -0.6530  0.0166
  205MOL0     C27588   3.626   9.920   0.709 -0.6973  0.1252  0.0426
  205MOL0     C27589   3.498   9.939   0.764  0.6816  0.5588  0.5663
  205MOL0     N27590   2.718  10.007   0.930 -0.5343  0.0934  0.4317
  205MOL0     N27591   2.606   9.955   0.905  0.4870  0.0167 -0.8934
  205MOL0     C27592   1.454  10.319   0.576  0.4344  0.4275 -0.1451
  205MOL0     C27593   1.354  10.270   0.483 -0.3027 -0.1058  0.5026
  205MOL0     C27594   1.176  10.092   0.106  0.4999  0.3319 -0.1091
  205MOL0     C27595   1.057  10.040   0.172 -0.1348 -0.8276  0.0414
  205MOL0     C27596   0.954   9.979   0.100  1.3013 -0.6657  0.2061
  205MOL0     C27597   0.950   9.980  -0.039 -0.6795  0.5072  0.8020
  205MOL0     O27598   0.854   9.918  -0.119  0.0620 -0.4536 -0.6051
  205MOL0     C27599   0.727   9.999  -0.137 -0.0689 -0.0582  0.1073
  205MOL0     C27600   0.746  10.102  -0.251  0.5215  0.5845  0.2676
  205MOL0     C27601   0.838  10.226  -0.227 -0.2496 -0.1158  0.5671
  205MOL0     C27602   0.800  10.366  -0.275 -0.3067 -0.0266 -0.4640
  205MOL0     C27603   0.713  10.422  -0.182  0.2079  0.2480 -1.0262
  205MOL0     C27604   0.651  10.487  -0.095 -0.2926 -0.0640  0.3457
  205MOL0     C27605   1.073  10.031  -0.099  0.4087 -0.1664 -0.5514
  205MOL0     C27606   1.177  10.093  -0.033 -0.7377 -0.9011  0.1590
  205MOL0     C27607   1.307  10.153  -0.109 -0.9605 -0.7888 -0.2944
  205MOL0     H27608   1.500  10.368   0.185 -0.3072  0.3619  0.1957
  205MOL0     H27609   1.663  10.454   0.336  1.2327 -2.3686 -1.3260
  205MOL0     H27610   1.709  10.500   0.793  3.4849 -3.2395  1.7469
  205MOL0     H27611   1.566  10.408   0.782 -1.3284 -0.4831 -0.2305
  205MOL0     H27612   1.680  10.210   0.689  0.4758 -0.4092 -0.5694
  205MOL0     H27613   1.726  10.272   0.847 -1.3664  0.7986  0.3920
  205MOL0     H27614   1.916  10.392   0.691 -2.1108  0.8968 -2.7618
  205MOL0     H27615   1.874  10.275   0.568  1.8286 -0.0269  0.2084
  205MOL0     H27616   1.950  10.168   0.841  0.5930 -2.1199  0.3547
  205MOL0     H27617   1.930  10.087   0.685 -0.8839  1.5057  0.5273
  205MOL0     H27618   2.107  10.238   0.589 -3.1164  0.5829  0.3784
  205MOL0     H27619   2.155  10.267   0.758 -1.8127  2.2008 -0.2416
  205MOL0     H27620   2.131   9.993   0.765 -1.7912  0.1680 -0.6494
  205MOL0     H27621   2.159  10.023   0.597  0.8919  0.6233 -0.0921
  205MOL0     H27622   2.326  10.136   0.824 -1.8600 -0.8758  0.4776
  205MOL0     H27623   2.362  10.165   0.654  1.0426 -0.8047  1.6050
  205MOL0     H27624   2.382   9.883   0.792  0.4535  0.0532  0.4849
  205MOL0     H27625   2.441   9.916   0.632  1.3937 -4.7694  2.4307
  205MOL0     H27626   2.651  10.121   0.630  0.4714  1.9810  0.6717
  205MOL0     H27627   2.887  10.180   0.680  0.7672 -3.3184 -0.3663
  205MOL0     H27628   2.853  10.261   0.829  0.8273 -0.5500  1.8696
  205MOL0     H27629   3.090  10.177   0.863 -2.8641  2.0262 -0.4469
  205MOL0     H27630   2.972  10.078   0.960 -2.7842 -2.2991 -0.7176
  205MOL0     H27631   3.023   9.961   0.683 -2.3573 -0.6398  0.7962
  205MOL0     H27632   3.012   9.883   0.833  1.5865  0.0038  0.9488
  205MOL0     H27633   3.216   9.851   0.748 -3.7224 -0.0347 -0.6387
  205MOL0     H27634   3.239   9.944   0.901  1.6151 -1.6734  0.6160
  205MOL0     H27635   3.387  10.173   0.542  1.7603  0.5153 -0.9593
  205MOL0     H27636   3.596  10.145   0.455  1.7616 -1.0527 -0.6540
  205MOL0     H27637   4.091  10.072   0.637  2.6411 -1.1394  1.3876
  205MOL0     H27638   4.305  10.045   0.542  1.7451 -0.5091 -1.9984
  205MOL0     H27639   4.409   9.661   0.350  0.1987  1.2084  2.5045
  205MOL0     H27640   4.388   9.732   0.193  0.4468  0.6861  0.0838
  205MOL0     H27641   4.628   9.690   0.213  1.5753  1.6006 -1.4049
  205MOL0     H27642   4.605   9.862   0.218  2.4572 -0.8055  0.2369
  205MOL0     H27643   4.606   9.833   0.478 -1.1897  0.9663 -1.5173
  205MOL0     H27644   4.637   9.658   0.449  0.3555  1.1560  3.5165
  205MOL0     H27645   4.811   9.886   0.371  0.6864  0.6988  1.3263
  205MOL0     H27646   4.843   9.715   0.334 -0.6631 -2.9676  0.9427
  205MOL0     H27647   4.868   9.674   0.576  1.2337  1.1858  1.2451
  205MOL0     H27648   4.798   9.834   0.621 -1.8075  2.5336 -1.5251
  205MOL0     H27649   5.021   9.909   0.480  0.0092 -0.2706  0.4931
  205MOL0     H27650   5.019   9.885   0.653 -2.0357 -0.2259  0.7115
  205MOL0     H27651   5.089   9.656   0.636 -1.8252  0.5582 -0.1580
  205MOL0     H27652   5.210   9.777   0.572 -0.1999  0.0934  1.0643
  205MOL0     H27653   5.188   9.557   0.444 -0.3997 -0.8237  1.0964
  205MOL0     H27654   5.035   9.626   0.383 -0.3247 -0.9760  0.7547
  205MOL0     H27655   4.182   9.714   0.308  1.7900  0.5924 -0.7398
  205MOL0     H27656   3.959   9.724   0.408 -1.5573  1.2054  0.1496
  205MOL0     H27657   3.700   9.864   0.766  2.1359  0.9148 -2.5398
  205MOL0     H27658   3.460   9.884   0.850 -0.3775 -2.0044 -1.4004
  205MOL0     H27659   1.433  10.306   0.682 -0.8804  0.4128 -0.3871
  205MOL0     H27660   1.273  10.224   0.539  0.1065  0.3272  1.4583
  205MOL0     H27661   1.051  10.049   0.280 -0.2949  2.3575 -0.1258
  205MOL0     H27662   0.871   9.923   0.144  2.1245 -1.8619  0.2718
  205MOL0     H27663   0.693  10.029  -0.037  1.7883  0.3218  0.6662
  205MOL0     H27664   0.649   9.931  -0.172  1.5912 -1.2911 -1.3843
  205MOL0     H27665   0.647  10.144  -0.269  0.5041  1.1485  1.5566
  205MOL0     H27666   0.777  10.037  -0.334  3.3740 -3.1034  3.8061
  205MOL0     H27667   0.930  10.195  -0.277 -0.3032  0.4762  0.0871
  205MOL0     H27668   0.853  10.223  -0.118  0.0492 -1.2784  0.5097
  205MOL0     H27669   0.893  10.424  -0.266 -1.1045  1.7268 -2.5118
  205MOL0     H27670   0.757  10.367  -0.375 -2.0548  2.5421  0.2084
  205MOL0     H27671   0.586  10.541  -0.031 -2.8691 -1.0116 -1.3157
  205MOL0     H27672   1.076  10.018  -0.206 -1.0246 -0.9398 -0.5226
  205MOL0     H27673   1.277  10.160  -0.214 -1.7940 -2.7065 -0.2293
  205MOL0     H27674   1.340  10.249  -0.069 -2.4967 -0.7272  0.9147
  205MOL0     H27675   1.394  10.086  -0.102 -0.3149 -0.0058 -0.7315
  206MOL0     O27676   3.125   0.632   6.884 -0.4615  0.5003  0.5645
  206MOL0     C27677   3.054   0.530   6.877 -0.5269  1.0681  0.0130
  206MOL0     O27678   3.107   0.399   6.878  0.1122  0.2928 -0.6255
  206MOL0     C27679   3.238   0.373   6.836  0.5079 -0.2235  0.3536
  206MOL0     C27680   3.260   0.262   6.741 -0.7079  0.4333 -0.7673
  206MOL0     C27681   3.398   0.239   6.703  0.4047  0.0833 -0.2189
  206MOL0     C27682   3.501   0.311   6.754  0.9064 -0.1574 -0.8621
  206MOL0     O27683   3.626   0.256   6.730  0.6230  0.4891 -0.3042
  206MOL0     C27684   3.732   0.338   6.720  0.3977 -0.4012 -0.6068
  206MOL0     C27685   3.852   0.249   6.697  0.2328 -1.2486 -0.8272
  206MOL0     C27686   3.871   0.137   6.808 -0.4442  0.1817 -0.0522
  206MOL0     C27687   4.011   0.077   6.780 -0.9353 -0.2354 -0.1938
  206MOL0     C27688   4.057  -0.050   6.862 -0.1453 -0.4112  0.6162
  206MOL0     C27689   4.211  -0.066   6.849 -0.1774  0.1923 -1.1046
  206MOL0     C27690   4.253  -0.201   6.918  0.3574 -0.3565  0.4265
  206MOL0     C27691   4.401  -0.246   6.916  0.4273 -0.0647  0.0713
  206MOL0     N27692   4.465  -0.265   6.780  0.8395  0.4603 -0.6521
  206MOL0     C27693   4.517  -0.384   6.726  0.0770 -0.0530  0.0571
  206MOL0     C27694   4.564  -0.346   6.604 -0.2906 -0.6738 -0.2022
  206MOL0     C27695   4.636  -0.419   6.493 -0.4067 -0.1041  0.1441
  206MOL0     C27696   4.790  -0.434   6.524 -0.1666  0.8348 -0.6321
  206MOL0     C27697   4.860  -0.293   6.512 -0.1409  0.1143 -0.3512
  206MOL0     C27698   5.012  -0.298   6.511 -0.2581  0.1022  0.1592
  206MOL0     O27699   5.059  -0.372   6.395  0.1732 -0.4266 -0.3832
  206MOL0     C27700   5.181  -0.428   6.405  0.1082 -0.4067  0.1614
  206MOL0     C27701   5.199  -0.545   6.329 -0.8122 -0.1567 -0.1187
  206MOL0     C27702   5.328  -0.610   6.329 -0.2564 -0.6631 -0.1173
  206MOL0     C27703   5.441  -0.547   6.388  1.1497  0.1620 -0.3426
  206MOL0     C27704   5.580  -0.603   6.378 -0.7385  0.1556 -0.4057
  206MOL0     O27705   5.588  -0.718   6.302  0.5701  0.3499  0.1834
  206MOL0     C27706   5.703  -0.790   6.303  0.4291 -0.3056  0.2538
  206MOL0     C27707   5.780  -0.813   6.415  1.0669  0.8240 -0.0698
  206MOL0     C27708   5.896  -0.885   6.399 -0.5196 -0.2441  0.4726
  206MOL0     C27709   5.948  -0.923   6.273 -0.3789  0.4109  0.1713
  206MOL0     O27710   6.079  -0.979   6.266 -0.3311 -0.0589 -0.5445
  206MOL0     C27711   6.126  -1.054   6.151 -0.0922 -1.1688 -0.2021
  206MOL0     C27712   6.273  -1.107   6.198 -0.2514 -0.9409 -0.2284
  206MOL0     C27713   6.329  -1.215   6.119 -0.8447 -0.3480 -0.0667
  206MOL0     C27714   6.468  -1.268   6.157 -0.5778  0.8821 -0.1532
  206MOL0     C27715   6.495  -1.392   6.070  0.2853 -0.5692  0.1826
  206MOL0     C27716   6.614  -1.464   6.127  0.4216  0.4287 -0.3831
  206MOL0     C27717   6.737  -1.394   6.083  0.2453  0.1962  0.1008
  206MOL0     C27718   6.868  -1.474   6.110  0.3359 -0.1481 -1.0036
  206MOL0    Cl27719   6.867  -1.615   5.995  0.3932 -0.1701 -0.8596
  206MOL0     C27720   5.866  -0.902   6.167  0.4391  0.5811 -0.2426
  206MOL0     C27721   5.747  -0.842   6.181  0.5819  0.2140 -0.1503
  206MOL0     O27722   5.675  -0.546   6.426  0.3139  0.1862 -0.0085
  206MOL0     C27723   5.415  -0.432   6.458 -0.5020 -0.6832  0.8600
  206MOL0     C27724   5.295  -0.368   6.471 -0.1778 -0.8627  0.3539
  206MOL0     N27725   4.530  -0.212   6.586  0.9512 -0.7792 -0.1498
  206MOL0     N27726   4.478  -0.170   6.690 -0.2877 -0.0821  0.2234
  206MOL0     C27727   3.482   0.415   6.845 -0.1265  1.0210 -0.1410
  206MOL0     C27728   3.353   0.447   6.876 -0.4749 -0.3124  0.3112
  206MOL0     C27729   2.900   0.542   6.885  0.5904  0.3703  0.6485
  206MOL0     C27730   2.827   0.430   6.843 -0.5963  0.7777 -0.6010
  206MOL0     C27731   2.692   0.424   6.862  0.3553 -0.7483 -0.0356
  206MOL0     C27732   2.618   0.538   6.913  0.6006  1.0294  0.0179
  206MOL0     O27733   2.483   0.527   6.909  0.4113  0.1575 -0.2233
  206MOL0     C27734   2.394   0.626   6.965 -0.1763  0.0969 -0.1382
  206MOL0     C27735   2.378   0.599   7.116 -0.4031 -0.4384 -0.2650
  206MOL0     C27736   2.270   0.695   7.188 -0.0247 -0.5783  0.7881
  206MOL0     C27737   2.128   0.682   7.127  0.0348 -0.2612 -0.4331
  206MOL0     C27738   2.021   0.712   7.232  0.2917 -0.8224  0.5610
  206MOL0     C27739   1.951   0.761   7.311 -0.2985  0.2631  0.4202
  206MOL0     C27740   2.689   0.653   6.948  1.0416  0.5443 -0.6792
  206MOL0     C27741   2.828   0.653   6.927  0.2153 -0.6798 -0.7420
  206MOL0     C27742   2.904   0.783   6.948 -0.1162  0.5183  0.3932
  206MOL0     H27743   3.186   0.193   6.703  0.2471  0.3246 -2.5161
  206MOL0     H27744   3.422   0.172   6.621  0.8030  1.4937 -1.3153
  206MOL0     H27745   3.710   0.402   6.634 -0.5308  0.7737  0.4648
  206MOL0     H27746   3.746   0.387   6.816  1.0202  1.1170 -1.4343
  206MOL0     H27747   3.941   0.310   6.676 -1.2731 -0.0703 -4.6735
  206MOL0     H27748   3.835   0.193   6.604  0.6491 -1.0122 -1.0536
  206MOL0     H27749   3.795   0.060   6.797 -0.6134  0.6069 -2.3393
  206MOL0     H27750   3.861   0.191   6.903 -0.9553  1.2942 -0.7136
  206MOL0     H27751   4.009   0.043   6.676  1.7788  0.6431 -0.6005
  206MOL0     H27752   4.081   0.160   6.791  0.6164 -1.5261  0.1153
  206MOL0     H27753   4.043  -0.035   6.969  0.0847 -0.6401  0.6773
  206MOL0     H27754   4.005  -0.145   6.844 -1.9844  0.6764 -0.1365
  206MOL0     H27755   4.246  -0.074   6.746  3.5934  0.4579 -0.0026
  206MOL0     H27756   4.254   0.023   6.896 -0.3499 -0.0018 -0.5675
  206MOL0     H27757   4.192  -0.272   6.861  0.9052 -0.7167  0.2817
  206MOL0     H27758   4.215  -0.196   7.021  0.7805 -1.5931  0.6703
  206MOL0     H27759   4.460  -0.185   6.986  0.0686 -1.4269  1.6336
  206MOL0     H27760   4.408  -0.344   6.964  0.7276  0.1446  0.4642
  206MOL0     H27761   4.512  -0.485   6.766  2.2454 -0.5399 -0.7670
  206MOL0     H27762   4.593  -0.519   6.481  1.6214 -1.0410  0.3287
  206MOL0     H27763   4.624  -0.360   6.402  1.5389  0.8299  0.4407
  206MOL0     H27764   4.791  -0.472   6.627 -1.6837  2.4004  0.0021
  206MOL0     H27765   4.840  -0.510   6.463 -1.8968 -3.4082  2.6929
  206MOL0     H27766   4.838  -0.237   6.603 -2.5560  1.6790 -1.7945
  206MOL0     H27767   4.813  -0.240   6.428  0.3897 -0.8341 -1.2797
  206MOL0     H27768   5.048  -0.346   6.602  1.6541 -0.3749 -0.7769
  206MOL0     H27769   5.058  -0.199   6.517 -0.1795  0.3738 -2.9320
  206MOL0     H27770   5.120  -0.580   6.263  1.6474  1.7879 -4.5432
  206MOL0     H27771   5.345  -0.702   6.274 -0.3835 -1.0087  0.4172
  206MOL0     H27772   5.741  -0.775   6.509  4.5306 -1.7557  2.7149
  206MOL0     H27773   5.963  -0.886   6.484 -0.5479  1.5753  0.5519
  206MOL0     H27774   6.056  -1.134   6.125  1.0405 -2.2183 -0.1174
  206MOL0     H27775   6.121  -0.976   6.074 -0.4595 -0.2971  0.6921
  206MOL0     H27776   6.352  -1.038   6.229  0.5543 -2.2408  0.7231
  206MOL0     H27777   6.244  -1.149   6.295  0.5470  2.8787  1.8727
  206MOL0     H27778   6.263  -1.303   6.115 -1.7878  0.3715 -1.8002
  206MOL0     H27779   6.342  -1.179   6.016  1.0375  0.4968  0.4365
  206MOL0     H27780   6.476  -1.295   6.263  1.9561  0.8349 -0.2949
  206MOL0     H27781   6.545  -1.193   6.138 -0.0139  0.9432  2.1191
  206MOL0     H27782   6.504  -1.356   5.967 -2.1800  0.3402  0.2154
  206MOL0     H27783   6.416  -1.467   6.078 -2.5461  2.2432  0.5060
  206MOL0     H27784   6.604  -1.487   6.233  2.0433  0.0828 -0.2890
  206MOL0     H27785   6.622  -1.562   6.080  1.5984  1.0580 -1.5565
  206MOL0     H27786   6.737  -1.306   6.149 -1.6459 -0.4318  1.0156
  206MOL0     H27787   6.722  -1.359   5.980  1.5829  0.2980 -0.0767
  206MOL0     H27788   6.953  -1.411   6.084  0.4359  0.0950 -0.1075
  206MOL0     H27789   6.890  -1.501   6.213  2.4522  2.0848 -0.7831
  206MOL0     H27790   5.879  -0.938   6.066  0.2616 -3.0772  0.8675
  206MOL0     H27791   5.683  -0.817   6.097 -2.2171  1.4949  2.1938
  206MOL0     H27792   5.493  -0.377   6.510  0.6960  2.2505 -3.5690
  206MOL0     H27793   5.270  -0.276   6.522  3.1783  0.5958 -0.3836
  206MOL0     H27794   3.569   0.458   6.894 -0.0873 -0.0555  0.7624
  206MOL0     H27795   3.347   0.530   6.947  0.8585  0.3204 -0.2746
  206MOL0     H27796   2.865   0.332   6.814 -3.9666 -1.5860  2.1158
  206MOL0     H27797   2.632   0.335   6.845 -0.8447  0.0552 -0.1393
  206MOL0     H27798   2.300   0.627   6.909  0.7928  2.0696 -1.8920
  206MOL0     H27799   2.432   0.729   6.962 -0.3524  0.1997  0.9764
  206MOL0     H27800   2.477   0.600   7.162 -0.2227  0.7215 -0.6401
  206MOL0     H27801   2.340   0.497   7.119 -2.8322  0.3475 -1.2793
  206MOL0     H27802   2.301   0.797   7.166 -0.6677 -0.2323  1.4579
  206MOL0     H27803   2.273   0.687   7.297  2.7259 -1.8880  0.6986
  206MOL0     H27804   2.124   0.745   7.038  2.9715 -1.1147 -1.2841
  206MOL0     H27805   2.115   0.577   7.097 -2.3875 -0.1280  0.0029
  206MOL0     H27806   1.906   0.812   7.394 -1.2866  2.7325 -1.5279
  206MOL0     H27807   2.635   0.736   6.993 -2.0316 -0.6180 -1.9108
  206MOL0     H27808   2.838   0.857   6.994 -1.8497 -1.4332  1.2218
  206MOL0     H27809   2.974   0.756   7.027 -1.1629  0.7010  1.4186
  206MOL0     H27810   2.940   0.819   6.851  2.4380 -0.4481  0.9201
  207MOL0     O27811   2.823   0.174   1.464 -0.2134  0.6626 -0.2393
  207MOL0     C27812   2.797   0.246   1.560 -0.0899 -0.6990  0.8770
  207MOL0     O27813   2.881   0.290   1.659 -0.0715  0.1815  0.3929
  207MOL0     C27814   3.001   0.227   1.667 -0.1791  0.6288  0.3307
  207MOL0     C27815   3.105   0.256   1.578  0.4136 -0.3018  0.7137
  207MOL0     C27816   3.221   0.181   1.587  0.8142  0.0267  0.7919
  207MOL0     C27817   3.251   0.084   1.676 -0.0882 -0.7933 -0.0838
  207MOL0     O27818   3.355  -0.007   1.689  0.6134 -0.1698  0.3292
  207MOL0     C27819   3.486   0.035   1.657  0.5481  0.8005  1.1198
  207MOL0     C27820   3.583  -0.070   1.704  0.3048 -0.1943 -0.5032
  207MOL0     C27821   3.637  -0.165   1.608  0.2532  0.4455 -0.3072
  207MOL0     C27822   3.762  -0.235   1.649 -0.5433 -0.0543 -0.6073
  207MOL0     C27823   3.776  -0.353   1.555  0.2429  0.0078  0.3280
  207MOL0     C27824   3.912  -0.425   1.589 -0.2096  1.1425 -0.4089
  207MOL0     C27825   3.922  -0.547   1.502 -0.9953 -0.3847  0.4452
  207MOL0     C27826   4.059  -0.619   1.528  0.4513  0.4326  0.1995
  207MOL0     N27827   4.187  -0.536   1.512  1.0427 -0.0769  0.0442
  207MOL0     C27828   4.228  -0.492   1.392 -0.8806  0.6090  0.8750
  207MOL0     C27829   4.326  -0.406   1.417 -0.7091  1.2559  1.0928
  207MOL0     C27830   4.414  -0.330   1.321  0.0818  0.3750  0.3118
  207MOL0     C27831   4.559  -0.309   1.366 -0.2788  0.0647  1.1883
  207MOL0     C27832   4.628  -0.214   1.265  0.5822  0.5803  0.0718
  207MOL0     C27833   4.778  -0.198   1.293 -0.1602 -0.5107  0.1776
  207MOL0     O27834   4.851  -0.134   1.185 -0.0221 -0.5744 -0.9037
  207MOL0     C27835   4.984  -0.159   1.186  0.4352 -0.4969 -0.3236
  207MOL0     C27836   5.047  -0.166   1.061 -0.7680 -0.2477  0.3868
  207MOL0     C27837   5.188  -0.188   1.050  0.7589 -0.5464  0.4915
  207MOL0     C27838   5.265  -0.193   1.164 -0.0077  0.3548  0.3143
  207MOL0     C27839   5.409  -0.214   1.161 -0.0781  0.2385  1.0039
  207MOL0     O27840   5.463  -0.252   1.045 -0.0961  0.2171  0.1387
  207MOL0     C27841   5.594  -0.285   1.027  0.6147  1.3304  0.7303
  207MOL0     C27842   5.677  -0.353   1.113 -0.3957  0.6797  0.9890
  207MOL0     C27843   5.808  -0.393   1.075 -1.2215 -1.1338 -0.6766
  207MOL0     C27844   5.852  -0.365   0.947  0.6037  0.7837  0.7881
  207MOL0     O27845   5.972  -0.425   0.912 -0.4986 -0.2978  0.2255
  207MOL0     C27846   6.024  -0.400   0.782 -0.5087  0.3539 -0.1602
  207MOL0     C27847   6.175  -0.417   0.781  0.9991 -0.0785 -0.9052
  207MOL0     C27848   6.238  -0.401   0.641  0.2763  0.1009 -0.0907
  207MOL0     C27849   6.394  -0.426   0.632 -0.1925  0.2110  0.6387
  207MOL0     C27850   6.443  -0.448   0.495  0.0686 -0.1048  0.2002
  207MOL0     C27851   6.512  -0.330   0.436  0.2447 -0.3122  0.1774
  207MOL0     C27852   6.607  -0.368   0.321  0.3620  0.2283 -0.0108
  207MOL0     C27853   6.673  -0.242   0.259  0.0022 -1.1809 -0.4775
  207MOL0    Cl27854   6.584  -0.185   0.119  0.4499  0.3348  0.5011
  207MOL0     C27855   5.770  -0.302   0.858 -0.0236  0.2255  0.7443
  207MOL0     C27856   5.647  -0.258   0.899  0.2974  0.3326 -0.3235
  207MOL0     O27857   5.465  -0.204   1.268  0.0055 -0.8561  0.6799
  207MOL0     C27858   5.200  -0.172   1.291  0.0748  0.2899  0.0082
  207MOL0     C27859   5.065  -0.165   1.302  0.3812 -0.0554 -0.1432
  207MOL0     N27860   4.361  -0.409   1.549  0.2523 -0.4869  0.4957
  207MOL0     N27861   4.266  -0.477   1.603  0.7159  0.2720  0.7502
  207MOL0     C27862   3.144   0.058   1.760  0.3117 -0.4285 -1.0914
  207MOL0     C27863   3.025   0.128   1.762 -0.3256 -0.7332 -0.0289
  207MOL0     C27864   2.653   0.286   1.573 -0.1674 -0.8292  0.5101
  207MOL0     C27865   2.613   0.324   1.705  0.3062  0.0500 -0.4575
  207MOL0     C27866   2.484   0.374   1.727 -0.1536  0.1204  0.6808
  207MOL0     C27867   2.395   0.403   1.621 -0.3156  0.1389  0.7068
  207MOL0     O27868   2.292   0.477   1.651  0.6316 -0.4607 -0.5978
  207MOL0     C27869   2.231   0.567   1.554  0.2117  0.2174 -0.4129
  207MOL0     C27870   2.105   0.627   1.611 -0.6481  0.1707  0.8772
  207MOL0     C27871   1.994   0.520   1.622  0.9637  0.1286  0.2848
  207MOL0     C27872   1.855   0.583   1.608 -0.6601 -0.8895 -0.3843
  207MOL0     C27873   1.823   0.626   1.474 -0.0902 -0.4057  0.1761
  207MOL0     C27874   1.804   0.659   1.357  1.5173  0.1032  0.0328
  207MOL0     C27875   2.442   0.372   1.489 -0.2884  0.4194 -0.9266
  207MOL0     C27876   2.565   0.318   1.462 -0.9373 -0.6728  0.7631
  207MOL0     C27877   2.591   0.286   1.315 -0.1656  0.1517  0.8289
  207MOL0     H27878   3.097   0.341   1.512  1.2132  0.7327  1.8928
  207MOL0     H27879   3.295   0.215   1.515 -0.2764 -0.1706 -0.4633
  207MOL0     H27880   3.501   0.039   1.549  0.2028 -0.8734  0.9771
  207MOL0     H27881   3.500   0.134   1.700  2.6747  0.2695  1.7696
  207MOL0     H27882   3.535  -0.121   1.788 -0.5475  1.8170  0.3025
  207MOL0     H27883   3.668  -0.013   1.743  0.2606 -1.7278  2.0779
  207MOL0     H27884   3.675  -0.106   1.524  2.0367 -2.7806 -1.9317
  207MOL0     H27885   3.563  -0.235   1.569 -0.7064  0.3910  1.4705
  207MOL0     H27886   3.847  -0.169   1.630  0.5958 -2.3052 -4.3505
  207MOL0     H27887   3.757  -0.269   1.753  2.9043  0.3541 -0.1881
  207MOL0     H27888   3.688  -0.416   1.572 -0.8767  1.7759  1.5972
  207MOL0     H27889   3.778  -0.326   1.449 -1.2561 -1.4197 -0.1189
  207MOL0     H27890   3.997  -0.358   1.576  0.4033  0.2616 -1.1199
  207MOL0     H27891   3.915  -0.461   1.693  1.2379  3.5616  0.4830
  207MOL0     H27892   3.929  -0.508   1.400 -0.4411  3.6646  1.8701
  207MOL0     H27893   3.838  -0.615   1.517 -1.2219  0.3471  3.0415
  207MOL0     H27894   4.070  -0.638   1.635  4.5111  2.9847  0.4732
  207MOL0     H27895   4.061  -0.707   1.464  1.2058  0.7159 -0.1755
  207MOL0     H27896   4.188  -0.525   1.296 -0.4567 -1.8700  1.4783
  207MOL0     H27897   4.420  -0.386   1.227  2.8149 -1.7830  1.6416
  207MOL0     H27898   4.365  -0.235   1.298  0.4797  0.3624 -0.6355
  207MOL0     H27899   4.569  -0.250   1.457  2.6089  0.1108  0.9317
  207MOL0     H27900   4.609  -0.406   1.361 -0.9458 -0.3188  1.7638
  207MOL0     H27901   4.586  -0.115   1.285  0.8553  0.8346 -0.5838
  207MOL0     H27902   4.610  -0.245   1.162  0.1095  1.3920 -0.1055
  207MOL0     H27903   4.823  -0.297   1.305 -1.3017 -1.0889 -0.1539
  207MOL0     H27904   4.788  -0.126   1.374  2.0414  2.6130 -2.5940
  207MOL0     H27905   4.983  -0.160   0.973  0.3305  1.3239 -0.3453
  207MOL0     H27906   5.236  -0.205   0.954  2.7022  2.2814  0.8703
  207MOL0     H27907   5.630  -0.377   1.208 -3.7437  0.6466 -0.5256
  207MOL0     H27908   5.873  -0.452   1.139 -1.9348 -0.8487  0.3332
  207MOL0     H27909   5.968  -0.464   0.714  0.3617  1.4004 -1.9373
  207MOL0     H27910   6.007  -0.295   0.756 -1.5651  0.6320  1.4829
  207MOL0     H27911   6.220  -0.337   0.840 -1.3545  1.1471 -0.6494
  207MOL0     H27912   6.206  -0.515   0.819 -0.5813 -0.8288 -1.4374
  207MOL0     H27913   6.188  -0.479   0.583 -2.4433 -0.4032  2.6869
  207MOL0     H27914   6.212  -0.303   0.598  0.5826  0.3553  0.2963
  207MOL0     H27915   6.412  -0.520   0.684  1.4323  0.5971  0.8229
  207MOL0     H27916   6.442  -0.343   0.686 -1.2587  0.9374  0.5140
  207MOL0     H27917   6.365  -0.491   0.432 -0.1218  0.2311  0.2013
  207MOL0     H27918   6.519  -0.526   0.507 -0.9919 -1.6832 -2.5394
  207MOL0     H27919   6.429  -0.270   0.397 -2.1251 -2.0451  2.2739
  207MOL0     H27920   6.558  -0.278   0.521 -1.2417 -0.1244  0.8979
  207MOL0     H27921   6.556  -0.426   0.245 -0.1013  2.1360 -1.2263
  207MOL0     H27922   6.684  -0.426   0.373  0.6566  1.5292  1.0651
  207MOL0     H27923   6.674  -0.158   0.329  3.4876 -0.6517 -0.9625
  207MOL0     H27924   6.777  -0.268   0.236 -0.0138 -2.3886  0.7662
  207MOL0     H27925   5.805  -0.275   0.759 -1.4738  3.7510  1.0424
  207MOL0     H27926   5.594  -0.205   0.821  1.3408  0.7201 -0.7825
  207MOL0     H27927   5.251  -0.180   1.386 -1.5517 -0.1466  0.8784
  207MOL0     H27928   5.021  -0.137   1.397  0.5144  0.9752 -0.3678
  207MOL0     H27929   3.165  -0.015   1.837 -2.5713  1.4538  1.6968
  207MOL0     H27930   2.954   0.108   1.841  0.0801 -0.1359  0.4924
  207MOL0     H27931   2.684   0.310   1.786  1.4074 -0.6148 -1.5139
  207MOL0     H27932   2.452   0.413   1.823  0.9061  0.0206  1.0817
  207MOL0     H27933   2.220   0.523   1.455 -0.3466 -0.1021 -0.2135
  207MOL0     H27934   2.301   0.651   1.546  2.6281 -1.1877  3.0130
  207MOL0     H27935   2.078   0.701   1.535  2.6623 -2.2942 -3.1594
  207MOL0     H27936   2.129   0.673   1.707  0.6396 -0.2093  0.7586
  207MOL0     H27937   1.990   0.466   1.716  2.4811  0.4056  0.5345
  207MOL0     H27938   1.998   0.440   1.547  0.8172  1.0980 -0.8030
  207MOL0     H27939   1.783   0.504   1.630 -1.2062 -0.2204  0.2903
  207MOL0     H27940   1.851   0.664   1.681 -0.4276 -2.1977  1.1418
  207MOL0     H27941   1.781   0.681   1.254  0.0308  0.0521  0.3255
  207MOL0     H27942   2.383   0.401   1.402  1.1127 -0.2325 -2.1275
  207MOL0     H27943   2.587   0.177   1.304  0.2892  0.3927 -2.9736
  207MOL0     H27944   2.510   0.328   1.255 -1.2659  0.7589  2.6704
  207MOL0     H27945   2.687   0.320   1.275  0.3463 -1.3655  0.6765
  208MOL0     O27946   9.471   5.683   4.258  0.2290  0.5889  0.5295
  208MOL0     C27947   9.434   5.799   4.241  0.8475  0.2753  0.8316
  208MOL0     O27948   9.506   5.891   4.176 -0.1814 -0.2323 -0.3304
  208MOL0     C27949   9.636   5.853   4.126 -0.2238 -0.1951 -0.3441
  208MOL0     C27950   9.672   5.850   3.995 -0.2526 -0.4241  0.9154
  208MOL0     C27951   9.808   5.831   3.955  0.0756  0.3570 -0.8978
  208MOL0     C27952   9.910   5.835   4.046 -0.3929  0.3173  0.5632
  208MOL0     O27953  10.030   5.849   3.993 -0.5789  0.2741 -0.5999
  208MOL0     C27954  10.141   5.826   4.079  0.0408  0.2172 -1.1767
  208MOL0     C27955  10.273   5.814   4.003  0.2999 -0.2841  0.3702
  208MOL0     C27956  10.390   5.847   4.100 -0.6762 -0.6296  0.3639
  208MOL0     C27957  10.507   5.878   4.012  0.8025 -0.8839 -0.0383
  208MOL0     C27958  10.644   5.885   4.082  0.2813 -0.7499 -0.3909
  208MOL0     C27959  10.761   5.881   3.979 -0.0513  0.8781  0.7858
  208MOL0     C27960  10.900   5.902   4.047 -0.2544  0.7463  0.1689
  208MOL0     C27961  10.996   5.967   3.939  0.3690  0.3618  0.2266
  208MOL0     N27962  11.117   6.020   4.006 -0.4087 -0.1078  0.2216
  208MOL0     C27963  11.186   5.958   4.104  1.0857  0.2831 -0.4229
  208MOL0     C27964  11.281   6.042   4.145 -0.3884  0.2367 -0.6916
  208MOL0     C27965  11.401   6.009   4.235  0.8014 -0.0563 -0.3836
  208MOL0     C27966  11.532   5.960   4.177 -0.2540  0.9025  0.5644
  208MOL0     C27967  11.645   5.928   4.273  0.8157  0.8041  0.0444
  208MOL0     C27968  11.778   5.871   4.230 -0.7042  0.6230 -0.0520
  208MOL0     O27969  11.856   5.844   4.349 -0.0274  0.6198  0.6980
  208MOL0     C27970  11.962   5.924   4.377  0.4540 -0.2859  0.3430
  208MOL0     C27971  11.960   6.072   4.341 -0.0384  0.1133  0.1831
  208MOL0     C27972  12.068   6.151   4.372  0.1495  0.3228 -0.3392
  208MOL0     C27973  12.186   6.103   4.422 -0.9097  1.2198 -0.4473
  208MOL0     C27974  12.302   6.195   4.440  1.1191  0.6230 -0.1843
  208MOL0     O27975  12.284   6.330   4.409  0.8790 -0.6442 -0.1200
  208MOL0     C27976  12.394   6.406   4.432  0.7585 -0.3508 -0.9132
  208MOL0     C27977  12.486   6.424   4.323  0.2481  0.2985 -0.4684
  208MOL0     C27978  12.584   6.526   4.334 -0.9340 -0.3925 -1.0392
  208MOL0     C27979  12.597   6.606   4.450  0.1949 -0.2042 -0.2611
  208MOL0     O27980  12.694   6.702   4.470 -0.3051  0.8161  0.3726
  208MOL0     C27981  12.828   6.648   4.465  1.5188  1.2429  0.1453
  208MOL0     C27982  12.918   6.762   4.424 -0.2511 -0.1207  0.1289
  208MOL0     C27983  13.057   6.708   4.392  0.2917 -0.5032 -0.4060
  208MOL0     C27984  13.122   6.797   4.292 -0.1550  1.4594  0.4317
  208MOL0     C27985  13.259   6.733   4.250  1.1317  1.1467  0.0525
  208MOL0     C27986  13.306   6.824   4.140 -0.4029 -0.2085 -0.5288
  208MOL0     C27987  13.453   6.809   4.103  0.5140  0.4037  0.7642
  208MOL0     C27988  13.555   6.849   4.204 -0.3907 -0.6208 -0.0106
  208MOL0    Cl27989  13.605   6.716   4.318 -0.1813  0.0445  0.0293
  208MOL0     C27990  12.502   6.586   4.557  0.1706 -0.0063  0.1305
  208MOL0     C27991  12.399   6.494   4.542  0.0861  0.2251  0.8207
  208MOL0     O27992  12.405   6.154   4.494  0.5005  0.0323 -0.6468
  208MOL0     C27993  12.195   5.958   4.459 -0.1980 -0.1969  0.3416
  208MOL0     C27994  12.084   5.873   4.429  0.2378 -0.1947 -0.2403
  208MOL0     N27995  11.281   6.153   4.071  0.6612  0.2224  0.0664
  208MOL0     N27996  11.181   6.137   3.989 -0.3272  0.0820 -0.5613
  208MOL0     C27997   9.874   5.824   4.183  0.3282  0.4609 -0.7663
  208MOL0     C27998   9.737   5.840   4.224  0.2703 -0.7440  1.1748
  208MOL0     C27999   9.295   5.846   4.290 -1.7874 -0.3007  0.3158
  208MOL0     C28000   9.238   5.965   4.243  0.0735  0.5311 -0.4773
  208MOL0     C28001   9.119   6.016   4.285  0.3334 -0.2223  0.6535
  208MOL0     C28002   9.048   5.947   4.387  0.6798 -0.0058  0.2220
  208MOL0     O28003   8.936   5.998   4.441  0.2187 -0.5552 -0.8453
  208MOL0     C28004   8.846   6.066   4.353  0.1028  0.0115 -0.5015
  208MOL0     C28005   8.713   6.082   4.438  0.7595  0.0191 -0.5700
  208MOL0     C28006   8.611   6.166   4.357 -0.4968  0.2308  0.2936
  208MOL0     C28007   8.476   6.187   4.431 -0.6901 -0.6351  0.2103
  208MOL0     C28008   8.384   6.076   4.446  0.2399  0.4557  0.8421
  208MOL0     C28009   8.294   5.997   4.430 -0.1576 -0.7117  0.1945
  208MOL0     C28010   9.104   5.839   4.447 -0.4204 -0.3036  0.0591
  208MOL0     C28011   9.229   5.783   4.397 -0.0942  0.3905 -0.3820
  208MOL0     C28012   9.268   5.654   4.468  0.4648 -0.1613 -0.4695
  208MOL0     H28013   9.597   5.863   3.918 -0.2991 -0.9771  0.8608
  208MOL0     H28014   9.837   5.828   3.850  1.2376 -0.5674 -0.5642
  208MOL0     H28015  10.152   5.899   4.159 -2.2094  0.0078 -0.6148
  208MOL0     H28016  10.126   5.729   4.128 -0.2424  0.4113 -0.8811
  208MOL0     H28017  10.275   5.870   3.909  2.1695 -4.0831 -2.1004
  208MOL0     H28018  10.289   5.711   3.971  0.1441  0.6930 -3.3636
  208MOL0     H28019  10.408   5.763   4.168 -1.3217 -1.7870 -0.8459
  208MOL0     H28020  10.359   5.936   4.156 -2.0585 -1.1199  0.4222
  208MOL0     H28021  10.506   5.812   3.925  1.4898  1.5065 -1.9903
  208MOL0     H28022  10.481   5.973   3.964 -1.3210 -2.3069 -1.9180
  208MOL0     H28023  10.645   5.982   4.132 -2.2017 -1.0284  0.3408
  208MOL0     H28024  10.653   5.808   4.159  0.7748 -0.1184  0.1962
  208MOL0     H28025  10.760   5.783   3.931 -1.9733  1.1900  0.1141
  208MOL0     H28026  10.749   5.965   3.910  5.3095 -0.0977 -1.9086
  208MOL0     H28027  10.946   5.806   4.074 -0.4817  0.4453 -0.4982
  208MOL0     H28028  10.897   5.970   4.133  3.0092  0.8098  0.3612
  208MOL0     H28029  11.023   5.886   3.870 -1.4559 -1.1238  1.1680
  208MOL0     H28030  10.943   6.050   3.890 -5.1889 -1.4700  2.3048
  208MOL0     H28031  11.184   5.857   4.144  1.0107  1.3861  2.6127
  208MOL0     H28032  11.425   6.104   4.283  1.1121  0.9124 -2.3366
  208MOL0     H28033  11.375   5.935   4.311 -0.6286  1.4684  0.6941
  208MOL0     H28034  11.512   5.873   4.113 -0.1838  1.3977 -0.1350
  208MOL0     H28035  11.574   6.038   4.113  0.4922 -0.7604 -1.0744
  208MOL0     H28036  11.612   5.871   4.360  0.2175  1.7375  0.4506
  208MOL0     H28037  11.667   6.027   4.314  1.1965  0.3980  0.8591
  208MOL0     H28038  11.829   5.935   4.157 -0.3892 -0.6592 -0.9801
  208MOL0     H28039  11.764   5.781   4.170  2.0914 -0.8241  1.2644
  208MOL0     H28040  11.865   6.109   4.304  0.8872  3.6245  0.9967
  208MOL0     H28041  12.071   6.257   4.349 -1.3160  0.3829 -0.3513
  208MOL0     H28042  12.485   6.363   4.233 -1.6894  1.4053 -1.2745
  208MOL0     H28043  12.652   6.530   4.250  0.7484 -1.1856  0.2128
  208MOL0     H28044  12.854   6.606   4.562 -0.5688  1.8266  1.0067
  208MOL0     H28045  12.837   6.575   4.384 -1.5220  0.0522  0.7769
  208MOL0     H28046  12.873   6.826   4.348 -0.6522  0.3060  0.7170
  208MOL0     H28047  12.925   6.823   4.515 -0.3001 -0.3875  0.3112
  208MOL0     H28048  13.119   6.704   4.482 -0.4433  0.2389  0.1500
  208MOL0     H28049  13.045   6.606   4.353  1.9076 -0.7051 -0.4167
  208MOL0     H28050  13.119   6.899   4.331 -1.1566  0.9741  1.7078
  208MOL0     H28051  13.064   6.804   4.199  2.4298  0.0080 -1.4008
  208MOL0     H28052  13.237   6.636   4.205 -2.3364  0.4361  2.9010
  208MOL0     H28053  13.328   6.717   4.333  0.1174 -0.0757  0.6746
  208MOL0     H28054  13.263   6.809   4.041 -0.4916  1.2576 -0.7359
  208MOL0     H28055  13.281   6.928   4.164 -0.4835 -0.5127  0.7981
  208MOL0     H28056  13.476   6.867   4.013  2.4022  2.1706  2.2725
  208MOL0     H28057  13.464   6.702   4.082  2.1458  0.8019 -0.6338
  208MOL0     H28058  13.639   6.894   4.150 -0.7563 -1.8877 -1.7057
  208MOL0     H28059  13.523   6.929   4.271 -2.9411 -1.0765 -0.6159
  208MOL0     H28060  12.488   6.661   4.634 -2.8147  1.8165 -1.9360
  208MOL0     H28061  12.309   6.478   4.602  0.4973 -2.9825  0.7702
  208MOL0     H28062  12.279   5.906   4.501 -0.3772 -0.2405  0.6482
  208MOL0     H28063  12.100   5.767   4.442  0.0548 -0.4336 -1.7314
  208MOL0     H28064   9.949   5.820   4.262 -0.1852  0.3443 -0.2773
  208MOL0     H28065   9.705   5.855   4.327 -0.2328 -0.5127  0.9851
  208MOL0     H28066   9.288   6.014   4.160  1.4545  1.0941  0.6425
  208MOL0     H28067   9.077   6.106   4.243  2.0635 -1.6123 -4.8773
  208MOL0     H28068   8.825   6.012   4.261 -0.8874 -1.4811  0.5514
  208MOL0     H28069   8.887   6.165   4.331 -2.2575  0.7723 -1.7997
  208MOL0     H28070   8.738   6.131   4.532 -0.9020  1.0129 -0.6150
  208MOL0     H28071   8.670   5.982   4.443 -0.1963  0.4441  0.0343
  208MOL0     H28072   8.596   6.126   4.256  3.2050  0.4394 -0.4754
  208MOL0     H28073   8.651   6.265   4.334  0.0954 -0.4079 -1.6704
  208MOL0     H28074   8.476   6.243   4.525 -2.3253  1.9094 -1.2086
  208MOL0     H28075   8.431   6.261   4.366 -0.9495 -0.1249  0.9594
  208MOL0     H28076   8.218   5.925   4.409  0.6546 -1.4078 -0.4790
  208MOL0     H28077   9.054   5.789   4.528 -1.0628 -1.7833 -1.1910
  208MOL0     H28078   9.214   5.568   4.427 -0.8449 -0.3538  1.5489
  208MOL0     H28079   9.377   5.643   4.470  0.3570 -2.0806 -1.7879
  208MOL0     H28080   9.239   5.656   4.573 -0.3400 -3.1047 -0.5544
  209MOL0     O28081   2.199   5.980   3.543 -0.0832 -0.3221 -0.8937
  209MOL0     C28082   2.208   6.026   3.656 -0.2329 -0.0050  0.2906
  209MOL0     O28083   2.185   6.148   3.693  0.4576 -0.1782  0.5407
  209MOL0     C28084   2.147   6.235   3.595  0.4357  0.6363  0.3773
  209MOL0     C28085   2.225   6.272   3.482 -0.1612 -0.4531 -0.7914
  209MOL0     C28086   2.182   6.368   3.389 -0.4817  0.2450 -0.2703
  209MOL0     C28087   2.058   6.417   3.395 -0.2816  0.6309 -0.0163
  209MOL0     O28088   2.012   6.505   3.299  0.2065 -0.0792  1.0018
  209MOL0     C28089   1.920   6.432   3.207  0.1612 -0.5900 -0.6631
  209MOL0     C28090   1.845   6.533   3.123 -0.2620 -0.3152 -0.4111
  209MOL0     C28091   1.742   6.621   3.201 -0.2761  0.4577  0.9742
  209MOL0     C28092   1.640   6.547   3.290 -0.5282 -0.1591 -0.1935
  209MOL0     C28093   1.514   6.633   3.320  0.9651  0.9252 -0.0407
  209MOL0     C28094   1.406   6.555   3.398 -0.0965  0.5187  0.8150
  209MOL0     C28095   1.314   6.476   3.303 -0.0228  0.3880 -0.5921
  209MOL0     C28096   1.210   6.562   3.236 -0.4625  0.0702  0.5572
  209MOL0     N28097   1.162   6.493   3.113  0.2770 -0.4199 -0.2105
  209MOL0     C28098   1.228   6.502   3.000 -0.4246  0.3351  0.7631
  209MOL0     C28099   1.167   6.421   2.918 -0.2245 -0.6619 -0.0990
  209MOL0     C28100   1.224   6.375   2.790  0.6569  0.5939 -0.8476
  209MOL0     C28101   1.201   6.230   2.746  0.4063 -1.0701  0.6034
  209MOL0     C28102   1.237   6.126   2.847  0.0591 -0.2958 -0.2075
  209MOL0     C28103   1.243   5.986   2.791 -0.3956 -0.1909  0.8339
  209MOL0     O28104   1.347   5.981   2.691 -0.2942  0.3395 -0.6529
  209MOL0     C28105   1.464   5.907   2.714  0.0762 -0.1793  0.1544
  209MOL0     C28106   1.480   5.792   2.792 -0.2891 -0.8960  0.0650
  209MOL0     C28107   1.594   5.726   2.803 -0.7275 -0.1065  0.3358
  209MOL0     C28108   1.711   5.765   2.737  1.1224  0.3963  0.7463
  209MOL0     C28109   1.846   5.710   2.756 -0.5176  0.3014 -0.2412
  209MOL0     O28110   1.944   5.760   2.674  0.2450  0.8434  0.3341
  209MOL0     C28111   2.078   5.740   2.684  0.5174  0.6256 -0.5153
  209MOL0     C28112   2.144   5.736   2.805  0.6306 -0.9673 -0.0970
  209MOL0     C28113   2.278   5.735   2.818  0.5673 -0.2315  0.9521
  209MOL0     C28114   2.360   5.757   2.711  0.4582 -0.1252 -0.0169
  209MOL0     O28115   2.493   5.769   2.706 -1.0689  0.6966  0.2086
  209MOL0     C28116   2.575   5.729   2.819  0.6218 -0.5456  0.3726
  209MOL0     C28117   2.718   5.755   2.776 -1.3154 -0.7021  0.1974
  209MOL0     C28118   2.801   5.721   2.898  1.0064  0.6007 -0.2443
  209MOL0     C28119   2.946   5.710   2.873  0.3171  0.3657  0.7960
  209MOL0     C28120   3.029   5.720   3.003 -0.2998 -0.5107  0.3208
  209MOL0     C28121   3.180   5.725   2.975 -1.1590 -0.3264  0.2431
  209MOL0     C28122   3.269   5.757   3.102  0.5555 -0.2112  0.6483
  209MOL0     C28123   3.312   5.625   3.165 -0.2467  0.3379  0.6011
  209MOL0    Cl28124   3.448   5.557   3.082  0.0884 -0.2763 -0.0334
  209MOL0     C28125   2.299   5.761   2.588  0.6943 -0.3025 -0.4750
  209MOL0     C28126   2.160   5.738   2.572 -0.5006 -0.3529  0.8271
  209MOL0     O28127   1.862   5.633   2.844  0.4157  0.4780  0.4919
  209MOL0     C28128   1.693   5.872   2.653  0.5635  0.4312 -0.4334
  209MOL0     C28129   1.575   5.947   2.639 -0.4681  1.0305  0.5512
  209MOL0     N28130   1.056   6.367   2.987 -0.5080 -0.2438  0.0811
  209MOL0     N28131   1.063   6.403   3.107  1.1862 -0.0086  0.0497
  209MOL0     C28132   1.980   6.379   3.498 -0.0582  0.5614 -0.0943
  209MOL0     C28133   2.027   6.298   3.601 -0.8671  0.4758 -0.0731
  209MOL0     C28134   2.263   5.943   3.758 -0.4235  0.8760 -0.3566
  209MOL0     C28135   2.183   5.839   3.798 -0.5521  0.3972 -0.2918
  209MOL0     C28136   2.222   5.762   3.905  0.1325 -0.6539  0.3354
  209MOL0     C28137   2.340   5.796   3.979  0.6463  1.0419 -0.8300
  209MOL0     O28138   2.401   5.722   4.082  0.4450 -0.3589  0.1867
  209MOL0     C28139   2.345   5.587   4.116  0.0221 -0.5597 -0.7108
  209MOL0     C28140   2.409   5.513   4.238 -0.0785 -0.0139  0.0245
  209MOL0     C28141   2.550   5.456   4.214 -0.2313 -0.3822 -0.2019
  209MOL0     C28142   2.542   5.320   4.157 -0.1265  0.2792 -0.2465
  209MOL0     C28143   2.676   5.248   4.183  0.5065  0.5479  0.7232
  209MOL0     C28144   2.782   5.188   4.171 -0.4246 -0.1934  1.3510
  209MOL0     C28145   2.416   5.908   3.946 -1.2515 -0.6102  0.5507
  209MOL0     C28146   2.380   5.989   3.831  0.6128  0.2473  0.7570
  209MOL0     C28147   2.456   6.122   3.799 -0.3240  0.5642  0.0058
  209MOL0     H28148   2.323   6.226   3.480 -0.9961 -2.6673  2.3238
  209MOL0     H28149   2.245   6.399   3.306  1.1244  1.0615  1.1950
  209MOL0     H28150   1.981   6.362   3.148 -0.2389 -0.4321 -1.2773
  209MOL0     H28151   1.844   6.388   3.273 -0.5611  2.8024  0.9663
  209MOL0     H28152   1.795   6.467   3.052 -2.0563 -0.7816  1.2000
  209MOL0     H28153   1.920   6.593   3.070 -0.3426 -0.1007 -0.2823
  209MOL0     H28154   1.684   6.670   3.123 -0.1610 -1.5020 -0.4182
  209MOL0     H28155   1.795   6.700   3.255  0.4828  0.8500 -0.3014
  209MOL0     H28156   1.610   6.452   3.244  0.5692 -1.0482  0.8426
  209MOL0     H28157   1.690   6.519   3.383 -0.6695  1.1219  0.2859
  209MOL0     H28158   1.547   6.721   3.376 -0.9909  0.5912  1.7281
  209MOL0     H28159   1.475   6.659   3.221  2.9995  2.5644 -0.4860
  209MOL0     H28160   1.466   6.480   3.450  0.8383  1.0996  0.5851
  209MOL0     H28161   1.354   6.619   3.471 -0.2851  1.1369  0.1481
  209MOL0     H28162   1.258   6.409   3.369  0.3057 -0.9937 -1.6621
  209MOL0     H28163   1.369   6.421   3.226  0.5281 -0.9242  0.6850
  209MOL0     H28164   1.143   6.589   3.318  0.4329 -1.9075  2.0549
  209MOL0     H28165   1.260   6.653   3.203 -0.7569  0.0562  0.0619
  209MOL0     H28166   1.321   6.557   2.984 -0.5415  1.9833  4.6729
  209MOL0     H28167   1.179   6.438   2.714  0.9777  2.0782  0.1487
  209MOL0     H28168   1.332   6.392   2.790  0.6354  0.7541 -0.3968
  209MOL0     H28169   1.097   6.205   2.721  0.3104 -0.6624  0.5957
  209MOL0     H28170   1.268   6.214   2.661  0.9851  1.2965  0.5605
  209MOL0     H28171   1.154   6.123   2.917  0.6318 -1.2433  0.4714
  209MOL0     H28172   1.329   6.151   2.901  0.2559 -2.1373  0.4032
  209MOL0     H28173   1.147   5.964   2.744 -1.6880  4.1333  1.0713
  209MOL0     H28174   1.267   5.915   2.871  1.1596 -0.6128  0.0466
  209MOL0     H28175   1.395   5.755   2.848 -0.2790  0.7945  1.2590
  209MOL0     H28176   1.606   5.647   2.876  3.3726  0.4168  0.4723
  209MOL0     H28177   2.084   5.742   2.895 -0.4451  2.4112 -0.8967
  209MOL0     H28178   2.329   5.724   2.913 -0.9069 -6.1212  1.4015
  209MOL0     H28179   2.548   5.791   2.905  0.2284  1.6412 -1.2395
  209MOL0     H28180   2.545   5.625   2.838 -1.3646 -0.0912 -0.0578
  209MOL0     H28181   2.743   5.687   2.694  2.8260 -2.7160  2.8278
  209MOL0     H28182   2.722   5.860   2.745 -0.4282 -1.0994 -1.1313
  209MOL0     H28183   2.778   5.795   2.976  1.6574  1.4055 -0.7951
  209MOL0     H28184   2.776   5.625   2.943 -1.4887  2.1939  2.1401
  209MOL0     H28185   2.982   5.781   2.798 -0.3623  1.9041  1.8837
  209MOL0     H28186   2.963   5.614   2.824 -0.5345  1.1230 -1.0769
  209MOL0     H28187   3.014   5.639   3.075 -0.8868  1.1060  2.1103
  209MOL0     H28188   2.989   5.811   3.050  0.9256 -0.3297  1.0673
  209MOL0     H28189   3.206   5.629   2.932  0.8512  1.9221 -4.2279
  209MOL0     H28190   3.211   5.797   2.899  2.7860 -2.2721 -0.2446
  209MOL0     H28191   3.209   5.815   3.172  1.4070  0.4035  0.8773
  209MOL0     H28192   3.346   5.825   3.064  0.4831 -0.6838 -0.3983
  209MOL0     H28193   3.342   5.648   3.268 -1.3979  1.7714  0.6458
  209MOL0     H28194   3.236   5.547   3.167  0.5708 -0.6850 -2.6392
  209MOL0     H28195   2.361   5.760   2.499  0.7644 -0.4167 -0.4243
  209MOL0     H28196   2.122   5.717   2.473  0.2097 -1.4614  0.7713
  209MOL0     H28197   1.779   5.906   2.597  1.9350 -0.5517  0.9860
  209MOL0     H28198   1.573   6.040   2.582 -0.3055 -0.3251 -1.8195
  209MOL0     H28199   1.882   6.426   3.506  0.8617  2.3161  2.2386
  209MOL0     H28200   1.952   6.266   3.672 -0.7945  0.2725 -0.0868
  209MOL0     H28201   2.091   5.815   3.745 -0.1499 -0.9986 -0.4039
  209MOL0     H28202   2.167   5.678   3.947  0.4346 -0.7976  0.4501
  209MOL0     H28203   2.356   5.534   4.021 -1.1787  0.8867 -1.7201
  209MOL0     H28204   2.242   5.595   4.153  0.8131 -1.2436  1.7625
  209MOL0     H28205   2.344   5.428   4.258  1.1861 -0.5358  2.3192
  209MOL0     H28206   2.405   5.592   4.314 -0.9556  1.5272 -1.5287
  209MOL0     H28207   2.604   5.460   4.309  1.5328  1.1907 -1.1984
  209MOL0     H28208   2.614   5.524   4.156 -0.0905  0.0023  0.4055
  209MOL0     H28209   2.461   5.262   4.203 -0.3369  2.4112  2.3457
  209MOL0     H28210   2.532   5.329   4.049  3.1170  1.7292 -0.5423
  209MOL0     H28211   2.879   5.146   4.152 -0.6646  0.5216 -2.0536
  209MOL0     H28212   2.508   5.926   4.001  0.0117 -2.6719 -0.7414
  209MOL0     H28213   2.483   6.133   3.694  0.9019  0.0856  0.2493
  209MOL0     H28214   2.391   6.204   3.830 -0.3453  0.4950  0.1499
  209MOL0     H28215   2.548   6.119   3.859  0.0259  2.8398 -0.3494
  210MOL0     O28216   5.815   3.550   2.093 -0.1478  0.3886  0.1017
  210MOL0     C28217   5.857   3.472   2.000 -1.1794 -0.6959 -0.1561
  210MOL0     O28218   5.984   3.437   1.976  0.1318 -0.1143 -0.1407
  210MOL0     C28219   6.082   3.491   2.053  0.0790  0.1471  1.3575
  210MOL0     C28220   6.095   3.441   2.180  0.1022 -0.6564 -0.2373
  210MOL0     C28221   6.194   3.496   2.268 -0.3069 -0.3826 -0.1948
  210MOL0     C28222   6.290   3.588   2.226 -0.4815 -0.4457 -0.7228
  210MOL0     O28223   6.394   3.617   2.312  0.1045 -0.5475 -0.5307
  210MOL0     C28224   6.511   3.682   2.254  0.1868 -0.1058  0.3604
  210MOL0     C28225   6.605   3.584   2.181  0.7006  0.6626  0.1851
  210MOL0     C28226   6.751   3.606   2.205  0.5705 -0.3011  0.6743
  210MOL0     C28227   6.809   3.734   2.140  0.9719  0.5120  0.4237
  210MOL0     C28228   6.955   3.758   2.179 -0.3179 -0.8675  0.2822
  210MOL0     C28229   7.010   3.883   2.115 -0.2720  0.3865 -1.0952
  210MOL0     C28230   7.163   3.866   2.130  0.3655  0.2772  0.6962
  210MOL0     C28231   7.232   3.991   2.069  0.5282  0.1961 -0.2840
  210MOL0     N28232   7.371   3.996   2.089 -0.1748 -0.6400 -0.1236
  210MOL0     C28233   7.458   3.901   2.046  0.1141 -0.0110  0.9324
  210MOL0     C28234   7.584   3.962   2.059 -0.2700 -0.4020  0.0570
  210MOL0     C28235   7.718   3.896   2.031 -0.0602 -0.4430  0.4126
  210MOL0     C28236   7.803   3.973   1.942  0.0801  0.0816 -0.1533
  210MOL0     C28237   7.928   3.896   1.907 -0.5932  0.5290  0.3175
  210MOL0     C28238   8.016   3.955   1.796 -0.7509 -0.3920  0.1291
  210MOL0     O28239   8.122   3.864   1.771 -0.2504  0.1887 -0.4872
  210MOL0     C28240   8.252   3.886   1.817  0.0099 -0.8087  0.1261
  210MOL0     C28241   8.279   3.911   1.951 -0.9054  0.5776 -1.7157
  210MOL0     C28242   8.420   3.926   1.994  0.2470 -0.0441 -0.6443
  210MOL0     C28243   8.527   3.917   1.903  0.0735  0.2815  0.2227
  210MOL0     C28244   8.668   3.936   1.943 -0.5342 -0.6307  0.3632
  210MOL0     O28245   8.765   3.878   1.856  0.4827  0.1398 -0.1695
  210MOL0     C28246   8.879   3.844   1.914  0.2870 -0.8148  0.0363
  210MOL0     C28247   8.990   3.855   1.828 -0.7329 -0.3281 -0.7334
  210MOL0     C28248   9.125   3.829   1.865  0.7619 -0.0852 -0.2251
  210MOL0     C28249   9.148   3.791   1.999 -0.4765  0.1119  0.3234
  210MOL0     O28250   9.278   3.771   2.033 -0.1863  0.0304  0.8674
  210MOL0     C28251   9.330   3.708   2.147  0.5952 -0.1651 -0.8395
  210MOL0     C28252   9.480   3.664   2.126 -0.2576  0.7769 -0.1841
  210MOL0     C28253   9.557   3.776   2.068  0.1240  1.2980 -0.7293
  210MOL0     C28254   9.703   3.755   2.096 -0.3628 -0.5851 -1.3018
  210MOL0     C28255   9.781   3.865   2.029  0.8418 -0.9024 -0.4849
  210MOL0     C28256   9.933   3.838   2.033 -0.1089 -0.0695  0.8748
  210MOL0     C28257  10.022   3.961   2.016 -0.7812 -0.2368  0.2013
  210MOL0     C28258  10.163   3.915   1.979 -0.3030  0.3887 -0.1563
  210MOL0    Cl28259  10.276   4.056   1.938  0.0349  0.2646  0.0578
  210MOL0     C28260   9.039   3.795   2.090  0.8794  1.2161  0.0232
  210MOL0     C28261   8.907   3.806   2.039 -0.5112  0.1631 -0.2493
  210MOL0     O28262   8.686   3.977   2.060  0.2256  0.3146  0.5152
  210MOL0     C28263   8.491   3.881   1.769  0.2817 -0.2781  0.9498
  210MOL0     C28264   8.358   3.869   1.722 -0.1615  0.3116 -0.3160
  210MOL0     N28265   7.566   4.086   2.109  0.1301 -0.1907  0.2456
  210MOL0     N28266   7.443   4.101   2.138  0.3685 -0.1890 -0.0653
  210MOL0     C28267   6.272   3.636   2.097 -0.3298 -0.2216  0.1702
  210MOL0     C28268   6.173   3.582   2.009 -1.1226  0.1273 -0.2780
  210MOL0     C28269   5.777   3.442   1.885  0.1517 -0.0789 -0.6885
  210MOL0     C28270   5.822   3.477   1.759  0.2061  0.3843 -0.7226
  210MOL0     C28271   5.738   3.445   1.646 -0.0541  0.2606  0.2416
  210MOL0     C28272   5.609   3.384   1.658 -0.1188 -0.2158  0.2023
  210MOL0     O28273   5.539   3.360   1.543 -0.0723  0.6346  0.2481
  210MOL0     C28274   5.432   3.263   1.545  0.6182  0.1077 -0.5329
  210MOL0     C28275   5.472   3.111   1.542  0.3034  0.6736 -0.3394
  210MOL0     C28276   5.350   3.016   1.570 -0.3826 -0.3415  0.6664
  210MOL0     C28277   5.383   2.879   1.505  0.0809 -0.1265 -0.7660
  210MOL0     C28278   5.503   2.820   1.569 -0.0392  0.1669 -0.3730
  210MOL0     C28279   5.610   2.790   1.607 -0.0973 -1.0000  0.5683
  210MOL0     C28280   5.567   3.349   1.794 -0.2627 -0.7540  0.1065
  210MOL0     C28281   5.648   3.380   1.901 -0.3362  0.4210 -0.2609
  210MOL0     C28282   5.586   3.344   2.037 -0.4009 -0.4139  0.1251
  210MOL0     H28283   6.021   3.368   2.213 -0.1448  0.1559  1.0534
  210MOL0     H28284   6.199   3.453   2.368 -1.0059  1.9271  0.9293
  210MOL0     H28285   6.487   3.765   2.187 -0.7139 -1.1283 -0.6243
  210MOL0     H28286   6.561   3.725   2.342  0.4006  1.7531 -0.6178
  210MOL0     H28287   6.569   3.594   2.078  0.3692  0.7446  0.3075
  210MOL0     H28288   6.594   3.482   2.218  2.1310 -0.2960 -1.8894
  210MOL0     H28289   6.803   3.521   2.161 -0.4037 -0.2292 -0.6909
  210MOL0     H28290   6.778   3.621   2.310 -0.3196  0.1810  0.8432
  210MOL0     H28291   6.792   3.715   2.034 -2.3057 -1.3691  1.1496
  210MOL0     H28292   6.750   3.822   2.167 -0.0474 -0.3067  0.9615
  210MOL0     H28293   6.973   3.763   2.286  1.1856  1.1473  0.0069
  210MOL0     H28294   7.016   3.670   2.154  1.2342 -0.0499  1.0732
  210MOL0     H28295   6.982   3.901   2.011  1.6426  1.0402 -1.5561
  210MOL0     H28296   6.986   3.971   2.177  0.4646 -1.2147  1.6320
  210MOL0     H28297   7.193   3.768   2.092 -1.4754  0.1307 -0.4778
  210MOL0     H28298   7.191   3.873   2.236  1.0044 -0.2163  0.5640
  210MOL0     H28299   7.208   3.990   1.962 -1.9338  3.6096  0.0655
  210MOL0     H28300   7.187   4.084   2.106 -2.7848  0.0350 -3.3004
  210MOL0     H28301   7.444   3.794   2.038 -4.1782  0.3233  1.7063
  210MOL0     H28302   7.772   3.859   2.120 -0.1757 -1.3975  0.1023
  210MOL0     H28303   7.690   3.806   1.975 -1.5604  1.5454 -2.2361
  210MOL0     H28304   7.751   3.998   1.849 -0.0012  1.8550  0.3438
  210MOL0     H28305   7.827   4.070   1.986  0.0738  0.1749 -0.3552
  210MOL0     H28306   7.915   3.788   1.891  2.1886  0.4230 -2.3074
  210MOL0     H28307   7.982   3.912   2.001 -1.9447  0.3779  1.1413
  210MOL0     H28308   8.054   4.054   1.824  0.3700 -0.5156 -0.8898
  210MOL0     H28309   7.958   3.956   1.704 -0.8345  1.5173  0.1594
  210MOL0     H28310   8.196   3.927   2.019  1.7713  1.3944  1.6083
  210MOL0     H28311   8.439   3.934   2.100  1.6838 -0.3663 -0.8622
  210MOL0     H28312   8.974   3.883   1.724 -1.9098  1.0566 -0.2145
  210MOL0     H28313   9.210   3.825   1.797 -0.4426 -1.3629 -1.7536
  210MOL0     H28314   9.333   3.771   2.237  1.1015 -2.9394  1.2215
  210MOL0     H28315   9.262   3.626   2.171  0.4645  0.5120  1.2674
  210MOL0     H28316   9.522   3.635   2.223 -0.9989  1.5416  0.3829
  210MOL0     H28317   9.497   3.579   2.060 -0.4221 -0.3488  1.1746
  210MOL0     H28318   9.539   3.784   1.961 -1.7533 -5.0055 -1.2515
  210MOL0     H28319   9.528   3.868   2.121 -0.1224  2.9700 -3.5532
  210MOL0     H28320   9.737   3.656   2.064  0.5481 -1.7221  2.6853
  210MOL0     H28321   9.721   3.741   2.203 -1.2483 -1.3475 -1.2398
  210MOL0     H28322   9.775   3.948   2.100  2.1076  0.8244 -2.2716
  210MOL0     H28323   9.743   3.900   1.933 -0.9019 -0.9599  0.1413
  210MOL0     H28324   9.939   3.788   2.130  1.9549 -0.0528  0.8017
  210MOL0     H28325   9.956   3.766   1.954  2.4972  1.4857  0.1024
  210MOL0     H28326  10.024   4.027   2.103 -1.1615 -1.2299  0.9852
  210MOL0     H28327   9.989   4.012   1.925 -0.3200 -2.9345 -1.5849
  210MOL0     H28328  10.198   3.852   2.062 -3.9694 -2.1413 -0.2774
  210MOL0     H28329  10.170   3.862   1.884  1.4373 -1.3066  0.8416
  210MOL0     H28330   9.057   3.758   2.190 -0.6171  0.2264 -0.0353
  210MOL0     H28331   8.832   3.799   2.118 -0.1497 -2.3228 -0.0648
  210MOL0     H28332   8.571   3.869   1.696  0.0495 -0.4778  0.7247
  210MOL0     H28333   8.339   3.839   1.619 -0.2507 -1.3402  0.1533
  210MOL0     H28334   6.330   3.721   2.061  1.8260 -1.3836  0.7034
  210MOL0     H28335   6.170   3.628   1.910 -3.5158 -3.2026 -1.9574
  210MOL0     H28336   5.904   3.547   1.750  1.7620 -0.8401  2.6132
  210MOL0     H28337   5.763   3.489   1.550 -5.9892  1.2804 -1.1957
  210MOL0     H28338   5.366   3.263   1.458  0.2383  1.1388 -0.2514
  210MOL0     H28339   5.361   3.267   1.628 -1.7428 -0.7344 -2.3820
  210MOL0     H28340   5.561   3.090   1.601 -0.7770 -2.6339  0.3206
  210MOL0     H28341   5.502   3.093   1.438 -1.3395  5.2972 -1.8763
  210MOL0     H28342   5.252   3.052   1.537 -1.5443 -0.6532  3.4650
  210MOL0     H28343   5.338   2.996   1.677  1.9395 -3.5915  0.4638
  210MOL0     H28344   5.302   2.808   1.523 -2.0397  1.9585 -1.5747
  210MOL0     H28345   5.390   2.883   1.396  0.1721  0.1562 -0.7503
  210MOL0     H28346   5.711   2.772   1.636  0.7688  2.7665  0.3284
  210MOL0     H28347   5.469   3.305   1.806  0.3843 -3.4871 -3.1212
  210MOL0     H28348   5.668   3.356   2.109  0.7273  2.2233 -1.4697
  210MOL0     H28349   5.498   3.403   2.063 -2.0465 -2.8465  0.4716
  210MOL0     H28350   5.549   3.241   2.042 -0.4001 -0.3762  1.2303
  211MOL0     O28351   3.581  10.738   8.928 -0.4008  0.3972 -0.1146
  211MOL0     C28352   3.593  10.853   8.977  0.5994  0.1071  0.7173
  211MOL0     O28353   3.694  10.893   9.053 -0.0699  0.0146  0.8089
  211MOL0     C28354   3.828  10.879   9.018  0.2294  0.0598 -0.1138
  211MOL0     C28355   3.868  10.805   8.900 -0.1512  0.7859 -0.3636
  211MOL0     C28356   4.008  10.789   8.884  0.1353  0.6970  0.9419
  211MOL0     C28357   4.102  10.836   8.970  0.0132 -0.4538  0.0674
  211MOL0     O28358   4.238  10.825   8.946 -0.2442 -0.0020  1.0354
  211MOL0     C28359   4.293  10.723   8.857  0.5356  0.1650  0.2079
  211MOL0     C28360   4.448  10.756   8.826 -0.0132 -0.0906  0.4628
  211MOL0     C28361   4.529  10.632   8.781  0.9162  0.0760 -0.0864
  211MOL0     C28362   4.592  10.555   8.891  0.3249 -0.7194 -0.1096
  211MOL0     C28363   4.620  10.410   8.862 -0.1276  0.7653  0.0640
  211MOL0     C28364   4.663  10.321   8.977  0.5330  0.3328  0.1923
  211MOL0     C28365   4.682  10.172   8.937  0.0186  0.8776 -0.0568
  211MOL0     C28366   4.807  10.131   8.862  0.6642 -0.7499  0.7564
  211MOL0     N28367   4.789  10.001   8.797 -0.8263 -0.2080  0.0252
  211MOL0     C28368   4.795   9.880   8.869  0.4339 -0.2783 -0.0753
  211MOL0     C28369   4.793   9.784   8.773  1.4904  0.3061 -0.5680
  211MOL0     C28370   4.823   9.640   8.802 -0.1800 -0.4371  0.3437
  211MOL0     C28371   4.972   9.604   8.770  0.6523  0.7386 -0.9195
  211MOL0     C28372   5.023   9.691   8.658 -0.2172 -1.0338  0.8732
  211MOL0     C28373   5.160   9.657   8.608  0.1714 -0.2959  0.0794
  211MOL0     O28374   5.259   9.733   8.679 -0.3576 -0.9177  0.2661
  211MOL0     C28375   5.348   9.673   8.761 -0.5552 -0.3950 -0.5894
  211MOL0     C28376   5.359   9.538   8.788  0.5112 -0.1421 -0.5983
  211MOL0     C28377   5.449   9.496   8.884  0.0263  0.0732 -0.3982
  211MOL0     C28378   5.536   9.580   8.964  0.3581  0.5673  0.9279
  211MOL0     C28379   5.642   9.519   9.053  0.2323  0.7312  0.3075
  211MOL0     O28380   5.738   9.610   9.096 -0.2353  0.1400 -0.1284
  211MOL0     C28381   5.858   9.567   9.136 -0.5002  0.6924 -1.5222
  211MOL0     C28382   5.941   9.510   9.042  0.2854 -0.2649 -0.4198
  211MOL0     C28383   6.073   9.482   9.067 -0.8087  0.3988  0.1106
  211MOL0     C28384   6.123   9.501   9.200  0.4427  0.3491  0.0036
  211MOL0     O28385   6.251   9.468   9.224  0.0188  0.4441 -0.3956
  211MOL0     C28386   6.279   9.359   9.308  0.4780 -0.2268 -0.0899
  211MOL0     C28387   6.346   9.405   9.442 -0.1475  0.2582  0.1357
  211MOL0     C28388   6.479   9.489   9.410 -0.2548  0.7794  0.1760
  211MOL0     C28389   6.541   9.541   9.536  0.4616 -0.3463 -0.3306
  211MOL0     C28390   6.679   9.612   9.509 -0.0150  0.1121 -1.1648
  211MOL0     C28391   6.745   9.662   9.635 -0.2557 -0.3355  0.6367
  211MOL0     C28392   6.861   9.749   9.608  0.3198  0.6749 -0.6618
  211MOL0     C28393   6.952   9.798   9.721  0.4223  0.7064 -0.1642
  211MOL0    Cl28394   7.065   9.925   9.664  0.3883 -0.0396  0.1339
  211MOL0     C28395   6.032   9.559   9.297 -0.0015 -0.9805 -0.5390
  211MOL0     C28396   5.906   9.584   9.264  0.0390 -0.5048  0.0885
  211MOL0     O28397   5.660   9.401   9.058 -0.1088 -0.0357  0.2458
  211MOL0     C28398   5.523   9.714   8.931 -0.6920 -0.8890  0.5056
  211MOL0     C28399   5.425   9.759   8.837 -0.7187  0.2368  0.2258
  211MOL0     N28400   4.783   9.843   8.649 -0.5531 -0.0538  0.5305
  211MOL0     N28401   4.785   9.969   8.665  0.1288 -0.3639  0.2956
  211MOL0     C28402   4.062  10.908   9.081  0.4243 -0.4088  0.0566
  211MOL0     C28403   3.923  10.924   9.105 -0.1727  0.2305  1.2423
  211MOL0     C28404   3.490  10.958   8.964  0.1637  0.2715 -0.1824
  211MOL0     C28405   3.541  11.089   8.941  0.1692 -0.2890  0.6651
  211MOL0     C28406   3.457  11.189   8.904  0.4210  0.5425  1.1481
  211MOL0     C28407   3.313  11.159   8.890 -0.8080 -0.3141  0.0450
  211MOL0     O28408   3.238  11.264   8.858  0.9577  0.4188 -0.9056
  211MOL0     C28409   3.097  11.259   8.878  0.8864 -0.2379 -0.5167
  211MOL0     C28410   3.044  11.394   8.820 -0.5949 -1.0118 -0.3643
  211MOL0     C28411   3.098  11.435   8.680  0.5913  0.1874 -0.4599
  211MOL0     C28412   3.183  11.562   8.680  0.3334 -0.0240  0.0133
  211MOL0     C28413   3.115  11.696   8.711 -0.0154 -0.2760  1.1546
  211MOL0     C28414   3.055  11.799   8.757  0.1009 -0.2454 -0.5933
  211MOL0     C28415   3.264  11.032   8.926  0.0038  0.9337 -0.1401
  211MOL0     C28416   3.347  10.933   8.965 -1.6481 -0.6112 -0.4640
  211MOL0     C28417   3.286  10.793   8.979 -0.9471  0.4945 -1.0660
  211MOL0     H28418   3.798  10.766   8.827  1.1336 -1.4441 -0.4898
  211MOL0     H28419   4.038  10.722   8.803  1.0861  0.0743  1.7864
  211MOL0     H28420   4.288  10.628   8.911 -0.8382 -0.4729 -0.9618
  211MOL0     H28421   4.228  10.714   8.769  2.1542 -0.8304 -0.9320
  211MOL0     H28422   4.498  10.792   8.917  2.1075 -3.3932  0.7661
  211MOL0     H28423   4.450  10.832   8.748  0.2915  0.0804  0.6352
  211MOL0     H28424   4.595  10.667   8.701 -0.7157  0.3563 -1.3878
  211MOL0     H28425   4.455  10.573   8.725  1.1678  0.6563 -1.0648
  211MOL0     H28426   4.686  10.605   8.917 -1.0697  1.8429  0.2996
  211MOL0     H28427   4.522  10.561   8.975 -0.7002 -1.6040 -0.8760
  211MOL0     H28428   4.528  10.365   8.821  0.5545 -0.0754 -0.5854
  211MOL0     H28429   4.693  10.408   8.780  0.3820  3.4961  0.3617
  211MOL0     H28430   4.761  10.351   9.015  1.4819 -0.8939 -1.2142
  211MOL0     H28431   4.587  10.325   9.056 -0.3024  0.8314 -0.6240
  211MOL0     H28432   4.590  10.142   8.886 -0.4120  0.3371  1.0036
  211MOL0     H28433   4.686  10.111   9.027 -2.2712  0.4720 -0.1566
  211MOL0     H28434   4.830  10.210   8.789  0.6138  1.2330  2.7723
  211MOL0     H28435   4.890  10.137   8.934  1.2228  0.3996  0.0553
  211MOL0     H28436   4.823   9.877   8.973 -0.4883  3.3040  0.4118
  211MOL0     H28437   4.812   9.616   8.908 -4.1255 -0.1710  0.1522
  211MOL0     H28438   4.759   9.574   8.742 -1.7288  1.8348 -0.6455
  211MOL0     H28439   5.027   9.604   8.865  2.0842  2.5162 -1.6925
  211MOL0     H28440   4.968   9.501   8.733 -1.5028  1.4694 -2.9657
  211MOL0     H28441   5.023   9.791   8.702 -1.4126 -1.0652  0.9678
  211MOL0     H28442   4.961   9.681   8.569  1.3101 -0.7229 -0.2684
  211MOL0     H28443   5.171   9.682   8.502 -0.4017 -2.0668 -0.4321
  211MOL0     H28444   5.180   9.550   8.621  0.8244  0.1514  4.1284
  211MOL0     H28445   5.294   9.459   8.753 -3.4714  1.1492  2.9542
  211MOL0     H28446   5.465   9.390   8.898  0.8316  0.2010 -0.3103
  211MOL0     H28447   5.904   9.496   8.942  0.9587 -4.6628 -0.2571
  211MOL0     H28448   6.138   9.447   8.988  0.4075  0.1171  1.1970
  211MOL0     H28449   6.190   9.296   9.309  0.2262  0.1141  1.6677
  211MOL0     H28450   6.351   9.297   9.253 -1.3001 -0.4506 -2.3183
  211MOL0     H28451   6.277   9.469   9.498 -0.1335  1.3000 -0.9897
  211MOL0     H28452   6.351   9.318   9.509 -3.5395  0.1692  0.4287
  211MOL0     H28453   6.551   9.421   9.364 -2.3955 -0.4343 -1.5879
  211MOL0     H28454   6.461   9.566   9.335  0.6800  0.3747 -0.4732
  211MOL0     H28455   6.546   9.450   9.598 -3.1846 -1.0131 -0.8012
  211MOL0     H28456   6.471   9.602   9.594  0.1205 -0.3394 -0.7460
  211MOL0     H28457   6.652   9.704   9.456  1.7916  2.4110  1.5887
  211MOL0     H28458   6.740   9.540   9.455 -1.0308 -1.2754 -0.5154
  211MOL0     H28459   6.673   9.719   9.694  1.3479  0.8711  1.5332
  211MOL0     H28460   6.775   9.577   9.698 -2.1741 -0.6606  1.1698
  211MOL0     H28461   6.813   9.828   9.549  0.9472  2.1112  0.6532
  211MOL0     H28462   6.920   9.686   9.541  0.8129  2.1066 -1.6126
  211MOL0     H28463   6.888   9.841   9.797 -0.9132 -0.6453 -0.4783
  211MOL0     H28464   7.006   9.713   9.765 -0.5638 -0.3545 -0.9359
  211MOL0     H28465   6.069   9.567   9.399  1.7256 -1.8457 -1.0566
  211MOL0     H28466   5.836   9.612   9.342 -2.3419 -0.6462 -1.8678
  211MOL0     H28467   5.588   9.782   8.986 -1.7322 -0.4126  1.1883
  211MOL0     H28468   5.415   9.865   8.817  1.0855  0.7559  1.7078
  211MOL0     H28469   4.137  10.959   9.141 -0.3465  0.7223  0.1024
  211MOL0     H28470   3.875  10.983   9.182 -1.3604 -0.0702  0.7601
  211MOL0     H28471   3.649  11.106   8.943 -0.0447  1.2589  0.4561
  211MOL0     H28472   3.494  11.289   8.881  1.9674 -0.1277  0.5599
  211MOL0     H28473   3.077  11.258   8.985 -2.7829 -1.8932 -1.0823
  211MOL0     H28474   3.049  11.174   8.829  0.1092  1.1076 -2.2098
  211MOL0     H28475   3.065  11.482   8.882 -0.3056 -1.3228 -0.0147
  211MOL0     H28476   2.936  11.378   8.816 -0.5580 -0.9827 -2.2188
  211MOL0     H28477   3.014  11.449   8.611  1.3145 -0.2317 -1.4309
  211MOL0     H28478   3.164  11.358   8.639 -1.5908 -2.0368 -0.0487
  211MOL0     H28479   3.263  11.548   8.754 -0.3812  2.0624  1.2681
  211MOL0     H28480   3.231  11.564   8.582 -0.6604 -4.8888 -0.8527
  211MOL0     H28481   3.019  11.896   8.783  0.6519  0.8382 -3.5033
  211MOL0     H28482   3.159  11.005   8.918  0.5861 -1.4211 -0.4798
  211MOL0     H28483   3.327  10.721   8.907  1.7520  0.3474  0.4997
  211MOL0     H28484   3.305  10.758   9.081 -1.5983  3.5195  0.1804
  211MOL0     H28485   3.178  10.800   8.960 -1.3438  3.0716  1.4633
  212MOL0     O28486   5.591   9.834   0.999 -0.0427 -0.5227  0.7392
  212MOL0     C28487   5.682   9.856   1.078 -0.8783 -0.0514 -0.5288
  212MOL0     O28488   5.658   9.873   1.216  0.7788  0.6719 -0.7153
  212MOL0     C28489   5.529   9.897   1.264  0.8926  0.2793  0.8773
  212MOL0     C28490   5.427   9.984   1.206 -1.5061 -0.0327  0.4355
  212MOL0     C28491   5.311  10.008   1.287  0.3768 -0.1485  0.5652
  212MOL0     C28492   5.282   9.954   1.407  0.1540  0.1816 -0.4717
  212MOL0     O28493   5.168   9.984   1.483 -0.5143  0.0921 -0.2846
  212MOL0     C28494   5.090  10.091   1.427 -0.1149  0.4306 -0.0173
  212MOL0     C28495   4.965  10.110   1.516  0.1215 -0.5905  0.8543
  212MOL0     C28496   4.862   9.993   1.517 -0.2784 -0.6089  0.8026
  212MOL0     C28497   4.722  10.047   1.537 -0.3467  0.0330  0.5132
  212MOL0     C28498   4.614   9.950   1.573  0.6166  0.1706  0.0761
  212MOL0     C28499   4.466  10.009   1.539 -0.5780  0.0872  0.0209
  212MOL0     C28500   4.431  10.129   1.628  0.0753 -0.0517 -0.3188
  212MOL0     C28501   4.444  10.086   1.774  0.9823  0.2538 -0.0237
  212MOL0     N28502   4.387  10.193   1.858  0.0423  0.4210  0.3967
  212MOL0     C28503   4.392  10.199   1.993 -0.1103  0.5537 -0.1489
  212MOL0     C28504   4.307  10.296   2.025 -0.8346  0.1195  0.2167
  212MOL0     C28505   4.253  10.338   2.157  0.4383  0.4362  0.4403
  212MOL0     C28506   4.149  10.242   2.200  0.2063 -0.6119 -0.5488
  212MOL0     C28507   4.016  10.232   2.118  0.2402 -0.3252 -0.0887
  212MOL0     C28508   3.893  10.196   2.195 -0.2089  0.3205 -0.5829
  212MOL0     O28509   3.860  10.299   2.297  0.1836 -0.7663 -0.2889
  212MOL0     C28510   3.744  10.299   2.373  0.2650  0.3739  0.8898
  212MOL0     C28511   3.699  10.414   2.431  0.7412  0.0702 -0.4199
  212MOL0     C28512   3.588  10.406   2.512  0.0691 -0.1525 -0.9255
  212MOL0     C28513   3.520  10.284   2.536 -0.6429  0.4513 -0.0287
  212MOL0     C28514   3.401  10.272   2.629 -0.1057  0.5360 -0.4572
  212MOL0     O28515   3.408  10.375   2.725  0.3635  0.9124  0.1235
  212MOL0     C28516   3.279  10.393   2.778 -0.6615 -0.3890 -0.2598
  212MOL0     C28517   3.244  10.330   2.895 -0.1234  0.1473  0.2588
  212MOL0     C28518   3.114  10.336   2.932  0.5932  0.9728  0.3901
  212MOL0     C28519   3.015  10.422   2.867 -0.9148  1.3738  0.3134
  212MOL0     O28520   2.897  10.448   2.928  0.4301 -0.4851  0.7295
  212MOL0     C28521   2.864  10.386   3.060  0.1829 -0.1503 -0.2810
  212MOL0     C28522   2.746  10.462   3.109 -0.1509 -0.1708 -0.3603
  212MOL0     C28523   2.623  10.385   3.060 -0.6625 -0.7358 -0.8278
  212MOL0     C28524   2.499  10.446   3.132  0.4624 -0.9617  0.3304
  212MOL0     C28525   2.374  10.364   3.137  1.0889 -0.1207 -0.1895
  212MOL0     C28526   2.260  10.414   3.225 -1.1562  0.8466 -1.1355
  212MOL0     C28527   2.208  10.552   3.180 -0.3544 -0.5762 -0.2223
  212MOL0     C28528   2.084  10.585   3.256  0.4178 -0.6642  0.4866
  212MOL0    Cl28529   2.119  10.590   3.429 -0.2894  0.5332  0.0548
  212MOL0     C28530   3.050  10.485   2.750  0.6984 -0.2854  0.4094
  212MOL0     C28531   3.178  10.461   2.696 -0.7757 -0.8925 -0.3769
  212MOL0     O28532   3.323  10.177   2.624  0.2109 -0.6227  1.0206
  212MOL0     C28533   3.559  10.173   2.459  0.0626  0.7172  0.7691
  212MOL0     C28534   3.670  10.180   2.380 -0.0022 -0.5111  0.3995
  212MOL0     N28535   4.269  10.355   1.902 -0.6972  1.1523  0.6142
  212MOL0     N28536   4.306  10.284   1.802  0.3343  1.2430 -0.2253
  212MOL0     C28537   5.385   9.868   1.459 -0.7582 -0.4500 -0.3091
  212MOL0     C28538   5.499   9.840   1.386  0.2088  0.2285 -0.3733
  212MOL0     C28539   5.828   9.868   1.030  0.4111  0.7040 -0.1077
  212MOL0     C28540   5.927   9.902   1.120  0.8308  0.0605 -0.0909
  212MOL0     C28541   6.062   9.883   1.086  0.2958  0.0738  0.0572
  212MOL0     C28542   6.093   9.850   0.949  0.4376  0.9557  0.0021
  212MOL0     O28543   6.220   9.813   0.905  0.5944 -0.5921 -0.8963
  212MOL0     C28544   6.328   9.842   0.998  0.1065  0.5363 -0.3434
  212MOL0     C28545   6.456   9.806   0.915  0.4599  0.9290 -1.6004
  212MOL0     C28546   6.474   9.897   0.798  0.9234  0.5579 -0.1313
  212MOL0     C28547   6.607   9.855   0.732  0.0840 -0.8408 -0.6490
  212MOL0     C28548   6.655   9.947   0.626 -0.0832  0.6608 -0.2050
  212MOL0     C28549   6.679  10.022   0.539 -0.3503 -0.1159  0.3402
  212MOL0     C28550   5.990   9.810   0.863  1.2337  0.4588  0.3185
  212MOL0     C28551   5.856   9.816   0.902 -0.3872 -1.1659 -0.9666
  212MOL0     C28552   5.758   9.779   0.790 -0.1450  0.1091 -0.6401
  212MOL0     H28553   5.442  10.045   1.117 -1.5595  1.6331  1.5073
  212MOL0     H28554   5.243  10.085   1.252  1.0928  2.1594  3.8236
  212MOL0     H28555   5.152  10.181   1.415  2.5232 -1.5753 -3.9059
  212MOL0     H28556   5.057  10.080   1.323  0.9586 -0.2306 -0.3044
  212MOL0     H28557   4.924  10.206   1.485 -1.0030 -1.1942  0.4172
  212MOL0     H28558   5.000  10.123   1.619 -0.8946 -2.4776  1.4926
  212MOL0     H28559   4.891   9.923   1.595 -0.5897 -1.0585  0.5180
  212MOL0     H28560   4.864   9.940   1.422  3.9632  0.0573  0.2938
  212MOL0     H28561   4.718  10.134   1.603 -2.1401 -0.2969  0.9011
  212MOL0     H28562   4.685  10.091   1.444  1.5789 -1.5201 -1.0907
  212MOL0     H28563   4.629   9.857   1.518 -2.8404 -0.2548 -0.4054
  212MOL0     H28564   4.626   9.924   1.678  2.8347  0.7160  0.0185
  212MOL0     H28565   4.457  10.033   1.432 -0.0794 -1.1332 -0.3030
  212MOL0     H28566   4.387   9.935   1.557  1.4707 -1.6306  2.7163
  212MOL0     H28567   4.328  10.154   1.600 -0.0659 -0.9665 -0.6237
  212MOL0     H28568   4.487  10.219   1.603 -0.3739  0.0794 -0.8643
  212MOL0     H28569   4.388   9.994   1.791 -3.1045  2.0461 -2.4775
  212MOL0     H28570   4.549  10.082   1.805  0.6686 -1.7872  0.9753
  212MOL0     H28571   4.432  10.134   2.070 -2.4493 -1.2293 -0.3327
  212MOL0     H28572   4.340  10.334   2.223 -0.1466  1.7786  1.3446
  212MOL0     H28573   4.213  10.440   2.161  0.7656  0.5622  0.4480
  212MOL0     H28574   4.193  10.142   2.196  1.9076  0.0740 -0.2771
  212MOL0     H28575   4.122  10.242   2.306  4.3565 -2.3455  0.7486
  212MOL0     H28576   4.025  10.143   2.055 -1.8277 -2.4834  2.4179
  212MOL0     H28577   3.993  10.322   2.060  1.8160 -1.1329 -2.0687
  212MOL0     H28578   3.910  10.100   2.245 -2.5930 -0.2750 -0.7689
  212MOL0     H28579   3.814  10.179   2.121  1.8620 -2.2884 -2.3641
  212MOL0     H28580   3.751  10.507   2.415 -1.2950  1.8687  2.3269
  212MOL0     H28581   3.544  10.496   2.554 -0.5095 -0.6754 -0.3872
  212MOL0     H28582   3.317  10.262   2.938 -0.9482 -1.4434 -0.7182
  212MOL0     H28583   3.083  10.267   3.009 -0.2568  0.1518 -0.6482
  212MOL0     H28584   2.847  10.280   3.041  0.7798 -0.4260  0.6527
  212MOL0     H28585   2.945  10.405   3.130 -1.3745  2.0222  1.0567
  212MOL0     H28586   2.758  10.456   3.218  0.2951 -1.1864 -0.4521
  212MOL0     H28587   2.733  10.569   3.087 -1.3624 -0.1748  0.2677
  212MOL0     H28588   2.607  10.392   2.952 -0.3248 -2.9511 -1.0554
  212MOL0     H28589   2.633  10.282   3.093 -0.8388  0.3823  3.3451
  212MOL0     H28590   2.467  10.537   3.081 -0.3331 -1.0840  0.5954
  212MOL0     H28591   2.541  10.475   3.229 -1.1648  1.5919  0.3599
  212MOL0     H28592   2.400  10.262   3.168  1.0235  0.0693  0.5206
  212MOL0     H28593   2.340  10.355   3.034 -1.5626 -1.0628  0.6899
  212MOL0     H28594   2.180  10.341   3.240  1.7201 -2.5286 -1.0318
  212MOL0     H28595   2.302  10.428   3.325 -2.4730 -0.1000 -0.4136
  212MOL0     H28596   2.185  10.556   3.073 -2.3700 -0.9662  0.1509
  212MOL0     H28597   2.287  10.624   3.204 -0.5364 -0.8972  1.5291
  212MOL0     H28598   2.046  10.679   3.216 -1.8892 -1.6185  0.2850
  212MOL0     H28599   2.004  10.512   3.241  2.0432 -2.1642 -1.5429
  212MOL0     H28600   2.987  10.560   2.704  2.5895  0.9121 -0.3725
  212MOL0     H28601   3.203  10.496   2.597  0.8331 -2.6566 -0.6580
  212MOL0     H28602   3.499  10.082   2.461  1.3203 -0.1438  0.2865
  212MOL0     H28603   3.696  10.092   2.322 -0.2356  0.9865 -2.1463
  212MOL0     H28604   5.376   9.826   1.559 -0.8799  0.7249  0.1853
  212MOL0     H28605   5.560   9.761   1.430 -1.8664 -0.3006  1.7879
  212MOL0     H28606   5.892   9.936   1.217  2.3014  3.1279 -0.4974
  212MOL0     H28607   6.135   9.901   1.164  0.3246  0.2707 -0.0165
  212MOL0     H28608   6.331   9.775   1.085  3.0708  1.3681  0.3228
  212MOL0     H28609   6.328   9.943   1.039 -0.5955 -0.4724  2.3328
  212MOL0     H28610   6.442   9.704   0.877 -1.3542  0.5586 -0.0637
  212MOL0     H28611   6.540   9.812   0.985  0.2067 -2.7851 -0.7937
  212MOL0     H28612   6.478  10.000   0.834  1.8605 -0.2944  2.4353
  212MOL0     H28613   6.390   9.883   0.729  0.2624  1.4619  0.4637
  212MOL0     H28614   6.692   9.862   0.801 -1.1378 -1.4933  1.0000
  212MOL0     H28615   6.609   9.756   0.687  1.3020 -1.3488  0.4435
  212MOL0     H28616   6.712  10.082   0.457 -0.0703 -0.1665  0.4164
  212MOL0     H28617   6.020   9.775   0.765  0.3923  3.2184 -1.0416
  212MOL0     H28618   5.689   9.863   0.779  1.9892  2.0646 -0.0461
  212MOL0     H28619   5.816   9.785   0.697  0.4734  0.1741 -0.2584
  212MOL0     H28620   5.717   9.678   0.796  0.5973 -0.2265 -1.0835
  213MOL0     O28621   7.446   1.140   4.160 -0.3569  0.4057 -0.3118
  213MOL0     C28622   7.536   1.188   4.236  0.6807  0.6523 -0.1484
  213MOL0     O28623   7.509   1.294   4.321 -0.6047 -0.1388 -0.1435
  213MOL0     C28624   7.373   1.327   4.330  0.0085  0.6802  0.4032
  213MOL0     C28625   7.317   1.308   4.456  0.7069  0.2896  0.6060
  213MOL0     C28626   7.190   1.348   4.472  0.1656 -0.1593 -1.1003
  213MOL0     C28627   7.121   1.425   4.375 -0.7113  0.6158  0.6988
  213MOL0     O28628   6.996   1.478   4.404 -0.0735  0.0122 -0.1415
  213MOL0     C28629   7.008   1.605   4.479 -0.0191  0.2972  0.3528
  213MOL0     C28630   6.879   1.684   4.445 -0.6863 -0.0136 -1.2468
  213MOL0     C28631   6.844   1.668   4.294  0.6765  0.5768  0.2594
  213MOL0     C28632   6.713   1.757   4.278 -0.2577 -0.0592  0.8835
  213MOL0     C28633   6.672   1.771   4.130 -0.4777  0.1153 -0.8791
  213MOL0     C28634   6.558   1.873   4.122 -0.9925  0.3886 -0.7923
  213MOL0     C28635   6.528   1.896   3.980 -0.4252 -0.8538  0.4015
  213MOL0     C28636   6.454   1.793   3.894 -0.3222  0.2637 -0.0102
  213MOL0     N28637   6.534   1.674   3.857 -0.3232 -0.0930 -0.1267
  213MOL0     C28638   6.649   1.688   3.792 -0.0214  0.2750  0.5353
  213MOL0     C28639   6.694   1.566   3.747  0.2507  0.6118  0.3304
  213MOL0     C28640   6.823   1.538   3.664 -0.0679  0.0671  0.8718
  213MOL0     C28641   6.878   1.656   3.578 -0.7861 -0.8928 -0.4910
  213MOL0     C28642   6.936   1.634   3.437 -1.0280  0.5972  0.3424
  213MOL0     C28643   7.078   1.577   3.428  0.2858  0.1534  0.1337
  213MOL0     O28644   7.173   1.638   3.520 -0.3022 -0.0235  0.1968
  213MOL0     C28645   7.305   1.613   3.493  0.4844 -0.2687  0.3630
  213MOL0     C28646   7.383   1.557   3.604  0.1531 -0.1144  0.0388
  213MOL0     C28647   7.525   1.554   3.599 -0.1137 -0.3663  0.1709
  213MOL0     C28648   7.597   1.606   3.493  0.1227 -0.6996  0.4637
  213MOL0     C28649   7.743   1.584   3.475  0.5202  0.1543 -0.4516
  213MOL0     O28650   7.809   1.646   3.381 -0.4875 -0.5396 -0.0811
  213MOL0     C28651   7.946   1.645   3.399  0.0681  0.1670  0.8033
  213MOL0     C28652   8.009   1.735   3.486  0.2815 -0.0460 -0.6168
  213MOL0     C28653   8.146   1.709   3.521 -0.6202  1.0021 -1.0044
  213MOL0     C28654   8.221   1.611   3.468 -0.0361  0.6432 -0.3178
  213MOL0     O28655   8.350   1.599   3.484  0.4986  0.1625 -0.1982
  213MOL0     C28656   8.396   1.561   3.618  0.0257  0.2731  0.1024
  213MOL0     C28657   8.547   1.527   3.604  0.2571  0.6234  0.5490
  213MOL0     C28658   8.621   1.509   3.735  0.4474 -0.0847  0.1460
  213MOL0     C28659   8.770   1.488   3.700  0.4750  0.5896 -0.4534
  213MOL0     C28660   8.870   1.441   3.811  0.6958  0.0284 -0.7771
  213MOL0     C28661   9.017   1.466   3.775 -0.0022  0.1494  0.0137
  213MOL0     C28662   9.104   1.467   3.893 -0.8398 -0.0274 -0.4793
  213MOL0     C28663   9.250   1.517   3.863 -0.2653  0.3122 -1.1469
  213MOL0    Cl28664   9.361   1.528   4.002 -0.0496  0.2962 -0.0389
  213MOL0     C28665   8.161   1.527   3.374 -0.5221 -0.4725 -0.3415
  213MOL0     C28666   8.027   1.539   3.339 -0.0902 -0.4750 -0.4976
  213MOL0     O28667   7.794   1.509   3.554  0.4736  0.4889 -0.3685
  213MOL0     C28668   7.526   1.658   3.380  0.1002  0.3815 -0.3905
  213MOL0     C28669   7.384   1.658   3.388  1.1758 -0.0161  0.6227
  213MOL0     N28670   6.591   1.475   3.789 -0.4750  0.1970 -0.0626
  213MOL0     N28671   6.504   1.541   3.855  1.0411 -0.0654 -0.1696
  213MOL0     C28672   7.169   1.442   4.249 -0.2730  0.7996  0.1030
  213MOL0     C28673   7.297   1.387   4.221  0.5591 -0.0518 -1.3924
  213MOL0     C28674   7.677   1.140   4.231 -0.3660  0.0841  0.2284
  213MOL0     C28675   7.778   1.217   4.282  0.5016  0.3694  0.3002
  213MOL0     C28676   7.914   1.182   4.266  0.8530  0.1885  0.3216
  213MOL0     C28677   7.949   1.072   4.194 -1.1293 -0.1530  0.0855
  213MOL0     O28678   8.071   1.024   4.170 -0.1728  0.2122  0.1277
  213MOL0     C28679   8.181   1.108   4.204  0.7553  0.6646  0.3917
  213MOL0     C28680   8.304   1.049   4.120 -0.1707 -0.2071  0.2140
  213MOL0     C28681   8.437   1.135   4.132  0.2092 -0.7733 -0.4968
  213MOL0     C28682   8.418   1.285   4.088  0.2470  0.2225 -0.0566
  213MOL0     C28683   8.556   1.349   4.096  0.6971  0.0934 -0.1222
  213MOL0     C28684   8.661   1.405   4.111  0.2575  0.4067 -0.2251
  213MOL0     C28685   7.851   0.991   4.150 -0.2298 -0.3878  0.7816
  213MOL0     C28686   7.716   1.024   4.167 -0.3800  0.5872 -0.0549
  213MOL0     C28687   7.614   0.936   4.094 -1.1255  0.3033 -1.0035
  213MOL0     H28688   7.377   1.252   4.527  2.9551 -0.5751 -1.8472
  213MOL0     H28689   7.132   1.346   4.563  1.8016  1.3247  0.0489
  213MOL0     H28690   7.037   1.592   4.584  2.2596  0.1945 -0.2465
  213MOL0     H28691   7.098   1.654   4.443  0.2760  1.6454  2.7044
  213MOL0     H28692   6.905   1.783   4.483 -0.6657 -1.2820  2.4531
  213MOL0     H28693   6.794   1.653   4.506 -1.4731  4.0221  0.0312
  213MOL0     H28694   6.835   1.566   4.256  0.8990  1.8679 -3.6846
  213MOL0     H28695   6.923   1.720   4.239  2.3282  1.2713  3.0515
  213MOL0     H28696   6.629   1.712   4.331 -2.0238 -0.5648 -2.0967
  213MOL0     H28697   6.739   1.854   4.320 -3.0872  1.2329 -0.1069
  213MOL0     H28698   6.758   1.814   4.078  0.8371 -3.0198 -1.5228
  213MOL0     H28699   6.628   1.677   4.096 -2.9701  0.7794  0.2724
  213MOL0     H28700   6.462   1.852   4.171 -2.2823  1.6700 -2.6322
  213MOL0     H28701   6.590   1.965   4.171 -0.3579 -0.9241  1.3675
  213MOL0     H28702   6.616   1.917   3.919 -0.6257  5.0449  1.5568
  213MOL0     H28703   6.466   1.986   3.972  2.0451  0.8325 -1.0039
  213MOL0     H28704   6.367   1.763   3.953 -2.2253  1.2865 -2.1827
  213MOL0     H28705   6.420   1.845   3.804 -1.0444 -0.4403 -0.1446
  213MOL0     H28706   6.699   1.785   3.786 -2.2937  1.5180  0.5689
  213MOL0     H28707   6.911   1.499   3.716  1.7798 -1.1671 -2.8353
  213MOL0     H28708   6.804   1.456   3.595 -1.2381  0.2279  0.9862
  213MOL0     H28709   6.789   1.717   3.560  2.4887  4.2691 -1.3047
  213MOL0     H28710   6.943   1.719   3.639 -0.9574 -2.9006  1.8858
  213MOL0     H28711   6.939   1.734   3.392  0.1469  1.5185  2.3632
  213MOL0     H28712   6.867   1.574   3.377 -2.0112  1.9135  0.1143
  213MOL0     H28713   7.105   1.592   3.323  0.1507  3.5257  0.4721
  213MOL0     H28714   7.072   1.468   3.441 -0.7845  0.0300 -1.1880
  213MOL0     H28715   7.335   1.518   3.693 -1.7272  0.4253 -0.6895
  213MOL0     H28716   7.579   1.511   3.683  0.4336  2.2271  1.2431
  213MOL0     H28717   7.964   1.825   3.526 -0.6869 -1.0703  0.6728
  213MOL0     H28718   8.194   1.788   3.576  0.2827  0.2724 -0.7248
  213MOL0     H28719   8.380   1.655   3.672  0.6015  0.9901 -0.9501
  213MOL0     H28720   8.341   1.480   3.667  2.7031 -1.6359  0.1671
  213MOL0     H28721   8.541   1.437   3.542 -1.6739  1.2983 -0.3387
  213MOL0     H28722   8.594   1.607   3.546 -0.0950 -1.8823 -3.5616
  213MOL0     H28723   8.606   1.602   3.791  3.0492  1.1323 -1.0266
  213MOL0     H28724   8.579   1.427   3.795 -1.6325 -1.3622 -2.8160
  213MOL0     H28725   8.808   1.576   3.646  0.6576 -0.8561 -2.8138
  213MOL0     H28726   8.773   1.413   3.621 -2.0721  3.5119 -3.6916
  213MOL0     H28727   8.853   1.334   3.827 -2.6434  0.6812  1.1934
  213MOL0     H28728   8.837   1.492   3.902  1.9343  0.8915 -0.7810
  213MOL0     H28729   9.047   1.379   3.715 -0.6545 -0.4558  0.5410
  213MOL0     H28730   9.032   1.558   3.718  2.0622  0.4143  0.9122
  213MOL0     H28731   9.107   1.364   3.930  0.7219  0.2649  0.3154
  213MOL0     H28732   9.062   1.530   3.971  2.3659  3.8306 -1.5550
  213MOL0     H28733   9.299   1.449   3.793  1.2655  0.1543  0.0148
  213MOL0     H28734   9.238   1.618   3.823  0.3668  0.4997 -0.8695
  213MOL0     H28735   8.216   1.439   3.344  1.8324 -0.2636  2.8418
  213MOL0     H28736   7.987   1.451   3.290 -0.1563 -0.2239 -0.9005
  213MOL0     H28737   7.557   1.701   3.285  1.2301 -1.8696 -1.1041
  213MOL0     H28738   7.348   1.696   3.293  1.6591  1.1371  0.8714
  213MOL0     H28739   7.106   1.494   4.177  1.5097  0.4813 -1.7957
  213MOL0     H28740   7.329   1.395   4.118 -0.0213  0.9711 -1.5094
  213MOL0     H28741   7.756   1.309   4.335 -2.3224  0.5369 -0.9722
  213MOL0     H28742   7.996   1.234   4.315  0.0969 -0.5025  2.4292
  213MOL0     H28743   8.193   1.107   4.313  0.2338  1.7043  0.4642
  213MOL0     H28744   8.166   1.209   4.167  0.1291  0.2216 -0.5990
  213MOL0     H28745   8.267   1.042   4.017 -0.6318 -2.3679  0.4810
  213MOL0     H28746   8.320   0.948   4.157  0.1870  0.5428  2.2420
  213MOL0     H28747   8.513   1.086   4.071  1.6572  0.2559  0.4050
  213MOL0     H28748   8.468   1.133   4.237  1.1194  0.0403 -0.7324
  213MOL0     H28749   8.366   1.289   3.992 -1.6237  0.4622  0.8959
  213MOL0     H28750   8.346   1.336   4.154 -3.3621 -2.5712 -1.5123
  213MOL0     H28751   8.752   1.458   4.133 -1.1484  1.5443  3.4877
  213MOL0     H28752   7.882   0.902   4.095  0.5571  0.3565  0.0048
  213MOL0     H28753   7.590   0.984   3.999 -1.1445  0.6524 -0.8229
  213MOL0     H28754   7.663   0.843   4.063  2.2613  1.8374 -0.7315
  213MOL0     H28755   7.528   0.906   4.154 -0.3976 -1.4822 -0.7932
  214MOL0     O28756   8.340   2.316  11.078  0.0996  0.3992  0.4595
  214MOL0     C28757   8.332   2.207  11.123 -0.6258 -0.3780 -0.1726
  214MOL0     O28758   8.422   2.152  11.198 -0.3328 -0.4349  0.5862
  214MOL0     C28759   8.533   2.236  11.219 -1.1851  0.2410  0.4023
  214MOL0     C28760   8.545   2.320  11.330  0.6308  0.8953  0.2826
  214MOL0     C28761   8.649   2.403  11.359  0.3094  0.0557  0.2324
  214MOL0     C28762   8.749   2.411  11.268 -0.4986 -0.5729  0.3406
  214MOL0     O28763   8.842   2.510  11.268  0.1701  0.4104 -0.5791
  214MOL0     C28764   8.863   2.589  11.393  0.7879 -0.3920 -0.1807
  214MOL0     C28765   8.928   2.501  11.501  0.5805 -0.3095  0.4447
  214MOL0     C28766   9.049   2.437  11.465 -1.5401  0.0531 -0.1484
  214MOL0     C28767   9.159   2.546  11.454 -0.2337 -0.0372 -0.9121
  214MOL0     C28768   9.295   2.477  11.426  0.3778  0.8069  0.3720
  214MOL0     C28769   9.412   2.573  11.409 -0.5224  0.0131  0.6699
  214MOL0     C28770   9.549   2.510  11.403 -0.4518  0.1973 -0.3989
  214MOL0     C28771   9.594   2.468  11.545  0.8656 -1.2845 -0.2759
  214MOL0     N28772   9.733   2.408  11.557 -0.1606 -0.1961  0.2518
  214MOL0     C28773   9.852   2.464  11.511  0.6594 -1.3170 -0.2224
  214MOL0     C28774   9.944   2.378  11.533 -0.2058  0.3786  0.0747
  214MOL0     C28775  10.081   2.391  11.471  0.0151 -0.0985  0.0410
  214MOL0     C28776  10.193   2.446  11.557 -0.2777 -0.1050 -0.2702
  214MOL0     C28777  10.249   2.349  11.661 -0.7692  0.0005 -0.0802
  214MOL0     C28778  10.336   2.246  11.588  0.0601  0.1205 -0.4456
  214MOL0     O28779  10.391   2.156  11.681 -0.9019 -0.5274  0.5324
  214MOL0     C28780  10.523   2.125  11.650 -0.1738 -1.2532  0.7291
  214MOL0     C28781  10.607   2.181  11.743 -0.4682  0.0279 -0.2466
  214MOL0     C28782  10.739   2.143  11.736  0.6091 -0.4609  0.3859
  214MOL0     C28783  10.795   2.059  11.636 -0.2640 -0.0525 -0.0075
  214MOL0     C28784  10.940   2.029  11.627  0.2640  0.3520 -0.2225
  214MOL0     O28785  10.971   1.932  11.532  0.7363 -0.5320 -0.2928
  214MOL0     C28786  11.103   1.883  11.544 -0.3930 -0.5984 -0.1474
  214MOL0     C28787  11.219   1.929  11.483 -0.2947 -0.7056 -0.4419
  214MOL0     C28788  11.344   1.864  11.486  0.5966 -1.1470  0.8766
  214MOL0     C28789  11.352   1.752  11.569  0.7572 -0.9750 -0.5356
  214MOL0     O28790  11.484   1.710  11.583  0.7766  0.8243  0.1531
  214MOL0     C28791  11.518   1.602  11.677 -1.1278 -0.2767 -0.9312
  214MOL0     C28792  11.675   1.597  11.686 -0.2277  0.3892  0.0347
  214MOL0     C28793  11.729   1.495  11.795  0.3250  0.2407 -0.3181
  214MOL0     C28794  11.869   1.439  11.763 -0.1919 -0.1792  0.2689
  214MOL0     C28795  11.919   1.341  11.870 -0.3813 -0.3236 -0.1687
  214MOL0     C28796  11.851   1.204  11.872  0.8554  0.0312 -0.4002
  214MOL0     C28797  11.882   1.100  11.757  0.1856  0.3906 -0.3016
  214MOL0     C28798  11.820   0.961  11.779 -0.2020  0.4922 -0.1370
  214MOL0    Cl28799  11.861   0.888  11.940  0.1155 -0.0719  0.4142
  214MOL0     C28800  11.235   1.701  11.630 -0.0041  0.6602  0.2411
  214MOL0     C28801  11.112   1.766  11.608 -0.2889  0.6072  0.6547
  214MOL0     O28802  11.027   2.083  11.698  0.3387 -0.5678  0.6443
  214MOL0     C28803  10.700   2.010  11.540  0.0202  0.3559 -0.5999
  214MOL0     C28804  10.564   2.044  11.548 -0.9509  0.4201  0.6457
  214MOL0     N28805   9.887   2.277  11.614 -0.7015 -0.0510 -0.2351
  214MOL0     N28806   9.758   2.301  11.628 -1.1816  0.6522  0.9555
  214MOL0     C28807   8.748   2.328  11.147 -0.1627  0.2909  0.6404
  214MOL0     C28808   8.650   2.233  11.139  0.0491 -0.1244  0.6310
  214MOL0     C28809   8.217   2.138  11.067  0.5894 -0.4625  1.2886
  214MOL0     C28810   8.148   2.189  10.953 -0.0435  0.3448 -0.2333
  214MOL0     C28811   8.045   2.119  10.899  0.6914 -0.2597 -0.5898
  214MOL0     C28812   8.001   1.995  10.949 -0.8045  0.1743  0.0214
  214MOL0     O28813   7.907   1.933  10.881 -0.6097  0.0580  0.2660
  214MOL0     C28814   7.957   1.848  10.773  0.4486 -0.7268  0.2007
  214MOL0     C28815   7.878   1.716  10.768  0.1498  0.7156  0.5216
  214MOL0     C28816   7.728   1.749  10.749 -0.2795  0.2803 -0.5790
  214MOL0     C28817   7.638   1.611  10.735 -0.7371 -0.3327 -0.4837
  214MOL0     C28818   7.682   1.532  10.621  1.1577 -0.0738  0.6005
  214MOL0     C28819   7.720   1.465  10.528  0.0670 -0.5830  0.1690
  214MOL0     C28820   8.051   1.955  11.077 -0.2424  0.2533 -0.2805
  214MOL0     C28821   8.155   2.027  11.134  0.5053 -0.8856 -0.1605
  214MOL0     C28822   8.186   1.999  11.282  0.2321 -1.2166  0.4766
  214MOL0     H28823   8.450   2.314  11.382 -1.4437  1.4651 -3.1256
  214MOL0     H28824   8.638   2.468  11.445 -1.2582  0.6271 -0.3661
  214MOL0     H28825   8.940   2.664  11.367 -0.1759 -0.0158 -2.1387
  214MOL0     H28826   8.774   2.643  11.426 -0.0502 -1.7275 -0.2093
  214MOL0     H28827   8.859   2.421  11.531  0.3015 -0.3600 -0.3059
  214MOL0     H28828   8.943   2.560  11.592  0.3987 -3.8099  2.9625
  214MOL0     H28829   9.043   2.380  11.372 -2.1330  1.6174 -1.1143
  214MOL0     H28830   9.079   2.366  11.542 -0.9933  2.8677  2.4599
  214MOL0     H28831   9.135   2.612  11.370 -0.5241  0.3713 -0.5090
  214MOL0     H28832   9.164   2.606  11.545  1.2197 -1.4779  0.0035
  214MOL0     H28833   9.303   2.425  11.522 -0.8916  2.1352  1.2424
  214MOL0     H28834   9.285   2.412  11.338  0.8732  1.5551 -0.2565
  214MOL0     H28835   9.399   2.632  11.318  0.8842  1.8655  1.6052
  214MOL0     H28836   9.416   2.649  11.487 -1.3219 -1.2020  1.9313
  214MOL0     H28837   9.624   2.571  11.351  1.7611 -1.7179  0.3826
  214MOL0     H28838   9.542   2.415  11.349 -2.4714  1.3416 -2.3296
  214MOL0     H28839   9.582   2.564  11.596 -1.5329 -0.4335 -2.2357
  214MOL0     H28840   9.521   2.409  11.601 -2.9059  3.1991  0.1829
  214MOL0     H28841   9.851   2.563  11.467 -0.5303 -0.1152  2.3089
  214MOL0     H28842  10.116   2.297  11.426  3.4965 -0.8240  3.6612
  214MOL0     H28843  10.078   2.470  11.396 -0.2162  0.7316  0.9105
  214MOL0     H28844  10.279   2.481  11.499  0.9651 -0.6932  1.1407
  214MOL0     H28845  10.157   2.539  11.603 -2.6680 -2.0191  2.0613
  214MOL0     H28846  10.172   2.287  11.708 -3.1775  0.8430 -2.6060
  214MOL0     H28847  10.318   2.399  11.730 -1.8301 -0.0296  1.0233
  214MOL0     H28848  10.414   2.301  11.535 -1.1996  0.6035 -1.8746
  214MOL0     H28849  10.273   2.193  11.517 -0.7791  1.4026 -0.7045
  214MOL0     H28850  10.572   2.238  11.828 -0.5278 -0.7516  0.2652
  214MOL0     H28851  10.807   2.185  11.810  2.2982 -1.1371 -0.7156
  214MOL0     H28852  11.217   2.011  11.412  0.4908 -1.3573 -1.2364
  214MOL0     H28853  11.434   1.892  11.434 -1.3757  1.0122 -1.6762
  214MOL0     H28854  11.499   1.633  11.780  1.3031  0.2939 -0.5825
  214MOL0     H28855  11.485   1.500  11.653 -0.5665 -0.2894 -1.6971
  214MOL0     H28856  11.711   1.574  11.586 -2.6230 -0.9801 -0.5798
  214MOL0     H28857  11.715   1.696  11.712 -0.2628  0.4516 -0.1466
  214MOL0     H28858  11.735   1.548  11.891  1.0580  1.3624 -0.9574
  214MOL0     H28859  11.654   1.416  11.803  0.5612  0.1956  2.6468
  214MOL0     H28860  11.930   1.530  11.759 -0.0708 -0.2806 -0.2916
  214MOL0     H28861  11.867   1.378  11.672  2.7823 -1.8382  1.1699
  214MOL0     H28862  11.910   1.371  11.975  0.9193  0.8191 -0.3556
  214MOL0     H28863  12.026   1.328  11.852 -0.9778 -2.8606 -2.5395
  214MOL0     H28864  11.891   1.158  11.963  1.2079  0.8107 -0.1516
  214MOL0     H28865  11.747   1.213  11.906  1.6718  2.2308  1.8544
  214MOL0     H28866  11.989   1.080  11.746  0.4029 -0.1703  2.2251
  214MOL0     H28867  11.847   1.143  11.663 -0.8562  2.6280  1.0230
  214MOL0     H28868  11.716   0.973  11.746 -0.3515  1.5832  0.6720
  214MOL0     H28869  11.857   0.899  11.697 -1.3563  4.2586 -3.8667
  214MOL0     H28870  11.227   1.624  11.705 -1.2238  2.8281  2.4769
  214MOL0     H28871  11.027   1.705  11.636  0.5567 -1.5714 -1.1884
  214MOL0     H28872  10.720   1.953  11.450  2.3040  0.8550 -0.4728
  214MOL0     H28873  10.488   2.009  11.479 -2.5616  3.1324  0.8964
  214MOL0     H28874   8.830   2.325  11.076  1.1290  1.9246  1.9683
  214MOL0     H28875   8.648   2.168  11.053  2.2245  1.5293 -0.7662
  214MOL0     H28876   8.186   2.281  10.908 -2.1768  2.1043  1.3294
  214MOL0     H28877   8.002   2.144  10.803  2.1476  1.2400 -0.8964
  214MOL0     H28878   8.061   1.822  10.794  0.6225  0.4994  0.9724
  214MOL0     H28879   7.942   1.911  10.686 -0.6361  2.7656  2.6935
  214MOL0     H28880   7.889   1.660  10.861 -2.0381  0.0531  0.4480
  214MOL0     H28881   7.929   1.671  10.683 -1.5633  3.7859 -2.3573
  214MOL0     H28882   7.716   1.813  10.662  0.8685  0.5366 -0.5660
  214MOL0     H28883   7.691   1.792  10.842 -0.4494  1.5058 -1.1967
  214MOL0     H28884   7.638   1.549  10.825  0.1357  1.6559  0.9845
  214MOL0     H28885   7.537   1.653  10.730  0.2829  2.1334 -2.3675
  214MOL0     H28886   7.749   1.405  10.444 -1.4403 -2.5625  0.9747
  214MOL0     H28887   8.014   1.869  11.132  2.2432 -0.1675  0.9158
  214MOL0     H28888   8.278   1.940  11.289  1.3074  0.4753  1.3219
  214MOL0     H28889   8.209   2.092  11.335 -1.4249 -0.7160  0.3823
  214MOL0     H28890   8.100   1.953  11.331 -1.3694  1.4388  0.4035
  215MOL0     O28891   5.588   3.373   6.986  0.0515  0.3640 -0.2017
  215MOL0     C28892   5.517   3.276   7.019 -0.2719 -0.7176  0.5842
  215MOL0     O28893   5.559   3.153   7.064  0.1404  0.2497 -0.1064
  215MOL0     C28894   5.692   3.114   7.084 -0.2331 -0.4511 -0.4237
  215MOL0     C28895   5.726   2.983   7.051  0.3040  0.1879  0.1185
  215MOL0     C28896   5.845   2.926   7.070  0.1974 -0.3977  0.8245
  215MOL0     C28897   5.954   3.008   7.117 -0.1105  0.8121 -0.2400
  215MOL0     O28898   6.075   2.949   7.131 -1.0441 -0.1287 -0.1392
  215MOL0     C28899   6.197   3.032   7.145  0.1465 -0.8119  0.1496
  215MOL0     C28900   6.317   2.943   7.199  0.2332 -0.0851 -0.5398
  215MOL0     C28901   6.343   2.830   7.105 -0.3169 -0.0963  0.0568
  215MOL0     C28902   6.387   2.707   7.183 -0.7830 -0.0865  0.0347
  215MOL0     C28903   6.522   2.745   7.248  0.5193 -0.9598  0.4452
  215MOL0     C28904   6.576   2.645   7.348  0.3497 -0.1230 -0.1836
  215MOL0     C28905   6.481   2.609   7.463  0.0456  0.8391 -0.0555
  215MOL0     C28906   6.543   2.536   7.579 -0.0554  0.2587 -0.2880
  215MOL0     N28907   6.445   2.497   7.681 -0.3700  0.6445 -0.5987
  215MOL0     C28908   6.475   2.388   7.759 -0.2158  0.3127 -0.3164
  215MOL0     C28909   6.389   2.392   7.867  0.3798  1.0210  0.7639
  215MOL0     C28910   6.377   2.286   7.977  0.6607 -1.0586  0.8133
  215MOL0     C28911   6.232   2.227   7.989 -0.3806  0.3047 -0.3379
  215MOL0     C28912   6.216   2.133   8.108 -0.3140  0.4718 -0.3563
  215MOL0     C28913   6.077   2.095   8.134  0.6645  0.7106 -0.3490
  215MOL0     O28914   6.041   1.982   8.052 -0.4450  0.5214  0.1558
  215MOL0     C28915   5.904   1.972   8.038 -0.3468  0.4194  0.1529
  215MOL0     C28916   5.835   2.051   7.949 -1.1595  1.4524 -0.6526
  215MOL0     C28917   5.699   2.039   7.938 -0.0141  0.3550 -0.5276
  215MOL0     C28918   5.629   1.944   8.019 -0.9896 -0.7261  0.1550
  215MOL0     C28919   5.479   1.930   7.992 -0.3806  0.3164 -1.0779
  215MOL0     O28920   5.412   1.822   8.044 -0.3688 -0.5105  0.2094
  215MOL0     C28921   5.275   1.800   8.025  0.3526  0.2464 -0.5377
  215MOL0     C28922   5.203   1.751   8.139  0.0692 -0.2847  0.1100
  215MOL0     C28923   5.067   1.725   8.120  0.3091  0.7764  0.3136
  215MOL0     C28924   5.007   1.763   8.000  0.5824 -0.0460  0.2323
  215MOL0     O28925   4.864   1.748   7.985  0.1025  0.1014 -0.1537
  215MOL0     C28926   4.792   1.651   8.051 -0.2201 -0.3879 -0.2314
  215MOL0     C28927   4.646   1.653   8.007  0.3660 -0.6449  0.3457
  215MOL0     C28928   4.568   1.779   8.065  0.6299 -0.0171 -0.1746
  215MOL0     C28929   4.418   1.784   8.041 -0.2109  0.2745  0.1271
  215MOL0     C28930   4.365   1.882   8.148 -0.4003  0.1759  0.5864
  215MOL0     C28931   4.217   1.919   8.105  0.5989 -0.4945  0.4324
  215MOL0     C28932   4.170   2.027   8.206 -0.6129 -0.2017  2.0222
  215MOL0     C28933   4.046   2.093   8.156 -0.2765  0.0063  0.8137
  215MOL0    Cl28934   3.998   2.186   8.292 -0.0797  0.2959 -0.0319
  215MOL0     C28935   5.081   1.807   7.882  0.4851 -0.8307 -0.2622
  215MOL0     C28936   5.217   1.835   7.903  0.6501  0.5339 -0.3022
  215MOL0     O28937   5.431   2.028   7.937  0.6220  0.1387 -0.2956
  215MOL0     C28938   5.690   1.880   8.122 -0.3608  0.2805 -0.0060
  215MOL0     C28939   5.826   1.894   8.122 -0.8982 -0.6732  0.1804
  215MOL0     N28940   6.312   2.509   7.847 -0.4310 -0.8566  1.6149
  215MOL0     N28941   6.336   2.565   7.730 -0.1521  0.3466  0.1245
  215MOL0     C28942   5.928   3.140   7.157  0.5412 -0.7518 -0.8713
  215MOL0     C28943   5.803   3.191   7.134 -0.2271 -0.2458  0.0547
  215MOL0     C28944   5.368   3.303   7.025 -0.2157  0.1120  0.1501
  215MOL0     C28945   5.323   3.435   7.036 -0.3390  0.2970  0.4247
  215MOL0     C28946   5.191   3.471   7.024 -0.1557 -0.0005 -0.5759
  215MOL0     C28947   5.093   3.373   7.009  0.1649 -0.6750 -0.2222
  215MOL0     O28948   4.965   3.423   7.012  0.4838 -0.4714 -0.4380
  215MOL0     C28949   4.844   3.359   7.033  0.1807  1.1761  0.7438
  215MOL0     C28950   4.787   3.395   7.165 -0.9233  0.9388  0.9271
  215MOL0     C28951   4.867   3.324   7.278  0.3592 -0.8994  0.3034
  215MOL0     C28952   4.844   3.396   7.407 -0.4838  0.9946  0.2758
  215MOL0     C28953   4.708   3.397   7.451 -0.5802  0.3868  0.4967
  215MOL0     C28954   4.599   3.386   7.491 -0.0794 -0.2196  0.2443
  215MOL0     C28955   5.132   3.235   7.016  0.6230 -0.2719 -0.1914
  215MOL0     C28956   5.263   3.198   7.018 -0.2431 -0.1147 -0.2389
  215MOL0     C28957   5.301   3.045   7.020  0.1926 -0.0916 -0.1799
  215MOL0     H28958   5.644   2.926   7.008  1.3346 -1.2145 -0.0389
  215MOL0     H28959   5.866   2.823   7.043 -0.3995 -1.0981  2.8426
  215MOL0     H28960   6.234   3.074   7.052  2.9105 -1.4729  0.8596
  215MOL0     H28961   6.183   3.117   7.212  0.4336  0.4885 -1.3971
  215MOL0     H28962   6.288   2.902   7.297 -1.7199 -0.2890 -1.1668
  215MOL0     H28963   6.409   3.002   7.191 -0.1773  0.7765  0.7369
  215MOL0     H28964   6.417   2.860   7.031 -2.7456  0.6695 -2.1909
  215MOL0     H28965   6.251   2.799   7.055  0.9343 -1.6975 -1.3910
  215MOL0     H28966   6.325   2.698   7.273  1.7515  0.2033  1.9132
  215MOL0     H28967   6.389   2.611   7.132 -0.1016  0.0413 -0.1896
  215MOL0     H28968   6.591   2.759   7.164 -1.2103 -0.8628 -1.0412
  215MOL0     H28969   6.510   2.837   7.306  1.1716  0.2850 -1.3066
  215MOL0     H28970   6.612   2.554   7.299 -2.9681 -0.7823 -1.6819
  215MOL0     H28971   6.656   2.696   7.403  0.0275  0.2505 -0.0599
  215MOL0     H28972   6.405   2.544   7.420  0.5817 -0.5196  0.9870
  215MOL0     H28973   6.433   2.700   7.500 -1.5525  2.4676 -5.3229
  215MOL0     H28974   6.590   2.444   7.542 -0.8959 -1.7961  3.2037
  215MOL0     H28975   6.621   2.602   7.619  0.9728 -0.4836 -0.9964
  215MOL0     H28976   6.562   2.323   7.760 -1.2243 -1.0690 -0.7885
  215MOL0     H28977   6.440   2.202   7.947 -0.2000 -1.2683 -0.5266
  215MOL0     H28978   6.411   2.342   8.064  0.2168 -1.6029  1.3462
  215MOL0     H28979   6.165   2.313   7.982  0.3043  0.8775  0.0265
  215MOL0     H28980   6.213   2.169   7.898 -0.8692 -1.5398  0.8721
  215MOL0     H28981   6.241   2.195   8.194 -2.8297 -1.3630  1.8646
  215MOL0     H28982   6.274   2.041   8.102 -0.1835  0.5802 -5.0684
  215MOL0     H28983   6.014   2.179   8.103  0.4720 -0.0110 -2.0561
  215MOL0     H28984   6.059   2.058   8.235 -1.5746 -0.4006 -1.0815
  215MOL0     H28985   5.887   2.116   7.879 -1.3113  1.3950 -0.8218
  215MOL0     H28986   5.660   2.112   7.868  0.5184  1.2750  0.1219
  215MOL0     H28987   5.258   1.740   8.232  1.8583 -4.3543 -1.1744
  215MOL0     H28988   5.016   1.685   8.207 -1.0385 -0.0539 -0.8000
  215MOL0     H28989   4.838   1.553   8.031 -0.2579 -0.1801 -1.3677
  215MOL0     H28990   4.804   1.672   8.158  2.5036 -0.8659 -0.3653
  215MOL0     H28991   4.645   1.643   7.898 -1.2085 -2.7860  0.5030
  215MOL0     H28992   4.598   1.567   8.054 -1.6999  1.1017  1.6167
  215MOL0     H28993   4.589   1.758   8.171  0.0333 -4.0745 -0.6778
  215MOL0     H28994   4.606   1.873   8.024 -0.0753  0.4770  0.2675
  215MOL0     H28995   4.368   1.687   8.045 -0.6213  0.4197 -1.0537
  215MOL0     H28996   4.409   1.818   7.938  2.7071  0.1658 -0.2509
  215MOL0     H28997   4.421   1.975   8.158  0.6944 -0.4349  0.3128
  215MOL0     H28998   4.370   1.822   8.239 -0.0316 -2.0695 -0.8247
  215MOL0     H28999   4.214   1.959   8.003 -2.0176  2.5135  1.5216
  215MOL0     H29000   4.144   1.838   8.105 -0.4489  0.4156  0.2869
  215MOL0     H29001   4.246   2.105   8.207  0.2539 -0.9295 -0.3262
  215MOL0     H29002   4.167   1.984   8.307  1.0153 -0.7831  1.8620
  215MOL0     H29003   4.081   2.163   8.079  1.2243 -0.2401  1.2369
  215MOL0     H29004   3.967   2.026   8.122  0.8529 -2.3447  2.5419
  215MOL0     H29005   5.043   1.822   7.782 -0.3665  0.8232  0.2809
  215MOL0     H29006   5.277   1.870   7.819 -1.8871  3.4892 -1.0486
  215MOL0     H29007   5.643   1.819   8.199  1.0493  1.5351  1.9809
  215MOL0     H29008   5.864   1.830   8.201  0.5136  0.9076  0.8345
  215MOL0     H29009   5.993   3.214   7.203 -0.2787 -0.8652  0.5167
  215MOL0     H29010   5.774   3.290   7.168 -1.2592 -0.3832 -0.3986
  215MOL0     H29011   5.398   3.513   7.049 -1.4403  1.0525  2.7516
  215MOL0     H29012   5.167   3.576   7.033  1.1949  0.2870 -0.0565
  215MOL0     H29013   4.856   3.251   7.027  1.3168  1.2669  1.1161
  215MOL0     H29014   4.770   3.385   6.956  1.6002  1.9473 -0.4141
  215MOL0     H29015   4.680   3.372   7.167 -1.1225  1.8390  2.0818
  215MOL0     H29016   4.802   3.503   7.181  0.5914  0.4181  3.8256
  215MOL0     H29017   4.972   3.342   7.252 -0.5966  1.9431 -2.1416
  215MOL0     H29018   4.827   3.222   7.281 -0.0385 -0.7431  0.4347
  215MOL0     H29019   4.892   3.335   7.485  1.8352 -0.8064 -2.3671
  215MOL0     H29020   4.878   3.500   7.402 -2.7010  1.7050 -2.8339
  215MOL0     H29021   4.499   3.380   7.529  0.4194  1.5278  2.0296
  215MOL0     H29022   5.051   3.163   7.007  0.6025 -0.2387 -0.2770
  215MOL0     H29023   5.337   3.024   6.919 -0.6910  1.3961 -0.8458
  215MOL0     H29024   5.369   3.017   7.101 -2.0722 -2.5122  1.0494
  215MOL0     H29025   5.215   2.978   7.026  0.1680 -0.4926 -3.2297
  216MOL0     O29026   2.029   1.052   4.093 -0.5723 -0.1286  0.0868
  216MOL0     C29027   1.979   1.051   4.205  0.2749  0.4438 -0.0919
  216MOL0     O29028   2.050   1.048   4.329 -0.7394  0.5852 -0.2057
  216MOL0     C29029   2.181   1.025   4.328 -0.0393 -0.5502  0.3004
  216MOL0     C29030   2.248   0.947   4.232  0.8409 -0.3696  0.7662
  216MOL0     C29031   2.386   0.910   4.250 -0.4400 -0.7186  0.5891
  216MOL0     C29032   2.462   0.970   4.345 -0.9509  0.1011  0.8108
  216MOL0     O29033   2.604   0.946   4.354  0.6980  1.0047 -0.6505
  216MOL0     C29034   2.670   0.896   4.245  0.3666  0.4734  0.7961
  216MOL0     C29035   2.802   0.858   4.286  0.6631 -0.3054 -0.8330
  216MOL0     C29036   2.883   0.804   4.164 -0.9949  0.5550 -0.7283
  216MOL0     C29037   3.027   0.764   4.206  0.1629 -1.2379 -0.5745
  216MOL0     C29038   3.112   0.720   4.084 -0.1351  0.4573 -0.4536
  216MOL0     C29039   3.047   0.585   4.018  0.0312  0.0676  0.1542
  216MOL0     C29040   3.142   0.530   3.912  0.5646 -0.1536 -0.1975
  216MOL0     C29041   3.116   0.587   3.775 -0.1119 -0.3391 -0.1806
  216MOL0     N29042   3.210   0.517   3.671 -0.3531  0.1204  0.0092
  216MOL0     C29043   3.353   0.533   3.653 -0.7057  0.6022  0.6161
  216MOL0     C29044   3.397   0.444   3.566  0.2620 -0.0746  0.1707
  216MOL0     C29045   3.534   0.415   3.508  0.9314  0.1499  0.3103
  216MOL0     C29046   3.595   0.499   3.403 -0.3897 -0.1886  0.0963
  216MOL0     C29047   3.738   0.456   3.380 -1.1217 -0.6331 -0.3814
  216MOL0     C29048   3.809   0.538   3.270 -0.1385  0.1397 -0.1531
  216MOL0     O29049   3.950   0.488   3.249 -0.1788 -0.2476 -0.0111
  216MOL0     C29050   4.050   0.556   3.180  0.5448  1.0622  1.3178
  216MOL0     C29051   4.031   0.676   3.120 -0.0391  0.3563  0.1745
  216MOL0     C29052   4.129   0.739   3.047  0.0359  1.0319 -0.0234
  216MOL0     C29053   4.255   0.676   3.026  0.2626 -0.8418 -0.0788
  216MOL0     C29054   4.349   0.734   2.939 -0.4383  0.3419  0.3225
  216MOL0     O29055   4.457   0.650   2.910 -0.0800 -0.1178  0.1845
  216MOL0     C29056   4.548   0.663   2.809  0.4485 -0.1389  0.4450
  216MOL0     C29057   4.561   0.761   2.720  0.2874 -0.1891  0.0042
  216MOL0     C29058   4.661   0.781   2.619  0.2673  0.5142  0.2190
  216MOL0     C29059   4.763   0.680   2.629  0.0381  0.3103  0.2674
  216MOL0     O29060   4.877   0.712   2.558 -0.1743 -0.2103  0.4210
  216MOL0     C29061   4.953   0.600   2.505  1.0323 -1.3897 -0.2135
  216MOL0     C29062   5.043   0.670   2.402  0.4677  0.5955  0.4175
  216MOL0     C29063   5.108   0.558   2.322 -0.8657 -0.3582  0.7308
  216MOL0     C29064   5.203   0.618   2.221  0.3289  0.0524  0.3199
  216MOL0     C29065   5.300   0.519   2.162 -0.8605  0.0238  0.1300
  216MOL0     C29066   5.424   0.579   2.087 -0.7378  0.0587  0.1610
  216MOL0     C29067   5.386   0.696   1.989  0.4441  0.8631 -0.6226
  216MOL0     C29068   5.503   0.760   1.922  0.8125  0.0180 -0.0320
  216MOL0    Cl29069   5.443   0.929   1.899  0.1220 -0.2044  0.1667
  216MOL0     C29070   4.755   0.577   2.725  0.1730  0.2003  1.1617
  216MOL0     C29071   4.644   0.567   2.808 -0.0162  0.2677  0.3192
  216MOL0     O29072   4.330   0.843   2.902 -0.2459 -0.1057  0.1967
  216MOL0     C29073   4.275   0.548   3.096 -0.2030  0.9173  0.3894
  216MOL0     C29074   4.170   0.488   3.160 -0.2372  1.1519 -0.0967
  216MOL0     N29075   3.275   0.370   3.533 -0.7002  0.4419  0.3484
  216MOL0     N29076   3.175   0.415   3.594 -0.5090  0.0208  0.3672
  216MOL0     C29077   2.405   1.052   4.439  0.2669  0.0961  1.1470
  216MOL0     C29078   2.260   1.077   4.434 -0.7070 -0.2468  1.1913
  216MOL0     C29079   1.834   1.066   4.217  0.2779 -0.5931 -0.3692
  216MOL0     C29080   1.778   1.086   4.349  0.8712  0.0760  0.2204
  216MOL0     C29081   1.643   1.094   4.371 -0.2158  0.1954  0.3416
  216MOL0     C29082   1.549   1.101   4.262  0.2349  0.0740 -0.1829
  216MOL0     O29083   1.418   1.131   4.279 -0.0202 -0.5337  0.5131
  216MOL0     C29084   1.386   1.242   4.362  0.1843  0.0277  0.2186
  216MOL0     C29085   1.244   1.217   4.409 -0.5882  0.2541  0.1243
  216MOL0     C29086   1.235   1.092   4.497  0.0086  0.1629 -0.8748
  216MOL0     C29087   1.108   1.087   4.581  0.6886  0.6832  0.0561
  216MOL0     C29088   1.012   0.986   4.532  0.4780  0.6726  0.2167
  216MOL0     C29089   0.936   0.891   4.504 -0.3529 -0.0384  0.5835
  216MOL0     C29090   1.598   1.071   4.140 -0.5393  0.4384 -1.0175
  216MOL0     C29091   1.736   1.053   4.114  0.1951  0.9685 -0.0773
  216MOL0     C29092   1.773   1.025   3.978 -0.1022  0.2975  0.6264
  216MOL0     H29093   2.202   0.896   4.148  0.8773  0.5683  0.1529
  216MOL0     H29094   2.429   0.832   4.187  2.3799 -1.9661  3.7906
  216MOL0     H29095   2.636   0.799   4.210  1.7549 -0.7354  2.5982
  216MOL0     H29096   2.681   0.970   4.165 -0.4501  1.4669  1.5782
  216MOL0     H29097   2.789   0.788   4.369  0.5387 -0.7998 -1.2623
  216MOL0     H29098   2.853   0.949   4.319 -1.7281  2.5441 -4.1998
  216MOL0     H29099   2.890   0.873   4.079 -3.0244 -0.9294 -2.1652
  216MOL0     H29100   2.834   0.712   4.131 -0.5824 -0.0215  0.2076
  216MOL0     H29101   3.084   0.846   4.250 -1.8789  0.1239 -0.2949
  216MOL0     H29102   3.012   0.677   4.270  0.5243 -2.8416 -2.5643
  216MOL0     H29103   3.124   0.801   4.011  2.8882  2.2044  1.7644
  216MOL0     H29104   3.214   0.694   4.111  0.3565 -0.8919 -3.2443
  216MOL0     H29105   3.034   0.512   4.098  2.4599 -0.1461  0.4138
  216MOL0     H29106   2.952   0.619   3.975  0.0867  2.8390  1.9886
  216MOL0     H29107   3.132   0.421   3.906 -4.7172 -0.2023  3.0790
  216MOL0     H29108   3.249   0.538   3.935  0.6973 -0.8366 -0.5305
  216MOL0     H29109   3.012   0.567   3.747 -0.7998  2.5323  0.0108
  216MOL0     H29110   3.133   0.695   3.774 -1.1401 -0.1669  0.1206
  216MOL0     H29111   3.424   0.601   3.698 -0.4415 -0.1378  1.3269
  216MOL0     H29112   3.597   0.412   3.597  3.7110  2.8988 -1.3850
  216MOL0     H29113   3.522   0.313   3.470 -1.4546  0.6355 -0.4126
  216MOL0     H29114   3.531   0.473   3.318 -0.8327 -1.5546  0.8152
  216MOL0     H29115   3.567   0.602   3.429 -0.4561  0.2068 -1.4810
  216MOL0     H29116   3.747   0.351   3.353 -0.6282 -0.5321 -0.6363
  216MOL0     H29117   3.795   0.468   3.473  0.6910  2.8172 -1.7215
  216MOL0     H29118   3.811   0.642   3.303 -0.1889  0.1306 -0.1225
  216MOL0     H29119   3.761   0.511   3.176  0.2865 -2.2602  0.2249
  216MOL0     H29120   3.936   0.724   3.141  0.1882  0.6119  0.6239
  216MOL0     H29121   4.103   0.834   3.002  2.2721  2.1218  0.8256
  216MOL0     H29122   4.490   0.843   2.708 -1.0984 -1.4638 -0.9498
  216MOL0     H29123   4.674   0.880   2.576 -0.5318  1.7426  2.5887
  216MOL0     H29124   5.010   0.551   2.584  3.0595  1.0539 -0.0555
  216MOL0     H29125   4.886   0.532   2.452  1.8413 -0.8849 -1.9644
  216MOL0     H29126   4.995   0.744   2.336  0.4300  0.5330  0.3749
  216MOL0     H29127   5.118   0.729   2.455  0.8766  0.8192 -0.4026
  216MOL0     H29128   5.159   0.487   2.388 -0.1614 -1.1238 -0.5972
  216MOL0     H29129   5.031   0.507   2.263  0.5550 -1.1509 -0.4916
  216MOL0     H29130   5.255   0.709   2.253  1.4884 -0.6434  0.4932
  216MOL0     H29131   5.147   0.652   2.133  1.4995 -0.5387 -0.6946
  216MOL0     H29132   5.241   0.474   2.081 -0.7285  0.4000 -0.1783
  216MOL0     H29133   5.331   0.440   2.231  2.1037 -1.8008 -2.9434
  216MOL0     H29134   5.497   0.604   2.164 -1.4156  0.7238  0.6021
  216MOL0     H29135   5.472   0.500   2.028  1.3206 -0.4090  2.3263
  216MOL0     H29136   5.336   0.777   2.044 -3.0694 -0.6723 -1.2611
  216MOL0     H29137   5.311   0.658   1.919 -1.9658  3.6315  0.2096
  216MOL0     H29138   5.587   0.759   1.991  1.5766  0.4796 -0.9394
  216MOL0     H29139   5.536   0.700   1.836  1.6160  2.7529 -1.7562
  216MOL0     H29140   4.839   0.511   2.744  0.5521  0.0744 -0.7033
  216MOL0     H29141   4.655   0.486   2.879  2.9778  0.3429  0.0577
  216MOL0     H29142   4.364   0.487   3.086 -2.0610 -1.8102 -0.8697
  216MOL0     H29143   4.187   0.388   3.199  0.3597  1.0766 -0.5267
  216MOL0     H29144   2.466   1.080   4.524 -1.5532 -3.3945  3.8728
  216MOL0     H29145   2.209   1.141   4.505  0.0989  1.8475  0.0037
  216MOL0     H29146   1.848   1.102   4.431  1.4208  0.0291 -0.2362
  216MOL0     H29147   1.599   1.104   4.470 -0.5697  3.3094 -0.0123
  216MOL0     H29148   1.402   1.332   4.300  0.8110  0.7539  1.3987
  216MOL0     H29149   1.459   1.248   4.443  0.3309 -2.4403  0.3473
  216MOL0     H29150   1.181   1.200   4.321  0.6323  1.1675 -0.9607
  216MOL0     H29151   1.217   1.303   4.470  0.0823  1.4932 -1.2732
  216MOL0     H29152   1.321   1.086   4.565 -1.5542 -1.3947  1.0846
  216MOL0     H29153   1.243   1.000   4.439 -1.8068  1.5103 -3.4922
  216MOL0     H29154   1.128   1.052   4.682 -2.1314 -2.8874 -0.3978
  216MOL0     H29155   1.059   1.183   4.598  2.1180  1.1693  1.7144
  216MOL0     H29156   0.886   0.803   4.468 -1.2093  1.1583 -1.2771
  216MOL0     H29157   1.530   1.063   4.056 -0.1649 -2.9464 -1.1543
  216MOL0     H29158   1.833   0.934   3.970 -2.1545 -1.0483 -0.1952
  216MOL0     H29159   1.688   1.017   3.910  0.0128 -3.0943  0.7103
  216MOL0     H29160   1.832   1.110   3.940  1.8213 -0.6383  1.3722
  217MOL0     O29161   0.614   4.896   2.967 -0.2765 -0.2507 -0.1445
  217MOL0     C29162   0.557   4.886   3.079  0.3913  0.0938 -0.1385
  217MOL0     O29163   0.629   4.879   3.204 -0.6365 -0.0046  0.5507
  217MOL0     C29164   0.762   4.906   3.206 -0.8475 -0.2856  0.4306
  217MOL0     C29165   0.856   4.812   3.247  0.8827 -0.0081 -0.5513
  217MOL0     C29166   0.991   4.844   3.256 -0.7628 -0.2133  0.2993
  217MOL0     C29167   1.037   4.976   3.218  0.1296  0.0329 -0.2378
  217MOL0     O29168   1.165   5.019   3.226 -0.6228  0.0877 -0.0309
  217MOL0     C29169   1.265   4.923   3.185  0.3985  0.2588  0.5882
  217MOL0     C29170   1.407   4.986   3.197  0.8746 -0.1167 -0.3890
  217MOL0     C29171   1.487   4.914   3.082 -0.0713 -1.0745 -0.0188
  217MOL0     C29172   1.633   4.887   3.112  0.1105 -0.2164 -0.0763
  217MOL0     C29173   1.692   4.803   3.000  0.0453  0.2876  0.5671
  217MOL0     C29174   1.830   4.750   3.027  0.2612  0.6328 -0.2561
  217MOL0     C29175   1.884   4.662   2.915  0.2691 -1.3738 -0.2343
  217MOL0     C29176   1.872   4.510   2.959 -0.1960 -0.8123  0.5045
  217MOL0     N29177   1.986   4.469   3.049  0.4972  0.1944  0.5079
  217MOL0     C29178   1.993   4.485   3.184 -0.3830  0.1314 -0.2925
  217MOL0     C29179   2.111   4.431   3.233 -0.3914 -0.4668  0.2129
  217MOL0     C29180   2.157   4.406   3.372 -0.4586  0.0490 -0.6334
  217MOL0     C29181   2.208   4.533   3.436 -0.0238 -0.3702 -0.5373
  217MOL0     C29182   2.269   4.642   3.348  0.0129 -0.0024  1.1443
  217MOL0     C29183   2.401   4.596   3.273 -0.0414 -0.3344 -0.3411
  217MOL0     O29184   2.494   4.544   3.371  0.5028  0.3096 -0.5585
  217MOL0     C29185   2.616   4.481   3.331 -0.0939  0.1077  1.1375
  217MOL0     C29186   2.621   4.390   3.233  0.0792 -0.4050  0.0597
  217MOL0     C29187   2.743   4.359   3.181 -0.2375 -0.1145  0.1486
  217MOL0     C29188   2.865   4.415   3.235  1.0448 -0.9989 -0.3006
  217MOL0     C29189   2.992   4.366   3.179  0.7232 -0.0838  0.0473
  217MOL0     O29190   3.099   4.416   3.244 -0.9324  0.4585 -0.2930
  217MOL0     C29191   3.233   4.427   3.204  0.1050 -0.2577  0.0510
  217MOL0     C29192   3.283   4.361   3.095 -0.4050  0.0051 -0.7342
  217MOL0     C29193   3.418   4.378   3.065  0.0825  0.2013  1.1134
  217MOL0     C29194   3.500   4.462   3.143 -0.1103 -0.0187  0.1994
  217MOL0     O29195   3.632   4.478   3.100  0.3410  0.8629 -0.0762
  217MOL0     C29196   3.711   4.584   3.147 -0.1455  0.2176 -0.4856
  217MOL0     C29197   3.835   4.616   3.061  0.3370  0.1687  0.2530
  217MOL0     C29198   3.932   4.501   3.063  0.0112 -0.8582 -0.3117
  217MOL0     C29199   4.046   4.540   2.967  0.6524 -0.9047 -0.7917
  217MOL0     C29200   4.165   4.450   2.957 -0.7913 -0.0433 -0.3813
  217MOL0     C29201   4.240   4.450   3.096 -0.2311 -0.0682 -0.5974
  217MOL0     C29202   4.380   4.374   3.096  0.9295 -0.2723  0.7302
  217MOL0     C29203   4.471   4.433   2.992  0.1406 -0.8094  0.1824
  217MOL0    Cl29204   4.638   4.364   3.002 -0.3178  0.4798  0.0744
  217MOL0     C29205   3.445   4.526   3.255  0.2458 -0.6041 -0.4042
  217MOL0     C29206   3.308   4.519   3.280 -0.4029  0.2401  0.9698
  217MOL0     O29207   2.988   4.308   3.074 -0.0883  0.2948  0.3905
  217MOL0     C29208   2.855   4.499   3.339  1.2133 -0.3580  0.0159
  217MOL0     C29209   2.729   4.535   3.384  0.3927  0.0793  0.0503
  217MOL0     N29210   2.186   4.387   3.132  0.4170  1.0572 -0.0490
  217MOL0     N29211   2.110   4.411   3.026  0.9050  0.6404  0.2036
  217MOL0     C29212   0.942   5.062   3.178 -0.4046 -0.7946  0.2344
  217MOL0     C29213   0.812   5.028   3.166 -0.1627 -0.0215  0.6858
  217MOL0     C29214   0.402   4.883   3.074  0.1790 -0.0361 -0.5590
  217MOL0     C29215   0.338   4.857   3.197 -0.3831 -0.3464 -0.0714
  217MOL0     C29216   0.202   4.840   3.221 -0.3941  0.4552 -0.0623
  217MOL0     C29217   0.118   4.857   3.120  0.9325  0.9089 -0.2686
  217MOL0     O29218  -0.013   4.839   3.164  0.2614 -0.5824  0.4198
  217MOL0     C29219  -0.116   4.816   3.067 -0.2440  0.8428  0.3089
  217MOL0     C29220  -0.168   4.955   3.001  1.1363 -0.1461  0.5863
  217MOL0     C29221  -0.194   5.070   3.105 -0.1493  0.5569 -0.1574
  217MOL0     C29222  -0.327   5.045   3.186 -0.2142  0.0607  0.3908
  217MOL0     C29223  -0.342   5.141   3.296 -0.4211 -0.2354  0.3761
  217MOL0     C29224  -0.374   5.213   3.391 -0.7449 -0.6202  0.9791
  217MOL0     C29225   0.165   4.887   2.991  0.0399 -0.4871 -0.2900
  217MOL0     C29226   0.309   4.899   2.963 -0.0791 -0.0309 -0.6373
  217MOL0     C29227   0.358   4.924   2.821 -0.1284  0.2603 -0.1606
  217MOL0     H29228   0.823   4.714   3.280 -3.2568  1.6762  1.0154
  217MOL0     H29229   1.057   4.768   3.296 -1.7496 -0.3982  1.6251
  217MOL0     H29230   1.255   4.828   3.238  1.1366 -0.0707  0.1569
  217MOL0     H29231   1.245   4.899   3.081 -3.4297  2.2880  0.6882
  217MOL0     H29232   1.446   4.969   3.298  1.8654  0.3001 -0.6898
  217MOL0     H29233   1.406   5.094   3.178  2.4078 -0.0235 -0.0757
  217MOL0     H29234   1.474   4.970   2.989 -1.3002  1.0250  1.3296
  217MOL0     H29235   1.445   4.817   3.057 -1.3039 -0.2565 -1.3238
  217MOL0     H29236   1.695   4.977   3.121 -2.7546  1.8183  0.6137
  217MOL0     H29237   1.639   4.848   3.214  1.3004  1.2772  0.4635
  217MOL0     H29238   1.619   4.723   2.986  0.9664 -0.5548  0.4911
  217MOL0     H29239   1.685   4.859   2.906  1.5233 -0.6442 -0.1391
  217MOL0     H29240   1.897   4.834   3.047  0.7456  0.0756  0.5038
  217MOL0     H29241   1.822   4.697   3.122  0.4751  3.4301  1.4322
  217MOL0     H29242   1.990   4.683   2.899  0.1809 -0.5239  0.2449
  217MOL0     H29243   1.826   4.689   2.826 -1.0607 -0.4776  0.8560
  217MOL0     H29244   1.784   4.492   3.021  0.0062  2.2789  1.8383
  217MOL0     H29245   1.875   4.442   2.873  2.9522 -1.3557  0.9167
  217MOL0     H29246   1.928   4.534   3.256  1.5023  0.9818  0.9199
  217MOL0     H29247   2.072   4.369   3.431 -0.0885  2.0794  1.3341
  217MOL0     H29248   2.239   4.334   3.367 -2.2606 -2.1287 -0.4485
  217MOL0     H29249   2.127   4.585   3.487  1.4098 -0.0509  1.4975
  217MOL0     H29250   2.277   4.515   3.518  0.3079  0.8265 -0.5395
  217MOL0     H29251   2.292   4.736   3.401  2.4400  0.9808 -1.4007
  217MOL0     H29252   2.204   4.676   3.267  1.7575 -2.1463 -1.3251
  217MOL0     H29253   2.443   4.694   3.247 -0.2905 -0.6781 -2.1790
  217MOL0     H29254   2.382   4.534   3.185 -3.1522  2.5545 -1.9935
  217MOL0     H29255   2.528   4.347   3.198  1.5728 -2.3763 -1.6919
  217MOL0     H29256   2.749   4.292   3.096 -1.1350 -0.6053  0.4541
  217MOL0     H29257   3.234   4.285   3.035  3.1257 -2.0383 -1.3317
  217MOL0     H29258   3.455   4.336   2.972  1.3730  2.4312  0.5566
  217MOL0     H29259   3.653   4.677   3.143  0.5590  0.8173  1.6427
  217MOL0     H29260   3.747   4.552   3.245 -0.5100 -0.2143 -0.4863
  217MOL0     H29261   3.798   4.625   2.958 -0.4357 -1.9438  0.3016
  217MOL0     H29262   3.883   4.707   3.097 -1.0116 -0.4796  4.1532
  217MOL0     H29263   3.978   4.487   3.161 -1.9007  0.6268  0.8783
  217MOL0     H29264   3.881   4.409   3.033  2.7616 -2.8311  0.7551
  217MOL0     H29265   4.080   4.635   3.008 -0.3509  0.5877 -3.2025
  217MOL0     H29266   4.008   4.563   2.866  0.2019  2.7245  0.0658
  217MOL0     H29267   4.244   4.494   2.895  1.5130  0.2043  2.5391
  217MOL0     H29268   4.137   4.352   2.917 -2.6752  0.2717  0.0665
  217MOL0     H29269   4.265   4.549   3.135  1.7287 -0.5297 -0.5930
  217MOL0     H29270   4.170   4.402   3.166 -1.1533  1.8887 -0.1268
  217MOL0     H29271   4.372   4.268   3.071  2.8764 -0.3287  0.1922
  217MOL0     H29272   4.425   4.372   3.196  0.9826  0.6691  0.7388
  217MOL0     H29273   4.428   4.394   2.899  0.8256 -0.7854 -0.1512
  217MOL0     H29274   4.458   4.541   2.982 -1.3387 -0.8490  1.2087
  217MOL0     H29275   3.517   4.577   3.318 -0.8356  0.4771 -0.0138
  217MOL0     H29276   3.266   4.560   3.371 -0.1939  0.7183  0.8546
  217MOL0     H29277   2.933   4.553   3.392 -0.8024  2.7093  0.0761
  217MOL0     H29278   2.719   4.603   3.468  1.3487 -1.9219  1.8791
  217MOL0     H29279   0.961   5.162   3.140  0.4270 -0.5960  1.1311
  217MOL0     H29280   0.741   5.097   3.121  1.3515  0.5365 -0.9477
  217MOL0     H29281   0.412   4.847   3.276 -1.6731 -2.4400  0.9535
  217MOL0     H29282   0.174   4.826   3.325  3.0197  1.2642  1.1097
  217MOL0     H29283  -0.206   4.777   3.117 -2.0144  1.3740 -2.2785
  217MOL0     H29284  -0.077   4.749   2.990  3.1924  3.3353 -0.3292
  217MOL0     H29285  -0.264   4.942   2.950  1.2350 -0.5249  0.4975
  217MOL0     H29286  -0.087   4.993   2.938 -0.6315  4.4466  0.6377
  217MOL0     H29287  -0.218   5.160   3.048 -2.6225  0.6622  0.9585
  217MOL0     H29288  -0.108   5.077   3.173  1.4505  0.7766 -2.0948
  217MOL0     H29289  -0.411   5.055   3.117  1.0611 -1.2952 -1.4538
  217MOL0     H29290  -0.319   4.943   3.226 -2.1066 -1.6741 -3.2281
  217MOL0     H29291  -0.403   5.278   3.471  0.4047  0.5468  0.4917
  217MOL0     H29292   0.093   4.897   2.910  1.0731  1.6223 -1.0206
  217MOL0     H29293   0.401   4.826   2.798 -1.5365  0.0464 -2.1878
  217MOL0     H29294   0.275   4.946   2.753 -1.9969  2.3498  2.5936
  217MOL0     H29295   0.433   5.002   2.811  1.6563 -1.5460 -1.5719
  218MOL0     O29296   3.637   1.041   5.854 -0.4203 -0.1800  0.3565
  218MOL0     C29297   3.657   0.981   5.742 -0.0053 -0.0783 -0.2386
  218MOL0     O29298   3.780   0.951   5.691 -0.9607 -0.1637  0.3862
  218MOL0     C29299   3.894   1.004   5.753 -1.1357 -0.4370  0.1551
  218MOL0     C29300   3.972   0.914   5.833 -0.7334 -0.1847  0.7042
  218MOL0     C29301   4.098   0.955   5.867 -0.3129  0.0046 -0.3242
  218MOL0     C29302   4.147   1.081   5.845  0.0877  0.0984  0.2550
  218MOL0     O29303   4.262   1.116   5.898  0.1111  0.2547  0.2727
  218MOL0     C29304   4.310   1.236   5.848  0.1353 -0.3432  0.2471
  218MOL0     C29305   4.437   1.266   5.920  0.2033  1.0833  0.2319
  218MOL0     C29306   4.534   1.167   5.866 -0.1209  0.2878  0.6643
  218MOL0     C29307   4.686   1.185   5.911  0.1258 -0.3448 -0.7325
  218MOL0     C29308   4.768   1.060   5.864  0.1562 -0.2024 -0.5939
  218MOL0     C29309   4.725   0.924   5.931 -0.3792 -0.8432 -0.0738
  218MOL0     C29310   4.843   0.840   5.977 -0.1466 -0.1819 -0.1566
  218MOL0     C29311   4.907   0.894   6.108  0.0110 -0.8484 -0.2066
  218MOL0     N29312   5.011   0.813   6.180 -0.0290  0.1076 -0.3631
  218MOL0     C29313   5.001   0.689   6.230 -0.0144  0.3970  0.3232
  218MOL0     C29314   5.124   0.660   6.273 -0.1419 -0.1760  0.1322
  218MOL0     C29315   5.150   0.518   6.319  0.4545 -0.1454  0.3696
  218MOL0     C29316   5.298   0.485   6.314 -0.3733 -0.2464 -1.1741
  218MOL0     C29317   5.366   0.501   6.445 -0.5014  1.1469  0.1510
  218MOL0     C29318   5.507   0.443   6.441  0.2942 -0.2225 -0.1120
  218MOL0     O29319   5.569   0.444   6.572  0.4590 -0.4721  0.6271
  218MOL0     C29320   5.692   0.380   6.589  0.5793 -0.2535 -0.9903
  218MOL0     C29321   5.777   0.331   6.485 -0.1223 -0.5622 -0.1933
  218MOL0     C29322   5.905   0.299   6.521  0.0860  0.0457  0.4249
  218MOL0     C29323   5.955   0.313   6.652 -0.6581 -0.0350  0.0000
  218MOL0     C29324   6.092   0.266   6.695  0.1220  0.0541  0.6225
  218MOL0     O29325   6.169   0.223   6.594 -0.8219  0.0576 -0.7337
  218MOL0     C29326   6.300   0.189   6.633  0.2787  0.3110  0.1405
  218MOL0     C29327   6.391   0.273   6.704  1.1804  0.6209  0.1809
  218MOL0     C29328   6.518   0.224   6.741  0.4380  0.2217  0.1469
  218MOL0     C29329   6.549   0.089   6.719  0.2819 -0.3300  0.4344
  218MOL0     O29330   6.673   0.036   6.756  0.9829  0.1372 -0.3929
  218MOL0     C29331   6.742   0.106   6.862  0.5542 -0.0749 -0.2861
  218MOL0     C29332   6.845   0.027   6.931 -0.6381  0.3177 -0.3881
  218MOL0     C29333   6.981   0.021   6.856  0.1695  0.2802  0.4472
  218MOL0     C29334   7.097  -0.059   6.922 -0.0292 -0.1287 -1.0874
  218MOL0     C29335   7.211  -0.073   6.828  0.3770 -0.1062  0.3116
  218MOL0     C29336   7.330  -0.154   6.880 -0.5840 -0.2045  0.3276
  218MOL0     C29337   7.438  -0.167   6.775 -0.1884 -0.6631  0.5587
  218MOL0     C29338   7.572  -0.206   6.839 -0.6069  0.4268 -0.5632
  218MOL0    Cl29339   7.553  -0.373   6.890 -0.0267  0.4913 -0.5818
  218MOL0     C29340   6.461   0.001   6.663 -0.1046 -0.3706 -0.1409
  218MOL0     C29341   6.334   0.047   6.626  0.3430 -0.1983  0.4697
  218MOL0     O29342   6.118   0.259   6.817 -0.3015 -0.1290 -0.0022
  218MOL0     C29343   5.876   0.369   6.745 -0.4325  0.6282  0.5278
  218MOL0     C29344   5.743   0.390   6.715  0.4442 -0.3954 -0.8490
  218MOL0     N29345   5.212   0.769   6.253 -0.0942 -0.3444  0.1368
  218MOL0     N29346   5.140   0.862   6.190 -0.4553  0.5059 -0.3082
  218MOL0     C29347   4.066   1.175   5.779  0.1327  0.6686  0.5286
  218MOL0     C29348   3.932   1.137   5.733 -0.3970  0.1427  0.0740
  218MOL0     C29349   3.541   0.937   5.655 -0.5799 -0.1601  0.0313
  218MOL0     C29350   3.575   0.822   5.571 -0.1813  0.1088  0.6953
  218MOL0     C29351   3.472   0.770   5.491  0.2220 -0.3467  0.2928
  218MOL0     C29352   3.345   0.815   5.500  0.0164  0.2267 -0.2858
  218MOL0     O29353   3.244   0.742   5.437  0.4141  0.2232 -0.6144
  218MOL0     C29354   3.121   0.716   5.507  0.2544 -0.1789  0.0631
  218MOL0     C29355   3.010   0.782   5.431 -0.7987 -0.2825 -0.4860
  218MOL0     C29356   2.880   0.723   5.497 -0.5397 -0.8935  0.4421
  218MOL0     C29357   2.754   0.728   5.419  0.1464 -0.4892 -0.1208
  218MOL0     C29358   2.762   0.650   5.291  0.4741 -0.4825 -0.6557
  218MOL0     C29359   2.768   0.611   5.180 -0.4492  0.4929 -0.8199
  218MOL0     C29360   3.317   0.926   5.579  0.0161 -0.2542  0.2205
  218MOL0     C29361   3.405   0.978   5.666  0.1239 -0.3554 -0.9460
  218MOL0     C29362   3.365   1.100   5.749 -0.1345 -0.2705 -0.0425
  218MOL0     H29363   3.934   0.816   5.860 -0.9764  0.4149  2.6778
  218MOL0     H29364   4.173   0.888   5.907 -0.5606  1.2009  2.3429
  218MOL0     H29365   4.333   1.236   5.741  1.7234  0.6862  0.5430
  218MOL0     H29366   4.251   1.324   5.877  1.3222  0.8364 -0.7712
  218MOL0     H29367   4.414   1.253   6.026 -0.8137 -4.0445 -0.3699
  218MOL0     H29368   4.467   1.369   5.900 -1.2138  1.7694  1.4160
  218MOL0     H29369   4.543   1.163   5.758 -0.5549 -1.1100  0.6674
  218MOL0     H29370   4.515   1.064   5.898  6.5239 -3.1074 -4.0348
  218MOL0     H29371   4.713   1.284   5.873  0.0257  0.7151  1.7512
  218MOL0     H29372   4.703   1.202   6.018 -0.7676 -3.8687  0.1098
  218MOL0     H29373   4.754   1.041   5.757 -2.3900 -0.9123 -0.2168
  218MOL0     H29374   4.874   1.083   5.871  0.3207 -0.9996 -0.3829
  218MOL0     H29375   4.659   0.948   6.015  0.5947 -0.5543  0.6243
  218MOL0     H29376   4.661   0.865   5.866 -1.7812 -2.8425  2.9180
  218MOL0     H29377   4.922   0.870   5.907 -1.2240  2.4803 -0.3194
  218MOL0     H29378   4.805   0.738   5.981  1.2061 -0.6674  2.5338
  218MOL0     H29379   4.964   0.984   6.084  2.1569 -1.5151  1.9828
  218MOL0     H29380   4.821   0.925   6.169 -1.2589 -0.3913 -2.1088
  218MOL0     H29381   4.918   0.619   6.231  1.5264 -1.6481 -2.3703
  218MOL0     H29382   5.107   0.510   6.419 -0.1791 -1.9259 -0.0240
  218MOL0     H29383   5.101   0.457   6.243 -1.8032  0.0101  1.6119
  218MOL0     H29384   5.306   0.377   6.296  0.6535  0.0627 -2.8220
  218MOL0     H29385   5.351   0.528   6.228  0.6452 -0.1041 -0.4855
  218MOL0     H29386   5.301   0.449   6.516 -2.7311  2.1256 -1.0646
  218MOL0     H29387   5.361   0.605   6.479  0.2623  1.1784  0.1885
  218MOL0     H29388   5.569   0.497   6.369 -0.4628 -0.2832 -0.8210
  218MOL0     H29389   5.505   0.341   6.402  0.3736 -0.8000  1.3256
  218MOL0     H29390   5.735   0.334   6.385 -0.5648 -2.9415 -0.1402
  218MOL0     H29391   5.975   0.265   6.445  1.8259 -0.8855  2.3721
  218MOL0     H29392   6.367   0.373   6.736 -1.0463  0.2553 -0.1799
  218MOL0     H29393   6.590   0.281   6.799  2.3950 -1.1749 -0.7998
  218MOL0     H29394   6.788   0.201   6.835  1.7319  0.2705  2.6401
  218MOL0     H29395   6.669   0.124   6.942 -0.5565 -0.1761 -1.2437
  218MOL0     H29396   6.849   0.084   7.025  1.4601 -0.5570  0.1004
  218MOL0     H29397   6.806  -0.072   6.955  4.6586 -1.7479  1.0906
  218MOL0     H29398   6.960  -0.011   6.754 -2.8186 -0.8649  1.3119
  218MOL0     H29399   7.006   0.128   6.855 -1.2524  0.6604 -2.2793
  218MOL0     H29400   7.071  -0.158   6.961 -0.9963  0.8779  0.9599
  218MOL0     H29401   7.143   0.002   6.999  2.7582 -0.1860 -2.5778
  218MOL0     H29402   7.261   0.022   6.810 -0.0582 -0.2417 -1.9214
  218MOL0     H29403   7.164  -0.114   6.738 -1.8991  2.9352 -0.0469
  218MOL0     H29404   7.373  -0.120   6.975  2.4784 -0.0600 -0.9917
  218MOL0     H29405   7.300  -0.255   6.908 -0.5119 -0.7979 -1.6340
  218MOL0     H29406   7.450  -0.072   6.723  1.6552 -0.5213  1.1579
  218MOL0     H29407   7.410  -0.235   6.695  1.8191  1.4087 -2.1184
  218MOL0     H29408   7.651  -0.210   6.763  0.5255 -1.1322  0.6465
  218MOL0     H29409   7.602  -0.141   6.921 -3.4598  0.1097  0.8708
  218MOL0     H29410   6.489  -0.104   6.652 -1.7119 -1.3695  3.6447
  218MOL0     H29411   6.259  -0.024   6.593 -0.9957  1.8587 -1.1897
  218MOL0     H29412   5.913   0.364   6.847  1.3013 -1.8085 -0.1167
  218MOL0     H29413   5.681   0.440   6.789  1.9091 -2.4986  2.0085
  218MOL0     H29414   4.091   1.279   5.763  0.4284  0.4018 -0.9457
  218MOL0     H29415   3.860   1.207   5.692 -1.1243 -0.5460  0.1559
  218MOL0     H29416   3.677   0.789   5.552  0.5662  3.1808 -1.2969
  218MOL0     H29417   3.491   0.679   5.436 -3.9034 -1.2411  0.0456
  218MOL0     H29418   3.121   0.763   5.605  0.9068  1.0057 -0.4887
  218MOL0     H29419   3.114   0.607   5.498  1.5852 -0.1233 -3.3060
  218MOL0     H29420   3.021   0.761   5.324 -0.5906  0.2831 -0.5787
  218MOL0     H29421   3.024   0.890   5.442  1.9102 -0.5877 -0.2825
  218MOL0     H29422   2.860   0.749   5.601 -3.1514 -1.6091  0.1970
  218MOL0     H29423   2.894   0.614   5.504 -4.0689 -1.5063 -0.3735
  218MOL0     H29424   2.677   0.688   5.486  2.3381 -2.9888  1.1107
  218MOL0     H29425   2.723   0.829   5.392  0.7345 -0.6097 -1.3219
  218MOL0     H29426   2.783   0.555   5.090  0.9614 -1.1939  0.3968
  218MOL0     H29427   3.218   0.969   5.590  1.2306  2.6703  0.7561
  218MOL0     H29428   3.397   1.198   5.711  0.2125 -0.3275  0.0928
  218MOL0     H29429   3.256   1.103   5.747 -0.2048 -0.9527  1.4032
  218MOL0     H29430   3.399   1.101   5.853 -0.4376  1.4752  0.0763
  219MOL0     O29431   9.046   8.397   6.159 -0.3077  0.2231 -0.0097
  219MOL0     C29432   8.972   8.367   6.064 -0.5172 -0.3874 -0.4128
  219MOL0     O29433   8.961   8.435   5.948 -1.1829  0.4958 -0.2030
  219MOL0     C29434   9.046   8.538   5.926 -0.2963  0.6698  0.1871
  219MOL0     C29435   9.016   8.674   5.944 -0.0122 -0.5854 -0.0624
  219MOL0     C29436   9.107   8.772   5.901 -0.5474 -0.6706 -0.0400
  219MOL0     C29437   9.217   8.736   5.826 -0.9587 -0.3185 -0.4656
  219MOL0     O29438   9.310   8.834   5.802 -0.3913 -0.4822 -0.5316
  219MOL0     C29439   9.447   8.798   5.826 -0.1531 -0.0031 -0.4322
  219MOL0     C29440   9.537   8.913   5.802  0.0110 -0.2814 -0.3592
  219MOL0     C29441   9.685   8.878   5.800  0.1768 -0.1560  0.1117
  219MOL0     C29442   9.774   9.003   5.762  0.5845  0.0363  0.2144
  219MOL0     C29443   9.932   8.986   5.755  0.0343 -0.3764  0.0851
  219MOL0     C29444  10.019   8.999   5.881 -0.1322 -0.4851 -0.9947
  219MOL0     C29445  10.168   8.956   5.865  0.3900  0.7583 -0.0093
  219MOL0     C29446  10.257   9.046   5.780  0.2025 -0.3146  0.4187
  219MOL0     N29447  10.385   8.987   5.760 -0.2814  1.1105  0.1130
  219MOL0     C29448  10.503   9.018   5.824  0.4311 -0.3082  0.4901
  219MOL0     C29449  10.576   8.908   5.786  0.0799 -0.1026  0.2013
  219MOL0     C29450  10.711   8.884   5.849 -0.4808 -0.9903  0.2475
  219MOL0     C29451  10.825   8.965   5.791  0.7075  0.8949 -0.0790
  219MOL0     C29452  10.967   8.938   5.847 -0.0446 -0.7014  0.4760
  219MOL0     C29453  11.018   8.795   5.808  0.6010 -0.2556  0.3223
  219MOL0     O29454  11.155   8.772   5.846 -0.6003  0.0762 -0.4310
  219MOL0     C29455  11.251   8.833   5.778 -0.4990  0.6029  0.1476
  219MOL0     C29456  11.379   8.804   5.834  0.4035 -0.8594 -0.6015
  219MOL0     C29457  11.499   8.854   5.780  0.4882 -0.2738  0.9965
  219MOL0     C29458  11.494   8.929   5.662 -0.0303  0.1154  0.3122
  219MOL0     C29459  11.624   8.984   5.605 -0.5823  0.4151  0.0483
  219MOL0     O29460  11.602   9.062   5.497 -0.3892  0.1442 -0.1695
  219MOL0     C29461  11.711   9.112   5.428  0.3773 -0.1019 -0.2210
  219MOL0     C29462  11.739   9.256   5.429 -0.1809 -0.0740 -0.2019
  219MOL0     C29463  11.841   9.297   5.341 -0.1782  0.3591 -0.2990
  219MOL0     C29464  11.909   9.216   5.255 -0.3226 -0.3780  0.5836
  219MOL0     O29465  11.999   9.280   5.163  0.4147 -0.9467 -0.2573
  219MOL0     C29466  12.103   9.205   5.119  0.2918  0.0538  0.7598
  219MOL0     C29467  12.203   9.288   5.043  0.1748 -1.2849  0.4867
  219MOL0     C29468  12.293   9.383   5.126  0.5645  0.2504 -0.0609
  219MOL0     C29469  12.378   9.475   5.032  0.8984  0.7830  0.8652
  219MOL0     C29470  12.487   9.556   5.108 -0.2538  0.2796 -0.6295
  219MOL0     C29471  12.567   9.636   5.011 -1.1922 -0.0163 -0.2858
  219MOL0     C29472  12.687   9.694   5.095 -0.5157  0.4172 -0.1566
  219MOL0     C29473  12.787   9.765   5.004  0.0321 -0.5125  0.5252
  219MOL0    Cl29474  12.931   9.800   5.114 -0.2398 -0.2332  0.0185
  219MOL0     C29475  11.874   9.084   5.251  0.0226  0.1935  0.1767
  219MOL0     C29476  11.782   9.034   5.339  0.0996 -0.4429  0.9668
  219MOL0     O29477  11.736   8.947   5.647  0.8326  0.0413 -0.4220
  219MOL0     C29478  11.369   8.958   5.609 -0.0277  0.3557 -0.2014
  219MOL0     C29479  11.245   8.906   5.657  0.1317  0.1726  0.4400
  219MOL0     N29480  10.509   8.824   5.703  0.4456 -0.8971  0.2096
  219MOL0     N29481  10.391   8.879   5.679  0.5527  0.6599  0.2221
  219MOL0     C29482   9.234   8.604   5.769 -0.6392  0.5138  0.3769
  219MOL0     C29483   9.146   8.508   5.829 -0.0138  0.3392  0.6365
  219MOL0     C29484   8.891   8.251   6.076  0.4442 -0.0941 -0.5323
  219MOL0     C29485   8.922   8.136   6.005  0.0990 -0.3968 -0.6238
  219MOL0     C29486   8.840   8.025   6.010 -0.0719 -0.0365  0.7049
  219MOL0     C29487   8.712   8.033   6.067 -0.1772  0.1036 -0.8834
  219MOL0     O29488   8.626   7.928   6.071 -0.1953 -0.5399  0.2141
  219MOL0     C29489   8.657   7.807   6.006  0.2319 -0.0606  0.7829
  219MOL0     C29490   8.527   7.734   5.972  0.4892  0.3487 -0.2799
  219MOL0     C29491   8.456   7.686   6.109  0.4551 -0.3785 -0.7151
  219MOL0     C29492   8.535   7.575   6.178  0.5353 -0.4434  0.3426
  219MOL0     C29493   8.497   7.552   6.317  0.7326 -0.2425  0.1580
  219MOL0     C29494   8.461   7.557   6.435 -0.0705 -0.4694  0.0313
  219MOL0     C29495   8.665   8.153   6.119 -0.6558  0.7452 -0.5796
  219MOL0     C29496   8.756   8.263   6.126 -0.3023  0.4155  0.2370
  219MOL0     C29497   8.713   8.384   6.209 -0.1709  0.1895  0.6405
  219MOL0     H29498   8.932   8.724   5.990 -1.1593  0.6574 -3.2344
  219MOL0     H29499   9.092   8.871   5.943 -0.6737 -0.2087 -1.1413
  219MOL0     H29500   9.458   8.772   5.931 -0.9056  1.9740  0.1788
  219MOL0     H29501   9.479   8.714   5.764  5.9236  1.2014  0.3744
  219MOL0     H29502   9.520   8.986   5.881 -0.0975 -0.7203  0.0266
  219MOL0     H29503   9.514   8.959   5.705  1.1015  1.0269 -0.0249
  219MOL0     H29504   9.694   8.801   5.723 -0.4112  0.9499 -1.1162
  219MOL0     H29505   9.716   8.837   5.896  1.5070 -1.2758 -0.7626
  219MOL0     H29506   9.730   9.054   5.676  3.1789 -1.0358 -1.9056
  219MOL0     H29507   9.768   9.080   5.838  0.4693  2.0886 -1.7628
  219MOL0     H29508   9.957   8.897   5.697  0.4140 -0.4955  0.4300
  219MOL0     H29509   9.965   9.069   5.691 -1.2252  0.5007  0.5380
  219MOL0     H29510  10.007   9.103   5.913  2.1527  0.0952 -1.8701
  219MOL0     H29511   9.972   8.940   5.960 -0.1966  2.2682  1.1654
  219MOL0     H29512  10.167   8.851   5.835  0.6726  1.1787 -1.5526
  219MOL0     H29513  10.212   8.951   5.965  0.5138  1.4684 -0.0229
  219MOL0     H29514  10.209   9.065   5.684 -0.5701 -2.1420  0.4047
  219MOL0     H29515  10.257   9.143   5.832  1.2999  0.5369 -1.0933
  219MOL0     H29516  10.511   9.100   5.894 -1.3434 -1.4891  2.2096
  219MOL0     H29517  10.700   8.909   5.955 -1.4869  1.5100 -0.3696
  219MOL0     H29518  10.733   8.778   5.835  0.0525 -0.8303 -0.1593
  219MOL0     H29519  10.814   8.958   5.682 -2.0716  1.6647  0.0674
  219MOL0     H29520  10.793   9.067   5.816  0.7128  0.5840  1.2425
  219MOL0     H29521  10.972   8.971   5.952 -0.8834  0.1831  0.2532
  219MOL0     H29522  11.036   9.009   5.800  0.8259  0.0433  2.7188
  219MOL0     H29523  11.004   8.771   5.702 -3.8820  2.8134 -0.0602
  219MOL0     H29524  10.956   8.721   5.860  1.7906 -0.0982  2.0387
  219MOL0     H29525  11.388   8.739   5.920  0.4748 -3.1817 -2.2906
  219MOL0     H29526  11.593   8.826   5.827  0.8739  1.5160  1.3859
  219MOL0     H29527  11.691   9.335   5.485  1.4612  1.3622 -0.7287
  219MOL0     H29528  11.857   9.405   5.345 -0.5874  0.3853  0.9459
  219MOL0     H29529  12.168   9.163   5.196  1.5884 -1.3157 -0.9941
  219MOL0     H29530  12.070   9.125   5.052 -0.1633  0.4317  0.5298
  219MOL0     H29531  12.281   9.220   5.007 -1.0932 -1.9961 -1.0797
  219MOL0     H29532  12.144   9.344   4.970  0.7662  0.1746  1.0859
  219MOL0     H29533  12.225   9.451   5.179  1.2949 -0.0354  1.2813
  219MOL0     H29534  12.342   9.332   5.209 -1.6684  0.5350  1.5280
  219MOL0     H29535  12.300   9.539   4.989 -0.5528 -1.2982  0.2021
  219MOL0     H29536  12.427   9.408   4.960 -1.7969 -2.5798  1.8386
  219MOL0     H29537  12.564   9.486   5.142  2.5058  1.9982 -2.8876
  219MOL0     H29538  12.447   9.618   5.188 -0.2474 -1.6046  0.9189
  219MOL0     H29539  12.600   9.573   4.927 -0.4744  3.2708 -2.6846
  219MOL0     H29540  12.510   9.715   4.962 -0.9692  0.6612  0.5317
  219MOL0     H29541  12.751   9.627   5.153  1.3755  2.0460 -0.2357
  219MOL0     H29542  12.661   9.772   5.168  0.0828 -0.1187  0.6476
  219MOL0     H29543  12.820   9.705   4.919 -1.9514 -1.7924  0.5966
  219MOL0     H29544  12.749   9.861   4.970  0.9090 -0.2194  0.3466
  219MOL0     H29545  11.921   9.017   5.179 -3.1365 -1.5311 -0.5041
  219MOL0     H29546  11.757   8.931   5.315  2.0537 -0.3935 -1.6613
  219MOL0     H29547  11.356   9.031   5.529 -2.4420  1.0429  0.7187
  219MOL0     H29548  11.159   8.937   5.597 -1.0460 -2.0227  0.8855
  219MOL0     H29549   9.315   8.570   5.706  0.7081 -0.0379  2.3232
  219MOL0     H29550   9.141   8.402   5.806 -1.0426  0.0174  2.1965
  219MOL0     H29551   9.026   8.129   5.976  0.2154 -3.1071  0.1150
  219MOL0     H29552   8.894   7.938   5.975  1.6905  0.8144  1.1752
  219MOL0     H29553   8.724   7.748   6.068 -1.5908  0.2544  3.1964
  219MOL0     H29554   8.704   7.817   5.908  1.6386  0.2399  1.4633
  219MOL0     H29555   8.536   7.653   5.899  0.3223  1.1349 -1.1985
  219MOL0     H29556   8.459   7.809   5.929  0.6422  0.6060 -0.0784
  219MOL0     H29557   8.352   7.655   6.098  0.1695  1.1747 -3.0277
  219MOL0     H29558   8.447   7.769   6.180  1.3109 -2.9730  2.6692
  219MOL0     H29559   8.525   7.483   6.120  3.1576 -1.4908  1.4146
  219MOL0     H29560   8.642   7.594   6.177  0.0188  3.1346 -0.7118
  219MOL0     H29561   8.419   7.565   6.533  0.6063  0.3988  0.2591
  219MOL0     H29562   8.566   8.162   6.161  0.1825  2.7440  1.1496
  219MOL0     H29563   8.772   8.394   6.301 -0.2287  0.0320  0.6948
  219MOL0     H29564   8.734   8.477   6.156  1.5779 -0.0791  0.8012
  219MOL0     H29565   8.608   8.364   6.232 -0.7363 -0.5292 -2.1459
  220MOL0     O29566  10.326   1.864   7.540  0.8693 -0.4531  1.2798
  220MOL0     C29567  10.294   1.974   7.509 -0.0153 -0.7939 -0.2390
  220MOL0     O29568  10.382   2.069   7.457  0.7920 -0.2661  1.1565
  220MOL0     C29569  10.505   2.025   7.412 -0.1965  0.5208  0.3586
  220MOL0     C29570  10.548   1.902   7.354  0.0641 -0.3756 -0.0380
  220MOL0     C29571  10.686   1.891   7.339  0.0022  0.4415  0.0494
  220MOL0     C29572  10.780   1.989   7.368  0.0769 -0.1567  1.0803
  220MOL0     O29573  10.908   1.968   7.319 -0.5219  0.3534 -0.4708
  220MOL0     C29574  11.017   2.059   7.345 -1.1335  1.0410 -0.1339
  220MOL0     C29575  11.141   1.998   7.294 -0.4474 -0.1431 -0.5733
  220MOL0     C29576  11.251   2.105   7.273 -0.0734 -0.1579  0.4711
  220MOL0     C29577  11.235   2.213   7.160  0.0221 -0.4054 -0.0961
  220MOL0     C29578  11.329   2.333   7.186  0.6111  0.2502 -0.3401
  220MOL0     C29579  11.371   2.418   7.071 -1.0657 -0.0529 -0.3826
  220MOL0     C29580  11.458   2.540   7.121 -0.0896 -0.0058  0.4016
  220MOL0     C29581  11.512   2.627   7.008  0.1372  0.0734 -0.5079
  220MOL0     N29582  11.598   2.742   7.045 -0.0226 -0.3912  1.1051
  220MOL0     C29583  11.716   2.731   7.117 -0.1921  0.1374  0.6338
  220MOL0     C29584  11.734   2.854   7.165 -0.7452 -0.3273  0.2348
  220MOL0     C29585  11.857   2.909   7.226 -1.3927  0.3606  0.0196
  220MOL0     C29586  11.879   2.878   7.378  0.6611  1.0005 -0.1539
  220MOL0     C29587  11.779   2.942   7.477  0.7869  0.4786  0.0378
  220MOL0     C29588  11.637   2.883   7.499  0.6987 -0.1308  0.0433
  220MOL0     O29589  11.633   2.740   7.517 -0.6077  0.6335 -0.6737
  220MOL0     C29590  11.510   2.675   7.507 -0.3113 -0.4531 -0.3301
  220MOL0     C29591  11.503   2.539   7.511  0.8421  0.6303 -0.6637
  220MOL0     C29592  11.390   2.462   7.517  0.0987  0.4699  0.5970
  220MOL0     C29593  11.263   2.528   7.516 -0.6326  0.1385 -0.9274
  220MOL0     C29594  11.128   2.449   7.527  0.2609 -0.4544 -0.4855
  220MOL0     O29595  11.026   2.517   7.589 -0.0140  0.3653  0.1230
  220MOL0     C29596  10.909   2.455   7.616  0.1729 -0.4387 -0.3710
  220MOL0     C29597  10.786   2.510   7.560 -0.1712  0.1133 -0.0704
  220MOL0     C29598  10.666   2.444   7.597  0.1735 -1.4667 -0.0238
  220MOL0     C29599  10.675   2.332   7.688 -0.3964 -0.2481 -0.3372
  220MOL0     O29600  10.562   2.261   7.723 -0.3824 -0.3296  0.2529
  220MOL0     C29601  10.439   2.328   7.715  0.4774 -0.8979 -0.1517
  220MOL0     C29602  10.341   2.235   7.789 -0.0390  0.8339  0.3594
  220MOL0     C29603  10.204   2.284   7.758  0.8455  0.1164  0.5827
  220MOL0     C29604  10.088   2.211   7.826  0.1623 -0.3273 -0.7142
  220MOL0     C29605   9.951   2.278   7.810 -0.7574  0.5217 -0.9270
  220MOL0     C29606   9.830   2.205   7.879  0.3692  0.3322  0.7564
  220MOL0     C29607   9.831   2.052   7.872  0.4125  0.2950 -0.8151
  220MOL0     C29608   9.715   1.973   7.938  0.4980  0.3150  0.9385
  220MOL0    Cl29609   9.564   2.014   7.846 -0.7051  0.1467  0.0957
  220MOL0     C29610  10.797   2.276   7.736  0.0243 -0.3212 -0.4486
  220MOL0     C29611  10.915   2.354   7.709 -0.6334 -0.1711 -0.2250
  220MOL0     O29612  11.121   2.336   7.477 -0.0781 -0.3749 -0.2373
  220MOL0     C29613  11.255   2.668   7.522 -0.5776  0.6979 -0.0475
  220MOL0     C29614  11.381   2.741   7.513  0.2563 -0.3644  0.4033
  220MOL0     N29615  11.640   2.935   7.113  0.4196 -1.2834  1.2754
  220MOL0     N29616  11.568   2.872   7.027  0.9745  0.2303  0.5108
  220MOL0     C29617  10.739   2.101   7.432  0.6795 -0.0415  1.0679
  220MOL0     C29618  10.602   2.115   7.440 -0.2747 -0.0579  0.2404
  220MOL0     C29619  10.154   2.015   7.487  0.5776  0.0364  0.5380
  220MOL0     C29620  10.123   2.137   7.424 -0.2381 -0.6089  0.2567
  220MOL0     C29621   9.997   2.163   7.380 -0.3485 -0.7997  0.7519
  220MOL0     C29622   9.885   2.086   7.406 -0.2126  0.2921 -0.4188
  220MOL0     O29623   9.761   2.133   7.377 -0.2707 -1.1161  0.1511
  220MOL0     C29624   9.657   2.037   7.369 -0.6910  0.0087  0.6096
  220MOL0     C29625   9.515   2.101   7.365 -0.7192  0.2158  0.1920
  220MOL0     C29626   9.474   2.175   7.491  0.0849  0.0674 -0.2941
  220MOL0     C29627   9.562   2.302   7.527 -0.4500 -0.2815 -0.7171
  220MOL0     C29628   9.550   2.403   7.423 -0.1482 -0.4353 -0.1755
  220MOL0     C29629   9.512   2.468   7.332 -0.7661  0.1578 -0.0113
  220MOL0     C29630   9.915   1.972   7.494  0.1163  0.1233 -1.3088
  220MOL0     C29631  10.043   1.936   7.532  0.7266  0.5089 -0.6425
  220MOL0     C29632  10.047   1.812   7.619  0.0582 -0.4906 -0.2492
  220MOL0     H29633  10.487   1.814   7.335  1.1971 -1.2133  0.0933
  220MOL0     H29634  10.721   1.797   7.297 -0.7987  0.6316 -1.0818
  220MOL0     H29635  11.000   2.152   7.291 -2.4039  0.6519 -0.4379
  220MOL0     H29636  11.029   2.100   7.445 -0.8921  1.0706 -0.1739
  220MOL0     H29637  11.124   1.941   7.202 -0.4411 -1.7406  0.3654
  220MOL0     H29638  11.174   1.939   7.380 -2.0959  1.2639  1.0960
  220MOL0     H29639  11.345   2.057   7.245 -0.7831 -1.0660 -0.4160
  220MOL0     H29640  11.272   2.157   7.367  0.0685  0.0661  0.3175
  220MOL0     H29641  11.270   2.171   7.065  2.0008  1.6035 -0.3514
  220MOL0     H29642  11.133   2.243   7.133 -0.2614  1.6707  2.8255
  220MOL0     H29643  11.282   2.388   7.268 -0.2894 -1.2026  0.1645
  220MOL0     H29644  11.427   2.293   7.215 -0.8677 -3.5501  0.0489
  220MOL0     H29645  11.443   2.366   7.008 -1.4527 -0.1576 -0.7411
  220MOL0     H29646  11.287   2.453   7.010 -0.3319  1.2969 -0.6550
  220MOL0     H29647  11.541   2.494   7.175 -0.1291  0.5373  0.9326
  220MOL0     H29648  11.400   2.599   7.193 -1.3484  0.4032 -0.9017
  220MOL0     H29649  11.576   2.564   6.946 -1.3030 -1.8321 -0.1603
  220MOL0     H29650  11.428   2.660   6.947  0.1013 -0.9018 -1.0040
  220MOL0     H29651  11.773   2.643   7.144  0.2736  0.1215 -0.3509
  220MOL0     H29652  11.947   2.871   7.177 -2.5608 -0.7289 -1.3705
  220MOL0     H29653  11.856   3.018   7.228  0.8698  0.4286  1.4675
  220MOL0     H29654  11.873   2.769   7.382  2.7414  0.8727  0.3274
  220MOL0     H29655  11.985   2.894   7.400  0.2739  2.0252  1.0826
  220MOL0     H29656  11.770   3.047   7.450  0.0516  1.4612  3.5703
  220MOL0     H29657  11.822   2.943   7.578 -2.7137  1.7292  1.7008
  220MOL0     H29658  11.580   2.911   7.411 -0.5137  1.1571  1.1781
  220MOL0     H29659  11.597   2.932   7.588  1.1084  0.2300  0.0364
  220MOL0     H29660  11.604   2.498   7.512  1.0702  1.1044  1.9312
  220MOL0     H29661  11.386   2.353   7.514 -0.0192  0.4509 -2.8223
  220MOL0     H29662  10.789   2.597   7.495  1.5837 -0.5895 -1.0179
  220MOL0     H29663  10.580   2.478   7.541  0.4040  2.4270  1.6344
  220MOL0     H29664  10.452   2.425   7.762 -3.0709  1.1078 -2.7893
  220MOL0     H29665  10.396   2.341   7.615  1.3607 -0.6223 -0.5008
  220MOL0     H29666  10.361   2.132   7.758 -0.7698  0.7237  0.2409
  220MOL0     H29667  10.345   2.243   7.898 -1.2691 -1.5057  0.6573
  220MOL0     H29668  10.196   2.389   7.789  0.2746 -0.0441  1.0073
  220MOL0     H29669  10.196   2.267   7.650  1.8579 -0.9093  0.6585
  220MOL0     H29670  10.112   2.207   7.932  0.0072 -1.6146 -0.7119
  220MOL0     H29671  10.087   2.106   7.795  1.7663 -1.3577  2.3600
  220MOL0     H29672   9.934   2.293   7.703 -0.0883 -0.1474 -1.1297
  220MOL0     H29673   9.956   2.376   7.860  0.2124 -0.0171  0.0762
  220MOL0     H29674   9.825   2.240   7.983  5.5873 -3.1274  2.6353
  220MOL0     H29675   9.740   2.231   7.824  1.0493  1.2810  0.0631
  220MOL0     H29676   9.919   2.017   7.927  1.3595 -0.3096 -2.6527
  220MOL0     H29677   9.827   2.017   7.769  0.4342 -0.0934 -0.6836
  220MOL0     H29678   9.747   1.868   7.933  2.7605  0.8433  2.7730
  220MOL0     H29679   9.712   1.996   8.045 -0.0629  0.4971  0.8833
  220MOL0     H29680  10.798   2.187   7.798 -2.1350  1.8250  3.0249
  220MOL0     H29681  11.008   2.315   7.749 -1.5472 -1.1543  1.0406
  220MOL0     H29682  11.159   2.717   7.532 -0.3428  1.4106 -1.1076
  220MOL0     H29683  11.377   2.849   7.511  2.3666 -0.2356  0.8012
  220MOL0     H29684  10.798   2.187   7.459 -0.4483  2.2090 -2.8241
  220MOL0     H29685  10.579   2.206   7.494  0.8699 -0.6737  1.8509
  220MOL0     H29686  10.207   2.196   7.390 -0.5680 -1.4325 -2.1844
  220MOL0     H29687   9.970   2.257   7.334 -1.1503 -0.0323  2.6539
  220MOL0     H29688   9.651   1.971   7.456 -0.2770 -1.1840 -0.2401
  220MOL0     H29689   9.677   1.985   7.275 -2.1181  3.4087 -1.7989
  220MOL0     H29690   9.445   2.018   7.348  0.3990 -0.4593 -1.3267
  220MOL0     H29691   9.500   2.165   7.278 -1.0073 -1.9056 -1.4032
  220MOL0     H29692   9.460   2.103   7.572  0.1166  1.1299  0.6636
  220MOL0     H29693   9.368   2.196   7.473  0.2900  0.7703 -0.7245
  220MOL0     H29694   9.525   2.345   7.620 -0.3250 -0.9737 -0.3406
  220MOL0     H29695   9.668   2.282   7.544 -0.0416  3.1886  1.9701
  220MOL0     H29696   9.472   2.537   7.261  0.2819 -1.0706 -1.8849
  220MOL0     H29697   9.831   1.926   7.546 -1.1316 -1.0524 -4.1310
  220MOL0     H29698  10.072   1.726   7.558  3.0172  1.2103 -1.6807
  220MOL0     H29699  10.127   1.828   7.692 -2.0274  2.0733  1.6845
  220MOL0     H29700   9.954   1.808   7.677 -1.0200  3.4886 -1.3554
  221MOL0     O29701   5.196   3.957   7.914 -0.4771 -0.3262 -0.4151
  221MOL0     C29702   5.195   3.861   7.985  0.1634  0.5148 -0.5995
  221MOL0     O29703   5.287   3.765   7.989  0.0629  0.1423 -0.9363
  221MOL0     C29704   5.412   3.793   7.943  0.2535  0.5967  0.1230
  221MOL0     C29705   5.496   3.878   8.009 -0.7355 -0.0044 -0.4554
  221MOL0     C29706   5.631   3.882   7.969 -0.2608  0.8073  0.0802
  221MOL0     C29707   5.673   3.812   7.856  0.0390  0.0682 -0.0515
  221MOL0     O29708   5.812   3.817   7.823 -0.2884  0.1118  0.0748
  221MOL0     C29709   5.885   3.719   7.737  0.0840 -0.3279 -0.7809
  221MOL0     C29710   6.017   3.767   7.691 -0.2106  0.0316 -0.2329
  221MOL0     C29711   6.026   3.912   7.637  0.2967  0.0768  0.5735
  221MOL0     C29712   6.155   3.981   7.684  1.0601  0.3682  0.4014
  221MOL0     C29713   6.175   4.108   7.597  0.3031 -0.1665 -0.2493
  221MOL0     C29714   6.284   4.194   7.639 -1.1065 -0.4596  0.7014
  221MOL0     C29715   6.316   4.308   7.531 -0.6434 -1.1955  0.5663
  221MOL0     C29716   6.421   4.401   7.586  0.0007  0.0113  0.4870
  221MOL0     N29717   6.555   4.346   7.588  0.2225 -0.3600 -0.5588
  221MOL0     C29718   6.606   4.276   7.689  0.7020  0.1407 -0.6881
  221MOL0     C29719   6.728   4.230   7.640  0.0385 -0.3314 -0.4165
  221MOL0     C29720   6.815   4.132   7.731  1.0373 -0.2550 -0.0620
  221MOL0     C29721   6.931   4.078   7.652 -0.5043  0.2706 -0.1541
  221MOL0     C29722   7.038   4.027   7.740  0.0737  1.0280  0.2034
  221MOL0     C29723   7.157   3.966   7.651  0.5306 -0.4919  0.3071
  221MOL0     O29724   7.285   3.958   7.719  0.8103 -0.5679 -0.0818
  221MOL0     C29725   7.358   4.071   7.753  0.7491 -0.2558  0.0246
  221MOL0     C29726   7.329   4.189   7.686 -0.2244  0.6394 -0.6796
  221MOL0     C29727   7.419   4.296   7.679  0.4916  0.1364  1.2973
  221MOL0     C29728   7.537   4.282   7.752 -0.4770 -0.2457 -0.1469
  221MOL0     C29729   7.632   4.400   7.769 -0.3956  0.3715  0.2147
  221MOL0     O29730   7.759   4.366   7.798  0.9156 -0.3451  0.0977
  221MOL0     C29731   7.856   4.460   7.798 -0.4549 -0.1375  0.7254
  221MOL0     C29732   7.843   4.565   7.889 -0.8218  0.5463  0.4669
  221MOL0     C29733   7.932   4.674   7.874 -0.4405 -0.3109 -0.1113
  221MOL0     C29734   8.044   4.665   7.790  0.4213  0.1207  1.1837
  221MOL0     O29735   8.122   4.771   7.762  0.3055 -0.0298 -0.0712
  221MOL0     C29736   8.223   4.789   7.862 -0.4682  0.6218  0.2369
  221MOL0     C29737   8.311   4.898   7.810  0.3805 -0.3086 -0.0303
  221MOL0     C29738   8.226   5.025   7.773 -0.1529  0.2487 -0.1379
  221MOL0     C29739   8.319   5.141   7.729  1.0408  0.0898  0.2080
  221MOL0     C29740   8.330   5.137   7.581 -0.8201  0.0326  0.6815
  221MOL0     C29741   8.448   5.202   7.517 -0.3934 -0.0470 -0.0087
  221MOL0     C29742   8.584   5.139   7.544 -0.0781 -0.6166  0.4576
  221MOL0     C29743   8.678   5.186   7.438 -0.5172  0.7293  0.0939
  221MOL0    Cl29744   8.835   5.135   7.485 -0.0602  0.0793  0.1114
  221MOL0     C29745   8.052   4.553   7.698 -0.2831 -0.2908  1.0861
  221MOL0     C29746   7.953   4.457   7.698  0.6169 -0.2672 -0.1500
  221MOL0     O29747   7.587   4.512   7.762 -0.1319  0.5898 -0.1542
  221MOL0     C29748   7.558   4.159   7.828 -0.3348  0.2369  0.8158
  221MOL0     C29749   7.474   4.048   7.815 -1.1464 -0.5193 -0.6866
  221MOL0     N29750   6.745   4.265   7.513  0.5333 -0.2157 -0.3044
  221MOL0     N29751   6.640   4.329   7.480  0.1740 -0.5269 -0.2397
  221MOL0     C29752   5.589   3.732   7.786 -0.2954  0.0712  0.0213
  221MOL0     C29753   5.460   3.717   7.833 -0.1340  0.3892  0.0856
  221MOL0     C29754   5.071   3.824   8.060 -0.6954 -0.3284 -0.1792
  221MOL0     C29755   5.083   3.710   8.139  1.2834  0.9862  0.0747
  221MOL0     C29756   4.971   3.664   8.215  1.3796 -0.7273 -0.3608
  221MOL0     C29757   4.853   3.733   8.225 -0.9583  0.0758 -0.0289
  221MOL0     O29758   4.751   3.680   8.292 -0.3992  0.3693 -0.3042
  221MOL0     C29759   4.619   3.729   8.264  0.7767 -0.3919 -0.1833
  221MOL0     C29760   4.519   3.623   8.306  0.4449 -0.1003 -0.2425
  221MOL0     C29761   4.373   3.649   8.252 -0.3274  0.4406 -0.9814
  221MOL0     C29762   4.297   3.520   8.242  0.7375  0.5567  0.2273
  221MOL0     C29763   4.159   3.554   8.192 -0.0692  0.6751  0.6066
  221MOL0     C29764   4.054   3.600   8.175  0.2753  0.0500  0.6208
  221MOL0     C29765   4.848   3.855   8.143  1.1135 -0.1214 -0.6612
  221MOL0     C29766   4.954   3.898   8.061  0.8682  1.4853  1.4504
  221MOL0     C29767   4.925   4.023   7.982 -0.0761 -0.2041 -0.5152
  221MOL0     H29768   5.475   3.932   8.100  2.4367 -1.1652  1.0969
  221MOL0     H29769   5.696   3.933   8.039 -0.3532  1.1839 -0.1054
  221MOL0     H29770   5.900   3.624   7.789 -1.1941 -1.3109 -2.1492
  221MOL0     H29771   5.822   3.696   7.651 -1.6285 -1.7040  0.7363
  221MOL0     H29772   6.047   3.704   7.607 -2.1318 -0.7704 -0.3575
  221MOL0     H29773   6.080   3.757   7.780 -1.7571  1.0137  1.0418
  221MOL0     H29774   5.949   3.977   7.680  2.0386  0.3057  3.6864
  221MOL0     H29775   6.003   3.921   7.530 -1.3636 -0.2259  0.8834
  221MOL0     H29776   6.140   4.005   7.790 -0.7214 -0.3787  0.3573
  221MOL0     H29777   6.239   3.913   7.670  0.7031 -0.5675  2.4229
  221MOL0     H29778   6.188   4.086   7.490  1.0225  0.6966 -0.3523
  221MOL0     H29779   6.083   4.166   7.612 -0.1625 -0.6665 -1.0979
  221MOL0     H29780   6.261   4.230   7.740  0.5017 -0.7630  1.2161
  221MOL0     H29781   6.367   4.124   7.653  0.1797  0.4703 -1.6264
  221MOL0     H29782   6.224   4.362   7.505  0.2852  0.0251 -0.2569
  221MOL0     H29783   6.333   4.254   7.438 -3.2299  1.7527 -1.8204
  221MOL0     H29784   6.428   4.479   7.510  2.9028 -0.6253 -0.0248
  221MOL0     H29785   6.386   4.438   7.683 -3.3075 -1.6857  0.1003
  221MOL0     H29786   6.554   4.251   7.782 -0.3886  2.8990 -0.4594
  221MOL0     H29787   6.858   4.190   7.813  2.0450 -0.0521 -0.7140
  221MOL0     H29788   6.754   4.049   7.768 -1.4344  1.9864  1.1785
  221MOL0     H29789   6.911   4.003   7.575 -1.7689  0.5477 -0.1172
  221MOL0     H29790   6.984   4.161   7.605 -1.1025  1.4696  1.1967
  221MOL0     H29791   7.000   3.943   7.800 -1.2602 -0.7932 -2.9146
  221MOL0     H29792   7.078   4.103   7.807  0.9737  0.9330 -0.2109
  221MOL0     H29793   7.168   4.010   7.552 -0.1483 -0.9330  0.0292
  221MOL0     H29794   7.135   3.862   7.625 -2.0787 -0.0527  0.4516
  221MOL0     H29795   7.233   4.203   7.637 -0.6651  2.1412  0.5319
  221MOL0     H29796   7.379   4.384   7.630  1.3207  1.3744  2.7359
  221MOL0     H29797   7.760   4.564   7.959 -2.5836  1.1524 -1.4994
  221MOL0     H29798   7.910   4.760   7.936 -0.8382  0.8539 -1.8022
  221MOL0     H29799   8.185   4.820   7.960 -1.7945 -2.1496  0.6905
  221MOL0     H29800   8.286   4.704   7.887 -1.5758  0.2746  2.0594
  221MOL0     H29801   8.388   4.924   7.883  3.5974 -1.5166 -2.7548
  221MOL0     H29802   8.365   4.867   7.720 -0.3471 -0.1717 -0.5238
  221MOL0     H29803   8.152   5.013   7.694  1.0446 -0.9089 -1.1454
  221MOL0     H29804   8.173   5.064   7.859  0.3773  2.2378 -0.6647
  221MOL0     H29805   8.415   5.150   7.781  2.4034 -0.6075 -2.0172
  221MOL0     H29806   8.258   5.230   7.749  0.1547 -0.4742  0.0411
  221MOL0     H29807   8.239   5.182   7.540 -2.0005 -2.9993 -0.3536
  221MOL0     H29808   8.329   5.031   7.552 -0.1451  0.8078 -2.5656
  221MOL0     H29809   8.440   5.198   7.408  4.1474  0.9856 -0.6173
  221MOL0     H29810   8.468   5.306   7.545  2.5358 -1.0127  2.0369
  221MOL0     H29811   8.573   5.031   7.547  0.1749 -0.6223  1.7085
  221MOL0     H29812   8.622   5.161   7.644  2.5530  1.6730 -0.8818
  221MOL0     H29813   8.645   5.134   7.347  0.7010 -0.2262  0.1694
  221MOL0     H29814   8.679   5.294   7.425  0.4586  0.9694  1.8594
  221MOL0     H29815   8.130   4.553   7.622  1.0459 -0.7112  2.3880
  221MOL0     H29816   7.951   4.378   7.624  0.2490 -1.2894  0.9181
  221MOL0     H29817   7.646   4.144   7.889  0.7738  2.3302 -0.1606
  221MOL0     H29818   7.515   3.958   7.858  2.2898  1.0415 -0.3967
  221MOL0     H29819   5.627   3.681   7.698  3.6444  0.2807  1.3867
  221MOL0     H29820   5.402   3.642   7.780 -0.3804 -0.1908  1.1431
  221MOL0     H29821   5.165   3.639   8.135  2.7966  2.5838  1.1907
  221MOL0     H29822   4.976   3.571   8.270  1.2731 -1.2655 -1.2509
  221MOL0     H29823   4.585   3.745   8.161 -2.2087 -1.4251  0.5527
  221MOL0     H29824   4.596   3.822   8.317  1.7924 -0.4543  0.4071
  221MOL0     H29825   4.519   3.623   8.415 -4.6902 -0.2212 -0.0356
  221MOL0     H29826   4.560   3.528   8.269 -0.4021 -0.4305 -0.3577
  221MOL0     H29827   4.382   3.682   8.148  0.7655  2.2050 -0.3830
  221MOL0     H29828   4.325   3.732   8.304 -1.3339 -0.8723  0.2594
  221MOL0     H29829   4.354   3.455   8.175  0.8585  0.2928  0.5908
  221MOL0     H29830   4.274   3.490   8.344  2.3035  2.0094  1.0701
  221MOL0     H29831   3.954   3.634   8.155  0.5666  0.1773 -0.7630
  221MOL0     H29832   4.756   3.912   8.142  2.6061  2.4447 -1.5154
  221MOL0     H29833   4.824   4.059   8.002  0.2912  2.3203 -2.5546
  221MOL0     H29834   5.011   4.087   8.001  1.0145 -0.7690 -3.0634
  221MOL0     H29835   4.927   3.999   7.875  2.4290  1.8740 -1.0193
  222MOL0     O29836   8.959   3.394   0.486 -0.5394 -1.0093  0.0748
  222MOL0     C29837   9.044   3.478   0.519  0.2542  1.0596  0.3771
  222MOL0     O29838   9.035   3.614   0.493  1.3431 -0.2300  0.1391
  222MOL0     C29839   8.908   3.679   0.489 -0.7475 -0.6595  0.9000
  222MOL0     C29840   8.781   3.623   0.520  0.0062  0.4388  0.3419
  222MOL0     C29841   8.669   3.698   0.491  0.3248  0.4728 -0.6249
  222MOL0     C29842   8.678   3.830   0.464 -0.4520  0.7296  0.8447
  222MOL0     O29843   8.572   3.908   0.425  0.1373 -0.4231 -0.1256
  222MOL0     C29844   8.434   3.862   0.452 -0.1031 -0.2638  0.5308
  222MOL0     C29845   8.340   3.983   0.454 -0.3020  0.2718 -0.4904
  222MOL0     C29846   8.332   4.063   0.324 -0.3280  1.0272 -0.2301
  222MOL0     C29847   8.199   4.131   0.308  0.5800 -0.0192  0.7726
  222MOL0     C29848   8.194   4.269   0.382  1.3475 -0.4102 -0.3189
  222MOL0     C29849   8.051   4.303   0.437 -0.7042 -0.8907 -0.8406
  222MOL0     C29850   8.043   4.457   0.450 -0.7351  0.1931 -0.2023
  222MOL0     C29851   7.910   4.502   0.491 -0.4935 -0.2223  0.0083
  222MOL0     N29852   7.888   4.652   0.506 -0.1191  0.2233  0.3252
  222MOL0     C29853   7.916   4.744   0.409  0.1316  0.0303  0.1686
  222MOL0     C29854   7.886   4.863   0.463 -0.0197  0.3626 -0.5293
  222MOL0     C29855   7.889   4.998   0.379 -0.0571 -0.2493  0.2936
  222MOL0     C29856   7.917   5.111   0.479  0.7280  0.0150 -0.4982
  222MOL0     C29857   8.052   5.136   0.547 -0.9240 -0.0558  0.3444
  222MOL0     C29858   8.071   5.240   0.658 -0.5200 -0.0728 -0.0598
  222MOL0     O29859   8.178   5.340   0.658  0.1993  0.6553  0.7847
  222MOL0     C29860   8.312   5.309   0.683  0.0974 -0.6583 -0.0556
  222MOL0     C29861   8.412   5.411   0.668  0.4306  0.3590 -0.1251
  222MOL0     C29862   8.546   5.385   0.671  0.3739 -0.1545 -0.9387
  222MOL0     C29863   8.594   5.258   0.702  1.0361 -0.5693  0.1726
  222MOL0     C29864   8.740   5.221   0.713  0.5074  0.0307 -1.0851
  222MOL0     O29865   8.829   5.280   0.627 -0.0535  0.4778  0.1425
  222MOL0     C29866   8.962   5.253   0.632 -0.3954 -0.5725  0.2342
  222MOL0     C29867   9.017   5.229   0.508 -0.5211  0.2188  0.8506
  222MOL0     C29868   9.153   5.216   0.491 -0.1864 -0.5150 -0.6440
  222MOL0     C29869   9.229   5.238   0.612 -0.7155 -1.2978  0.4784
  222MOL0     O29870   9.369   5.261   0.616  0.1592 -0.1266  1.4013
  222MOL0     C29871   9.454   5.201   0.510  0.7867 -0.5390 -0.9738
  222MOL0     C29872   9.597   5.211   0.558 -0.9001 -0.4991  0.1505
  222MOL0     C29873   9.706   5.182   0.466 -0.3608 -0.0739 -0.5697
  222MOL0     C29874   9.840   5.210   0.543 -0.0590  0.1192  0.7035
  222MOL0     C29875   9.957   5.190   0.448 -0.9399  0.1980  0.8432
  222MOL0     C29876  10.034   5.328   0.428  0.8679  0.0734  0.2380
  222MOL0     C29877  10.157   5.337   0.515  0.3473 -0.2807 -0.1550
  222MOL0     C29878  10.240   5.469   0.483  0.6090 -0.4613 -0.0280
  222MOL0    Cl29879  10.395   5.469   0.568 -0.7572  0.3782  0.3007
  222MOL0     C29880   9.174   5.264   0.737  0.4374 -0.3365  0.4094
  222MOL0     C29881   9.034   5.268   0.745 -0.1631  0.5592 -0.6695
  222MOL0     O29882   8.762   5.143   0.802 -0.2529 -0.5124 -0.2139
  222MOL0     C29883   8.498   5.152   0.729  0.7770 -0.6703  0.5987
  222MOL0     C29884   8.360   5.186   0.732  0.0601 -0.1401 -0.4612
  222MOL0     N29885   7.829   4.831   0.584 -0.1261 -0.3299 -0.0871
  222MOL0     N29886   7.837   4.705   0.614 -0.3537  0.2855 -0.6523
  222MOL0     C29887   8.800   3.898   0.453 -0.0753 -0.2957 -0.0058
  222MOL0     C29888   8.909   3.824   0.468 -0.3576  0.2294  0.1252
  222MOL0     C29889   9.175   3.431   0.587  1.0336 -0.6025  0.1308
  222MOL0     C29890   9.249   3.533   0.657  0.2654 -0.8278 -0.6738
  222MOL0     C29891   9.365   3.498   0.723  1.1008  0.2973 -0.0411
  222MOL0     C29892   9.416   3.368   0.720 -0.0821 -0.1801  0.7514
  222MOL0     O29893   9.532   3.345   0.784  0.7760  0.1866  0.1964
  222MOL0     C29894   9.613   3.235   0.739 -0.5731 -0.2865 -0.1146
  222MOL0     C29895   9.702   3.216   0.855 -0.1285 -1.0931 -1.0039
  222MOL0     C29896   9.805   3.097   0.861  0.1088 -0.3161 -0.4192
  222MOL0     C29897   9.860   3.071   0.999 -1.0155  0.4575 -0.2707
  222MOL0     C29898   9.982   2.989   0.990  0.2277 -0.5194  0.8648
  222MOL0     C29899  10.091   2.936   0.980 -0.8478 -0.5735 -1.0961
  222MOL0     C29900   9.345   3.271   0.645 -0.0941 -0.6487 -0.8487
  222MOL0     C29901   9.224   3.297   0.576  0.2419  0.1606 -1.0463
  222MOL0     C29902   9.151   3.183   0.513  0.2503  0.1738 -0.3337
  222MOL0     H29903   8.776   3.519   0.551  0.8826  0.3494  0.2187
  222MOL0     H29904   8.570   3.655   0.507 -0.6903  3.1799  1.2227
  222MOL0     H29905   8.418   3.804   0.360  1.5448 -0.8395  0.5702
  222MOL0     H29906   8.415   3.802   0.541 -5.0512 -2.5832 -1.7137
  222MOL0     H29907   8.378   4.051   0.531 -2.2960  1.9395 -0.8769
  222MOL0     H29908   8.240   3.956   0.490  0.3947 -0.8374  0.6933
  222MOL0     H29909   8.340   3.995   0.239 -0.1096  1.2999 -0.4324
  222MOL0     H29910   8.412   4.138   0.323 -0.7530  1.4847 -0.3980
  222MOL0     H29911   8.176   4.150   0.203  3.0621  1.1057  0.3569
  222MOL0     H29912   8.122   4.064   0.348  0.6274 -0.1808  0.5904
  222MOL0     H29913   8.262   4.278   0.468  1.6137  1.0402 -0.6542
  222MOL0     H29914   8.234   4.337   0.307  0.7097  1.6532  1.0996
  222MOL0     H29915   7.970   4.265   0.376  0.1030  1.1060 -3.3258
  222MOL0     H29916   8.033   4.263   0.537 -2.0725  2.0566  0.2147
  222MOL0     H29917   8.067   4.501   0.353  0.5464  0.3945  0.1849
  222MOL0     H29918   8.118   4.496   0.520 -0.3594 -1.8796  0.6311
  222MOL0     H29919   7.830   4.467   0.425  1.0595 -1.1509 -1.4342
  222MOL0     H29920   7.887   4.457   0.588 -0.4236  1.3592  0.7947
  222MOL0     H29921   7.951   4.743   0.306 -0.2191  3.0117 -0.0684
  222MOL0     H29922   7.971   4.990   0.306 -0.9623 -2.3519 -0.5970
  222MOL0     H29923   7.793   5.005   0.327  0.0487  4.9099  0.3599
  222MOL0     H29924   7.885   5.196   0.420 -3.3517 -2.1855 -1.8350
  222MOL0     H29925   7.856   5.109   0.570 -0.9022  2.0541 -1.4932
  222MOL0     H29926   8.114   5.164   0.462 -1.0609  1.3934  0.6819
  222MOL0     H29927   8.072   5.035   0.583 -3.4079 -0.1032  1.8646
  222MOL0     H29928   8.087   5.182   0.749 -0.4798  0.1959  0.1045
  222MOL0     H29929   7.976   5.290   0.674 -0.8444 -0.9528  0.8994
  222MOL0     H29930   8.385   5.514   0.648  4.7946  2.1588  1.9224
  222MOL0     H29931   8.620   5.462   0.651  0.8364 -0.9523 -2.5302
  222MOL0     H29932   8.949   5.242   0.425 -0.7976 -1.6885  0.7365
  222MOL0     H29933   9.205   5.198   0.397  0.7752  0.7326 -0.3844
  222MOL0     H29934   9.427   5.096   0.496 -1.7823  0.1104 -1.2788
  222MOL0     H29935   9.439   5.247   0.412  4.4655 -0.0240 -1.4276
  222MOL0     H29936   9.605   5.317   0.582 -2.8029 -0.3198  0.1383
  222MOL0     H29937   9.609   5.151   0.649  2.8099  0.0824  0.1981
  222MOL0     H29938   9.699   5.079   0.430 -0.3508  0.8490 -3.4501
  222MOL0     H29939   9.696   5.246   0.378 -1.9671 -0.8509 -0.9801
  222MOL0     H29940   9.846   5.136   0.622  0.1025  2.3646  2.9282
  222MOL0     H29941   9.843   5.309   0.589 -0.4312 -0.2315  1.5034
  222MOL0     H29942   9.925   5.164   0.347  1.9269 -2.4900  0.4592
  222MOL0     H29943  10.029   5.111   0.474  1.3797  2.0356  0.3487
  222MOL0     H29944  10.075   5.322   0.326  0.5838  0.6882  0.0817
  222MOL0     H29945   9.967   5.415   0.428  2.3019  1.2344 -0.7461
  222MOL0     H29946  10.209   5.247   0.483  0.1631 -0.5589  0.3248
  222MOL0     H29947  10.132   5.316   0.619 -0.6202  0.0205 -0.3205
  222MOL0     H29948  10.275   5.482   0.380  0.6605  4.8219  0.3661
  222MOL0     H29949  10.192   5.566   0.503  0.2844 -0.7354  0.5479
  222MOL0     H29950   9.240   5.279   0.822  1.7316 -0.3395 -0.5742
  222MOL0     H29951   8.992   5.287   0.844 -0.3012 -1.7433 -0.2114
  222MOL0     H29952   8.545   5.055   0.747  3.2057  0.1204 -1.0665
  222MOL0     H29953   8.291   5.105   0.756  1.0605 -1.8872 -3.0373
  222MOL0     H29954   8.813   4.001   0.422 -0.3869 -0.3753 -0.4005
  222MOL0     H29955   9.003   3.875   0.451 -0.7615  0.7045 -0.8018
  222MOL0     H29956   9.214   3.635   0.666  2.0309 -0.2835  0.5559
  222MOL0     H29957   9.426   3.571   0.775 -1.2350  1.7956  0.7288
  222MOL0     H29958   9.664   3.258   0.645 -0.9388  0.9816 -0.0174
  222MOL0     H29959   9.564   3.140   0.718 -0.8104 -0.0389 -0.7075
  222MOL0     H29960   9.631   3.220   0.939  0.4103 -1.8796 -0.4964
  222MOL0     H29961   9.755   3.309   0.880 -2.7480 -0.6589  4.5066
  222MOL0     H29962   9.882   3.115   0.786  0.6558  2.2912  0.6828
  222MOL0     H29963   9.756   3.004   0.830 -3.2768  0.0757  2.9731
  222MOL0     H29964   9.884   3.163   1.054  2.0875 -0.2593 -0.2147
  222MOL0     H29965   9.782   3.013   1.048  0.5080 -1.0545  0.4720
  222MOL0     H29966  10.177   2.874   0.962  1.4702  2.1197 -0.0439
  222MOL0     H29967   9.380   3.170   0.627  3.3073 -0.0225  1.3962
  222MOL0     H29968   9.091   3.199   0.423  1.7128  0.0443 -1.3756
  222MOL0     H29969   9.221   3.111   0.471  0.1153  1.3438 -2.7260
  222MOL0     H29970   9.086   3.138   0.588 -1.8152 -0.8037 -2.5650
  223MOL0     O29971   8.115   2.070   3.508 -0.5414  0.7676 -0.1026
  223MOL0     C29972   8.127   2.162   3.429 -1.1708  0.1935  0.0979
  223MOL0     O29973   8.236   2.180   3.346  0.8584  0.1411  0.0459
  223MOL0     C29974   8.354   2.117   3.366 -0.5551 -0.1224 -0.2052
  223MOL0     C29975   8.364   1.975   3.343  0.0847  0.0090  0.3470
  223MOL0     C29976   8.487   1.908   3.367 -0.5939  0.2359  0.4198
  223MOL0     C29977   8.609   1.984   3.390  1.2726 -0.2968  0.0204
  223MOL0     O29978   8.723   1.914   3.403 -0.4382  0.4485 -0.7560
  223MOL0     C29979   8.840   1.973   3.446 -0.2887  0.7506 -0.5851
  223MOL0     C29980   8.946   1.863   3.484 -0.3300  1.0646  0.7599
  223MOL0     C29981   9.069   1.917   3.561  0.6756  1.3375  0.6764
  223MOL0     C29982   9.179   1.821   3.563  0.5611  0.3483  0.0101
  223MOL0     C29983   9.300   1.893   3.636  0.4514 -0.6198  0.4188
  223MOL0     C29984   9.442   1.856   3.583 -0.6715  0.4548  0.4416
  223MOL0     C29985   9.468   1.703   3.589  0.0819 -0.0728  0.3027
  223MOL0     C29986   9.603   1.665   3.543  0.6142  0.2409 -0.5119
  223MOL0     N29987   9.686   1.651   3.662 -0.1611 -0.9563 -0.1420
  223MOL0     C29988   9.681   1.544   3.750  0.3838 -0.1337 -0.0907
  223MOL0     C29989   9.776   1.573   3.840  0.1528 -0.1876 -0.3798
  223MOL0     C29990   9.821   1.497   3.963  0.5386  0.4978  0.1875
  223MOL0     C29991   9.964   1.457   3.934 -0.0250  0.2558  0.0165
  223MOL0     C29992  10.064   1.563   3.974  0.5560  0.4877  0.6608
  223MOL0     C29993  10.199   1.543   3.915 -0.9672 -0.0114  0.2768
  223MOL0     O29994  10.296   1.611   3.988 -0.5267  0.2532 -0.2000
  223MOL0     C29995  10.433   1.572   3.993 -0.3440  0.3241 -1.2573
  223MOL0     C29996  10.486   1.475   3.910 -0.4272 -0.7671 -0.4694
  223MOL0     C29997  10.625   1.430   3.920  0.0980 -0.1721 -0.5625
  223MOL0     C29998  10.711   1.514   4.003  0.8524  0.2156  0.3873
  223MOL0     C29999  10.848   1.483   4.026 -0.2928 -0.0482 -0.2453
  223MOL0     O30000  10.892   1.357   3.991 -0.6811 -0.2314  0.5129
  223MOL0     C30001  11.011   1.310   4.037 -0.4345  0.4892  0.7129
  223MOL0     C30002  11.051   1.199   3.968  1.0179 -0.0457 -0.2394
  223MOL0     C30003  11.164   1.126   4.015  0.0735 -0.4049  0.0531
  223MOL0     C30004  11.241   1.166   4.126 -0.6524 -0.3140  0.0257
  223MOL0     O30005  11.360   1.110   4.169  0.2500 -0.5362  0.5390
  223MOL0     C30006  11.417   0.998   4.108 -0.8846  0.4195 -0.2019
  223MOL0     C30007  11.541   0.937   4.181 -0.3773 -0.1921  0.9384
  223MOL0     C30008  11.665   1.030   4.160 -0.2157  0.5571  0.6896
  223MOL0     C30009  11.798   0.967   4.214  0.4562 -0.5408 -0.7741
  223MOL0     C30010  11.866   0.881   4.113 -0.0369  0.1500  0.3377
  223MOL0     C30011  12.008   0.845   4.165 -0.5133 -0.1312  0.3127
  223MOL0     C30012  12.095   0.806   4.036  0.3380 -0.1821 -0.7731
  223MOL0     C30013  12.247   0.787   4.056 -0.0801 -0.0295  0.7638
  223MOL0    Cl30014  12.294   0.655   4.173  0.4046 -0.0261 -0.0870
  223MOL0     C30015  11.192   1.282   4.188  1.0326 -0.7188  0.6240
  223MOL0     C30016  11.076   1.347   4.150 -0.1901 -0.6424  0.0289
  223MOL0     O30017  10.924   1.575   4.059  0.0067  0.2196  0.1366
  223MOL0     C30018  10.651   1.611   4.087  0.1104 -0.4335 -0.7874
  223MOL0     C30019  10.518   1.639   4.080  0.0806  0.0857  0.2926
  223MOL0     N30020   9.824   1.701   3.817  0.0694 -0.6998  0.8416
  223MOL0     N30021   9.783   1.745   3.699  0.3683  0.2574 -0.4003
  223MOL0     C30022   8.598   2.128   3.401 -0.9898  0.4550  1.3299
  223MOL0     C30023   8.469   2.193   3.394  0.0038  0.4025  0.0019
  223MOL0     C30024   8.007   2.242   3.397 -0.1263  0.9635 -0.3602
  223MOL0     C30025   8.012   2.325   3.279  0.0901 -0.2572 -0.5453
  223MOL0     C30026   7.901   2.386   3.227  0.6041 -0.0723 -1.1365
  223MOL0     C30027   7.777   2.372   3.289 -0.2041  0.0620 -0.5762
  223MOL0     O30028   7.674   2.451   3.241  0.2522 -0.3404  0.0610
  223MOL0     C30029   7.542   2.385   3.240  0.6687  0.0803  0.1208
  223MOL0     C30030   7.452   2.445   3.133  0.4788  0.7657 -1.3523
  223MOL0     C30031   7.506   2.423   2.993  0.0813  0.7173 -0.0340
  223MOL0     C30032   7.395   2.445   2.885  0.4302  0.3131  0.2884
  223MOL0     C30033   7.313   2.323   2.867 -0.6196  0.1934  0.2674
  223MOL0     C30034   7.255   2.221   2.844  0.5946  0.1745 -0.3435
  223MOL0     C30035   7.762   2.289   3.401 -0.0090  0.1491  0.0893
  223MOL0     C30036   7.878   2.225   3.463  0.1028  0.3644  0.5061
  223MOL0     C30037   7.865   2.154   3.596  0.1392  0.9141  0.0406
  223MOL0     H30038   8.273   1.922   3.317 -0.2066 -1.2527  3.4605
  223MOL0     H30039   8.487   1.800   3.358  2.5204 -0.1503  2.9901
  223MOL0     H30040   8.863   2.036   3.360 -0.1470 -0.0400 -1.1372
  223MOL0     H30041   8.826   2.042   3.530 -0.9116 -0.8486  0.6746
  223MOL0     H30042   8.992   1.812   3.400 -0.8391 -0.1553  1.2008
  223MOL0     H30043   8.901   1.784   3.544 -1.7849  1.7573  0.6402
  223MOL0     H30044   9.046   1.934   3.667  0.5439  1.9853  0.5462
  223MOL0     H30045   9.087   2.014   3.514 -2.1643  1.2739 -0.8157
  223MOL0     H30046   9.171   1.730   3.622 -3.7880 -0.0338 -0.8190
  223MOL0     H30047   9.212   1.792   3.463 -0.1458 -0.4664  0.0005
  223MOL0     H30048   9.287   2.000   3.615  0.3926 -0.3633  1.6426
  223MOL0     H30049   9.292   1.877   3.744 -1.6110  1.1009  0.5996
  223MOL0     H30050   9.444   1.905   3.485 -2.7963  3.7371  1.8243
  223MOL0     H30051   9.515   1.911   3.643  1.4295 -1.6536 -0.0262
  223MOL0     H30052   9.409   1.650   3.513  1.7219 -0.1083 -0.9859
  223MOL0     H30053   9.443   1.658   3.686 -1.2458  0.7656  0.3779
  223MOL0     H30054   9.595   1.565   3.500  0.1843  0.4894 -1.0239
  223MOL0     H30055   9.643   1.731   3.466  0.0302  1.0906 -0.1159
  223MOL0     H30056   9.623   1.453   3.746 -0.8343  0.6250 -0.1734
  223MOL0     H30057   9.813   1.561   4.051 -3.5284 -2.2854  2.1610
  223MOL0     H30058   9.756   1.410   3.979 -3.0035  2.7749 -0.6980
  223MOL0     H30059   9.988   1.363   3.984 -1.2814 -0.3834 -0.5427
  223MOL0     H30060   9.979   1.450   3.826 -0.6625  2.6049 -0.2802
  223MOL0     H30061  10.078   1.542   4.080  1.8588  0.2106  0.4490
  223MOL0     H30062  10.021   1.663   3.961  1.1561  0.8307  1.2690
  223MOL0     H30063  10.197   1.578   3.811  0.4785  3.2928  1.2244
  223MOL0     H30064  10.221   1.436   3.919  0.8457  0.3464  0.9473
  223MOL0     H30065  10.431   1.431   3.828  0.7220 -1.3763 -0.9331
  223MOL0     H30066  10.656   1.351   3.852 -2.5310  0.6153 -2.8280
  223MOL0     H30067  10.997   1.160   3.883 -0.2307  2.8392 -0.8888
  223MOL0     H30068  11.189   1.043   3.951  2.3678  1.1816 -1.2523
  223MOL0     H30069  11.337   0.924   4.110 -0.6655  0.1971  1.0649
  223MOL0     H30070  11.432   1.010   4.000 -0.9710 -0.2356 -0.2903
  223MOL0     H30071  11.512   0.944   4.286 -2.2394  2.1666  0.3416
  223MOL0     H30072  11.564   0.832   4.160  0.0546 -0.3858  2.2829
  223MOL0     H30073  11.675   1.058   4.054 -0.1259 -0.7702  0.3324
  223MOL0     H30074  11.641   1.121   4.215  1.1674 -0.5396  3.2535
  223MOL0     H30075  11.777   0.907   4.303 -2.9923  2.6247  0.8735
  223MOL0     H30076  11.870   1.047   4.230 -0.9729  0.5949  0.3315
  223MOL0     H30077  11.878   0.951   4.030  1.3241  0.5443  0.8448
  223MOL0     H30078  11.810   0.793   4.081  1.8465 -0.3847 -1.7138
  223MOL0     H30079  12.058   0.930   4.212 -2.0277  0.3076  1.2267
  223MOL0     H30080  12.005   0.765   4.239  3.2116 -0.3289  0.4040
  223MOL0     H30081  12.075   0.886   3.964 -3.5842  0.0842  0.3669
  223MOL0     H30082  12.049   0.712   4.003  1.5507 -0.8383 -0.6319
  223MOL0     H30083  12.307   0.786   3.964 -0.9844 -0.2799  0.1562
  223MOL0     H30084  12.266   0.886   4.098 -3.2252  0.3561  1.5275
  223MOL0     H30085  11.242   1.310   4.280  0.2403  2.7147  0.1299
  223MOL0     H30086  11.032   1.425   4.211  0.6842 -0.4757  0.4550
  223MOL0     H30087  10.714   1.669   4.154  1.6872 -0.3367 -2.2722
  223MOL0     H30088  10.473   1.719   4.139  0.7147  0.4307  0.3162
  223MOL0     H30089   8.689   2.187   3.411 -0.6441  0.9259 -2.7748
  223MOL0     H30090   8.458   2.295   3.430 -0.5188 -0.1206  1.3870
  223MOL0     H30091   8.100   2.341   3.217 -0.7006  2.9555 -0.9847
  223MOL0     H30092   7.912   2.455   3.144  1.2349  0.9005 -0.2600
  223MOL0     H30093   7.489   2.414   3.331 -2.3788 -0.9794 -1.1802
  223MOL0     H30094   7.543   2.276   3.235 -1.7579  0.0179 -0.1715
  223MOL0     H30095   7.446   2.552   3.152 -0.7715  0.3251  1.1509
  223MOL0     H30096   7.351   2.404   3.141  0.7688  0.1076 -0.8329
  223MOL0     H30097   7.546   2.323   2.971  2.5495  1.8382 -1.0040
  223MOL0     H30098   7.582   2.498   2.971  1.9225 -1.9305 -4.0087
  223MOL0     H30099   7.332   2.525   2.923 -0.9558 -0.3299 -0.6054
  223MOL0     H30100   7.442   2.457   2.787 -0.0294 -1.9618 -0.2679
  223MOL0     H30101   7.207   2.128   2.817 -0.3352  0.5308  0.0387
  223MOL0     H30102   7.662   2.270   3.440 -0.1938  0.9649  0.0281
  223MOL0     H30103   7.774   2.182   3.651  1.2779  0.7635  2.1293
  223MOL0     H30104   7.861   2.047   3.571  1.0653  1.5438 -3.1455
  223MOL0     H30105   7.945   2.181   3.666 -1.7005  2.1859  1.7834
  224MOL0     O30106   1.030   6.450  11.120 -0.3324  0.9298 -0.1482
  224MOL0     C30107   1.009   6.464  10.997 -0.2224 -0.6646 -0.0530
  224MOL0     O30108   1.070   6.391  10.891 -0.0716  0.5747  0.3172
  224MOL0     C30109   1.171   6.300  10.920  0.1358 -0.3208  0.4379
  224MOL0     C30110   1.177   6.224  11.036  0.6782  0.8488 -0.1022
  224MOL0     C30111   1.292   6.152  11.063 -0.0705 -0.1322 -0.1005
  224MOL0     C30112   1.389   6.140  10.966 -0.1657 -0.1055 -0.2470
  224MOL0     O30113   1.498   6.062  10.986 -0.3109  0.2640 -0.2719
  224MOL0     C30114   1.531   6.012  11.113  0.4406  0.0785  0.5555
  224MOL0     C30115   1.661   5.931  11.123 -0.7977 -0.0486  0.3260
  224MOL0     C30116   1.779   6.022  11.110 -0.2787  0.3703  0.5497
  224MOL0     C30117   1.906   5.941  11.122 -0.8525 -0.0704 -0.0347
  224MOL0     C30118   1.956   5.933  11.266  1.2259 -0.1570  0.0628
  224MOL0     C30119   2.094   5.878  11.272 -0.2917 -0.7326  0.3906
  224MOL0     C30120   2.161   5.879  11.404 -0.1048  0.2425  0.0178
  224MOL0     C30121   2.203   6.020  11.465  0.1740  1.0728  0.3894
  224MOL0     N30122   2.303   6.087  11.379 -0.4612 -0.1550  1.1345
  224MOL0     C30123   2.425   6.025  11.335  0.2236  0.1768  0.3616
  224MOL0     C30124   2.470   6.103  11.231  0.4086 -1.1123  0.3445
  224MOL0     C30125   2.599   6.078  11.154 -0.4966 -0.4921  0.0044
  224MOL0     C30126   2.709   6.182  11.195 -0.6485  0.2746  0.3086
  224MOL0     C30127   2.848   6.140  11.115  0.3831  0.0500 -0.0285
  224MOL0     C30128   2.956   6.228  11.162  0.0849  0.3582 -0.2109
  224MOL0     O30129   3.073   6.173  11.094 -0.2576  0.4986 -0.6833
  224MOL0     C30130   3.196   6.219  11.122 -0.3674 -0.3267 -0.1759
  224MOL0     C30131   3.290   6.136  11.072 -0.6740  0.2272  0.0870
  224MOL0     C30132   3.423   6.156  11.093 -0.9466 -0.7264  0.7237
  224MOL0     C30133   3.462   6.279  11.146 -0.8792 -0.4435  0.3195
  224MOL0     C30134   3.611   6.314  11.156  0.8135 -1.0816 -0.0312
  224MOL0     O30135   3.698   6.258  11.067 -0.3754 -0.6205  0.3222
  224MOL0     C30136   3.829   6.297  11.039  0.0819 -0.0107 -0.0317
  224MOL0     C30137   3.892   6.424  11.072  0.2916  0.0390 -0.1789
  224MOL0     C30138   4.023   6.447  11.057  0.2798  0.0155 -0.1948
  224MOL0     C30139   4.094   6.354  10.991 -0.7178  0.7054  0.1148
  224MOL0     O30140   4.223   6.376  10.963 -0.5640  0.1924  0.3937
  224MOL0     C30141   4.293   6.489  11.024  0.1510  0.1674 -0.9945
  224MOL0     C30142   4.438   6.504  10.976  0.2615  0.0067  0.1077
  224MOL0     C30143   4.449   6.598  10.860  0.3147 -0.5212  0.2563
  224MOL0     C30144   4.440   6.746  10.906  0.2921 -0.2106 -0.4855
  224MOL0     C30145   4.519   6.843  10.812 -0.3722 -0.7009  0.1015
  224MOL0     C30146   4.457   6.846  10.681 -0.1195 -0.4353  0.4822
  224MOL0     C30147   4.540   6.947  10.590  0.0214 -0.0479  0.8020
  224MOL0     C30148   4.489   6.939  10.443 -0.8328 -0.2281 -0.2044
  224MOL0    Cl30149   4.333   7.007  10.401  0.0059 -0.3262 -0.1144
  224MOL0     C30150   4.038   6.225  10.957  0.5129 -0.4747  0.0159
  224MOL0     C30151   3.904   6.202  10.981 -0.5325  0.3720  0.2380
  224MOL0     O30152   3.635   6.395  11.243  0.0740 -0.0928  0.0833
  224MOL0     C30153   3.367   6.371  11.192 -0.3671  0.5686 -0.4235
  224MOL0     C30154   3.231   6.344  11.179 -0.1654 -0.4919 -0.4624
  224MOL0     N30155   2.381   6.211  11.213 -0.1596 -0.1701 -1.7093
  224MOL0     N30156   2.284   6.198  11.300 -0.4559 -0.5329 -0.1032
  224MOL0     C30157   1.375   6.204  10.845 -0.0518 -0.9254  1.4428
  224MOL0     C30158   1.267   6.287  10.819  1.2048  0.7993  0.3295
  224MOL0     C30159   0.916   6.573  10.935 -0.0040 -1.3879 -0.6103
  224MOL0     C30160   0.838   6.544  10.815  0.1580 -0.9799 -0.1221
  224MOL0     C30161   0.734   6.616  10.776 -0.9059 -0.4254  0.0578
  224MOL0     C30162   0.697   6.728  10.846  0.1116  0.2528 -0.9527
  224MOL0     O30163   0.598   6.813  10.809 -1.0104 -0.3374  0.7684
  224MOL0     C30164   0.540   6.799  10.676 -0.7677 -1.0248 -0.2558
  224MOL0     C30165   0.451   6.922  10.653 -0.1301  0.1829  0.1931
  224MOL0     C30166   0.320   6.905  10.745  0.2540 -0.8109  0.6407
  224MOL0     C30167   0.241   7.029  10.762  0.1819  0.2364 -0.5251
  224MOL0     C30168   0.201   7.090  10.634  0.1344  0.5488  0.2028
  224MOL0     C30169   0.167   7.122  10.519 -0.1060 -0.0272 -0.0163
  224MOL0     C30170   0.773   6.766  10.962  0.1590 -0.0619  0.6401
  224MOL0     C30171   0.875   6.684  11.011  0.2913 -0.4887  1.1657
  224MOL0     C30172   0.937   6.737  11.140  0.6703 -0.6182 -0.2866
  224MOL0     H30173   1.093   6.232  11.104 -0.0279  0.4702 -0.9011
  224MOL0     H30174   1.293   6.083  11.147 -4.0188  0.5070  0.6666
  224MOL0     H30175   1.523   6.095  11.184 -0.3960 -0.5344  1.2082
  224MOL0     H30176   1.458   5.938  11.149 -0.2875  1.1743  1.3783
  224MOL0     H30177   1.653   5.851  11.049 -1.4436 -2.1388  2.5032
  224MOL0     H30178   1.657   5.884  11.222 -0.6098 -0.8692 -0.0505
  224MOL0     H30179   1.777   6.099  11.189 -3.1835 -1.7954  2.7874
  224MOL0     H30180   1.776   6.087  11.022  1.7072  0.9524  0.8573
  224MOL0     H30181   1.901   5.847  11.067  1.8533 -1.9015  2.5895
  224MOL0     H30182   1.971   6.011  11.069 -2.2662  0.8031 -0.6847
  224MOL0     H30183   1.962   6.029  11.319  0.9488  0.6796 -1.3728
  224MOL0     H30184   1.883   5.875  11.323  0.9848  1.0873  1.0684
  224MOL0     H30185   2.089   5.780  11.223 -0.1428 -0.2158 -0.6923
  224MOL0     H30186   2.160   5.930  11.202 -0.7359  1.6237  1.6139
  224MOL0     H30187   2.257   5.829  11.385  0.6234  0.9203  1.6795
  224MOL0     H30188   2.103   5.817  11.472  0.2158  1.0487  1.0580
  224MOL0     H30189   2.112   6.080  11.474  0.0451  0.9149  0.1135
  224MOL0     H30190   2.242   6.000  11.566 -0.6462 -2.5464  0.1064
  224MOL0     H30191   2.480   5.941  11.377 -0.3156 -0.9533 -1.1089
  224MOL0     H30192   2.626   5.978  11.190 -0.9319 -0.9593 -0.9415
  224MOL0     H30193   2.588   6.080  11.045  0.7835  0.0407 -0.1298
  224MOL0     H30194   2.675   6.285  11.178 -2.0885  0.4990  3.6803
  224MOL0     H30195   2.724   6.184  11.303  1.8995 -1.3292  0.0541
  224MOL0     H30196   2.840   6.157  11.008  2.0608  2.0736  0.0929
  224MOL0     H30197   2.872   6.036  11.138  1.3650  0.2693 -0.0237
  224MOL0     H30198   2.977   6.221  11.269  2.0278  0.3082 -0.5598
  224MOL0     H30199   2.948   6.330  11.126  1.5198  0.9361  1.0090
  224MOL0     H30200   3.257   6.043  11.027 -1.3153 -0.7116  2.3586
  224MOL0     H30201   3.497   6.085  11.056  0.6196 -0.0599  2.4419
  224MOL0     H30202   3.829   6.498  11.121  0.7137  0.2398  0.0685
  224MOL0     H30203   4.057   6.544  11.094  0.1492 -0.6244  1.7284
  224MOL0     H30204   4.234   6.580  11.013 -2.7789 -1.8513 -4.0579
  224MOL0     H30205   4.292   6.469  11.132 -3.5706 -0.6253 -1.0231
  224MOL0     H30206   4.499   6.537  11.060 -0.3965 -0.3622  0.7455
  224MOL0     H30207   4.474   6.406  10.943 -2.1404 -0.7506 -0.5015
  224MOL0     H30208   4.546   6.582  10.813 -0.2464  2.3574 -2.1659
  224MOL0     H30209   4.376   6.568  10.783  1.1082 -5.4870  1.0793
  224MOL0     H30210   4.470   6.745  11.012  2.9857 -2.2127 -1.1384
  224MOL0     H30211   4.335   6.777  10.903  0.1243 -0.0988  2.6920
  224MOL0     H30212   4.624   6.815  10.799 -0.3739 -0.9448  0.5966
  224MOL0     H30213   4.527   6.942  10.857  1.5868 -1.2835  1.1609
  224MOL0     H30214   4.483   6.747  10.642  1.0265  0.0883 -0.1214
  224MOL0     H30215   4.349   6.865  10.680  0.2979  2.5337 -1.7821
  224MOL0     H30216   4.649   6.941  10.577 -0.1562 -0.5983 -0.7104
  224MOL0     H30217   4.512   7.048  10.622  1.8501  0.0250  2.4107
  224MOL0     H30218   4.559   6.992  10.378 -2.3801  2.2322 -0.0216
  224MOL0     H30219   4.485   6.833  10.419  0.2630 -0.1953 -0.5603
  224MOL0     H30220   4.103   6.145  10.923  1.0265 -1.0543  2.2261
  224MOL0     H30221   3.862   6.103  10.976 -1.6776  0.6009  3.3891
  224MOL0     H30222   3.388   6.472  11.225 -0.4580  0.3519  0.3143
  224MOL0     H30223   3.155   6.415  11.210 -0.3245 -1.5655  1.7912
  224MOL0     H30224   1.443   6.210  10.761 -1.8236  1.7173  0.0502
  224MOL0     H30225   1.265   6.351  10.731  0.6097  0.7573  0.3099
  224MOL0     H30226   0.878   6.469  10.748 -0.8050  0.3489 -2.3130
  224MOL0     H30227   0.687   6.589  10.682 -0.9238  0.8720 -0.3323
  224MOL0     H30228   0.482   6.706  10.677 -0.8642 -0.9890  2.1746
  224MOL0     H30229   0.625   6.797  10.607  2.5687 -1.2792  3.5064
  224MOL0     H30230   0.414   6.929  10.550 -2.1360  0.3974  0.8744
  224MOL0     H30231   0.497   7.018  10.678  0.4193  0.8097 -2.7582
  224MOL0     H30232   0.348   6.867  10.844 -1.3242  3.6693  3.1327
  224MOL0     H30233   0.264   6.826  10.696  0.5590 -1.0560  0.6855
  224MOL0     H30234   0.155   6.991  10.818  0.3218 -0.1668 -0.5816
  224MOL0     H30235   0.297   7.113  10.807 -0.3973  1.2543 -1.6472
  224MOL0     H30236   0.131   7.128  10.418 -1.0721  0.7329  0.3490
  224MOL0     H30237   0.738   6.858  11.007 -1.4146  0.2598 -1.1547
  224MOL0     H30238   0.874   6.717  11.227 -0.2525  2.0837 -0.2210
  224MOL0     H30239   1.034   6.690  11.158 -0.6113 -3.5574 -0.4784
  224MOL0     H30240   0.939   6.846  11.131 -2.0938 -0.5352 -0.8115
  225MOL0     O30241   4.241   9.180  10.148  0.0785  0.6654 -0.2338
  225MOL0     C30242   4.182   9.223  10.048  0.3992  0.7851 -0.2079
  225MOL0     O30243   4.160   9.364  10.014  0.1805 -0.5393  0.2878
  225MOL0     C30244   4.173   9.464  10.109  0.4143  0.9767  0.2818
  225MOL0     C30245   4.183   9.588  10.043 -0.2604  0.2303  0.2955
  225MOL0     C30246   4.216   9.693  10.126 -0.4979  0.2301 -0.3440
  225MOL0     C30247   4.208   9.686  10.266 -0.3920  0.5937  0.5948
  225MOL0     O30248   4.236   9.795  10.344  0.1807 -0.0547  0.4618
  225MOL0     C30249   4.158   9.912  10.332 -0.2503 -1.0449 -0.1904
  225MOL0     C30250   4.205  10.020  10.435 -0.8792 -0.2343  0.3936
  225MOL0     C30251   4.217   9.966  10.581 -1.0873 -0.5509 -0.1501
  225MOL0     C30252   4.248  10.068  10.690  0.1418 -0.3707 -0.6590
  225MOL0     C30253   4.277   9.995  10.828  0.1335  0.2683  0.5886
  225MOL0     C30254   4.411   9.919  10.814 -0.0028 -0.2405 -0.2722
  225MOL0     C30255   4.482   9.877  10.941  0.0559 -0.1342 -0.3902
  225MOL0     C30256   4.573   9.749  10.922  0.5407  0.6754 -0.2438
  225MOL0     N30257   4.695   9.785  10.853 -0.1163  0.8784  0.2866
  225MOL0     C30258   4.711   9.781  10.722  0.6876  0.8508 -0.5441
  225MOL0     C30259   4.839   9.808  10.692 -0.6640 -0.3199 -0.1198
  225MOL0     C30260   4.917   9.821  10.564 -0.4001  0.0309 -0.0685
  225MOL0     C30261   5.063   9.801  10.587  0.2919 -0.1143  0.1690
  225MOL0     C30262   5.123   9.802  10.447 -0.2769  0.3763  0.4138
  225MOL0     C30263   5.269   9.813  10.449 -0.1276 -0.7702  0.0820
  225MOL0     O30264   5.324   9.760  10.326  0.5368  1.0038  0.2976
  225MOL0     C30265   5.336   9.626  10.299  0.8549  0.0331  0.3544
  225MOL0     C30266   5.304   9.583  10.167 -0.6560  1.0575  0.0611
  225MOL0     C30267   5.322   9.447  10.136 -0.4882 -0.3280  0.0444
  225MOL0     C30268   5.352   9.352  10.239  0.0753 -0.6000 -0.8606
  225MOL0     C30269   5.384   9.203  10.205  0.7509 -1.1302  0.2119
  225MOL0     O30270   5.440   9.130  10.299  0.2779  0.2222 -0.3149
  225MOL0     C30271   5.538   9.039  10.269 -0.0097 -0.4889  0.6825
  225MOL0     C30272   5.671   9.084  10.256  0.6261 -0.1158 -0.1612
  225MOL0     C30273   5.774   8.997  10.218 -0.1316  0.0012 -0.4948
  225MOL0     C30274   5.752   8.858  10.216 -0.2211  0.1511 -0.6758
  225MOL0     O30275   5.852   8.773  10.198 -0.6107  0.3076 -0.4536
  225MOL0     C30276   5.885   8.707  10.321 -0.1502  0.9235 -0.5593
  225MOL0     C30277   5.960   8.800  10.415  0.3726 -0.7358  0.1752
  225MOL0     C30278   6.084   8.875  10.350  0.8241  1.2856 -0.3997
  225MOL0     C30279   6.131   8.984  10.445  0.6021  0.4728 -0.0779
  225MOL0     C30280   6.231   9.074  10.370 -0.9756  0.3293 -0.7231
  225MOL0     C30281   6.353   9.008  10.308 -0.0285 -0.7358  0.0146
  225MOL0     C30282   6.455   9.118  10.263  0.1133 -0.0637 -0.5326
  225MOL0     C30283   6.564   9.076  10.164 -0.2872  0.4237 -0.0607
  225MOL0    Cl30284   6.662   8.940  10.241 -0.2238  0.2284 -0.3471
  225MOL0     C30285   5.622   8.819  10.247 -1.0486  0.3411  0.7009
  225MOL0     C30286   5.522   8.900  10.262  0.3559 -0.0473  0.7835
  225MOL0     O30287   5.361   9.169  10.088  0.2443  0.3640  0.0020
  225MOL0     C30288   5.374   9.396  10.370  0.1554 -0.4941  1.1027
  225MOL0     C30289   5.367   9.530  10.398  0.6120  1.0211 -0.8764
  225MOL0     N30290   4.891   9.825  10.818 -0.4860  0.6046 -0.2652
  225MOL0     N30291   4.805   9.801  10.911 -0.6023  0.2148  0.0557
  225MOL0     C30292   4.171   9.561  10.323  0.3356  0.0820 -0.5073
  225MOL0     C30293   4.160   9.447  10.245 -0.1760 -0.4716 -0.1710
  225MOL0     C30294   4.133   9.127   9.954  0.1132 -0.1084 -0.0026
  225MOL0     C30295   4.142   9.163   9.817 -0.6860 -0.0593  0.3373
  225MOL0     C30296   4.118   9.076   9.716  0.0598 -0.5641 -0.7774
  225MOL0     C30297   4.077   8.949   9.746  0.4121 -0.2776  0.7879
  225MOL0     O30298   4.048   8.886   9.633 -0.6500  0.0362 -0.6330
  225MOL0     C30299   3.970   8.766   9.646  0.1625  0.0833 -0.5241
  225MOL0     C30300   3.828   8.798   9.703 -0.6008  1.2258  0.0357
  225MOL0     C30301   3.734   8.691   9.640 -0.0110  0.0796 -0.8112
  225MOL0     C30302   3.604   8.688   9.709  0.5203  0.3499  0.3149
  225MOL0     C30303   3.512   8.594   9.644  0.4775  0.8818  0.1325
  225MOL0     C30304   3.424   8.526   9.587 -0.2413  0.0382 -0.7542
  225MOL0     C30305   4.082   8.898   9.884  0.1156  0.1284  0.4204
  225MOL0     C30306   4.104   8.990   9.982  0.5556 -0.5845 -0.3237
  225MOL0     C30307   4.084   8.937  10.127 -0.4105 -0.6749 -0.4463
  225MOL0     H30308   4.193   9.601   9.936  2.9461  2.4721  0.6971
  225MOL0     H30309   4.251   9.786  10.080  0.6909 -1.3276 -2.8303
  225MOL0     H30310   4.177   9.950  10.231 -0.3808 -1.3570 -0.3349
  225MOL0     H30311   4.050   9.897  10.341 -0.1700 -1.6988 -0.2445
  225MOL0     H30312   4.129  10.098  10.435 -0.1164  0.6191 -2.4724
  225MOL0     H30313   4.300  10.068  10.411 -1.2075  0.7368  0.9586
  225MOL0     H30314   4.305   9.902  10.568  1.4020  2.4723  0.6366
  225MOL0     H30315   4.127   9.910  10.607 -0.8525  0.2968  2.7363
  225MOL0     H30316   4.331  10.128  10.650  1.3086 -1.9244 -0.6386
  225MOL0     H30317   4.160  10.133  10.703  0.9061  0.8152 -1.2318
  225MOL0     H30318   4.273  10.075  10.903 -2.6621  3.8939 -2.9649
  225MOL0     H30319   4.190   9.932  10.846  0.4895 -0.4955 -0.3079
  225MOL0     H30320   4.395   9.828  10.756 -0.6079  1.1371 -2.3418
  225MOL0     H30321   4.485   9.979  10.761  1.4045 -0.8483  0.9042
  225MOL0     H30322   4.406   9.846  11.013 -1.5941  0.4472 -1.8079
  225MOL0     H30323   4.538   9.964  10.979  1.5694 -0.7715 -1.0554
  225MOL0     H30324   4.604   9.715  11.021  1.2576 -0.4924 -0.8320
  225MOL0     H30325   4.516   9.667  10.877 -1.2700  1.5857  0.2744
  225MOL0     H30326   4.632   9.764  10.650  0.4236  2.8212 -0.7576
  225MOL0     H30327   4.882   9.750  10.489  3.2628 -2.3375  0.2253
  225MOL0     H30328   4.910   9.924  10.529  2.7156  0.1591 -0.5852
  225MOL0     H30329   5.107   9.885  10.642 -0.9137  0.8289 -0.2613
  225MOL0     H30330   5.089   9.707  10.638 -1.0627 -0.0685  1.0013
  225MOL0     H30331   5.084   9.891  10.397  1.1878  0.3832 -0.7911
  225MOL0     H30332   5.087   9.712  10.396 -1.1471  1.0226 -0.1519
  225MOL0     H30333   5.303   9.763  10.540  2.3567 -0.4257 -0.5771
  225MOL0     H30334   5.301   9.918  10.459  0.9844 -1.2516  1.8814
  225MOL0     H30335   5.283   9.646  10.081  1.4144  2.5548  0.5554
  225MOL0     H30336   5.315   9.411  10.034 -2.7258 -1.8620  0.6768
  225MOL0     H30337   5.692   9.189  10.274  2.7635 -0.6091  0.5114
  225MOL0     H30338   5.863   9.050  10.187  0.0220  2.1545  3.0323
  225MOL0     H30339   5.804   8.670  10.384  2.3196 -0.1467  2.2234
  225MOL0     H30340   5.940   8.614  10.305  0.1258  1.1472 -0.9307
  225MOL0     H30341   5.885   8.875  10.443  1.8071  0.4952  0.8777
  225MOL0     H30342   5.990   8.746  10.506  1.0563  0.6867  0.8244
  225MOL0     H30343   6.155   8.793  10.337  0.4473  0.8444  0.2325
  225MOL0     H30344   6.047   8.915  10.255 -1.2768 -1.7860 -1.0502
  225MOL0     H30345   6.172   8.942  10.538 -1.0643  2.6733  1.7711
  225MOL0     H30346   6.042   9.043  10.466  0.0756  0.4053 -1.9921
  225MOL0     H30347   6.276   9.146  10.438  1.0405 -0.7365 -0.8463
  225MOL0     H30348   6.168   9.132  10.302 -1.0126  0.6865 -0.3888
  225MOL0     H30349   6.397   8.930  10.371 -3.7168 -2.8282  0.2949
  225MOL0     H30350   6.326   8.965  10.211  0.1554  3.1438 -1.9341
  225MOL0     H30351   6.502   9.169  10.348 -1.5699  3.2298 -1.4363
  225MOL0     H30352   6.403   9.191  10.201 -2.2521 -1.9589 -0.9194
  225MOL0     H30353   6.532   9.031  10.070 -0.7612 -1.1004  0.7978
  225MOL0     H30354   6.639   9.150  10.134 -1.1903  0.6831 -1.7849
  225MOL0     H30355   5.599   8.715  10.265  1.4883  0.0320  2.8989
  225MOL0     H30356   5.426   8.858  10.291 -0.3206  0.4019 -0.7146
  225MOL0     H30357   5.406   9.320  10.441  2.1302  0.9623  1.8940
  225MOL0     H30358   5.397   9.557  10.499 -3.3934 -0.3913  0.8950
  225MOL0     H30359   4.172   9.554  10.431  2.0771 -0.6246 -0.5327
  225MOL0     H30360   4.135   9.354  10.296 -1.5273  0.0171  0.0938
  225MOL0     H30361   4.171   9.267   9.801 -0.7971 -0.1723 -0.6413
  225MOL0     H30362   4.114   9.106   9.612 -2.6701  1.1208 -0.3039
  225MOL0     H30363   4.016   8.690   9.710 -1.4715  0.4983  1.2431
  225MOL0     H30364   3.957   8.721   9.547  1.7147  1.9919 -1.6743
  225MOL0     H30365   3.805   8.897   9.664  1.3577  1.1856 -1.4420
  225MOL0     H30366   3.823   8.796   9.812 -2.3782  2.7712  0.0127
  225MOL0     H30367   3.777   8.591   9.648 -1.9908 -0.9087 -1.6399
  225MOL0     H30368   3.718   8.706   9.533 -3.6901 -1.0432 -0.5866
  225MOL0     H30369   3.622   8.665   9.815  0.3006 -1.4696 -0.0163
  225MOL0     H30370   3.559   8.788   9.707  1.2847  0.7119  0.5251
  225MOL0     H30371   3.354   8.473   9.526 -2.8010  0.1535  1.8962
  225MOL0     H30372   4.068   8.793   9.910  4.2587 -1.0172 -1.1552
  225MOL0     H30373   4.180   8.926  10.180 -2.1542 -1.2489  2.8497
  225MOL0     H30374   4.021   8.993  10.197 -0.1045  1.3457 -1.7166
  225MOL0     H30375   4.045   8.835  10.125 -0.8470 -0.5091 -2.4675
  226MOL0     O30376   3.377   5.084   7.924  0.3012  0.2253  0.3905
  226MOL0     C30377   3.370   5.039   7.804  0.2241 -0.5182 -1.9090
  226MOL0     O30378   3.463   4.959   7.745 -0.3610  0.1451 -0.3163
  226MOL0     C30379   3.584   4.946   7.815 -0.2741  0.5174 -0.1985
  226MOL0     C30380   3.689   5.038   7.801 -0.6799 -0.9585  0.0289
  226MOL0     C30381   3.814   5.018   7.866  0.0048 -0.6540  0.4845
  226MOL0     C30382   3.825   4.901   7.941 -0.1808 -0.5797  0.5433
  226MOL0     O30383   3.942   4.873   7.995 -0.6280 -0.5178 -0.4096
  226MOL0     C30384   4.066   4.917   7.931  0.3220 -0.3928 -0.1483
  226MOL0     C30385   4.174   4.848   7.995 -0.0481 -0.2583 -0.8185
  226MOL0     C30386   4.312   4.893   7.943 -0.1453  0.6532 -0.3481
  226MOL0     C30387   4.352   5.016   8.016 -0.6539  0.5159 -0.3480
  226MOL0     C30388   4.492   5.076   7.984  0.6766  0.1792  0.2811
  226MOL0     C30389   4.593   4.968   8.005 -0.3389  0.5014  0.5754
  226MOL0     C30390   4.729   5.016   8.005 -0.1451  0.7079  0.4103
  226MOL0     C30391   4.828   4.912   8.049 -0.3377  0.3186  0.3751
  226MOL0     N30392   4.966   4.952   8.038  0.1593  0.3898  0.5386
  226MOL0     C30393   5.021   4.991   7.917 -0.2717 -0.2841 -0.6543
  226MOL0     C30394   5.147   5.020   7.944  0.1946 -0.6091 -0.4133
  226MOL0     C30395   5.232   5.087   7.840  0.3857  0.7522  0.4360
  226MOL0     C30396   5.213   5.236   7.828  0.9237  0.3091 -0.0939
  226MOL0     C30397   5.297   5.288   7.706 -0.9272 -0.9457 -0.5451
  226MOL0     C30398   5.447   5.243   7.710 -0.4310 -0.0665  0.4844
  226MOL0     O30399   5.504   5.301   7.830 -0.4891  0.3200  0.2663
  226MOL0     C30400   5.623   5.362   7.806  0.6277  1.2301  0.1612
  226MOL0     C30401   5.737   5.300   7.752  0.4639 -0.1481  0.0099
  226MOL0     C30402   5.864   5.355   7.755  0.7730  0.1935 -0.0097
  226MOL0     C30403   5.881   5.487   7.789  0.0230  0.4735  1.2466
  226MOL0     C30404   6.010   5.559   7.769 -0.2167  0.1673  0.3635
  226MOL0     O30405   6.111   5.479   7.719 -0.4574 -0.1773 -0.4622
  226MOL0     C30406   6.238   5.529   7.723 -1.0371  0.1202 -0.3851
  226MOL0     C30407   6.293   5.576   7.843  0.4626 -0.0703 -0.6972
  226MOL0     C30408   6.425   5.626   7.853 -0.5085 -0.8661 -0.2097
  226MOL0     C30409   6.511   5.626   7.751  0.4416  1.1812 -0.0583
  226MOL0     O30410   6.647   5.646   7.755  0.1515  0.2610 -0.7127
  226MOL0     C30411   6.717   5.647   7.880 -0.2385  0.6640 -0.3275
  226MOL0     C30412   6.846   5.576   7.847  0.1905  0.1771  0.3584
  226MOL0     C30413   6.935   5.570   7.971  0.3391 -0.2233  1.1432
  226MOL0     C30414   7.076   5.528   7.923 -0.7629  0.0126 -0.0360
  226MOL0     C30415   7.176   5.505   8.038  0.2076  0.3962  0.6077
  226MOL0     C30416   7.316   5.451   7.991 -0.4577  0.1821  0.9252
  226MOL0     C30417   7.414   5.455   8.105  0.4535 -0.7426 -0.0464
  226MOL0     C30418   7.521   5.351   8.107 -0.7957 -0.9277  0.8363
  226MOL0    Cl30419   7.611   5.357   7.956  0.1067 -0.3526 -0.4265
  226MOL0     C30420   6.456   5.571   7.632 -0.0497  0.1445  0.4806
  226MOL0     C30421   6.326   5.517   7.617 -0.1424 -0.5600  0.0544
  226MOL0     O30422   6.014   5.679   7.784  0.1304 -0.8279  0.4635
  226MOL0     C30423   5.766   5.558   7.827 -1.3803 -0.3980 -0.9570
  226MOL0     C30424   5.646   5.499   7.840  0.7737  0.2223 -0.1095
  226MOL0     N30425   5.172   4.986   8.073  0.0058  0.4911 -0.4318
  226MOL0     N30426   5.063   4.947   8.130 -0.0811 -0.4128  0.3277
  226MOL0     C30427   3.719   4.804   7.957 -0.0161 -0.1641 -0.0522
  226MOL0     C30428   3.602   4.826   7.882 -0.1814  1.0743  0.7505
  226MOL0     C30429   3.241   5.049   7.727  0.1045 -0.2516  0.3614
  226MOL0     C30430   3.228   4.972   7.616  0.1215 -0.7140 -0.2404
  226MOL0     C30431   3.113   4.972   7.540  0.3615 -0.1309  0.2108
  226MOL0     C30432   3.001   5.047   7.565  0.2496  0.2041 -0.3764
  226MOL0     O30433   2.887   5.046   7.496  0.9572 -0.3841 -0.1659
  226MOL0     C30434   2.864   4.959   7.385 -0.3504  0.0832 -0.3031
  226MOL0     C30435   2.718   4.972   7.333  0.4605 -0.2532 -0.1219
  226MOL0     C30436   2.621   4.885   7.413 -0.9221 -0.6016 -0.4285
  226MOL0     C30437   2.479   4.938   7.396 -0.7132  1.0045 -0.5372
  226MOL0     C30438   2.398   4.824   7.434  0.3644  0.6259  0.3345
  226MOL0     C30439   2.325   4.722   7.448 -0.1487  0.2571  0.4007
  226MOL0     C30440   3.014   5.129   7.680  0.1311 -0.0385 -0.3688
  226MOL0     C30441   3.135   5.129   7.758  0.8938 -0.3498  0.3498
  226MOL0     C30442   3.120   5.219   7.876 -0.0987 -0.6269  0.0343
  226MOL0     H30443   3.670   5.122   7.735  3.5868 -0.7012 -1.1798
  226MOL0     H30444   3.895   5.090   7.858  0.7309 -1.5284 -0.3124
  226MOL0     H30445   4.072   4.899   7.823  2.1953 -2.0905  0.1635
  226MOL0     H30446   4.088   5.024   7.945  1.8485 -0.5246 -1.3088
  226MOL0     H30447   4.155   4.743   7.973 -4.0160  0.1859 -0.2465
  226MOL0     H30448   4.165   4.865   8.103  0.6140 -0.3817 -0.7417
  226MOL0     H30449   4.315   4.904   7.834 -1.1125 -2.1744 -0.7501
  226MOL0     H30450   4.379   4.810   7.970 -0.7342 -0.5004 -2.1848
  226MOL0     H30451   4.280   5.095   7.994 -1.5310 -0.4998 -1.2329
  226MOL0     H30452   4.349   4.992   8.123  2.1059  0.7827 -0.1381
  226MOL0     H30453   4.508   5.116   7.883 -3.6760  0.6196 -0.4383
  226MOL0     H30454   4.515   5.159   8.051  0.6097  1.0655 -0.7677
  226MOL0     H30455   4.568   4.928   8.104  3.4605  1.8978  2.2877
  226MOL0     H30456   4.581   4.897   7.923 -0.9725  2.8886 -1.5144
  226MOL0     H30457   4.737   5.103   8.071  0.5700  0.9219  0.0472
  226MOL0     H30458   4.744   5.049   7.902 -1.2184  0.6358  0.2141
  226MOL0     H30459   4.802   4.885   8.152 -1.1559 -0.2768  0.0191
  226MOL0     H30460   4.828   4.823   7.986  2.2674  1.0257 -0.7874
  226MOL0     H30461   4.975   5.012   7.821 -1.1993  2.1297  0.2335
  226MOL0     H30462   5.333   5.051   7.859  0.2081 -2.3670 -3.3547
  226MOL0     H30463   5.202   5.047   7.743  1.7878  0.8963 -0.0812
  226MOL0     H30464   5.110   5.271   7.822  0.5852 -0.8012 -1.3995
  226MOL0     H30465   5.254   5.290   7.914 -1.3394 -0.7915  1.7876
  226MOL0     H30466   5.307   5.395   7.686 -3.6437 -0.6804 -0.9012
  226MOL0     H30467   5.254   5.238   7.619 -0.8072 -3.3660  0.6923
  226MOL0     H30468   5.485   5.285   7.616 -0.5198 -1.1407 -0.0469
  226MOL0     H30469   5.467   5.136   7.706 -0.0580 -0.2397  3.9679
  226MOL0     H30470   5.718   5.199   7.716 -1.2273 -0.4294  1.5378
  226MOL0     H30471   5.951   5.300   7.719  0.6537 -0.0958  0.1411
  226MOL0     H30472   6.250   5.592   7.942  1.2915  0.0314 -0.3467
  226MOL0     H30473   6.477   5.670   7.937 -0.3030 -2.8668  0.7648
  226MOL0     H30474   6.736   5.750   7.913  1.3888  1.1141 -2.4433
  226MOL0     H30475   6.666   5.594   7.961  2.1944 -3.6137 -1.3360
  226MOL0     H30476   6.829   5.474   7.811 -1.8633  0.7349 -0.4324
  226MOL0     H30477   6.902   5.624   7.766  0.9592  1.8724  1.8231
  226MOL0     H30478   6.937   5.671   8.012  1.7661 -0.1455  0.9168
  226MOL0     H30479   6.896   5.498   8.044 -0.4855 -0.4304  0.5118
  226MOL0     H30480   7.124   5.607   7.865  1.1787 -1.2485 -0.2623
  226MOL0     H30481   7.068   5.437   7.863  0.9649 -0.3817  0.2749
  226MOL0     H30482   7.134   5.430   8.105 -2.1959  0.3986 -0.7991
  226MOL0     H30483   7.193   5.595   8.097 -0.0660  1.1785 -0.4798
  226MOL0     H30484   7.313   5.349   7.951  4.0193  0.6397 -1.2061
  226MOL0     H30485   7.360   5.501   7.904  0.3281  0.4222  1.4535
  226MOL0     H30486   7.353   5.434   8.193  0.0653  1.8902  0.3941
  226MOL0     H30487   7.463   5.551   8.121  1.2616 -1.1164 -0.1941
  226MOL0     H30488   7.593   5.360   8.188  2.0385  1.4067 -1.6989
  226MOL0     H30489   7.476   5.251   8.110 -0.0904 -1.3200 -0.6628
  226MOL0     H30490   6.541   5.564   7.565  2.6886  0.0436  3.7420
  226MOL0     H30491   6.293   5.472   7.524  2.7466 -2.0928 -0.3636
  226MOL0     H30492   5.764   5.662   7.860  1.8999  0.3364 -2.6275
  226MOL0     H30493   5.552   5.543   7.872  1.6448  3.6531 -1.8039
  226MOL0     H30494   3.724   4.704   7.999 -0.1405 -0.0473  0.2438
  226MOL0     H30495   3.526   4.748   7.882  1.3396 -0.4623 -0.1279
  226MOL0     H30496   3.314   4.917   7.579 -0.2829 -1.7894  0.3736
  226MOL0     H30497   3.109   4.916   7.447  1.6638  1.2166 -0.7138
  226MOL0     H30498   2.876   4.853   7.405  0.2007 -0.1868 -1.8897
  226MOL0     H30499   2.940   4.992   7.313  2.9239 -3.1991  1.3663
  226MOL0     H30500   2.707   4.933   7.232  1.4622  0.4180 -0.4957
  226MOL0     H30501   2.687   5.076   7.320 -0.0419 -0.6078 -2.1411
  226MOL0     H30502   2.646   4.893   7.519  0.6509  0.4188 -0.8391
  226MOL0     H30503   2.631   4.786   7.366  1.1242 -1.0354  0.7791
  226MOL0     H30504   2.469   5.030   7.453 -1.5795  1.2787 -1.1150
  226MOL0     H30505   2.456   4.977   7.296  1.5164 -1.0563 -1.9783
  226MOL0     H30506   2.274   4.629   7.457  2.5374 -1.2351  1.3179
  226MOL0     H30507   2.930   5.193   7.701  0.7595  1.6201 -2.5547
  226MOL0     H30508   3.203   5.289   7.882  0.9873 -1.9029  0.2409
  226MOL0     H30509   3.023   5.271   7.881 -0.5033 -1.0866 -2.0814
  226MOL0     H30510   3.122   5.158   7.967 -0.8247 -2.3511 -1.0595
  227MOL0     O30511   0.254   8.776   7.703  0.7782  0.5662  1.0508
  227MOL0     C30512   0.191   8.773   7.600  0.1727 -0.5536  1.0381
  227MOL0     O30513   0.241   8.760   7.474  0.0805 -0.7406  0.5218
  227MOL0     C30514   0.367   8.716   7.451  0.1322 -0.2121  0.6195
  227MOL0     C30515   0.406   8.727   7.315  0.2149 -1.0659  0.4900
  227MOL0     C30516   0.527   8.682   7.267  0.7826 -0.3386 -0.5039
  227MOL0     C30517   0.619   8.632   7.363  0.0942  0.3410 -0.0914
  227MOL0     O30518   0.743   8.605   7.326 -0.7725 -0.3775  0.5181
  227MOL0     C30519   0.831   8.713   7.334 -0.0173  1.3010  0.1717
  227MOL0     C30520   0.969   8.660   7.348 -0.6014  0.3449 -0.2669
  227MOL0     C30521   1.090   8.751   7.313 -0.1921  0.8523  0.2136
  227MOL0     C30522   1.097   8.884   7.402 -0.2010  0.0955  0.3942
  227MOL0     C30523   1.230   8.969   7.382  0.0157  0.1102  0.1885
  227MOL0     C30524   1.198   9.101   7.459  0.2890 -0.3357 -0.2588
  227MOL0     C30525   1.322   9.184   7.506 -1.5444 -0.5065  0.5504
  227MOL0     C30526   1.292   9.339   7.498 -0.5073  0.5318 -0.6591
  227MOL0     N30527   1.334   9.400   7.368  0.4506  0.5003 -0.0403
  227MOL0     C30528   1.310   9.357   7.235 -0.9675 -0.2480  0.1731
  227MOL0     C30529   1.334   9.470   7.162  0.2573 -0.7823  0.8366
  227MOL0     C30530   1.305   9.481   7.010 -0.0385  0.9722 -0.3703
  227MOL0     C30531   1.439   9.487   6.942 -0.1350 -0.2088 -0.6171
  227MOL0     C30532   1.424   9.491   6.784 -0.8389  0.2797  0.2725
  227MOL0     C30533   1.559   9.504   6.704  0.3681 -0.5412  0.5645
  227MOL0     O30534   1.626   9.628   6.728 -0.1631 -1.0895  0.1082
  227MOL0     C30535   1.750   9.643   6.670 -0.2953 -0.2831  0.1566
  227MOL0     C30536   1.844   9.733   6.725  0.3269  0.1479 -0.2835
  227MOL0     C30537   1.967   9.754   6.665 -1.1425 -0.1948  0.1191
  227MOL0     C30538   2.005   9.681   6.548  0.0650 -0.0153 -1.0039
  227MOL0     C30539   2.143   9.691   6.504  0.1855  0.1661  0.6337
  227MOL0     O30540   2.219   9.805   6.543  0.2318  0.2958 -0.3944
  227MOL0     C30541   2.333   9.836   6.468 -0.2357 -0.2580  0.0991
  227MOL0     C30542   2.443   9.756   6.454 -0.1373 -0.0240  0.2414
  227MOL0     C30543   2.546   9.800   6.371  0.8387  0.0847  0.5149
  227MOL0     C30544   2.556   9.926   6.306  0.1918  0.1872  0.1740
  227MOL0     O30545   2.651   9.975   6.223 -0.6157  0.5635 -0.2295
  227MOL0     C30546   2.743   9.885   6.163  0.2365 -0.4117 -0.0633
  227MOL0     C30547   2.818   9.968   6.068  0.1321  0.5250 -0.6470
  227MOL0     C30548   2.923   9.879   5.989 -0.0035  0.1007 -0.5379
  227MOL0     C30549   2.985   9.962   5.871 -0.1650 -0.2687  0.2440
  227MOL0     C30550   3.064   9.882   5.761  0.6315 -1.0686  0.3523
  227MOL0     C30551   3.181   9.811   5.832 -0.1722 -0.5257  0.1017
  227MOL0     C30552   3.298   9.784   5.740 -0.5516 -0.4552  0.0479
  227MOL0     C30553   3.424   9.724   5.805 -0.7384 -0.0882  0.1621
  227MOL0    Cl30554   3.391   9.568   5.882 -0.1469  0.0996 -0.0594
  227MOL0     C30555   2.448  10.006   6.333  0.1810  0.3199 -0.7390
  227MOL0     C30556   2.341   9.967   6.417  0.7317  0.3418 -0.4565
  227MOL0     O30557   2.173   9.615   6.412  0.2452 -0.3060  0.0374
  227MOL0     C30558   1.910   9.593   6.493 -0.5318 -0.1205 -0.6107
  227MOL0     C30559   1.788   9.575   6.556 -0.2336  0.7299 -0.2794
  227MOL0     N30560   1.374   9.568   7.240  0.6426 -0.0108  0.2180
  227MOL0     N30561   1.382   9.523   7.355 -0.3230 -0.1468  0.4571
  227MOL0     C30562   0.592   8.626   7.499 -0.3782 -0.5363 -0.1409
  227MOL0     C30563   0.467   8.666   7.546 -0.0717 -0.8885  1.4100
  227MOL0     C30564   0.038   8.762   7.609 -0.6254 -0.6312 -0.3527
  227MOL0     C30565  -0.031   8.719   7.500 -1.9034  0.6103  0.5533
  227MOL0     C30566  -0.173   8.718   7.485 -0.1744 -1.4880  0.1327
  227MOL0     C30567  -0.246   8.772   7.592 -0.1119  0.3644 -0.0808
  227MOL0     O30568  -0.380   8.759   7.592  0.3498 -0.6006 -0.2569
  227MOL0     C30569  -0.449   8.657   7.512 -1.0018 -0.2157  0.2947
  227MOL0     C30570  -0.439   8.513   7.572 -0.0591  0.9524 -0.0404
  227MOL0     C30571  -0.548   8.408   7.527  0.1195 -0.0772 -0.3107
  227MOL0     C30572  -0.668   8.405   7.628  0.1468  0.3074  0.5382
  227MOL0     C30573  -0.764   8.511   7.594  0.1791 -0.4710  0.7620
  227MOL0     C30574  -0.835   8.609   7.578  0.0460 -0.7087 -0.6475
  227MOL0     C30575  -0.176   8.813   7.707  0.3702  0.1555 -0.8910
  227MOL0     C30576  -0.036   8.812   7.721 -0.4649 -0.5395  0.2408
  227MOL0     C30577   0.026   8.859   7.857 -0.7217  0.2898 -1.0393
  227MOL0     H30578   0.336   8.770   7.245  1.1229  0.8839  0.7277
  227MOL0     H30579   0.536   8.684   7.158  0.5498 -0.1025 -0.5216
  227MOL0     H30580   0.830   8.759   7.235  0.9264  0.6481 -0.1496
  227MOL0     H30581   0.812   8.796   7.404  0.1316  1.0714  0.4856
  227MOL0     H30582   0.969   8.567   7.291  2.8251  1.2386 -1.9503
  227MOL0     H30583   0.978   8.638   7.455  0.1599 -3.0217 -0.9261
  227MOL0     H30584   1.085   8.774   7.206  0.3177 -2.1544 -0.5316
  227MOL0     H30585   1.180   8.695   7.338 -0.5514 -0.0025 -0.3812
  227MOL0     H30586   1.018   8.954   7.375  1.2719  0.5540 -3.3412
  227MOL0     H30587   1.088   8.852   7.506 -2.8975 -0.9098 -0.0595
  227MOL0     H30588   1.321   8.932   7.430  0.6430  0.7203 -0.5072
  227MOL0     H30589   1.251   8.995   7.278  0.6809 -1.7139 -0.1623
  227MOL0     H30590   1.124   9.158   7.402  0.2245  2.7140  2.5068
  227MOL0     H30591   1.149   9.080   7.555  1.1106  1.2204  0.5463
  227MOL0     H30592   1.412   9.172   7.445 -2.1657 -0.3174 -0.4237
  227MOL0     H30593   1.345   9.153   7.608 -1.5737  0.9651  1.0330
  227MOL0     H30594   1.185   9.349   7.517 -0.4108 -1.1542  1.0949
  227MOL0     H30595   1.343   9.386   7.582  1.4268  1.5308 -2.2915
  227MOL0     H30596   1.274   9.261   7.200 -1.0034 -0.7080  1.4235
  227MOL0     H30597   1.240   9.398   6.977 -2.0905  1.0170  3.0683
  227MOL0     H30598   1.243   9.571   7.008  1.9705  2.4361  0.6833
  227MOL0     H30599   1.495   9.572   6.981  0.0519 -0.8731  0.6190
  227MOL0     H30600   1.498   9.397   6.963 -2.4576 -1.8759 -0.7351
  227MOL0     H30601   1.357   9.572   6.754 -0.5264  0.0585 -1.0589
  227MOL0     H30602   1.377   9.397   6.754 -1.3660  0.8721 -0.8127
  227MOL0     H30603   1.532   9.500   6.598 -1.2480  4.0147  0.5692
  227MOL0     H30604   1.629   9.425   6.733 -0.7308 -1.5148  0.6153
  227MOL0     H30605   1.823   9.786   6.817 -0.9388  0.1199 -0.5413
  227MOL0     H30606   2.042   9.816   6.711 -1.0306  0.2475 -0.6473
  227MOL0     H30607   2.449   9.654   6.489  0.0992 -1.0500 -2.5845
  227MOL0     H30608   2.626   9.733   6.344  1.2233  1.1012 -0.9988
  227MOL0     H30609   2.813   9.853   6.241  3.6742  3.7692 -1.0555
  227MOL0     H30610   2.690   9.809   6.104  0.8923  1.0313 -2.6388
  227MOL0     H30611   2.759  10.028   5.999  0.0342  2.1323  0.7875
  227MOL0     H30612   2.873  10.048   6.118 -1.2969  1.2454 -0.1928
  227MOL0     H30613   2.998   9.847   6.062 -1.1386 -1.3726  0.0472
  227MOL0     H30614   2.876   9.784   5.962 -0.7911 -0.8602  3.4921
  227MOL0     H30615   3.053  10.041   5.904 -0.8748 -0.1618  1.5463
  227MOL0     H30616   2.910  10.024   5.820  0.3696  0.2147  0.0296
  227MOL0     H30617   3.100   9.955   5.688 -2.3115 -1.0346 -1.1986
  227MOL0     H30618   2.992   9.816   5.711  0.8564 -0.5526 -0.6941
  227MOL0     H30619   3.217   9.871   5.916  0.8653  0.7374 -1.1926
  227MOL0     H30620   3.141   9.718   5.873 -2.0468 -0.6008 -1.6934
  227MOL0     H30621   3.318   9.880   5.691 -2.6357 -0.5773 -1.1773
  227MOL0     H30622   3.256   9.713   5.669 -1.4019  0.0453  0.0404
  227MOL0     H30623   3.488   9.714   5.717 -1.1532  0.0863 -0.1658
  227MOL0     H30624   3.483   9.778   5.880 -0.7999 -2.1648  1.7948
  227MOL0     H30625   2.440  10.108   6.297 -0.5785  0.1462 -1.1056
  227MOL0     H30626   2.273  10.046   6.447  1.7770  0.1516  2.8965
  227MOL0     H30627   1.940   9.540   6.404  2.9027 -1.2014  1.0103
  227MOL0     H30628   1.729   9.494   6.514  2.1178 -0.4105 -1.5503
  227MOL0     H30629   0.668   8.609   7.574 -2.4990 -2.0245  1.8086
  227MOL0     H30630   0.446   8.675   7.652 -2.8982  2.4250  0.7612
  227MOL0     H30631   0.032   8.688   7.417 -0.7499  2.5879  0.6160
  227MOL0     H30632  -0.211   8.694   7.387  1.2019 -1.2912 -0.4714
  227MOL0     H30633  -0.412   8.661   7.409  1.5034  1.2137  1.1790
  227MOL0     H30634  -0.557   8.675   7.519 -0.6810  1.6099  1.1005
  227MOL0     H30635  -0.438   8.517   7.681 -2.1232 -0.1177  0.0519
  227MOL0     H30636  -0.347   8.468   7.532 -1.6845 -0.1134 -2.8905
  227MOL0     H30637  -0.511   8.305   7.528  0.8246  0.1510  1.2816
  227MOL0     H30638  -0.576   8.419   7.422 -2.6722 -4.0849 -0.2122
  227MOL0     H30639  -0.723   8.311   7.613 -0.0901  0.1722  2.0868
  227MOL0     H30640  -0.636   8.418   7.731 -3.1127  1.3690  1.5524
  227MOL0     H30641  -0.900   8.693   7.566  0.6319 -0.1067  0.3143
  227MOL0     H30642  -0.239   8.842   7.790 -0.9478  2.7966 -2.6363
  227MOL0     H30643   0.057   8.770   7.913  0.2736 -0.8303 -3.2686
  227MOL0     H30644   0.112   8.924   7.836 -0.3195  0.6486  1.3806
  227MOL0     H30645  -0.032   8.917   7.930  2.8106 -0.0038  2.4015
  228MOL0     O30646   3.073   4.078   1.542 -0.9348 -0.2279 -0.3804
  228MOL0     C30647   3.102   4.009   1.637 -0.5251  0.2677 -0.4656
  228MOL0     O30648   3.217   4.009   1.691  0.2783 -0.3795 -0.3295
  228MOL0     C30649   3.332   4.082   1.663  0.8311 -0.0089 -0.3951
  228MOL0     C30650   3.320   4.215   1.619  0.2107  0.3127  0.5878
  228MOL0     C30651   3.431   4.293   1.600  0.4524 -0.4534 -0.5661
  228MOL0     C30652   3.558   4.242   1.612  0.3723 -0.3255  0.5320
  228MOL0     O30653   3.661   4.328   1.588 -0.1517 -0.1985 -0.2844
  228MOL0     C30654   3.789   4.274   1.556 -0.8104 -0.8234 -0.6236
  228MOL0     C30655   3.856   4.390   1.480 -0.6182  0.1565 -0.2579
  228MOL0     C30656   4.005   4.376   1.473 -0.4665 -0.1847 -0.2856
  228MOL0     C30657   4.069   4.238   1.445 -0.7029 -0.5783  0.3412
  228MOL0     C30658   4.197   4.257   1.357  0.6251  1.1108 -0.4517
  228MOL0     C30659   4.246   4.114   1.311  0.6236 -0.1072 -0.3102
  228MOL0     C30660   4.315   4.040   1.433 -0.5990 -0.5614 -0.1503
  228MOL0     C30661   4.324   3.887   1.434 -0.0873 -0.2909 -0.2108
  228MOL0     N30662   4.190   3.826   1.451 -0.4728 -0.5621 -0.2387
  228MOL0     C30663   4.105   3.850   1.556 -0.8330 -0.1791  0.1894
  228MOL0     C30664   3.999   3.770   1.523  0.1067 -0.9260  0.2552
  228MOL0     C30665   3.866   3.782   1.603 -0.3211 -0.4738  1.4850
  228MOL0     C30666   3.759   3.674   1.567 -0.1720 -0.0261  0.5007
  228MOL0     C30667   3.631   3.712   1.636  0.7055  0.5123 -0.1390
  228MOL0     C30668   3.527   3.608   1.597 -0.9182 -0.1113 -0.3620
  228MOL0     O30669   3.420   3.636   1.689 -0.1050 -0.2262  0.6488
  228MOL0     C30670   3.305   3.577   1.655 -0.0967  0.5508  0.1021
  228MOL0     C30671   3.269   3.447   1.711 -0.5298 -0.2673 -0.4023
  228MOL0     C30672   3.148   3.388   1.681  0.4008  1.0702  0.6601
  228MOL0     C30673   3.059   3.456   1.591  0.7884 -0.0393 -0.1854
  228MOL0     C30674   2.931   3.396   1.558  0.1788 -0.0642 -0.3060
  228MOL0     O30675   2.861   3.437   1.444  0.2586  0.1426  0.7628
  228MOL0     C30676   2.756   3.356   1.398  0.5532 -0.6649 -0.0035
  228MOL0     C30677   2.766   3.214   1.387  0.4872 -0.2716 -0.1551
  228MOL0     C30678   2.643   3.146   1.348  0.3589 -0.0374  0.1528
  228MOL0     C30679   2.526   3.213   1.311 -0.8308  0.3703  0.2975
  228MOL0     O30680   2.425   3.126   1.266  0.1898 -0.5527 -0.7669
  228MOL0     C30681   2.312   3.195   1.214 -0.7738  0.5162  0.1568
  228MOL0     C30682   2.203   3.098   1.185 -0.3671 -0.4539 -0.3002
  228MOL0     C30683   2.253   2.986   1.088  0.7431  0.0601 -0.3366
  228MOL0     C30684   2.140   2.895   1.050  0.3534 -0.7626  0.7372
  228MOL0     C30685   2.019   2.971   0.978 -0.8145  0.3883 -0.1075
  228MOL0     C30686   1.941   2.870   0.898  0.1705 -0.2421 -0.2108
  228MOL0     C30687   1.805   2.913   0.858 -0.1102 -0.3348 -0.3712
  228MOL0     C30688   1.808   3.044   0.770 -0.8094 -0.4480 -0.9731
  228MOL0    Cl30689   1.645   3.090   0.693 -0.2233 -0.3739 -0.3428
  228MOL0     C30690   2.525   3.355   1.322  0.8696 -0.4522  0.0031
  228MOL0     C30691   2.637   3.423   1.372 -0.1732 -0.3083 -0.1442
  228MOL0     O30692   2.895   3.310   1.639 -0.4537 -0.1758  0.0125
  228MOL0     C30693   3.089   3.582   1.545 -0.2155 -0.4156  0.7326
  228MOL0     C30694   3.213   3.633   1.564 -0.1687  0.1880  0.3364
  228MOL0     N30695   4.027   3.705   1.405  0.1311  0.1588  0.3927
  228MOL0     N30696   4.138   3.745   1.357  0.1355 -0.1495 -0.6805
  228MOL0     C30697   3.568   4.107   1.656 -0.6611 -0.2563  1.3283
  228MOL0     C30698   3.461   4.028   1.687 -0.2597  1.1649  0.1701
  228MOL0     C30699   2.990   3.909   1.677 -0.2882  0.1330 -0.4133
  228MOL0     C30700   2.881   3.888   1.595  0.2921 -0.2480  0.7912
  228MOL0     C30701   2.792   3.792   1.619 -0.0269  0.2789 -0.3699
  228MOL0     C30702   2.803   3.709   1.731  0.6676  0.7822  0.0067
  228MOL0     O30703   2.715   3.606   1.732  0.1295  0.0155 -0.0929
  228MOL0     C30704   2.717   3.518   1.849 -0.1611 -0.1584  0.0781
  228MOL0     C30705   2.630   3.398   1.814 -0.1132  1.2746 -0.1450
  228MOL0     C30706   2.604   3.308   1.937 -0.1546 -0.3793  0.2027
  228MOL0     C30707   2.734   3.270   2.009  0.6559 -0.5584 -0.1245
  228MOL0     C30708   2.817   3.176   1.927 -1.2659 -0.6413 -0.4287
  228MOL0     C30709   2.895   3.110   1.862 -0.3017 -0.9816  0.6942
  228MOL0     C30710   2.914   3.718   1.811 -1.1562  0.1619 -0.4610
  228MOL0     C30711   3.004   3.823   1.794 -0.0757  0.3339  0.1127
  228MOL0     C30712   3.111   3.835   1.901  0.7255  0.5433 -0.4962
  228MOL0     H30713   3.223   4.249   1.582 -0.4832 -0.3497  1.7563
  228MOL0     H30714   3.419   4.394   1.560  1.6815  0.5053  1.3417
  228MOL0     H30715   3.852   4.264   1.645  0.1126  1.3332 -0.9735
  228MOL0     H30716   3.793   4.176   1.509  2.1931 -1.0655 -0.0527
  228MOL0     H30717   3.836   4.488   1.526  0.3646  0.8339 -1.2280
  228MOL0     H30718   3.811   4.396   1.380 -2.2610 -1.8005  0.2993
  228MOL0     H30719   4.060   4.417   1.558 -1.3063  3.4004 -1.2986
  228MOL0     H30720   4.044   4.439   1.393  1.9209 -2.2996 -0.9267
  228MOL0     H30721   4.091   4.190   1.541  0.6772  0.9063  0.8235
  228MOL0     H30722   4.002   4.175   1.386  0.8430 -2.6757  0.6982
  228MOL0     H30723   4.162   4.306   1.266  0.7112 -0.9734 -1.6541
  228MOL0     H30724   4.284   4.312   1.395  1.5090  0.5790 -1.6647
  228MOL0     H30725   4.165   4.047   1.283 -0.0600  0.3082  0.6144
  228MOL0     H30726   4.323   4.112   1.234 -0.9811  0.3821 -1.9853
  228MOL0     H30727   4.265   4.073   1.525  1.5865 -2.4258  1.8192
  228MOL0     H30728   4.419   4.073   1.441 -0.8287  0.0721  0.3580
  228MOL0     H30729   4.371   3.846   1.345 -1.4288 -4.2940  0.7107
  228MOL0     H30730   4.388   3.853   1.516  0.5083  0.5990 -0.2959
  228MOL0     H30731   4.120   3.908   1.646 -2.2300 -0.6918  0.7891
  228MOL0     H30732   3.897   3.769   1.707  2.6867 -1.7622  0.5550
  228MOL0     H30733   3.825   3.881   1.581  0.1894 -0.3836  0.9191
  228MOL0     H30734   3.743   3.667   1.459  1.1862  0.8037  0.2177
  228MOL0     H30735   3.790   3.573   1.595  0.0607  0.7661  3.3898
  228MOL0     H30736   3.596   3.812   1.608 -2.0044 -0.5216 -0.8397
  228MOL0     H30737   3.648   3.704   1.743  0.5466 -0.4930 -0.1715
  228MOL0     H30738   3.568   3.506   1.591 -1.4625 -0.2585 -2.3553
  228MOL0     H30739   3.500   3.633   1.494  0.5454 -0.3439 -0.8368
  228MOL0     H30740   3.334   3.385   1.771  3.9170 -0.5766 -4.8777
  228MOL0     H30741   3.125   3.286   1.711 -0.7334  1.2384  0.4198
  228MOL0     H30742   2.849   3.159   1.431 -0.3002 -0.5796  0.9971
  228MOL0     H30743   2.648   3.038   1.350  0.0058 -0.0599 -0.1194
  228MOL0     H30744   2.275   3.270   1.285  0.8580  1.3583  0.1787
  228MOL0     H30745   2.343   3.249   1.124  1.6104  0.0822  0.6475
  228MOL0     H30746   2.169   3.054   1.279 -1.3937  3.0127  1.1366
  228MOL0     H30747   2.111   3.145   1.149  0.3817  2.4698  1.3176
  228MOL0     H30748   2.279   3.038   0.996  0.9927  2.4076  0.9790
  228MOL0     H30749   2.340   2.928   1.123  0.4901 -0.3370 -0.3576
  228MOL0     H30750   2.104   2.855   1.145 -0.1500  1.4533  1.5324
  228MOL0     H30751   2.175   2.815   0.983 -0.0043  1.7884 -2.7493
  228MOL0     H30752   2.063   3.050   0.918  3.2298 -1.6577 -0.1798
  228MOL0     H30753   1.951   3.019   1.050 -0.7621 -1.2946  1.1311
  228MOL0     H30754   2.002   2.847   0.810 -1.0361  1.6351 -1.6080
  228MOL0     H30755   1.923   2.783   0.962 -0.3654  0.1077  0.1176
  228MOL0     H30756   1.740   2.932   0.943  0.2030  0.6556 -0.3424
  228MOL0     H30757   1.775   2.831   0.792  1.4854 -0.1163 -1.4212
  228MOL0     H30758   1.846   3.125   0.832  0.2677 -1.0026 -0.8772
  228MOL0     H30759   1.882   3.025   0.691 -0.4558  0.1232 -0.7884
  228MOL0     H30760   2.434   3.411   1.301  1.1960  0.3053  0.5372
  228MOL0     H30761   2.629   3.531   1.384 -1.3497 -0.2636 -1.0716
  228MOL0     H30762   3.024   3.634   1.476  0.4224  3.8767  3.0226
  228MOL0     H30763   3.229   3.733   1.525 -0.6367 -0.2482 -1.0521
  228MOL0     H30764   3.672   4.079   1.670  1.2592  3.4716 -2.8183
  228MOL0     H30765   3.453   3.925   1.720  1.9763  1.0270  0.4031
  228MOL0     H30766   2.871   3.934   1.498  0.7560 -1.0000  0.3781
  228MOL0     H30767   2.712   3.796   1.545 -1.1781 -1.5721  0.6704
  228MOL0     H30768   2.682   3.575   1.935 -0.4567  0.7164 -0.6016
  228MOL0     H30769   2.816   3.476   1.871 -1.6216 -4.1149 -0.0179
  228MOL0     H30770   2.687   3.342   1.739 -3.1594 -0.1147 -1.5770
  228MOL0     H30771   2.536   3.426   1.766  0.4298 -0.9740 -2.7314
  228MOL0     H30772   2.558   3.218   1.896  0.2837 -0.0274 -1.1040
  228MOL0     H30773   2.529   3.351   2.005  1.4307  2.1356  0.4905
  228MOL0     H30774   2.787   3.354   2.054 -0.9363  0.8196 -0.7350
  228MOL0     H30775   2.696   3.221   2.099  1.2347  0.7991  0.8939
  228MOL0     H30776   2.956   3.064   1.787 -0.0407 -3.0909  2.1367
  228MOL0     H30777   2.929   3.654   1.897  0.1880  0.5024 -0.4217
  228MOL0     H30778   3.086   3.769   1.985 -1.7002  1.0916 -0.7157
  228MOL0     H30779   3.205   3.790   1.870  0.0900 -0.8438 -0.4838
  228MOL0     H30780   3.118   3.940   1.929 -1.5959  1.0613 -1.6183
  229MOL0     O30781   6.610   3.202   1.153 -0.1730 -0.9399 -0.0659
  229MOL0     C30782   6.580   3.272   1.057 -0.3776  0.0713  0.4108
  229MOL0     O30783   6.448   3.292   1.007 -0.6610  0.9142 -0.3218
  229MOL0     C30784   6.354   3.200   1.055  0.0730 -0.8149 -0.5213
  229MOL0     C30785   6.285   3.131   0.956  0.4900  0.3001  1.0793
  229MOL0     C30786   6.190   3.041   0.987  0.1663 -0.4229  0.5113
  229MOL0     C30787   6.150   3.031   1.116  0.5398  0.5063 -0.0480
  229MOL0     O30788   6.048   2.944   1.158 -0.3137  0.0809 -0.0407
  229MOL0     C30789   5.932   2.910   1.078  0.2905  0.4033  0.0387
  229MOL0     C30790   5.844   3.027   1.049 -0.0059 -0.1567  0.4978
  229MOL0     C30791   5.806   3.109   1.169  0.3576 -0.2343 -0.2957
  229MOL0     C30792   5.762   3.256   1.125  0.2197 -0.1829 -0.0121
  229MOL0     C30793   5.684   3.325   1.239  0.5058  0.4700  0.1807
  229MOL0     C30794   5.668   3.475   1.221 -0.4205 -0.1842  0.2557
  229MOL0     C30795   5.794   3.561   1.219 -0.0592 -0.3483  0.2402
  229MOL0     C30796   5.757   3.712   1.226 -0.2448  0.3013 -0.0909
  229MOL0     N30797   5.699   3.752   1.097 -0.2258 -0.1535 -0.3075
  229MOL0     C30798   5.777   3.766   0.989 -0.5061  0.0251  0.2079
  229MOL0     C30799   5.713   3.841   0.901 -0.6485  0.3088 -0.8100
  229MOL0     C30800   5.767   3.879   0.767  0.3426  0.3398 -0.1785
  229MOL0     C30801   5.915   3.920   0.755 -0.1872 -0.6006  0.8888
  229MOL0     C30802   5.960   3.929   0.607 -0.2190 -0.1729 -0.1636
  229MOL0     C30803   6.103   3.985   0.601 -0.1628  0.1510 -0.0512
  229MOL0     O30804   6.197   3.895   0.663 -0.0732 -0.0799 -0.3349
  229MOL0     C30805   6.334   3.926   0.640  0.1969  0.8791  0.9558
  229MOL0     C30806   6.391   4.035   0.579  0.0081 -0.0464  0.0582
  229MOL0     C30807   6.530   4.066   0.586  0.0044  0.1222 -0.4430
  229MOL0     C30808   6.616   3.983   0.657  0.8033  1.0855  0.5536
  229MOL0     C30809   6.762   4.010   0.658  0.0724  0.1253 -0.5583
  229MOL0     O30810   6.806   4.138   0.631 -0.5062  0.0348  0.5090
  229MOL0     C30811   6.939   4.176   0.647  0.8718  1.2322 -0.3830
  229MOL0     C30812   7.013   4.138   0.758  0.3505 -0.0819 -0.2654
  229MOL0     C30813   7.141   4.181   0.773  0.0461 -0.6989  0.6614
  229MOL0     C30814   7.207   4.261   0.678  0.3429 -0.4114  0.8552
  229MOL0     O30815   7.344   4.292   0.681  0.1573  0.1333 -0.1739
  229MOL0     C30816   7.421   4.220   0.784  0.2450  1.2154 -0.4812
  229MOL0     C30817   7.564   4.260   0.756 -0.1289  0.3347 -0.2995
  229MOL0     C30818   7.653   4.235   0.881  0.4923  0.3097 -0.1807
  229MOL0     C30819   7.793   4.274   0.863  0.5370  0.3207 -1.0129
  229MOL0     C30820   7.874   4.289   0.991 -0.1934 -0.2207  0.2608
  229MOL0     C30821   8.009   4.352   0.953  0.0657 -0.3947  0.3829
  229MOL0     C30822   8.103   4.250   0.881  1.3742  0.5697 -0.6102
  229MOL0     C30823   8.182   4.326   0.776  0.1808 -0.2829 -0.7958
  229MOL0    Cl30824   8.322   4.406   0.861 -0.1988  0.3200 -0.2202
  229MOL0     C30825   7.134   4.296   0.570  0.9866 -0.0459  0.0977
  229MOL0     C30826   6.997   4.258   0.551 -0.1127  0.3352  0.2419
  229MOL0     O30827   6.829   3.913   0.693  0.0002  0.0523  0.1998
  229MOL0     C30828   6.558   3.864   0.708 -0.9210  0.3530 -0.1451
  229MOL0     C30829   6.420   3.836   0.701  0.4777  0.5521  0.2515
  229MOL0     N30830   5.583   3.849   0.951 -1.1965  0.1160  0.1392
  229MOL0     N30831   5.582   3.803   1.073  0.2260 -0.4910 -0.6496
  229MOL0     C30832   6.223   3.094   1.218  0.0313 -0.1675  0.7777
  229MOL0     C30833   6.317   3.181   1.186  0.4210 -0.5787 -0.1842
  229MOL0     C30834   6.691   3.356   1.007  0.1029  0.2084  0.1383
  229MOL0     C30835   6.820   3.320   1.047  0.9942  0.2494  0.3143
  229MOL0     C30836   6.930   3.404   1.006  0.8606  1.5754  0.5568
  229MOL0     C30837   6.901   3.518   0.927  0.3228 -0.7917  0.6897
  229MOL0     O30838   7.023   3.572   0.883 -0.0271 -0.4429 -0.0333
  229MOL0     C30839   7.013   3.684   0.795  0.4119 -0.9573 -0.0862
  229MOL0     C30840   7.143   3.767   0.796  0.1184  0.0917 -0.8096
  229MOL0     C30841   7.265   3.714   0.715  0.2903 -0.4489 -0.2619
  229MOL0     C30842   7.315   3.571   0.769  0.1251 -0.3755  0.7172
  229MOL0     C30843   7.449   3.545   0.711 -0.4126  0.1710  0.2298
  229MOL0     C30844   7.564   3.532   0.677 -0.9249  1.0155  0.8619
  229MOL0     C30845   6.770   3.546   0.887 -0.0384 -0.3205 -0.1919
  229MOL0     C30846   6.662   3.463   0.915  0.1388 -0.3478 -0.2714
  229MOL0     C30847   6.534   3.515   0.870  0.3160 -1.0609  1.0925
  229MOL0     H30848   6.309   3.142   0.851  0.0640 -0.6180  0.8810
  229MOL0     H30849   6.155   2.970   0.913  1.6713  0.1431 -0.7886
  229MOL0     H30850   5.958   2.848   0.992 -1.3298 -2.5317  1.4962
  229MOL0     H30851   5.866   2.844   1.136  1.4456 -0.8941 -0.0823
  229MOL0     H30852   5.756   3.004   0.990  0.7118  0.4171 -0.8567
  229MOL0     H30853   5.917   3.087   0.992 -2.0276  2.9147  0.8737
  229MOL0     H30854   5.889   3.120   1.239  2.3969  1.7420 -2.8258
  229MOL0     H30855   5.716   3.055   1.201  0.3092 -0.7953 -1.3427
  229MOL0     H30856   5.850   3.310   1.091  1.1576 -2.9909 -2.4540
  229MOL0     H30857   5.694   3.252   1.039  1.5268  0.4945 -1.1060
  229MOL0     H30858   5.584   3.281   1.243  1.7195 -2.6661 -0.8052
  229MOL0     H30859   5.738   3.318   1.334  1.8266 -0.7285 -0.6176
  229MOL0     H30860   5.614   3.490   1.127  0.7454  0.4560 -0.3276
  229MOL0     H30861   5.605   3.512   1.302 -2.1509 -3.5063  0.6365
  229MOL0     H30862   5.856   3.539   1.131  0.0748  0.1056  0.2180
  229MOL0     H30863   5.853   3.539   1.308 -0.1822  0.1180  0.4380
  229MOL0     H30864   5.699   3.728   1.318 -0.2993 -1.0964  0.1388
  229MOL0     H30865   5.842   3.779   1.243 -0.4145  0.3995  0.4044
  229MOL0     H30866   5.876   3.724   0.972 -1.1461 -3.9270  4.3776
  229MOL0     H30867   5.758   3.795   0.697 -0.9299  0.3176 -0.0030
  229MOL0     H30868   5.708   3.962   0.728 -0.3909 -0.9674 -2.0350
  229MOL0     H30869   5.919   4.017   0.805 -1.4161  1.1195 -2.0910
  229MOL0     H30870   5.976   3.850   0.813  0.5368  1.8198  3.2461
  229MOL0     H30871   5.897   4.006   0.561  0.7510  0.4692 -0.4605
  229MOL0     H30872   5.956   3.842   0.541  0.6213  0.2533 -0.7974
  229MOL0     H30873   6.100   4.084   0.649 -2.1177 -0.5041  1.2752
  229MOL0     H30874   6.126   3.992   0.494 -0.8682  0.9987 -0.1641
  229MOL0     H30875   6.331   4.114   0.535 -0.2270 -0.3505 -0.1803
  229MOL0     H30876   6.559   4.159   0.539 -1.0853  2.5026  3.2027
  229MOL0     H30877   6.962   4.088   0.841  0.0217  1.1532  0.2905
  229MOL0     H30878   7.190   4.168   0.868 -0.1258  2.6927  1.3297
  229MOL0     H30879   7.399   4.256   0.885  1.6892  0.4219  0.1445
  229MOL0     H30880   7.404   4.112   0.795  0.3693  1.3829  1.7362
  229MOL0     H30881   7.597   4.205   0.668  0.7531 -0.9425  0.7901
  229MOL0     H30882   7.570   4.367   0.735 -0.1065  1.4305  4.1356
  229MOL0     H30883   7.609   4.295   0.961 -1.9062 -2.2237  0.5467
  229MOL0     H30884   7.647   4.129   0.908  2.3707  0.3283  0.4993
  229MOL0     H30885   7.785   4.367   0.806 -1.5563  0.1582 -1.0587
  229MOL0     H30886   7.844   4.194   0.809  1.4297  0.0344  0.2125
  229MOL0     H30887   7.899   4.189   1.027 -0.2585 -1.3508 -2.5607
  229MOL0     H30888   7.828   4.354   1.066  1.0690 -1.8140  2.5192
  229MOL0     H30889   7.989   4.441   0.893  1.2266 -1.6885 -2.0804
  229MOL0     H30890   8.064   4.372   1.046  2.9971 -2.5536 -0.7566
  229MOL0     H30891   8.044   4.165   0.847 -0.8215  1.8431 -0.1899
  229MOL0     H30892   8.167   4.205   0.957  0.8268  0.4248 -0.2284
  229MOL0     H30893   8.216   4.254   0.701  0.8179 -0.4999 -0.3003
  229MOL0     H30894   8.119   4.399   0.724 -1.2250 -0.5064  0.5157
  229MOL0     H30895   7.176   4.338   0.479 -1.5987 -1.0059 -1.6287
  229MOL0     H30896   6.944   4.276   0.458 -1.5789 -2.4128  0.4286
  229MOL0     H30897   6.625   3.790   0.749 -1.1716  0.1601 -0.0839
  229MOL0     H30898   6.372   3.748   0.742 -0.1646  0.9395  0.3421
  229MOL0     H30899   6.204   3.071   1.323 -0.1713 -2.6280  0.2608
  229MOL0     H30900   6.381   3.235   1.255  2.5177 -0.3833 -2.1279
  229MOL0     H30901   6.843   3.236   1.111 -2.4091 -0.4479  0.8045
  229MOL0     H30902   7.032   3.386   1.036  0.8366  1.7837  0.7671
  229MOL0     H30903   6.934   3.750   0.832  2.0177 -0.1379  2.1132
  229MOL0     H30904   6.993   3.669   0.688  0.5077 -0.4213 -0.1807
  229MOL0     H30905   7.181   3.774   0.898  2.2871 -1.1933 -1.4503
  229MOL0     H30906   7.122   3.868   0.760 -0.0365 -0.4217 -2.2225
  229MOL0     H30907   7.348   3.785   0.722 -0.7976  0.8488  0.0788
  229MOL0     H30908   7.247   3.703   0.608  3.5003 -1.8798 -0.7455
  229MOL0     H30909   7.332   3.570   0.877 -0.5160 -0.2221  0.8227
  229MOL0     H30910   7.250   3.489   0.740  1.4522 -0.8333 -1.1239
  229MOL0     H30911   7.662   3.510   0.641 -1.2390 -0.8763  1.0076
  229MOL0     H30912   6.755   3.624   0.813 -3.6099  0.3964  1.1192
  229MOL0     H30913   6.490   3.439   0.805  1.6273 -0.2913 -0.7877
  229MOL0     H30914   6.470   3.532   0.956  0.2352 -0.4892  0.9190
  229MOL0     H30915   6.546   3.609   0.816 -1.8796 -0.5520  1.4072
  230MOL0     O30916   0.059  11.035   7.885  0.2034 -0.6368 -0.0205
  230MOL0     C30917   0.146  11.016   7.799 -0.0396 -0.3197  0.1801
  230MOL0     O30918   0.277  11.037   7.829 -0.3277 -0.0297 -0.2665
  230MOL0     C30919   0.309  11.128   7.927 -0.5333 -0.0787  0.0438
  230MOL0     C30920   0.277  11.264   7.908 -0.1676  0.3000 -0.1689
  230MOL0     C30921   0.321  11.357   7.998  0.1509 -0.4325  0.2602
  230MOL0     C30922   0.401  11.316   8.114  0.0855 -0.6936  0.2481
  230MOL0     O30923   0.452  11.401   8.210 -0.1743 -0.7078  0.6908
  230MOL0     C30924   0.397  11.422   8.339  0.6092 -0.4250  0.6928
  230MOL0     C30925   0.262  11.498   8.328 -0.0960  0.1622  0.7094
  230MOL0     C30926   0.288  11.640   8.292 -0.9526 -0.9490  1.4826
  230MOL0     C30927   0.322  11.725   8.420  0.0987  0.2241  0.3916
  230MOL0     C30928   0.345  11.875   8.376 -0.5222 -0.3257  0.6321
  230MOL0     C30929   0.404  11.942   8.501 -0.5061 -0.5477  0.6168
  230MOL0     C30930   0.328  11.934   8.632  0.1112 -0.1794  0.0808
  230MOL0     C30931   0.389  12.014   8.742  0.2982  0.0478 -0.0743
  230MOL0     N30932   0.364  12.157   8.708 -0.0436 -0.8916  0.2369
  230MOL0     C30933   0.255  12.238   8.730 -0.7242  0.3917 -1.0922
  230MOL0     C30934   0.293  12.360   8.699  0.5674 -0.2715  0.1340
  230MOL0     C30935   0.207  12.480   8.703  0.3268 -0.1317  0.7312
  230MOL0     C30936   0.069  12.474   8.761  0.0779  0.7904 -0.2044
  230MOL0     C30937   0.002  12.606   8.789 -0.3859  0.5256 -0.3055
  230MOL0     C30938  -0.134  12.584   8.857 -0.3109  0.4909 -1.0885
  230MOL0     O30939  -0.206  12.704   8.875 -0.3307 -0.5278  0.2315
  230MOL0     C30940  -0.343  12.689   8.906 -0.4203 -0.7989  0.1690
  230MOL0     C30941  -0.408  12.565   8.945 -0.7219  0.9334 -0.5200
  230MOL0     C30942  -0.544  12.562   8.974 -0.9966  1.0467 -0.0697
  230MOL0     C30943  -0.616  12.683   8.978  0.0147 -0.6162 -0.0382
  230MOL0     C30944  -0.756  12.672   9.022  0.3588 -0.0671 -0.5430
  230MOL0     O30945  -0.792  12.566   9.097 -0.7176 -0.2725  0.2935
  230MOL0     C30946  -0.914  12.565   9.156 -0.3007  0.5232  0.2901
  230MOL0     C30947  -1.038  12.606   9.106 -0.2700 -0.9132  0.0944
  230MOL0     C30948  -1.157  12.577   9.172  0.0410  0.2790  0.1752
  230MOL0     C30949  -1.153  12.496   9.293 -0.9051 -0.7315 -0.4170
  230MOL0     O30950  -1.262  12.466   9.365  0.3269 -0.8509 -0.3915
  230MOL0     C30951  -1.380  12.545   9.341 -0.2279  0.6934 -0.4704
  230MOL0     C30952  -1.439  12.565   9.481 -0.2441  0.8908 -0.0606
  230MOL0     C30953  -1.555  12.667   9.455 -0.6850 -0.1441 -1.0864
  230MOL0     C30954  -1.627  12.681   9.590  0.6122 -0.2722 -0.8732
  230MOL0     C30955  -1.746  12.767   9.574  0.3737  0.8825  0.5075
  230MOL0     C30956  -1.877  12.694   9.521  1.1815 -0.0126  0.3936
  230MOL0     C30957  -1.931  12.597   9.617 -0.3798  0.1736 -0.3396
  230MOL0     C30958  -2.082  12.565   9.589 -0.8338  0.6132  0.5034
  230MOL0    Cl30959  -2.182  12.702   9.625  0.0773  0.1954  0.4267
  230MOL0     C30960  -1.031  12.451   9.347 -0.9576  0.1875 -0.1186
  230MOL0     C30961  -0.910  12.482   9.280  0.5219  0.2825 -0.3715
  230MOL0     O30962  -0.824  12.766   8.987  0.1463  0.0062  0.0553
  230MOL0     C30963  -0.553  12.803   8.936 -0.5915  1.0647  0.6407
  230MOL0     C30964  -0.417  12.808   8.904  0.5393 -0.0042 -0.1955
  230MOL0     N30965   0.424  12.358   8.661  0.1514  0.1435 -0.0409
  230MOL0     N30966   0.469  12.236   8.665  0.2407  0.4668  0.3678
  230MOL0     C30967   0.437  11.183   8.124  0.6032  0.8709 -0.4150
  230MOL0     C30968   0.395  11.092   8.031  0.3244  0.8307 -0.1154
  230MOL0     C30969   0.107  10.984   7.665  0.0053 -0.1280  1.2395
  230MOL0     C30970   0.180  11.061   7.566 -0.2436 -0.5875 -0.6677
  230MOL0     C30971   0.141  11.031   7.430 -0.2228 -0.6883  0.2196
  230MOL0     C30972   0.050  10.932   7.384 -0.2840  0.6072  0.3418
  230MOL0     O30973   0.016  10.899   7.254  0.2071  0.3668 -0.1117
  230MOL0     C30974   0.108  10.863   7.160  0.6349  0.1743 -0.5367
  230MOL0     C30975   0.040  10.791   7.043  0.8583 -0.9016 -0.8448
  230MOL0     C30976   0.138  10.707   6.967 -0.6498  0.7842  0.4439
  230MOL0     C30977   0.264  10.775   6.918  0.1539 -0.4437 -0.1083
  230MOL0     C30978   0.318  10.719   6.786 -0.0964 -1.1731  0.1084
  230MOL0     C30979   0.355  10.650   6.690  0.5003 -0.0239 -0.0895
  230MOL0     C30980  -0.017  10.865   7.493  0.0910 -0.0949  0.1968
  230MOL0     C30981   0.010  10.895   7.626  1.0743  0.0118 -0.5757
  230MOL0     C30982  -0.050  10.799   7.730 -0.7011  0.6892  0.0878
  230MOL0     H30983   0.219  11.291   7.820  2.6021  3.2293 -1.2845
  230MOL0     H30984   0.310  11.463   7.975  2.4731 -0.1905  0.0006
  230MOL0     H30985   0.372  11.323   8.379 -1.1331 -0.1874  0.2740
  230MOL0     H30986   0.465  11.462   8.414 -1.1877 -0.7952  2.6260
  230MOL0     H30987   0.208  11.484   8.422 -1.4654 -4.6198 -0.5048
  230MOL0     H30988   0.193  11.460   8.251 -0.5941 -0.6212  1.5149
  230MOL0     H30989   0.198  11.681   8.244 -0.6443 -2.4144 -0.4573
  230MOL0     H30990   0.374  11.651   8.227 -0.8762  0.5305  1.7823
  230MOL0     H30991   0.237  11.711   8.487  0.4836 -0.7153  0.7089
  230MOL0     H30992   0.411  11.684   8.470 -0.5783 -0.6673  0.9092
  230MOL0     H30993   0.419  11.870   8.295 -0.7342 -0.3670  0.4414
  230MOL0     H30994   0.251  11.918   8.342 -1.9657 -3.2164  0.6611
  230MOL0     H30995   0.506  11.907   8.517 -0.8142 -1.7004  0.1219
  230MOL0     H30996   0.412  12.048   8.473  1.8512 -0.7251  0.4482
  230MOL0     H30997   0.327  11.837   8.682  0.7358  0.7755  2.0313
  230MOL0     H30998   0.225  11.967   8.611  0.4294 -0.1955 -1.6595
  230MOL0     H30999   0.334  11.983   8.831 -1.8273 -2.4971 -2.0733
  230MOL0     H31000   0.495  11.988   8.754  1.0067  2.7841  0.2573
  230MOL0     H31001   0.159  12.222   8.777  1.1876  0.1632  3.1687
  230MOL0     H31002   0.260  12.561   8.754 -1.8052  1.7639  0.0745
  230MOL0     H31003   0.201  12.508   8.597  1.8778 -2.3429 -0.0240
  230MOL0     H31004   0.002  12.418   8.695  0.1912 -0.5851  0.8101
  230MOL0     H31005   0.075  12.416   8.853  1.2720  0.4314 -0.4965
  230MOL0     H31006  -0.009  12.661   8.696  3.5793 -0.8006 -1.7447
  230MOL0     H31007   0.070  12.665   8.852 -0.3347  0.5352 -0.3701
  230MOL0     H31008  -0.112  12.540   8.955 -3.8443  1.9870  0.5255
  230MOL0     H31009  -0.197  12.507   8.812 -0.4030 -1.4312  2.0594
  230MOL0     H31010  -0.357  12.469   8.952  1.2449  2.0676  2.9203
  230MOL0     H31011  -0.598  12.469   8.992  3.1424 -2.0684 -1.9462
  230MOL0     H31012  -1.044  12.664   9.015 -0.1416  0.0976  0.7141
  230MOL0     H31013  -1.252  12.598   9.124 -1.6998  0.6794  3.4768
  230MOL0     H31014  -1.354  12.639   9.291  2.4315 -1.3885 -3.4133
  230MOL0     H31015  -1.458  12.493   9.284  2.3573 -2.2810 -1.5903
  230MOL0     H31016  -1.490  12.474   9.513  2.0768 -0.4270  0.0529
  230MOL0     H31017  -1.366  12.591   9.558  0.4245  1.3219 -0.8215
  230MOL0     H31018  -1.509  12.766   9.444 -0.8947  0.1123  0.2145
  230MOL0     H31019  -1.612  12.641   9.366 -0.2105  0.9072 -1.7182
  230MOL0     H31020  -1.555  12.723   9.661  0.7350  0.0158 -1.1657
  230MOL0     H31021  -1.656  12.584   9.632  1.3539  0.2730  0.9915
  230MOL0     H31022  -1.723  12.834   9.491  0.2369 -1.4966 -1.5964
  230MOL0     H31023  -1.774  12.825   9.662 -0.9746  2.7949 -1.1048
  230MOL0     H31024  -1.951  12.764   9.479  1.0735  0.8513  1.9647
  230MOL0     H31025  -1.834  12.644   9.434 -1.0827 -1.0210 -0.2399
  230MOL0     H31026  -1.916  12.632   9.719  0.8040  0.0777 -0.4715
  230MOL0     H31027  -1.872  12.507   9.597  0.9322  0.5142  1.6901
  230MOL0     H31028  -2.106  12.526   9.490 -0.5923 -2.8768  1.6464
  230MOL0     H31029  -2.115  12.478   9.647  0.9292 -1.1636 -1.0125
  230MOL0     H31030  -1.027  12.392   9.438  0.6345 -1.0249 -0.9256
  230MOL0     H31031  -0.824  12.441   9.332 -0.1333 -1.3989 -0.5632
  230MOL0     H31032  -0.603  12.899   8.930 -0.9306  0.8693  0.2739
  230MOL0     H31033  -0.384  12.911   8.895 -2.4650  1.0802  0.2134
  230MOL0     H31034   0.515  11.167   8.199 -1.0298 -4.3471  0.5765
  230MOL0     H31035   0.438  10.993   8.024 -2.2414 -0.2676 -1.7237
  230MOL0     H31036   0.264  11.125   7.592 -0.4972 -1.0844  1.5636
  230MOL0     H31037   0.188  11.092   7.354 -0.2459  0.2980  0.9713
  230MOL0     H31038   0.168  10.785   7.209 -2.2943 -0.7907  1.8575
  230MOL0     H31039   0.158  10.952   7.120  2.2685 -0.4545  0.0145
  230MOL0     H31040  -0.003  10.872   6.983  1.8929 -0.0784 -0.5134
  230MOL0     H31041  -0.039  10.725   7.077 -0.3117 -0.4831 -2.5988
  230MOL0     H31042   0.080  10.674   6.880 -1.1734  2.0451  0.2820
  230MOL0     H31043   0.162  10.610   7.011 -0.4574  0.0962 -1.1345
  230MOL0     H31044   0.239  10.880   6.900 -0.6616 -0.0927  2.6392
  230MOL0     H31045   0.346  10.785   6.989 -0.4424 -1.1274  0.7075
  230MOL0     H31046   0.373  10.595   6.600  1.1451 -0.0596  0.0535
  230MOL0     H31047  -0.080  10.778   7.474 -0.9405  0.2162  1.9422
  230MOL0     H31048  -0.111  10.865   7.791  0.9740  2.2385  0.1611
  230MOL0     H31049  -0.106  10.715   7.688  0.7132 -0.7899  1.0186
  230MOL0     H31050   0.030  10.753   7.790 -2.2773 -0.3217  1.4913
  231MOL0     O31051   4.250   6.267   5.771  0.2613 -0.9379 -0.1839
  231MOL0     C31052   4.167   6.354   5.795 -0.7211  0.5867 -0.0122
  231MOL0     O31053   4.167   6.429   5.911  0.0864  1.1483  0.1697
  231MOL0     C31054   4.241   6.409   6.019  0.2298  0.1774  0.6727
  231MOL0     C31055   4.267   6.518   6.096  0.8225 -0.0984 -0.3030
  231MOL0     C31056   4.367   6.513   6.195 -0.1188 -0.1415 -0.2241
  231MOL0     C31057   4.436   6.398   6.225  0.5884 -0.1617  0.1698
  231MOL0     O31058   4.527   6.385   6.330  0.4193 -0.3460  0.3226
  231MOL0     C31059   4.526   6.473   6.448 -0.6564 -0.2427 -0.2615
  231MOL0     C31060   4.617   6.600   6.436 -0.1048  0.4704  0.3019
  231MOL0     C31061   4.751   6.565   6.389  0.1121 -0.1413 -0.1207
  231MOL0     C31062   4.849   6.682   6.396  0.1486  0.4363  0.5523
  231MOL0     C31063   4.978   6.670   6.307  0.4726 -0.4966  0.0864
  231MOL0     C31064   5.054   6.796   6.283 -0.1998  0.4687 -1.2734
  231MOL0     C31065   5.200   6.763   6.279 -0.7376 -0.0037  0.6845
  231MOL0     C31066   5.295   6.883   6.257 -0.6366 -0.2504 -0.1411
  231MOL0     N31067   5.434   6.852   6.215 -0.4603  0.0420 -0.2426
  231MOL0     C31068   5.465   6.751   6.119  0.6696 -0.6883 -0.1697
  231MOL0     C31069   5.600   6.741   6.120 -0.0900  0.1779 -0.0016
  231MOL0     C31070   5.683   6.651   6.034 -0.2286  0.3128  0.8972
  231MOL0     C31071   5.674   6.502   6.086  0.0585  0.1914 -0.1655
  231MOL0     C31072   5.801   6.432   6.058 -0.3183 -0.5297  0.2669
  231MOL0     C31073   5.821   6.294   6.123 -0.3366  0.2376 -0.9030
  231MOL0     O31074   5.881   6.308   6.251 -0.0521  0.3695 -0.0569
  231MOL0     C31075   6.015   6.332   6.263 -0.2724  0.2198 -0.3786
  231MOL0     C31076   6.107   6.251   6.189 -0.2804 -0.1595 -0.2999
  231MOL0     C31077   6.248   6.266   6.209  0.6606  0.7067 -0.5699
  231MOL0     C31078   6.302   6.341   6.309 -0.3013  0.0220 -0.7952
  231MOL0     C31079   6.447   6.341   6.341 -0.4457  0.3125 -0.5400
  231MOL0     O31080   6.479   6.366   6.461  0.4420  0.0441  0.3430
  231MOL0     C31081   6.612   6.380   6.505 -0.7878 -0.2985  0.8174
  231MOL0     C31082   6.704   6.278   6.469  0.0413 -0.1211 -0.2228
  231MOL0     C31083   6.829   6.278   6.521 -0.1037  0.3451 -0.9343
  231MOL0     C31084   6.860   6.381   6.606 -0.6699 -0.0012  0.0871
  231MOL0     O31085   6.988   6.378   6.657 -0.3134 -0.4606  0.4441
  231MOL0     C31086   7.067   6.501   6.652  0.4539 -0.0928 -0.1412
  231MOL0     C31087   7.212   6.490   6.700  0.2104 -0.2938 -0.1122
  231MOL0     C31088   7.287   6.388   6.614 -0.5877  0.0370  0.4129
  231MOL0     C31089   7.435   6.387   6.642 -0.4078  0.0362 -0.7224
  231MOL0     C31090   7.520   6.302   6.548 -0.0237 -0.6618 -0.0994
  231MOL0     C31091   7.664   6.308   6.597 -0.1545  0.6440 -0.2401
  231MOL0     C31092   7.753   6.212   6.511  0.1259  0.0485 -0.0471
  231MOL0     C31093   7.895   6.248   6.549 -0.8365  0.4664 -0.6785
  231MOL0    Cl31094   8.009   6.137   6.444 -0.2882 -0.0559  0.1187
  231MOL0     C31095   6.772   6.493   6.624 -0.4906 -0.4361  0.0175
  231MOL0     C31096   6.650   6.491   6.577 -0.6608  0.0737 -0.8609
  231MOL0     O31097   6.527   6.327   6.246  0.2927 -0.2437  0.0153
  231MOL0     C31098   6.212   6.413   6.394  0.6645  0.5992  0.9461
  231MOL0     C31099   6.069   6.414   6.360 -0.4549  0.1570 -0.8824
  231MOL0     N31100   5.648   6.846   6.199  0.3085  0.1676  0.0662
  231MOL0     N31101   5.553   6.899   6.269  0.0807 -0.0305  0.7244
  231MOL0     C31102   4.394   6.281   6.154 -0.2430 -0.3302 -0.6812
  231MOL0     C31103   4.299   6.291   6.057 -0.3745  0.4025  0.0428
  231MOL0     C31104   4.065   6.385   5.693 -0.2376  0.9070 -0.9565
  231MOL0     C31105   4.111   6.403   5.566  0.1526  0.3229 -0.7358
  231MOL0     C31106   4.025   6.435   5.463 -0.3707  0.3966  1.1206
  231MOL0     C31107   3.891   6.452   5.485 -0.8781 -0.7194 -0.0330
  231MOL0     O31108   3.817   6.496   5.378 -0.2352  0.4798 -0.5559
  231MOL0     C31109   3.862   6.590   5.281 -0.2697 -0.4743 -0.4518
  231MOL0     C31110   3.782   6.570   5.150  0.3687  0.5319  0.2496
  231MOL0     C31111   3.636   6.559   5.183  0.1324 -1.1035 -0.0894
  231MOL0     C31112   3.569   6.689   5.155 -0.3841 -0.0989 -0.5448
  231MOL0     C31113   3.430   6.698   5.195 -0.4181  0.1099 -0.7717
  231MOL0     C31114   3.306   6.698   5.222 -1.1355 -0.0295 -0.5990
  231MOL0     C31115   3.840   6.439   5.616  0.0959  0.5923  0.1724
  231MOL0     C31116   3.927   6.407   5.723 -0.5290  0.0581 -0.0944
  231MOL0     C31117   3.870   6.401   5.860  0.2955  0.5448 -1.0674
  231MOL0     H31118   4.229   6.614   6.062  3.9825  0.7953 -1.7726
  231MOL0     H31119   4.386   6.606   6.248 -1.3670  1.3854 -2.2589
  231MOL0     H31120   4.424   6.509   6.464  0.4983  3.2098  0.0135
  231MOL0     H31121   4.558   6.402   6.525  1.6074  0.5815 -0.3593
  231MOL0     H31122   4.623   6.651   6.533 -2.0426  0.5981  0.3924
  231MOL0     H31123   4.572   6.660   6.356 -0.0783 -4.9689 -4.3789
  231MOL0     H31124   4.740   6.522   6.290 -0.5638  1.0093 -0.5614
  231MOL0     H31125   4.792   6.486   6.453  0.2496  0.7335  0.9131
  231MOL0     H31126   4.790   6.770   6.370 -1.0266 -0.1923  1.0128
  231MOL0     H31127   4.885   6.690   6.499  1.1578 -1.3188  0.3656
  231MOL0     H31128   5.023   6.579   6.346 -1.8857 -1.7995 -0.0592
  231MOL0     H31129   4.945   6.633   6.209 -2.7502 -0.8938  1.1932
  231MOL0     H31130   5.025   6.842   6.188 -1.5103  1.8658 -0.2347
  231MOL0     H31131   5.043   6.865   6.367 -1.3693  1.1948 -1.9871
  231MOL0     H31132   5.227   6.691   6.201  1.3675  0.1397  1.2249
  231MOL0     H31133   5.232   6.717   6.373  0.4863 -1.9060 -0.5700
  231MOL0     H31134   5.241   6.948   6.188 -0.9548  0.8935  1.1480
  231MOL0     H31135   5.297   6.945   6.347  1.1476 -1.7480  0.9299
  231MOL0     H31136   5.392   6.692   6.064 -1.7333  3.4514 -1.8658
  231MOL0     H31137   5.659   6.664   5.928  0.1473  0.7592  0.8628
  231MOL0     H31138   5.787   6.685   6.029 -1.1471  3.5013 -3.5905
  231MOL0     H31139   5.667   6.500   6.195  1.3050 -1.4405 -0.0705
  231MOL0     H31140   5.587   6.449   6.048  0.9627 -0.6762 -1.0714
  231MOL0     H31141   5.886   6.490   6.093 -0.2990 -1.3604  1.6766
  231MOL0     H31142   5.792   6.420   5.950 -1.4350 -0.3848  0.3279
  231MOL0     H31143   5.877   6.224   6.060 -0.3434 -1.6020  0.9981
  231MOL0     H31144   5.732   6.231   6.123  0.9141 -1.6148 -1.6284
  231MOL0     H31145   6.078   6.167   6.125 -0.5229 -0.2305 -0.0966
  231MOL0     H31146   6.312   6.206   6.145  1.0952 -0.2403  0.7012
  231MOL0     H31147   6.675   6.193   6.408 -0.5078 -0.7156  0.8410
  231MOL0     H31148   6.904   6.205   6.493  4.7783  2.9172  3.5224
  231MOL0     H31149   7.069   6.549   6.554 -1.0673  0.9934  0.3170
  231MOL0     H31150   7.020   6.572   6.721  1.4418  0.9460 -0.5183
  231MOL0     H31151   7.248   6.593   6.696  0.3388 -0.2360  1.5931
  231MOL0     H31152   7.214   6.457   6.805 -3.2734 -2.1361 -0.4817
  231MOL0     H31153   7.246   6.291   6.645 -1.1778  0.9668  2.6724
  231MOL0     H31154   7.265   6.415   6.510 -1.7765  1.5241  1.0245
  231MOL0     H31155   7.452   6.355   6.745  0.5479 -1.3626 -1.2753
  231MOL0     H31156   7.478   6.487   6.646  0.4042 -0.1837 -2.7292
  231MOL0     H31157   7.521   6.349   6.448 -1.3663 -3.1517 -1.3670
  231MOL0     H31158   7.489   6.199   6.528 -0.2174 -0.2185 -2.4013
  231MOL0     H31159   7.699   6.411   6.601 -1.6014  1.1205  1.5266
  231MOL0     H31160   7.676   6.278   6.701  0.9952  0.4017 -0.4234
  231MOL0     H31161   7.742   6.244   6.407 -0.4342  1.7775  0.4977
  231MOL0     H31162   7.731   6.106   6.527  1.2902 -0.1875  0.0586
  231MOL0     H31163   7.917   6.355   6.546 -0.4727  0.4207  0.1746
  231MOL0     H31164   7.908   6.204   6.648 -2.0209 -2.8510 -1.8523
  231MOL0     H31165   6.807   6.578   6.681 -1.6327 -0.3898  0.6826
  231MOL0     H31166   6.579   6.572   6.591  0.9347  1.5416 -0.9996
  231MOL0     H31167   6.248   6.471   6.479 -2.6149  0.6455  2.4566
  231MOL0     H31168   6.003   6.468   6.427  0.0359  0.0081 -0.2705
  231MOL0     H31169   4.438   6.187   6.186 -1.0668 -0.4063  0.2792
  231MOL0     H31170   4.274   6.196   6.011 -0.8325  0.4688  0.1512
  231MOL0     H31171   4.217   6.399   5.544  0.7402 -2.0489  1.9900
  231MOL0     H31172   4.074   6.443   5.366 -1.1721  1.2021  0.7749
  231MOL0     H31173   3.968   6.591   5.254 -0.3661  0.5136 -0.8800
  231MOL0     H31174   3.842   6.692   5.317 -3.5426 -1.2019  0.1093
  231MOL0     H31175   3.810   6.470   5.117 -2.7986 -0.2305 -0.5020
  231MOL0     H31176   3.806   6.646   5.076  3.1388 -0.3523  0.1203
  231MOL0     H31177   3.602   6.522   5.280 -0.2438 -3.5956 -1.0916
  231MOL0     H31178   3.595   6.489   5.110  0.8559 -0.3349 -1.2564
  231MOL0     H31179   3.617   6.765   5.217 -0.8442 -0.8597  0.7721
  231MOL0     H31180   3.584   6.704   5.047  0.5490 -2.2855 -0.7704
  231MOL0     H31181   3.202   6.702   5.250 -0.4344  0.5565  2.2881
  231MOL0     H31182   3.739   6.468   5.641  0.8085  3.5585 -0.0424
  231MOL0     H31183   3.767   6.366   5.858 -0.1046  1.7193 -1.5237
  231MOL0     H31184   3.923   6.328   5.922  1.3820  3.4163  1.6394
  231MOL0     H31185   3.864   6.493   5.919 -0.6254  1.6170 -2.7519
  232MOL0     O31186   9.105  10.228   0.560  0.1459  0.6044  0.0890
  232MOL0     C31187   9.040  10.294   0.637  0.4154  0.0129 -0.0635
  232MOL0     O31188   9.087  10.395   0.717 -0.3144 -0.1802 -0.5941
  232MOL0     C31189   9.224  10.418   0.738 -0.5199  0.2187 -0.4798
  232MOL0     C31190   9.257  10.499   0.846  0.0734 -0.8646  0.7785
  232MOL0     C31191   9.391  10.534   0.884 -0.0200 -1.3066 -0.4751
  232MOL0     C31192   9.493  10.491   0.804  0.1488 -0.0151  0.7223
  232MOL0     O31193   9.624  10.512   0.829  0.3800  0.3009  0.6447
  232MOL0     C31194   9.659  10.587   0.950 -0.2411  0.1783 -0.7175
  232MOL0     C31195   9.806  10.562   0.975  0.2859  0.6319  0.1783
  232MOL0     C31196   9.893  10.664   0.908  0.2924  0.4602  0.3805
  232MOL0     C31197   9.899  10.637   0.757 -0.3294  0.8295 -0.2171
  232MOL0     C31198   9.990  10.743   0.693 -0.1792  0.8087  0.5754
  232MOL0     C31199  10.029  10.705   0.549  0.3596  0.4657 -0.0385
  232MOL0     C31200  10.083  10.824   0.471  0.3843 -0.2394  0.3028
  232MOL0     C31201  10.215  10.879   0.534  1.1947  0.2021  0.4589
  232MOL0     N31202  10.275  10.985   0.449 -0.5496  0.1626 -0.2862
  232MOL0     C31203  10.313  10.979   0.314  0.8108 -0.1710  0.4870
  232MOL0     C31204  10.395  11.089   0.296  0.5740 -0.0038 -0.2154
  232MOL0     C31205  10.477  11.120   0.171 -0.4349 -0.3322 -0.0646
  232MOL0     C31206  10.581  11.012   0.140 -0.6909 -0.3463  0.3451
  232MOL0     C31207  10.681  11.039   0.023  0.9858 -0.4700  0.1926
  232MOL0     C31208  10.740  10.910  -0.018 -1.0569  0.3389  0.5259
  232MOL0     O31209  10.849  10.873   0.063 -0.2390 -0.7365 -0.1103
  232MOL0     C31210  10.974  10.875   0.011 -0.5073 -1.4154  0.2208
  232MOL0     C31211  11.012  10.934  -0.105 -0.9675 -0.3973 -0.3094
  232MOL0     C31212  11.153  10.970  -0.125  0.4239 -0.4131 -0.4638
  232MOL0     C31213  11.253  10.948  -0.027  0.6842  0.2650 -0.1561
  232MOL0     C31214  11.396  10.981  -0.050  0.6462 -0.5731 -0.6361
  232MOL0     O31215  11.485  10.975   0.061 -0.5219 -0.1162 -0.0859
  232MOL0     C31216  11.609  11.038   0.063  0.4440  0.4603 -0.6236
  232MOL0     C31217  11.689  11.076  -0.052  0.9400  0.8104 -0.4308
  232MOL0     C31218  11.821  11.114  -0.032 -0.5531  0.0240  0.7703
  232MOL0     C31219  11.882  11.118   0.090  0.5562 -0.2221 -0.1019
  232MOL0     O31220  12.011  11.153   0.091  0.4726 -0.2483 -0.1667
  232MOL0     C31221  12.083  11.191   0.215  0.1858 -0.5442  0.7345
  232MOL0     C31222  12.220  11.248   0.174 -0.2585  0.3665  0.4117
  232MOL0     C31223  12.262  11.296   0.316  0.1278  1.0360  0.8598
  232MOL0     C31224  12.400  11.352   0.303 -0.5473 -0.3157  0.3496
  232MOL0     C31225  12.447  11.388   0.452 -1.3923 -0.4513  0.8756
  232MOL0     C31226  12.579  11.460   0.435  0.1921  0.1571 -0.8071
  232MOL0     C31227  12.625  11.540   0.566  0.5074  0.0190  0.5811
  232MOL0     C31228  12.777  11.558   0.550  0.7144 -0.4191  0.1871
  232MOL0    Cl31229  12.814  11.685   0.436  0.2492  0.3869 -0.7721
  232MOL0     C31230  11.812  11.079   0.198  0.5693  0.2739 -0.6656
  232MOL0     C31231  11.677  11.051   0.188 -0.4443 -0.0216  0.2604
  232MOL0     O31232  11.420  11.031  -0.158 -0.0714 -0.7319 -0.4735
  232MOL0     C31233  11.205  10.895   0.093 -0.6025 -0.1787  0.1186
  232MOL0     C31234  11.069  10.860   0.110 -0.4380 -0.5285  0.5237
  232MOL0     N31235  10.401  11.151   0.412 -0.8205  0.0120  0.4463
  232MOL0     N31236  10.330  11.095   0.504  0.0676 -0.9610  0.4356
  232MOL0     C31237   9.461  10.409   0.694  0.4705 -0.5918 -0.3164
  232MOL0     C31238   9.330  10.378   0.659  0.4487 -0.3740  0.1833
  232MOL0     C31239   8.892  10.263   0.630 -0.2506 -0.0020  1.0588
  232MOL0     C31240   8.818  10.345   0.715 -0.8431 -0.1794 -0.6067
  232MOL0     C31241   8.679  10.349   0.711  0.2746  0.1132  0.3461
  232MOL0     C31242   8.611  10.257   0.632  0.4809  0.4907 -1.4019
  232MOL0     O31243   8.479  10.258   0.621  0.2895  0.0701 -0.3960
  232MOL0     C31244   8.402  10.272   0.743 -0.3173  0.3287 -0.5769
  232MOL0     C31245   8.302  10.147   0.761 -0.5324 -0.0233  0.0363
  232MOL0     C31246   8.176  10.191   0.827 -0.1407 -0.6958  0.9840
  232MOL0     C31247   8.082  10.278   0.736 -0.2247  0.4609 -0.2106
  232MOL0     C31248   8.017  10.199   0.636 -0.3274  0.0561  0.1684
  232MOL0     C31249   7.937  10.154   0.550  0.4393  0.1532  0.9391
  232MOL0     C31250   8.682  10.165   0.554  0.5342  0.1698  0.0078
  232MOL0     C31251   8.823  10.172   0.545  0.3280 -0.0998  0.0663
  232MOL0     C31252   8.896  10.088   0.445 -0.2816 -0.6262  0.4100
  232MOL0     H31253   9.172  10.533   0.903 -2.3523  0.3085 -3.1456
  232MOL0     H31254   9.414  10.587   0.977  1.9093 -1.3069 -0.9177
  232MOL0     H31255   9.652  10.695   0.936 -0.9034 -0.0243 -2.1444
  232MOL0     H31256   9.604  10.544   1.035 -1.5444 -0.3524 -1.7924
  232MOL0     H31257   9.836  10.463   0.939 -2.6067 -0.6436  0.9634
  232MOL0     H31258   9.815  10.570   1.083  0.8145  1.0023  0.1106
  232MOL0     H31259   9.995  10.671   0.946  0.0108  2.4399  0.8676
  232MOL0     H31260   9.852  10.765   0.913 -0.8824  0.0078  0.1739
  232MOL0     H31261   9.937  10.538   0.731 -0.0555  1.3113 -1.7510
  232MOL0     H31262   9.798  10.647   0.716 -0.1300 -0.8807 -1.1946
  232MOL0     H31263   9.926  10.831   0.694 -4.2149 -1.8627 -0.2399
  232MOL0     H31264  10.085  10.762   0.744  0.4442 -1.9858  0.6312
  232MOL0     H31265  10.110  10.633   0.565 -0.3261 -0.0905  1.0402
  232MOL0     H31266   9.951  10.652   0.493 -0.5597  0.5355  1.1320
  232MOL0     H31267  10.006  10.901   0.472 -1.9217 -2.4091  0.5673
  232MOL0     H31268  10.094  10.786   0.369  0.0213  0.4264  0.0101
  232MOL0     H31269  10.188  10.910   0.635  1.7404 -1.9243  1.3023
  232MOL0     H31270  10.287  10.798   0.546  0.3529 -0.5498  0.4893
  232MOL0     H31271  10.279  10.900   0.249  0.1192 -0.8960  1.6991
  232MOL0     H31272  10.408  11.132   0.087 -1.8225  2.6250  1.3495
  232MOL0     H31273  10.528  11.216   0.177 -1.1569  0.0718 -0.2896
  232MOL0     H31274  10.639  10.991   0.230  0.6357  3.2948  0.5263
  232MOL0     H31275  10.533  10.916   0.122  1.5956 -1.0908 -2.5546
  232MOL0     H31276  10.755  11.113   0.054 -0.8210  1.4403  0.1186
  232MOL0     H31277  10.638  11.084  -0.067  1.0748  2.2096  1.4033
  232MOL0     H31278  10.771  10.913  -0.123 -1.0550  1.5282  0.5498
  232MOL0     H31279  10.666  10.829  -0.019 -1.3243  0.5405  1.7369
  232MOL0     H31280  10.942  10.964  -0.182 -3.4593 -1.1609  1.5372
  232MOL0     H31281  11.175  11.016  -0.221  0.5896 -1.2326 -0.8325
  232MOL0     H31282  11.659  11.054  -0.154 -3.3140  0.3704  0.7280
  232MOL0     H31283  11.882  11.134  -0.120 -0.0078 -3.2346  0.2848
  232MOL0     H31284  12.024  11.261   0.275 -0.6851 -1.2836  0.7631
  232MOL0     H31285  12.088  11.108   0.286  2.1776  0.2034  1.5188
  232MOL0     H31286  12.285  11.166   0.144 -0.1398 -0.1916  2.1032
  232MOL0     H31287  12.217  11.329   0.100  1.0872  0.7352  0.7232
  232MOL0     H31288  12.185  11.355   0.367 -4.3966 -4.1573  0.9030
  232MOL0     H31289  12.271  11.209   0.382  0.5633 -0.6425 -1.3169
  232MOL0     H31290  12.402  11.436   0.234 -2.8585 -1.2944 -1.0483
  232MOL0     H31291  12.457  11.265   0.267 -1.3168 -1.8407  2.5615
  232MOL0     H31292  12.444  11.294   0.508  0.0277 -0.8260  0.3600
  232MOL0     H31293  12.370  11.459   0.485  0.3804  1.4192  1.2417
  232MOL0     H31294  12.652  11.386   0.403 -1.6953 -1.4244 -1.7295
  232MOL0     H31295  12.571  11.537   0.358  2.1326  1.8501  0.5913
  232MOL0     H31296  12.594  11.481   0.652 -1.5216 -1.6770 -1.1827
  232MOL0     H31297  12.580  11.640   0.559 -0.6692 -0.6099 -2.5907
  232MOL0     H31298  12.828  11.574   0.645 -0.8415 -1.6242  1.2704
  232MOL0     H31299  12.827  11.463   0.525  2.4736 -0.2647  2.7146
  232MOL0     H31300  11.864  11.069   0.293 -0.2793  0.8668 -0.1241
  232MOL0     H31301  11.616  11.035   0.277 -0.0086 -0.1386  0.5430
  232MOL0     H31302  11.274  10.884   0.176 -0.8645 -1.1977  0.2136
  232MOL0     H31303  11.034  10.823   0.206 -2.7523  1.4144  0.5228
  232MOL0     H31304   9.537  10.374   0.626 -0.6517  1.0272 -2.5085
  232MOL0     H31305   9.317  10.324   0.565 -0.1678  2.4157 -1.4331
  232MOL0     H31306   8.857  10.404   0.797 -0.8572  0.9478 -1.3978
  232MOL0     H31307   8.615  10.409   0.774 -0.8287 -1.3734  0.7050
  232MOL0     H31308   8.350  10.368   0.739  0.5063  0.8465  0.5849
  232MOL0     H31309   8.470  10.268   0.828 -3.1939 -0.1050  1.8608
  232MOL0     H31310   8.366  10.079   0.819  0.5862  2.2933  1.6806
  232MOL0     H31311   8.280  10.102   0.664 -0.5042 -2.8228  1.2176
  232MOL0     H31312   8.202  10.260   0.908  2.2913  0.5406 -0.7232
  232MOL0     H31313   8.127  10.101   0.867 -3.1245 -0.5714 -1.9364
  232MOL0     H31314   8.000  10.327   0.790 -0.4827 -0.0118 -0.1621
  232MOL0     H31315   8.141  10.345   0.674  2.9402 -0.3990  1.6156
  232MOL0     H31316   7.855  10.119   0.491  1.5885 -2.5924  0.8296
  232MOL0     H31317   8.634  10.095   0.486 -1.1116  0.1753  1.1228
  232MOL0     H31318   8.969  10.024   0.497 -0.4250 -0.8538  0.3321
  232MOL0     H31319   8.820  10.016   0.413 -1.4749 -0.9071  3.4511
  232MOL0     H31320   8.935  10.156   0.369 -0.4475 -1.9754 -0.9338
  233MOL0     O31321   4.657   4.319   8.882 -0.4626 -0.0360 -0.0029
  233MOL0     C31322   4.645   4.221   8.950 -0.5401 -0.0378 -0.6142
  233MOL0     O31323   4.738   4.124   8.966 -0.1172  0.3382  0.1386
  233MOL0     C31324   4.867   4.133   8.916  0.1197  0.1433  1.1650
  233MOL0     C31325   4.950   4.243   8.885  0.4468 -0.1884 -0.5100
  233MOL0     C31326   5.080   4.229   8.834  0.2238  0.2675  0.4845
  233MOL0     C31327   5.133   4.102   8.823  0.2262  0.2287  0.4642
  233MOL0     O31328   5.256   4.069   8.783 -0.5174  0.3337 -0.0276
  233MOL0     C31329   5.362   4.168   8.791 -0.7614 -0.3648  0.0190
  233MOL0     C31330   5.493   4.088   8.800  0.5461  0.1939  0.0968
  233MOL0     C31331   5.613   4.186   8.801  2.2442  0.7528  0.0308
  233MOL0     C31332   5.728   4.092   8.794 -0.0164 -0.0386 -0.1695
  233MOL0     C31333   5.863   4.153   8.861 -0.2384  0.3942  0.7976
  233MOL0     C31334   5.987   4.073   8.823 -0.2136  0.3148 -0.2539
  233MOL0     C31335   6.107   4.130   8.895  1.0748  1.3437  0.7325
  233MOL0     C31336   6.233   4.038   8.881  0.0454  0.5662  0.0234
  233MOL0     N31337   6.355   4.098   8.933 -0.4919  0.4297  0.2786
  233MOL0     C31338   6.389   4.107   9.068 -0.0417 -0.2725 -0.0402
  233MOL0     C31339   6.513   4.161   9.069  0.3141 -0.7150  0.3039
  233MOL0     C31340   6.559   4.238   9.187  0.4838 -0.1541 -0.4822
  233MOL0     C31341   6.606   4.132   9.293 -0.7378  0.2632 -0.1042
  233MOL0     C31342   6.633   4.180   9.433  0.4601  0.3175 -0.5811
  233MOL0     C31343   6.735   4.292   9.429  0.3564  0.0788 -0.5916
  233MOL0     O31344   6.838   4.284   9.329  0.2672 -0.3439 -0.9125
  233MOL0     C31345   6.942   4.376   9.342 -0.2580 -0.5077  0.9591
  233MOL0     C31346   7.054   4.360   9.249 -0.7853 -0.1507 -0.3647
  233MOL0     C31347   7.173   4.438   9.268  0.8997  1.0289  0.6388
  233MOL0     C31348   7.181   4.536   9.367  1.3898 -0.3486 -0.6503
  233MOL0     C31349   7.308   4.611   9.387 -0.3372  0.3612  0.5988
  233MOL0     O31350   7.299   4.707   9.484  0.4992 -0.5874  0.5230
  233MOL0     C31351   7.397   4.800   9.462 -0.8987 -0.3802  0.6250
  233MOL0     C31352   7.527   4.790   9.509 -0.2230  0.0284  0.4306
  233MOL0     C31353   7.617   4.901   9.500  0.1244 -0.0609 -0.0207
  233MOL0     C31354   7.574   5.021   9.451 -0.1076 -0.1678 -0.5492
  233MOL0     O31355   7.668   5.123   9.454 -0.8332 -0.4838  0.4065
  233MOL0     C31356   7.619   5.252   9.407  0.0513 -0.1172 -0.8721
  233MOL0     C31357   7.738   5.353   9.417  0.4455 -0.0595  0.3491
  233MOL0     C31358   7.850   5.304   9.323  0.2884  0.2205 -0.0892
  233MOL0     C31359   7.951   5.411   9.280 -0.0526 -0.4037  0.6437
  233MOL0     C31360   8.066   5.359   9.198  0.3231 -1.2007  0.2037
  233MOL0     C31361   8.155   5.476   9.143  0.0528 -0.4131  0.2627
  233MOL0     C31362   8.234   5.553   9.248  1.6557  0.4798  0.4152
  233MOL0     C31363   8.374   5.489   9.264  0.6969 -0.2609  0.5061
  233MOL0    Cl31364   8.378   5.347   9.380 -0.4531 -0.7725  0.3532
  233MOL0     C31365   7.440   5.029   9.399 -0.7426 -0.0512  0.1436
  233MOL0     C31366   7.359   4.914   9.398 -0.3450 -0.8588 -0.3995
  233MOL0     O31367   7.405   4.591   9.311  0.1904  0.1979 -0.0583
  233MOL0     C31368   7.056   4.555   9.441 -0.0753 -0.1362  0.0699
  233MOL0     C31369   6.942   4.484   9.428 -0.2185 -0.2405  0.6489
  233MOL0     N31370   6.559   4.183   8.942  0.0820  0.6355 -0.3650
  233MOL0     N31371   6.466   4.139   8.864 -0.0330  0.7054 -0.4007
  233MOL0     C31372   5.053   3.995   8.852 -0.5603  0.5124 -1.0884
  233MOL0     C31373   4.925   4.005   8.896  0.4844 -0.0024  0.6893
  233MOL0     C31374   4.508   4.198   9.002 -0.0926 -0.3121  0.4835
  233MOL0     C31375   4.401   4.213   8.921  1.1485 -0.7363 -0.8036
  233MOL0     C31376   4.274   4.183   8.959 -0.2533  0.4202 -0.2815
  233MOL0     C31377   4.246   4.137   9.089 -0.0183  0.1795 -0.4634
  233MOL0     O31378   4.122   4.113   9.135  0.3486  0.2279 -0.1799
  233MOL0     C31379   4.017   4.177   9.067  0.1353  0.9226  0.3042
  233MOL0     C31380   3.881   4.156   9.141 -0.5535  0.6765  0.3329
  233MOL0     C31381   3.860   4.252   9.262  0.8256  0.2068  0.0143
  233MOL0     C31382   3.960   4.257   9.372 -0.2999  0.2900 -0.4983
  233MOL0     C31383   3.965   4.130   9.443  1.4557  0.8028 -1.1597
  233MOL0     C31384   3.967   4.021   9.493 -0.8577 -0.6116 -1.2652
  233MOL0     C31385   4.352   4.107   9.176 -0.2705 -0.1966  0.4732
  233MOL0     C31386   4.480   4.149   9.135  0.9623 -0.4553 -0.1802
  233MOL0     C31387   4.597   4.141   9.229 -0.7585 -0.1672 -0.6100
  233MOL0     H31388   4.913   4.343   8.906 -0.8353 -0.8917  0.7673
  233MOL0     H31389   5.137   4.321   8.825  0.1596  0.4237  1.5505
  233MOL0     H31390   5.357   4.235   8.704  0.5064 -1.1199 -0.6580
  233MOL0     H31391   5.341   4.221   8.884 -2.5407  1.6983 -1.4475
  233MOL0     H31392   5.495   4.018   8.715  2.1235  0.0799  0.2019
  233MOL0     H31393   5.498   4.025   8.889  0.4683  0.7012  0.4671
  233MOL0     H31394   5.604   4.242   8.895  0.1514 -0.0806  0.3726
  233MOL0     H31395   5.601   4.259   8.720 -0.6468  0.2090 -0.1543
  233MOL0     H31396   5.709   4.001   8.851 -0.4945  2.1334  3.4732
  233MOL0     H31397   5.760   4.073   8.691 -1.2324 -3.3104 -0.0772
  233MOL0     H31398   5.878   4.260   8.845  0.2008  0.5715  2.2495
  233MOL0     H31399   5.855   4.151   8.970 -3.2987 -0.3956  0.6512
  233MOL0     H31400   5.966   3.974   8.864  1.4244  0.3254  0.7040
  233MOL0     H31401   6.008   4.084   8.716 -2.2016  1.0120 -0.6086
  233MOL0     H31402   6.088   4.134   9.003  0.4109 -0.3672  0.7211
  233MOL0     H31403   6.116   4.228   8.847 -1.5655  0.8203 -1.0446
  233MOL0     H31404   6.214   3.944   8.934  1.5718  1.1136  1.6414
  233MOL0     H31405   6.246   4.030   8.773 -1.0271  3.6904 -0.4329
  233MOL0     H31406   6.326   4.086   9.154  0.3711  1.2300  0.6748
  233MOL0     H31407   6.642   4.309   9.172  0.3527  0.5000  1.5690
  233MOL0     H31408   6.482   4.301   9.232  0.8427  0.3327 -0.5376
  233MOL0     H31409   6.536   4.048   9.290 -0.4917 -0.0208  1.2840
  233MOL0     H31410   6.705   4.097   9.262 -0.4921  0.4349  0.4650
  233MOL0     H31411   6.658   4.100   9.502  1.4166 -0.3096 -1.6205
  233MOL0     H31412   6.540   4.225   9.469  0.0381 -0.4047 -0.7585
  233MOL0     H31413   6.781   4.306   9.527  0.5651 -0.2118 -0.6467
  233MOL0     H31414   6.680   4.386   9.420  2.4538  1.5429  0.8558
  233MOL0     H31415   7.065   4.283   9.174  5.1166 -2.3831  2.1799
  233MOL0     H31416   7.250   4.391   9.207 -0.0034  1.6478 -1.0392
  233MOL0     H31417   7.570   4.700   9.553  1.6999  1.0058  0.6262
  233MOL0     H31418   7.723   4.893   9.519 -0.1833 -2.3493  1.0311
  233MOL0     H31419   7.591   5.246   9.302 -2.9798 -2.0957 -0.0773
  233MOL0     H31420   7.545   5.286   9.480 -0.5860 -0.0107 -1.5599
  233MOL0     H31421   7.710   5.453   9.383 -1.2871 -1.1460 -1.6279
  233MOL0     H31422   7.770   5.365   9.521 -1.5065 -0.8397  1.0939
  233MOL0     H31423   7.907   5.232   9.383  3.4484 -1.7325 -4.8622
  233MOL0     H31424   7.803   5.261   9.234 -1.0832  2.0089 -0.2691
  233MOL0     H31425   7.978   5.465   9.371 -2.7054 -0.3458  1.4519
  233MOL0     H31426   7.899   5.482   9.215  2.9845  0.4896 -1.0544
  233MOL0     H31427   8.021   5.311   9.111  0.5489  0.5370 -0.9277
  233MOL0     H31428   8.137   5.291   9.246  0.3861 -1.2995 -0.0239
  233MOL0     H31429   8.222   5.422   9.074  0.5503 -1.1333  1.2771
  233MOL0     H31430   8.087   5.547   9.095 -0.5899 -0.4757  1.0659
  233MOL0     H31431   8.182   5.548   9.344 -0.5528  0.1004 -0.7374
  233MOL0     H31432   8.242   5.658   9.220  0.2624  0.4995  0.0058
  233MOL0     H31433   8.400   5.447   9.167  0.5970  1.1881 -0.1836
  233MOL0     H31434   8.445   5.560   9.308 -0.3444 -0.6289  3.0007
  233MOL0     H31435   7.415   5.120   9.346  1.5205  0.2027 -0.6014
  233MOL0     H31436   7.254   4.923   9.375 -0.7495 -1.3821  1.1268
  233MOL0     H31437   7.052   4.634   9.516  1.8430 -1.4897  1.7240
  233MOL0     H31438   6.853   4.505   9.488  0.3924 -1.5098  2.0625
  233MOL0     H31439   5.092   3.895   8.835 -3.5117 -0.7437 -1.0666
  233MOL0     H31440   4.878   3.912   8.927  0.2628  0.0935  0.6452
  233MOL0     H31441   4.413   4.262   8.825 -3.8176  2.6545 -0.0817
  233MOL0     H31442   4.199   4.201   8.883  0.4133 -3.8198 -2.2011
  233MOL0     H31443   3.999   4.136   8.967  3.7683  1.9071 -0.9006
  233MOL0     H31444   4.030   4.286   9.063 -0.0762  0.9271 -3.4765
  233MOL0     H31445   3.868   4.054   9.177  1.6092 -0.3311 -1.4525
  233MOL0     H31446   3.798   4.166   9.069  0.3813  0.2537 -0.8433
  233MOL0     H31447   3.763   4.222   9.303  0.8965 -0.4959 -0.3092
  233MOL0     H31448   3.845   4.350   9.217  1.0645  0.7545  1.1074
  233MOL0     H31449   4.061   4.280   9.335  0.4485 -2.2112 -0.1894
  233MOL0     H31450   3.928   4.337   9.439 -2.4096  1.1331 -2.3790
  233MOL0     H31451   3.971   3.924   9.540  2.0106 -0.0672 -0.2219
  233MOL0     H31452   4.339   4.063   9.275 -0.2173 -0.8742  0.1843
  233MOL0     H31453   4.663   4.064   9.187  1.6989  0.9772  0.9300
  233MOL0     H31454   4.659   4.231   9.225  1.7806 -1.8293 -2.2272
  233MOL0     H31455   4.551   4.127   9.327  1.3071  1.7535  0.7498
  234MOL0     O31456   5.339   0.131   8.874  0.6021  0.2303 -0.2837
  234MOL0     C31457   5.367   0.250   8.907  0.5257 -0.0061  0.8945
  234MOL0     O31458   5.485   0.310   8.901 -0.5101 -0.0658  0.0315
  234MOL0     C31459   5.599   0.238   8.891  0.7948  0.5256  0.0530
  234MOL0     C31460   5.619   0.100   8.874 -0.2013 -0.5374 -0.3930
  234MOL0     C31461   5.742   0.031   8.856  0.0224 -0.0244  0.4850
  234MOL0     C31462   5.855   0.102   8.838  0.1456 -0.2769 -0.7482
  234MOL0     O31463   5.970   0.039   8.815 -0.4959  0.4478 -0.0904
  234MOL0     C31464   6.088   0.106   8.783  0.0386  0.1675 -0.2377
  234MOL0     C31465   6.207   0.006   8.768 -0.0889  0.6565 -1.7663
  234MOL0     C31466   6.329   0.067   8.693 -0.2413  0.0134 -0.9120
  234MOL0     C31467   6.451  -0.019   8.700 -0.1143 -0.0110 -0.0281
  234MOL0     C31468   6.579   0.060   8.663  0.2518 -0.3192 -0.5300
  234MOL0     C31469   6.697  -0.038   8.645  0.2716  0.3981 -0.1359
  234MOL0     C31470   6.746  -0.077   8.774 -0.3278  0.1685 -0.4674
  234MOL0     C31471   6.863  -0.172   8.769 -0.6577 -0.0144  0.2234
  234MOL0     N31472   6.987  -0.109   8.714 -0.7894 -0.0946 -0.0229
  234MOL0     C31473   7.061  -0.151   8.604  0.3791  0.3036  0.4687
  234MOL0     C31474   7.187  -0.098   8.618 -0.0559  0.7446  0.2196
  234MOL0     C31475   7.320  -0.123   8.543  1.0109  0.2954 -0.5704
  234MOL0     C31476   7.436  -0.134   8.642 -0.4091 -0.1314 -0.3854
  234MOL0     C31477   7.545  -0.176   8.550 -1.0536 -0.2632  0.1160
  234MOL0     C31478   7.675  -0.220   8.630 -0.1981 -0.5327 -0.3466
  234MOL0     O31479   7.765  -0.277   8.533 -0.0950  0.3178  0.3746
  234MOL0     C31480   7.860  -0.204   8.470  0.4196  0.2583  0.4889
  234MOL0     C31481   7.951  -0.284   8.397  0.0538 -0.6463 -0.0338
  234MOL0     C31482   8.061  -0.227   8.324  0.4604 -0.6385 -0.5058
  234MOL0     C31483   8.066  -0.088   8.310  0.9627 -0.8459  0.5479
  234MOL0     C31484   8.159  -0.013   8.220  0.6117 -0.7632 -0.2209
  234MOL0     O31485   8.213  -0.078   8.110 -0.4583  0.1457 -0.4618
  234MOL0     C31486   8.338  -0.029   8.076 -0.1356  0.7316  0.3942
  234MOL0     C31487   8.355   0.080   7.994 -0.2584  0.1846  0.5697
  234MOL0     C31488   8.480   0.134   7.963 -0.1697  0.1344 -0.1455
  234MOL0     C31489   8.599   0.070   8.022  0.5687 -0.8282  0.8359
  234MOL0     O31490   8.721   0.132   8.000 -0.3614 -0.6917  0.0360
  234MOL0     C31491   8.832   0.122   8.095 -0.4205 -0.2923 -0.7404
  234MOL0     C31492   8.805   0.225   8.213  0.5301  0.4576 -0.3638
  234MOL0     C31493   8.678   0.192   8.293  0.3493  0.3044 -0.6168
  234MOL0     C31494   8.661   0.278   8.412 -0.6680 -1.1899  0.0133
  234MOL0     C31495   8.563   0.234   8.520  0.8822  0.4354 -0.0048
  234MOL0     C31496   8.422   0.274   8.465 -0.2918  0.2498 -0.8277
  234MOL0     C31497   8.319   0.240   8.570 -0.8424 -0.6485 -0.7557
  234MOL0     C31498   8.292   0.087   8.587  0.8569 -0.3282 -0.6881
  234MOL0    Cl31499   8.138   0.081   8.674 -0.4216  0.3519  0.2286
  234MOL0     C31500   8.576  -0.040   8.095 -0.1538 -0.7709 -0.7975
  234MOL0     C31501   8.455  -0.094   8.126  0.6033 -1.0114 -0.0345
  234MOL0     O31502   8.175   0.098   8.250  0.2881  0.1840  0.4333
  234MOL0     C31503   7.963  -0.012   8.371 -1.0561  0.1883 -0.1335
  234MOL0     C31504   7.867  -0.065   8.453  0.1483  0.2370 -0.2755
  234MOL0     N31505   7.182  -0.025   8.739 -0.3432  0.0479 -0.1423
  234MOL0     N31506   7.068  -0.036   8.792  0.6182 -0.2855 -0.9993
  234MOL0     C31507   5.846   0.243   8.859  0.3761 -0.1782  0.7941
  234MOL0     C31508   5.722   0.309   8.894 -0.6373 -1.4269  0.3742
  234MOL0     C31509   5.256   0.348   8.942 -0.5786  0.5098 -0.5231
  234MOL0     C31510   5.285   0.482   8.970  1.3753  0.4357  0.4768
  234MOL0     C31511   5.193   0.575   9.015  0.1136  0.1498  0.1314
  234MOL0     C31512   5.060   0.531   9.041  0.0072 -0.8174 -0.1871
  234MOL0     O31513   4.960   0.626   9.083  0.2250 -0.4748  0.2480
  234MOL0     C31514   4.990   0.762   9.061  0.7301  0.2025  0.6480
  234MOL0     C31515   4.870   0.855   9.099 -0.7986  0.2961  0.0015
  234MOL0     C31516   4.804   0.828   9.232 -0.6587  0.1907  0.5980
  234MOL0     C31517   4.693   0.929   9.262  0.7810  0.0919  0.0257
  234MOL0     C31518   4.752   1.064   9.282  0.4392  0.9472  0.0213
  234MOL0     C31519   4.794   1.179   9.280  0.7535 -0.5284  0.6314
  234MOL0     C31520   5.032   0.402   9.019  0.5056  0.2578 -0.7042
  234MOL0     C31521   5.121   0.306   8.970 -0.8091 -0.3256 -0.1613
  234MOL0     C31522   5.071   0.161   8.947 -0.0893  0.6033 -1.6688
  234MOL0     H31523   5.541   0.025   8.862 -1.7163  0.4672  2.2820
  234MOL0     H31524   5.738  -0.074   8.829  2.3660  0.5810 -2.7172
  234MOL0     H31525   6.081   0.147   8.681 -0.1953 -1.4359 -0.8932
  234MOL0     H31526   6.128   0.182   8.850  1.3597 -0.4001 -0.3596
  234MOL0     H31527   6.171  -0.089   8.725 -2.2139 -0.1976  1.4968
  234MOL0     H31528   6.235  -0.023   8.870 -1.9765  0.3130 -1.3026
  234MOL0     H31529   6.359   0.162   8.737  2.1576 -1.6690  1.3681
  234MOL0     H31530   6.310   0.084   8.587  2.4684 -1.4244 -1.7074
  234MOL0     H31531   6.457  -0.051   8.805 -0.6570  1.4656  0.4826
  234MOL0     H31532   6.438  -0.110   8.642 -0.5987 -0.8513  1.3490
  234MOL0     H31533   6.557   0.135   8.586 -1.3229  0.2465  0.4163
  234MOL0     H31534   6.592   0.134   8.742 -0.6317 -0.2325 -0.4544
  234MOL0     H31535   6.671  -0.127   8.587 -0.3218  0.7490 -0.4235
  234MOL0     H31536   6.781   0.010   8.593 -0.0159  0.7402 -0.2850
  234MOL0     H31537   6.664  -0.126   8.827  0.1269  0.7016  0.7722
  234MOL0     H31538   6.782   0.015   8.820 -4.3535  1.8812 -0.3974
  234MOL0     H31539   6.884  -0.205   8.871 -0.2078  0.8754  0.4269
  234MOL0     H31540   6.828  -0.255   8.707 -3.7317  2.4475 -1.6659
  234MOL0     H31541   7.012  -0.204   8.523 -3.0571 -0.9361  3.0853
  234MOL0     H31542   7.304  -0.219   8.492 -2.4615  0.9273 -0.9115
  234MOL0     H31543   7.330  -0.048   8.465  2.1165  1.4049  0.6053
  234MOL0     H31544   7.438  -0.034   8.686 -2.4963 -0.2063 -0.0176
  234MOL0     H31545   7.421  -0.206   8.723 -2.3234  1.0170  0.3399
  234MOL0     H31546   7.573  -0.096   8.480  1.3732  0.2533  1.5760
  234MOL0     H31547   7.519  -0.258   8.482  3.8382 -1.4144 -0.6881
  234MOL0     H31548   7.658  -0.297   8.705  0.8532 -1.5809 -1.1406
  234MOL0     H31549   7.727  -0.139   8.682  1.4347 -2.7071  1.6031
  234MOL0     H31550   7.943  -0.392   8.401 -1.3315 -0.5864 -0.5502
  234MOL0     H31551   8.141  -0.289   8.284  0.7233 -0.6927  0.0939
  234MOL0     H31552   8.273   0.137   7.953 -0.8961  0.2609  1.9033
  234MOL0     H31553   8.494   0.225   7.906 -1.5225  0.2473 -0.3237
  234MOL0     H31554   8.866   0.023   8.128  3.1844  0.4236 -1.7759
  234MOL0     H31555   8.915   0.158   8.032 -1.1456  2.3527 -0.2980
  234MOL0     H31556   8.886   0.226   8.287  0.3725 -1.6523 -0.1212
  234MOL0     H31557   8.797   0.327   8.172  0.3342  1.3096  1.6849
  234MOL0     H31558   8.589   0.209   8.232 -1.8783 -0.8376  2.1292
  234MOL0     H31559   8.671   0.088   8.325 -1.5515  0.4272 -0.5582
  234MOL0     H31560   8.638   0.380   8.379 -1.7626 -1.0811  1.0775
  234MOL0     H31561   8.757   0.289   8.464  0.5550  0.0657 -2.3010
  234MOL0     H31562   8.583   0.290   8.612  1.9695 -2.3257  1.5305
  234MOL0     H31563   8.576   0.128   8.543 -0.6057  0.6793  2.2352
  234MOL0     H31564   8.405   0.382   8.459 -2.0985  0.0441 -0.0418
  234MOL0     H31565   8.387   0.235   8.369  2.0116 -1.9663 -0.8845
  234MOL0     H31566   8.225   0.287   8.539  1.0179  3.4634 -0.9322
  234MOL0     H31567   8.340   0.283   8.669 -1.5592  1.9004 -1.6123
  234MOL0     H31568   8.280   0.035   8.492  0.9228 -1.2064 -0.2207
  234MOL0     H31569   8.362   0.030   8.648 -0.4444 -2.5513 -1.1751
  234MOL0     H31570   8.667  -0.089   8.131 -1.0599 -1.3277  0.8411
  234MOL0     H31571   8.443  -0.184   8.184  1.9598  0.4179  2.6699
  234MOL0     H31572   7.967   0.093   8.343  1.8910  0.5086  1.1057
  234MOL0     H31573   7.787  -0.006   8.495  0.9977 -0.3616  2.3921
  234MOL0     H31574   5.936   0.302   8.872 -1.3699  2.8041  0.3651
  234MOL0     H31575   5.727   0.411   8.931 -2.9038 -0.6615 -1.1916
  234MOL0     H31576   5.386   0.514   8.945  1.2082 -0.0070 -0.8065
  234MOL0     H31577   5.223   0.680   9.020  1.7240 -0.1417 -1.8471
  234MOL0     H31578   5.008   0.774   8.954 -1.9350 -1.1300 -0.0421
  234MOL0     H31579   5.081   0.791   9.114  1.1068 -1.9013  1.2332
  234MOL0     H31580   4.786   0.849   9.029 -1.6045  2.4418  0.6854
  234MOL0     H31581   4.904   0.959   9.093  3.2106 -0.8637 -0.5750
  234MOL0     H31582   4.879   0.823   9.311 -0.0233 -3.4503 -0.0700
  234MOL0     H31583   4.763   0.727   9.231 -0.3780  0.0705 -0.3295
  234MOL0     H31584   4.615   0.920   9.185  2.9227  1.0617 -2.4102
  234MOL0     H31585   4.648   0.900   9.357  0.5516  0.2727 -0.0272
  234MOL0     H31586   4.825   1.282   9.287  0.1652 -0.3480  0.6609
  234MOL0     H31587   4.929   0.371   9.033  1.1389 -1.7419 -0.0905
  234MOL0     H31588   4.962   0.152   8.948 -0.2427  1.0517  1.9780
  234MOL0     H31589   5.110   0.115   8.857  1.8477 -0.1389 -0.5017
  234MOL0     H31590   5.107   0.109   9.036 -1.2768  2.2356 -0.1637
  235MOL0     O31591   3.469   5.713  11.159  0.0079 -0.4691 -0.5175
  235MOL0     C31592   3.445   5.813  11.223  0.0314  0.5789 -0.0920
  235MOL0     O31593   3.541   5.907  11.233 -0.1721 -0.1428  0.2963
  235MOL0     C31594   3.675   5.882  11.210  0.1042 -0.5866  1.0241
  235MOL0     C31595   3.752   5.993  11.248 -0.6693 -0.5397  0.7381
  235MOL0     C31596   3.894   5.989  11.248  0.2731  0.7366  0.2661
  235MOL0     C31597   3.962   5.873  11.205  0.4061  1.2359 -0.1500
  235MOL0     O31598   4.102   5.858  11.194  0.1232 -0.6223 -0.1334
  235MOL0     C31599   4.175   5.981  11.214  0.3636  0.2576 -0.6506
  235MOL0     C31600   4.311   5.957  11.159 -0.6614  0.1245  0.1700
  235MOL0     C31601   4.415   6.069  11.193  0.2734  0.4640  1.0593
  235MOL0     C31602   4.555   6.017  11.150 -0.3371 -0.1389  0.1947
  235MOL0     C31603   4.656   6.129  11.181  0.9675  0.0552 -0.0285
  235MOL0     C31604   4.802   6.072  11.163  0.7318  0.1862  0.1763
  235MOL0     C31605   4.911   6.175  11.172  0.5196 -0.4278  0.5782
  235MOL0     C31606   5.051   6.111  11.133  0.0039  0.2088  0.9267
  235MOL0     N31607   5.138   6.222  11.155  0.5754  0.3908 -0.3288
  235MOL0     C31608   5.117   6.349  11.102  1.0475  0.5756 -0.7986
  235MOL0     C31609   5.240   6.402  11.107 -0.2256  0.3009  0.2793
  235MOL0     C31610   5.276   6.541  11.069  0.0240 -0.5582  0.1303
  235MOL0     C31611   5.241   6.592  10.926 -0.2350 -1.1951  0.5891
  235MOL0     C31612   5.335   6.510  10.834  1.1461 -0.3781  0.5439
  235MOL0     C31613   5.278   6.507  10.689 -0.5893  0.6578  0.0135
  235MOL0     O31614   5.263   6.641  10.641 -0.3676 -0.1362  0.1709
  235MOL0     C31615   5.373   6.718  10.619 -0.2383 -0.1014  0.1863
  235MOL0     C31616   5.508   6.676  10.607 -0.4587  0.7199 -0.7725
  235MOL0     C31617   5.607   6.765  10.580  0.3650 -0.4462  1.1589
  235MOL0     C31618   5.575   6.900  10.556  0.3210 -0.3226 -0.2114
  235MOL0     C31619   5.684   6.996  10.519  0.7499  0.6448 -0.0703
  235MOL0     O31620   5.662   7.134  10.505 -0.4399  0.8218  0.2800
  235MOL0     C31621   5.765   7.205  10.459 -0.0743  1.0583  0.9886
  235MOL0     C31622   5.833   7.179  10.331 -0.6874  0.0787  0.1010
  235MOL0     C31623   5.915   7.274  10.275 -0.4103  0.1559  0.2873
  235MOL0     C31624   5.934   7.397  10.341  0.3111 -0.2630  0.5818
  235MOL0     O31625   6.007   7.488  10.277 -0.2266  0.1758 -0.1808
  235MOL0     C31626   5.976   7.629  10.290  0.5401 -0.0205  0.1514
  235MOL0     C31627   5.856   7.658  10.205  0.2311  0.3862  0.0488
  235MOL0     C31628   5.802   7.805  10.235 -0.0775 -0.7816 -0.4042
  235MOL0     C31629   5.738   7.868  10.110  0.3098 -0.5242  0.1371
  235MOL0     C31630   5.620   7.788  10.049 -0.2925  0.4778  0.3612
  235MOL0     C31631   5.604   7.819   9.902  0.0441  0.4752 -0.4719
  235MOL0     C31632   5.511   7.711   9.824  0.0472 -0.3758 -0.6204
  235MOL0     C31633   5.575   7.568   9.813 -1.0938 -0.4920 -0.1319
  235MOL0    Cl31634   5.494   7.462   9.698  0.0082 -0.2949 -0.3531
  235MOL0     C31635   5.877   7.421  10.467  0.3429 -0.0467 -0.8212
  235MOL0     C31636   5.786   7.326  10.530  0.0767 -0.6524  0.4687
  235MOL0     O31637   5.798   6.948  10.521 -0.1185 -0.6164  0.1537
  235MOL0     C31638   5.433   6.939  10.560 -0.1319 -0.6109 -1.0117
  235MOL0     C31639   5.334   6.847  10.605 -0.3732 -0.1174  0.0895
  235MOL0     N31640   5.329   6.308  11.161 -0.4415  0.6354 -0.0624
  235MOL0     N31641   5.269   6.197  11.185  0.2141 -0.1018 -0.3313
  235MOL0     C31642   3.881   5.758  11.163 -0.5861  0.5324  0.4808
  235MOL0     C31643   3.745   5.773  11.153  0.4093 -0.7481  0.0725
  235MOL0     C31644   3.308   5.850  11.266  0.2045 -0.6817  0.2927
  235MOL0     C31645   3.203   5.791  11.194 -0.1104  0.0856 -0.4017
  235MOL0     C31646   3.072   5.810  11.227  0.9505  0.9646 -0.5112
  235MOL0     C31647   3.039   5.903  11.332  0.1393 -0.3199 -0.5390
  235MOL0     O31648   2.910   5.931  11.357  0.2772 -0.0545 -0.2034
  235MOL0     C31649   2.855   5.991  11.476  0.7842  0.5208  1.1002
  235MOL0     C31650   2.787   5.886  11.571  0.1450 -0.7824 -0.5445
  235MOL0     C31651   2.694   5.950  11.672  1.1423  0.6739 -0.1959
  235MOL0     C31652   2.764   6.054  11.763 -0.3573 -0.6277 -0.8707
  235MOL0     C31653   2.667   6.101  11.864 -0.5227  0.2981 -0.7188
  235MOL0     C31654   2.606   6.154  11.961  0.2697 -0.4016  0.7923
  235MOL0     C31655   3.145   5.970  11.397 -0.0361 -0.3240 -0.9556
  235MOL0     C31656   3.278   5.935  11.371 -0.2587 -0.0519  0.4914
  235MOL0     C31657   3.386   6.008  11.443 -0.7516 -0.0833 -0.1841
  235MOL0     H31658   3.694   6.079  11.281 -2.5665 -2.0611  1.5741
  235MOL0     H31659   3.951   6.079  11.267 -0.8978  1.1887  1.8632
  235MOL0     H31660   4.122   6.065  11.167 -1.3496  0.8607  2.1064
  235MOL0     H31661   4.180   6.002  11.321  1.4747 -2.2396 -0.1467
  235MOL0     H31662   4.305   5.947  11.050 -1.5126 -3.3284  0.3905
  235MOL0     H31663   4.354   5.863  11.196 -1.2870 -0.2431 -0.0259
  235MOL0     H31664   4.410   6.091  11.300 -0.5777  0.7768  0.9629
  235MOL0     H31665   4.379   6.151  11.131  0.5532 -2.4113 -3.3777
  235MOL0     H31666   4.571   5.926  11.210 -1.8365  0.1678  1.1268
  235MOL0     H31667   4.568   5.985  11.046  0.4396  0.6832  0.0303
  235MOL0     H31668   4.635   6.213  11.115 -1.7029  0.8925  1.7455
  235MOL0     H31669   4.648   6.165  11.284  2.7633  1.8608 -0.4571
  235MOL0     H31670   4.826   6.004  11.245  1.0266 -1.8911 -1.5721
  235MOL0     H31671   4.811   6.014  11.071  2.1634 -0.9122  0.9771
  235MOL0     H31672   4.923   6.209  11.275 -1.5311 -1.2057  1.1333
  235MOL0     H31673   4.885   6.252  11.098 -2.3803 -0.7842  1.1262
  235MOL0     H31674   5.067   6.026  11.199 -1.2142 -0.4237  0.4523
  235MOL0     H31675   5.060   6.077  11.030 -2.4954 -0.5898  0.8949
  235MOL0     H31676   5.023   6.393  11.071  0.5196 -0.0008 -0.0700
  235MOL0     H31677   5.221   6.605  11.139  0.3069  1.8593 -1.7383
  235MOL0     H31678   5.381   6.565  11.088 -0.0029  1.0441 -1.4388
  235MOL0     H31679   5.133   6.586  10.910 -0.7569 -0.4869  3.2524
  235MOL0     H31680   5.262   6.699  10.916  3.0971 -1.7005  0.9615
  235MOL0     H31681   5.346   6.406  10.865  0.4462 -1.0071 -1.1682
  235MOL0     H31682   5.433   6.558  10.848  0.8846 -0.4144  2.9140
  235MOL0     H31683   5.173   6.475  10.688 -0.6117  0.7286  0.1434
  235MOL0     H31684   5.338   6.438  10.629  0.0014  1.7555 -0.6714
  235MOL0     H31685   5.537   6.571  10.609  2.8737  1.5413 -0.3917
  235MOL0     H31686   5.710   6.731  10.578  1.5058  2.6993 -0.5349
  235MOL0     H31687   5.806   7.083  10.288  1.5938 -0.2577 -0.7639
  235MOL0     H31688   5.966   7.255  10.181  0.9550 -0.5934  1.1341
  235MOL0     H31689   5.969   7.658  10.396  3.1659  0.9265  0.1490
  235MOL0     H31690   6.064   7.683  10.253  3.6705 -1.7856  4.1477
  235MOL0     H31691   5.892   7.636  10.104  1.8181 -0.8333  0.8311
  235MOL0     H31692   5.774   7.590  10.231  0.5318 -0.1362 -0.3702
  235MOL0     H31693   5.723   7.793  10.309 -1.5101  0.2236 -1.7103
  235MOL0     H31694   5.886   7.865  10.273 -1.1199 -0.2617  1.1854
  235MOL0     H31695   5.815   7.864  10.033  0.4906 -1.3293  0.3520
  235MOL0     H31696   5.706   7.970  10.135 -0.9444 -0.9791  0.4268
  235MOL0     H31697   5.537   7.811  10.115  1.1085  2.9937  1.3661
  235MOL0     H31698   5.649   7.683  10.061  1.6268  0.9819  0.4770
  235MOL0     H31699   5.585   7.926   9.891  2.1842  0.8529 -0.8406
  235MOL0     H31700   5.702   7.798   9.858 -0.0575 -1.8241  0.2239
  235MOL0     H31701   5.492   7.749   9.723  1.0712  0.8599 -0.3713
  235MOL0     H31702   5.415   7.698   9.875  0.7635 -0.0903  0.8617
  235MOL0     H31703   5.680   7.583   9.786 -1.6871 -2.0521 -3.8442
  235MOL0     H31704   5.572   7.525   9.913  1.3413  0.2292  0.3064
  235MOL0     H31705   5.900   7.513  10.519 -3.0408  2.8293 -3.9043
  235MOL0     H31706   5.736   7.347  10.624 -4.6409  0.1166 -1.9242
  235MOL0     H31707   5.397   7.036  10.527 -1.6558  0.8581  3.9506
  235MOL0     H31708   5.229   6.875  10.601 -0.3978 -0.1103  0.7883
  235MOL0     H31709   3.939   5.669  11.138 -2.7198  0.2119 -4.3192
  235MOL0     H31710   3.697   5.686  11.110 -1.4239  1.1028 -1.8184
  235MOL0     H31711   3.230   5.725  11.112 -0.0835 -0.9616  0.4253
  235MOL0     H31712   2.990   5.756  11.180 -0.7812  1.2993  1.9222
  235MOL0     H31713   2.780   6.066  11.448  1.3090  0.7697  0.3112
  235MOL0     H31714   2.934   6.055  11.515  0.9493  2.0980 -1.5497
  235MOL0     H31715   2.867   5.832  11.622  0.9736 -0.1257 -1.1110
  235MOL0     H31716   2.749   5.808  11.504  0.0924 -3.3746  2.2748
  235MOL0     H31717   2.628   5.880  11.724 -1.0581  2.0855 -0.9150
  235MOL0     H31718   2.605   5.993  11.624  1.4448  1.3149 -0.1984
  235MOL0     H31719   2.846   6.004  11.815  1.7282  2.5720 -0.8484
  235MOL0     H31720   2.823   6.130  11.711 -1.3176 -0.8330 -2.3487
  235MOL0     H31721   2.538   6.185  12.038  0.4661 -2.6502  1.9602
  235MOL0     H31722   3.123   6.035  11.481 -0.4867 -0.9522 -0.5735
  235MOL0     H31723   3.452   5.928  11.476 -2.7900 -2.5133 -1.6237
  235MOL0     H31724   3.443   6.085  11.390 -3.1265  1.5824 -0.5265
  235MOL0     H31725   3.342   6.056  11.531  1.6072  1.7666  0.0806
  236MOL0     O31726   4.616   8.223   4.373  0.2711 -0.5915  0.1748
  236MOL0     C31727   4.521   8.232   4.293 -0.1656 -0.2583 -1.1725
  236MOL0     O31728   4.530   8.222   4.161  0.1629 -0.4077  0.0202
  236MOL0     C31729   4.645   8.256   4.095  0.0296 -0.3839  0.2494
  236MOL0     C31730   4.704   8.164   4.020 -0.2310  0.6283  0.6343
  236MOL0     C31731   4.814   8.196   3.947  0.3591  0.9225  0.0557
  236MOL0     C31732   4.868   8.327   3.946 -0.7751 -0.7349 -0.2596
  236MOL0     O31733   4.975   8.357   3.871 -0.8415 -0.8806  0.8711
  236MOL0     C31734   5.003   8.496   3.847  0.4658 -0.1237 -0.3900
  236MOL0     C31735   5.123   8.506   3.746  0.7156 -1.0625  1.2547
  236MOL0     C31736   5.258   8.454   3.797 -0.1339 -0.4614  0.2872
  236MOL0     C31737   5.379   8.481   3.705  0.2779  0.3993  0.6267
  236MOL0     C31738   5.379   8.396   3.574 -0.4516  0.2135  0.0401
  236MOL0     C31739   5.420   8.253   3.610  0.1580  0.6552 -0.1549
  236MOL0     C31740   5.321   8.150   3.557 -0.3783 -0.0618 -0.5617
  236MOL0     C31741   5.230   8.101   3.676 -0.1867  0.3721  0.1103
  236MOL0     N31742   5.139   7.994   3.640 -0.2930 -0.6137  0.1204
  236MOL0     C31743   5.029   8.016   3.562  0.3482  0.4153 -0.2904
  236MOL0     C31744   4.970   7.894   3.543  0.2238  0.2262 -0.4031
  236MOL0     C31745   4.835   7.877   3.466  0.2084  0.3299  0.0682
  236MOL0     C31746   4.715   7.965   3.534 -0.7362 -0.5183  0.7089
  236MOL0     C31747   4.649   7.898   3.655 -0.4710 -0.1831 -0.0088
  236MOL0     C31748   4.570   8.008   3.714 -0.1059  0.1130  1.2450
  236MOL0     O31749   4.497   7.973   3.828 -0.0992  0.4980  0.9420
  236MOL0     C31750   4.409   7.870   3.826  0.3649 -0.5079 -0.6583
  236MOL0     C31751   4.297   7.884   3.737 -0.0940 -0.0437 -0.8963
  236MOL0     C31752   4.197   7.792   3.726 -1.0168  0.9162 -0.0555
  236MOL0     C31753   4.198   7.676   3.815 -0.2266  0.6811  0.1436
  236MOL0     C31754   4.073   7.591   3.826 -0.2926  0.3025  0.2626
  236MOL0     O31755   3.967   7.640   3.757  0.2781  0.5504  0.6425
  236MOL0     C31756   3.853   7.558   3.757  0.5050  0.1902 -0.5080
  236MOL0     C31757   3.848   7.419   3.733  0.7298 -0.8471  0.2350
  236MOL0     C31758   3.720   7.355   3.739 -0.1189 -0.5196 -0.6846
  236MOL0     C31759   3.601   7.434   3.751  0.1928  0.4097  0.2704
  236MOL0     O31760   3.488   7.362   3.740 -0.1632 -0.7025 -0.2771
  236MOL0     C31761   3.372   7.433   3.689 -0.3685 -0.7764 -1.3796
  236MOL0     C31762   3.274   7.321   3.658  0.3931 -0.9985 -0.9223
  236MOL0     C31763   3.330   7.222   3.542 -0.4572  0.3277 -1.2346
  236MOL0     C31764   3.221   7.123   3.503 -0.0887 -0.5237 -0.0443
  236MOL0     C31765   3.282   7.036   3.388 -0.5547  0.0967  0.2051
  236MOL0     C31766   3.174   6.946   3.350 -0.5453  0.7651  0.5481
  236MOL0     C31767   3.219   6.857   3.234 -1.0792  0.3058 -0.6772
  236MOL0     C31768   3.211   6.905   3.090  0.3547 -0.9176  0.2858
  236MOL0    Cl31769   3.294   6.788   2.994  0.0466  0.2006 -0.2487
  236MOL0     C31770   3.607   7.571   3.760  0.1505  0.4673 -0.7860
  236MOL0     C31771   3.729   7.633   3.771 -1.6621  0.1068  0.6999
  236MOL0     O31772   4.074   7.493   3.898 -0.3069  0.7465 -0.0394
  236MOL0     C31773   4.310   7.669   3.911  0.0097 -0.2462 -0.9350
  236MOL0     C31774   4.414   7.758   3.902  0.7329 -1.1987  0.5141
  236MOL0     N31775   5.060   7.797   3.597 -0.7891  0.1105 -0.3706
  236MOL0     N31776   5.159   7.864   3.654  0.1778 -0.3773 -0.3922
  236MOL0     C31777   4.821   8.422   4.040  0.2174  0.3338 -0.1339
  236MOL0     C31778   4.706   8.389   4.106 -0.2265  1.1403 -0.0697
  236MOL0     C31779   4.392   8.242   4.359 -0.5462 -1.4581  0.0141
  236MOL0     C31780   4.377   8.173   4.477  0.0086  0.1692  0.2407
  236MOL0     C31781   4.247   8.161   4.534 -0.6976  0.4643 -0.1261
  236MOL0     C31782   4.131   8.208   4.471  0.3870 -0.8018 -0.9303
  236MOL0     O31783   4.013   8.213   4.538 -0.9299  0.2431 -0.1517
  236MOL0     C31784   4.017   8.296   4.656  0.2255  0.5588  0.5460
  236MOL0     C31785   3.885   8.376   4.666  0.1592 -0.5069  0.8869
  236MOL0     C31786   3.757   8.298   4.674 -0.5774 -0.3013  0.5787
  236MOL0     C31787   3.633   8.368   4.731 -0.3488 -1.0919 -0.5936
  236MOL0     C31788   3.519   8.283   4.759  0.3833  0.1458 -1.1249
  236MOL0     C31789   3.427   8.205   4.777 -0.0387 -0.6053  0.5463
  236MOL0     C31790   4.144   8.282   4.348 -0.0152 -1.0126 -0.9426
  236MOL0     C31791   4.274   8.290   4.292 -0.0456 -0.1372  0.2917
  236MOL0     C31792   4.276   8.384   4.173 -0.0495 -0.1759 -0.1282
  236MOL0     H31793   4.661   8.064   4.019 -0.2527  0.6388 -0.2842
  236MOL0     H31794   4.855   8.118   3.883  0.5431  0.3102  0.8945
  236MOL0     H31795   4.914   8.551   3.816 -0.0717  0.5768  2.1683
  236MOL0     H31796   5.030   8.545   3.941  2.4405  1.0664 -1.5059
  236MOL0     H31797   5.131   8.613   3.725  0.2466 -0.9242  1.7586
  236MOL0     H31798   5.086   8.457   3.656  1.4197 -0.5945  0.6963
  236MOL0     H31799   5.258   8.348   3.826  0.2289 -0.3665  0.6358
  236MOL0     H31800   5.284   8.509   3.888  1.8508 -0.2627 -0.3617
  236MOL0     H31801   5.378   8.586   3.673 -0.9871  0.3680  0.4934
  236MOL0     H31802   5.473   8.467   3.758  2.4866  3.0658 -2.1672
  236MOL0     H31803   5.281   8.393   3.526  0.4174 -1.6097 -1.7251
  236MOL0     H31804   5.462   8.430   3.511 -0.6927 -0.4700 -0.6585
  236MOL0     H31805   5.521   8.224   3.581  1.1989  3.9572 -0.3053
  236MOL0     H31806   5.416   8.233   3.718 -0.8810 -0.8419 -0.4409
  236MOL0     H31807   5.366   8.062   3.509 -2.1928 -0.7738 -1.0289
  236MOL0     H31808   5.255   8.200   3.485 -1.9283  0.5085  1.1991
  236MOL0     H31809   5.301   8.060   3.749  1.7794 -0.5152 -2.1367
  236MOL0     H31810   5.177   8.179   3.731 -1.1666 -1.3310  1.6997
  236MOL0     H31811   4.999   8.111   3.518  1.4154  0.3411 -1.2117
  236MOL0     H31812   4.845   7.921   3.366 -2.0530  2.7004  0.7762
  236MOL0     H31813   4.811   7.771   3.453  0.0959  0.1395  1.6627
  236MOL0     H31814   4.763   8.060   3.559  0.9054 -1.2918  0.6373
  236MOL0     H31815   4.640   7.983   3.456  1.5616 -0.6947 -1.6691
  236MOL0     H31816   4.714   7.866   3.737 -1.3988  3.2524  2.2882
  236MOL0     H31817   4.597   7.806   3.627  1.9336 -1.5676 -0.1611
  236MOL0     H31818   4.505   8.063   3.645  3.6082  2.8279 -0.4244
  236MOL0     H31819   4.634   8.088   3.753  0.1381  1.4694 -1.7172
  236MOL0     H31820   4.284   7.977   3.683 -0.5876 -0.2902 -1.2043
  236MOL0     H31821   4.121   7.804   3.650  0.6567  0.0454 -1.9884
  236MOL0     H31822   3.936   7.356   3.732  1.3000 -0.0621 -0.8618
  236MOL0     H31823   3.716   7.247   3.734 -1.9567 -0.5120 -0.0629
  236MOL0     H31824   3.338   7.502   3.767  1.0028 -1.4247 -0.1693
  236MOL0     H31825   3.401   7.491   3.601  3.3353 -1.2023 -0.6173
  236MOL0     H31826   3.249   7.278   3.756  0.9068  2.8475  1.1051
  236MOL0     H31827   3.178   7.362   3.625  0.7375 -0.2022 -0.9569
  236MOL0     H31828   3.370   7.283   3.461  0.3026  0.1916 -0.9752
  236MOL0     H31829   3.408   7.168   3.596 -3.3925 -1.3467  1.7115
  236MOL0     H31830   3.130   7.169   3.463  0.3903 -3.0056 -4.5404
  236MOL0     H31831   3.197   7.063   3.591 -0.3072 -0.4671 -0.0648
  236MOL0     H31832   3.367   6.979   3.426 -0.0415  0.0682 -0.9524
  236MOL0     H31833   3.311   7.095   3.301 -1.1497 -0.7411 -0.5760
  236MOL0     H31834   3.138   6.882   3.431  0.7685 -2.6564 -1.3671
  236MOL0     H31835   3.089   7.005   3.315  1.6438  2.1163 -3.0899
  236MOL0     H31836   3.165   6.763   3.243 -2.4138  1.0363 -0.7883
  236MOL0     H31837   3.322   6.827   3.255 -1.1564  1.9954  2.9789
  236MOL0     H31838   3.107   6.908   3.058  0.7709 -2.0756 -1.2852
  236MOL0     H31839   3.256   7.004   3.081  1.0655 -1.1023  1.5185
  236MOL0     H31840   3.517   7.632   3.763 -0.3473 -0.2720  0.9283
  236MOL0     H31841   3.746   7.740   3.767 -1.2018  0.0178  0.0422
  236MOL0     H31842   4.310   7.594   3.989 -0.2123  2.0092  1.3940
  236MOL0     H31843   4.501   7.746   3.967  2.4183 -0.4054 -1.4898
  236MOL0     H31844   4.859   8.523   4.049 -0.9195  0.6275  2.1512
  236MOL0     H31845   4.655   8.459   4.172 -3.7674 -1.2241 -0.0393
  236MOL0     H31846   4.462   8.133   4.531 -2.3302 -2.8528  2.0583
  236MOL0     H31847   4.242   8.122   4.635 -1.5134  0.9917  0.0477
  236MOL0     H31848   4.096   8.370   4.642  0.4150 -0.3058 -6.7085
  236MOL0     H31849   4.040   8.240   4.748  1.1443  1.2463  0.7479
  236MOL0     H31850   3.881   8.441   4.578  0.5383 -1.5017  0.1220
  236MOL0     H31851   3.891   8.445   4.751  1.2205  1.0955 -0.4249
  236MOL0     H31852   3.768   8.212   4.741  0.9734 -0.4001  0.2379
  236MOL0     H31853   3.735   8.256   4.575 -1.6399 -0.4185  0.8551
  236MOL0     H31854   3.673   8.407   4.825 -1.2428 -0.6382 -0.3857
  236MOL0     H31855   3.612   8.446   4.657  2.4960 -0.4927 -0.8925
  236MOL0     H31856   3.338   8.150   4.801  0.3607 -1.6698 -0.3079
  236MOL0     H31857   4.057   8.333   4.308 -1.4140 -2.1318  0.4809
  236MOL0     H31858   4.332   8.346   4.088  1.6831  1.8536  0.0364
  236MOL0     H31859   4.171   8.407   4.153 -0.3500 -1.0414  0.3829
  236MOL0     H31860   4.322   8.478   4.203  1.1935 -0.5186 -0.8984
  237MOL0     O31861   4.340   4.146   3.879 -0.3957 -0.2644  0.3598
  237MOL0     C31862   4.337   4.204   3.767  0.3848 -0.4263  1.0152
  237MOL0     O31863   4.442   4.266   3.716 -0.0148 -1.0600 -0.7716
  237MOL0     C31864   4.576   4.253   3.756 -0.7384 -0.4312 -0.5621
  237MOL0     C31865   4.670   4.227   3.652  0.2324 -0.3974 -0.7860
  237MOL0     C31866   4.804   4.207   3.686  0.1812 -0.8752 -0.8475
  237MOL0     C31867   4.846   4.209   3.825 -0.0378  0.2316 -0.4775
  237MOL0     O31868   4.977   4.202   3.873 -0.5527  0.7986  0.2920
  237MOL0     C31869   5.064   4.132   3.782 -0.5393 -0.6484  1.8291
  237MOL0     C31870   5.152   4.226   3.706 -0.1578  0.8901  0.6338
  237MOL0     C31871   5.244   4.146   3.604  0.1526  0.4891 -0.5410
  237MOL0     C31872   5.366   4.071   3.668 -0.8615  0.0180  0.0212
  237MOL0     C31873   5.468   4.029   3.560  0.2570  0.0444  0.0555
  237MOL0     C31874   5.589   3.952   3.621 -1.0831  0.1177  0.3112
  237MOL0     C31875   5.562   3.822   3.695  0.2308  0.8425  0.9699
  237MOL0     C31876   5.660   3.714   3.698  0.1306  0.3345  0.0078
  237MOL0     N31877   5.597   3.591   3.754 -0.4638 -0.3866  0.0264
  237MOL0     C31878   5.505   3.510   3.693 -0.0884  0.2386  0.9365
  237MOL0     C31879   5.475   3.410   3.782  0.8371  0.0240  1.0836
  237MOL0     C31880   5.381   3.287   3.754  0.0557 -0.2004  0.6711
  237MOL0     C31881   5.284   3.251   3.867 -0.0441 -0.9092  0.2246
  237MOL0     C31882   5.340   3.198   4.005  0.5573  0.1095  0.6242
  237MOL0     C31883   5.385   3.053   3.998  0.0064  0.4982  0.3798
  237MOL0     O31884   5.460   3.020   4.103  0.3307  0.0714  0.0144
  237MOL0     C31885   5.590   3.051   4.139 -0.1502 -0.5281  0.4151
  237MOL0     C31886   5.650   2.990   4.254 -1.3633  0.4074  0.5218
  237MOL0     C31887   5.775   3.032   4.300  0.3510  0.4067  0.1768
  237MOL0     C31888   5.843   3.134   4.227 -0.2519 -0.0704 -0.1354
  237MOL0     C31889   5.974   3.177   4.277  0.1621 -0.4687  0.2795
  237MOL0     O31890   6.030   3.269   4.182 -0.0721  0.3061 -0.3044
  237MOL0     C31891   6.138   3.347   4.226  0.6321  0.4260  0.0185
  237MOL0     C31892   6.144   3.412   4.348 -0.3341 -0.2239 -0.0959
  237MOL0     C31893   6.260   3.474   4.384 -0.8973  0.7285  0.2446
  237MOL0     C31894   6.376   3.481   4.307 -0.0050  0.7044  0.4710
  237MOL0     O31895   6.489   3.539   4.356  0.2377 -0.1341 -0.4278
  237MOL0     C31896   6.544   3.465   4.471 -0.1758  0.8486  0.9740
  237MOL0     C31897   6.689   3.519   4.485 -0.6311 -0.5385 -0.0390
  237MOL0     C31898   6.776   3.428   4.399  0.3748  0.7575 -0.0053
  237MOL0     C31899   6.899   3.503   4.359 -0.3991 -0.3121  0.2494
  237MOL0     C31900   6.980   3.427   4.244 -0.4335 -0.5673 -0.8902
  237MOL0     C31901   7.029   3.276   4.273  0.3438 -0.7541 -0.4609
  237MOL0     C31902   7.137   3.248   4.174 -0.1324 -0.0885 -0.2527
  237MOL0     C31903   7.185   3.108   4.201 -0.8653  0.0636  0.6221
  237MOL0    Cl31904   7.057   2.976   4.155 -0.0936 -0.2496  0.2910
  237MOL0     C31905   6.369   3.410   4.187  0.1930 -0.0428 -0.3402
  237MOL0     C31906   6.253   3.349   4.145  1.2768  0.4484 -0.7945
  237MOL0     O31907   6.024   3.150   4.388  0.2733 -0.2741 -0.3119
  237MOL0     C31908   5.781   3.187   4.112 -0.6727 -0.4058  0.1929
  237MOL0     C31909   5.656   3.155   4.070 -0.6851 -0.1226 -0.0008
  237MOL0     N31910   5.547   3.435   3.893  0.3662 -0.4019 -0.3238
  237MOL0     N31911   5.612   3.550   3.881 -0.4366  0.2775  0.9998
  237MOL0     C31912   4.752   4.236   3.922 -0.3388 -0.5663  0.2056
  237MOL0     C31913   4.621   4.258   3.887  0.5250  0.2035  0.6702
  237MOL0     C31914   4.216   4.234   3.690  0.6554  0.1810  0.0393
  237MOL0     C31915   4.226   4.280   3.557 -0.2024 -0.7180  0.1171
  237MOL0     C31916   4.108   4.320   3.486 -0.0196 -0.2856 -0.1388
  237MOL0     C31917   3.981   4.324   3.544  0.5704  0.0027 -0.2973
  237MOL0     O31918   3.864   4.360   3.467 -0.1894  0.1081 -0.4401
  237MOL0     C31919   3.733   4.330   3.505 -0.0925 -0.1000 -0.5588
  237MOL0     C31920   3.681   4.428   3.602 -0.0130  0.6136 -0.0331
  237MOL0     C31921   3.551   4.380   3.664 -0.5640 -0.1301 -0.0703
  237MOL0     C31922   3.442   4.331   3.570 -0.2377  0.0772  0.0679
  237MOL0     C31923   3.309   4.328   3.637 -0.5319 -0.6673 -0.0114
  237MOL0     C31924   3.207   4.310   3.692 -0.3055  0.2961 -0.5776
  237MOL0     C31925   3.974   4.279   3.671 -0.2701  0.6791  0.2188
  237MOL0     C31926   4.086   4.236   3.739 -0.2252  0.4832 -0.7444
  237MOL0     C31927   4.065   4.193   3.886  0.5003  0.9036  0.7066
  237MOL0     H31928   4.636   4.221   3.549  0.0164 -2.4279 -0.6233
  237MOL0     H31929   4.877   4.194   3.607 -0.1946 -2.0964 -1.0029
  237MOL0     H31930   5.130   4.070   3.844 -0.5721 -2.0240  0.5446
  237MOL0     H31931   5.019   4.067   3.706  1.3052  0.1489 -0.0530
  237MOL0     H31932   5.214   4.285   3.773 -0.2109  0.4790  1.0572
  237MOL0     H31933   5.084   4.295   3.655  0.5435  1.7154  0.8014
  237MOL0     H31934   5.292   4.215   3.535  2.3437 -0.5898 -0.1749
  237MOL0     H31935   5.182   4.073   3.552 -2.4261  2.4182 -0.3668
  237MOL0     H31936   5.422   4.144   3.726  0.5986 -0.9965 -0.0668
  237MOL0     H31937   5.344   3.981   3.727  2.7081 -0.8152  0.3162
  237MOL0     H31938   5.421   3.980   3.474 -2.0388  1.1012  0.6363
  237MOL0     H31939   5.500   4.124   3.518  0.6549  0.1812  0.6614
  237MOL0     H31940   5.666   3.947   3.542 -3.3484  2.9208 -2.3302
  237MOL0     H31941   5.643   4.010   3.697  0.6824 -4.5246  3.0033
  237MOL0     H31942   5.465   3.777   3.672  1.4513 -2.0638  1.0315
  237MOL0     H31943   5.551   3.837   3.803 -1.8379  1.8181  0.6608
  237MOL0     H31944   5.682   3.704   3.591 -0.8281  4.1046 -0.6889
  237MOL0     H31945   5.756   3.736   3.746  0.2189  1.1523 -0.5156
  237MOL0     H31946   5.475   3.516   3.589  3.5896  1.3722 -0.2402
  237MOL0     H31947   5.317   3.301   3.666 -0.7152 -0.6628  1.1434
  237MOL0     H31948   5.433   3.193   3.733 -0.2740 -0.5759  1.5012
  237MOL0     H31949   5.208   3.328   3.884  1.2406  0.0936  1.7666
  237MOL0     H31950   5.220   3.178   3.817  0.3612 -0.7324 -0.5657
  237MOL0     H31951   5.262   3.201   4.082 -0.7452 -3.1057 -0.4086
  237MOL0     H31952   5.416   3.264   4.047  0.3279  0.1415  0.9966
  237MOL0     H31953   5.452   3.042   3.912 -1.1347 -2.0918 -0.2895
  237MOL0     H31954   5.299   2.985   3.997 -2.5706  3.5372 -0.2211
  237MOL0     H31955   5.590   2.920   4.312  0.8384 -2.3520 -0.3317
  237MOL0     H31956   5.811   2.986   4.391 -1.2439  1.2034  1.2463
  237MOL0     H31957   6.056   3.413   4.411 -0.7517  1.5255 -0.6601
  237MOL0     H31958   6.253   3.516   4.484 -0.6894  2.6648 -0.5088
  237MOL0     H31959   6.482   3.497   4.555  0.6342  3.3812  0.7172
  237MOL0     H31960   6.539   3.360   4.442 -0.2667  1.6884 -2.5621
  237MOL0     H31961   6.693   3.623   4.452  1.2384 -1.3110 -2.4686
  237MOL0     H31962   6.722   3.522   4.590  0.6911 -2.5740 -0.3489
  237MOL0     H31963   6.807   3.341   4.458 -0.6668  0.8364  0.6884
  237MOL0     H31964   6.714   3.380   4.323  0.2681  0.8570  0.0190
  237MOL0     H31965   6.956   3.526   4.449 -2.2550  0.6994  1.2424
  237MOL0     H31966   6.872   3.602   4.322  4.0843  0.0270 -2.7451
  237MOL0     H31967   7.060   3.489   4.202 -1.2064 -0.1163 -1.7151
  237MOL0     H31968   6.911   3.431   4.159 -2.0108  1.7304  0.3763
  237MOL0     H31969   7.053   3.260   4.378  0.0882 -2.5039 -0.6258
  237MOL0     H31970   6.931   3.233   4.248 -0.1245  0.8831 -1.6230
  237MOL0     H31971   7.215   3.319   4.203  0.6660 -0.3413 -1.7353
  237MOL0     H31972   7.100   3.263   4.072 -0.5284  0.4129 -0.0434
  237MOL0     H31973   7.267   3.076   4.137 -0.8189  0.5003  0.4606
  237MOL0     H31974   7.222   3.103   4.304  0.0681 -0.2960  0.2782
  237MOL0     H31975   6.451   3.396   4.117  1.5365  0.3025  1.1176
  237MOL0     H31976   6.252   3.302   4.047 -1.6877 -0.1224 -0.5830
  237MOL0     H31977   5.826   3.274   4.066 -1.5162 -1.0320 -1.9304
  237MOL0     H31978   5.617   3.206   3.983  0.9992  0.2639 -0.5561
  237MOL0     H31979   4.787   4.252   4.023 -0.6162  1.2640  0.0361
  237MOL0     H31980   4.546   4.273   3.963 -0.0646  0.7200 -0.0061
  237MOL0     H31981   4.318   4.288   3.501  0.2394 -0.0557  0.9092
  237MOL0     H31982   4.130   4.345   3.382 -0.6904  3.5135  0.4866
  237MOL0     H31983   3.740   4.233   3.555  0.1857 -1.1693 -2.5390
  237MOL0     H31984   3.672   4.326   3.414 -2.1605  1.6520  0.6602
  237MOL0     H31985   3.658   4.520   3.547 -2.5413 -0.8471 -1.6176
  237MOL0     H31986   3.758   4.439   3.679 -0.1450 -3.1733  0.8454
  237MOL0     H31987   3.510   4.460   3.726  0.3068 -2.1766  3.4470
  237MOL0     H31988   3.580   4.301   3.734  1.1210  1.3797  1.0249
  237MOL0     H31989   3.432   4.376   3.471 -0.7205 -1.2195 -0.4955
  237MOL0     H31990   3.458   4.224   3.557 -1.3606 -0.1558  0.4264
  237MOL0     H31991   3.118   4.291   3.748 -1.9892  0.9483 -2.8899
  237MOL0     H31992   3.878   4.276   3.722 -0.7904 -0.9988 -0.7713
  237MOL0     H31993   4.116   4.257   3.959 -1.0821  2.9476  0.1131
  237MOL0     H31994   3.957   4.199   3.905  0.5501  1.0648  0.9484
  237MOL0     H31995   4.092   4.087   3.895 -1.6549  0.1515 -0.8729
  238MOL0     O31996   1.467   2.436   6.579  1.2363 -0.8984  0.1679
  238MOL0     C31997   1.482   2.393   6.691  1.6450 -0.3554  0.1490
  238MOL0     O31998   1.596   2.391   6.768  0.0467  0.4149  0.3495
  238MOL0     C31999   1.700   2.462   6.728 -0.4436 -0.9237 -0.0670
  238MOL0     C32000   1.809   2.417   6.657 -0.3648 -0.6830 -0.0215
  238MOL0     C32001   1.927   2.491   6.643 -0.4700  0.0363  0.1054
  238MOL0     C32002   1.932   2.624   6.681  0.1339  0.1213 -0.2864
  238MOL0     O32003   2.052   2.682   6.657  0.1259  0.3862 -0.0921
  238MOL0     C32004   2.053   2.826   6.641 -0.0340 -0.3303  0.3985
  238MOL0     C32005   1.982   2.866   6.508 -0.3744 -0.2447  0.1168
  238MOL0     C32006   1.997   3.020   6.480 -0.4462 -0.6911 -0.5973
  238MOL0     C32007   1.951   3.054   6.334  0.2623  0.5901 -0.1407
  238MOL0     C32008   1.932   3.200   6.297 -0.7579  0.7326 -1.0503
  238MOL0     C32009   2.063   3.270   6.324 -0.7685 -0.7300  0.3393
  238MOL0     C32010   2.059   3.404   6.243 -0.4213  0.1878  0.1774
  238MOL0     C32011   2.181   3.485   6.272 -0.1669 -1.0969 -0.4493
  238MOL0     N32012   2.311   3.430   6.230 -0.3992  0.2766  1.0648
  238MOL0     C32013   2.342   3.405   6.094 -0.5040 -0.2850 -0.1234
  238MOL0     C32014   2.460   3.330   6.095 -0.2780  0.5012 -0.4457
  238MOL0     C32015   2.535   3.265   5.984  0.1218  0.0366 -0.4224
  238MOL0     C32016   2.683   3.326   5.986 -0.4278 -0.1224 -0.3924
  238MOL0     C32017   2.775   3.255   5.883  0.0647 -0.0449  0.8962
  238MOL0     C32018   2.917   3.287   5.911 -0.4972  0.4111  1.2071
  238MOL0     O32019   2.955   3.224   6.034  0.2233  0.4271  0.3210
  238MOL0     C32020   3.084   3.238   6.083  0.2605 -0.4311  0.0567
  238MOL0     C32021   3.184   3.321   6.032 -0.1877 -0.4852 -0.5945
  238MOL0     C32022   3.298   3.352   6.101 -0.0370 -0.3828  0.7508
  238MOL0     C32023   3.323   3.291   6.233 -0.5049 -0.1650  0.4400
  238MOL0     C32024   3.458   3.320   6.295  0.2550 -0.1759 -0.3064
  238MOL0     O32025   3.555   3.341   6.201  0.2469  0.5010 -0.1390
  238MOL0     C32026   3.688   3.347   6.234 -0.9733  0.0224 -0.3755
  238MOL0     C32027   3.767   3.234   6.270 -0.8324 -0.1205  0.9069
  238MOL0     C32028   3.901   3.254   6.310  0.2483  0.8125 -0.3708
  238MOL0     C32029   3.953   3.385   6.307 -0.6493  0.9145 -0.4660
  238MOL0     O32030   4.087   3.388   6.357 -0.2080 -0.0522 -0.1507
  238MOL0     C32031   4.133   3.505   6.421  0.4848  0.0377 -0.1545
  238MOL0     C32032   4.234   3.462   6.527 -0.2669  0.5225 -0.0342
  238MOL0     C32033   4.378   3.412   6.470  0.0551  0.1363 -0.4437
  238MOL0     C32034   4.473   3.379   6.585  0.1719 -0.4032  0.2349
  238MOL0     C32035   4.618   3.369   6.543 -0.4582  0.1570  0.6851
  238MOL0     C32036   4.696   3.341   6.665  0.4375 -0.8986 -1.0940
  238MOL0     C32037   4.849   3.350   6.650 -0.1498 -0.1073 -0.5981
  238MOL0     C32038   4.898   3.208   6.659 -0.6266 -0.1248 -0.9740
  238MOL0    Cl32039   5.075   3.185   6.634  0.3777 -0.0354  0.0935
  238MOL0     C32040   3.882   3.491   6.275 -0.4296 -0.1926  0.1071
  238MOL0     C32041   3.748   3.471   6.241  0.9365  0.5583 -0.2582
  238MOL0     O32042   3.471   3.314   6.415  0.2526 -0.4243  0.0949
  238MOL0     C32043   3.229   3.195   6.274 -0.9333  0.6372  0.3856
  238MOL0     C32044   3.109   3.175   6.207  0.6172  0.2980  0.8714
  238MOL0     N32045   2.492   3.309   6.226 -0.6185  0.5179  1.2804
  238MOL0     N32046   2.421   3.381   6.306  0.6906 -0.3858  0.1414
  238MOL0     C32047   1.812   2.678   6.736 -0.0709 -0.2273  0.2907
  238MOL0     C32048   1.700   2.596   6.759 -0.5449 -0.5998 -0.4567
  238MOL0     C32049   1.360   2.336   6.765 -0.3189 -0.1284 -0.8392
  238MOL0     C32050   1.388   2.231   6.855  0.2479 -0.2833  0.2742
  238MOL0     C32051   1.283   2.161   6.909  1.0016 -1.4028 -0.1031
  238MOL0     C32052   1.144   2.183   6.879 -0.5121  0.0524  0.0277
  238MOL0     O32053   1.032   2.103   6.885 -0.4710  0.3795  0.0272
  238MOL0     C32054   1.059   1.964   6.915 -0.0503 -0.3565 -0.6934
  238MOL0     C32055   1.115   1.887   6.792 -0.0338  0.0737  0.7256
  238MOL0     C32056   1.153   1.743   6.811 -0.1840  0.0570  0.1567
  238MOL0     C32057   1.031   1.651   6.814 -0.5481 -1.1438  0.4315
  238MOL0     C32058   0.957   1.657   6.940  0.7467  0.8869 -0.2940
  238MOL0     C32059   0.881   1.647   7.035 -0.8220 -1.7548  0.4573
  238MOL0     C32060   1.129   2.299   6.806 -0.2001  0.5197  0.0833
  238MOL0     C32061   1.230   2.381   6.749 -0.0069 -0.1608 -0.3286
  238MOL0     C32062   1.197   2.507   6.668  0.1452 -0.3698 -0.3372
  238MOL0     H32063   1.813   2.311   6.635 -4.4063 -0.6443 -1.9580
  238MOL0     H32064   2.022   2.452   6.608 -0.0149  1.5535 -0.4275
  238MOL0     H32065   2.000   2.878   6.721 -0.7208 -1.8971  1.0130
  238MOL0     H32066   2.152   2.872   6.637 -0.3387  0.6429  2.6954
  238MOL0     H32067   1.879   2.848   6.537 -1.0207  2.6648 -0.0615
  238MOL0     H32068   2.025   2.802   6.430  1.1313  4.2800 -3.2346
  238MOL0     H32069   2.101   3.046   6.501 -1.5204  2.0553  2.1013
  238MOL0     H32070   1.940   3.077   6.554  1.6592 -0.0269  0.5967
  238MOL0     H32071   2.022   3.012   6.262  0.8460 -1.6771  1.6412
  238MOL0     H32072   1.853   3.006   6.326 -0.5266  1.9350  1.1209
  238MOL0     H32073   1.914   3.207   6.189 -0.2454 -0.9494 -1.2795
  238MOL0     H32074   1.848   3.250   6.346  0.8787  1.0481  1.6403
  238MOL0     H32075   2.075   3.291   6.431 -1.7226  2.0755 -0.0365
  238MOL0     H32076   2.150   3.217   6.284 -0.1941  1.7989 -2.0941
  238MOL0     H32077   1.968   3.461   6.263 -2.2212 -2.9619  1.7709
  238MOL0     H32078   2.042   3.376   6.138 -0.6866 -1.6738  0.6944
  238MOL0     H32079   2.166   3.576   6.213  1.1092 -1.6337 -1.6607
  238MOL0     H32080   2.188   3.500   6.380  3.1058  1.3247 -0.8246
  238MOL0     H32081   2.297   3.441   6.003 -0.1517 -0.5294 -0.3980
  238MOL0     H32082   2.553   3.158   6.000  4.7065  0.4594 -1.4037
  238MOL0     H32083   2.480   3.276   5.891  0.8778 -1.8647 -1.1511
  238MOL0     H32084   2.677   3.435   5.978 -4.4747 -0.1141  0.3288
  238MOL0     H32085   2.728   3.310   6.084 -1.0587 -1.5694 -0.3228
  238MOL0     H32086   2.752   3.291   5.782 -0.5642  1.0496  1.4015
  238MOL0     H32087   2.758   3.147   5.882  2.9959 -0.5856  0.4554
  238MOL0     H32088   2.932   3.395   5.918 -2.2627  0.7779 -0.1174
  238MOL0     H32089   2.981   3.240   5.836  2.0702 -0.7600  3.9320
  238MOL0     H32090   3.169   3.373   5.938 -0.4194 -0.5209 -0.5774
  238MOL0     H32091   3.369   3.424   6.061  0.7988 -0.9806  1.1377
  238MOL0     H32092   3.715   3.140   6.280  1.0686 -1.1027  2.1013
  238MOL0     H32093   3.965   3.168   6.328 -0.5242  0.5983  1.5421
  238MOL0     H32094   4.177   3.579   6.355  2.6742  0.4292  1.6249
  238MOL0     H32095   4.047   3.550   6.472 -1.4799 -2.6859 -0.8118
  238MOL0     H32096   4.255   3.544   6.596  0.7474  0.3100 -0.0663
  238MOL0     H32097   4.186   3.377   6.577 -2.5955  0.3373 -2.4220
  238MOL0     H32098   4.369   3.318   6.415 -1.4776  1.1495 -2.0599
  238MOL0     H32099   4.432   3.485   6.409 -2.6635  1.7638 -1.0568
  238MOL0     H32100   4.447   3.289   6.641  0.2699  0.1921  1.2547
  238MOL0     H32101   4.477   3.471   6.644 -0.0363 -1.4346  1.9294
  238MOL0     H32102   4.631   3.473   6.510 -1.9047  0.0513 -0.2840
  238MOL0     H32103   4.642   3.293   6.468  1.7529  1.2707  0.1522
  238MOL0     H32104   4.667   3.415   6.740  0.5035 -2.2681  0.3222
  238MOL0     H32105   4.665   3.241   6.695 -0.4122 -0.2633  0.2264
  238MOL0     H32106   4.888   3.415   6.730 -1.0470 -1.1123  0.7118
  238MOL0     H32107   4.887   3.399   6.560  1.7156  0.0698  0.2333
  238MOL0     H32108   4.872   3.171   6.759 -1.3965 -2.2710 -1.9080
  238MOL0     H32109   4.849   3.144   6.585  0.1403  0.8562 -2.3676
  238MOL0     H32110   3.916   3.594   6.275 -0.7291 -0.0674  1.5839
  238MOL0     H32111   3.682   3.556   6.224 -0.3787 -0.1940  0.8836
  238MOL0     H32112   3.245   3.137   6.364  0.5436 -0.3841 -0.5120
  238MOL0     H32113   3.034   3.105   6.243  0.6195 -0.4244 -0.4727
  238MOL0     H32114   1.805   2.784   6.760 -1.4275  0.5667 -3.0665
  238MOL0     H32115   1.618   2.640   6.815 -1.3234 -2.2264 -0.2550
  238MOL0     H32116   1.494   2.212   6.871  0.7150  1.5766 -0.3406
  238MOL0     H32117   1.302   2.076   6.973 -2.5793 -2.0066  0.3436
  238MOL0     H32118   0.975   1.906   6.954  1.2338 -1.4273  0.6040
  238MOL0     H32119   1.126   1.949   7.000  0.1802  1.0004 -0.6072
  238MOL0     H32120   1.208   1.940   6.772 -0.7758  1.7654  1.4988
  238MOL0     H32121   1.039   1.900   6.715  0.8086  3.5035  0.3139
  238MOL0     H32122   1.204   1.725   6.906 -0.5239  0.3019  0.3873
  238MOL0     H32123   1.220   1.709   6.731  0.6535 -1.5052  1.4541
  238MOL0     H32124   0.961   1.679   6.735 -0.3083 -0.4403  0.4551
  238MOL0     H32125   1.070   1.550   6.801  4.6427  0.5465  0.3744
  238MOL0     H32126   0.803   1.669   7.104  1.3927  1.8189  2.1064
  238MOL0     H32127   1.026   2.327   6.787 -0.5726  0.1408  1.4194
  238MOL0     H32128   1.243   2.489   6.570  1.6208 -1.5577  0.5142
  238MOL0     H32129   1.088   2.504   6.658  0.2953 -4.2481 -3.1732
  238MOL0     H32130   1.239   2.597   6.714 -0.9963  1.6821 -3.0365
  239MOL0     O32131   2.806   3.973  10.916  0.4297  0.7859  0.1896
  239MOL0     C32132   2.772   4.006  11.023  0.6430  0.5996 -0.4650
  239MOL0     O32133   2.838   4.090  11.112  0.1754 -0.5850 -0.1192
  239MOL0     C32134   2.971   4.124  11.077  0.0919  0.5158 -0.1076
  239MOL0     C32135   3.020   4.249  11.082 -0.2343 -0.2478  0.3754
  239MOL0     C32136   3.155   4.283  11.046  0.2148  0.2207  0.2217
  239MOL0     C32137   3.250   4.189  11.007 -0.3614  0.0919  0.2986
  239MOL0     O32138   3.384   4.222  10.972 -0.0739  0.2756  0.6452
  239MOL0     C32139   3.467   4.117  10.920  0.0916  0.1641 -0.1924
  239MOL0     C32140   3.605   4.173  10.896 -0.2200 -0.2261 -1.5087
  239MOL0     C32141   3.647   4.260  11.018 -0.0882 -0.3329 -0.0804
  239MOL0     C32142   3.794   4.268  11.017  0.0014 -0.4998  0.4025
  239MOL0     C32143   3.862   4.350  11.124 -0.0229  0.0094 -0.0132
  239MOL0     C32144   3.805   4.495  11.127 -0.3842 -0.1097  0.0341
  239MOL0     C32145   3.907   4.597  11.177 -0.8182 -0.0044 -0.9283
  239MOL0     C32146   3.951   4.570  11.323 -0.0235 -0.5174  0.5017
  239MOL0     N32147   4.066   4.643  11.356 -0.1828 -0.4361  0.0431
  239MOL0     C32148   4.059   4.775  11.388 -0.0991 -0.2230 -0.1239
  239MOL0     C32149   4.175   4.804  11.449  0.1629  0.7956 -0.5408
  239MOL0     C32150   4.207   4.935  11.512  0.2391  0.3840  0.4788
  239MOL0     C32151   4.348   4.984  11.477 -1.0649 -0.3817 -0.1674
  239MOL0     C32152   4.371   5.098  11.574  0.4644 -0.5139  0.4405
  239MOL0     C32153   4.524   5.125  11.604 -0.4232  0.5434  0.1981
  239MOL0     O32154   4.535   5.247  11.680 -0.2916  0.1969 -0.3633
  239MOL0     C32155   4.655   5.275  11.731  0.8453 -0.0458 -0.0154
  239MOL0     C32156   4.769   5.190  11.735 -1.2202  0.6947  0.3096
  239MOL0     C32157   4.895   5.241  11.773  0.6033  0.2944  0.6059
  239MOL0     C32158   4.911   5.370  11.823  0.5218  0.9849 -0.1737
  239MOL0     C32159   5.046   5.433  11.828 -0.0370 -0.6208 -0.1137
  239MOL0     O32160   5.058   5.568  11.839  0.1720 -0.5701  0.6168
  239MOL0     C32161   5.177   5.627  11.814  0.0990  0.4145  0.0097
  239MOL0     C32162   5.167   5.764  11.788  0.1677  1.2117 -0.6492
  239MOL0     C32163   5.276   5.850  11.759  0.6303  0.2113  0.8323
  239MOL0     C32164   5.407   5.799  11.772 -0.0123  0.1813 -0.4775
  239MOL0     O32165   5.504   5.887  11.735  0.7009  1.1324 -0.0000
  239MOL0     C32166   5.637   5.857  11.757 -0.3935  0.8489  1.0014
  239MOL0     C32167   5.713   5.990  11.725  0.8940  0.0816  0.4062
  239MOL0     C32168   5.839   6.010  11.809  0.3895  0.0005  0.3468
  239MOL0     C32169   5.940   5.893  11.804 -0.5694 -0.7981  1.1583
  239MOL0     C32170   6.063   5.934  11.894  0.4599  0.3449 -0.3772
  239MOL0     C32171   6.167   5.820  11.895 -0.0505  0.6249 -0.4310
  239MOL0     C32172   6.249   5.825  11.761  0.1976 -0.2952 -0.5834
  239MOL0     C32173   6.397   5.763  11.774 -0.0060  0.1360  0.1389
  239MOL0    Cl32174   6.502   5.872  11.866  0.2002 -0.0022  0.0703
  239MOL0     C32175   5.427   5.662  11.798  0.8468  0.2896 -0.2103
  239MOL0     C32176   5.313   5.586  11.818 -0.6188  0.2372  0.7710
  239MOL0     O32177   5.144   5.354  11.820 -0.6096  0.3093 -0.2489
  239MOL0     C32178   4.789   5.439  11.853 -0.1204  0.0902 -1.0907
  239MOL0     C32179   4.669   5.402  11.794  0.3266 -0.4429  0.4968
  239MOL0     N32180   4.247   4.691  11.454 -0.1980  0.3418 -0.2438
  239MOL0     N32181   4.184   4.594  11.402 -1.0995  0.9364 -0.2575
  239MOL0     C32182   3.201   4.056  10.994  0.4244  0.0151 -0.4664
  239MOL0     C32183   3.065   4.025  11.027 -0.2601  0.3893  0.4357
  239MOL0     C32184   2.643   3.949  11.076 -0.8608 -0.1731 -0.6020
  239MOL0     C32185   2.646   3.904  11.209  0.3352 -0.5287  0.7587
  239MOL0     C32186   2.543   3.826  11.262  0.1836 -0.0027  0.5826
  239MOL0     C32187   2.422   3.822  11.188  0.5789  0.0374 -0.4904
  239MOL0     O32188   2.312   3.756  11.243  0.1076 -0.4391 -0.1951
  239MOL0     C32189   2.328   3.699  11.379  0.3962  0.2768 -0.3694
  239MOL0     C32190   2.206   3.600  11.401 -0.6695  0.1481  0.9581
  239MOL0     C32191   2.237   3.456  11.370  0.2054 -0.2856 -0.4227
  239MOL0     C32192   2.124   3.364  11.422  0.1476 -0.1002 -0.1757
  239MOL0     C32193   2.111   3.231  11.358  0.6090  0.6536  0.1031
  239MOL0     C32194   2.107   3.124  11.305 -0.9179  0.3814 -0.1460
  239MOL0     C32195   2.414   3.873  11.059 -0.0369  0.0053 -0.4033
  239MOL0     C32196   2.528   3.935  10.998  0.6159 -0.4478  0.4688
  239MOL0     C32197   2.505   3.991  10.859 -0.1245 -0.4357  0.3398
  239MOL0     H32198   2.961   4.334  11.115  1.5313  1.1421  0.0989
  239MOL0     H32199   3.182   4.388  11.058 -2.9362  1.0453  1.0506
  239MOL0     H32200   3.466   4.027  10.982  2.3415 -0.1295 -0.4813
  239MOL0     H32201   3.435   4.083  10.820  0.7247  3.4166 -1.6283
  239MOL0     H32202   3.607   4.222  10.798 -0.8515 -0.9349 -1.8916
  239MOL0     H32203   3.675   4.089  10.894 -1.2343 -1.2600  1.1116
  239MOL0     H32204   3.615   4.221  11.115  2.0888 -0.5010  0.6268
  239MOL0     H32205   3.600   4.359  11.010 -0.4682 -0.3885  1.3612
  239MOL0     H32206   3.828   4.166  11.040 -1.0164 -0.7411  0.9113
  239MOL0     H32207   3.829   4.305  10.921 -2.2262  1.0047  0.0970
  239MOL0     H32208   3.848   4.300  11.220 -1.5502 -1.3280 -0.8933
  239MOL0     H32209   3.969   4.363  11.102  0.3485 -1.0089  1.1083
  239MOL0     H32210   3.775   4.522  11.025 -2.6669 -1.8184  0.1939
  239MOL0     H32211   3.714   4.491  11.187 -0.9929  1.0045 -0.7711
  239MOL0     H32212   3.872   4.700  11.159 -1.8160 -0.7419 -3.6665
  239MOL0     H32213   3.993   4.583  11.111  0.1418 -1.1816  0.5184
  239MOL0     H32214   3.878   4.582  11.404  0.1265 -1.2751  0.7534
  239MOL0     H32215   3.982   4.465  11.317 -1.9723 -1.1353  0.6362
  239MOL0     H32216   3.970   4.837  11.380 -1.3462 -1.7091  1.5536
  239MOL0     H32217   4.133   5.013  11.491  0.6926  0.9843  1.0768
  239MOL0     H32218   4.198   4.908  11.618  0.7986  1.6176  0.8553
  239MOL0     H32219   4.424   4.907  11.487  2.4149  2.5255 -1.9321
  239MOL0     H32220   4.350   5.021  11.374 -0.7374  1.1558  0.3622
  239MOL0     H32221   4.324   5.066  11.667  1.7761 -1.5799  0.7695
  239MOL0     H32222   4.321   5.187  11.534 -2.4328 -1.1402  2.3449
  239MOL0     H32223   4.582   5.126  11.511 -0.7642  3.9352 -0.1003
  239MOL0     H32224   4.546   5.035  11.662 -1.1696 -1.6211 -2.6230
  239MOL0     H32225   4.772   5.088  11.697  0.6702  0.6731  0.4181
  239MOL0     H32226   4.976   5.169  11.765 -2.2984 -3.3655  1.2499
  239MOL0     H32227   5.064   5.796  11.773 -0.3121  0.5363  0.9464
  239MOL0     H32228   5.261   5.950  11.719  2.9707 -0.6875 -2.7906
  239MOL0     H32229   5.669   5.825  11.857  1.5257  0.2521  0.2463
  239MOL0     H32230   5.664   5.774  11.691 -0.8772  1.6936 -0.2986
  239MOL0     H32231   5.752   5.987  11.623 -1.3118  0.9259 -0.5380
  239MOL0     H32232   5.650   6.080  11.726  0.5898 -0.1233 -0.0169
  239MOL0     H32233   5.885   6.094  11.757 -0.4834 -0.8217 -1.8794
  239MOL0     H32234   5.806   6.039  11.909 -1.4728  1.9995 -0.7798
  239MOL0     H32235   5.972   5.865  11.704  3.3158 -3.6136  2.9133
  239MOL0     H32236   5.887   5.809  11.849 -2.5022  0.0884  0.6460
  239MOL0     H32237   6.030   5.940  11.997  2.8268 -0.6631  0.5224
  239MOL0     H32238   6.112   6.027  11.862  0.5221  0.2966 -0.4227
  239MOL0     H32239   6.236   5.826  11.980  1.6418  0.9123 -1.7549
  239MOL0     H32240   6.118   5.723  11.903  1.2304 -0.2144 -1.9625
  239MOL0     H32241   6.260   5.927  11.724  3.3979  0.1796  1.3553
  239MOL0     H32242   6.189   5.767  11.689  1.2043 -0.2772 -1.4552
  239MOL0     H32243   6.392   5.659  11.807  1.8275 -1.1194 -3.0322
  239MOL0     H32244   6.428   5.753  11.669 -3.1829 -2.1522 -0.7422
  239MOL0     H32245   5.527   5.621  11.791  0.5227 -0.4101 -0.8617
  239MOL0     H32246   5.334   5.485  11.853 -0.2457 -0.6921 -1.8656
  239MOL0     H32247   4.798   5.537  11.898 -0.6533 -0.3788  0.0871
  239MOL0     H32248   4.589   5.475  11.799  1.0017  0.2130  2.5408
  239MOL0     H32249   3.258   3.970  10.961  0.7844  0.8158 -2.0152
  239MOL0     H32250   3.028   3.923  11.019  0.1584  0.3740 -3.2781
  239MOL0     H32251   2.735   3.926  11.267 -0.3655 -1.6945  2.3341
  239MOL0     H32252   2.560   3.795  11.364 -0.6978 -0.5005  0.5853
  239MOL0     H32253   2.323   3.780  11.452  1.9076  0.8502 -0.8793
  239MOL0     H32254   2.423   3.646  11.387  0.0180 -0.7159 -1.9718
  239MOL0     H32255   2.127   3.630  11.331  1.1670  1.1260 -0.8015
  239MOL0     H32256   2.177   3.618  11.505 -0.8911 -0.3595  0.9885
  239MOL0     H32257   2.332   3.439  11.423  0.4993  0.4898 -0.6917
  239MOL0     H32258   2.263   3.437  11.266 -0.2417  1.8912 -0.9920
  239MOL0     H32259   2.133   3.361  11.531  0.8520  1.8332 -0.1413
  239MOL0     H32260   2.037   3.427  11.402 -0.2556  0.1219  2.0051
  239MOL0     H32261   2.094   3.029  11.257 -1.3391  0.7022 -0.6706
  239MOL0     H32262   2.323   3.845  11.006  0.8910 -1.2188 -1.3982
  239MOL0     H32263   2.555   4.087  10.843 -1.4766  0.2550  0.0796
  239MOL0     H32264   2.556   3.925  10.789 -0.5106 -0.6067  0.2182
  239MOL0     H32265   2.396   3.997  10.845 -0.2965 -1.2015  1.2633
  240MOL0     O32266   9.662   9.309   7.433  0.0337 -0.5634  0.3087
  240MOL0     C32267   9.614   9.423   7.432 -0.9254 -0.8495 -0.1311
  240MOL0     O32268   9.666   9.532   7.365  0.4692  0.2815 -0.2770
  240MOL0     C32269   9.769   9.504   7.281 -0.0102 -0.3901 -0.4225
  240MOL0     C32270   9.894   9.503   7.341  0.2621  0.6840 -0.0699
  240MOL0     C32271  10.011   9.483   7.264  0.7669 -1.6518 -0.8040
  240MOL0     C32272  10.010   9.478   7.127 -0.5218  0.7594 -0.8102
  240MOL0     O32273  10.138   9.472   7.070 -0.3619 -0.0885 -0.0038
  240MOL0     C32274  10.138   9.498   6.933 -0.0613 -0.1815  0.1020
  240MOL0     C32275  10.282   9.505   6.867 -0.4923  0.9341  0.5274
  240MOL0     C32276  10.274   9.544   6.723 -0.1240 -0.5619  0.6497
  240MOL0     C32277  10.364   9.458   6.632 -0.4159  0.3311 -1.3918
  240MOL0     C32278  10.325   9.495   6.495  0.5849 -0.5014  0.3648
  240MOL0     C32279  10.408   9.431   6.390 -0.2896 -0.0247  0.2270
  240MOL0     C32280  10.364   9.486   6.250  0.7776  0.2520  0.3459
  240MOL0     C32281  10.403   9.405   6.138 -0.2543  0.4659  0.1110
  240MOL0     N32282  10.548   9.379   6.120 -0.3103  0.3426 -0.1923
  240MOL0     C32283  10.649   9.474   6.113 -1.0089  0.4172 -0.9241
  240MOL0     C32284  10.761   9.402   6.120  0.6077  0.0280  0.5514
  240MOL0     C32285  10.900   9.462   6.121  1.1578 -0.4665  0.0903
  240MOL0     C32286  10.933   9.545   5.995 -0.1176  0.5435  0.3554
  240MOL0     C32287  11.076   9.539   5.945 -0.0182 -0.4263 -0.5940
  240MOL0     C32288  11.175   9.604   6.040 -0.6534  0.1935  0.2704
  240MOL0     O32289  11.300   9.588   5.965  0.0932 -0.8007  0.3222
  240MOL0     C32290  11.396   9.668   6.016 -0.3840 -0.2270  0.4804
  240MOL0     C32291  11.459   9.636   6.137  0.4154  0.2857  0.6073
  240MOL0     C32292  11.556   9.719   6.192  0.5044 -0.1039  0.5744
  240MOL0     C32293  11.600   9.834   6.134  0.4218 -0.0265  0.2696
  240MOL0     C32294  11.677   9.939   6.202 -0.0716 -0.0413  1.1196
  240MOL0     O32295  11.653  10.068   6.148  0.8457  0.4192 -0.6675
  240MOL0     C32296  11.726  10.162   6.206  0.6443 -0.0473 -0.0150
  240MOL0     C32297  11.866  10.166   6.203 -0.2034  1.1637 -0.3362
  240MOL0     C32298  11.939  10.260   6.272 -0.6072  0.2127 -0.5254
  240MOL0     C32299  11.879  10.382   6.322  0.1281  0.8432 -0.1111
  240MOL0     O32300  11.955  10.476   6.389 -0.4263 -0.2500 -0.0242
  240MOL0     C32301  12.069  10.439   6.458 -0.2368 -0.6334 -0.1621
  240MOL0     C32302  12.088  10.541   6.572  0.7361 -0.3410 -0.3913
  240MOL0     C32303  12.103  10.691   6.526  1.2405  0.2809  0.2712
  240MOL0     C32304  12.221  10.706   6.429 -0.6311  0.0548 -0.2902
  240MOL0     C32305  12.269  10.850   6.422  0.0091  0.3650 -0.0802
  240MOL0     C32306  12.348  10.895   6.550  0.8782  0.1904 -0.1401
  240MOL0     C32307  12.425  11.027   6.533 -0.5383 -0.3343  0.8665
  240MOL0     C32308  12.542  11.042   6.631 -0.7799 -0.3107 -0.1510
  240MOL0    Cl32309  12.481  11.073   6.800  0.4370  0.3287 -0.1022
  240MOL0     C32310  11.739  10.384   6.318 -0.2273 -0.2509  0.7576
  240MOL0     C32311  11.667  10.272   6.262  0.2639  0.1404 -0.0781
  240MOL0     O32312  11.746   9.906   6.298 -0.8520 -0.5292 -0.6153
  240MOL0     C32313  11.545   9.866   6.004 -0.5817  0.2304 -0.2810
  240MOL0     C32314  11.441   9.783   5.951 -0.4946 -0.2676 -0.3375
  240MOL0     N32315  10.732   9.270   6.127  0.8697  0.1137 -0.7289
  240MOL0     N32316  10.604   9.254   6.127 -0.1809 -0.4410 -0.4491
  240MOL0     C32317   9.884   9.493   7.063 -0.6802 -0.0465  0.1090
  240MOL0     C32318   9.765   9.494   7.137  0.1016 -0.2241  1.2380
  240MOL0     C32319   9.478   9.447   7.488 -1.3537 -0.3239 -0.1101
  240MOL0     C32320   9.423   9.579   7.483 -0.3353  0.7233  0.4895
  240MOL0     C32321   9.285   9.601   7.529  0.1307 -0.1794  1.1682
  240MOL0     C32322   9.202   9.493   7.563  0.6614 -0.8213 -0.1153
  240MOL0     O32323   9.066   9.509   7.604 -0.1154 -0.7572  0.8067
  240MOL0     C32324   8.982   9.608   7.533 -0.2526 -0.6351 -0.3485
  240MOL0     C32325   8.843   9.546   7.495 -0.1576  0.2127 -0.9965
  240MOL0     C32326   8.759   9.649   7.411 -0.0877  0.6746 -0.3744
  240MOL0     C32327   8.623   9.578   7.386  0.2255 -0.4878  0.0687
  240MOL0     C32328   8.531   9.640   7.290  0.3992 -0.4173  0.2383
  240MOL0     C32329   8.473   9.695   7.201 -0.7109 -0.4526 -0.5691
  240MOL0     C32330   9.256   9.367   7.571 -1.2539  0.3659  0.5205
  240MOL0     C32331   9.393   9.337   7.532 -0.4946 -0.1544  0.1350
  240MOL0     C32332   9.442   9.200   7.547 -0.3712  0.3377 -0.4006
  240MOL0     H32333   9.903   9.509   7.449  0.0784  0.1423 -0.0175
  240MOL0     H32334  10.103   9.488   7.321  0.0718 -0.6873  0.2793
  240MOL0     H32335  10.077   9.419   6.888  0.3722 -0.3323 -0.2224
  240MOL0     H32336  10.085   9.590   6.906  2.8071  1.3014 -0.9301
  240MOL0     H32337  10.345   9.416   6.883  1.2590  1.7919 -1.1694
  240MOL0     H32338  10.331   9.579   6.930 -0.6794 -0.4302  2.3536
  240MOL0     H32339  10.308   9.647   6.708  2.0485 -1.5368 -1.9639
  240MOL0     H32340  10.170   9.529   6.695 -0.5536  2.5993  0.2168
  240MOL0     H32341  10.467   9.484   6.656 -1.3029  0.7508  2.5968
  240MOL0     H32342  10.356   9.349   6.640  0.4260  0.3638  0.1226
  240MOL0     H32343  10.218   9.480   6.476  0.5971 -0.2850  0.1297
  240MOL0     H32344  10.341   9.603   6.486 -1.5469  0.2619  3.7481
  240MOL0     H32345  10.514   9.450   6.408  0.4451 -0.8194 -2.7088
  240MOL0     H32346  10.393   9.323   6.400 -2.2982  0.3295  1.6890
  240MOL0     H32347  10.395   9.589   6.230  0.9065 -0.0564 -1.1982
  240MOL0     H32348  10.256   9.496   6.236  1.0035  1.2763 -0.7975
  240MOL0     H32349  10.358   9.306   6.151 -1.3656  0.4915 -2.7117
  240MOL0     H32350  10.359   9.444   6.046 -0.8737  1.8057  0.9526
  240MOL0     H32351  10.631   9.581   6.106 -0.7985  0.4443 -1.0568
  240MOL0     H32352  10.917   9.520   6.212  3.4147 -1.3922  0.3318
  240MOL0     H32353  10.971   9.379   6.114  1.2748 -0.2941 -0.8113
  240MOL0     H32354  10.873   9.513   5.909  2.3925 -0.3813 -1.1600
  240MOL0     H32355  10.897   9.648   6.004 -1.7145  0.1792 -1.2403
  240MOL0     H32356  11.075   9.606   5.858 -0.9181 -2.1729 -1.9980
  240MOL0     H32357  11.114   9.444   5.905  2.6208  0.3699 -0.1700
  240MOL0     H32358  11.182   9.554   6.137 -2.0809 -0.6820 -0.0532
  240MOL0     H32359  11.138   9.706   6.054 -1.3971 -0.2864  1.9418
  240MOL0     H32360  11.424   9.549   6.191  0.2277 -0.3644 -0.5303
  240MOL0     H32361  11.594   9.681   6.287  0.0313 -2.5384 -0.1258
  240MOL0     H32362  11.916  10.074   6.176  0.0745  1.3818 -0.5753
  240MOL0     H32363  12.048  10.253   6.271 -0.5009  0.7499  1.5690
  240MOL0     H32364  12.061  10.337   6.495 -0.4400 -0.9293 -0.9929
  240MOL0     H32365  12.150  10.440   6.385  0.8194  0.9990  0.9590
  240MOL0     H32366  11.996  10.540   6.631  2.3753  0.6149  2.3760
  240MOL0     H32367  12.168  10.512   6.641 -0.0408  2.2955  1.7387
  240MOL0     H32368  12.017  10.714   6.462  2.0503 -1.1923 -1.4293
  240MOL0     H32369  12.097  10.754   6.615  1.3321  0.7710 -0.0660
  240MOL0     H32370  12.195  10.665   6.331  0.3529  0.8530 -0.9083
  240MOL0     H32371  12.303  10.644   6.463 -2.0658 -1.0932  1.2390
  240MOL0     H32372  12.191  10.926   6.410 -0.5733 -0.1609  0.3053
  240MOL0     H32373  12.335  10.855   6.335 -1.0000 -0.0091 -0.8903
  240MOL0     H32374  12.278  10.897   6.634 -4.1774 -0.5891 -3.8116
  240MOL0     H32375  12.428  10.822   6.567  0.3544 -0.6828 -1.2982
  240MOL0     H32376  12.372  11.123   6.535  2.1513  1.2622  0.0741
  240MOL0     H32377  12.457  11.041   6.429  3.4606  3.0246  2.2960
  240MOL0     H32378  12.609  10.957   6.619  0.8715  0.9536 -0.2068
  240MOL0     H32379  12.588  11.137   6.603 -4.2997  2.2105  1.7497
  240MOL0     H32380  11.696  10.463   6.378  1.7647  0.3433  1.4839
  240MOL0     H32381  11.559  10.276   6.270  0.1525  3.0378 -1.7451
  240MOL0     H32382  11.573   9.953   5.946 -0.9114 -0.7184 -1.9292
  240MOL0     H32383  11.391   9.802   5.856  0.6367 -2.3012 -1.4312
  240MOL0     H32384   9.882   9.492   6.954  2.0029  1.3336 -0.0318
  240MOL0     H32385   9.674   9.491   7.078  0.7706  1.4691  0.0459
  240MOL0     H32386   9.474   9.665   7.439 -0.6402 -0.9166 -3.5248
  240MOL0     H32387   9.231   9.695   7.536 -4.8245 -2.3409 -2.2128
  240MOL0     H32388   9.021   9.639   7.435  1.3394 -0.5565  0.2777
  240MOL0     H32389   8.970   9.694   7.599  0.3604 -1.3101  0.6849
  240MOL0     H32390   8.781   9.522   7.582  1.2597 -2.0201 -0.5211
  240MOL0     H32391   8.875   9.460   7.434  5.9761  2.7188 -2.1120
  240MOL0     H32392   8.813   9.668   7.317  0.8632 -0.3203 -0.0602
  240MOL0     H32393   8.749   9.746   7.460 -0.5907  0.4048  0.0675
  240MOL0     H32394   8.648   9.476   7.355 -2.2164 -0.9152 -0.7055
  240MOL0     H32395   8.572   9.566   7.481 -0.0383  2.6000  0.4401
  240MOL0     H32396   8.418   9.728   7.116 -1.4425 -2.7636 -1.0707
  240MOL0     H32397   9.209   9.280   7.616  0.6030 -0.0168  1.8157
  240MOL0     H32398   9.481   9.160   7.453 -1.9573 -1.3049 -0.4003
  240MOL0     H32399   9.513   9.199   7.630 -0.4088  0.0842 -0.3721
  240MOL0     H32400   9.358   9.133   7.569  1.2339 -1.4415  0.5513
  241MOL0     O32401   0.626   6.956  10.354 -0.5690 -0.4715 -0.0940
  241MOL0     C32402   0.710   7.030  10.300  0.5629 -0.3076 -0.2119
  241MOL0     O32403   0.839   6.996  10.281 -0.0242  0.3928 -0.4702
  241MOL0     C32404   0.914   6.913  10.359 -0.3708 -0.0992  0.3444
  241MOL0     C32405   0.878   6.901  10.499 -0.6018  0.6777 -0.4816
  241MOL0     C32406   0.959   6.828  10.586  0.4149 -0.5271  0.7362
  241MOL0     C32407   1.073   6.763  10.541  0.7085 -0.1743 -0.8688
  241MOL0     O32408   1.156   6.695  10.620  0.4260 -0.2696 -0.1164
  241MOL0     C32409   1.178   6.733  10.755 -0.5614  0.1755  0.1034
  241MOL0     C32410   1.283   6.648  10.837  0.7216 -0.3964  0.7046
  241MOL0     C32411   1.424   6.636  10.776 -0.2987  0.6623  0.0568
  241MOL0     C32412   1.511   6.758  10.802 -0.8590 -1.0831 -0.7857
  241MOL0     C32413   1.649   6.738  10.731  0.3757 -1.1440  0.8690
  241MOL0     C32414   1.692   6.847  10.636  0.0306  0.1424 -0.1692
  241MOL0     C32415   1.831   6.830  10.581 -0.0195 -0.1772  0.4174
  241MOL0     C32416   1.841   6.933  10.468 -0.1446 -0.4591  0.0105
  241MOL0     N32417   1.975   6.934  10.422 -0.3889 -0.0457  0.0206
  241MOL0     C32418   2.025   6.838  10.339  0.9908 -0.4410 -0.9387
  241MOL0     C32419   2.155   6.868  10.328 -1.1300 -0.3125  0.5624
  241MOL0     C32420   2.265   6.805  10.249  0.7222  0.2163 -0.7532
  241MOL0     C32421   2.252   6.842  10.099 -0.1094  0.4165  0.3546
  241MOL0     C32422   2.253   6.997  10.073  0.8529  0.9285  0.5153
  241MOL0     C32423   2.366   7.066  10.138  0.4183  0.1135  0.7059
  241MOL0     O32424   2.481   6.984  10.109 -0.7315  0.8057 -0.1565
  241MOL0     C32425   2.604   7.006  10.174  0.0378 -0.6322  0.5119
  241MOL0     C32426   2.719   7.019  10.095 -0.5027 -0.0537 -0.5710
  241MOL0     C32427   2.838   7.050  10.158 -0.2260 -0.4719  0.0366
  241MOL0     C32428   2.848   7.066  10.300  0.0496  0.2304 -0.2634
  241MOL0     C32429   2.973   7.112  10.361  0.4771  1.4183  0.1064
  241MOL0     O32430   2.978   7.135  10.495  0.2163  0.2194  0.4037
  241MOL0     C32431   3.094   7.169  10.546 -0.5611  0.3114  0.3777
  241MOL0     C32432   3.198   7.077  10.559 -0.1055 -0.0446 -1.0385
  241MOL0     C32433   3.320   7.111  10.614 -0.8356  0.1416  0.1291
  241MOL0     C32434   3.353   7.237  10.655 -0.1223  0.0792 -0.2069
  241MOL0     O32435   3.475   7.290  10.695 -0.2867  0.7561 -0.0303
  241MOL0     C32436   3.592   7.204  10.717  0.3843  0.8808  0.1141
  241MOL0     C32437   3.676   7.218  10.593  0.5307 -0.1330  0.7013
  241MOL0     C32438   3.827   7.188  10.622  0.3011 -0.3817 -0.2119
  241MOL0     C32439   3.927   7.303  10.596  0.8335  0.0438  0.4919
  241MOL0     C32440   4.078   7.273  10.600 -0.3815  0.9571 -0.1554
  241MOL0     C32441   4.128   7.222  10.739  0.9848  0.2837  1.3423
  241MOL0     C32442   4.105   7.325  10.846  0.1898 -1.0150 -0.0265
  241MOL0     C32443   4.177   7.282  10.972  0.4233 -0.1560  0.5575
  241MOL0    Cl32444   4.342   7.339  10.963 -0.1191  0.0402 -0.1983
  241MOL0     C32445   3.248   7.331  10.637 -0.9948  0.4244  0.3872
  241MOL0     C32446   3.126   7.300  10.578 -0.7046  0.5669  0.3109
  241MOL0     O32447   3.064   7.140  10.286 -0.2326 -0.3948 -0.4137
  241MOL0     C32448   2.731   7.049  10.377 -0.7678  0.3107 -0.0841
  241MOL0     C32449   2.613   7.016  10.318 -0.2196  0.0704  1.1786
  241MOL0     N32450   2.175   6.996  10.393 -0.1272  1.1165  0.1387
  241MOL0     N32451   2.067   7.026  10.458  0.0916 -0.6990  0.0057
  241MOL0     C32452   1.103   6.776  10.404  0.2004 -0.8966 -1.3029
  241MOL0     C32453   1.028   6.848  10.307  0.9471  0.0867  0.2900
  241MOL0     C32454   0.668   7.154  10.233  0.0475 -0.5366  0.5336
  241MOL0     C32455   0.750   7.204  10.133 -0.0567 -0.3996 -0.3770
  241MOL0     C32456   0.719   7.315  10.060  0.3619  0.2888 -0.8273
  241MOL0     C32457   0.599   7.385  10.088 -0.6937 -0.0643 -0.9489
  241MOL0     O32458   0.564   7.494  10.016  0.1293  0.1258 -0.4245
  241MOL0     C32459   0.438   7.566  10.035  1.0958  0.1706  0.2685
  241MOL0     C32460   0.312   7.498   9.971  1.2313  0.6553  0.5633
  241MOL0     C32461   0.193   7.589   9.943 -0.5367  0.0503 -0.3045
  241MOL0     C32462   0.222   7.697   9.845  0.1427  0.1781  0.2097
  241MOL0     C32463   0.127   7.697   9.736  0.2420 -0.3038  0.3483
  241MOL0     C32464   0.029   7.686   9.659 -0.4949  0.1848  0.3222
  241MOL0     C32465   0.509   7.332  10.175  0.4666  0.4600  0.8140
  241MOL0     C32466   0.542   7.213  10.248 -0.7480 -0.5227 -1.0544
  241MOL0     C32467   0.425   7.166  10.335  0.2136 -0.2944 -0.0132
  241MOL0     H32468   0.789   6.954  10.531 -0.5814  3.1695 -3.9686
  241MOL0     H32469   0.920   6.824  10.688  0.8534 -5.5125  0.9574
  241MOL0     H32470   1.208   6.837  10.774  1.5022 -0.8775  3.6251
  241MOL0     H32471   1.079   6.721  10.800 -0.8519 -2.1893 -1.0095
  241MOL0     H32472   1.246   6.549  10.862 -1.7871  0.4545  0.6262
  241MOL0     H32473   1.297   6.694  10.935  2.0359 -2.6682  1.6473
  241MOL0     H32474   1.416   6.598  10.674 -0.3380  0.0855  0.2668
  241MOL0     H32475   1.483   6.569  10.839  0.9957  2.9369  1.3918
  241MOL0     H32476   1.468   6.851  10.763  2.5447 -0.4836 -3.7173
  241MOL0     H32477   1.529   6.776  10.908 -3.3779  0.8709 -0.6095
  241MOL0     H32478   1.728   6.708  10.800  1.6583  2.8189  1.3726
  241MOL0     H32479   1.642   6.654  10.662  4.5407 -1.4632  0.5734
  241MOL0     H32480   1.617   6.856  10.557 -0.9227 -0.8692  0.5853
  241MOL0     H32481   1.693   6.943  10.688 -0.6257 -1.5714  3.3132
  241MOL0     H32482   1.847   6.729  10.543  0.4284 -0.1393  0.4936
  241MOL0     H32483   1.907   6.844  10.659  0.8671  2.0431 -0.7381
  241MOL0     H32484   1.780   6.908  10.381  1.1149 -3.5216 -0.1249
  241MOL0     H32485   1.812   7.030  10.511  0.5975 -0.7229  1.1737
  241MOL0     H32486   1.967   6.759  10.293  0.1174 -0.6877  0.5343
  241MOL0     H32487   2.360   6.836  10.295 -1.1918  1.9301  2.4068
  241MOL0     H32488   2.261   6.698  10.272  1.4754  0.7296  2.2145
  241MOL0     H32489   2.337   6.792  10.051 -0.0594 -0.9021  1.7415
  241MOL0     H32490   2.165   6.786  10.062  1.4381 -2.4246  0.7126
  241MOL0     H32491   2.155   7.041  10.096 -0.7881 -1.1016 -1.9508
  241MOL0     H32492   2.257   7.010   9.964 -2.9569  1.0793  0.2532
  241MOL0     H32493   2.359   7.079  10.246  1.1177  0.1086  0.7621
  241MOL0     H32494   2.375   7.170  10.106  3.2123  1.3440  4.7156
  241MOL0     H32495   2.716   6.992   9.990 -1.1405 -2.4289 -0.0069
  241MOL0     H32496   2.928   7.042  10.098  1.4892  0.6408  2.3139
  241MOL0     H32497   3.165   6.978  10.527  1.3696 -1.0410  0.3700
  241MOL0     H32498   3.396   7.034  10.613 -3.4610 -2.7527 -3.2791
  241MOL0     H32499   3.654   7.238  10.800 -0.5992 -0.6089  1.5023
  241MOL0     H32500   3.561   7.100  10.730  0.1956  0.9478  0.2066
  241MOL0     H32501   3.639   7.145  10.520  0.9772 -0.9418  1.2681
  241MOL0     H32502   3.656   7.317  10.551 -0.9873 -0.2076  1.2078
  241MOL0     H32503   3.831   7.166  10.729 -1.1235 -0.4786 -0.1497
  241MOL0     H32504   3.849   7.097  10.566 -3.7290 -0.9260 -1.2863
  241MOL0     H32505   3.911   7.391  10.658  2.0213 -1.2249  2.7452
  241MOL0     H32506   3.911   7.343  10.495  1.4959  2.7762  1.3841
  241MOL0     H32507   4.127   7.366  10.572 -0.2696  1.0351  0.2931
  241MOL0     H32508   4.100   7.197  10.525 -1.2568  0.4609  0.0768
  241MOL0     H32509   4.074   7.132  10.768  3.0616 -2.3069 -2.0039
  241MOL0     H32510   4.234   7.195  10.731  0.5051 -1.6237  1.0581
  241MOL0     H32511   3.997   7.329  10.862  0.1389 -0.6207 -0.4243
  241MOL0     H32512   4.133   7.423  10.805 -1.8067  0.0191  0.9555
  241MOL0     H32513   4.125   7.318  11.061  0.9222  1.3950  0.2661
  241MOL0     H32514   4.175   7.173  10.973  0.3897 -0.1521  1.1507
  241MOL0     H32515   3.266   7.434  10.667 -1.2855  0.9606 -1.2183
  241MOL0     H32516   3.057   7.380  10.554  1.2584  1.3886 -3.4508
  241MOL0     H32517   2.730   7.077  10.482 -1.8984 -1.3509  0.3901
  241MOL0     H32518   2.524   6.998  10.378 -0.3640 -1.4871  0.5441
  241MOL0     H32519   1.187   6.715  10.372  0.6312 -0.1609 -1.5819
  241MOL0     H32520   1.067   6.867  10.207  1.7732 -2.5046  0.0399
  241MOL0     H32521   0.846   7.158  10.112 -0.9005 -1.4334 -2.1457
  241MOL0     H32522   0.786   7.352   9.983 -1.3687  3.0281 -1.1620
  241MOL0     H32523   0.459   7.657   9.978 -2.8976  2.2192  1.7135
  241MOL0     H32524   0.416   7.600  10.137 -0.1728  1.4536 -0.4068
  241MOL0     H32525   0.281   7.410  10.029  3.3503  0.7348  1.9480
  241MOL0     H32526   0.350   7.465   9.874 -0.6844 -3.1610  0.9134
  241MOL0     H32527   0.166   7.637  10.037 -0.4711 -0.1350 -0.1921
  241MOL0     H32528   0.106   7.535   9.904  0.4883 -1.1260 -1.0405
  241MOL0     H32529   0.211   7.796   9.891 -1.6728 -0.2531  0.7999
  241MOL0     H32530   0.322   7.688   9.803  1.0640  1.1478  2.0481
  241MOL0     H32531  -0.057   7.680   9.596  0.0108 -0.4400 -0.3068
  241MOL0     H32532   0.415   7.382  10.192  1.0463  2.0885 -0.5298
  241MOL0     H32533   0.331   7.191  10.283  0.3882 -3.2840 -1.9940
  241MOL0     H32534   0.419   7.057  10.341  0.4015 -0.2892  0.3124
  241MOL0     H32535   0.436   7.217  10.431 -0.7211 -1.4132  0.7029
  242MOL0     O32536   6.617   4.783   4.095 -0.4014 -0.4837 -0.0105
  242MOL0     C32537   6.680   4.703   4.153 -0.8158 -0.9235 -0.2471
  242MOL0     O32538   6.819   4.703   4.167 -0.4169  0.3761 -0.0136
  242MOL0     C32539   6.889   4.816   4.155 -0.5673 -0.6358  0.0585
  242MOL0     C32540   7.019   4.806   4.096  0.1779  0.4633  0.1034
  242MOL0     C32541   7.097   4.921   4.081  1.5570  0.2090  0.9228
  242MOL0     C32542   7.049   5.046   4.111  0.3121  0.4710 -0.2005
  242MOL0     O32543   7.141   5.148   4.095  0.5971 -0.1137 -0.3081
  242MOL0     C32544   7.112   5.277   4.156 -0.2377 -1.4786 -0.6054
  242MOL0     C32545   7.195   5.382   4.092  0.2690 -1.0548  0.2082
  242MOL0     C32546   7.168   5.396   3.945  0.3499 -0.2684 -0.5890
  242MOL0     C32547   7.232   5.516   3.885 -0.5031 -0.7147  0.6889
  242MOL0     C32548   7.231   5.506   3.727 -0.4731  0.0086  0.3031
  242MOL0     C32549   7.306   5.626   3.664 -0.0888 -0.5519  0.3161
  242MOL0     C32550   7.458   5.626   3.701 -0.3685  0.3525 -0.6553
  242MOL0     C32551   7.534   5.684   3.581 -0.0509 -0.0352  0.1370
  242MOL0     N32552   7.680   5.660   3.609  0.2917  0.0689 -0.9063
  242MOL0     C32553   7.760   5.567   3.549  0.5490  0.5928  0.4710
  242MOL0     C32554   7.877   5.571   3.618  0.8957 -0.5060  0.3905
  242MOL0     C32555   7.972   5.460   3.622 -0.0420 -1.0667  0.0417
  242MOL0     C32556   8.011   5.412   3.475  0.5113  0.7235 -0.1099
  242MOL0     C32557   8.092   5.512   3.400 -1.0592  0.8244 -0.5769
  242MOL0     C32558   8.245   5.492   3.435  0.0601 -1.1886  0.1791
  242MOL0     O32559   8.312   5.617   3.415 -0.4703 -0.0367 -0.1197
  242MOL0     C32560   8.445   5.611   3.382  0.5415 -0.1328  0.8930
  242MOL0     C32561   8.518   5.733   3.387  0.2947  0.3171 -0.3626
  242MOL0     C32562   8.649   5.737   3.329  0.0522 -0.2506 -0.4261
  242MOL0     C32563   8.711   5.628   3.268 -0.3506 -0.1810  0.3348
  242MOL0     C32564   8.845   5.643   3.201 -0.1623  0.5554 -0.3352
  242MOL0     O32565   8.900   5.522   3.170 -0.3058  0.5092 -0.3440
  242MOL0     C32566   9.037   5.505   3.172  0.4389  0.1813  1.1921
  242MOL0     C32567   9.093   5.407   3.091  0.1371  0.2248  0.0499
  242MOL0     C32568   9.228   5.369   3.120  0.1735  0.1660  0.5536
  242MOL0     C32569   9.309   5.431   3.214 -0.6208  0.9001  0.1006
  242MOL0     O32570   9.439   5.401   3.235 -0.4297  0.5004 -0.3637
  242MOL0     C32571   9.526   5.480   3.162 -0.7678  0.3585 -0.0088
  242MOL0     C32572   9.667   5.421   3.188  1.1636 -0.4535 -0.5251
  242MOL0     C32573   9.745   5.483   3.308  0.2850  0.1125  0.2449
  242MOL0     C32574   9.894   5.452   3.297 -0.8323 -1.0509 -0.4109
  242MOL0     C32575   9.993   5.531   3.390 -0.5378  1.1265 -0.0914
  242MOL0     C32576   9.945   5.496   3.532 -0.5106  0.0878  0.1307
  242MOL0     C32577  10.037   5.553   3.631 -0.1878 -0.5258  0.4454
  242MOL0     C32578  10.007   5.532   3.778 -0.0426 -0.4834 -0.0186
  242MOL0    Cl32579  10.060   5.359   3.822  0.0246  0.3611  0.6014
  242MOL0     C32580   9.254   5.534   3.291  0.0179 -0.5286 -1.6420
  242MOL0     C32581   9.119   5.565   3.275 -0.2159  0.3305  0.3404
  242MOL0     O32582   8.896   5.753   3.190  0.3421  0.0569  0.8134
  242MOL0     C32583   8.634   5.508   3.266 -0.3201  0.4712 -0.4233
  242MOL0     C32584   8.507   5.499   3.319  0.9068  0.1364  0.5834
  242MOL0     N32585   7.869   5.677   3.714  0.5849  0.2178  0.8081
  242MOL0     N32586   7.749   5.725   3.710  0.1789 -1.6142 -0.2793
  242MOL0     C32587   6.914   5.060   4.150 -0.5207 -0.4632 -0.0052
  242MOL0     C32588   6.834   4.944   4.168 -0.5662  0.3653  0.6698
  242MOL0     C32589   6.619   4.570   4.190 -0.6862 -0.0992 -1.2294
  242MOL0     C32590   6.696   4.454   4.169 -0.2701  0.2168 -0.9588
  242MOL0     C32591   6.648   4.330   4.212 -0.0668  0.8451 -0.4085
  242MOL0     C32592   6.518   4.309   4.268 -0.9048  0.0978 -0.1442
  242MOL0     O32593   6.494   4.186   4.323 -0.1985 -0.5909 -0.4284
  242MOL0     C32594   6.357   4.139   4.324  0.0504 -0.0946 -0.3140
  242MOL0     C32595   6.353   3.998   4.253  0.3251  0.0197  1.0011
  242MOL0     C32596   6.220   3.936   4.253  1.0398 -0.4177  0.3513
  242MOL0     C32597   6.223   3.786   4.245  0.1182  0.3565  0.7699
  242MOL0     C32598   6.208   3.744   4.100  0.2311 -0.6190  0.1686
  242MOL0     C32599   6.222   3.707   3.987 -0.1306 -0.2455 -0.2824
  242MOL0     C32600   6.436   4.417   4.264  0.5535  0.0084  0.8317
  242MOL0     C32601   6.480   4.546   4.231 -0.4929 -0.1871  0.0063
  242MOL0     C32602   6.383   4.659   4.232  0.2485  0.1867  0.4173
  242MOL0     H32603   7.059   4.706   4.084  1.5416  0.9619  0.4046
  242MOL0     H32604   7.202   4.907   4.057  1.5738 -1.7241  1.9597
  242MOL0     H32605   7.007   5.308   4.157 -0.2182 -0.5630  5.1982
  242MOL0     H32606   7.145   5.278   4.260  1.1890 -4.2602 -0.9392
  242MOL0     H32607   7.301   5.360   4.111  0.2189 -2.5991 -1.0942
  242MOL0     H32608   7.161   5.473   4.142  1.5173  0.2506 -1.1767
  242MOL0     H32609   7.061   5.409   3.927 -0.1535 -2.3555  0.4761
  242MOL0     H32610   7.201   5.307   3.890  0.5034 -1.2149  0.9708
  242MOL0     H32611   7.182   5.609   3.914 -2.6903 -2.3154  2.3598
  242MOL0     H32612   7.333   5.520   3.929 -0.7446 -0.3160  1.2172
  242MOL0     H32613   7.278   5.408   3.716 -1.0412 -0.7245  3.5125
  242MOL0     H32614   7.134   5.503   3.677 -1.1410 -1.9242  1.6048
  242MOL0     H32615   7.300   5.624   3.554 -1.6275  1.2253  0.3181
  242MOL0     H32616   7.252   5.716   3.695 -0.3978 -1.2898  2.0008
  242MOL0     H32617   7.496   5.527   3.728  2.9164  1.7995  0.6269
  242MOL0     H32618   7.468   5.684   3.794  1.5393 -0.7927 -0.0864
  242MOL0     H32619   7.514   5.629   3.488  0.1544  0.1402 -0.0103
  242MOL0     H32620   7.499   5.787   3.570 -1.3061 -0.0363  3.1216
  242MOL0     H32621   7.741   5.486   3.480 -1.2999 -0.7633  2.4425
  242MOL0     H32622   8.061   5.492   3.678  0.4457 -1.2204 -0.6314
  242MOL0     H32623   7.932   5.370   3.668  1.3982 -3.0835 -2.3935
  242MOL0     H32624   8.065   5.318   3.485  0.8538  0.4285 -3.4449
  242MOL0     H32625   7.919   5.387   3.420 -0.0443 -0.1639  1.1738
  242MOL0     H32626   8.065   5.615   3.427 -2.1360  0.0016  1.7623
  242MOL0     H32627   8.077   5.511   3.292  0.0779  0.6329 -0.7461
  242MOL0     H32628   8.271   5.416   3.361 -0.8750 -3.6546  2.2121
  242MOL0     H32629   8.272   5.468   3.539 -3.1062  2.0852  2.0139
  242MOL0     H32630   8.481   5.806   3.458  1.6549 -1.8680  2.7957
  242MOL0     H32631   8.703   5.830   3.343 -1.1988  0.5818 -0.9747
  242MOL0     H32632   9.040   5.358   3.010 -0.1474 -0.0105  0.3762
  242MOL0     H32633   9.282   5.303   3.053  0.2990  0.0607  0.7591
  242MOL0     H32634   9.510   5.459   3.055  3.4669 -2.5019 -0.3398
  242MOL0     H32635   9.527   5.585   3.191 -0.5869  0.2409  0.4124
  242MOL0     H32636   9.665   5.313   3.199  0.2261 -0.4766 -0.7894
  242MOL0     H32637   9.716   5.438   3.092  1.4254 -0.7782 -0.4476
  242MOL0     H32638   9.747   5.592   3.303  0.3712  0.1116  0.2572
  242MOL0     H32639   9.702   5.437   3.397 -0.0254 -1.3923 -0.6500
  242MOL0     H32640   9.929   5.482   3.198  1.2461  3.6353  1.4733
  242MOL0     H32641   9.913   5.347   3.319 -1.7901 -0.7729  2.0789
  242MOL0     H32642   9.995   5.640   3.380 -0.4851  1.3519  2.0563
  242MOL0     H32643  10.094   5.493   3.377 -0.3668  1.1569  1.0547
  242MOL0     H32644   9.849   5.535   3.566 -0.2531  0.9441 -0.0848
  242MOL0     H32645   9.960   5.389   3.552  2.0032  0.2908 -0.2599
  242MOL0     H32646  10.048   5.661   3.618  0.1816 -0.1532  3.1570
  242MOL0     H32647  10.138   5.515   3.618 -0.7277 -2.6679  1.9254
  242MOL0     H32648  10.076   5.592   3.838 -0.5425  0.0324  0.0348
  242MOL0     H32649   9.904   5.558   3.804 -0.0252 -0.3400 -0.0957
  242MOL0     H32650   9.313   5.585   3.367 -3.0611  0.2417  0.4167
  242MOL0     H32651   9.068   5.626   3.350 -0.2727 -1.5654  1.9338
  242MOL0     H32652   8.689   5.424   3.225 -2.9179 -1.4970 -0.1142
  242MOL0     H32653   8.470   5.399   3.300 -0.0193  0.3772  1.0541
  242MOL0     H32654   6.867   5.156   4.171 -1.0199  0.6726 -5.1402
  242MOL0     H32655   6.730   4.971   4.187 -0.1759  1.2548  1.6307
  242MOL0     H32656   6.800   4.464   4.137  0.3846  0.0763  0.9684
  242MOL0     H32657   6.710   4.242   4.211  0.1355  0.9711  0.6199
  242MOL0     H32658   6.285   4.203   4.272 -3.4366 -1.8622  1.9283
  242MOL0     H32659   6.326   4.135   4.429 -0.3137 -0.7765 -0.4427
  242MOL0     H32660   6.427   3.930   4.297  2.7166  0.5763 -1.8987
  242MOL0     H32661   6.384   4.003   4.149  1.6393 -4.1200  0.9937
  242MOL0     H32662   6.161   3.983   4.173  2.1998 -1.2836 -1.0540
  242MOL0     H32663   6.176   3.962   4.350  2.9799 -0.2713  1.2370
  242MOL0     H32664   6.316   3.739   4.278  1.2209  1.3539 -0.7556
  242MOL0     H32665   6.143   3.746   4.308  0.2203 -2.7232 -0.9239
  242MOL0     H32666   6.234   3.663   3.890 -1.7128 -4.7472  1.2802
  242MOL0     H32667   6.331   4.410   4.290 -0.3061  0.8020 -2.0868
  242MOL0     H32668   6.438   4.746   4.271  0.4683  0.9943 -1.5619
  242MOL0     H32669   6.341   4.672   4.132 -1.9854 -2.3847  0.8950
  242MOL0     H32670   6.297   4.641   4.296  0.3461  0.7036  0.6992
  243MOL0     O32671   7.705  11.321   2.330 -0.2366 -0.4654  0.3555
  243MOL0     C32672   7.656  11.333   2.441 -0.6486 -0.1329 -0.3642
  243MOL0     O32673   7.523  11.362   2.475 -0.0951 -0.7790  0.3969
  243MOL0     C32674   7.447  11.425   2.378 -0.6920  0.8646 -0.0707
  243MOL0     C32675   7.454  11.564   2.354  0.3092  1.0819  0.1214
  243MOL0     C32676   7.375  11.631   2.266 -1.2007 -0.0156 -0.5007
  243MOL0     C32677   7.285  11.554   2.185 -0.6334 -0.4367  0.3523
  243MOL0     O32678   7.204  11.615   2.092 -0.1117 -0.1717  0.3413
  243MOL0     C32679   7.101  11.551   2.015 -0.3559 -0.5244 -0.0740
  243MOL0     C32680   6.984  11.512   2.101  0.1057 -0.8159 -0.9639
  243MOL0     C32681   6.849  11.536   2.044  0.4584  0.2505  1.2160
  243MOL0     C32682   6.843  11.463   1.904  0.3119  0.3458 -0.0676
  243MOL0     C32683   6.704  11.437   1.847 -0.5046  0.0675 -0.0401
  243MOL0     C32684   6.657  11.581   1.801  0.4156  0.0022  0.7774
  243MOL0     C32685   6.528  11.559   1.732 -0.5861  0.8846  1.1305
  243MOL0     C32686   6.485  11.693   1.663  0.4719 -0.9210  0.7225
  243MOL0     N32687   6.357  11.683   1.594 -0.2076 -0.1401  0.2079
  243MOL0     C32688   6.236  11.723   1.646 -0.3398  0.7947  0.8443
  243MOL0     C32689   6.149  11.708   1.551  0.1983  1.1455 -0.1076
  243MOL0     C32690   6.007  11.739   1.585  0.3702  0.2380  0.1673
  243MOL0     C32691   5.964  11.871   1.512 -0.6114  0.1718  0.3557
  243MOL0     C32692   5.825  11.919   1.559 -0.4370  0.1955  0.6834
  243MOL0     C32693   5.826  11.986   1.700 -0.5459  0.1904 -1.1793
  243MOL0     O32694   5.922  12.096   1.693 -0.0305  0.3907  0.0119
  243MOL0     C32695   5.957  12.156   1.812 -0.0500  0.0617 -0.5992
  243MOL0     C32696   6.076  12.124   1.877  0.8530 -1.0128 -0.3130
  243MOL0     C32697   6.101  12.183   2.007 -0.2746 -0.6064 -0.2942
  243MOL0     C32698   6.002  12.267   2.070 -0.9708 -0.3074  0.3263
  243MOL0     C32699   6.042  12.339   2.192  0.7847 -0.5973 -0.2151
  243MOL0     O32700   5.942  12.423   2.248  0.4433 -0.3344  0.0623
  243MOL0     C32701   5.994  12.492   2.346  0.1798  0.2673 -0.0913
  243MOL0     C32702   6.014  12.445   2.477  0.8859 -0.1831 -0.5575
  243MOL0     C32703   6.073  12.522   2.582 -0.4278  0.7480 -0.0011
  243MOL0     C32704   6.113  12.660   2.551  0.6381  1.0155 -0.3844
  243MOL0     O32705   6.176  12.738   2.641 -0.3204 -0.4979  0.8893
  243MOL0     C32706   6.203  12.681   2.774  0.1938 -0.4647  0.0400
  243MOL0     C32707   6.266  12.786   2.859  0.4288 -0.5235  0.1595
  243MOL0     C32708   6.160  12.889   2.911 -0.2026 -0.0304  0.4587
  243MOL0     C32709   6.219  13.029   2.886  0.7197  0.0248 -0.3539
  243MOL0     C32710   6.118  13.140   2.916 -0.8939 -0.0456  0.7716
  243MOL0     C32711   6.115  13.161   3.065 -0.2145 -0.0951 -0.2144
  243MOL0     C32712   6.032  13.276   3.111 -0.1613  0.5952 -0.1697
  243MOL0     C32713   6.117  13.385   3.150  0.0528  0.3463  0.4872
  243MOL0    Cl32714   6.019  13.514   3.238 -0.5423 -0.0733 -0.0284
  243MOL0     C32715   6.101  12.697   2.417  0.8284  0.4258 -0.4034
  243MOL0     C32716   6.024  12.624   2.322  0.5596 -0.6621  0.0146
  243MOL0     O32717   6.158  12.336   2.235 -0.8874  0.0162 -0.1461
  243MOL0     C32718   5.886  12.289   1.999  0.3528 -0.6082  0.1198
  243MOL0     C32719   5.861  12.235   1.872 -0.1796  0.0709 -0.2334
  243MOL0     N32720   6.206  11.655   1.437  0.6024 -0.4929  0.5974
  243MOL0     N32721   6.338  11.655   1.457 -0.2664  0.0629  0.4155
  243MOL0     C32722   7.294  11.411   2.197 -0.1895  0.0666 -0.6930
  243MOL0     C32723   7.363  11.350   2.294 -0.5223  0.4488  0.1690
  243MOL0     C32724   7.748  11.327   2.554 -0.3291  0.0390 -0.3272
  243MOL0     C32725   7.832  11.218   2.557 -0.6231 -0.0038 -0.1142
  243MOL0     C32726   7.918  11.203   2.663 -0.9513  0.3299 -0.9899
  243MOL0     C32727   7.934  11.300   2.769 -0.1773 -0.2784  0.6899
  243MOL0     O32728   8.022  11.297   2.868  1.1930 -0.3661  0.5983
  243MOL0     C32729   8.124  11.201   2.884 -0.3360  0.5451 -0.1134
  243MOL0     C32730   8.059  11.091   2.959 -0.6215 -0.5099 -0.2994
  243MOL0     C32731   8.027  11.117   3.114 -0.3630 -0.1938 -0.1816
  243MOL0     C32732   7.998  10.987   3.184 -0.1494 -0.6478 -0.0800
  243MOL0     C32733   7.886  10.920   3.122  1.0052 -0.0617  0.3961
  243MOL0     C32734   7.787  10.871   3.075  0.4590  0.3923  0.1625
  243MOL0     C32735   7.844  11.412   2.761 -0.5008  0.4466 -0.1892
  243MOL0     C32736   7.754  11.429   2.659  0.2849  0.1887  0.1572
  243MOL0     C32737   7.671  11.558   2.639  0.5641 -0.4052  0.2181
  243MOL0     H32738   7.523  11.611   2.424  3.8754  1.3669 -3.2391
  243MOL0     H32739   7.391  11.738   2.257  0.8706 -0.3464 -1.5643
  243MOL0     H32740   7.074  11.634   1.948  0.3394  0.7061  1.1012
  243MOL0     H32741   7.134  11.460   1.965 -2.8060 -0.4203 -2.0736
  243MOL0     H32742   6.990  11.570   2.194 -0.2448  1.1766 -2.1123
  243MOL0     H32743   6.997  11.407   2.129 -0.1263 -0.5599  0.1395
  243MOL0     H32744   6.837  11.641   2.015 -2.6380 -0.7757 -2.0543
  243MOL0     H32745   6.773  11.505   2.116 -0.5468  1.5948  0.7703
  243MOL0     H32746   6.903  11.522   1.834  1.4584  1.3848  1.7146
  243MOL0     H32747   6.894  11.367   1.912 -2.7293 -1.2575  4.5353
  243MOL0     H32748   6.709  11.370   1.760 -1.4781  1.0046 -0.8492
  243MOL0     H32749   6.642  11.387   1.921  0.4068  1.9044  2.0672
  243MOL0     H32750   6.638  11.642   1.890  2.5788 -0.8135  1.8636
  243MOL0     H32751   6.730  11.628   1.735  0.0243 -1.5705 -0.8523
  243MOL0     H32752   6.453  11.534   1.808 -0.4803 -3.1172  0.1470
  243MOL0     H32753   6.532  11.472   1.665  4.5181 -0.3846  2.6465
  243MOL0     H32754   6.481  11.770   1.740 -1.4920 -0.5651  0.3210
  243MOL0     H32755   6.562  11.727   1.592  0.0529 -0.1249  0.6299
  243MOL0     H32756   6.220  11.759   1.747 -0.0967  0.3591  1.0395
  243MOL0     H32757   5.942  11.654   1.559 -0.2688  1.0043 -0.8128
  243MOL0     H32758   5.989  11.754   1.692  1.1159 -1.1200  0.5058
  243MOL0     H32759   6.033  11.955   1.522 -4.0743  3.0509  3.0265
  243MOL0     H32760   5.952  11.837   1.408  1.6850 -0.7407  0.3407
  243MOL0     H32761   5.758  11.834   1.546  0.7308 -0.3547 -2.9896
  243MOL0     H32762   5.804  11.988   1.476 -0.4981  0.9202  1.2884
  243MOL0     H32763   5.861  11.907   1.767  2.6751  0.1017 -2.7713
  243MOL0     H32764   5.724  12.023   1.714 -1.0166 -1.5168  0.3088
  243MOL0     H32765   6.160  12.078   1.826  3.8234  0.1465  3.1490
  243MOL0     H32766   6.198  12.177   2.056 -0.7606 -1.7200  0.5964
  243MOL0     H32767   5.982  12.342   2.496 -2.1985  0.6327 -0.7834
  243MOL0     H32768   6.107  12.477   2.675  1.3419 -0.7351 -1.2768
  243MOL0     H32769   6.109  12.649   2.820 -1.8012  0.1560 -3.2614
  243MOL0     H32770   6.272  12.600   2.752 -2.8092 -2.5502 -2.7967
  243MOL0     H32771   6.307  12.734   2.947 -0.9262 -2.1962 -0.1501
  243MOL0     H32772   6.344  12.837   2.802  0.6414  0.4538  1.3037
  243MOL0     H32773   6.064  12.872   2.862 -0.0553 -0.6310  0.3659
  243MOL0     H32774   6.147  12.862   3.017 -1.3885 -1.2968  0.0159
  243MOL0     H32775   6.240  13.040   2.779 -1.7396 -3.2099 -1.3152
  243MOL0     H32776   6.315  13.048   2.935  0.1011  1.6434  0.3125
  243MOL0     H32777   6.016  13.124   2.879 -0.7272 -0.1860  0.3650
  243MOL0     H32778   6.143  13.234   2.865 -3.2552 -1.2690 -3.0612
  243MOL0     H32779   6.059  13.077   3.109 -0.4611  1.0976  1.8389
  243MOL0     H32780   6.211  13.149   3.114 -1.2822 -1.6608  1.6464
  243MOL0     H32781   5.973  13.251   3.199  1.8390 -0.7672  0.8678
  243MOL0     H32782   5.965  13.315   3.034  0.3694  1.4426 -0.2163
  243MOL0     H32783   6.195  13.350   3.219  1.5403 -1.8111 -2.0967
  243MOL0     H32784   6.156  13.417   3.053  0.3922 -2.6980 -0.4754
  243MOL0     H32785   6.137  12.796   2.392  0.9524  0.4147 -0.2723
  243MOL0     H32786   6.001  12.673   2.228 -1.3922  2.3241  1.8640
  243MOL0     H32787   5.815  12.362   2.035 -1.8350 -2.4727 -0.1749
  243MOL0     H32788   5.779  12.263   1.806  0.7724  1.2716 -0.9598
  243MOL0     H32789   7.221  11.357   2.138 -0.3992  0.0849 -0.4509
  243MOL0     H32790   7.356  11.245   2.318 -0.9130  0.3004 -0.5524
  243MOL0     H32791   7.813  11.141   2.483  0.3801  0.0259 -0.4158
  243MOL0     H32792   7.994  11.125   2.657 -0.9004  0.2969 -0.0937
  243MOL0     H32793   8.210  11.243   2.937 -0.1595 -2.8398  2.6492
  243MOL0     H32794   8.155  11.157   2.789  0.5412  1.9001 -0.4746
  243MOL0     H32795   8.134  11.012   2.957  0.1753 -0.0190  3.3119
  243MOL0     H32796   7.970  11.056   2.907  0.1099 -0.6561 -1.5060
  243MOL0     H32797   7.942  11.186   3.123 -2.4770 -2.5419 -0.8587
  243MOL0     H32798   8.122  11.152   3.154 -0.9916 -1.2132  2.4028
  243MOL0     H32799   8.091  10.929   3.184  0.0955 -0.3846  2.7372
  243MOL0     H32800   7.984  10.998   3.292  0.9044 -1.5994  0.1773
  243MOL0     H32801   7.697  10.823   3.043 -0.2300  1.6943  0.0781
  243MOL0     H32802   7.846  11.478   2.847 -1.5555 -0.7267  0.7927
  243MOL0     H32803   7.691  11.594   2.538  2.1155  0.8516  0.9308
  243MOL0     H32804   7.564  11.543   2.658  0.7436 -1.6774  0.3077
  243MOL0     H32805   7.703  11.632   2.713  0.7556 -0.5870  0.3174
  244MOL0     O32806   8.376   9.096   3.216  0.2849 -0.1965  0.2328
  244MOL0     C32807   8.329   9.146   3.318  0.2864 -0.3636  0.1426
  244MOL0     O32808   8.399   9.154   3.440  0.2725  0.2762  0.4155
  244MOL0     C32809   8.527   9.102   3.441 -0.2898  0.5333  0.3254
  244MOL0     C32810   8.630   9.146   3.354 -0.2522 -0.5443 -0.1015
  244MOL0     C32811   8.767   9.110   3.359  0.5692  0.7479  0.2789
  244MOL0     C32812   8.794   9.021   3.453 -0.2238 -1.1517 -0.1611
  244MOL0     O32813   8.921   8.981   3.475 -0.0384  0.2223 -0.5290
  244MOL0     C32814   8.999   8.934   3.365 -0.6446 -1.0971  1.2462
  244MOL0     C32815   9.018   8.782   3.374 -0.0824 -0.3435 -0.1620
  244MOL0     C32816   9.154   8.751   3.443 -0.3925  1.0151  0.2028
  244MOL0     C32817   9.178   8.821   3.576 -0.3636 -0.4756  0.6912
  244MOL0     C32818   9.292   8.749   3.646  0.4279 -0.7926 -0.4349
  244MOL0     C32819   9.348   8.838   3.764  0.4079  0.0043  0.2937
  244MOL0     C32820   9.458   8.942   3.727 -1.4223  0.9109 -0.2786
  244MOL0     C32821   9.588   8.890   3.795  0.2248  0.6374 -1.0897
  244MOL0     N32822   9.705   8.963   3.744  0.0885 -0.4726  0.0409
  244MOL0     C32823   9.732   9.095   3.762  0.1060 -0.3267 -0.0243
  244MOL0     C32824   9.865   9.109   3.722 -0.3833 -0.7876 -0.3528
  244MOL0     C32825   9.945   9.239   3.733 -0.2569 -0.3043  0.9215
  244MOL0     C32826   9.987   9.269   3.876  0.0214 -0.2596 -0.4856
  244MOL0     C32827   9.868   9.321   3.952  0.3609 -0.1628 -0.1804
  244MOL0     C32828   9.923   9.377   4.086 -1.1532 -0.1198  0.5183
  244MOL0     O32829   9.828   9.447   4.160 -0.2032 -0.0121 -0.3466
  244MOL0     C32830   9.742   9.371   4.236 -0.1691 -1.2648 -0.4746
  244MOL0     C32831   9.744   9.232   4.258  0.4268 -0.5595  0.0196
  244MOL0     C32832   9.640   9.160   4.325 -0.8367 -0.0223  0.1427
  244MOL0     C32833   9.532   9.233   4.375 -0.7260  0.2511 -1.0798
  244MOL0     C32834   9.431   9.159   4.452  0.4906 -0.5700  0.5884
  244MOL0     O32835   9.302   9.205   4.427  0.2593 -0.2999  0.1415
  244MOL0     C32836   9.193   9.153   4.502 -0.1085  0.1494 -0.7518
  244MOL0     C32837   9.201   9.092   4.633  0.4590 -0.2494  0.1023
  244MOL0     C32838   9.094   9.033   4.689 -0.1914  0.9099  0.1514
  244MOL0     C32839   8.978   9.026   4.615  0.0709  0.3735 -0.1991
  244MOL0     O32840   8.862   8.973   4.669 -0.1701  0.1151 -0.4624
  244MOL0     C32841   8.875   8.870   4.771  0.4200 -0.8651 -0.0004
  244MOL0     C32842   8.740   8.833   4.828 -0.3943 -0.8344  0.6512
  244MOL0     C32843   8.656   8.785   4.708 -0.1827  0.3284 -0.3661
  244MOL0     C32844   8.509   8.800   4.754  0.8220  0.6154 -0.4306
  244MOL0     C32845   8.403   8.753   4.648 -0.4632 -0.0585  0.4757
  244MOL0     C32846   8.398   8.858   4.539 -0.1967 -0.1523 -0.1351
  244MOL0     C32847   8.277   8.834   4.449 -0.6571  0.4121  0.7389
  244MOL0     C32848   8.245   8.923   4.333 -0.1755  0.1156 -0.5467
  244MOL0    Cl32849   8.104   8.852   4.257  0.0435  0.5178  0.1406
  244MOL0     C32850   8.969   9.077   4.492 -0.4079 -1.1191  0.0501
  244MOL0     C32851   9.074   9.151   4.436 -0.4837  0.1258  0.4307
  244MOL0     O32852   9.462   9.069   4.528  0.1090  0.3327  1.0514
  244MOL0     C32853   9.531   9.374   4.356 -0.0660  0.3993 -0.1493
  244MOL0     C32854   9.629   9.438   4.287  0.6960  0.6137 -0.3342
  244MOL0     N32855   9.913   8.986   3.688  0.4050  0.0458  0.4181
  244MOL0     N32856   9.826   8.902   3.712 -0.2651  0.0372  0.2610
  244MOL0     C32857   8.698   8.973   3.546  0.3966  0.3861 -0.0055
  244MOL0     C32858   8.566   9.019   3.539 -0.4783 -0.2106  0.2637
  244MOL0     C32859   8.189   9.211   3.315 -0.4277 -0.0444 -0.2391
  244MOL0     C32860   8.139   9.276   3.433 -0.2726 -0.2736  0.6909
  244MOL0     C32861   8.005   9.328   3.438  0.0702  0.3855 -0.6960
  244MOL0     C32862   7.914   9.301   3.330 -0.4305 -0.0533 -0.4310
  244MOL0     O32863   7.784   9.324   3.334 -0.2577  0.0018 -0.4286
  244MOL0     C32864   7.736   9.419   3.428  0.3201 -0.3241  0.1822
  244MOL0     C32865   7.587   9.446   3.393 -0.6163 -0.0596 -0.4025
  244MOL0     C32866   7.570   9.514   3.257  0.5912  0.2094  0.0777
  244MOL0     C32867   7.423   9.558   3.248  0.4981 -0.7714 -0.5723
  244MOL0     C32868   7.331   9.455   3.191 -0.1625 -0.5787 -0.1502
  244MOL0     C32869   7.253   9.384   3.141 -0.6768  0.1738  0.0196
  244MOL0     C32870   7.960   9.238   3.222  0.2225  0.0082 -0.4541
  244MOL0     C32871   8.096   9.197   3.215 -0.2305 -0.0606  0.1289
  244MOL0     C32872   8.126   9.122   3.087 -1.5886 -0.0162  0.5293
  244MOL0     H32873   8.610   9.231   3.290 -0.7727 -3.4291 -4.1434
  244MOL0     H32874   8.838   9.162   3.296  0.7490 -1.1607 -1.2044
  244MOL0     H32875   8.944   8.945   3.271  0.2806 -0.7190  0.7357
  244MOL0     H32876   9.091   8.993   3.357 -2.0138  0.9765 -0.0848
  244MOL0     H32877   9.023   8.748   3.270  4.3951  0.1191 -0.2663
  244MOL0     H32878   8.934   8.732   3.424 -0.0562 -0.9878 -0.7461
  244MOL0     H32879   9.240   8.762   3.376  1.1101 -0.1331  1.8245
  244MOL0     H32880   9.149   8.642   3.456 -1.5696  0.8175 -1.6262
  244MOL0     H32881   9.197   8.928   3.563  0.8003 -0.3876  2.6927
  244MOL0     H32882   9.092   8.811   3.644  1.1832  2.0908  3.2387
  244MOL0     H32883   9.246   8.656   3.683  0.1191 -0.4984 -0.0769
  244MOL0     H32884   9.376   8.720   3.582  0.8191  1.4896 -1.0360
  244MOL0     H32885   9.266   8.897   3.807  0.6864  1.4632 -1.0859
  244MOL0     H32886   9.381   8.770   3.843  2.3545 -0.2162 -0.6446
  244MOL0     H32887   9.440   9.038   3.777 -1.7767  1.3458 -1.2050
  244MOL0     H32888   9.454   8.938   3.617 -2.1492 -3.1610 -0.2384
  244MOL0     H32889   9.577   8.890   3.903 -2.4482  0.0215 -1.2926
  244MOL0     H32890   9.601   8.784   3.769 -1.4409 -0.3514  1.7396
  244MOL0     H32891   9.662   9.168   3.804 -0.2332 -0.7669  0.1805
  244MOL0     H32892  10.043   9.225   3.688 -0.1108  1.9663  0.4129
  244MOL0     H32893   9.881   9.316   3.688 -2.5355 -3.0721 -0.9030
  244MOL0     H32894  10.027   9.182   3.929  2.1419  1.9204  1.8407
  244MOL0     H32895  10.072   9.338   3.878  1.8763 -2.3929  2.5368
  244MOL0     H32896   9.800   9.238   3.977  0.6789 -0.9993 -1.9436
  244MOL0     H32897   9.810   9.400   3.903 -1.2487 -0.3005  1.3794
  244MOL0     H32898  10.002   9.446   4.055 -0.6376 -0.8150  0.2573
  244MOL0     H32899   9.986   9.310   4.146  4.3299  1.5839 -2.6057
  244MOL0     H32900   9.824   9.169   4.221  0.7228 -0.1075 -0.1244
  244MOL0     H32901   9.644   9.053   4.341 -0.4516 -0.2206 -1.1247
  244MOL0     H32902   9.293   9.100   4.690 -1.7878  1.5918  3.8105
  244MOL0     H32903   9.111   8.998   4.790  0.7558  1.1991  0.1085
  244MOL0     H32904   8.917   8.778   4.729 -0.5368  0.3182 -3.9944
  244MOL0     H32905   8.937   8.900   4.856 -0.8598 -0.0197  0.6682
  244MOL0     H32906   8.762   8.756   4.903  2.4630 -0.9764 -0.2032
  244MOL0     H32907   8.690   8.918   4.874 -4.3527 -2.4151 -0.2766
  244MOL0     H32908   8.672   8.845   4.618 -2.0776 -1.6038 -2.0957
  244MOL0     H32909   8.672   8.677   4.695  1.6755 -0.0383  3.5150
  244MOL0     H32910   8.500   8.905   4.782  1.9259  0.1719  1.8255
  244MOL0     H32911   8.483   8.763   4.853  0.4205  3.6871  0.6999
  244MOL0     H32912   8.307   8.758   4.700 -1.7318 -2.0424 -1.4950
  244MOL0     H32913   8.421   8.657   4.598  0.1994  0.2944  0.0217
  244MOL0     H32914   8.385   8.960   4.576 -3.8322 -0.1324 -1.1468
  244MOL0     H32915   8.493   8.851   4.484  1.1895  2.9694  1.5933
  244MOL0     H32916   8.190   8.826   4.515 -2.1360  1.2020 -1.0186
  244MOL0     H32917   8.293   8.737   4.400  0.4013 -0.1113  2.0584
  244MOL0     H32918   8.224   9.025   4.365  3.2518  0.3317  1.5164
  244MOL0     H32919   8.329   8.914   4.264  0.4006 -2.4471  0.3890
  244MOL0     H32920   8.872   9.071   4.444 -1.0495  0.5740  1.0379
  244MOL0     H32921   9.071   9.178   4.331 -0.4446  1.6371  0.7987
  244MOL0     H32922   9.454   9.438   4.397 -2.1737 -0.9204 -1.8387
  244MOL0     H32923   9.629   9.544   4.265  0.0933  0.3357 -1.7683
  244MOL0     H32924   8.727   8.899   3.621 -0.6005  0.2940  0.3065
  244MOL0     H32925   8.503   8.979   3.618  0.1856  0.0369  0.9348
  244MOL0     H32926   8.198   9.282   3.524  0.7924 -2.0259  0.1689
  244MOL0     H32927   7.979   9.385   3.527  3.5323  0.7687  0.1888
  244MOL0     H32928   7.786   9.516   3.418  0.6411 -0.3988  1.0485
  244MOL0     H32929   7.754   9.381   3.529 -1.6817 -4.4155 -0.8003
  244MOL0     H32930   7.543   9.495   3.480  0.2069 -0.3571  0.2019
  244MOL0     H32931   7.535   9.350   3.391  0.1316 -0.6339  2.6724
  244MOL0     H32932   7.593   9.437   3.183 -1.7894  0.6922 -1.2767
  244MOL0     H32933   7.636   9.597   3.231  0.2486 -0.3271 -2.7910
  244MOL0     H32934   7.394   9.599   3.345  1.7621 -1.5623  0.1706
  244MOL0     H32935   7.409   9.638   3.175  0.4538 -1.6099 -1.5094
  244MOL0     H32936   7.202   9.325   3.067 -0.1958  1.2086 -1.1697
  244MOL0     H32937   7.895   9.219   3.137  0.8533 -0.0256 -0.9348
  244MOL0     H32938   8.039   9.124   3.022 -0.9701 -0.4092 -0.3252
  244MOL0     H32939   8.207   9.171   3.032 -2.4608  0.1973 -0.5924
  244MOL0     H32940   8.157   9.023   3.121  3.1313  1.8059  2.3426
  245MOL0     O32941   4.649   6.991   4.020 -0.9784  0.6017  0.3252
  245MOL0     C32942   4.688   6.929   3.921 -0.8270  0.3439 -0.2528
  245MOL0     O32943   4.619   6.904   3.805 -0.3362  1.1798 -0.0549
  245MOL0     C32944   4.504   6.965   3.783  0.4085  0.0268  0.3167
  245MOL0     C32945   4.456   7.086   3.828  0.0331 -0.6170  0.3716
  245MOL0     C32946   4.333   7.128   3.797 -0.0868  0.3067  0.5592
  245MOL0     C32947   4.244   7.048   3.725 -0.9630  0.4439 -0.7603
  245MOL0     O32948   4.114   7.091   3.696 -0.0264  0.4657  0.1600
  245MOL0     C32949   4.026   7.035   3.603 -0.0334  0.6582  0.4229
  245MOL0     C32950   3.909   6.953   3.664  0.2064 -0.1261 -0.1240
  245MOL0     C32951   3.800   6.896   3.559 -0.1136  0.2421 -1.4074
  245MOL0     C32952   3.732   7.000   3.466  1.1240 -0.0101 -0.4185
  245MOL0     C32953   3.629   6.949   3.361  0.6301  0.5433 -0.3473
  245MOL0     C32954   3.699   6.871   3.243 -0.0103  0.6087 -0.4100
  245MOL0     C32955   3.583   6.823   3.144  0.7822 -0.0525 -0.8275
  245MOL0     C32956   3.642   6.737   3.037 -0.4408 -0.2463 -0.8525
  245MOL0     N32957   3.721   6.817   2.938 -0.3521 -0.3639 -0.7634
  245MOL0     C32958   3.858   6.834   2.936  0.6252 -0.1719 -1.4329
  245MOL0     C32959   3.877   6.912   2.827 -0.0480  1.1594 -0.2818
  245MOL0     C32960   4.003   6.961   2.760 -0.2229  0.1088  0.1168
  245MOL0     C32961   4.109   6.972   2.869 -1.0458 -0.4628 -0.1066
  245MOL0     C32962   4.198   6.849   2.904 -0.4054  0.1401 -0.1415
  245MOL0     C32963   4.282   6.799   2.786  0.1082  0.7011 -0.1407
  245MOL0     O32964   4.387   6.881   2.733  0.2113 -0.9031 -0.5678
  245MOL0     C32965   4.503   6.900   2.804  0.2288  0.0347  0.1297
  245MOL0     C32966   4.588   6.997   2.748  0.5075 -0.3268 -0.7222
  245MOL0     C32967   4.713   7.026   2.789 -1.0299 -0.8807  0.0101
  245MOL0     C32968   4.757   6.975   2.913 -0.3972  0.1587 -0.1603
  245MOL0     C32969   4.896   6.999   2.966 -1.0415  0.2422 -0.5407
  245MOL0     O32970   4.974   7.101   2.914  0.5130 -0.7702 -0.1555
  245MOL0     C32971   5.105   7.112   2.956  0.5678 -0.5367 -0.7816
  245MOL0     C32972   5.190   7.008   2.948 -0.7241 -0.0101  0.6797
  245MOL0     C32973   5.317   7.020   3.000 -0.3918  0.9087 -0.3500
  245MOL0     C32974   5.362   7.132   3.066  0.3781 -0.3255 -0.4631
  245MOL0     O32975   5.497   7.144   3.104  0.0032 -0.4776 -0.3883
  245MOL0     C32976   5.544   7.245   3.192  0.0861  0.2560 -0.1263
  245MOL0     C32977   5.610   7.177   3.323  0.7514 -0.6267 -0.7154
  245MOL0     C32978   5.751   7.228   3.344  0.4630 -1.1451  0.1090
  245MOL0     C32979   5.756   7.370   3.397 -0.0261  0.1618  0.8879
  245MOL0     C32980   5.902   7.414   3.389 -0.3575 -0.1849  0.2202
  245MOL0     C32981   5.974   7.365   3.517  0.1107  0.1827 -0.9044
  245MOL0     C32982   6.098   7.457   3.547 -0.2009  0.5929 -0.8613
  245MOL0     C32983   6.153   7.445   3.695  0.5980 -0.2685  0.2985
  245MOL0    Cl32984   6.025   7.422   3.822  0.1780  0.0388 -0.3015
  245MOL0     C32985   5.273   7.247   3.071  0.1686 -0.3899 -0.3669
  245MOL0     C32986   5.153   7.232   3.006  0.1316  0.2836 -0.6536
  245MOL0     O32987   4.933   6.922   3.055 -0.5473 -0.4278  0.5405
  245MOL0     C32988   4.663   6.883   2.978 -0.2974 -0.8098 -0.5083
  245MOL0     C32989   4.544   6.847   2.924  0.5999 -0.4379 -0.3295
  245MOL0     N32990   3.754   6.939   2.764  0.6075 -0.1367 -0.7778
  245MOL0     N32991   3.666   6.880   2.830 -0.1318  0.2867  0.7901
  245MOL0     C32992   4.291   6.918   3.681  0.5794  0.1907  1.0793
  245MOL0     C32993   4.426   6.887   3.709  0.1013  1.2661 -1.2022
  245MOL0     C32994   4.823   6.868   3.943  0.7796  0.3736  0.0441
  245MOL0     C32995   4.873   6.865   4.079 -0.5925 -0.1633  0.4868
  245MOL0     C32996   5.002   6.813   4.106 -0.1980 -0.2240  0.5172
  245MOL0     C32997   5.086   6.778   3.995  0.2928 -0.2042 -1.2379
  245MOL0     O32998   5.216   6.736   4.017 -0.7136  0.2312 -0.1527
  245MOL0     C32999   5.319   6.767   3.921 -0.7688 -0.4033  0.4436
  245MOL0     C33000   5.449   6.752   3.995 -0.7731 -0.5005 -0.0737
  245MOL0     C33001   5.490   6.884   4.063  0.5675  0.4330  0.2142
  245MOL0     C33002   5.619   6.895   4.146 -0.2360  0.7194  0.5461
  245MOL0     C33003   5.733   6.865   4.055 -0.9628  0.7010 -0.0011
  245MOL0     C33004   5.814   6.833   3.964 -0.9416  1.3556 -0.1196
  245MOL0     C33005   5.038   6.792   3.867  0.7782  0.6470 -0.5664
  245MOL0     C33006   4.911   6.848   3.835 -0.7868 -0.3980 -0.1128
  245MOL0     C33007   4.884   6.869   3.684  0.0979  0.7916 -0.7122
  245MOL0     H33008   4.515   7.170   3.865 -1.4693  1.0943 -0.9477
  245MOL0     H33009   4.290   7.218   3.838 -2.1036  1.1489 -3.0070
  245MOL0     H33010   3.979   7.120   3.553  1.3853  1.6385  0.7033
  245MOL0     H33011   4.072   6.969   3.528 -2.5103 -0.3696 -0.3047
  245MOL0     H33012   3.852   7.018   3.731  0.2635  0.9375 -1.0663
  245MOL0     H33013   3.956   6.876   3.727  0.5098  1.4079  1.5922
  245MOL0     H33014   3.725   6.838   3.612  0.3496 -1.3151 -2.4029
  245MOL0     H33015   3.855   6.831   3.491  0.2396 -0.9048 -0.0651
  245MOL0     H33016   3.686   7.070   3.537  0.5691 -0.0644 -0.7162
  245MOL0     H33017   3.803   7.066   3.415  0.8334  1.9270  1.5413
  245MOL0     H33018   3.555   6.879   3.402 -0.6883  0.6981 -2.3473
  245MOL0     H33019   3.572   7.036   3.329  0.3785  0.9701  1.1965
  245MOL0     H33020   3.777   6.928   3.193 -0.2239  2.0761  0.8609
  245MOL0     H33021   3.746   6.782   3.287  1.3402  2.8528  3.1329
  245MOL0     H33022   3.518   6.901   3.104  0.9936 -0.8711 -2.9341
  245MOL0     H33023   3.519   6.761   3.207  2.1308  1.1742  1.9012
  245MOL0     H33024   3.706   6.663   3.086 -0.0661 -0.1802 -1.2387
  245MOL0     H33025   3.559   6.680   2.995  0.5696 -2.3890 -0.0495
  245MOL0     H33026   3.928   6.790   3.007 -1.1505 -1.5236 -0.4215
  245MOL0     H33027   4.029   6.886   2.684 -1.4157 -0.0713 -0.1365
  245MOL0     H33028   3.987   7.062   2.723 -0.6124  0.6018  1.5672
  245MOL0     H33029   4.176   7.051   2.833 -3.0444  1.5656  0.3742
  245MOL0     H33030   4.074   7.019   2.962 -0.1175  1.3522 -0.6398
  245MOL0     H33031   4.128   6.768   2.927  0.5954 -0.8400 -0.4804
  245MOL0     H33032   4.260   6.879   2.988 -0.8667  0.4198  0.1019
  245MOL0     H33033   4.217   6.778   2.702  0.2312  0.2421 -0.1210
  245MOL0     H33034   4.323   6.708   2.830 -0.8647  1.1357  1.8291
  245MOL0     H33035   4.553   7.039   2.655 -0.0010 -0.6862 -0.6959
  245MOL0     H33036   4.781   7.097   2.742  1.0984 -0.6600  3.0857
  245MOL0     H33037   5.173   6.911   2.902 -2.3561  1.4698 -2.1746
  245MOL0     H33038   5.383   6.935   2.982 -0.8209  1.0302 -2.8863
  245MOL0     H33039   5.623   7.300   3.140  0.0095  0.8667  0.3984
  245MOL0     H33040   5.482   7.332   3.216  1.7903  1.5962 -0.3488
  245MOL0     H33041   5.554   7.197   3.415  2.0526  0.3673 -0.1154
  245MOL0     H33042   5.611   7.068   3.315  1.7475 -0.7299  0.5534
  245MOL0     H33043   5.793   7.162   3.421 -0.3730  0.4921  2.0440
  245MOL0     H33044   5.813   7.218   3.255 -0.8151  0.5278 -1.0177
  245MOL0     H33045   5.716   7.388   3.497  0.7894  0.8887  1.0989
  245MOL0     H33046   5.700   7.431   3.325  2.0603  1.6809  0.4549
  245MOL0     H33047   5.904   7.523   3.387 -0.2344 -0.0513  3.4124
  245MOL0     H33048   5.944   7.376   3.295 -1.3561  0.6436 -0.5834
  245MOL0     H33049   5.903   7.388   3.597  1.0446  0.0957 -0.0344
  245MOL0     H33050   5.999   7.258   3.515  0.3811  0.2143  0.2943
  245MOL0     H33051   6.078   7.563   3.532  0.1673  1.0325  1.3949
  245MOL0     H33052   6.167   7.417   3.473  0.9285 -0.0783  0.4966
  245MOL0     H33053   6.230   7.368   3.699  0.3221 -0.7112 -1.9912
  245MOL0     H33054   6.198   7.544   3.704  0.9090 -0.2588 -1.2236
  245MOL0     H33055   5.292   7.347   3.108 -5.2208  0.5179  0.6466
  245MOL0     H33056   5.079   7.312   3.001 -0.8226 -0.4696  0.7082
  245MOL0     H33057   4.686   6.836   3.073  1.6194 -0.6594 -0.8495
  245MOL0     H33058   4.474   6.772   2.960 -1.2818 -0.1787 -3.1398
  245MOL0     H33059   4.224   6.848   3.631  0.7274 -0.0105  1.1611
  245MOL0     H33060   4.470   6.792   3.677  0.4368  0.4808  1.3730
  245MOL0     H33061   4.818   6.913   4.159  0.5807  2.8006 -0.3277
  245MOL0     H33062   5.051   6.817   4.203  1.0681  0.1490 -0.1144
  245MOL0     H33063   5.310   6.870   3.887  1.4545  0.0406  1.0349
  245MOL0     H33064   5.320   6.699   3.834 -1.7803  1.4486 -1.0928
  245MOL0     H33065   5.528   6.730   3.923  0.8223  1.1267  1.0949
  245MOL0     H33066   5.446   6.672   4.069 -0.8185  1.2119  1.8489
  245MOL0     H33067   5.407   6.898   4.132 -2.8350 -1.8398 -3.0198
  245MOL0     H33068   5.486   6.961   3.985  1.4269  0.9050  0.6183
  245MOL0     H33069   5.632   6.991   4.197 -2.0717  0.2520  1.9721
  245MOL0     H33070   5.614   6.819   4.224  1.3531 -0.1523 -0.1477
  245MOL0     H33071   5.870   6.809   3.876 -2.1138 -0.0570 -0.5166
  245MOL0     H33072   5.099   6.751   3.787  0.1418 -3.4286  0.7687
  245MOL0     H33073   4.859   6.969   3.649  0.5018 -0.2503 -4.3172
  245MOL0     H33074   4.974   6.849   3.625  1.6883  1.7920  1.2387
  245MOL0     H33075   4.805   6.802   3.649 -0.0074  0.4776  0.0942
  246MOL0     O33076   0.494   4.453   8.295  0.3830 -0.0747 -0.4913
  246MOL0     C33077   0.457   4.522   8.208 -0.0317 -0.2358  0.0858
  246MOL0     O33078   0.542   4.602   8.129 -0.2122  0.3295  0.1579
  246MOL0     C33079   0.677   4.581   8.157 -0.3501 -0.5061 -0.7139
  246MOL0     C33080   0.758   4.692   8.159  0.6672 -0.0680 -0.2994
  246MOL0     C33081   0.890   4.688   8.174 -0.8250 -0.5773 -0.6463
  246MOL0     C33082   0.956   4.570   8.202 -0.2445 -0.4959 -0.6462
  246MOL0     O33083   1.090   4.565   8.220 -0.6478 -0.4491  0.5419
  246MOL0     C33084   1.178   4.672   8.195  0.1302 -0.4758  0.2513
  246MOL0     C33085   1.334   4.632   8.213 -0.8016 -0.4414 -0.4421
  246MOL0     C33086   1.353   4.525   8.314  0.1504  0.5489  0.4601
  246MOL0     C33087   1.502   4.493   8.342 -0.7992 -0.0325  0.6556
  246MOL0     C33088   1.569   4.623   8.396  0.0795  0.4100  0.3773
  246MOL0     C33089   1.675   4.576   8.503  0.1371 -0.3247  0.0406
  246MOL0     C33090   1.751   4.698   8.557  0.1975 -0.5853 -0.3355
  246MOL0     C33091   1.855   4.648   8.652  0.1320  0.0959  0.2242
  246MOL0     N33092   1.964   4.582   8.576 -0.0692  0.4287 -0.1233
  246MOL0     C33093   1.990   4.449   8.566  0.0510  0.4760 -0.1015
  246MOL0     C33094   2.118   4.436   8.528 -0.4910  0.3267 -0.1054
  246MOL0     C33095   2.212   4.319   8.522 -1.2395  0.1145 -0.1455
  246MOL0     C33096   2.181   4.235   8.657 -0.1723 -0.4635  0.4752
  246MOL0     C33097   2.266   4.104   8.670 -0.7068  0.0075 -0.3538
  246MOL0     C33098   2.402   4.132   8.746  0.8137  0.3022 -0.2158
  246MOL0     O33099   2.368   4.149   8.888  0.0462 -0.6188  0.6715
  246MOL0     C33100   2.471   4.167   8.978 -0.2556  0.3006  0.8047
  246MOL0     C33101   2.603   4.154   8.946 -0.1822 -0.2438 -1.3715
  246MOL0     C33102   2.696   4.166   9.042 -0.1884  0.0443  0.0064
  246MOL0     C33103   2.663   4.197   9.170 -0.0927 -0.8689  0.1092
  246MOL0     C33104   2.777   4.195   9.274  0.0055  0.1214  0.8636
  246MOL0     O33105   2.898   4.220   9.225  0.3967 -0.1316  0.5835
  246MOL0     C33106   3.014   4.212   9.303 -0.0026 -0.5884 -1.2546
  246MOL0     C33107   3.120   4.298   9.292 -0.5019  0.6651  0.1291
  246MOL0     C33108   3.236   4.298   9.368 -0.3623 -0.5321 -0.8050
  246MOL0     C33109   3.244   4.210   9.472 -0.4154  0.0816  0.9146
  246MOL0     O33110   3.365   4.209   9.535  0.1330  0.4522  0.5419
  246MOL0     C33111   3.445   4.089   9.543  0.4426  0.4219 -0.5114
  246MOL0     C33112   3.504   4.080   9.683  0.2177 -0.4965  0.4687
  246MOL0     C33113   3.589   4.198   9.730  0.5747  0.5208  0.4563
  246MOL0     C33114   3.689   4.146   9.835 -0.2105 -0.2306  1.0067
  246MOL0     C33115   3.785   4.256   9.891  0.1118 -0.1136 -0.5798
  246MOL0     C33116   3.925   4.205   9.943 -0.0076 -0.4990 -0.0887
  246MOL0     C33117   3.904   4.121  10.072 -0.2582 -0.4250  0.0007
  246MOL0     C33118   4.025   4.125  10.159 -0.3901  0.5009 -0.1377
  246MOL0    Cl33119   4.174   4.102  10.057 -0.2208  0.2335 -0.4467
  246MOL0     C33120   3.142   4.118   9.487  0.1733  0.0654 -0.6246
  246MOL0     C33121   3.032   4.111   9.412 -0.1350  0.2409 -0.1694
  246MOL0     O33122   2.750   4.202   9.391 -0.2470  0.3928  0.4451
  246MOL0     C33123   2.530   4.215   9.202  0.6927 -0.3630 -0.7897
  246MOL0     C33124   2.430   4.201   9.102  0.6968  0.3362  0.6785
  246MOL0     N33125   2.162   4.566   8.513  0.0035 -0.5877  0.0696
  246MOL0     N33126   2.069   4.658   8.552 -0.2844  0.5189 -0.0611
  246MOL0     C33127   0.877   4.457   8.212 -0.0492  0.4993  0.9955
  246MOL0     C33128   0.739   4.456   8.178  0.7795 -0.1947 -0.4332
  246MOL0     C33129   0.317   4.530   8.190  0.5221 -0.3009  0.2224
  246MOL0     C33130   0.276   4.628   8.108  0.7061 -0.0592 -0.5748
  246MOL0     C33131   0.143   4.655   8.081 -0.1443  0.3136  0.6379
  246MOL0     C33132   0.041   4.579   8.123 -0.5393  0.0287  0.0413
  246MOL0     O33133  -0.093   4.591   8.103 -0.0294  0.2995  0.4601
  246MOL0     C33134  -0.121   4.611   7.961  0.1892  0.3207  0.0988
  246MOL0     C33135  -0.249   4.685   7.938 -0.0324 -0.0216  0.1289
  246MOL0     C33136  -0.255   4.839   7.969  0.0309  0.3499  0.3393
  246MOL0     C33137  -0.345   4.923   7.886 -0.0727 -0.3783 -0.0469
  246MOL0     C33138  -0.487   4.885   7.911 -0.5330 -0.1746  0.4476
  246MOL0     C33139  -0.606   4.866   7.899 -0.1978  0.3563  0.2055
  246MOL0     C33140   0.078   4.467   8.200  0.0607  0.5051 -0.7588
  246MOL0     C33141   0.212   4.446   8.237 -0.3365 -0.6503  0.2979
  246MOL0     C33142   0.227   4.316   8.323  0.3915 -0.5771  0.3536
  246MOL0     H33143   0.697   4.779   8.136 -1.6024 -0.7792  2.4374
  246MOL0     H33144   0.952   4.777   8.165 -0.0875 -0.9407  0.5939
  246MOL0     H33145   1.172   4.716   8.095 -1.9604 -1.8615 -0.2894
  246MOL0     H33146   1.154   4.748   8.269 -0.4587 -0.7155  0.3131
  246MOL0     H33147   1.379   4.727   8.242 -0.4994  0.0639 -2.3848
  246MOL0     H33148   1.366   4.597   8.114  0.2188 -0.3310 -0.1603
  246MOL0     H33149   1.299   4.439   8.274  0.1901  1.8141 -2.6625
  246MOL0     H33150   1.312   4.544   8.413 -0.7319  1.2078 -0.0223
  246MOL0     H33151   1.513   4.415   8.417 -1.4091 -0.2558  0.5218
  246MOL0     H33152   1.545   4.446   8.253  1.6364 -1.2316  2.3739
  246MOL0     H33153   1.612   4.692   8.323 -0.0031  2.9853  2.5902
  246MOL0     H33154   1.499   4.682   8.456 -1.5688 -2.4778  1.4833
  246MOL0     H33155   1.625   4.520   8.583 -0.4563 -0.3493 -0.3431
  246MOL0     H33156   1.733   4.496   8.455  0.9416 -1.8163  3.2331
  246MOL0     H33157   1.682   4.764   8.610 -0.0130 -1.2145  0.2012
  246MOL0     H33158   1.788   4.754   8.471  1.0588  2.3446  1.7865
  246MOL0     H33159   1.893   4.728   8.716 -0.5939  0.2281  0.5013
  246MOL0     H33160   1.814   4.577   8.724 -2.1832  0.6756 -0.4485
  246MOL0     H33161   1.938   4.360   8.599  1.0962  0.6820  2.3222
  246MOL0     H33162   2.194   4.257   8.434  1.0192  1.9016 -1.9725
  246MOL0     H33163   2.314   4.357   8.515 -1.4338  1.0579  1.5716
  246MOL0     H33164   2.191   4.303   8.742 -2.7147  0.5006  0.1010
  246MOL0     H33165   2.075   4.207   8.659 -0.0553 -1.0290 -0.5891
  246MOL0     H33166   2.286   4.059   8.572 -0.3096 -0.0898 -0.2310
  246MOL0     H33167   2.209   4.033   8.729  2.0657 -1.9177  0.1869
  246MOL0     H33168   2.446   4.222   8.700  0.3053  1.5156  1.5646
  246MOL0     H33169   2.465   4.043   8.745  0.5505  0.1183 -0.2622
  246MOL0     H33170   2.630   4.120   8.846  0.1573  1.4576 -1.8929
  246MOL0     H33171   2.799   4.151   9.011 -0.6127 -0.2625 -1.3539
  246MOL0     H33172   3.114   4.368   9.209  3.4008 -1.7320 -2.5687
  246MOL0     H33173   3.314   4.370   9.342 -0.6894 -0.6145 -2.1233
  246MOL0     H33174   3.383   4.002   9.518 -0.4540  1.5394 -2.4448
  246MOL0     H33175   3.520   4.100   9.464  3.1676  4.5363  2.2626
  246MOL0     H33176   3.423   4.070   9.756  0.0947  1.0653  0.5718
  246MOL0     H33177   3.571   3.993   9.678  1.4192  0.4044 -4.6519
  246MOL0     H33178   3.651   4.235   9.648 -0.4391  1.2597 -0.0039
  246MOL0     H33179   3.519   4.261   9.786 -1.2345 -3.4620  3.0922
  246MOL0     H33180   3.767   4.083   9.790 -0.5582  0.8850 -1.2815
  246MOL0     H33181   3.638   4.105   9.922  0.3567 -3.3626  0.0019
  246MOL0     H33182   3.736   4.310   9.972 -1.4545 -3.0125  0.5483
  246MOL0     H33183   3.809   4.323   9.807  1.9788  0.4294  0.3301
  246MOL0     H33184   3.985   4.142   9.876  0.1701  1.1067 -1.5205
  246MOL0     H33185   3.980   4.295   9.972 -1.2822  0.2739 -0.0248
  246MOL0     H33186   3.878   4.020  10.038  0.2438  0.2661 -2.6483
  246MOL0     H33187   3.826   4.148  10.145 -0.6137  1.0663 -0.8818
  246MOL0     H33188   4.030   4.221  10.210 -1.4252  0.3973  0.1787
  246MOL0     H33189   4.018   4.045  10.234  2.2569  0.5712  0.2816
  246MOL0     H33190   3.150   4.047   9.568 -1.9613  0.1687 -0.2844
  246MOL0     H33191   2.943   4.050   9.427 -0.5029 -0.4951 -4.2880
  246MOL0     H33192   2.495   4.240   9.301 -3.7805  0.9399 -2.4550
  246MOL0     H33193   2.324   4.219   9.113  0.0787 -0.7439 -2.5455
  246MOL0     H33194   0.923   4.359   8.223 -1.8685 -0.4865  0.2490
  246MOL0     H33195   0.691   4.359   8.166  0.2958 -0.6101  3.4293
  246MOL0     H33196   0.347   4.702   8.071 -0.6405  0.9929 -1.1240
  246MOL0     H33197   0.119   4.732   8.008  1.9694  0.7216  0.3220
  246MOL0     H33198  -0.124   4.511   7.918 -1.4858 -0.1011  1.1192
  246MOL0     H33199  -0.049   4.680   7.915 -1.0578  2.1500  0.7520
  246MOL0     H33200  -0.326   4.639   8.000 -1.5808  3.2802  0.8878
  246MOL0     H33201  -0.281   4.676   7.834 -0.5097 -1.9833  0.4075
  246MOL0     H33202  -0.151   4.871   7.952  1.2102 -3.1763 -0.0385
  246MOL0     H33203  -0.274   4.850   8.076 -1.5802  1.3245 -0.0172
  246MOL0     H33204  -0.325   5.030   7.895 -3.1654  0.3521 -0.4200
  246MOL0     H33205  -0.312   4.909   7.783  1.1573 -1.3979  0.4611
  246MOL0     H33206  -0.712   4.854   7.892 -0.3115  1.7994 -0.9167
  246MOL0     H33207   0.001   4.400   8.237  1.0708  0.1502  0.7883
  246MOL0     H33208   0.208   4.226   8.265  0.6494 -1.1241  1.1037
  246MOL0     H33209   0.326   4.313   8.371  1.4629  0.9848 -1.5810
  246MOL0     H33210   0.159   4.319   8.408  0.5485 -0.8193  0.4897
  247MOL0     O33211   4.614   0.180   1.235  0.1568 -0.2075  0.5542
  247MOL0     C33212   4.596   0.222   1.125  0.4094  0.3480  1.1266
  247MOL0     O33213   4.693   0.289   1.044  0.0874  0.2153 -0.1539
  247MOL0     C33214   4.823   0.287   1.091 -0.8885  0.5571  0.0933
  247MOL0     C33215   4.876   0.401   1.155  0.3225 -0.2930  0.2471
  247MOL0     C33216   5.005   0.404   1.193  0.3273  0.1848 -0.7100
  247MOL0     C33217   5.090   0.295   1.175 -0.5564  0.3798  0.2109
  247MOL0     O33218   5.219   0.310   1.213  0.3181 -0.3967 -0.5348
  247MOL0     C33219   5.276   0.200   1.284  0.7351 -0.6478 -0.2689
  247MOL0     C33220   5.408   0.240   1.343  0.6081 -0.7224 -0.4321
  247MOL0     C33221   5.466   0.131   1.434  0.6796  0.2886 -0.1909
  247MOL0     C33222   5.613   0.158   1.471  0.5816  0.3106 -1.0047
  247MOL0     C33223   5.718   0.138   1.367  1.2039 -0.7949  0.1704
  247MOL0     C33224   5.736  -0.006   1.301  0.2247  0.2734 -0.1596
  247MOL0     C33225   5.883  -0.006   1.261 -0.1312 -0.2689 -0.5551
  247MOL0     C33226   5.919  -0.127   1.181 -0.1575 -0.1471 -0.0886
  247MOL0     N33227   6.061  -0.147   1.143 -0.1401 -0.0211  0.2394
  247MOL0     C33228   6.166  -0.087   1.216  0.3962  0.6365 -0.5739
  247MOL0     C33229   6.267  -0.059   1.133 -0.2801  0.6622 -0.4520
  247MOL0     C33230   6.375   0.031   1.163 -0.1623  0.0388 -0.4805
  247MOL0     C33231   6.446   0.001   1.306 -0.2372  0.0785  0.2078
  247MOL0     C33232   6.588   0.072   1.308  1.1083 -0.3806 -0.7480
  247MOL0     C33233   6.676   0.005   1.428  0.6348  0.7000  0.5036
  247MOL0     O33234   6.783   0.092   1.448  0.0731 -0.5790 -0.3819
  247MOL0     C33235   6.878   0.066   1.538 -1.1389  0.6039  0.0686
  247MOL0     C33236   6.950   0.177   1.577 -0.0404  0.1328 -0.5304
  247MOL0     C33237   7.074   0.155   1.639  0.0905 -0.3311 -0.4543
  247MOL0     C33238   7.122   0.024   1.657  0.0012 -0.3356 -0.1951
  247MOL0     C33239   7.258  -0.007   1.717 -1.2000 -0.1986 -0.4779
  247MOL0     O33240   7.356   0.089   1.702  0.8373  0.2209  0.0482
  247MOL0     C33241   7.485   0.088   1.758 -0.6449  0.2617  0.6163
  247MOL0     C33242   7.506   0.067   1.902 -0.2197 -0.1757  0.8335
  247MOL0     C33243   7.627   0.087   1.960 -0.7479  0.4068 -0.6419
  247MOL0     C33244   7.740   0.129   1.890 -0.3747  0.3914  0.0104
  247MOL0     O33245   7.862   0.157   1.954 -0.1041  0.2818 -0.5728
  247MOL0     C33246   7.979   0.156   1.872  0.3212 -0.1257 -0.5075
  247MOL0     C33247   8.091   0.093   1.956 -0.7789 -0.2291  0.7939
  247MOL0     C33248   8.212   0.075   1.864  0.9011  0.2237 -0.6011
  247MOL0     C33249   8.345   0.032   1.932  0.7018 -0.5911 -0.9863
  247MOL0     C33250   8.471   0.057   1.847  0.3145 -0.0985 -0.8164
  247MOL0     C33251   8.513   0.199   1.874  0.0345  0.2835  0.2837
  247MOL0     C33252   8.664   0.225   1.836  0.1510  0.1794 -0.5394
  247MOL0     C33253   8.706   0.374   1.880  0.1407 -0.2274  0.0770
  247MOL0    Cl33254   8.644   0.500   1.768 -0.6217  0.1103 -0.2412
  247MOL0     C33255   7.722   0.160   1.749 -0.6038 -0.4730  0.3255
  247MOL0     C33256   7.603   0.119   1.679 -0.5384  0.2352 -1.1093
  247MOL0     O33257   7.270  -0.108   1.784 -0.8446 -0.4035 -0.2311
  247MOL0     C33258   7.041  -0.086   1.631  0.9395 -0.5004 -0.3364
  247MOL0     C33259   6.916  -0.069   1.572  0.0676  0.4428 -0.8346
  247MOL0     N33260   6.222  -0.099   1.008  0.7890 -0.5619 -1.0169
  247MOL0     N33261   6.102  -0.150   1.018  1.0861  0.8550  0.6046
  247MOL0     C33262   5.044   0.175   1.122 -0.7842 -0.4716  0.2544
  247MOL0     C33263   4.901   0.173   1.082 -0.3162  0.1193  0.0483
  247MOL0     C33264   4.456   0.240   1.078  0.6956 -0.5569 -0.1719
  247MOL0     C33265   4.425   0.338   0.972 -0.3986  0.5981 -0.5489
  247MOL0     C33266   4.294   0.367   0.927 -0.4560  0.0553  0.0807
  247MOL0     C33267   4.184   0.296   0.978 -0.2556  0.5496 -0.3369
  247MOL0     O33268   4.058   0.326   0.929  0.0889  0.6177  0.0453
  247MOL0     C33269   3.947   0.315   1.015 -0.4388  0.6955 -0.0489
  247MOL0     C33270   3.825   0.362   0.938 -0.6209 -0.0132 -0.9791
  247MOL0     C33271   3.698   0.328   1.011 -0.9803 -0.3250 -0.0413
  247MOL0     C33272   3.569   0.355   0.932  0.8273  0.3549  0.1968
  247MOL0     C33273   3.554   0.498   0.905  0.1128  0.4321  0.4374
  247MOL0     C33274   3.517   0.615   0.894  0.7700 -0.8125  0.2377
  247MOL0     C33275   4.208   0.196   1.073  0.1024  0.7037 -0.5393
  247MOL0     C33276   4.335   0.171   1.130 -0.4141 -0.8662 -0.4524
  247MOL0     C33277   4.339   0.077   1.248  0.5827 -0.4781 -0.9655
  247MOL0     H33278   4.820   0.493   1.168  0.4693  0.0742 -1.4710
  247MOL0     H33279   5.044   0.487   1.251 -2.3259 -0.1854  1.8383
  247MOL0     H33280   5.206   0.169   1.362 -3.3046  1.5325 -2.6955
  247MOL0     H33281   5.282   0.110   1.222 -0.3293 -0.3583 -0.8194
  247MOL0     H33282   5.391   0.326   1.408  3.1377  1.1836 -2.1154
  247MOL0     H33283   5.474   0.275   1.263 -0.3336  2.2623 -0.0216
  247MOL0     H33284   5.463   0.036   1.379 -2.7068  1.0417 -1.5763
  247MOL0     H33285   5.417   0.137   1.532 -1.9494  1.3022 -1.4734
  247MOL0     H33286   5.618   0.260   1.510 -0.7218  1.2714 -3.1570
  247MOL0     H33287   5.623   0.093   1.559 -4.4690 -0.4184 -0.6610
  247MOL0     H33288   5.702   0.216   1.292 -3.3689 -0.5628  1.0957
  247MOL0     H33289   5.809   0.156   1.424  0.0587 -2.7083  2.8127
  247MOL0     H33290   5.722  -0.072   1.387 -1.8459  0.1309 -0.5381
  247MOL0     H33291   5.657  -0.024   1.228 -0.8315 -1.3711  1.2931
  247MOL0     H33292   5.939   0.004   1.355 -0.2713  1.3038 -0.6063
  247MOL0     H33293   5.894   0.092   1.212  0.1371 -0.3036 -0.5622
  247MOL0     H33294   5.891  -0.210   1.247  0.8795  0.5208  1.2346
  247MOL0     H33295   5.859  -0.129   1.090  0.4096 -1.6336 -0.4674
  247MOL0     H33296   6.163  -0.050   1.318  2.7240  1.0072 -0.5781
  247MOL0     H33297   6.448   0.026   1.082  0.8746  1.5432  0.3061
  247MOL0     H33298   6.343   0.135   1.170 -0.2948  0.0696 -1.5013
  247MOL0     H33299   6.391   0.038   1.393 -0.7491 -1.8946  0.7850
  247MOL0     H33300   6.458  -0.108   1.317  0.6938  0.3341  2.2664
  247MOL0     H33301   6.579   0.177   1.337  0.0351 -0.9115  1.0045
  247MOL0     H33302   6.632   0.067   1.208  1.6301  2.3715 -0.7101
  247MOL0     H33303   6.702  -0.092   1.384 -2.5857 -0.3115  0.5532
  247MOL0     H33304   6.628  -0.020   1.523  0.4346 -0.9813 -0.0015
  247MOL0     H33305   6.929   0.280   1.552 -0.9370  1.4533  4.5919
  247MOL0     H33306   7.139   0.235   1.672  0.0833  0.1667 -1.5863
  247MOL0     H33307   7.418   0.023   1.949 -0.9351  0.1662 -0.1384
  247MOL0     H33308   7.610   0.081   2.067 -2.2709  1.0597 -0.8289
  247MOL0     H33309   7.964   0.096   1.782  0.3114 -0.3506 -0.3553
  247MOL0     H33310   8.004   0.260   1.848 -2.4082  0.9198  0.7410
  247MOL0     H33311   8.115   0.158   2.041 -0.2916  1.5993 -0.6515
  247MOL0     H33312   8.057  -0.003   1.993 -0.2231 -0.5173  0.5703
  247MOL0     H33313   8.184  -0.001   1.791  1.5407  1.3142 -2.0280
  247MOL0     H33314   8.234   0.167   1.809  1.1187 -0.6828 -2.0692
  247MOL0     H33315   8.340  -0.077   1.945  2.2514 -0.4964  0.6922
  247MOL0     H33316   8.349   0.071   2.034  1.0059 -1.1127 -0.7925
  247MOL0     H33317   8.455   0.023   1.744  2.8116 -1.5497 -0.8095
  247MOL0     H33318   8.546  -0.014   1.884  0.0610 -0.6421 -1.3317
  247MOL0     H33319   8.461   0.262   1.801  1.8184  0.2423 -1.1005
  247MOL0     H33320   8.485   0.234   1.974 -2.0716 -0.6249  0.0629
  247MOL0     H33321   8.688   0.218   1.729  2.2873 -0.9215 -0.0392
  247MOL0     H33322   8.723   0.153   1.893  1.6466  0.6834 -1.4092
  247MOL0     H33323   8.661   0.383   1.980  0.0132 -0.7277  0.0678
  247MOL0     H33324   8.815   0.373   1.875  0.0857 -0.1450 -3.0220
  247MOL0     H33325   7.801   0.219   1.704 -0.3703 -0.3405  0.9034
  247MOL0     H33326   7.576   0.148   1.578  2.7094  2.0395 -1.6064
  247MOL0     H33327   7.071  -0.188   1.649  1.1722 -0.4619 -0.5063
  247MOL0     H33328   6.850  -0.147   1.536  0.7499 -0.0025 -1.1647
  247MOL0     H33329   5.108   0.090   1.099 -0.9504 -0.9087  1.3508
  247MOL0     H33330   4.865   0.086   1.028 -2.0298  1.7103 -1.5627
  247MOL0     H33331   4.508   0.389   0.924  0.3005 -1.5386 -1.7674
  247MOL0     H33332   4.272   0.444   0.853 -1.1728 -1.0827 -0.9271
  247MOL0     H33333   3.956   0.380   1.102 -1.5694  1.5044 -0.5115
  247MOL0     H33334   3.944   0.209   1.042  1.5890  0.2890 -1.2062
  247MOL0     H33335   3.836   0.310   0.842  1.7467  0.5813 -1.0959
  247MOL0     H33336   3.835   0.471   0.933  3.1250 -0.1361  0.3822
  247MOL0     H33337   3.682   0.393   1.097 -2.9469  1.4776 -1.6473
  247MOL0     H33338   3.713   0.226   1.049 -0.9364 -1.6183 -3.2199
  247MOL0     H33339   3.573   0.290   0.844  0.7065 -0.8344  1.0436
  247MOL0     H33340   3.484   0.328   0.995  0.1136  0.0754 -0.8702
  247MOL0     H33341   3.494   0.718   0.876  2.6270 -0.4818 -0.4998
  247MOL0     H33342   4.119   0.150   1.116 -0.0230 -1.7696 -3.1336
  247MOL0     H33343   4.395   0.121   1.331 -2.8190 -1.3006  2.0111
  247MOL0     H33344   4.237   0.070   1.284  1.7729 -0.8912  2.7025
  247MOL0     H33345   4.379  -0.018   1.211 -2.7345 -0.8051 -4.2856
  248MOL0     O33346   1.497   8.820   9.677 -0.1979 -0.7864 -0.0691
  248MOL0     C33347   1.475   8.708   9.659 -0.3089  0.7898 -0.1068
  248MOL0     O33348   1.566   8.611   9.681 -0.2040  1.0616 -0.2061
  248MOL0     C33349   1.696   8.653   9.699 -0.0953  0.6200  0.3178
  248MOL0     C33350   1.789   8.645   9.596 -0.3611 -0.3869 -0.0259
  248MOL0     C33351   1.925   8.686   9.626 -1.2489  0.4377  0.4594
  248MOL0     C33352   1.963   8.733   9.747  0.9176 -0.2307 -0.7687
  248MOL0     O33353   2.093   8.786   9.765  0.3893  0.1451 -0.2092
  248MOL0     C33354   2.177   8.791   9.655 -0.7214  0.0183 -0.2253
  248MOL0     C33355   2.247   8.651   9.645  0.1028 -0.0231  0.3864
  248MOL0     C33356   2.331   8.645   9.515 -0.8666 -0.8978 -0.1406
  248MOL0     C33357   2.396   8.509   9.483  0.2367 -0.5125  0.1300
  248MOL0     C33358   2.484   8.520   9.356 -0.2232  0.3370  0.2456
  248MOL0     C33359   2.611   8.603   9.372  0.5620  0.1585  0.9020
  248MOL0     C33360   2.690   8.587   9.246 -0.5657 -0.3602 -0.4217
  248MOL0     C33361   2.835   8.627   9.266  0.1782 -0.1879  0.8872
  248MOL0     N33362   2.909   8.618   9.142 -0.3192  0.6740  1.0814
  248MOL0     C33363   2.888   8.699   9.036  0.4151  0.1345 -0.2126
  248MOL0     C33364   2.960   8.636   8.941 -0.1069 -0.4336 -0.3593
  248MOL0     C33365   3.004   8.688   8.809  0.9991  0.2577  0.0920
  248MOL0     C33366   3.145   8.759   8.817  0.1558 -0.8981 -1.1533
  248MOL0     C33367   3.182   8.822   8.685 -0.9232 -1.0507 -0.0675
  248MOL0     C33368   3.331   8.882   8.692 -0.6404  1.1713  0.1243
  248MOL0     O33369   3.337   8.980   8.789 -0.0646 -1.3200  0.2144
  248MOL0     C33370   3.463   9.022   8.835  1.2009  0.1178 -0.1219
  248MOL0     C33371   3.463   9.137   8.919 -0.7083  0.5952 -0.5970
  248MOL0     C33372   3.589   9.175   8.974 -0.3949  0.0292 -0.5211
  248MOL0     C33373   3.709   9.117   8.941 -0.2677  0.1562  0.0051
  248MOL0     C33374   3.843   9.160   8.998  0.2483 -0.2690 -0.7073
  248MOL0     O33375   3.828   9.247   9.103 -0.1165 -0.9316 -0.2192
  248MOL0     C33376   3.937   9.292   9.169 -0.4447 -0.2553  0.7074
  248MOL0     C33377   4.042   9.211   9.219  0.3980 -0.3361  0.0632
  248MOL0     C33378   4.152   9.276   9.268  0.0306 -0.2569 -0.8587
  248MOL0     C33379   4.162   9.416   9.282  0.8738  0.9673 -0.0962
  248MOL0     O33380   4.268   9.468   9.347  0.0383 -0.1204 -0.4505
  248MOL0     C33381   4.253   9.444   9.485  0.8014 -0.1984 -0.3720
  248MOL0     C33382   4.369   9.516   9.552  0.5197 -0.0065 -0.0450
  248MOL0     C33383   4.340   9.663   9.566  0.0625 -0.4155 -0.1084
  248MOL0     C33384   4.446   9.738   9.649  0.9606  0.4046 -0.1280
  248MOL0     C33385   4.373   9.821   9.756 -0.2797  0.3015 -0.4638
  248MOL0     C33386   4.465   9.869   9.864 -0.1417  0.9745  0.3575
  248MOL0     C33387   4.574   9.968   9.811 -0.0817  0.3233 -0.2712
  248MOL0     C33388   4.699   9.967   9.899 -0.3676 -0.5063 -0.9123
  248MOL0    Cl33389   4.791  10.111   9.868 -0.0755 -0.2516  0.4068
  248MOL0     C33390   4.060   9.489   9.236 -0.8539 -0.3287  0.4678
  248MOL0     C33391   3.949   9.429   9.178  0.6183 -0.6523  0.3678
  248MOL0     O33392   3.948   9.106   8.960  0.4072  0.3746 -0.7501
  248MOL0     C33393   3.708   9.013   8.847 -0.1346  0.1732  0.1768
  248MOL0     C33394   3.586   8.961   8.793 -0.3024 -0.8264  0.1615
  248MOL0     N33395   3.019   8.528   8.984  0.1002  1.0989  0.2402
  248MOL0     N33396   2.987   8.511   9.103 -0.3102  0.0385 -0.1307
  248MOL0     C33397   1.873   8.740   9.848  0.1269  0.1693  0.3405
  248MOL0     C33398   1.738   8.689   9.832  0.3342  0.5924  0.0971
  248MOL0     C33399   1.350   8.669   9.598 -0.1808  0.0666  0.2692
  248MOL0     C33400   1.279   8.565   9.647  0.4285 -0.5189  0.4505
  248MOL0     C33401   1.163   8.526   9.583  0.2387 -1.4888  0.4178
  248MOL0     C33402   1.102   8.602   9.485 -0.1825  0.8593  0.6002
  248MOL0     O33403   0.977   8.570   9.438 -0.4014  0.2732 -0.6250
  248MOL0     C33404   0.913   8.630   9.330  0.5358 -0.6898  0.9110
  248MOL0     C33405   0.783   8.555   9.324 -0.2176 -0.1656 -0.1138
  248MOL0     C33406   0.695   8.605   9.204  0.4820 -0.3335 -0.0542
  248MOL0     C33407   0.584   8.502   9.184  0.6266  0.2835  0.7666
  248MOL0     C33408   0.476   8.576   9.126  0.7855 -0.7680  0.3284
  248MOL0     C33409   0.386   8.649   9.067  0.0609  0.4214 -0.9383
  248MOL0     C33410   1.181   8.706   9.428  0.0314  0.1073 -0.0535
  248MOL0     C33411   1.306   8.745   9.481  0.0350 -0.7717  0.3033
  248MOL0     C33412   1.380   8.845   9.396 -0.1937 -0.8713 -0.2703
  248MOL0     H33413   1.764   8.623   9.493 -0.3934  4.0677 -1.1481
  248MOL0     H33414   1.996   8.671   9.546  0.2405  1.1126  1.6104
  248MOL0     H33415   2.130   8.831   9.565 -0.1855  2.5727  0.5387
  248MOL0     H33416   2.256   8.859   9.689 -0.8568 -0.2530  0.6718
  248MOL0     H33417   2.171   8.574   9.627 -0.7971  1.0377 -0.4741
  248MOL0     H33418   2.303   8.642   9.738  1.7378 -1.8884 -0.6740
  248MOL0     H33419   2.414   8.710   9.543 -0.7801 -1.7775  1.8415
  248MOL0     H33420   2.276   8.682   9.428 -0.6309  1.7290  0.7393
  248MOL0     H33421   2.454   8.458   9.560 -2.7729 -1.8548  1.7109
  248MOL0     H33422   2.320   8.432   9.463 -0.4421 -0.4981  2.4464
  248MOL0     H33423   2.502   8.421   9.315  1.0190  1.0072 -0.9043
  248MOL0     H33424   2.427   8.575   9.281 -2.2946 -0.2874  1.2840
  248MOL0     H33425   2.585   8.709   9.385  0.0016 -0.0463  1.4699
  248MOL0     H33426   2.663   8.551   9.453 -0.8840 -1.3839  0.8999
  248MOL0     H33427   2.631   8.637   9.169  0.1006  1.9674  0.5137
  248MOL0     H33428   2.696   8.481   9.220  0.5887 -0.7327  1.1858
  248MOL0     H33429   2.850   8.730   9.299 -1.1356  0.3041  0.0191
  248MOL0     H33430   2.889   8.557   9.331  1.2520 -2.2510 -2.0022
  248MOL0     H33431   2.840   8.796   9.032  0.0731  0.0346  0.9793
  248MOL0     H33432   3.004   8.597   8.747 -1.7447 -0.2175  0.6541
  248MOL0     H33433   2.935   8.753   8.754  1.0328  0.4325  0.2549
  248MOL0     H33434   3.134   8.838   8.892 -0.8371 -1.1995 -0.9558
  248MOL0     H33435   3.219   8.685   8.850 -0.4796 -0.3549  1.7541
  248MOL0     H33436   3.114   8.906   8.669 -1.6045 -1.3738  0.9895
  248MOL0     H33437   3.175   8.753   8.600 -2.9666  0.6750 -1.4123
  248MOL0     H33438   3.370   8.920   8.597 -0.4307  1.5546  0.3603
  248MOL0     H33439   3.389   8.795   8.724 -0.0245  1.3287 -0.5418
  248MOL0     H33440   3.366   9.165   8.957 -2.1598 -3.1022 -1.0885
  248MOL0     H33441   3.581   9.250   9.052  1.6788 -0.2041 -0.0044
  248MOL0     H33442   4.054   9.106   9.196  1.3848  0.5236 -4.2964
  248MOL0     H33443   4.233   9.213   9.306  2.1662  1.9460 -1.5126
  248MOL0     H33444   4.157   9.483   9.519  0.9580  0.0137 -0.1732
  248MOL0     H33445   4.260   9.338   9.513 -1.7375 -0.6123 -1.0344
  248MOL0     H33446   4.382   9.483   9.655 -1.6123  0.4454  0.4150
  248MOL0     H33447   4.467   9.495   9.507  0.9791  1.4506  0.2233
  248MOL0     H33448   4.345   9.713   9.469 -0.2462  0.7201  0.4421
  248MOL0     H33449   4.244   9.679   9.615  1.0647 -0.7623  2.1144
  248MOL0     H33450   4.503   9.806   9.585  2.2794 -0.7273 -0.1963
  248MOL0     H33451   4.516   9.667   9.693 -1.9467 -1.6930  1.4771
  248MOL0     H33452   4.290   9.768   9.804  1.1465 -0.3358  1.4028
  248MOL0     H33453   4.331   9.906   9.700  1.1897  0.2135 -1.7520
  248MOL0     H33454   4.395   9.915   9.934 -1.7092  2.5245 -2.0932
  248MOL0     H33455   4.514   9.778   9.900 -0.1707  1.0386  0.5604
  248MOL0     H33456   4.533  10.066   9.838 -0.5953 -0.0491  0.3361
  248MOL0     H33457   4.600   9.970   9.705  2.5628  0.5858  0.3235
  248MOL0     H33458   4.674   9.957  10.005  1.4881  1.0927 -0.2671
  248MOL0     H33459   4.758   9.875   9.888 -0.6103 -0.8512  0.3976
  248MOL0     H33460   4.065   9.597   9.245 -0.5631 -0.1991 -0.9200
  248MOL0     H33461   3.875   9.487   9.124  0.9805 -3.5863 -3.7431
  248MOL0     H33462   3.807   8.974   8.824 -0.3765  0.4168 -1.3893
  248MOL0     H33463   3.593   8.877   8.724  0.2756  0.7102 -1.7661
  248MOL0     H33464   1.897   8.757   9.953  0.9620  0.7112  0.0733
  248MOL0     H33465   1.669   8.690   9.916 -1.1256  1.9133 -1.0402
  248MOL0     H33466   1.315   8.501   9.726  2.1124  0.1700  0.2911
  248MOL0     H33467   1.121   8.434   9.622  2.3756 -1.0404  4.2311
  248MOL0     H33468   0.966   8.642   9.235 -2.2288 -0.2858 -0.7030
  248MOL0     H33469   0.896   8.737   9.344  0.3406 -0.4904 -0.6556
  248MOL0     H33470   0.730   8.557   9.419  0.3937  0.1850  0.2252
  248MOL0     H33471   0.804   8.448   9.314  0.7669  0.1462 -2.0141
  248MOL0     H33472   0.760   8.614   9.116  1.7745  1.3972  0.9995
  248MOL0     H33473   0.650   8.703   9.221  0.6025 -0.0150 -1.4335
  248MOL0     H33474   0.619   8.416   9.126 -0.7471 -0.5097  1.0831
  248MOL0     H33475   0.563   8.465   9.285  1.4032  0.5394  1.0366
  248MOL0     H33476   0.324   8.716   9.011 -1.7727  1.4230  2.0452
  248MOL0     H33477   1.145   8.767   9.346 -2.6098 -0.7962  0.3338
  248MOL0     H33478   1.329   8.942   9.399  1.1921 -0.0566 -1.8101
  248MOL0     H33479   1.484   8.865   9.422  0.2682  0.6203 -2.8388
  248MOL0     H33480   1.372   8.820   9.290 -2.2927  1.5859 -0.7924
  249MOL0     O33481   0.247   9.927   1.148  0.4323  0.8116 -0.0205
  249MOL0     C33482   0.227   9.917   1.025 -0.6159 -0.5497  0.5716
  249MOL0     O33483   0.317   9.889   0.934 -0.4412 -0.0743 -0.2630
  249MOL0     C33484   0.452   9.877   0.967 -0.2347 -0.2357  0.1313
  249MOL0     C33485   0.551   9.940   0.894 -0.0068  0.0344  0.7946
  249MOL0     C33486   0.690   9.909   0.919  0.8425  0.5815 -0.1117
  249MOL0     C33487   0.725   9.817   1.021 -0.0325 -0.3540 -0.6197
  249MOL0     O33488   0.850   9.775   1.049  0.4633 -0.1660 -0.3900
  249MOL0     C33489   0.945   9.820   0.957  0.6373  0.3020  0.8040
  249MOL0     C33490   1.081   9.767   1.002 -0.0695 -0.1949  0.3352
  249MOL0     C33491   1.129   9.812   1.140  0.1282 -0.3022  0.0508
  249MOL0     C33492   1.268   9.753   1.175  0.4947  0.2372 -0.1091
  249MOL0     C33493   1.307   9.786   1.322  0.3156  0.0249 -0.0132
  249MOL0     C33494   1.420   9.699   1.377 -0.1614  0.2645  0.8607
  249MOL0     C33495   1.434   9.678   1.528 -0.1225  0.0915 -0.2451
  249MOL0     C33496   1.512   9.793   1.584  0.5374 -0.5751 -0.1402
  249MOL0     N33497   1.656   9.763   1.556 -0.4410  0.8049 -0.7863
  249MOL0     C33498   1.724   9.645   1.597 -0.2433 -0.0773 -0.0022
  249MOL0     C33499   1.844   9.650   1.540  0.0502 -1.0796  0.1742
  249MOL0     C33500   1.959   9.558   1.566 -0.0064  0.0474  0.0467
  249MOL0     C33501   2.041   9.626   1.679 -0.1723  1.1159  1.0789
  249MOL0     C33502   2.146   9.731   1.626 -1.1674 -0.5043  0.3237
  249MOL0     C33503   2.268   9.672   1.561 -0.6192  1.4762  0.0617
  249MOL0     O33504   2.399   9.733   1.584 -0.2245  0.1522  0.3429
  249MOL0     C33505   2.515   9.661   1.553  0.0806 -0.1868 -0.1270
  249MOL0     C33506   2.641   9.715   1.571 -0.1157  0.1393 -0.1921
  249MOL0     C33507   2.760   9.654   1.533  0.5578  0.7783  0.5412
  249MOL0     C33508   2.750   9.519   1.483 -0.3426 -0.0095  0.2733
  249MOL0     C33509   2.871   9.446   1.449 -0.2974 -0.6703 -0.2159
  249MOL0     O33510   2.862   9.357   1.352  0.3586  0.5259 -0.6306
  249MOL0     C33511   2.976   9.288   1.308  1.0346 -0.4555 -0.3014
  249MOL0     C33512   2.983   9.147   1.317 -0.0144 -0.5181 -0.5946
  249MOL0     C33513   3.093   9.073   1.278 -0.7336 -0.2869  0.4353
  249MOL0     C33514   3.205   9.137   1.217 -0.0852 -0.2760  0.6488
  249MOL0     O33515   3.302   9.061   1.164  1.0021 -0.4904 -0.2317
  249MOL0     C33516   3.368   9.097   1.035  0.4342  0.3546  0.6428
  249MOL0     C33517   3.461   8.981   0.998 -0.0327  0.9124 -0.3905
  249MOL0     C33518   3.546   9.010   0.875 -1.1105  0.8836 -1.1106
  249MOL0     C33519   3.634   8.880   0.845 -0.6892 -0.3233 -0.0424
  249MOL0     C33520   3.748   8.901   0.742 -0.1424  0.2303  0.2747
  249MOL0     C33521   3.861   8.962   0.818 -0.5259 -0.1510 -0.3484
  249MOL0     C33522   3.986   9.002   0.732 -0.8169  0.0750  0.0343
  249MOL0     C33523   4.094   9.074   0.822 -0.5123  0.0963 -0.1133
  249MOL0    Cl33524   4.230   9.143   0.732  0.0799  0.0755  0.5053
  249MOL0     C33525   3.202   9.279   1.206  0.1741 -0.0911  0.2344
  249MOL0     C33526   3.092   9.353   1.250  0.0284  0.2893  0.1200
  249MOL0     O33527   2.978   9.476   1.505  0.7275  0.0146 -0.2511
  249MOL0     C33528   2.622   9.460   1.478  0.6726 -0.8559 -0.0983
  249MOL0     C33529   2.505   9.529   1.514  0.5112 -0.8356  0.2488
  249MOL0     N33530   1.848   9.760   1.456  0.4110 -0.5739 -0.4603
  249MOL0     N33531   1.738   9.827   1.462  0.0287 -0.1195 -0.1607
  249MOL0     C33532   0.620   9.761   1.097  0.1044 -0.6369  0.2117
  249MOL0     C33533   0.489   9.786   1.065  0.2100  0.3170  0.3357
  249MOL0     C33534   0.091   9.926   0.972  0.5405 -0.7027 -0.1011
  249MOL0     C33535   0.060   9.852   0.854  0.1841  0.1573 -0.3526
  249MOL0     C33536  -0.072   9.826   0.813  0.0093  0.5247  0.0283
  249MOL0     C33537  -0.176   9.890   0.877  1.0280 -0.2866 -0.2607
  249MOL0     O33538  -0.295   9.898   0.819 -0.8504 -0.1980 -1.0462
  249MOL0     C33539  -0.420   9.897   0.898 -0.1717 -0.9980  0.2811
  249MOL0     C33540  -0.432   9.759   0.970  0.5408  0.1942 -1.0660
  249MOL0     C33541  -0.575   9.736   1.008  0.7053 -0.3440 -0.3461
  249MOL0     C33542  -0.605   9.649   1.132  0.0549  0.3320  0.3422
  249MOL0     C33543  -0.722   9.559   1.120 -1.4013  0.3924  0.0444
  249MOL0     C33544  -0.809   9.486   1.089 -0.0683  0.0736 -0.3462
  249MOL0     C33545  -0.149   9.968   0.992 -0.9897 -0.1985 -0.1767
  249MOL0     C33546  -0.014   9.989   1.037 -0.3098 -0.4264  0.0059
  249MOL0     C33547   0.002  10.110   1.121 -0.4275 -0.6492 -0.1687
  249MOL0     H33548   0.519  10.015   0.822 -0.8210 -0.7030  0.3634
  249MOL0     H33549   0.756   9.966   0.856  2.0084  1.4180  1.7893
  249MOL0     H33550   0.930   9.764   0.864  0.9538 -1.5471  1.8266
  249MOL0     H33551   0.964   9.924   0.928  0.8384 -0.4463 -2.0886
  249MOL0     H33552   1.149   9.801   0.923  3.5270 -1.2441  2.7422
  249MOL0     H33553   1.083   9.658   0.999 -0.0929 -0.2929  2.6833
  249MOL0     H33554   1.049   9.791   1.211  0.3189  0.6968  0.5862
  249MOL0     H33555   1.137   9.921   1.146  0.0648 -0.1893 -1.4183
  249MOL0     H33556   1.261   9.644   1.170  0.7115  0.2700 -1.4190
  249MOL0     H33557   1.346   9.793   1.110  2.3297 -1.7963  0.7511
  249MOL0     H33558   1.356   9.884   1.319  2.0597 -0.7964  0.1599
  249MOL0     H33559   1.214   9.784   1.379  0.3535  2.6545  0.2802
  249MOL0     H33560   1.408   9.604   1.326  0.0959 -0.1613  1.5747
  249MOL0     H33561   1.514   9.737   1.335  0.9521 -1.3397  1.7778
  249MOL0     H33562   1.483   9.584   1.557  1.4226  1.6305  2.6214
  249MOL0     H33563   1.334   9.678   1.572 -0.4665 -3.3656 -0.7296
  249MOL0     H33564   1.489   9.884   1.527  1.8655 -0.4387 -0.5006
  249MOL0     H33565   1.485   9.825   1.685 -2.0653 -1.4641 -0.4732
  249MOL0     H33566   1.692   9.564   1.661  2.6865  0.2430  2.0692
  249MOL0     H33567   1.922   9.460   1.597  0.7441 -0.6097 -1.0805
  249MOL0     H33568   2.020   9.549   1.476 -1.5172  0.3274 -1.0580
  249MOL0     H33569   1.966   9.676   1.742 -0.2853  0.4492  1.4899
  249MOL0     H33570   2.077   9.542   1.740 -1.3502 -0.1831  0.0650
  249MOL0     H33571   2.174   9.799   1.707 -0.9364 -0.2017 -0.0104
  249MOL0     H33572   2.107   9.797   1.548  1.3964 -1.4121 -1.8720
  249MOL0     H33573   2.245   9.646   1.457  0.9780 -0.4297  0.1285
  249MOL0     H33574   2.270   9.576   1.614 -0.0004  0.4610 -1.6944
  249MOL0     H33575   2.645   9.818   1.605  0.8228  1.3083 -3.4556
  249MOL0     H33576   2.850   9.713   1.532  0.3941  1.0288 -0.2662
  249MOL0     H33577   2.900   9.089   1.356  0.7894  0.0571  2.2423
  249MOL0     H33578   3.089   8.964   1.277 -1.0074 -0.4109 -3.9174
  249MOL0     H33579   3.289   9.098   0.960 -0.7277 -0.8222  1.7892
  249MOL0     H33580   3.416   9.196   1.031 -3.5717  2.5098  0.2696
  249MOL0     H33581   3.523   8.963   1.086  0.7054  1.4401 -0.7866
  249MOL0     H33582   3.408   8.886   0.988  1.7259  0.0229 -1.7181
  249MOL0     H33583   3.482   9.036   0.790 -1.9634  0.6860 -0.5413
  249MOL0     H33584   3.609   9.094   0.907  1.9524 -1.5992 -0.1659
  249MOL0     H33585   3.569   8.800   0.806  1.2900 -2.2682  0.4284
  249MOL0     H33586   3.671   8.841   0.940  1.1679 -0.2220 -0.6815
  249MOL0     H33587   3.718   8.974   0.666  1.1368  0.5495  0.0612
  249MOL0     H33588   3.778   8.807   0.695  2.1263 -0.7202  3.3688
  249MOL0     H33589   3.830   9.056   0.864 -0.5098 -1.0128  1.4879
  249MOL0     H33590   3.888   8.893   0.898  0.2596 -2.1072 -2.1889
  249MOL0     H33591   3.959   9.051   0.638 -2.6381 -2.7901 -1.1033
  249MOL0     H33592   4.033   8.909   0.697  2.6833  1.8595 -0.4116
  249MOL0     H33593   4.044   9.158   0.871  0.0195  0.3477  0.0128
  249MOL0     H33594   4.133   9.010   0.902  0.0448  0.3718 -0.1563
  249MOL0     H33595   3.278   9.344   1.166 -0.8838  3.5399  3.5427
  249MOL0     H33596   3.099   9.460   1.232  1.0626  0.4183  1.1941
  249MOL0     H33597   2.612   9.360   1.439  0.4519 -1.1422  0.6730
  249MOL0     H33598   2.412   9.483   1.483  0.1637 -0.5470  0.8428
  249MOL0     H33599   0.636   9.679   1.167 -0.1561 -0.5471  0.3747
  249MOL0     H33600   0.412   9.723   1.108 -0.8819 -0.8983 -3.0822
  249MOL0     H33601   0.145   9.817   0.798  1.3484  2.4244 -0.1426
  249MOL0     H33602  -0.093   9.763   0.727 -1.3076 -0.9884  1.3785
  249MOL0     H33603  -0.504   9.908   0.830 -2.6758  3.7213  3.5324
  249MOL0     H33604  -0.426   9.990   0.956 -1.0820 -0.9841  0.1758
  249MOL0     H33605  -0.366   9.770   1.056 -2.4718 -1.6119  1.7239
  249MOL0     H33606  -0.401   9.681   0.900 -1.8131  0.2283 -2.2634
  249MOL0     H33607  -0.616   9.683   0.921  3.4241 -2.6053 -0.3755
  249MOL0     H33608  -0.635   9.828   1.008 -0.9077 -1.3389 -0.6529
  249MOL0     H33609  -0.514   9.593   1.156  0.2257  0.2589 -0.4594
  249MOL0     H33610  -0.615   9.727   1.209 -3.3352  3.5103 -2.8888
  249MOL0     H33611  -0.884   9.433   1.034 -1.2307  0.1412  1.0985
  249MOL0     H33612  -0.232  10.009   1.049 -2.7801 -3.7905  0.0718
  249MOL0     H33613   0.084  10.172   1.083 -1.0913  0.7324  0.5727
  249MOL0     H33614  -0.093  10.164   1.126 -0.3376 -0.3846 -1.1447
  249MOL0     H33615   0.032  10.082   1.222  3.4365 -1.3711 -1.3394
  250MOL0     O33616   5.925   0.574   2.807 -0.6992  0.3470 -0.0692
  250MOL0     C33617   5.884   0.623   2.911  0.1310 -0.0590  0.3380
  250MOL0     O33618   5.912   0.581   3.039  0.2586 -0.2861  0.0136
  250MOL0     C33619   5.978   0.469   3.052  0.1432  0.1439  0.6459
  250MOL0     C33620   6.115   0.464   3.016 -0.1192 -0.4954  0.2774
  250MOL0     C33621   6.192   0.357   3.068  0.0557  0.1125 -0.4143
  250MOL0     C33622   6.132   0.252   3.137 -0.6317  0.3848  0.2284
  250MOL0     O33623   6.213   0.141   3.169 -0.2635  1.4496 -0.1079
  250MOL0     C33624   6.154   0.009   3.148  0.0573  0.0169 -0.1906
  250MOL0     C33625   6.258  -0.102   3.154 -0.8319 -0.2791  0.7492
  250MOL0     C33626   6.211  -0.233   3.092 -0.0267 -0.2411  0.0973
  250MOL0     C33627   6.310  -0.349   3.120 -0.0445  0.1627  0.0248
  250MOL0     C33628   6.295  -0.451   3.017  1.3343  0.4833  0.0721
  250MOL0     C33629   6.150  -0.522   3.024 -0.2364  0.3213 -0.8347
  250MOL0     C33630   6.139  -0.655   2.945  0.7599 -0.0989  0.1536
  250MOL0     C33631   6.203  -0.766   3.021  0.5759 -0.7537 -0.1917
  250MOL0     N33632   6.227  -0.884   2.941  0.2629  0.4659 -0.7348
  250MOL0     C33633   6.322  -0.882   2.843 -0.9064  0.9883  0.6358
  250MOL0     C33634   6.292  -0.997   2.779 -0.5676 -0.2122 -0.0887
  250MOL0     C33635   6.382  -1.043   2.672  0.6958 -0.4350 -0.4805
  250MOL0     C33636   6.339  -1.178   2.622 -0.7461 -0.0133  0.5256
  250MOL0     C33637   6.442  -1.229   2.511  0.4122 -0.1955 -0.0601
  250MOL0     C33638   6.409  -1.373   2.458 -0.4131 -0.3780 -0.5583
  250MOL0     O33639   6.503  -1.401   2.353  0.0762  0.3004 -0.1262
  250MOL0     C33640   6.643  -1.405   2.373 -0.8257  0.2290  0.0120
  250MOL0     C33641   6.702  -1.522   2.412 -1.6487  0.7402 -0.1426
  250MOL0     C33642   6.837  -1.525   2.444 -0.2609  0.4340  0.3726
  250MOL0     C33643   6.912  -1.409   2.443 -0.4859 -0.6342  0.8502
  250MOL0     C33644   7.056  -1.421   2.473 -0.1550 -0.8703  0.2745
  250MOL0     O33645   7.140  -1.341   2.399 -0.1572 -0.2974 -0.4972
  250MOL0     C33646   7.272  -1.352   2.428 -0.4839 -0.1055  0.1177
  250MOL0     C33647   7.317  -1.337   2.562 -0.3301  0.5657  0.1519
  250MOL0     C33648   7.448  -1.307   2.592 -0.2838 -1.0049  0.1457
  250MOL0     C33649   7.535  -1.265   2.492 -1.0099 -0.6992  1.4007
  250MOL0     O33650   7.667  -1.222   2.526 -0.1465  0.8802  0.0837
  250MOL0     C33651   7.755  -1.163   2.425  1.5380 -0.2259 -0.5794
  250MOL0     C33652   7.869  -1.073   2.477 -0.4993  0.5294  0.9536
  250MOL0     C33653   7.940  -1.134   2.596  0.0444  0.7949 -0.5720
  250MOL0     C33654   8.087  -1.084   2.594  0.5236 -0.0104 -0.4131
  250MOL0     C33655   8.156  -1.164   2.707 -0.1394 -0.0121  0.5712
  250MOL0     C33656   8.239  -1.095   2.811  0.2316 -0.2090  0.1217
  250MOL0     C33657   8.317  -0.968   2.753  0.8816 -0.8259 -0.3337
  250MOL0     C33658   8.384  -0.969   2.621 -0.0230 -0.1634  0.0117
  250MOL0    Cl33659   8.539  -1.070   2.636  0.2854  0.0240  0.3594
  250MOL0     C33660   7.491  -1.273   2.364 -0.4552  0.6269  0.0474
  250MOL0     C33661   7.362  -1.319   2.331  0.1252  0.7102  0.3029
  250MOL0     O33662   7.087  -1.509   2.556 -0.3897 -0.1820 -0.0772
  250MOL0     C33663   6.853  -1.284   2.393 -0.1577 -0.3120 -0.0141
  250MOL0     C33664   6.717  -1.289   2.358  0.2566  0.3278  0.2302
  250MOL0     N33665   6.194  -1.065   2.849  0.0508 -0.4959  0.3985
  250MOL0     N33666   6.152  -0.993   2.947 -0.2773  0.0168  0.9086
  250MOL0     C33667   5.998   0.260   3.162 -0.7063 -0.2918  1.2799
  250MOL0     C33668   5.918   0.363   3.119 -0.4474  0.4376  0.1117
  250MOL0     C33669   5.809   0.756   2.898 -0.2257  0.4819  0.3676
  250MOL0     C33670   5.830   0.835   2.788 -0.1170 -0.6053  0.2842
  250MOL0     C33671   5.752   0.956   2.766  0.7101 -0.5188  0.2415
  250MOL0     C33672   5.658   0.995   2.865 -1.1982 -0.4132 -0.4681
  250MOL0     O33673   5.574   1.103   2.863  0.3707  0.7323 -0.3076
  250MOL0     C33674   5.596   1.212   2.768  0.8175 -0.2809  0.0529
  250MOL0     C33675   5.513   1.336   2.815  0.3741  0.2936  0.1930
  250MOL0     C33676   5.379   1.302   2.885  0.0639 -0.3406  0.3466
  250MOL0     C33677   5.267   1.413   2.872 -0.5140 -0.1736  0.5388
  250MOL0     C33678   5.310   1.531   2.947  0.0306 -0.0155  0.5916
  250MOL0     C33679   5.336   1.637   3.005  0.5714  0.3353 -0.6005
  250MOL0     C33680   5.640   0.899   2.974 -0.4991 -0.1934  0.4092
  250MOL0     C33681   5.713   0.786   2.999  0.1540 -0.9828  0.4326
  250MOL0     C33682   5.673   0.703   3.118 -1.1221  0.1863  0.5227
  250MOL0     H33683   6.177   0.540   2.970 -0.4705 -0.4483 -0.1258
  250MOL0     H33684   6.298   0.348   3.049 -0.2313  1.8100 -3.3294
  250MOL0     H33685   6.076  -0.001   3.224  1.8456  0.0802  1.7506
  250MOL0     H33686   6.114   0.009   3.047  3.2130 -0.3877 -1.5560
  250MOL0     H33687   6.287  -0.129   3.257  0.1947 -2.3176 -0.0233
  250MOL0     H33688   6.341  -0.072   3.090 -2.2572 -0.0999 -1.0732
  250MOL0     H33689   6.197  -0.217   2.984 -0.5773  1.2494  0.3651
  250MOL0     H33690   6.116  -0.255   3.142 -0.8011  2.2154 -0.1865
  250MOL0     H33691   6.412  -0.309   3.123  0.6761 -0.9319 -3.7641
  250MOL0     H33692   6.278  -0.401   3.210 -0.6729  0.5314  0.0219
  250MOL0     H33693   6.310  -0.411   2.916 -1.1853 -1.2084 -1.0835
  250MOL0     H33694   6.373  -0.526   3.029 -1.2008 -2.2218  0.6725
  250MOL0     H33695   6.137  -0.538   3.131  2.0557 -0.5748 -0.6311
  250MOL0     H33696   6.071  -0.454   2.990  0.2936  0.1458 -2.4887
  250MOL0     H33697   6.173  -0.651   2.841 -0.8864  3.5206 -0.3851
  250MOL0     H33698   6.034  -0.681   2.927  1.2022 -1.2815 -0.8543
  250MOL0     H33699   6.297  -0.727   3.061  0.2570 -1.2937  1.1195
  250MOL0     H33700   6.138  -0.781   3.108  1.7652  1.3355  1.1367
  250MOL0     H33701   6.401  -0.810   2.826 -0.2450 -0.2196 -2.0133
  250MOL0     H33702   6.389  -0.973   2.588 -0.5837 -1.5365 -1.5611
  250MOL0     H33703   6.486  -1.039   2.704  0.1055  0.0015  1.5517
  250MOL0     H33704   6.344  -1.229   2.719  1.3406  2.0452  1.5962
  250MOL0     H33705   6.243  -1.179   2.570  0.0931  2.8499 -1.2747
  250MOL0     H33706   6.539  -1.243   2.559  1.6653  2.1543 -1.6593
  250MOL0     H33707   6.442  -1.159   2.426  0.4831 -1.5848 -1.2457
  250MOL0     H33708   6.308  -1.382   2.418 -1.9617  0.9785  2.7654
  250MOL0     H33709   6.409  -1.441   2.544  0.3789 -0.1417 -0.3658
  250MOL0     H33710   6.633  -1.605   2.407 -1.9583  0.9158  0.9628
  250MOL0     H33711   6.895  -1.616   2.462  1.3321  1.4154  0.3825
  250MOL0     H33712   7.259  -1.357   2.651  0.4910 -1.8985  0.2049
  250MOL0     H33713   7.485  -1.289   2.692  1.6485  2.7443 -1.0255
  250MOL0     H33714   7.795  -1.250   2.372 -0.9438 -2.2862  0.6677
  250MOL0     H33715   7.691  -1.103   2.359  1.8092  1.0229  0.2673
  250MOL0     H33716   7.939  -1.059   2.394 -2.1283 -1.0727 -0.8037
  250MOL0     H33717   7.817  -0.981   2.505  0.0180  1.3393 -0.6338
  250MOL0     H33718   7.888  -1.108   2.689  1.7846  0.5666  0.5292
  250MOL0     H33719   7.947  -1.243   2.589  1.8104  0.8342  0.0704
  250MOL0     H33720   8.077  -0.976   2.610  0.3543  0.6402 -4.1651
  250MOL0     H33721   8.133  -1.100   2.497 -3.0882 -2.6360 -1.9621
  250MOL0     H33722   8.218  -1.238   2.657 -1.9360 -0.4617 -1.1114
  250MOL0     H33723   8.078  -1.215   2.765 -0.6312  3.3879  3.1791
  250MOL0     H33724   8.167  -1.063   2.887 -1.8666  0.5239 -2.0437
  250MOL0     H33725   8.305  -1.163   2.865  0.7890 -0.7864 -1.2385
  250MOL0     H33726   8.390  -0.942   2.830  0.6217 -1.4599  0.1337
  250MOL0     H33727   8.238  -0.893   2.750 -0.9984 -2.7344 -2.6836
  250MOL0     H33728   8.314  -0.994   2.541  1.4343 -0.2554 -1.2863
  250MOL0     H33729   8.428  -0.870   2.607  4.5986 -2.0441 -0.5677
  250MOL0     H33730   7.560  -1.240   2.286  0.8948  1.1237  1.4048
  250MOL0     H33731   7.335  -1.314   2.226 -0.7921 -0.3595  0.4641
  250MOL0     H33732   6.909  -1.192   2.401 -0.8995  0.2577 -1.2325
  250MOL0     H33733   6.668  -1.202   2.318 -2.6837 -0.3872  2.0107
  250MOL0     H33734   5.952   0.176   3.213  0.3195 -1.0114  1.0560
  250MOL0     H33735   5.817   0.375   3.157  0.2024  3.8670  1.1234
  250MOL0     H33736   5.899   0.796   2.713  3.7116  1.0861  2.6225
  250MOL0     H33737   5.770   1.021   2.681 -5.0037  1.8938  0.4089
  250MOL0     H33738   5.575   1.176   2.667  0.1289 -2.1888  0.8358
  250MOL0     H33739   5.695   1.258   2.781 -0.5529  2.8500  0.3807
  250MOL0     H33740   5.494   1.392   2.723 -2.0539  0.8395  0.9567
  250MOL0     H33741   5.565   1.405   2.881  0.6297  2.2346 -1.9020
  250MOL0     H33742   5.394   1.291   2.992 -1.5936  2.4592  0.9800
  250MOL0     H33743   5.329   1.210   2.852 -1.1073  0.4560 -0.1645
  250MOL0     H33744   5.261   1.428   2.764  1.6846  0.7446  0.4808
  250MOL0     H33745   5.176   1.371   2.914 -1.1359 -0.2676 -0.8508
  250MOL0     H33746   5.366   1.731   3.046  1.7922 -0.1354 -0.3785
  250MOL0     H33747   5.557   0.925   3.039  1.6682  4.4619  1.7485
  250MOL0     H33748   5.617   0.619   3.077 -1.8078  1.5829 -1.5745
  250MOL0     H33749   5.745   0.659   3.188 -3.6849 -0.7925  2.7571
  250MOL0     H33750   5.601   0.762   3.176  0.5561  1.8982  0.9700
  251MOL0     O33751   9.998   5.659   7.092  0.1254 -0.4373 -0.7113
  251MOL0     C33752   9.971   5.549   7.045 -0.9766  0.8747  0.3472
  251MOL0     O33753  10.069   5.458   7.007 -0.4030  1.0592  0.4759
  251MOL0     C33754  10.205   5.491   7.028 -0.3298 -0.6299 -0.1642
  251MOL0     C33755  10.281   5.534   6.919 -0.2375  0.2868  0.5747
  251MOL0     C33756  10.413   5.568   6.926 -0.7328  0.2357 -0.4714
  251MOL0     C33757  10.480   5.544   7.053 -0.2299  0.4118  0.0791
  251MOL0     O33758  10.610   5.570   7.055  0.0465  0.4842 -0.7843
  251MOL0     C33759  10.685   5.454   7.024  0.7607 -0.0067  0.2937
  251MOL0     C33760  10.823   5.499   7.015 -1.2948  0.6662 -0.3517
  251MOL0     C33761  10.909   5.508   7.144  0.4545 -0.2839 -0.5286
  251MOL0     C33762  10.943   5.362   7.183  0.8231 -0.2644 -0.3561
  251MOL0     C33763  11.003   5.336   7.320  0.0983 -0.2132  0.1765
  251MOL0     C33764  11.139   5.399   7.318  0.3522  0.7822  0.3191
  251MOL0     C33765  11.223   5.351   7.435 -0.4008  0.2774  0.2548
  251MOL0     C33766  11.359   5.419   7.449  0.9392  0.8464 -0.6456
  251MOL0     N33767  11.444   5.385   7.334  0.0826  0.6255  0.5964
  251MOL0     C33768  11.524   5.475   7.268  1.0683 -0.1479 -0.4208
  251MOL0     C33769  11.619   5.407   7.197  0.5651  0.4917  0.1727
  251MOL0     C33770  11.741   5.464   7.123  0.8346 -0.0291  0.1065
  251MOL0     C33771  11.815   5.364   7.033  0.0461 -0.3808  0.1029
  251MOL0     C33772  11.766   5.339   6.888  0.4652  0.3244 -0.2667
  251MOL0     C33773  11.828   5.208   6.827 -0.0091 -0.8247 -0.8674
  251MOL0     O33774  11.972   5.214   6.814  0.6743 -0.2167 -0.2762
  251MOL0     C33775  12.024   5.269   6.696  0.2398  1.2006  1.2430
  251MOL0     C33776  11.953   5.353   6.609 -0.4542  0.1210  0.0849
  251MOL0     C33777  12.019   5.408   6.495  0.6305 -0.2371  0.0289
  251MOL0     C33778  12.149   5.368   6.465  0.4525 -0.3236 -0.1940
  251MOL0     C33779  12.217   5.412   6.348  0.6558 -0.7531  0.6643
  251MOL0     O33780  12.137   5.460   6.244  0.0978 -0.0227  0.2872
  251MOL0     C33781  12.201   5.507   6.134 -0.9579  0.5591 -0.0842
  251MOL0     C33782  12.194   5.439   6.016 -0.7708 -0.5170 -0.6122
  251MOL0     C33783  12.243   5.502   5.904 -0.9819  0.2433  0.5739
  251MOL0     C33784  12.316   5.621   5.902  0.0213 -0.2453 -1.3329
  251MOL0     O33785  12.360   5.679   5.788 -0.0884  0.5230 -0.0534
  251MOL0     C33786  12.316   5.816   5.773  0.5675 -0.0457 -0.6214
  251MOL0     C33787  12.274   5.858   5.627  0.5826  0.1760 -1.0367
  251MOL0     C33788  12.141   5.790   5.589  0.0108 -0.1879  1.1238
  251MOL0     C33789  12.135   5.775   5.436  0.4091  0.8276  0.0501
  251MOL0     C33790  11.991   5.718   5.404  0.3387 -0.3588  0.8716
  251MOL0     C33791  11.968   5.568   5.434  0.2562  0.2731 -0.5007
  251MOL0     C33792  11.820   5.525   5.410 -0.5501  0.2068  0.5009
  251MOL0     C33793  11.785   5.514   5.261 -0.2180  0.0278  0.7751
  251MOL0    Cl33794  11.624   5.430   5.247  0.0334  0.0140 -0.2220
  251MOL0     C33795  12.333   5.686   6.027  0.2205  0.0881 -0.2899
  251MOL0     C33796  12.271   5.628   6.138  0.2082  0.3704  0.5291
  251MOL0     O33797  12.336   5.410   6.340 -0.5244 -0.0230 -0.0571
  251MOL0     C33798  12.219   5.284   6.555 -0.0453  1.0679  0.3424
  251MOL0     C33799  12.155   5.224   6.665 -0.2954  0.1947  0.6154
  251MOL0     N33800  11.597   5.272   7.222  0.0017 -0.0998  0.0226
  251MOL0     N33801  11.488   5.258   7.304  0.5291 -0.7542  1.0534
  251MOL0     C33802  10.411   5.495   7.164  0.7954  0.4114 -0.2774
  251MOL0     C33803  10.275   5.463   7.146  0.4765 -0.7293  0.5136
  251MOL0     C33804   9.827   5.505   7.044 -1.0343  0.0665 -0.7149
  251MOL0     C33805   9.797   5.384   6.969  0.1542 -0.0793  0.0830
  251MOL0     C33806   9.666   5.330   6.970 -0.1389 -0.4890 -0.1084
  251MOL0     C33807   9.567   5.392   7.045  0.5082  0.2427  0.1502
  251MOL0     O33808   9.444   5.334   7.072 -0.0330  0.6880  0.5552
  251MOL0     C33809   9.407   5.229   6.987  0.3186 -0.1375 -0.0670
  251MOL0     C33810   9.411   5.092   7.051  1.0608 -0.6488 -0.1828
  251MOL0     C33811   9.392   4.990   6.935  0.2140  0.2172 -0.5624
  251MOL0     C33812   9.365   4.850   6.993  0.3688 -0.3589  0.7153
  251MOL0     C33813   9.494   4.808   7.063 -0.8644 -0.4530  0.2825
  251MOL0     C33814   9.600   4.776   7.116 -0.0635 -0.6245 -0.1371
  251MOL0     C33815   9.598   5.511   7.120 -0.4457 -0.2356 -0.0260
  251MOL0     C33816   9.726   5.572   7.107  0.6213 -0.5895 -0.1133
  251MOL0     C33817   9.738   5.707   7.172  0.0912  0.1177  0.0535
  251MOL0     H33818  10.223   5.559   6.830  0.1039 -1.5930 -0.2315
  251MOL0     H33819  10.459   5.599   6.833 -1.1382 -1.8080 -1.4161
  251MOL0     H33820  10.663   5.380   7.101  2.0662  0.3844  1.0705
  251MOL0     H33821  10.664   5.425   6.920  1.1601  4.6423 -1.3483
  251MOL0     H33822  10.823   5.598   6.969  0.2549  0.6979 -0.3228
  251MOL0     H33823  10.879   5.424   6.958 -3.5183 -2.0285  0.7457
  251MOL0     H33824  10.858   5.569   7.220 -1.9313 -2.6946 -0.0524
  251MOL0     H33825  11.011   5.544   7.126  0.3809 -0.1268 -0.6230
  251MOL0     H33826  10.853   5.301   7.192  0.2692  0.8330  2.6545
  251MOL0     H33827  11.006   5.319   7.105  1.1833  0.9411 -0.7554
  251MOL0     H33828  10.938   5.378   7.398  0.0316 -2.3368  1.3435
  251MOL0     H33829  11.006   5.229   7.341  2.2187 -0.3740 -0.7130
  251MOL0     H33830  11.190   5.384   7.222 -0.5107 -0.2680 -0.0052
  251MOL0     H33831  11.127   5.507   7.325 -0.9595  0.5194  3.2900
  251MOL0     H33832  11.229   5.242   7.426 -3.0010 -0.1097  2.1057
  251MOL0     H33833  11.159   5.377   7.520  0.1505 -3.4172  1.9730
  251MOL0     H33834  11.344   5.526   7.464  0.1281  0.4625  1.8080
  251MOL0     H33835  11.404   5.378   7.540 -1.4229 -1.6998 -0.4902
  251MOL0     H33836  11.515   5.582   7.258  0.2525 -0.2455 -0.7891
  251MOL0     H33837  11.698   5.539   7.056 -1.5263 -2.0829 -0.8552
  251MOL0     H33838  11.814   5.514   7.187 -2.0325  1.5086  2.3961
  251MOL0     H33839  11.912   5.409   7.013 -1.3968  1.8316 -2.7661
  251MOL0     H33840  11.823   5.266   7.080  0.0710 -1.5540 -2.1852
  251MOL0     H33841  11.782   5.431   6.830  1.4184 -0.9361 -2.1296
  251MOL0     H33842  11.659   5.316   6.886  0.9571 -2.1397 -0.5291
  251MOL0     H33843  11.774   5.182   6.736  0.3101  1.9571 -1.9494
  251MOL0     H33844  11.825   5.130   6.904  1.6456 -2.4926 -2.3797
  251MOL0     H33845  11.851   5.380   6.634 -0.1361  0.8055  0.6843
  251MOL0     H33846  11.972   5.470   6.420  2.2138 -0.4112 -1.1456
  251MOL0     H33847  12.146   5.343   5.999 -2.8412  0.4160 -0.3677
  251MOL0     H33848  12.241   5.448   5.810 -1.3241 -0.9985  1.2640
  251MOL0     H33849  12.224   5.826   5.831  0.4758 -0.4069 -0.7052
  251MOL0     H33850  12.395   5.878   5.816  1.1009 -1.4420  0.4879
  251MOL0     H33851  12.254   5.966   5.621 -0.5098 -0.0228 -1.1139
  251MOL0     H33852  12.352   5.842   5.553  1.3809  0.8290 -0.3570
  251MOL0     H33853  12.126   5.699   5.648 -0.6782  0.1787  1.5163
  251MOL0     H33854  12.057   5.854   5.616 -1.0824 -0.3513 -1.5301
  251MOL0     H33855  12.209   5.700   5.408  0.8961  1.3043  0.0516
  251MOL0     H33856  12.165   5.866   5.383  2.6157 -0.1656 -0.5289
  251MOL0     H33857  11.978   5.741   5.298  0.1585  2.6794  1.4433
  251MOL0     H33858  11.919   5.776   5.462  0.0690  0.5669 -0.3369
  251MOL0     H33859  12.036   5.509   5.372 -1.5522  1.5308 -3.9595
  251MOL0     H33860  11.984   5.538   5.538 -1.7528  0.5859 -0.0458
  251MOL0     H33861  11.748   5.588   5.462  0.6335 -0.3551  3.0136
  251MOL0     H33862  11.804   5.422   5.444  0.1310 -0.7616 -1.9063
  251MOL0     H33863  11.780   5.614   5.216  0.3483 -0.1819  0.2344
  251MOL0     H33864  11.859   5.458   5.204  0.5524  0.2991  1.4808
  251MOL0     H33865  12.395   5.775   6.031  0.0466  0.2110  3.5243
  251MOL0     H33866  12.282   5.666   6.239  0.7414  0.3525  0.4829
  251MOL0     H33867  12.325   5.261   6.546  0.4839  3.1462  0.6912
  251MOL0     H33868  12.211   5.154   6.727  2.5807 -0.1779 -2.1264
  251MOL0     H33869  10.451   5.496   7.265  2.3142 -2.3995 -0.7492
  251MOL0     H33870  10.206   5.434   7.225  0.2212  1.7176  1.2737
  251MOL0     H33871   9.881   5.327   6.931  1.4220  0.7888  1.5002
  251MOL0     H33872   9.658   5.238   6.913 -0.4926 -0.4681 -0.0965
  251MOL0     H33873   9.449   5.237   6.886 -0.1529 -1.9108 -0.4355
  251MOL0     H33874   9.302   5.249   6.967 -0.4461  1.4751  4.4504
  251MOL0     H33875   9.334   5.080   7.128  2.4982  1.3662  1.6945
  251MOL0     H33876   9.507   5.076   7.102  0.3832  0.0433  1.3889
  251MOL0     H33877   9.465   4.978   6.855 -2.1266 -0.8200 -2.6721
  251MOL0     H33878   9.298   5.020   6.888  0.4829  1.9990 -0.0477
  251MOL0     H33879   9.276   4.844   7.057 -0.2594  0.2205 -0.0902
  251MOL0     H33880   9.345   4.788   6.906  0.9441  0.7251 -0.2192
  251MOL0     H33881   9.691   4.762   7.172  1.5105  1.5426 -1.9427
  251MOL0     H33882   9.524   5.566   7.176  0.7356  1.4032 -0.0081
  251MOL0     H33883   9.796   5.704   7.265 -1.4330 -4.3440  1.1175
  251MOL0     H33884   9.803   5.774   7.114  3.7219 -0.6503  2.8726
  251MOL0     H33885   9.639   5.754   7.177  0.5965  1.1548  0.7022
  252MOL0     O33886   4.190   5.012   5.652 -0.3741 -0.8852 -0.0724
  252MOL0     C33887   4.127   5.105   5.696  0.1019 -0.2182 -0.6934
  252MOL0     O33888   4.176   5.213   5.769 -0.2775  0.5640 -1.1482
  252MOL0     C33889   4.296   5.191   5.839 -0.8349 -0.0075  0.3174
  252MOL0     C33890   4.273   5.121   5.966  0.6321 -0.5093 -0.1981
  252MOL0     C33891   4.384   5.095   6.043 -0.6718  1.0809 -0.6260
  252MOL0     C33892   4.521   5.116   6.000  1.0070  0.9425 -0.0159
  252MOL0     O33893   4.638   5.081   6.069  0.3690 -0.1274 -0.0723
  252MOL0     C33894   4.626   5.025   6.193  0.3479  0.7990 -0.2108
  252MOL0     C33895   4.760   5.032   6.261 -0.0470 -0.1163  0.0929
  252MOL0     C33896   4.880   4.973   6.191 -1.1907 -0.0299  0.1433
  252MOL0     C33897   5.007   4.982   6.278  0.0093  0.6161 -1.1378
  252MOL0     C33898   5.131   4.937   6.214  0.2295 -0.1983  0.4532
  252MOL0     C33899   5.238   4.925   6.317 -0.8506 -0.4374  0.5689
  252MOL0     C33900   5.379   4.924   6.270 -0.9768  0.1551 -0.3766
  252MOL0     C33901   5.496   4.945   6.378 -0.3549  0.3280  1.2783
  252MOL0     N33902   5.551   4.825   6.421  0.3223  0.1385  0.3504
  252MOL0     C33903   5.483   4.712   6.454  0.0900  0.0721 -0.4424
  252MOL0     C33904   5.580   4.639   6.510 -0.6261 -1.1786  0.3892
  252MOL0     C33905   5.545   4.506   6.556 -0.4893  1.2520  0.0785
  252MOL0     C33906   5.582   4.383   6.472 -0.0761 -0.8408 -0.0015
  252MOL0     C33907   5.478   4.273   6.466  0.0756 -0.3658 -0.1154
  252MOL0     C33908   5.506   4.143   6.398 -0.2991  0.5884 -0.0399
  252MOL0     O33909   5.410   4.047   6.449  0.6095 -0.0441  0.6419
  252MOL0     C33910   5.289   4.054   6.401 -0.0063 -0.7496 -0.0561
  252MOL0     C33911   5.245   3.974   6.288  0.4577 -0.2283 -0.1468
  252MOL0     C33912   5.113   3.985   6.251 -0.2913 -0.1760  0.2100
  252MOL0     C33913   5.029   4.090   6.303 -0.3499 -0.8767 -0.1161
  252MOL0     C33914   4.888   4.103   6.245 -0.8100  0.1031  0.1462
  252MOL0     O33915   4.850   4.011   6.150  0.0545  0.2354 -0.2550
  252MOL0     C33916   4.727   4.004   6.093 -0.8852 -0.3794 -0.1028
  252MOL0     C33917   4.727   3.966   5.956  0.6136 -0.1122 -0.1535
  252MOL0     C33918   4.600   3.939   5.901  0.0624 -0.3490  0.3896
  252MOL0     C33919   4.478   3.956   5.965 -0.1986 -0.5726 -1.1242
  252MOL0     O33920   4.364   3.928   5.901  0.3036 -0.8369  0.4536
  252MOL0     C33921   4.378   3.824   5.798 -0.8146  0.0270 -0.1099
  252MOL0     C33922   4.232   3.785   5.761  0.2919 -0.1652  0.6957
  252MOL0     C33923   4.211   3.658   5.663  0.3412  0.2961 -0.4524
  252MOL0     C33924   4.067   3.617   5.644  0.6171  0.9289 -0.2836
  252MOL0     C33925   4.048   3.503   5.537  0.3508  0.1654  0.1671
  252MOL0     C33926   3.924   3.411   5.561 -0.1785 -0.2749  0.1226
  252MOL0     C33927   3.931   3.302   5.453 -0.4445  0.3685 -0.4983
  252MOL0     C33928   3.801   3.219   5.454 -0.1989  0.6426  0.3777
  252MOL0    Cl33929   3.658   3.320   5.437 -0.0590 -0.2343 -0.1016
  252MOL0     C33930   4.486   3.987   6.099 -0.5967  0.4990 -0.0145
  252MOL0     C33931   4.612   4.006   6.169  0.4314  0.3070  0.0944
  252MOL0     O33932   4.821   4.204   6.278  0.5166 -0.8580 -0.9296
  252MOL0     C33933   5.071   4.157   6.413 -0.4420  0.5923  0.3471
  252MOL0     C33934   5.198   4.141   6.462  0.3543  0.1655 -0.9713
  252MOL0     N33935   5.706   4.699   6.499  0.5326 -0.0681  0.0053
  252MOL0     N33936   5.685   4.812   6.453  0.6239 -0.7729  0.5112
  252MOL0     C33937   4.536   5.176   5.877  0.3146 -0.9384  0.5648
  252MOL0     C33938   4.422   5.228   5.798  0.4526  0.2130 -0.1830
  252MOL0     C33939   3.982   5.112   5.677 -0.2054  0.0557  0.0111
  252MOL0     C33940   3.910   5.223   5.692 -0.4678 -0.4186  0.6399
  252MOL0     C33941   3.769   5.226   5.706  0.6381  0.7994  0.1650
  252MOL0     C33942   3.688   5.119   5.680  0.1491  0.6384  0.7415
  252MOL0     O33943   3.548   5.131   5.700  0.6980 -0.5030 -0.2808
  252MOL0     C33944   3.465   5.029   5.745 -0.4757  0.5166  0.1654
  252MOL0     C33945   3.319   5.071   5.730 -0.3390 -0.0258 -0.6552
  252MOL0     C33946   3.219   4.959   5.767 -0.0938  0.4193  0.3688
  252MOL0     C33947   3.130   4.984   5.899 -0.6149  0.0878  0.6709
  252MOL0     C33948   3.066   4.866   5.950  0.1810  0.5004 -0.5494
  252MOL0     C33949   2.997   4.783   6.007 -1.2069  0.0593  0.3236
  252MOL0     C33950   3.756   4.999   5.642  0.1742 -0.5134 -0.3620
  252MOL0     C33951   3.897   4.993   5.646  0.6881 -0.1315 -0.3875
  252MOL0     C33952   3.953   4.861   5.607  0.0495 -0.3714  0.3488
  252MOL0     H33953   4.173   5.117   6.008 -0.8310 -0.7674 -3.4007
  252MOL0     H33954   4.376   5.051   6.142  0.1615 -1.7970 -1.7253
  252MOL0     H33955   4.562   5.082   6.260  1.7899 -2.5193  4.4349
  252MOL0     H33956   4.598   4.919   6.188  1.0200  0.6015  0.1297
  252MOL0     H33957   4.745   4.972   6.351  1.6968 -2.1681 -0.8933
  252MOL0     H33958   4.785   5.135   6.290  2.4452 -0.0404 -2.0035
  252MOL0     H33959   4.901   5.024   6.096  1.7107  0.0439  0.7478
  252MOL0     H33960   4.873   4.864   6.181  1.2435 -0.4497  2.0676
  252MOL0     H33961   5.016   5.086   6.311 -1.5517 -0.1217  1.9666
  252MOL0     H33962   4.995   4.928   6.372  0.3894  0.7775 -0.9951
  252MOL0     H33963   5.107   4.841   6.168  1.9205 -0.7046  0.5452
  252MOL0     H33964   5.151   5.018   6.143 -0.2018 -1.2271 -0.8767
  252MOL0     H33965   5.232   5.006   6.390 -0.0361  0.7757 -0.6646
  252MOL0     H33966   5.219   4.831   6.371 -2.4023 -0.3517  0.2180
  252MOL0     H33967   5.379   5.011   6.203 -1.8532 -2.1913 -3.6659
  252MOL0     H33968   5.407   4.837   6.210 -0.8039 -0.0265 -0.0350
  252MOL0     H33969   5.573   5.008   6.333 -0.0505 -0.1935  1.0700
  252MOL0     H33970   5.453   4.995   6.466 -0.2126  1.7309  0.5862
  252MOL0     H33971   5.376   4.694   6.454  0.1759 -0.6396 -2.4290
  252MOL0     H33972   5.578   4.491   6.659  1.5666  0.6245 -0.6037
  252MOL0     H33973   5.436   4.499   6.564 -0.4692 -1.4034 -0.8402
  252MOL0     H33974   5.611   4.421   6.374  2.8787  1.0663  1.4537
  252MOL0     H33975   5.674   4.347   6.519 -2.0296 -3.0047  2.4892
  252MOL0     H33976   5.391   4.320   6.419  0.1567  1.4723  1.4510
  252MOL0     H33977   5.449   4.256   6.570  0.3447  1.5456  0.3058
  252MOL0     H33978   5.611   4.114   6.397 -0.4493 -0.0920 -2.3617
  252MOL0     H33979   5.488   4.151   6.291 -1.3906 -1.7027 -0.0891
  252MOL0     H33980   5.313   3.899   6.250  0.0356 -0.7798  0.1637
  252MOL0     H33981   5.075   3.906   6.188  1.3059 -1.0262  0.2541
  252MOL0     H33982   4.822   3.965   5.903  0.9070  0.2612  0.3595
  252MOL0     H33983   4.609   3.910   5.797  0.2053 -2.4000  0.9423
  252MOL0     H33984   4.434   3.869   5.715  0.9225  1.3009  1.6586
  252MOL0     H33985   4.438   3.739   5.830 -1.9445 -1.9057 -2.7472
  252MOL0     H33986   4.182   3.762   5.855 -4.9332 -0.9999 -1.8859
  252MOL0     H33987   4.172   3.867   5.720  2.7909  0.6718 -1.5663
  252MOL0     H33988   4.241   3.686   5.561 -3.4013  0.9750 -1.5012
  252MOL0     H33989   4.264   3.570   5.699 -2.0967 -1.3018 -0.5728
  252MOL0     H33990   4.004   3.699   5.609  0.6880 -0.0313 -2.8832
  252MOL0     H33991   4.039   3.587   5.746  0.6437  4.0135  0.7289
  252MOL0     H33992   4.144   3.453   5.530  2.3184  3.4818  1.2252
  252MOL0     H33993   4.033   3.554   5.441 -0.3548 -0.5543 -0.1177
  252MOL0     H33994   3.937   3.356   5.655 -1.4854  1.0623  1.1239
  252MOL0     H33995   3.831   3.467   5.568 -2.0128 -3.0956 -0.0510
  252MOL0     H33996   4.015   3.235   5.473 -2.9405 -2.3741  1.6657
  252MOL0     H33997   3.936   3.340   5.350 -0.0637  0.0429 -0.5994
  252MOL0     H33998   3.807   3.140   5.379 -2.6870 -0.8858  1.6550
  252MOL0     H33999   3.793   3.173   5.553  0.8468 -1.8892 -0.6392
  252MOL0     H34000   4.402   3.998   6.166  0.1002  0.8013  0.8340
  252MOL0     H34001   4.617   4.029   6.275 -0.1598  1.4534 -0.1123
  252MOL0     H34002   5.000   4.224   6.460  1.2581  3.5360 -1.0164
  252MOL0     H34003   5.228   4.195   6.552 -1.6819  1.2478 -0.8781
  252MOL0     H34004   4.635   5.171   5.833  2.3938 -6.0061  4.8061
  252MOL0     H34005   4.450   5.286   5.711 -0.9975 -1.7059 -2.0307
  252MOL0     H34006   3.959   5.319   5.700  0.2892 -0.7545  0.0941
  252MOL0     H34007   3.699   5.301   5.741  1.5351  1.1318  1.3192
  252MOL0     H34008   3.494   4.999   5.846  2.8773  1.0162 -0.5181
  252MOL0     H34009   3.491   4.945   5.679  4.3829  2.1704 -0.4435
  252MOL0     H34010   3.306   5.091   5.624 -0.6181  0.2712 -0.5656
  252MOL0     H34011   3.292   5.156   5.793 -0.7904 -1.1790  0.7980
  252MOL0     H34012   3.261   4.858   5.778 -1.2905 -0.2859 -1.0509
  252MOL0     H34013   3.159   4.943   5.677 -0.3179  0.2086  0.5570
  252MOL0     H34014   3.200   5.018   5.976  2.9586 -3.6909 -0.5806
  252MOL0     H34015   3.050   5.055   5.876 -1.2415 -1.1689 -1.2817
  252MOL0     H34016   2.936   4.707   6.052 -0.6777 -2.0038 -2.1565
  252MOL0     H34017   3.701   4.912   5.604 -2.3553 -0.2850  2.3737
  252MOL0     H34018   4.024   4.839   5.688  1.3827  1.3442 -0.2856
  252MOL0     H34019   3.874   4.785   5.601 -2.1099  1.4928  3.0179
  252MOL0     H34020   4.006   4.871   5.511  2.9659  1.8967  2.0295
  253MOL0     O34021   7.554   6.910   6.789 -0.4444 -0.0774 -0.2845
  253MOL0     C34022   7.490   6.857   6.701  0.4588 -0.8532  0.3729
  253MOL0     O34023   7.536   6.781   6.603  0.1732 -0.0463 -0.1001
  253MOL0     C34024   7.665   6.749   6.589  0.8401  0.7867 -0.4016
  253MOL0     C34025   7.729   6.758   6.465 -0.2549  0.9728  0.3295
  253MOL0     C34026   7.863   6.707   6.458 -0.2628 -0.0298 -0.5973
  253MOL0     C34027   7.933   6.658   6.566  0.5882 -0.0159 -0.2165
  253MOL0     O34028   8.060   6.612   6.558 -0.9434 -0.0090  0.9646
  253MOL0     C34029   8.149   6.678   6.469 -0.5074 -0.5993 -0.0193
  253MOL0     C34030   8.278   6.606   6.488  0.2462  0.3995  0.0866
  253MOL0     C34031   8.388   6.682   6.415  0.3652 -0.3783 -0.0687
  253MOL0     C34032   8.522   6.634   6.463  0.0348 -0.0234  0.3024
  253MOL0     C34033   8.634   6.697   6.389 -0.5438  0.1963 -0.1918
  253MOL0     C34034   8.662   6.847   6.435  0.0924  0.6636 -0.1082
  253MOL0     C34035   8.773   6.915   6.351 -0.1349 -0.0598  0.4152
  253MOL0     C34036   8.864   6.987   6.450 -0.0425 -0.3788 -0.7293
  253MOL0     N34037   8.958   7.090   6.379  0.5522 -0.3415 -0.8082
  253MOL0     C34038   9.050   7.070   6.283  0.3311 -0.0778  0.0513
  253MOL0     C34039   9.093   7.189   6.242  0.7707 -0.0338  0.8701
  253MOL0     C34040   9.186   7.214   6.128  0.5085  0.5911 -0.0419
  253MOL0     C34041   9.333   7.185   6.167 -0.6902  0.6597  0.0159
  253MOL0     C34042   9.389   7.288   6.262  0.0884 -0.2371  0.1655
  253MOL0     C34043   9.535   7.270   6.295 -0.2141  0.5618 -0.0775
  253MOL0     O34044   9.568   7.391   6.364  0.1793 -0.0166 -0.2924
  253MOL0     C34045   9.681   7.460   6.332 -0.8706  0.3740  0.4715
  253MOL0     C34046   9.683   7.595   6.303  1.1586 -0.8016  0.2157
  253MOL0     C34047   9.799   7.655   6.269 -0.2759 -0.1009 -0.2335
  253MOL0     C34048   9.928   7.589   6.274  0.3639  1.2282 -1.5279
  253MOL0     C34049  10.046   7.660   6.249 -0.7149 -0.2229 -0.0686
  253MOL0     O34050  10.040   7.799   6.257 -0.2973 -0.5201 -0.4119
  253MOL0     C34051  10.148   7.882   6.236 -0.2834  0.0434  0.0110
  253MOL0     C34052  10.110   8.012   6.261 -0.2557  0.0156 -0.7455
  253MOL0     C34053  10.215   8.112   6.258  0.4873  0.1093 -0.4793
  253MOL0     C34054  10.348   8.076   6.235  0.0007 -0.3966  0.1832
  253MOL0     O34055  10.437   8.177   6.223 -0.0800 -0.6003  0.5329
  253MOL0     C34056  10.554   8.171   6.300 -0.2257  1.0118  0.5748
  253MOL0     C34057  10.548   8.272   6.420 -0.1305  0.3196  0.1819
  253MOL0     C34058  10.675   8.266   6.500  0.4116  0.0844  0.3240
  253MOL0     C34059  10.653   8.372   6.609 -0.7314 -0.6999  0.1963
  253MOL0     C34060  10.774   8.388   6.715  0.0777  0.5845  0.3664
  253MOL0     C34061  10.904   8.427   6.643 -0.5815 -0.0049 -0.3825
  253MOL0     C34062  11.030   8.405   6.721  0.2787 -0.1520 -0.3024
  253MOL0     C34063  11.158   8.415   6.630 -0.0808  1.3640 -0.3332
  253MOL0    Cl34064  11.162   8.294   6.497  0.3279 -0.0981  0.0412
  253MOL0     C34065  10.382   7.944   6.222  1.1863  0.3474  0.4487
  253MOL0     C34066  10.283   7.848   6.233 -0.5913  0.1795  0.3840
  253MOL0     O34067  10.149   7.591   6.225 -0.3623  0.6456 -0.1115
  253MOL0     C34068   9.928   7.453   6.297 -0.1144  0.6202 -0.6611
  253MOL0     C34069   9.805   7.389   6.329 -1.2146 -0.6700  0.4521
  253MOL0     N34070   9.048   7.273   6.336  0.0033 -0.9316  0.3489
  253MOL0     N34071   8.971   7.216   6.418  0.6931 -0.1247  0.1632
  253MOL0     C34072   7.872   6.644   6.682 -0.0928 -0.1864  0.8869
  253MOL0     C34073   7.738   6.691   6.698  0.0389  0.2299  0.2658
  253MOL0     C34074   7.341   6.875   6.707  0.0414 -0.1896 -0.0938
  253MOL0     C34075   7.278   6.927   6.597 -0.6030 -0.1454  0.3587
  253MOL0     C34076   7.140   6.931   6.584 -0.0673 -0.5325 -0.8383
  253MOL0     C34077   7.048   6.886   6.687 -0.3245 -0.6525 -0.5121
  253MOL0     O34078   6.913   6.889   6.693  0.2294  0.0209  1.1080
  253MOL0     C34079   6.850   6.967   6.592  0.3468  0.4800 -1.0497
  253MOL0     C34080   6.707   6.916   6.585  0.4924  0.6669  0.1324
  253MOL0     C34081   6.625   6.981   6.467  0.1037  0.0084  0.1886
  253MOL0     C34082   6.485   6.920   6.439 -0.2812 -0.6315 -0.1686
  253MOL0     C34083   6.500   6.790   6.378 -0.2457 -0.7491  0.6808
  253MOL0     C34084   6.519   6.687   6.310 -0.7448 -0.4632 -0.1495
  253MOL0     C34085   7.118   6.847   6.799 -0.0432  0.2644 -1.4085
  253MOL0     C34086   7.257   6.847   6.816 -0.1498  0.7644 -0.3241
  253MOL0     C34087   7.325   6.791   6.940  0.2739  0.4562 -0.3675
  253MOL0     H34088   7.677   6.806   6.382 -0.8354 -0.6022 -0.2570
  253MOL0     H34089   7.913   6.719   6.362 -1.0295  4.5050 -0.6353
  253MOL0     H34090   8.116   6.676   6.364  0.4980 -0.7665 -0.3518
  253MOL0     H34091   8.151   6.785   6.490 -3.7941 -0.3065 -0.6947
  253MOL0     H34092   8.274   6.505   6.444  0.6032  0.7834 -0.8580
  253MOL0     H34093   8.299   6.591   6.594 -0.2140 -0.2044  0.1002
  253MOL0     H34094   8.374   6.790   6.428 -0.6791 -0.6005  0.8811
  253MOL0     H34095   8.372   6.660   6.309 -2.5859 -1.3693  0.4651
  253MOL0     H34096   8.521   6.651   6.571  0.6888  1.7524  0.0705
  253MOL0     H34097   8.532   6.528   6.438  1.1240  0.0061  0.5629
  253MOL0     H34098   8.724   6.637   6.402 -2.2012 -3.0967 -2.5155
  253MOL0     H34099   8.613   6.687   6.282 -0.6889  3.0048 -0.5120
  253MOL0     H34100   8.573   6.910   6.420  1.8908  3.0663 -1.4795
  253MOL0     H34101   8.692   6.844   6.540  1.9902 -4.4114 -0.5633
  253MOL0     H34102   8.730   6.990   6.284 -0.1718  0.9498  1.5285
  253MOL0     H34103   8.843   6.845   6.304  1.1939 -0.4392  2.7908
  253MOL0     H34104   8.810   7.055   6.516 -0.9508 -0.0485 -1.7887
  253MOL0     H34105   8.910   6.922   6.525 -1.1567  1.3003  1.5154
  253MOL0     H34106   9.086   6.977   6.240  1.7286  0.6428 -0.3784
  253MOL0     H34107   9.158   7.149   6.044  0.8418 -1.2492  1.2140
  253MOL0     H34108   9.173   7.318   6.096 -2.1784  0.0948 -0.8472
  253MOL0     H34109   9.363   7.085   6.201  2.2539  1.3982 -0.2174
  253MOL0     H34110   9.387   7.189   6.073 -1.8107 -0.3627 -0.7119
  253MOL0     H34111   9.335   7.290   6.357  0.6655 -3.4590  0.6652
  253MOL0     H34112   9.376   7.389   6.221 -1.4902  0.6466  2.6068
  253MOL0     H34113   9.591   7.251   6.203 -0.5546 -1.0391  0.0187
  253MOL0     H34114   9.547   7.184   6.361  2.3776  0.8619 -0.0568
  253MOL0     H34115   9.587   7.643   6.285  1.6307 -0.0761 -0.3879
  253MOL0     H34116   9.780   7.752   6.224 -5.0162  0.0652  1.5510
  253MOL0     H34117  10.004   8.034   6.274 -0.3545 -1.4299  1.4196
  253MOL0     H34118  10.191   8.214   6.286 -0.1901  0.2393 -1.4789
  253MOL0     H34119  10.564   8.074   6.348 -3.0034 -1.6752 -3.6128
  253MOL0     H34120  10.645   8.192   6.243  0.8446 -1.9057  1.0804
  253MOL0     H34121  10.519   8.373   6.389 -1.3222 -0.0515  0.0476
  253MOL0     H34122  10.456   8.254   6.476 -1.6138 -0.7850 -2.4530
  253MOL0     H34123  10.688   8.170   6.551 -0.6570 -1.4879 -2.1424
  253MOL0     H34124  10.753   8.293   6.428 -1.3444  2.1468 -0.9136
  253MOL0     H34125  10.566   8.340   6.667 -0.4093  0.9794  1.6767
  253MOL0     H34126  10.648   8.471   6.563 -2.8607 -1.3548 -1.1383
  253MOL0     H34127  10.784   8.295   6.771  2.1229  0.2244 -0.5002
  253MOL0     H34128  10.748   8.469   6.784 -1.2654  1.0632 -0.6589
  253MOL0     H34129  10.904   8.363   6.555 -2.2910  0.6128 -0.8771
  253MOL0     H34130  10.890   8.530   6.607 -1.7980 -0.5745 -1.6033
  253MOL0     H34131  11.037   8.310   6.775  0.8887  1.1085  1.9816
  253MOL0     H34132  11.032   8.483   6.798  2.1960 -0.9103  0.4658
  253MOL0     H34133  11.166   8.519   6.597 -0.9247  1.9847  1.3358
  253MOL0     H34134  11.247   8.403   6.692 -1.4526 -0.5439  1.4106
  253MOL0     H34135  10.486   7.922   6.200  0.8848  0.5655 -1.3351
  253MOL0     H34136  10.327   7.749   6.224  1.4469  0.9806  0.8689
  253MOL0     H34137  10.018   7.396   6.320 -1.9935 -1.5924  1.9004
  253MOL0     H34138   9.811   7.284   6.353 -2.0929 -0.7111  0.5218
  253MOL0     H34139   7.925   6.597   6.764 -3.8178 -1.2262  2.9407
  253MOL0     H34140   7.703   6.675   6.799  1.0325 -1.2601  0.4128
  253MOL0     H34141   7.332   6.968   6.512 -0.3313  1.6596  1.3552
  253MOL0     H34142   7.096   6.999   6.511 -0.3071 -1.2522 -1.3794
  253MOL0     H34143   6.893   6.956   6.492 -0.5343  1.1343 -1.5173
  253MOL0     H34144   6.863   7.074   6.605  0.7503  0.1665  1.7277
  253MOL0     H34145   6.662   6.950   6.679 -0.9059 -0.5363 -0.0697
  253MOL0     H34146   6.714   6.809   6.564  0.5794  0.9044 -1.0798
  253MOL0     H34147   6.685   6.971   6.376 -0.0004  0.3343  0.0818
  253MOL0     H34148   6.610   7.086   6.496 -0.4545  0.2824 -1.0259
  253MOL0     H34149   6.444   6.900   6.539  1.0338 -2.3344  0.0715
  253MOL0     H34150   6.428   6.977   6.365 -1.2092 -2.1346 -0.6404
  253MOL0     H34151   6.530   6.603   6.244 -2.4100 -2.0475  1.4763
  253MOL0     H34152   7.055   6.804   6.876  1.9244 -0.5959 -0.2080
  253MOL0     H34153   7.250   6.763   7.014  0.6616 -2.5149 -0.9767
  253MOL0     H34154   7.358   6.689   6.919  0.8035  1.0283 -2.6003
  253MOL0     H34155   7.399   6.854   6.990  0.8907 -0.0563 -0.6305
  254MOL0     O34156   2.235   7.338   8.695  0.1583 -0.6351  0.3473
  254MOL0     C34157   2.248   7.447   8.637 -1.0502  0.7054  0.0227
  254MOL0     O34158   2.179   7.487   8.536 -0.0946  0.0461 -0.1875
  254MOL0     C34159   2.088   7.398   8.476 -0.2685  0.2033  0.3450
  254MOL0     C34160   1.950   7.434   8.479 -0.0956  0.1736 -0.0535
  254MOL0     C34161   1.850   7.353   8.429 -0.2793 -0.4150  0.0906
  254MOL0     C34162   1.891   7.238   8.358  0.0929 -0.0549  0.3786
  254MOL0     O34163   1.803   7.156   8.286  0.2309  0.3586 -0.5396
  254MOL0     C34164   1.665   7.161   8.308 -0.6925  0.7038  0.4910
  254MOL0     C34165   1.607   7.090   8.194 -0.8414  0.6406  0.3874
  254MOL0     C34166   1.640   6.932   8.190 -1.1157 -0.5637  0.0893
  254MOL0     C34167   1.582   6.863   8.315 -0.1169  0.2619 -0.0416
  254MOL0     C34168   1.621   6.715   8.317 -0.2561 -0.5965  0.2654
  254MOL0     C34169   1.522   6.636   8.233 -0.3764  0.8097 -0.1224
  254MOL0     C34170   1.524   6.487   8.276 -0.6111 -0.3632  0.4669
  254MOL0     C34171   1.412   6.460   8.384  0.3743 -0.1144 -0.4990
  254MOL0     N34172   1.376   6.316   8.385 -0.0408  0.1880 -0.0419
  254MOL0     C34173   1.449   6.204   8.408 -0.4936 -0.7835  0.1072
  254MOL0     C34174   1.361   6.101   8.426 -0.2504  0.0607  0.1741
  254MOL0     C34175   1.402   5.959   8.439  0.3311  0.2296  0.4194
  254MOL0     C34176   1.372   5.917   8.582 -0.1560  0.6991  0.5227
  254MOL0     C34177   1.409   5.770   8.614  0.9497 -0.4167 -0.7542
  254MOL0     C34178   1.556   5.730   8.617 -0.5075 -1.2629 -0.5427
  254MOL0     O34179   1.633   5.808   8.715 -0.3251  0.8088 -0.6620
  254MOL0     C34180   1.739   5.765   8.794  0.0137  0.1346  0.1674
  254MOL0     C34181   1.788   5.631   8.798  0.7528  0.3385 -0.2756
  254MOL0     C34182   1.912   5.595   8.856 -0.3616 -0.6986 -0.4752
  254MOL0     C34183   1.989   5.703   8.907 -0.1033 -1.3989 -0.3609
  254MOL0     C34184   2.125   5.680   8.961  0.2325  0.9486 -0.4256
  254MOL0     O34185   2.180   5.552   8.945 -0.3210  0.3540 -0.3997
  254MOL0     C34186   2.297   5.508   8.998 -0.2843 -0.0404 -0.5928
  254MOL0     C34187   2.324   5.369   8.968 -0.2947 -0.1707  0.6758
  254MOL0     C34188   2.436   5.311   9.028  0.0874  0.2481  0.9597
  254MOL0     C34189   2.518   5.379   9.113 -0.3996 -0.0457 -0.0524
  254MOL0     O34190   2.638   5.338   9.169  0.5156  0.4659  0.6388
  254MOL0     C34191   2.631   5.215   9.250 -0.4592 -0.5979 -1.2078
  254MOL0     C34192   2.736   5.226   9.367  1.2459 -0.5120  0.5646
  254MOL0     C34193   2.853   5.132   9.355 -0.5845  0.0762  0.1778
  254MOL0     C34194   2.948   5.144   9.474 -0.0506 -0.4296  1.0924
  254MOL0     C34195   3.035   5.269   9.476  0.0520  0.4296  0.1931
  254MOL0     C34196   3.168   5.238   9.559  0.3947 -0.3574 -0.3218
  254MOL0     C34197   3.265   5.367   9.558 -0.1379  0.5268 -0.3419
  254MOL0     C34198   3.367   5.344   9.669 -0.1592  1.0892  0.3213
  254MOL0    Cl34199   3.466   5.484   9.703  0.3138  0.1625 -0.1386
  254MOL0     C34200   2.496   5.509   9.144 -0.3558 -0.3526  0.6228
  254MOL0     C34201   2.390   5.583   9.081  0.3733  0.3806 -0.6496
  254MOL0     O34202   2.181   5.776   9.015 -1.1312 -0.2320  0.5141
  254MOL0     C34203   1.939   5.834   8.908  0.0368 -0.3876  0.0350
  254MOL0     C34204   1.816   5.868   8.847 -0.7377 -1.1935 -0.2899
  254MOL0     N34205   1.231   6.145   8.401  0.0346 -0.8671  0.9775
  254MOL0     N34206   1.246   6.272   8.379 -0.0005  0.0406  0.5766
  254MOL0     C34207   2.026   7.205   8.352  0.4326  0.3981 -0.4118
  254MOL0     C34208   2.120   7.277   8.412 -1.0159 -0.4819 -0.2025
  254MOL0     C34209   2.351   7.532   8.687 -0.1673  0.1691  0.5942
  254MOL0     C34210   2.444   7.471   8.786  0.4560 -0.1094  0.6038
  254MOL0     C34211   2.539   7.560   8.835 -0.3312  0.9226  0.2982
  254MOL0     C34212   2.545   7.692   8.816  0.3837 -0.7793  0.1297
  254MOL0     O34213   2.637   7.783   8.862  0.0708  1.0019  0.0865
  254MOL0     C34214   2.771   7.749   8.909 -0.8039 -0.0260 -0.8814
  254MOL0     C34215   2.871   7.857   8.867 -0.3665  0.4942  0.7306
  254MOL0     C34216   3.016   7.824   8.887 -0.7151  0.0489  0.3022
  254MOL0     C34217   3.116   7.928   8.833 -0.2517 -0.7330  0.3651
  254MOL0     C34218   3.112   8.055   8.910 -0.5705 -0.6223 -0.2815
  254MOL0     C34219   3.104   8.164   8.969  0.2461  0.4738 -0.2072
  254MOL0     C34220   2.450   7.754   8.734 -0.2918  0.4322  0.3552
  254MOL0     C34221   2.356   7.678   8.665  0.1798  1.2550  0.8329
  254MOL0     C34222   2.253   7.748   8.582 -0.1988  0.0207  0.2219
  254MOL0     H34223   1.922   7.527   8.526 -1.2575  0.4427 -1.2177
  254MOL0     H34224   1.751   7.389   8.455  0.1901  1.6407 -0.7574
  254MOL0     H34225   1.639   7.115   8.404  1.0325 -1.6681 -0.0996
  254MOL0     H34226   1.627   7.264   8.308 -2.5643  0.0971 -1.9330
  254MOL0     H34227   1.652   7.134   8.104 -0.9039 -0.9097 -0.4380
  254MOL0     H34228   1.499   7.108   8.185 -0.6157  1.5825 -0.5495
  254MOL0     H34229   1.748   6.919   8.203 -0.8931 -0.7883 -1.7005
  254MOL0     H34230   1.608   6.884   8.097 -1.4860 -1.2335  0.5554
  254MOL0     H34231   1.633   6.894   8.407  4.7714  0.1673 -2.4067
  254MOL0     H34232   1.475   6.886   8.317 -0.9840 -3.0515 -0.8385
  254MOL0     H34233   1.725   6.688   8.296  0.0615 -0.3184  1.4091
  254MOL0     H34234   1.604   6.675   8.418 -3.7581  0.6118  0.2862
  254MOL0     H34235   1.423   6.679   8.246 -2.3700 -2.6714 -2.2728
  254MOL0     H34236   1.544   6.641   8.126 -0.0640  0.7295 -0.0651
  254MOL0     H34237   1.622   6.454   8.313 -1.9031 -2.4820  2.2049
  254MOL0     H34238   1.505   6.429   8.185  2.6751  2.6482 -2.4493
  254MOL0     H34239   1.443   6.489   8.485 -0.7115  0.8115 -0.4175
  254MOL0     H34240   1.323   6.517   8.357 -0.2329 -1.5279 -1.5954
  254MOL0     H34241   1.557   6.200   8.419 -0.3234  2.4980  0.8815
  254MOL0     H34242   1.346   5.894   8.371  0.3886 -0.9970  1.5143
  254MOL0     H34243   1.509   5.964   8.417  0.2779  1.4904  0.3677
  254MOL0     H34244   1.432   5.985   8.644  0.1198  2.4816 -1.5954
  254MOL0     H34245   1.266   5.934   8.600 -0.7686 -0.7431 -1.3883
  254MOL0     H34246   1.344   5.710   8.550  0.4865 -2.4489  1.4785
  254MOL0     H34247   1.373   5.750   8.716 -1.7698  0.8231 -1.3722
  254MOL0     H34248   1.606   5.758   8.524 -0.1454  1.7238  0.4186
  254MOL0     H34249   1.567   5.627   8.650  2.7103 -0.6096  0.7855
  254MOL0     H34250   1.727   5.547   8.765  1.3648  0.0019 -0.5712
  254MOL0     H34251   1.946   5.491   8.855  1.0806 -0.2466 -0.7280
  254MOL0     H34252   2.249   5.313   8.912 -1.3573  2.5972 -0.8623
  254MOL0     H34253   2.458   5.208   9.000  1.9274  0.4913  1.3710
  254MOL0     H34254   2.528   5.208   9.285 -0.2086 -0.0187 -0.3381
  254MOL0     H34255   2.657   5.122   9.197 -2.7978 -2.0564  0.0208
  254MOL0     H34256   2.775   5.326   9.348 -1.0894  0.3006 -0.3587
  254MOL0     H34257   2.685   5.221   9.464 -4.3750 -0.0380 -1.9748
  254MOL0     H34258   2.821   5.029   9.336  1.0174 -0.5275  0.5955
  254MOL0     H34259   2.912   5.157   9.266  0.5548 -0.0213  0.8755
  254MOL0     H34260   3.010   5.054   9.481 -0.4774 -1.0456 -1.6648
  254MOL0     H34261   2.892   5.150   9.568 -0.5903 -3.4666  1.0821
  254MOL0     H34262   2.987   5.360   9.512 -0.9158 -0.1299  0.3698
  254MOL0     H34263   3.074   5.293   9.377  0.4046 -2.0282 -0.3258
  254MOL0     H34264   3.134   5.218   9.661  0.1610  0.6993 -0.1818
  254MOL0     H34265   3.214   5.148   9.517  0.0918  0.8437 -3.5400
  254MOL0     H34266   3.217   5.464   9.579  2.6317  1.6787  1.2450
  254MOL0     H34267   3.305   5.384   9.458 -0.2338  3.4707  0.0166
  254MOL0     H34268   3.305   5.327   9.758 -0.3715  0.3123  0.0369
  254MOL0     H34269   3.433   5.257   9.657 -2.5939 -1.0944  1.7533
  254MOL0     H34270   2.570   5.561   9.204  1.8692 -2.0780 -0.4500
  254MOL0     H34271   2.384   5.690   9.099 -1.8876  0.3676 -0.9357
  254MOL0     H34272   1.999   5.914   8.952 -1.9600  2.0621 -1.4165
  254MOL0     H34273   1.776   5.970   8.848  3.0765  0.4607  1.1327
  254MOL0     H34274   2.042   7.117   8.290 -1.1211 -0.4634  0.3584
  254MOL0     H34275   2.224   7.249   8.399 -1.1751 -0.8156 -0.8228
  254MOL0     H34276   2.439   7.364   8.804  0.0691 -0.5121 -1.6189
  254MOL0     H34277   2.618   7.519   8.898 -0.5788  2.1135  1.4360
  254MOL0     H34278   2.806   7.649   8.885 -0.2766 -0.0923  0.1100
  254MOL0     H34279   2.761   7.752   9.018 -1.4664  3.5765 -0.9054
  254MOL0     H34280   2.846   7.948   8.921 -1.8071 -0.4495  1.7223
  254MOL0     H34281   2.850   7.882   8.762 -1.2985  1.3610  1.1138
  254MOL0     H34282   3.046   7.733   8.835  0.2084  0.4491  0.1099
  254MOL0     H34283   3.045   7.798   8.990  2.5009  0.1902 -0.4687
  254MOL0     H34284   3.215   7.883   8.850  0.0111 -0.3855 -0.2371
  254MOL0     H34285   3.117   7.956   8.728  2.7422  3.5488  1.2525
  254MOL0     H34286   3.085   8.257   9.019 -0.6987 -0.2714  0.8656
  254MOL0     H34287   2.457   7.861   8.716  3.4285  0.1136 -0.9246
  254MOL0     H34288   2.152   7.710   8.602 -0.4171  0.9879  1.0125
  254MOL0     H34289   2.238   7.852   8.611  0.4215  0.8779 -2.3236
  254MOL0     H34290   2.278   7.741   8.476 -1.7608 -0.4015 -0.1534
  255MOL0     O34291   5.746   7.416   2.669 -0.2204 -0.5467  0.0360
  255MOL0     C34292   5.686   7.505   2.606 -0.7083  0.2976 -0.0489
  255MOL0     O34293   5.751   7.605   2.546 -0.4277  0.0258 -0.2873
  255MOL0     C34294   5.888   7.608   2.557  0.0287 -1.0216 -1.3072
  255MOL0     C34295   5.966   7.533   2.469  0.4613 -0.0827 -1.0001
  255MOL0     C34296   6.103   7.552   2.466 -0.2919  0.3397 -0.4994
  255MOL0     C34297   6.162   7.630   2.567 -0.2859  0.5444 -0.6483
  255MOL0     O34298   6.298   7.664   2.553 -0.2999 -0.4009  0.5317
  255MOL0     C34299   6.377   7.728   2.657  0.4350 -0.1510 -0.1720
  255MOL0     C34300   6.415   7.617   2.754  0.1880  0.2962  0.5765
  255MOL0     C34301   6.527   7.655   2.835  0.0479  0.3199  0.9070
  255MOL0     C34302   6.600   7.529   2.888 -0.9744  0.2575 -0.6093
  255MOL0     C34303   6.708   7.567   2.983  0.1394 -0.2066 -0.8693
  255MOL0     C34304   6.788   7.447   3.029  0.0643 -0.0995 -0.9689
  255MOL0     C34305   6.910   7.496   3.100 -0.6048 -0.1872  0.1552
  255MOL0     C34306   7.024   7.545   3.005  0.3522 -0.6694  0.8335
  255MOL0     N34307   7.138   7.614   3.081  0.1919  0.1418 -0.1929
  255MOL0     C34308   7.174   7.745   3.056 -0.1530  0.3792  0.1298
  255MOL0     C34309   7.291   7.746   3.124  1.0380 -0.3078  0.3280
  255MOL0     C34310   7.370   7.868   3.139 -0.5073 -0.7120  0.5175
  255MOL0     C34311   7.520   7.844   3.095  0.1301  0.1220 -1.1197
  255MOL0     C34312   7.587   7.980   3.063  0.4378  0.7499 -0.5410
  255MOL0     C34313   7.737   7.971   3.034  0.2565  0.0293  0.0255
  255MOL0     O34314   7.820   7.935   3.139 -0.8807  0.7142 -1.2157
  255MOL0     C34315   7.954   7.941   3.106  0.4318 -0.0347 -0.5329
  255MOL0     C34316   8.035   8.025   3.174  0.3950  0.8022  0.8149
  255MOL0     C34317   8.168   8.043   3.155 -0.5297  0.1006  0.5147
  255MOL0     C34318   8.219   7.952   3.052  0.3592 -0.0833  0.5464
  255MOL0     C34319   8.367   7.961   3.019  1.2818  0.1161 -0.8354
  255MOL0     O34320   8.419   7.866   2.942 -0.2693  0.2271 -0.1257
  255MOL0     C34321   8.552   7.867   2.894  0.3066  0.6082  0.1155
  255MOL0     C34322   8.633   7.975   2.873  0.0672 -0.6699 -0.5857
  255MOL0     C34323   8.760   7.950   2.812 -0.5260  0.1137 -0.6830
  255MOL0     C34324   8.806   7.814   2.779  0.9790 -1.3545  0.4636
  255MOL0     O34325   8.940   7.782   2.733  0.4591 -0.1195  1.3585
  255MOL0     C34326   9.042   7.882   2.738  0.3991  0.3319 -0.1386
  255MOL0     C34327   9.106   7.876   2.602 -0.9165  0.1033  0.7333
  255MOL0     C34328   9.246   7.951   2.617 -0.0393 -0.3551  1.6717
  255MOL0     C34329   9.295   7.998   2.470  0.6412  0.3086 -0.1176
  255MOL0     C34330   9.405   8.097   2.497 -0.3014  0.8206  0.4419
  255MOL0     C34331   9.549   8.038   2.524 -0.2496 -0.3350  0.1078
  255MOL0     C34332   9.653   8.155   2.537  0.2342  0.6921  0.1503
  255MOL0     C34333   9.795   8.095   2.531 -0.2099  0.0557  0.7535
  255MOL0    Cl34334   9.864   8.046   2.372  0.3802  0.3792  0.5672
  255MOL0     C34335   8.709   7.716   2.781  0.0102  0.4684  0.0570
  255MOL0     C34336   8.585   7.739   2.841 -0.1631 -0.7046  0.4458
  255MOL0     O34337   8.423   8.068   3.061  0.5895 -0.4887  0.0113
  255MOL0     C34338   8.146   7.853   2.983  1.0281 -0.6958 -0.5829
  255MOL0     C34339   8.007   7.860   3.010  0.1802 -0.1346  0.4646
  255MOL0     N34340   7.318   7.630   3.194 -0.1993  0.5911 -0.1336
  255MOL0     N34341   7.220   7.558   3.170 -0.0801  0.1620 -1.1498
  255MOL0     C34342   6.086   7.688   2.673 -0.0297 -0.3853  1.1429
  255MOL0     C34343   5.946   7.672   2.663  0.0362  0.4289 -1.2126
  255MOL0     C34344   5.534   7.504   2.606 -0.2576  0.2909 -0.1879
  255MOL0     C34345   5.455   7.551   2.494  0.2946  0.0179 -0.5240
  255MOL0     C34346   5.309   7.531   2.492 -0.4172 -0.0196 -0.0231
  255MOL0     C34347   5.246   7.462   2.594  0.1824  0.2768 -0.4365
  255MOL0     O34348   5.115   7.437   2.567 -0.8246 -0.0350 -0.0870
  255MOL0     C34349   5.037   7.384   2.670  0.3377 -0.6613 -0.2956
  255MOL0     C34350   4.900   7.348   2.616  0.2992 -1.0472  0.1492
  255MOL0     C34351   4.841   7.459   2.526  0.2796 -0.3227  0.3015
  255MOL0     C34352   4.686   7.444   2.530  0.2466 -0.0569 -0.1232
  255MOL0     C34353   4.647   7.312   2.476  0.2908  0.3198 -0.7920
  255MOL0     C34354   4.621   7.202   2.438 -1.5516 -0.0757  0.4464
  255MOL0     C34355   5.318   7.434   2.705 -0.4125 -0.0568 -0.2922
  255MOL0     C34356   5.456   7.455   2.720  0.8162 -0.2660 -1.0703
  255MOL0     C34357   5.516   7.415   2.852  0.3966 -0.2802  0.4459
  255MOL0     H34358   5.916   7.459   2.408  1.6238 -3.3931  1.7445
  255MOL0     H34359   6.162   7.508   2.386 -2.4890  0.7380 -2.4718
  255MOL0     H34360   6.473   7.762   2.615 -0.1089  0.9078 -0.5889
  255MOL0     H34361   6.328   7.802   2.720  0.2107 -0.6380  0.2298
  255MOL0     H34362   6.441   7.528   2.698  0.2343  0.4510  0.3519
  255MOL0     H34363   6.325   7.590   2.811 -0.4930  3.2298  1.1128
  255MOL0     H34364   6.497   7.728   2.912  0.1507  2.2278 -0.7836
  255MOL0     H34365   6.604   7.703   2.774 -2.2990  1.1944 -1.5667
  255MOL0     H34366   6.519   7.464   2.922  0.0126 -1.4052 -1.3092
  255MOL0     H34367   6.648   7.470   2.809  0.0631 -0.6557  0.6658
  255MOL0     H34368   6.774   7.638   2.931 -1.3364 -1.1451 -4.3617
  255MOL0     H34369   6.659   7.606   3.072 -2.0734 -0.2890 -1.9830
  255MOL0     H34370   6.735   7.378   3.095  0.8854 -1.0627 -1.2854
  255MOL0     H34371   6.822   7.387   2.944 -0.4345 -0.0027 -1.2430
  255MOL0     H34372   6.957   7.410   3.149  1.4085 -0.5368 -2.2209
  255MOL0     H34373   6.878   7.573   3.172 -2.0943  2.1995 -2.8296
  255MOL0     H34374   7.052   7.452   2.955  0.0677  0.3238 -1.2920
  255MOL0     H34375   6.988   7.607   2.923 -1.0448 -0.9126  1.2306
  255MOL0     H34376   7.122   7.824   3.002 -3.7456 -1.6538  0.2362
  255MOL0     H34377   7.326   7.947   3.077 -2.1853 -0.5579  1.8141
  255MOL0     H34378   7.368   7.901   3.243 -0.4054 -0.1871  0.3523
  255MOL0     H34379   7.566   7.792   3.179 -0.7377 -1.7566 -1.7733
  255MOL0     H34380   7.531   7.782   3.005 -1.0204 -2.4178  0.3895
  255MOL0     H34381   7.570   8.061   3.135  2.3006 -0.0303  0.8707
  255MOL0     H34382   7.541   8.018   2.972 -1.6183  1.7660  0.8218
  255MOL0     H34383   7.772   8.063   2.987 -1.8891  2.2335  2.4578
  255MOL0     H34384   7.740   7.889   2.962 -0.3394 -2.6208  2.8164
  255MOL0     H34385   7.989   8.081   3.255  1.0508 -0.0379  1.7932
  255MOL0     H34386   8.222   8.117   3.213  0.4343 -0.0873 -0.1037
  255MOL0     H34387   8.615   8.077   2.905 -0.7107 -0.9949  0.0464
  255MOL0     H34388   8.819   8.040   2.801  1.6763 -1.4590 -3.0336
  255MOL0     H34389   8.997   7.982   2.738 -0.1102  0.1010  0.0925
  255MOL0     H34390   9.099   7.848   2.825 -1.5009 -0.9922  0.6357
  255MOL0     H34391   9.127   7.771   2.584  2.2758  0.5653  1.2531
  255MOL0     H34392   9.048   7.919   2.519 -0.1973 -0.5525 -0.1249
  255MOL0     H34393   9.224   8.048   2.661  3.7396  1.8450 -0.7652
  255MOL0     H34394   9.331   7.903   2.667  1.0273 -0.7400 -0.3971
  255MOL0     H34395   9.213   8.057   2.427  0.4398  1.8894  2.2154
  255MOL0     H34396   9.325   7.909   2.415 -0.0799 -0.1350  0.1995
  255MOL0     H34397   9.386   8.177   2.569 -1.5867 -0.4404  1.5595
  255MOL0     H34398   9.415   8.142   2.398  1.9706  1.4289  0.8767
  255MOL0     H34399   9.557   7.980   2.616  1.6958 -0.7800 -0.3149
  255MOL0     H34400   9.574   7.975   2.438  1.8010 -0.1126  0.5053
  255MOL0     H34401   9.644   8.203   2.635 -0.6624 -1.6590  1.3026
  255MOL0     H34402   9.648   8.242   2.471 -3.2899  0.9416  0.5510
  255MOL0     H34403   9.869   8.165   2.572  2.4326 -2.4828  0.6443
  255MOL0     H34404   9.800   8.009   2.598 -1.2708  0.2769  1.1302
  255MOL0     H34405   8.746   7.621   2.744  1.0622  1.0986 -0.5602
  255MOL0     H34406   8.513   7.658   2.842 -3.8852  2.3189  0.4270
  255MOL0     H34407   8.191   7.787   2.909  2.1064  1.6241 -2.1297
  255MOL0     H34408   7.943   7.782   2.971  1.5228 -1.5371  0.9689
  255MOL0     H34409   6.120   7.758   2.749 -1.7999  3.8391 -1.5975
  255MOL0     H34410   5.879   7.717   2.735 -0.9550 -1.1408 -1.1077
  255MOL0     H34411   5.489   7.607   2.408 -1.4062  2.0968  0.0789
  255MOL0     H34412   5.259   7.557   2.399  1.1218 -2.5561 -1.6935
  255MOL0     H34413   5.027   7.454   2.754  0.3595 -2.5327  1.3343
  255MOL0     H34414   5.084   7.294   2.709 -0.2542 -0.5372  0.7489
  255MOL0     H34415   4.838   7.330   2.704  2.1812 -2.0042  1.3367
  255MOL0     H34416   4.909   7.256   2.557 -2.1054 -0.1793 -1.7553
  255MOL0     H34417   4.873   7.449   2.422 -0.2188  0.5097  0.0611
  255MOL0     H34418   4.866   7.558   2.565 -0.1761 -1.9545  5.4477
  255MOL0     H34419   4.658   7.444   2.636 -1.5448  2.1242 -0.5304
  255MOL0     H34420   4.621   7.521   2.488  0.5816 -0.1128 -0.7659
  255MOL0     H34421   4.600   7.103   2.404 -1.6413 -1.4352  4.0173
  255MOL0     H34422   5.273   7.387   2.791  0.9885 -1.7732 -0.4446
  255MOL0     H34423   5.545   7.310   2.850 -2.2791 -1.1175  1.1717
  255MOL0     H34424   5.608   7.473   2.867  1.8415 -1.9371 -1.4741
  255MOL0     H34425   5.455   7.442   2.939 -0.1356  2.0151 -0.5503
  256MOL0     O34426   9.599   5.474  10.914 -0.2611  0.2287  0.0911
  256MOL0     C34427   9.615   5.560  11.002  0.1544  0.8503 -0.7628
  256MOL0     O34428   9.734   5.579  11.073 -0.1486  0.1118 -1.0460
  256MOL0     C34429   9.853   5.521  11.022 -0.1911 -0.1135 -0.1148
  256MOL0     C34430   9.947   5.612  10.974 -0.0647 -0.0636  0.5001
  256MOL0     C34431  10.075   5.576  10.940 -0.0958 -0.5791  0.5620
  256MOL0     C34432  10.114   5.440  10.956  0.4490  0.0150  0.6383
  256MOL0     O34433  10.236   5.387  10.943 -0.1674 -0.0442 -0.0411
  256MOL0     C34434  10.354   5.467  10.973  0.2515  1.1940  0.0573
  256MOL0     C34435  10.470   5.364  10.968  0.1251  0.4224 -0.5482
  256MOL0     C34436  10.462   5.263  11.085 -0.4375 -0.2103  0.5030
  256MOL0     C34437  10.580   5.175  11.086 -0.1272 -0.6886 -0.0696
  256MOL0     C34438  10.544   5.037  11.158  0.5116 -0.0439  0.5141
  256MOL0     C34439  10.520   5.045  11.306  0.1705 -0.6209  0.2805
  256MOL0     C34440  10.644   5.106  11.370  0.4265  0.5413  1.1140
  256MOL0     C34441  10.661   5.093  11.525  0.8506 -0.1335  0.1585
  256MOL0     N34442  10.762   5.179  11.578  0.3740 -0.4231  0.1777
  256MOL0     C34443  10.896   5.154  11.571 -0.1559  0.3206  1.1370
  256MOL0     C34444  10.963   5.274  11.564 -0.6863 -0.5106 -0.9648
  256MOL0     C34445  11.110   5.302  11.531 -0.0661 -0.2236 -0.3074
  256MOL0     C34446  11.176   5.205  11.436  0.4802  0.4566 -0.2350
  256MOL0     C34447  11.328   5.220  11.430  0.3588  0.3648  0.2864
  256MOL0     C34448  11.379   5.123  11.317  0.0604  0.5343 -1.0101
  256MOL0     O34449  11.524   5.130  11.324  0.1674  0.3126 -0.1669
  256MOL0     C34450  11.598   5.025  11.259  0.9131 -0.4367 -0.3390
  256MOL0     C34451  11.734   5.042  11.244  0.4081  0.3920  0.1870
  256MOL0     C34452  11.815   4.956  11.163  0.2316 -0.4555 -0.8886
  256MOL0     C34453  11.747   4.845  11.101  0.4214 -0.3872  0.4555
  256MOL0     C34454  11.836   4.755  11.024 -0.4164 -0.3996 -0.0637
  256MOL0     O34455  11.978   4.765  11.031  1.3924 -0.3710 -0.1163
  256MOL0     C34456  12.050   4.698  10.943 -0.6324  0.5185  0.3921
  256MOL0     C34457  12.167   4.636  10.990 -0.0367  0.5759  0.6630
  256MOL0     C34458  12.260   4.583  10.897 -0.4166  0.1999 -0.9487
  256MOL0     C34459  12.240   4.589  10.761  0.5801  0.7832 -0.5868
  256MOL0     O34460  12.332   4.528  10.675  0.4742  0.4681 -0.7697
  256MOL0     C34461  12.386   4.631  10.600 -0.4019 -0.5009  0.0521
  256MOL0     C34462  12.485   4.584  10.492 -0.5235  0.1306  0.3038
  256MOL0     C34463  12.600   4.515  10.559  0.3884  0.6426 -0.5680
  256MOL0     C34464  12.709   4.605  10.606 -0.0900  0.1523  0.8762
  256MOL0     C34465  12.803   4.547  10.723  0.7922  0.1867 -0.1430
  256MOL0     C34466  12.870   4.415  10.676  0.0900  0.1413  0.4234
  256MOL0     C34467  12.980   4.362  10.763  0.6876  0.6871 -0.0608
  256MOL0     C34468  13.116   4.424  10.739  0.7583  0.6483 -0.0826
  256MOL0    Cl34469  13.249   4.328  10.805  0.5352 -0.0411 -0.1195
  256MOL0     C34470  12.116   4.624  10.713 -0.7475 -0.0163 -0.1060
  256MOL0     C34471  12.025   4.684  10.802 -0.0857  0.3803  0.4728
  256MOL0     O34472  11.782   4.662  10.963  0.6340 -0.4937 -0.5436
  256MOL0     C34473  11.608   4.830  11.107  0.6508  1.1951 -0.5359
  256MOL0     C34474  11.536   4.916  11.188  0.0370  0.1777  0.0508
  256MOL0     N34475  10.870   5.369  11.566  0.0197 -0.3518  0.3030
  256MOL0     N34476  10.747   5.321  11.572 -0.6110  0.2813  1.0167
  256MOL0     C34477  10.016   5.344  10.985  0.1565  0.0467 -0.2298
  256MOL0     C34478   9.881   5.384  11.026 -0.2721  0.1233 -1.1371
  256MOL0     C34479   9.503   5.655  11.042 -0.5639  0.7428 -0.5281
  256MOL0     C34480   9.513   5.725  11.156  0.4705 -0.0381 -0.7308
  256MOL0     C34481   9.403   5.796  11.210  0.5347  0.3642  0.8774
  256MOL0     C34482   9.287   5.816  11.141  0.1913 -0.9673  0.5858
  256MOL0     O34483   9.184   5.901  11.186 -0.8401  0.3938  0.6776
  256MOL0     C34484   9.049   5.862  11.146  0.2705  0.1021  0.3592
  256MOL0     C34485   9.002   5.719  11.184  0.0709 -0.1303  0.1946
  256MOL0     C34486   9.051   5.677  11.329  0.5779 -0.3570 -0.1893
  256MOL0     C34487   9.044   5.529  11.367  0.3026  0.0609  0.1091
  256MOL0     C34488   9.066   5.528  11.513 -0.3431  0.9868 -0.1640
  256MOL0     C34489   9.090   5.525  11.628  0.3012  1.2169 -0.7794
  256MOL0     C34490   9.284   5.753  11.013 -0.1687 -0.6423  0.1012
  256MOL0     C34491   9.388   5.675  10.959  0.5590 -0.2269  0.4134
  256MOL0     C34492   9.357   5.602  10.829 -0.0217 -0.7131 -0.0942
  256MOL0     H34493   9.927   5.718  10.965  3.5381  0.5681 -2.1842
  256MOL0     H34494  10.138   5.656  10.904 -4.2698  1.5469 -3.0825
  256MOL0     H34495  10.356   5.538  10.889 -1.9130  1.1196 -0.1023
  256MOL0     H34496  10.351   5.515  11.071  0.4027  1.1751  0.0721
  256MOL0     H34497  10.561   5.422  10.990  0.1212 -0.3182  1.6868
  256MOL0     H34498  10.477   5.309  10.874  1.7471  1.0779 -0.8505
  256MOL0     H34499  10.377   5.195  11.077  1.8213 -3.0925 -0.9530
  256MOL0     H34500  10.452   5.327  11.173 -0.0626  2.6658 -1.3983
  256MOL0     H34501  10.609   5.144  10.985 -0.1143 -0.9455  0.0118
  256MOL0     H34502  10.667   5.226  11.126  0.0399 -0.2601 -0.9396
  256MOL0     H34503  10.458   4.990  11.110 -0.5777  1.3351  1.0645
  256MOL0     H34504  10.634   4.985  11.124  2.3287  3.2008 -0.0400
  256MOL0     H34505  10.428   5.105  11.311 -1.9318 -2.8644 -4.8539
  256MOL0     H34506  10.497   4.949  11.352  0.0684 -1.3127 -1.1804
  256MOL0     H34507  10.657   5.211  11.341  0.8194 -0.2010 -1.6174
  256MOL0     H34508  10.730   5.062  11.319  1.2859  2.9033  0.3840
  256MOL0     H34509  10.567   5.120  11.574  1.8628  3.6468  0.3427
  256MOL0     H34510  10.687   4.990  11.548 -0.2954 -0.3186  0.7048
  256MOL0     H34511  10.939   5.058  11.543  4.3121  2.0931  1.1241
  256MOL0     H34512  11.122   5.405  11.496 -1.7983 -0.3882 -1.4564
  256MOL0     H34513  11.170   5.298  11.623  0.2754 -1.4294 -0.5701
  256MOL0     H34514  11.153   5.103  11.467 -2.2796  1.1657  0.2867
  256MOL0     H34515  11.122   5.220  11.342  1.5222  0.3623 -0.8686
  256MOL0     H34516  11.365   5.203  11.531  2.2033  0.9663 -0.2390
  256MOL0     H34517  11.349   5.318  11.386 -2.2946 -0.2839 -2.7816
  256MOL0     H34518  11.341   5.156  11.220 -0.6792 -0.1552 -0.9630
  256MOL0     H34519  11.343   5.020  11.326  0.2471  0.6537  2.4258
  256MOL0     H34520  11.771   5.137  11.283 -1.1843  0.8077  0.7488
  256MOL0     H34521  11.919   4.975  11.137 -0.1851  2.6908 -0.6277
  256MOL0     H34522  12.191   4.627  11.095  0.6259 -2.7234  0.3545
  256MOL0     H34523  12.349   4.532  10.932  0.4447  2.1119 -0.1855
  256MOL0     H34524  12.305   4.692  10.557 -0.1748  0.2556  0.6746
  256MOL0     H34525  12.435   4.696  10.672 -2.8195  2.8194 -1.0289
  256MOL0     H34526  12.425   4.523  10.423  1.3817  0.3766 -1.6731
  256MOL0     H34527  12.529   4.670  10.441 -0.7626  1.6811  2.5713
  256MOL0     H34528  12.566   4.452  10.642  1.4877  1.6592  0.6954
  256MOL0     H34529  12.641   4.436  10.494  1.4522  0.0590  0.7718
  256MOL0     H34530  12.670   4.701  10.640 -1.0172 -0.0640  0.4745
  256MOL0     H34531  12.768   4.623  10.516 -0.9163  0.2952  0.3477
  256MOL0     H34532  12.751   4.532  10.818  1.4813 -0.9508  0.0856
  256MOL0     H34533  12.882   4.622  10.737  0.6321 -0.0094  2.2039
  256MOL0     H34534  12.788   4.342  10.667 -0.9675  1.4839 -1.6827
  256MOL0     H34535  12.890   4.429  10.569 -2.9559  0.5014 -0.1893
  256MOL0     H34536  12.987   4.262  10.721 -0.2564  0.8513 -0.6560
  256MOL0     H34537  12.952   4.374  10.868  0.5655 -2.6249  0.3689
  256MOL0     H34538  13.124   4.435  10.631 -2.2257 -1.5762 -0.6520
  256MOL0     H34539  13.119   4.520  10.791  1.5803 -0.3900  1.9052
  256MOL0     H34540  12.086   4.609  10.611 -0.4174 -0.1682 -0.1829
  256MOL0     H34541  11.928   4.703  10.757 -1.3920 -0.8106  2.6182
  256MOL0     H34542  11.565   4.739  11.066  2.6273 -1.1639  2.2214
  256MOL0     H34543  11.432   4.890  11.207 -1.1450  3.9359 -0.4217
  256MOL0     H34544  10.042   5.240  11.000 -0.1502  0.1070  0.7919
  256MOL0     H34545   9.810   5.308  11.059  0.4261  1.0892  3.1847
  256MOL0     H34546   9.602   5.722  11.218 -0.5234  0.0985  0.7615
  256MOL0     H34547   9.413   5.848  11.305  0.2512  0.4107  0.8814
  256MOL0     H34548   9.039   5.881  11.039 -2.6193  0.0213  0.5563
  256MOL0     H34549   8.986   5.930  11.204  0.5023  0.9137 -0.3266
  256MOL0     H34550   9.032   5.650  11.105  0.3092  0.3072 -0.1009
  256MOL0     H34551   8.893   5.715  11.191  0.0141 -0.7756 -0.8570
  256MOL0     H34552   8.985   5.731  11.397 -0.0704 -1.4264  0.0445
  256MOL0     H34553   9.155   5.710  11.335  0.1289  1.6532 -2.1309
  256MOL0     H34554   8.952   5.481  11.332  2.1333 -1.0054 -3.7602
  256MOL0     H34555   9.123   5.471  11.318 -1.4279 -1.2598 -1.2765
  256MOL0     H34556   9.114   5.533  11.732  0.2952  4.4856 -0.9011
  256MOL0     H34557   9.192   5.773  10.958 -1.3769 -2.2806  1.4157
  256MOL0     H34558   9.261   5.638  10.790  0.6087 -0.8396 -1.8563
  256MOL0     H34559   9.431   5.628  10.753 -0.3206 -1.0128 -0.4923
  256MOL0     H34560   9.364   5.495  10.846  0.3921 -0.7066 -0.2069
  257MOL0     O34561   9.119   6.840   5.722  0.2116  0.2710  0.5631
  257MOL0     C34562   9.054   6.930   5.770 -0.1665  0.2990  0.4419
  257MOL0     O34563   9.101   7.050   5.816 -0.7195 -0.6082  0.9311
  257MOL0     C34564   9.239   7.082   5.816  1.1323 -0.1288  0.6034
  257MOL0     C34565   9.346   6.990   5.819 -0.5563 -0.0583  0.5255
  257MOL0     C34566   9.479   7.038   5.803  0.0825  0.1906  0.1131
  257MOL0     C34567   9.501   7.170   5.779 -0.4828  0.6478 -0.4344
  257MOL0     O34568   9.627   7.218   5.741 -0.3292 -0.1474 -0.5143
  257MOL0     C34569   9.735   7.197   5.835  0.5358 -0.7288 -0.0801
  257MOL0     C34570   9.774   7.338   5.902  0.7189  0.2256  0.0680
  257MOL0     C34571   9.810   7.440   5.797 -0.3875  0.2669  0.2231
  257MOL0     C34572   9.853   7.581   5.860  0.3744  0.3516  0.3405
  257MOL0     C34573  10.000   7.569   5.895  0.2042 -0.0351 -0.1740
  257MOL0     C34574  10.096   7.574   5.771 -0.1569  0.1217  0.3860
  257MOL0     C34575  10.240   7.624   5.803 -0.2985  0.2021 -0.0726
  257MOL0     C34576  10.305   7.529   5.905 -0.7913  0.4301  0.4125
  257MOL0     N34577  10.448   7.537   5.896  0.2020 -0.3239  0.3825
  257MOL0     C34578  10.533   7.554   6.007  0.0455 -1.2547 -0.1918
  257MOL0     C34579  10.656   7.532   5.953  0.5965 -0.2618 -0.1916
  257MOL0     C34580  10.783   7.564   6.029 -0.1434  0.2196  0.0908
  257MOL0     C34581  10.896   7.469   5.990 -0.6782 -0.1580  0.3024
  257MOL0     C34582  11.036   7.488   6.041 -0.5342  0.4470 -1.3687
  257MOL0     C34583  11.089   7.623   6.011 -0.3277  0.7676 -0.2587
  257MOL0     O34584  11.235   7.615   6.016  0.5453 -0.0374  0.3270
  257MOL0     C34585  11.307   7.733   6.025 -1.0376  0.1381 -0.7088
  257MOL0     C34586  11.443   7.718   6.029 -0.0686  0.0856  0.1049
  257MOL0     C34587  11.536   7.828   6.041  0.6004 -0.4160  0.4741
  257MOL0     C34588  11.489   7.960   6.054  0.2117  0.1105  0.6666
  257MOL0     C34589  11.578   8.079   6.066  0.2116 -0.1073 -0.7799
  257MOL0     O34590  11.702   8.068   6.018  0.1463  0.4687  0.0171
  257MOL0     C34591  11.784   8.177   6.005  0.0929 -0.1202 -0.2118
  257MOL0     C34592  11.787   8.281   6.099 -1.1960  0.4200 -0.1222
  257MOL0     C34593  11.879   8.381   6.086  0.2362  0.3005 -0.3520
  257MOL0     C34594  11.955   8.403   5.974 -0.4633  0.2678  0.4228
  257MOL0     O34595  12.048   8.507   5.966  0.0721 -0.0291  0.6557
  257MOL0     C34596  12.136   8.520   5.844  0.0074  0.4125 -0.0372
  257MOL0     C34597  12.239   8.412   5.828 -0.0708 -0.5705 -0.4175
  257MOL0     C34598  12.345   8.430   5.716  0.1818  0.1574  0.3161
  257MOL0     C34599  12.291   8.425   5.567 -0.2210 -0.5514  0.8359
  257MOL0     C34600  12.414   8.435   5.480 -0.4059  0.3831  0.2361
  257MOL0     C34601  12.376   8.425   5.335 -1.3536 -0.4578  1.2445
  257MOL0     C34602  12.478   8.495   5.239 -0.0658  0.5095  0.5498
  257MOL0     C34603  12.462   8.444   5.089  0.2888 -0.1786 -0.2368
  257MOL0    Cl34604  12.617   8.506   5.016 -0.2235  0.5803  0.2439
  257MOL0     C34605  11.942   8.305   5.875 -0.0753  0.4557  0.0957
  257MOL0     C34606  11.864   8.191   5.891 -0.1482  0.2558 -0.6253
  257MOL0     O34607  11.527   8.187   6.118 -0.4077  0.4381  1.2115
  257MOL0     C34608  11.356   7.975   6.077  0.3433 -0.5743 -0.2866
  257MOL0     C34609  11.266   7.869   6.065 -1.2112 -0.4430 -0.8924
  257MOL0     N34610  10.647   7.497   5.812 -0.3961 -0.4866  0.1061
  257MOL0     N34611  10.522   7.502   5.784 -0.3882  0.0811 -0.5859
  257MOL0     C34612   9.395   7.266   5.781 -0.5454 -0.3919  0.0483
  257MOL0     C34613   9.269   7.214   5.792  0.2985 -0.2571  0.0793
  257MOL0     C34614   8.911   6.906   5.765  1.2692  0.0304 -0.5589
  257MOL0     C34615   8.851   6.845   5.658 -0.0311  0.1893 -0.9644
  257MOL0     C34616   8.707   6.829   5.649  1.0545 -0.3833 -0.7299
  257MOL0     C34617   8.624   6.880   5.753 -0.7706  0.4504 -0.7151
  257MOL0     O34618   8.491   6.879   5.758 -0.0587  0.5090  0.6881
  257MOL0     C34619   8.430   6.795   5.662 -0.1687 -0.9767  0.0904
  257MOL0     C34620   8.281   6.778   5.694  0.6394 -0.2845 -0.9094
  257MOL0     C34621   8.181   6.867   5.633  0.1223 -0.1216  0.2162
  257MOL0     C34622   8.038   6.828   5.663  0.4161 -0.7240 -0.1398
  257MOL0     C34623   7.957   6.947   5.657  0.0302 -0.3950  0.0829
  257MOL0     C34624   7.887   7.048   5.649  0.9301 -0.5786  0.7310
  257MOL0     C34625   8.685   6.922   5.870 -0.2895  0.3271  0.1166
  257MOL0     C34626   8.824   6.931   5.877 -0.3595 -0.4827  1.0657
  257MOL0     C34627   8.882   7.011   5.999 -0.5670 -1.3372 -0.0844
  257MOL0     H34628   9.325   6.883   5.824 -0.6769  0.0035  1.3744
  257MOL0     H34629   9.564   6.971   5.791  0.1725  0.0724  1.3029
  257MOL0     H34630   9.710   7.118   5.907 -3.2741  0.7323  0.3901
  257MOL0     H34631   9.822   7.154   5.784 -0.3430 -1.9241 -0.6160
  257MOL0     H34632   9.857   7.319   5.972 -1.2932 -3.9224  1.6746
  257MOL0     H34633   9.687   7.370   5.960  1.1443 -1.8004  1.9607
  257MOL0     H34634   9.722   7.457   5.734 -0.3289  0.9120  0.3059
  257MOL0     H34635   9.895   7.408   5.735 -1.3361 -0.4310 -0.7597
  257MOL0     H34636   9.821   7.653   5.784 -0.1204 -1.2309 -1.0049
  257MOL0     H34637   9.798   7.614   5.949 -1.2707  1.8243 -1.1703
  257MOL0     H34638  10.033   7.649   5.961  0.1512 -0.2183  0.0795
  257MOL0     H34639  10.023   7.477   5.951 -0.2244  0.2672  0.5149
  257MOL0     H34640  10.103   7.478   5.720 -1.4665 -1.7633  3.4187
  257MOL0     H34641  10.046   7.650   5.711 -2.2273 -0.6636  1.0205
  257MOL0     H34642  10.238   7.726   5.841 -3.0371 -0.2909  1.3329
  257MOL0     H34643  10.282   7.632   5.702 -0.5466  2.3316 -0.0402
  257MOL0     H34644  10.269   7.573   5.997 -0.9552  0.5964  0.2681
  257MOL0     H34645  10.271   7.429   5.877 -3.3598  1.2460  0.3817
  257MOL0     H34646  10.494   7.594   6.100  0.1085  0.4433 -0.8706
  257MOL0     H34647  10.806   7.670   6.020 -1.6895  0.8048  2.1782
  257MOL0     H34648  10.760   7.543   6.134 -1.2873 -0.1234 -0.2149
  257MOL0     H34649  10.852   7.373   6.016 -2.8802  0.8791  0.6110
  257MOL0     H34650  10.919   7.467   5.883 -0.9815 -0.4685  0.2419
  257MOL0     H34651  11.102   7.409   6.004  0.9189  1.4750 -1.0706
  257MOL0     H34652  11.028   7.481   6.150 -3.1305  0.4387 -1.5013
  257MOL0     H34653  11.055   7.692   6.089  1.6138 -0.7536  2.0905
  257MOL0     H34654  11.063   7.649   5.908 -0.1960 -0.7270 -0.6972
  257MOL0     H34655  11.479   7.616   6.020 -3.2422 -1.5650  3.6038
  257MOL0     H34656  11.642   7.806   6.043  0.7361  0.1125 -0.2776
  257MOL0     H34657  11.722   8.284   6.186 -0.1597 -0.3191  0.6965
  257MOL0     H34658  11.889   8.457   6.164  1.5188  0.8173 -0.9882
  257MOL0     H34659  12.068   8.516   5.759 -0.1868  2.6348 -0.0426
  257MOL0     H34660  12.192   8.614   5.851  0.0847  0.2555  3.6960
  257MOL0     H34661  12.295   8.409   5.922  0.7756 -1.2891 -0.9237
  257MOL0     H34662  12.201   8.309   5.827  3.0759 -1.8837  1.1085
  257MOL0     H34663  12.409   8.518   5.729  0.3686  0.1742 -0.6609
  257MOL0     H34664  12.415   8.349   5.739 -1.5187 -0.8033  2.4452
  257MOL0     H34665  12.233   8.514   5.540  1.7926  1.0428  1.4471
  257MOL0     H34666  12.242   8.333   5.535 -3.9099 -0.3824  5.0932
  257MOL0     H34667  12.480   8.351   5.503 -2.7986 -1.9752 -0.9616
  257MOL0     H34668  12.470   8.528   5.495 -0.3848  0.1652  1.6374
  257MOL0     H34669  12.358   8.320   5.308 -0.7339 -0.1801 -0.3473
  257MOL0     H34670  12.284   8.475   5.305 -0.6684  0.4494  0.6131
  257MOL0     H34671  12.572   8.455   5.278 -0.2233 -0.5315 -0.0977
  257MOL0     H34672  12.473   8.604   5.247  3.4862  0.8719 -0.1149
  257MOL0     H34673  12.444   8.336   5.084 -1.4231  0.1223 -2.8883
  257MOL0     H34674  12.380   8.504   5.049  0.5247 -0.3453 -0.9911
  257MOL0     H34675  11.995   8.303   5.780 -2.8154  1.8363 -1.6007
  257MOL0     H34676  11.875   8.111   5.818  0.2966 -1.6711  1.4382
  257MOL0     H34677  11.316   8.073   6.099  0.7413 -0.7905  1.5379
  257MOL0     H34678  11.162   7.884   6.092 -0.5103  0.4138  1.6265
  257MOL0     H34679   9.415   7.368   5.750  0.6170 -0.5271  0.3300
  257MOL0     H34680   9.190   7.286   5.773  0.4698  0.0926  0.6613
  257MOL0     H34681   8.906   6.811   5.571  2.5636  0.3447  0.5165
  257MOL0     H34682   8.682   6.777   5.558  1.5850 -2.3205  0.1737
  257MOL0     H34683   8.466   6.692   5.651 -0.3380 -0.7878 -3.1569
  257MOL0     H34684   8.447   6.828   5.560 -3.1351 -1.1553 -0.5642
  257MOL0     H34685   8.268   6.770   5.802 -1.8310  0.9799 -1.0534
  257MOL0     H34686   8.258   6.676   5.661 -1.6133  0.1228 -0.7322
  257MOL0     H34687   8.189   6.851   5.525 -0.5745 -2.3515  0.4538
  257MOL0     H34688   8.201   6.972   5.657 -1.9462  0.0453  1.4898
  257MOL0     H34689   8.000   6.748   5.598  1.2858 -0.3364 -1.1447
  257MOL0     H34690   8.035   6.788   5.765  2.1170  1.6603  0.9129
  257MOL0     H34691   7.828   7.137   5.659  0.7391 -0.8115  1.8948
  257MOL0     H34692   8.628   6.937   5.961  2.9315 -2.5901  2.9101
  257MOL0     H34693   8.814   7.003   6.085  0.9643  3.2762  1.8577
  257MOL0     H34694   8.973   6.959   6.031 -0.1648 -1.8551 -1.9813
  257MOL0     H34695   8.912   7.111   5.969  1.9542 -2.1039 -0.2966
  258MOL0     O34696   4.100   9.670   7.356 -0.2704 -0.2774 -0.2825
  258MOL0     C34697   4.122   9.598   7.454  0.4389 -0.8351  0.4646
  258MOL0     O34698   4.044   9.499   7.488 -0.0525 -0.2766 -0.5363
  258MOL0     C34699   3.937   9.448   7.430 -0.3310  0.4613 -0.9192
  258MOL0     C34700   3.909   9.460   7.296 -0.1552 -0.8085  0.5419
  258MOL0     C34701   3.802   9.404   7.235  0.5781 -0.1921  0.5111
  258MOL0     C34702   3.712   9.329   7.308 -0.0622 -0.0793 -0.1714
  258MOL0     O34703   3.613   9.263   7.236 -0.3310 -0.1821  0.2568
  258MOL0     C34704   3.508   9.185   7.299  0.6866 -0.3176 -0.5069
  258MOL0     C34705   3.536   9.043   7.333  0.9565 -0.1949  0.5872
  258MOL0     C34706   3.530   8.941   7.207 -0.4627 -0.5650  0.8440
  258MOL0     C34707   3.642   8.971   7.098  0.6542 -0.5134 -0.5117
  258MOL0     C34708   3.775   8.897   7.136  0.5756  0.0482  0.3254
  258MOL0     C34709   3.897   8.991   7.152 -0.1378 -0.3675 -0.2743
  258MOL0     C34710   3.917   9.048   7.288  0.6450 -0.7724 -0.2136
  258MOL0     C34711   3.911   8.954   7.411  0.1055  0.2249 -0.4602
  258MOL0     N34712   3.911   9.030   7.531 -0.4563  0.3092 -0.3939
  258MOL0     C34713   4.019   9.094   7.581 -0.0932 -0.2821 -0.7027
  258MOL0     C34714   3.971   9.153   7.691  0.5084  0.3744  0.2679
  258MOL0     C34715   4.044   9.248   7.770 -0.8705  0.0370  0.2691
  258MOL0     C34716   4.195   9.202   7.803 -0.7478  0.1360  0.0461
  258MOL0     C34717   4.253   9.296   7.909  0.2143 -0.2669  0.7687
  258MOL0     C34718   4.396   9.262   7.939 -0.4946  0.4233 -0.0027
  258MOL0     O34719   4.448   9.348   8.035 -0.1961  0.2320 -0.1320
  258MOL0     C34720   4.578   9.328   8.069 -0.2224 -0.3241  1.1771
  258MOL0     C34721   4.625   9.424   8.163  0.4176  0.6667 -0.8874
  258MOL0     C34722   4.755   9.420   8.219  0.4167 -0.2768 -0.1354
  258MOL0     C34723   4.839   9.306   8.185  0.5968 -0.5708 -0.3274
  258MOL0     C34724   4.971   9.301   8.256  0.1993  0.2561 -0.8383
  258MOL0     O34725   5.015   9.406   8.334  0.9901  0.3367 -0.0877
  258MOL0     C34726   5.134   9.380   8.402 -0.1759 -0.1594 -0.3414
  258MOL0     C34727   5.144   9.294   8.509  0.1624 -0.0043  0.6215
  258MOL0     C34728   5.267   9.277   8.574 -0.5029  0.0820 -0.4297
  258MOL0     C34729   5.384   9.335   8.526 -0.9206 -0.2573 -0.4455
  258MOL0     O34730   5.497   9.314   8.607 -0.2830 -0.5867  0.2571
  258MOL0     C34731   5.623   9.382   8.586 -0.9430  0.0668 -0.3265
  258MOL0     C34732   5.738   9.285   8.556 -0.2262  0.5777 -0.4972
  258MOL0     C34733   5.861   9.371   8.535 -0.4128 -0.1443  0.2155
  258MOL0     C34734   5.970   9.271   8.524 -0.1009 -0.1079  0.3720
  258MOL0     C34735   6.104   9.331   8.473  0.0969 -0.1254  0.3227
  258MOL0     C34736   6.176   9.435   8.563 -0.2317 -0.5334 -0.2525
  258MOL0     C34737   6.289   9.496   8.483 -0.4070 -0.8891 -1.1037
  258MOL0     C34738   6.367   9.602   8.564 -0.1874 -1.0287 -0.5564
  258MOL0    Cl34739   6.515   9.537   8.638  0.4659  0.5322  0.4395
  258MOL0     C34740   5.364   9.432   8.422 -0.6778 -0.0071  0.1967
  258MOL0     C34741   5.244   9.453   8.361  0.2075 -0.0850  0.3360
  258MOL0     O34742   5.036   9.195   8.233 -0.8595  0.3046  0.6006
  258MOL0     C34743   4.796   9.208   8.094  1.7204  0.2816 -0.4152
  258MOL0     C34744   4.671   9.230   8.026  0.7689 -0.8083  0.0890
  258MOL0     N34745   3.839   9.114   7.707  0.0276 -0.2224  0.6660
  258MOL0     N34746   3.802   9.042   7.609  0.4978 -0.0875  0.2173
  258MOL0     C34747   3.723   9.331   7.450 -0.4270  0.1654 -0.9481
  258MOL0     C34748   3.840   9.390   7.507  0.8124  0.6221 -1.1231
  258MOL0     C34749   4.254   9.624   7.517  0.1466  0.4338  0.6724
  258MOL0     C34750   4.328   9.515   7.567 -0.0330  1.8184  0.9121
  258MOL0     C34751   4.440   9.532   7.645 -0.8030  0.4093 -0.1965
  258MOL0     C34752   4.498   9.655   7.662 -0.6794 -0.1423  0.3799
  258MOL0     O34753   4.614   9.658   7.735 -0.3761 -0.1960  0.4889
  258MOL0     C34754   4.700   9.775   7.717 -0.4659  0.9399  0.1750
  258MOL0     C34755   4.828   9.757   7.800 -0.2858 -0.2990 -0.5558
  258MOL0     C34756   4.811   9.756   7.948  0.1811 -0.0668 -0.2829
  258MOL0     C34757   4.931   9.721   8.030  0.6098  0.2810  0.1395
  258MOL0     C34758   4.903   9.774   8.165  0.0787 -0.5172  0.0186
  258MOL0     C34759   4.883   9.810   8.280 -0.3313  0.4513  0.2184
  258MOL0     C34760   4.437   9.768   7.611 -0.1852 -0.6170  0.0465
  258MOL0     C34761   4.315   9.758   7.542 -0.0936  0.1708  0.5832
  258MOL0     C34762   4.232   9.880   7.499  1.2453 -0.1441  1.1288
  258MOL0     H34763   3.979   9.504   7.225 -1.3696 -0.2340 -0.3397
  258MOL0     H34764   3.797   9.416   7.128 -1.3446 -0.2466  0.5579
  258MOL0     H34765   3.467   9.244   7.382  1.1524  1.2765 -1.3696
  258MOL0     H34766   3.422   9.184   7.232  0.2683 -4.5375 -0.1611
  258MOL0     H34767   3.453   9.020   7.401  1.0127 -0.2274  0.6448
  258MOL0     H34768   3.629   9.035   7.390  0.5351 -1.4661  1.1491
  258MOL0     H34769   3.433   8.957   7.158  1.2240 -0.9138 -2.9459
  258MOL0     H34770   3.533   8.833   7.226  0.3892 -1.2454 -2.4662
  258MOL0     H34771   3.605   8.933   7.002  1.3925  0.6900 -1.2887
  258MOL0     H34772   3.643   9.078   7.077 -2.7321 -0.5775 -1.5892
  258MOL0     H34773   3.764   8.821   7.214  0.1085 -1.7795 -1.4344
  258MOL0     H34774   3.808   8.844   7.046 -0.3680 -0.8475  0.4806
  258MOL0     H34775   3.988   8.933   7.135 -1.5053 -3.7135  2.5279
  258MOL0     H34776   3.905   9.070   7.076  2.7652  1.9895  2.2131
  258MOL0     H34777   3.841   9.126   7.286  1.7217  0.3524 -2.7706
  258MOL0     H34778   4.018   9.090   7.297  0.9962 -1.7008  0.3513
  258MOL0     H34779   3.816   8.899   7.410  0.3157 -0.1432 -1.2348
  258MOL0     H34780   3.987   8.875   7.407  1.5433  1.6106 -1.4263
  258MOL0     H34781   4.122   9.104   7.550  0.5035 -0.9430  0.9820
  258MOL0     H34782   4.042   9.343   7.715 -2.9726  0.6342  1.2863
  258MOL0     H34783   3.992   9.264   7.865 -0.9054 -1.6993  0.5633
  258MOL0     H34784   4.190   9.100   7.840 -0.5663  0.0689 -0.1161
  258MOL0     H34785   4.259   9.214   7.715  1.9223  2.0391  2.0963
  258MOL0     H34786   4.187   9.289   7.995  0.3489  0.6297  0.9604
  258MOL0     H34787   4.246   9.402   7.879 -2.6834 -0.0170  2.0566
  258MOL0     H34788   4.463   9.271   7.853 -0.3795  0.1638  0.0573
  258MOL0     H34789   4.408   9.157   7.968 -0.3227  0.1249 -1.0895
  258MOL0     H34790   4.552   9.498   8.193 -2.8113 -3.1431  1.8302
  258MOL0     H34791   4.791   9.500   8.283  0.3672  0.5042 -1.0619
  258MOL0     H34792   5.056   9.250   8.554 -0.1161 -0.1872 -0.0906
  258MOL0     H34793   5.268   9.213   8.662 -4.6572 -1.5956 -1.3661
  258MOL0     H34794   5.616   9.460   8.510  0.9201 -0.4635 -1.0840
  258MOL0     H34795   5.638   9.428   8.684 -0.9500  0.2738 -0.4212
  258MOL0     H34796   5.745   9.224   8.646 -3.9134 -0.8638 -1.0038
  258MOL0     H34797   5.712   9.220   8.472 -0.3343 -0.3300  0.2332
  258MOL0     H34798   5.850   9.428   8.442  1.6165 -1.5653 -0.9804
  258MOL0     H34799   5.878   9.437   8.621  0.2665  0.4619 -0.3655
  258MOL0     H34800   5.962   9.186   8.456  4.3855 -1.7880  1.5613
  258MOL0     H34801   5.995   9.237   8.625 -1.0491 -0.4167  0.5057
  258MOL0     H34802   6.068   9.373   8.379 -0.4603  1.5916  1.2383
  258MOL0     H34803   6.179   9.255   8.451 -1.7551 -1.6085 -1.2144
  258MOL0     H34804   6.102   9.505   8.601 -0.8980 -1.0488 -0.5949
  258MOL0     H34805   6.225   9.378   8.642 -1.0789 -0.4389  0.3510
  258MOL0     H34806   6.247   9.536   8.391 -0.2340 -1.1804 -1.3139
  258MOL0     H34807   6.364   9.422   8.453  1.6972  0.3908  0.6703
  258MOL0     H34808   6.393   9.690   8.503 -0.3806  0.6660  1.6709
  258MOL0     H34809   6.300   9.639   8.642 -0.4417 -2.7685  0.0763
  258MOL0     H34810   5.452   9.484   8.385  2.5624 -2.1547  4.0890
  258MOL0     H34811   5.234   9.522   8.278  0.1349 -1.0762 -0.4990
  258MOL0     H34812   4.869   9.135   8.061  0.5124 -1.0175 -0.3068
  258MOL0     H34813   4.637   9.158   7.952 -1.0638  0.5048 -0.4261
  258MOL0     H34814   3.661   9.268   7.513 -1.1545  1.6943 -0.0748
  258MOL0     H34815   3.844   9.390   7.616 -2.3779 -2.3002 -0.8570
  258MOL0     H34816   4.282   9.417   7.553 -0.4129  2.2160 -0.9207
  258MOL0     H34817   4.487   9.439   7.677  1.4449  0.8519 -1.9978
  258MOL0     H34818   4.644   9.864   7.748 -1.9207 -0.7316  2.7222
  258MOL0     H34819   4.727   9.777   7.611  1.6319 -1.3971  0.5760
  258MOL0     H34820   4.901   9.834   7.771 -1.2808  1.8233  2.1480
  258MOL0     H34821   4.876   9.662   7.771  1.7689  0.4858  0.0938
  258MOL0     H34822   4.726   9.698   7.986 -1.0682  2.2599  0.6908
  258MOL0     H34823   4.771   9.855   7.970 -2.2691 -0.7844 -1.2290
  258MOL0     H34824   4.955   9.614   8.027  2.0932  0.5703  0.8398
  258MOL0     H34825   5.014   9.781   7.992  0.8539  0.0173  0.2519
  258MOL0     H34826   4.874   9.851   8.378 -1.9217 -3.4530  1.9087
  258MOL0     H34827   4.480   9.866   7.625  0.0116 -0.8559  1.1947
  258MOL0     H34828   4.275   9.973   7.537  1.4942 -0.6237  2.0567
  258MOL0     H34829   4.239   9.878   7.390 -0.3497 -0.2039  1.0085
  258MOL0     H34830   4.125   9.872   7.523  0.3917 -1.2665 -2.4735
  259MOL0     O34831   8.599   3.192   3.491 -0.2991 -0.1340 -0.2771
  259MOL0     C34832   8.510   3.113   3.495 -0.2296  0.1046  0.4701
  259MOL0     O34833   8.520   2.984   3.515 -0.8710  0.2094 -0.0771
  259MOL0     C34834   8.647   2.928   3.529 -0.0657 -0.3038 -0.3777
  259MOL0     C34835   8.721   2.887   3.410  0.2302 -0.2079 -0.0707
  259MOL0     C34836   8.846   2.834   3.424 -0.5921  0.9658  0.1916
  259MOL0     C34837   8.904   2.816   3.553 -0.1353 -0.1874 -0.0734
  259MOL0     O34838   9.031   2.774   3.552 -0.0120  0.3238  0.6825
  259MOL0     C34839   9.110   2.815   3.664 -1.1473 -0.1779  0.6261
  259MOL0     C34840   9.244   2.854   3.600 -0.6001 -0.1405 -0.0777
  259MOL0     C34841   9.325   2.738   3.545 -0.0242 -0.6610 -0.1398
  259MOL0     C34842   9.367   2.629   3.649  0.7108 -0.6823  0.3713
  259MOL0     C34843   9.446   2.515   3.588 -0.1721  0.7443 -0.8180
  259MOL0     C34844   9.503   2.404   3.688  0.3202 -0.4181 -0.5595
  259MOL0     C34845   9.529   2.267   3.623  0.3151 -0.0117 -0.7174
  259MOL0     C34846   9.648   2.280   3.530 -0.7875  0.3907  0.2534
  259MOL0     N34847   9.774   2.258   3.615 -0.0094 -0.1389  0.1175
  259MOL0     C34848   9.809   2.151   3.692  0.0011 -0.0483 -0.5278
  259MOL0     C34849   9.937   2.164   3.728  0.2326  0.7232  0.0899
  259MOL0     C34850  10.014   2.051   3.789 -0.1024  0.6178  0.0122
  259MOL0     C34851  10.166   2.064   3.752 -0.3075  0.1504  0.4024
  259MOL0     C34852  10.232   1.944   3.821  0.3409  0.6938  0.0628
  259MOL0     C34853  10.382   1.932   3.797 -0.5622 -0.3198 -0.4291
  259MOL0     O34854  10.436   2.021   3.895 -0.3576  0.2022 -0.2181
  259MOL0     C34855  10.562   1.995   3.953  0.2717 -0.8210 -0.1095
  259MOL0     C34856  10.603   2.089   4.052  0.9098  0.7648 -0.5990
  259MOL0     C34857  10.724   2.072   4.100 -0.0713  0.1872 -0.2270
  259MOL0     C34858  10.820   1.986   4.049 -0.1780 -0.0842 -0.7359
  259MOL0     C34859  10.956   1.993   4.098  0.1829  0.5198  0.5110
  259MOL0     O34860  11.056   1.992   4.001  0.0022 -0.3406  0.0375
  259MOL0     C34861  11.181   2.020   4.043  0.8201  0.8790 -0.6276
  259MOL0     C34862  11.292   1.931   4.034 -0.0342  0.2210 -1.0121
  259MOL0     C34863  11.423   1.969   4.066  0.7996 -0.6446  0.7012
  259MOL0     C34864  11.449   2.106   4.078 -0.1904  0.0669  0.4310
  259MOL0     O34865  11.579   2.142   4.093 -0.4243  0.0890  0.2897
  259MOL0     C34866  11.664   2.095   3.987 -0.0075 -0.0074 -0.3778
  259MOL0     C34867  11.797   2.173   3.967  0.8224 -0.0988  0.1762
  259MOL0     C34868  11.883   2.107   3.852 -0.3612 -0.5478  0.1978
  259MOL0     C34869  12.009   2.183   3.853  0.0014  1.0817 -0.3711
  259MOL0     C34870  12.122   2.135   3.764 -0.8285  0.3383  0.4739
  259MOL0     C34871  12.140   1.983   3.762  0.4574 -0.1778  0.2549
  259MOL0     C34872  12.243   1.941   3.655  0.8285 -0.2250 -1.1214
  259MOL0     C34873  12.258   1.789   3.626  0.1847 -0.0290 -0.1149
  259MOL0    Cl34874  12.275   1.688   3.779 -0.4583  0.1385 -0.1340
  259MOL0     C34875  11.342   2.198   4.085  0.0457 -0.6228 -0.3891
  259MOL0     C34876  11.211   2.156   4.063 -0.9608  0.0041  0.0440
  259MOL0     O34877  10.970   1.995   4.216 -0.4902 -0.7414  0.4308
  259MOL0     C34878  10.786   1.890   3.958  0.7741 -0.6771 -0.0364
  259MOL0     C34879  10.652   1.890   3.915  0.2943  0.8595 -1.6573
  259MOL0     N34880   9.974   2.287   3.690 -0.0230  0.2500 -0.2676
  259MOL0     N34881   9.878   2.341   3.621 -0.1301 -0.3599 -0.2897
  259MOL0     C34882   8.829   2.855   3.673 -0.1563  0.2030  0.0174
  259MOL0     C34883   8.704   2.916   3.652 -0.1587 -0.1621  0.6473
  259MOL0     C34884   8.376   3.161   3.471  0.0186  0.7848  0.9447
  259MOL0     C34885   8.283   3.065   3.414  0.8781 -0.4602 -0.3929
  259MOL0     C34886   8.150   3.106   3.378  0.2050  0.5855 -0.0640
  259MOL0     C34887   8.109   3.237   3.414 -0.0855  1.3206 -0.1407
  259MOL0     O34888   7.987   3.284   3.394  0.0766  0.0841  0.3845
  259MOL0     C34889   7.887   3.217   3.320  0.5561 -0.0498  0.0797
  259MOL0     C34890   7.763   3.298   3.332  0.1754 -0.7379  0.5174
  259MOL0     C34891   7.653   3.236   3.243  0.2767 -0.0118 -0.2991
  259MOL0     C34892   7.537   3.339   3.225  0.0605  0.0586  0.4466
  259MOL0     C34893   7.443   3.291   3.113 -0.4389 -0.1621  0.2480
  259MOL0     C34894   7.361   3.258   3.027  0.1417 -0.6110  0.1120
  259MOL0     C34895   8.190   3.332   3.464 -0.6195 -0.1885 -0.5144
  259MOL0     C34896   8.327   3.295   3.488 -0.0356  0.5022 -0.2637
  259MOL0     C34897   8.414   3.405   3.529 -0.2952 -0.2411 -0.0337
  259MOL0     H34898   8.660   2.895   3.321 -3.6535 -1.3015  2.2340
  259MOL0     H34899   8.898   2.787   3.341  0.4109 -0.8650  1.7728
  259MOL0     H34900   9.077   2.909   3.710  1.2828  1.9428 -1.6813
  259MOL0     H34901   9.125   2.735   3.737  0.1770 -2.1188 -1.6753
  259MOL0     H34902   9.303   2.907   3.676  0.1408  0.6814 -1.2004
  259MOL0     H34903   9.227   2.920   3.515  2.4084  0.5703 -0.2315
  259MOL0     H34904   9.414   2.783   3.500 -0.7534  1.5707  0.5424
  259MOL0     H34905   9.265   2.699   3.462 -1.4307 -0.0595  0.5640
  259MOL0     H34906   9.425   2.674   3.730 -0.2470  2.6361 -0.6057
  259MOL0     H34907   9.275   2.585   3.688 -0.7056  1.0020 -0.8884
  259MOL0     H34908   9.391   2.467   3.506  4.7233 -1.6101 -3.2031
  259MOL0     H34909   9.538   2.549   3.540  0.5853 -0.0091  0.0593
  259MOL0     H34910   9.594   2.442   3.734  0.7844 -1.6257 -0.4421
  259MOL0     H34911   9.424   2.389   3.762 -0.0960  0.9592 -0.6975
  259MOL0     H34912   9.446   2.239   3.557  0.3484 -0.5415 -0.5372
  259MOL0     H34913   9.553   2.189   3.696  0.5404 -0.5642 -1.3656
  259MOL0     H34914   9.646   2.204   3.451  1.5753  1.4958 -0.9588
  259MOL0     H34915   9.651   2.376   3.479 -0.2583  2.2404  3.4908
  259MOL0     H34916   9.740   2.069   3.710  1.3731 -1.2447 -0.5857
  259MOL0     H34917  10.003   2.057   3.898  2.2042 -0.0853  0.3269
  259MOL0     H34918   9.982   1.949   3.767 -0.4386  0.4064  1.3792
  259MOL0     H34919  10.183   2.072   3.644 -0.2944  1.6553  0.4940
  259MOL0     H34920  10.202   2.148   3.812  0.6323 -0.5419  0.8351
  259MOL0     H34921  10.185   1.855   3.776 -0.2239  1.8465 -1.7326
  259MOL0     H34922  10.214   1.937   3.928  0.2602 -0.5920 -0.0180
  259MOL0     H34923  10.404   1.955   3.693 -0.1014  0.4008 -0.1858
  259MOL0     H34924  10.421   1.832   3.821 -1.9824 -0.8154 -0.1286
  259MOL0     H34925  10.532   2.157   4.099  0.1564  0.7928 -1.7307
  259MOL0     H34926  10.746   2.149   4.174 -3.0061  1.8882 -0.9622
  259MOL0     H34927  11.266   1.833   3.997 -3.2070  1.2286 -1.7970
  259MOL0     H34928  11.501   1.895   4.061  1.6892  0.1120  2.3419
  259MOL0     H34929  11.693   1.990   3.998 -1.4272 -0.4296 -0.4175
  259MOL0     H34930  11.608   2.097   3.892  1.0194 -1.2321 -1.0439
  259MOL0     H34931  11.774   2.272   3.926  0.4375 -0.9184 -1.7063
  259MOL0     H34932  11.852   2.174   4.061  0.5903 -0.1641  0.3143
  259MOL0     H34933  11.895   1.999   3.862  0.2419 -0.3451  1.9090
  259MOL0     H34934  11.827   2.132   3.761 -0.5920  0.7788  0.6773
  259MOL0     H34935  12.043   2.185   3.956 -3.2573 -3.3575  1.0943
  259MOL0     H34936  11.990   2.283   3.814  0.9124  0.0209 -3.9565
  259MOL0     H34937  12.219   2.177   3.792 -0.4357  1.0384 -1.7362
  259MOL0     H34938  12.106   2.159   3.658  0.8387  1.9643  0.5321
  259MOL0     H34939  12.165   1.948   3.862 -0.2462  0.9926  0.8714
  259MOL0     H34940  12.038   1.950   3.739  0.0217  0.7891  0.7393
  259MOL0     H34941  12.335   1.978   3.701  1.1920 -2.5826  0.1779
  259MOL0     H34942  12.212   1.985   3.560 -2.9591  0.5699  0.2842
  259MOL0     H34943  12.171   1.759   3.567  0.5400 -0.0433 -0.6349
  259MOL0     H34944  12.342   1.772   3.559 -1.2455 -1.7706 -1.5858
  259MOL0     H34945  11.343   2.306   4.097  0.4371 -0.8548  2.6514
  259MOL0     H34946  11.128   2.226   4.065  1.4852  3.1893 -1.1946
  259MOL0     H34947  10.854   1.818   3.914  3.1445  0.4610  1.5398
  259MOL0     H34948  10.624   1.813   3.843 -0.4052 -0.2942 -0.2094
  259MOL0     H34949   8.870   2.861   3.773  2.1077 -0.5932 -0.8080
  259MOL0     H34950   8.659   2.957   3.742 -1.2465  1.2031 -0.4780
  259MOL0     H34951   8.314   2.964   3.391  0.7469 -0.6294  0.1610
  259MOL0     H34952   8.079   3.038   3.331 -0.6225  2.0996 -1.1160
  259MOL0     H34953   7.857   3.118   3.356  0.2887 -1.1088 -2.8140
  259MOL0     H34954   7.921   3.206   3.216  0.1909 -0.1917 -0.0249
  259MOL0     H34955   7.782   3.404   3.310 -2.3801 -0.2267  0.4979
  259MOL0     H34956   7.730   3.303   3.436 -0.4742 -0.8074  0.3171
  259MOL0     H34957   7.614   3.146   3.292  1.0962 -1.0826 -1.5513
  259MOL0     H34958   7.688   3.211   3.142  1.3290  0.2039  0.0106
  259MOL0     H34959   7.475   3.349   3.314 -1.2947 -0.4737 -0.4049
  259MOL0     H34960   7.580   3.435   3.196 -0.9633  0.6321  0.7671
  259MOL0     H34961   7.289   3.234   2.951 -0.6196 -0.0786  0.6490
  259MOL0     H34962   8.152   3.429   3.494 -0.7331 -1.4466  4.0096
  259MOL0     H34963   8.358   3.487   3.574  0.0405  0.0376 -0.1217
  259MOL0     H34964   8.484   3.380   3.610 -0.3976  2.4393  0.9811
  259MOL0     H34965   8.470   3.441   3.442 -0.5765  1.3397  0.4154
  260MOL0     O34966   3.524   5.593   7.916 -0.3464  0.1823  0.4278
  260MOL0     C34967   3.541   5.513   7.823  0.0131 -0.3010  0.1624
  260MOL0     O34968   3.658   5.450   7.789  0.1570 -0.1680 -0.6439
  260MOL0     C34969   3.770   5.449   7.862  0.6212 -0.2533  0.0518
  260MOL0     C34970   3.892   5.453   7.790  0.8079 -1.4388 -0.5063
  260MOL0     C34971   4.014   5.438   7.852  0.0950  0.2399  0.1018
  260MOL0     C34972   4.027   5.432   7.992 -0.5324 -0.3674  0.4350
  260MOL0     O34973   4.147   5.409   8.063  0.0093  1.1427  0.5948
  260MOL0     C34974   4.235   5.520   8.066  0.3053  1.1717 -0.4251
  260MOL0     C34975   4.388   5.481   8.078  0.0480 -0.3564 -0.9792
  260MOL0     C34976   4.479   5.600   8.064  1.6027 -0.5211  0.2885
  260MOL0     C34977   4.496   5.671   8.197 -0.3419  0.3009  0.7738
  260MOL0     C34978   4.628   5.750   8.198  0.3005 -0.5422 -0.3860
  260MOL0     C34979   4.604   5.889   8.148  0.1715  0.5691  0.2220
  260MOL0     C34980   4.729   5.975   8.159  0.0859 -0.5240  0.4494
  260MOL0     C34981   4.813   5.972   8.036  0.1797  0.1264  0.2300
  260MOL0     N34982   4.932   6.055   8.052 -0.1662  0.1869  0.7068
  260MOL0     C34983   5.038   6.041   8.140  0.1086  0.0180  0.7430
  260MOL0     C34984   5.083   6.169   8.137  0.0305  0.2246 -0.4211
  260MOL0     C34985   5.191   6.212   8.240  0.5253 -0.7964 -0.2588
  260MOL0     C34986   5.331   6.190   8.177 -0.4614  0.4892 -0.0673
  260MOL0     C34987   5.373   6.308   8.085 -0.4912  0.4725  0.5129
  260MOL0     C34988   5.526   6.301   8.067 -0.0526  0.2963  0.6443
  260MOL0     O34989   5.588   6.326   8.189 -0.3581  0.5425 -0.0656
  260MOL0     C34990   5.731   6.333   8.188  0.2002  0.0779  0.3885
  260MOL0     C34991   5.814   6.308   8.075  0.2212  0.1539  0.9862
  260MOL0     C34992   5.954   6.316   8.092 -0.7717  0.1797 -0.1263
  260MOL0     C34993   6.013   6.326   8.222  0.8039 -0.0285 -0.2986
  260MOL0     C34994   6.159   6.301   8.231  0.6622  0.0428  0.1484
  260MOL0     O34995   6.213   6.323   8.350  0.7140 -0.2094  0.3261
  260MOL0     C34996   6.345   6.305   8.368 -0.1179  0.3710  0.1124
  260MOL0     C34997   6.434   6.410   8.342 -0.5289 -0.8563  0.9227
  260MOL0     C34998   6.575   6.403   8.371  0.4418  0.4733  0.6372
  260MOL0     C34999   6.609   6.296   8.453 -1.3741  0.1127  0.5712
  260MOL0     O35000   6.737   6.285   8.493 -0.7531  0.4381 -0.6760
  260MOL0     C35001   6.852   6.312   8.409  0.2522 -1.0970 -0.4826
  260MOL0     C35002   6.908   6.440   8.486 -0.1872  0.8974 -0.1719
  260MOL0     C35003   7.055   6.479   8.450 -0.0529  0.0508  0.2590
  260MOL0     C35004   7.075   6.497   8.295 -0.2800 -0.2437 -0.4572
  260MOL0     C35005   7.216   6.510   8.261  0.2035  0.9961  0.3885
  260MOL0     C35006   7.288   6.373   8.258 -0.0281  0.2213 -0.5898
  260MOL0     C35007   7.432   6.403   8.207  0.4653  0.4182 -0.1633
  260MOL0     C35008   7.541   6.406   8.311  0.1089 -0.2183 -0.3461
  260MOL0    Cl35009   7.565   6.229   8.357 -0.3675  0.2967 -0.1902
  260MOL0     C35010   6.524   6.197   8.493  0.4966 -0.6136 -0.0142
  260MOL0     C35011   6.385   6.202   8.451 -0.5293  0.6073  1.0332
  260MOL0     O35012   6.225   6.300   8.128  0.1217  0.4930 -0.3147
  260MOL0     C35013   5.924   6.349   8.325 -0.1203  0.4363 -0.0405
  260MOL0     C35014   5.791   6.366   8.308 -0.2350  0.1855  0.7304
  260MOL0     N35015   5.003   6.257   8.057 -0.4971  0.9157 -0.0439
  260MOL0     N35016   4.911   6.185   8.011 -0.4097  0.3166  1.0300
  260MOL0     C35017   3.907   5.433   8.064 -0.3540 -0.1688  0.0903
  260MOL0     C35018   3.779   5.439   8.005 -0.8414 -0.2250 -0.6604
  260MOL0     C35019   3.430   5.476   7.729 -0.1399  0.3125  0.0360
  260MOL0     C35020   3.453   5.385   7.624  0.1178 -0.6999  0.4222
  260MOL0     C35021   3.347   5.339   7.540  0.2996  0.5041 -0.3061
  260MOL0     C35022   3.220   5.393   7.550 -0.2252  1.0906 -0.4019
  260MOL0     O35023   3.113   5.353   7.469 -0.0137 -0.4330 -0.1950
  260MOL0     C35024   2.980   5.401   7.481 -0.4511  0.0336 -0.3126
  260MOL0     C35025   2.966   5.546   7.428 -0.0977  0.0046  0.4197
  260MOL0     C35026   2.992   5.554   7.282 -0.3007 -0.2138  1.2991
  260MOL0     C35027   2.965   5.690   7.221  1.2147  0.3849  0.2991
  260MOL0     C35028   3.063   5.788   7.264 -0.1146  0.3827  0.3404
  260MOL0     C35029   3.130   5.875   7.305 -0.6469 -0.6402  0.7246
  260MOL0     C35030   3.196   5.483   7.656 -0.0909  0.6447 -0.3943
  260MOL0     C35031   3.295   5.519   7.749 -0.7496  1.0031 -1.0600
  260MOL0     C35032   3.246   5.618   7.859 -1.1665 -0.0731 -0.2584
  260MOL0     H35033   3.880   5.470   7.683 -2.0110 -0.7354 -0.1414
  260MOL0     H35034   4.107   5.419   7.801 -0.0284  2.0739 -0.8709
  260MOL0     H35035   4.230   5.564   7.966  2.6113  0.4214 -0.9138
  260MOL0     H35036   4.203   5.582   8.151 -0.8431  2.6868 -1.8894
  260MOL0     H35037   4.405   5.409   7.998  3.7707  0.7215 -1.3321
  260MOL0     H35038   4.418   5.431   8.169  0.3193 -0.1418 -0.9496
  260MOL0     H35039   4.435   5.673   7.995  1.3919  1.3744  2.3056
  260MOL0     H35040   4.574   5.557   8.034  1.0300 -2.5422  1.2457
  260MOL0     H35041   4.408   5.733   8.216 -0.3342  0.9172 -0.9858
  260MOL0     H35042   4.505   5.597   8.277 -1.9448 -0.9471 -0.1536
  260MOL0     H35043   4.660   5.758   8.302 -2.1594  1.6415  0.2755
  260MOL0     H35044   4.694   5.688   8.135 -2.7464 -3.4991 -0.9822
  260MOL0     H35045   4.583   5.872   8.042 -2.1151 -1.5223  0.9120
  260MOL0     H35046   4.524   5.934   8.207 -0.4342  0.8737 -0.8125
  260MOL0     H35047   4.789   5.946   8.245  1.8777  0.6048 -0.3701
  260MOL0     H35048   4.709   6.082   8.173  3.1956 -0.1113  2.7863
  260MOL0     H35049   4.841   5.868   8.016  1.6077  0.1889  1.7327
  260MOL0     H35050   4.755   6.011   7.952  0.0191  1.0642  0.7687
  260MOL0     H35051   5.075   5.958   8.199  2.6363 -0.2592 -1.0620
  260MOL0     H35052   5.175   6.316   8.270 -2.5598 -0.3030 -3.1066
  260MOL0     H35053   5.190   6.165   8.339  1.2127  0.9567  0.6351
  260MOL0     H35054   5.402   6.169   8.258 -2.7800 -0.0279  1.9552
  260MOL0     H35055   5.350   6.096   8.123  2.7220  1.9140 -1.6820
  260MOL0     H35056   5.342   6.407   8.120  0.7571  1.8611 -2.0145
  260MOL0     H35057   5.336   6.285   7.984  0.5301 -1.7139  0.5695
  260MOL0     H35058   5.555   6.379   7.996  0.4121  0.2882  0.8226
  260MOL0     H35059   5.565   6.211   8.019 -0.9112  0.9138 -1.3187
  260MOL0     H35060   5.780   6.288   7.974  3.2001  0.2561 -0.1626
  260MOL0     H35061   6.013   6.311   8.002 -0.2070 -0.1536  0.2575
  260MOL0     H35062   6.385   6.493   8.291  0.3430 -0.9220 -0.0558
  260MOL0     H35063   6.648   6.481   8.346  2.3191 -1.4741 -0.2759
  260MOL0     H35064   6.919   6.226   8.404  0.9519 -0.5568 -0.4337
  260MOL0     H35065   6.835   6.333   8.303 -1.4162 -0.8210 -0.1878
  260MOL0     H35066   6.845   6.526   8.465  1.2505  1.5054 -2.2326
  260MOL0     H35067   6.904   6.420   8.594  1.5720  0.0662 -0.2221
  260MOL0     H35068   7.077   6.572   8.502  0.7508 -1.3546  2.5554
  260MOL0     H35069   7.121   6.396   8.474 -2.0384 -2.5265 -2.4278
  260MOL0     H35070   7.039   6.598   8.272 -1.5308 -0.4268  0.5757
  260MOL0     H35071   7.035   6.415   8.234  0.4016 -1.2576  0.4140
  260MOL0     H35072   7.279   6.568   8.330  2.8114 -1.0619 -0.1088
  260MOL0     H35073   7.216   6.563   8.165  1.9041 -0.5452 -0.5336
  260MOL0     H35074   7.300   6.326   8.356  4.1581  0.3332 -0.8686
  260MOL0     H35075   7.243   6.303   8.186 -4.2361  2.7932 -0.7846
  260MOL0     H35076   7.430   6.495   8.149 -0.4046 -0.1558 -1.0835
  260MOL0     H35077   7.453   6.335   8.123 -1.9535 -0.0705 -0.4512
  260MOL0     H35078   7.629   6.445   8.258  0.1861 -1.3285 -1.0736
  260MOL0     H35079   7.515   6.471   8.395  3.2025 -0.6810  1.1356
  260MOL0     H35080   6.556   6.111   8.550  1.8246 -1.1070 -1.4388
  260MOL0     H35081   6.315   6.123   8.480  0.2491 -0.6173 -0.2612
  260MOL0     H35082   5.961   6.363   8.426 -1.8494 -0.6953  0.7897
  260MOL0     H35083   5.720   6.398   8.383  0.9809  0.0153  1.9990
  260MOL0     H35084   3.916   5.410   8.170  0.5359 -1.7353 -0.3015
  260MOL0     H35085   3.689   5.444   8.067 -0.1620  0.6644  0.3003
  260MOL0     H35086   3.559   5.367   7.605 -0.0928 -0.9165 -0.5627
  260MOL0     H35087   3.354   5.274   7.453  2.7860  0.0114  0.1873
  260MOL0     H35088   2.947   5.399   7.586 -0.5902 -0.7186 -0.3645
  260MOL0     H35089   2.912   5.337   7.424 -3.0803  1.1275  1.4129
  260MOL0     H35090   3.023   5.616   7.490  0.5308  0.1043 -0.2524
  260MOL0     H35091   2.862   5.578   7.437  0.9180  3.1588  2.8532
  260MOL0     H35092   2.932   5.474   7.237 -1.7245 -0.1681  3.0058
  260MOL0     H35093   3.097   5.531   7.264  0.2071  1.3916  2.0532
  260MOL0     H35094   2.961   5.686   7.112  0.4237 -0.0439  0.3374
  260MOL0     H35095   2.867   5.725   7.254 -0.5044 -1.1792 -2.7546
  260MOL0     H35096   3.201   5.948   7.340  0.8167 -2.1360  0.9735
  260MOL0     H35097   3.098   5.523   7.676 -0.2990 -0.7410  1.6998
  260MOL0     H35098   3.290   5.584   7.953  0.6077 -0.2133 -1.0962
  260MOL0     H35099   3.268   5.724   7.841 -0.7528  0.4514  2.7793
  260MOL0     H35100   3.137   5.611   7.868 -1.1045 -1.3775 -0.3857
  261MOL0     O35101   8.606   8.701   4.054  0.5334 -0.0195 -0.1868
  261MOL0     C35102   8.512   8.655   4.122  0.0056 -0.3914  0.4751
  261MOL0     O35103   8.527   8.616   4.251  0.0040 -0.3609 -0.0448
  261MOL0     C35104   8.650   8.621   4.321 -0.3957 -0.9835  0.1570
  261MOL0     C35105   8.740   8.733   4.318 -0.0091  0.5257  0.0128
  261MOL0     C35106   8.871   8.719   4.378  0.3561 -1.6018 -0.4057
  261MOL0     C35107   8.904   8.608   4.455  0.4740 -0.0331 -0.8283
  261MOL0     O35108   9.023   8.611   4.537 -0.5863 -0.3195 -0.1287
  261MOL0     C35109   9.140   8.690   4.491 -0.4852  0.5378  0.0325
  261MOL0     C35110   9.259   8.642   4.564 -0.9383 -0.3522  0.0439
  261MOL0     C35111   9.379   8.652   4.479  0.1882 -0.4997 -0.6369
  261MOL0     C35112   9.501   8.603   4.558  0.4327  0.6545  0.3549
  261MOL0     C35113   9.636   8.574   4.485  0.2084  0.5813 -0.2721
  261MOL0     C35114   9.743   8.499   4.568  0.4625  0.8447 -0.1062
  261MOL0     C35115   9.883   8.504   4.501  0.3274 -0.3179  0.6839
  261MOL0     C35116   9.947   8.375   4.488  0.4448  0.1775 -0.1510
  261MOL0     N35117  10.086   8.386   4.452  0.7221 -0.4028  0.7420
  261MOL0     C35118  10.130   8.449   4.339  0.0587 -0.3714  0.1256
  261MOL0     C35119  10.266   8.454   4.344  0.0917 -0.5752  0.8143
  261MOL0     C35120  10.357   8.504   4.243  0.2747 -0.3464  0.1767
  261MOL0     C35121  10.504   8.518   4.300  0.0643 -0.5557  0.1975
  261MOL0     C35122  10.579   8.613   4.206  0.5693  0.5278  0.6986
  261MOL0     C35123  10.707   8.662   4.269  0.9997  0.4244  0.9414
  261MOL0     O35124  10.797   8.549   4.264 -0.4834  0.0146 -0.2741
  261MOL0     C35125  10.934   8.577   4.278  0.8553  0.0445  0.5379
  261MOL0     C35126  10.990   8.700   4.245 -0.9407  0.0371 -0.4119
  261MOL0     C35127  11.129   8.724   4.265 -0.4003  0.3734  0.3436
  261MOL0     C35128  11.214   8.620   4.309  0.8014 -0.8367 -0.1564
  261MOL0     C35129  11.360   8.639   4.315 -0.1127  0.4486  0.0551
  261MOL0     O35130  11.437   8.557   4.399 -0.0874  0.0267 -0.7111
  261MOL0     C35131  11.568   8.604   4.429  0.3430  0.8547 -0.1327
  261MOL0     C35132  11.586   8.699   4.526 -0.2607 -0.4930 -0.9911
  261MOL0     C35133  11.719   8.731   4.567  0.8198  0.3513 -0.4924
  261MOL0     C35134  11.824   8.644   4.521 -0.5611  0.4517 -0.3276
  261MOL0     O35135  11.960   8.662   4.561  0.0179 -0.3889 -0.3283
  261MOL0     C35136  12.021   8.790   4.550  0.3048 -0.1576 -0.5724
  261MOL0     C35137  12.169   8.785   4.562  0.1883  1.3320  0.3330
  261MOL0     C35138  12.239   8.908   4.524  0.4292  0.7688  0.4982
  261MOL0     C35139  12.213   9.006   4.647  0.0924  0.0674  0.3569
  261MOL0     C35140  12.292   9.132   4.631 -0.9244 -0.3671 -0.3566
  261MOL0     C35141  12.433   9.119   4.682 -0.7497  0.0952 -0.5473
  261MOL0     C35142  12.511   9.251   4.650 -0.7186 -1.0558  0.2559
  261MOL0     C35143  12.658   9.229   4.681  0.0963  0.8132 -0.5275
  261MOL0    Cl35144  12.767   9.365   4.633  0.1553  0.0898 -0.4289
  261MOL0     C35145  11.803   8.547   4.422  1.0072 -1.0041 -0.1072
  261MOL0     C35146  11.666   8.536   4.377 -0.6982  0.7322  0.5893
  261MOL0     O35147  11.405   8.730   4.247  0.3151 -0.7705 -1.1195
  261MOL0     C35148  11.159   8.492   4.302  0.1081 -0.4340 -0.1781
  261MOL0     C35149  11.023   8.475   4.301 -0.2257  0.6653 -0.2745
  261MOL0     N35150  10.300   8.392   4.463  0.0212 -0.0368 -0.4788
  261MOL0     N35151  10.189   8.347   4.525 -0.8534 -0.3417  0.5402
  261MOL0     C35152   8.809   8.508   4.469  0.2084 -0.1578 -0.0384
  261MOL0     C35153   8.689   8.514   4.396 -0.6967  0.0794  0.3564
  261MOL0     C35154   8.386   8.618   4.056 -0.3212 -1.5026 -0.0872
  261MOL0     C35155   8.286   8.713   4.030  0.1593  0.1087 -0.0126
  261MOL0     C35156   8.161   8.678   3.973 -0.4075  1.0335 -0.0905
  261MOL0     C35157   8.143   8.543   3.924 -1.0328 -0.8632  0.2995
  261MOL0     O35158   8.030   8.497   3.863  0.4150 -0.1270  0.1208
  261MOL0     C35159   7.918   8.580   3.847  0.3102  0.0770  1.4673
  261MOL0     C35160   7.833   8.504   3.753  0.1119 -0.8253  0.0320
  261MOL0     C35161   7.703   8.580   3.723 -0.1150  0.6646 -0.0038
  261MOL0     C35162   7.611   8.515   3.621 -0.0520  0.2374 -0.0435
  261MOL0     C35163   7.502   8.610   3.603  0.9489  0.3930 -0.8748
  261MOL0     C35164   7.408   8.692   3.593 -0.0481 -0.0955  0.3883
  261MOL0     C35165   8.249   8.455   3.944  0.1800  0.0327  0.0936
  261MOL0     C35166   8.370   8.487   4.009 -0.1769 -0.1239 -0.7256
  261MOL0     C35167   8.468   8.383   4.048 -0.9055  0.7255  0.1119
  261MOL0     H35168   8.724   8.824   4.263 -1.3804  0.1437 -0.2551
  261MOL0     H35169   8.932   8.809   4.369  0.0520 -1.2293  1.0686
  261MOL0     H35170   9.153   8.678   4.383 -2.0928  0.3355 -0.1649
  261MOL0     H35171   9.127   8.797   4.510 -1.2321  0.3407  0.6963
  261MOL0     H35172   9.244   8.537   4.594  0.3484 -0.9676 -1.3574
  261MOL0     H35173   9.273   8.707   4.651 -3.0347  1.4074 -0.8174
  261MOL0     H35174   9.401   8.751   4.437 -1.3479  0.3790  0.5195
  261MOL0     H35175   9.373   8.596   4.385 -0.9418  1.2165 -1.6561
  261MOL0     H35176   9.525   8.673   4.638 -0.1222  0.2981  0.8442
  261MOL0     H35177   9.469   8.507   4.600  1.1353 -0.7401 -2.0806
  261MOL0     H35178   9.621   8.512   4.396  0.2898  0.1231  0.0281
  261MOL0     H35179   9.675   8.671   4.454  0.5240  0.0258 -1.6603
  261MOL0     H35180   9.755   8.543   4.668 -0.4820 -0.0411  0.4064
  261MOL0     H35181   9.705   8.398   4.582 -0.8987  1.0836 -1.6885
  261MOL0     H35182   9.946   8.576   4.552 -0.0381  0.2141  0.3982
  261MOL0     H35183   9.884   8.534   4.396  5.1374 -1.6786  0.1138
  261MOL0     H35184   9.935   8.323   4.584  0.0733 -0.8383 -0.7339
  261MOL0     H35185   9.903   8.308   4.413 -1.8272  1.0004  0.3725
  261MOL0     H35186  10.071   8.493   4.260  1.3957  1.6472  0.1775
  261MOL0     H35187  10.363   8.428   4.164  0.1375 -1.0775  0.8649
  261MOL0     H35188  10.325   8.600   4.200  3.0335 -0.3484 -2.2280
  261MOL0     H35189  10.512   8.554   4.403 -0.2851  1.0321 -0.2995
  261MOL0     H35190  10.563   8.426   4.288  3.1980  1.4147 -0.8634
  261MOL0     H35191  10.513   8.700   4.204  0.5789  0.5484  1.2089
  261MOL0     H35192  10.592   8.571   4.106 -0.3168  2.2677 -0.1855
  261MOL0     H35193  10.686   8.692   4.372 -0.3648  0.6920  0.6175
  261MOL0     H35194  10.741   8.748   4.210 -3.8747  2.7840  1.0283
  261MOL0     H35195  10.941   8.790   4.207  0.4430  0.0467 -2.3062
  261MOL0     H35196  11.166   8.822   4.234 -2.2191  1.0259  0.0738
  261MOL0     H35197  11.499   8.756   4.557  2.6165  3.2233  1.1537
  261MOL0     H35198  11.728   8.815   4.634  0.8304  1.0000 -1.2875
  261MOL0     H35199  11.990   8.832   4.453  1.5998  0.7038 -0.6289
  261MOL0     H35200  11.992   8.854   4.634 -0.8297  0.9858 -1.7693
  261MOL0     H35201  12.187   8.740   4.661 -0.1207 -2.1074 -1.0405
  261MOL0     H35202  12.210   8.702   4.503  0.3073  0.1922  1.9415
  261MOL0     H35203  12.345   8.898   4.501  1.2457  3.5607  2.4683
  261MOL0     H35204  12.191   8.953   4.437  0.3093 -2.7023 -1.4272
  261MOL0     H35205  12.220   8.969   4.750  1.0059  2.3116  1.1468
  261MOL0     H35206  12.109   9.036   4.630 -0.1248 -0.4883  0.6822
  261MOL0     H35207  12.248   9.209   4.695  2.4096  0.5532  1.0877
  261MOL0     H35208  12.295   9.161   4.525 -2.8941  0.2956 -0.2579
  261MOL0     H35209  12.437   9.104   4.791  4.3539  0.2141 -0.4502
  261MOL0     H35210  12.484   9.033   4.637 -1.2315 -0.2596 -0.4235
  261MOL0     H35211  12.485   9.338   4.712  1.3448  0.3365 -0.7197
  261MOL0     H35212  12.490   9.288   4.550  1.2099 -1.9514 -0.5339
  261MOL0     H35213  12.671   9.226   4.790 -1.8151  6.6169  0.2396
  261MOL0     H35214  12.695   9.140   4.630 -0.8217  0.9657 -1.4959
  261MOL0     H35215  11.886   8.494   4.377  1.7786  0.1785 -0.1259
  261MOL0     H35216  11.650   8.469   4.293  0.7394  1.5811 -0.4059
  261MOL0     H35217  11.217   8.402   4.317  0.3106 -0.0520  1.4619
  261MOL0     H35218  10.979   8.376   4.304  0.1486  0.4928 -0.4557
  261MOL0     H35219   8.838   8.420   4.525  2.8008  1.4802  1.4154
  261MOL0     H35220   8.631   8.423   4.401  0.7115 -0.9148 -0.5509
  261MOL0     H35221   8.299   8.813   4.070 -2.2826  0.4753  0.0442
  261MOL0     H35222   8.079   8.748   3.967  1.0739  2.8805  0.3232
  261MOL0     H35223   7.948   8.681   3.817 -2.4667  0.8979  1.1949
  261MOL0     H35224   7.870   8.587   3.945  0.1721  0.4322  1.3750
  261MOL0     H35225   7.810   8.403   3.789 -0.8363 -0.8414 -0.6084
  261MOL0     H35226   7.885   8.498   3.657  2.3387  2.1140  0.9126
  261MOL0     H35227   7.746   8.667   3.674 -1.4566 -0.2979 -3.1634
  261MOL0     H35228   7.652   8.613   3.814  0.8992 -0.6544  1.0725
  261MOL0     H35229   7.666   8.484   3.531 -1.3637 -0.0999 -0.7623
  261MOL0     H35230   7.567   8.423   3.660 -0.2596 -0.9183 -2.7406
  261MOL0     H35231   7.336   8.769   3.571 -0.1998 -0.5764 -0.9251
  261MOL0     H35232   8.243   8.353   3.907  4.4592 -0.1310 -0.6358
  261MOL0     H35233   8.555   8.384   3.982 -1.5730  1.6929 -0.7855
  261MOL0     H35234   8.489   8.388   4.156  1.7474 -2.8740 -0.0463
  261MOL0     H35235   8.415   8.288   4.043 -1.1711  0.6083  3.2240
  262MOL0     O35236   2.561   3.909   1.332 -0.2883 -0.2157 -0.3054
  262MOL0     C35237   2.595   4.016   1.280 -0.5549 -1.1330 -0.0853
  262MOL0     O35238   2.701   4.030   1.201  0.3731  0.1037 -0.0479
  262MOL0     C35239   2.807   3.940   1.216 -0.0661 -0.7647 -0.2222
  262MOL0     C35240   2.801   3.808   1.183 -0.1901 -0.3107  0.6193
  262MOL0     C35241   2.915   3.728   1.186  0.6501  0.3773 -0.5500
  262MOL0     C35242   3.038   3.775   1.225 -0.1881  0.4005 -0.0054
  262MOL0     O35243   3.160   3.709   1.238  0.5469 -0.2403  0.2026
  262MOL0     C35244   3.159   3.566   1.237  0.2555  0.4833 -0.0233
  262MOL0     C35245   3.189   3.526   1.098  0.1268  0.6518  0.0623
  262MOL0     C35246   3.341   3.531   1.074  0.0017 -0.7234 -0.3483
  262MOL0     C35247   3.395   3.501   0.938 -0.9138 -0.2553 -0.4312
  262MOL0     C35248   3.337   3.581   0.818 -0.8225  0.1418  0.3050
  262MOL0     C35249   3.428   3.583   0.697 -0.2096  0.8750  0.4112
  262MOL0     C35250   3.447   3.443   0.639  0.3037 -0.1203 -0.1162
  262MOL0     C35251   3.492   3.446   0.491 -0.2304 -0.6394 -0.3278
  262MOL0     N35252   3.489   3.316   0.420 -0.3214 -0.8146  0.1270
  262MOL0     C35253   3.378   3.243   0.380 -0.6628  0.1280 -0.6649
  262MOL0     C35254   3.420   3.127   0.335 -0.1625 -0.6915  0.7292
  262MOL0     C35255   3.330   3.020   0.264 -0.7097 -0.4097 -0.2416
  262MOL0     C35256   3.269   2.919   0.359 -0.4593  0.2854  0.0558
  262MOL0     C35257   3.142   2.965   0.438  0.1294 -0.1229 -0.2641
  262MOL0     C35258   3.038   2.977   0.333  0.0667  0.1781  0.3491
  262MOL0     O35259   3.036   3.107   0.279 -0.1737 -0.0500 -0.2758
  262MOL0     C35260   2.935   3.205   0.326 -0.3659  0.5114  0.6011
  262MOL0     C35261   2.845   3.187   0.428 -0.4598  0.6017 -0.1146
  262MOL0     C35262   2.758   3.292   0.465 -0.5227 -0.6434 -0.0016
  262MOL0     C35263   2.756   3.408   0.395  1.7820 -0.4228 -0.8186
  262MOL0     C35264   2.642   3.508   0.416 -0.2849  0.1637  0.1911
  262MOL0     O35265   2.604   3.581   0.306 -0.5191 -0.2422  0.5082
  262MOL0     C35266   2.530   3.699   0.330  0.1852  0.2762 -0.0490
  262MOL0     C35267   2.394   3.689   0.368 -0.5148 -0.0865 -0.3348
  262MOL0     C35268   2.315   3.804   0.392  0.7100 -0.0629  0.3855
  262MOL0     C35269   2.374   3.928   0.391 -0.2080 -0.5377 -0.4680
  262MOL0     O35270   2.310   4.050   0.402 -0.0366  0.0300  0.2577
  262MOL0     C35271   2.198   4.063   0.504 -0.1513 -0.8247 -0.3542
  262MOL0     C35272   2.150   4.207   0.494 -0.0110 -0.0313  0.1905
  262MOL0     C35273   2.003   4.242   0.542 -1.1149  0.2145 -0.3408
  262MOL0     C35274   1.970   4.201   0.683 -0.0802 -0.4889 -0.3647
  262MOL0     C35275   1.826   4.226   0.728  0.3591  0.2169 -0.9245
  262MOL0     C35276   1.797   4.368   0.760 -0.2798  0.5871  0.0070
  262MOL0     C35277   1.649   4.364   0.810  0.8008 -0.1495 -0.3468
  262MOL0     C35278   1.615   4.498   0.872  0.7689 -0.1319 -0.5080
  262MOL0    Cl35279   1.454   4.486   0.938 -0.2817 -0.4122 -0.3346
  262MOL0     C35280   2.507   3.932   0.359  0.2458  0.0040  0.3755
  262MOL0     C35281   2.586   3.822   0.326  0.5108 -0.5362 -0.0301
  262MOL0     O35282   2.581   3.504   0.522 -0.5998 -0.3024 -0.1626
  262MOL0     C35283   2.849   3.434   0.297  0.7880 -0.1346 -0.7036
  262MOL0     C35284   2.938   3.333   0.259  0.3463 -0.3615  0.0020
  262MOL0     N35285   3.562   3.128   0.347 -0.1267 -0.3192 -0.0714
  262MOL0     N35286   3.600   3.242   0.393 -0.3938  0.0182  0.4088
  262MOL0     C35287   3.044   3.911   1.250 -0.5854  0.6231 -0.5846
  262MOL0     C35288   2.931   3.993   1.249  0.1304 -0.4082 -0.6911
  262MOL0     C35289   2.519   4.146   1.311  0.0984 -0.1805  0.4373
  262MOL0     C35290   2.535   4.252   1.216  0.3838 -0.5606 -0.0200
  262MOL0     C35291   2.461   4.368   1.232  0.2271  0.3501 -0.0517
  262MOL0     C35292   2.381   4.389   1.334 -0.7672 -0.2657 -0.9066
  262MOL0     O35293   2.322   4.512   1.356 -0.7593 -0.2464  0.6503
  262MOL0     C35294   2.348   4.630   1.275  0.2875 -0.0908  0.3589
  262MOL0     C35295   2.472   4.702   1.310  0.0073  0.6969 -0.2726
  262MOL0     C35296   2.464   4.847   1.245  0.3689 -0.0923 -0.6245
  262MOL0     C35297   2.541   4.967   1.292  0.4901  0.4009 -0.4057
  262MOL0     C35298   2.681   4.947   1.275  0.9011  0.3554 -0.4948
  262MOL0     C35299   2.806   4.945   1.278 -0.3961 -0.0149 -0.1053
  262MOL0     C35300   2.375   4.291   1.427  0.8411  0.0577  0.6878
  262MOL0     C35301   2.441   4.170   1.428  0.4413 -0.3628  0.1405
  262MOL0     C35302   2.439   4.078   1.555  0.1686 -0.5993  0.0477
  262MOL0     H35303   2.708   3.766   1.148 -2.2403  2.0847  2.6997
  262MOL0     H35304   2.902   3.624   1.156 -1.2228  1.1423 -2.6375
  262MOL0     H35305   3.234   3.526   1.306 -1.3125 -1.4614  0.6514
  262MOL0     H35306   3.064   3.522   1.268 -0.3881  2.1995  0.5907
  262MOL0     H35307   3.133   3.595   1.034  1.3748  0.8885 -0.8128
  262MOL0     H35308   3.155   3.425   1.074  0.7863  0.6300 -0.8258
  262MOL0     H35309   3.387   3.466   1.150 -1.4885  0.3235  1.5558
  262MOL0     H35310   3.377   3.629   1.108  0.9338 -1.3605  0.5910
  262MOL0     H35311   3.503   3.517   0.950 -1.4332  2.6154  1.5399
  262MOL0     H35312   3.363   3.397   0.922 -3.9794  0.4120  0.7211
  262MOL0     H35313   3.250   3.530   0.776  0.3426  0.3261 -2.5423
  262MOL0     H35314   3.343   3.684   0.857  0.9847  1.3858 -2.8861
  262MOL0     H35315   3.381   3.646   0.621 -0.3679 -1.7356 -1.8137
  262MOL0     H35316   3.524   3.632   0.718 -1.2275  2.8646  0.7077
  262MOL0     H35317   3.355   3.385   0.652 -0.5830  0.3187 -3.3842
  262MOL0     H35318   3.522   3.401   0.706 -1.3864 -1.0602  1.2457
  262MOL0     H35319   3.426   3.517   0.441 -0.9141 -1.7666 -1.0516
  262MOL0     H35320   3.594   3.486   0.488 -0.5266  0.1639 -0.0295
  262MOL0     H35321   3.277   3.281   0.391  0.0086  1.4782  1.4154
  262MOL0     H35322   3.252   3.067   0.202  0.2915  1.4577 -0.1323
  262MOL0     H35323   3.395   2.967   0.194 -0.5404  0.1568 -0.5197
  262MOL0     H35324   3.241   2.830   0.301 -1.1921  1.2703 -1.1462
  262MOL0     H35325   3.347   2.885   0.428 -1.7419 -1.9796  0.4894
  262MOL0     H35326   3.165   3.060   0.487  1.2611 -1.3831  1.7696
  262MOL0     H35327   3.101   2.885   0.501 -2.6486 -2.8466 -4.9307
  262MOL0     H35328   2.940   2.949   0.373 -0.6543  0.2624 -1.2741
  262MOL0     H35329   3.056   2.913   0.246  1.2873  0.8797  0.0613
  262MOL0     H35330   2.841   3.100   0.494  2.9787  1.4459  1.4033
  262MOL0     H35331   2.690   3.282   0.549 -1.2592  0.1155 -0.4918
  262MOL0     H35332   2.351   3.591   0.383  2.0574 -1.4088 -1.0315
  262MOL0     H35333   2.208   3.799   0.411  0.6129 -1.5753 -0.3389
  262MOL0     H35334   2.109   4.003   0.480 -2.2692  2.5085 -1.5242
  262MOL0     H35335   2.222   4.047   0.610  1.7247  0.0672 -0.6143
  262MOL0     H35336   2.223   4.270   0.547  0.3742  0.2860 -0.7008
  262MOL0     H35337   2.153   4.235   0.389 -0.2275 -1.6153 -0.2560
  262MOL0     H35338   1.989   4.349   0.524  1.7386  0.8132  0.4049
  262MOL0     H35339   1.934   4.193   0.473  0.8695 -0.0749 -2.2588
  262MOL0     H35340   2.035   4.260   0.748 -1.0480 -1.1581  1.2574
  262MOL0     H35341   2.007   4.099   0.692 -0.8000 -0.8595 -1.3806
  262MOL0     H35342   1.812   4.170   0.821 -1.9133  2.5937  0.2884
  262MOL0     H35343   1.760   4.183   0.652 -0.9598 -1.1374  0.8744
  262MOL0     H35344   1.865   4.396   0.841  2.5279 -2.5333 -1.0769
  262MOL0     H35345   1.799   4.435   0.673  1.0144  0.0683 -0.3845
  262MOL0     H35346   1.627   4.296   0.892 -1.9848 -0.3416 -1.1708
  262MOL0     H35347   1.589   4.348   0.720 -1.6310  0.7632  1.0363
  262MOL0     H35348   1.687   4.520   0.952  0.4171 -0.2048 -0.1643
  262MOL0     H35349   1.630   4.573   0.794 -1.9065 -2.1362 -3.1369
  262MOL0     H35350   2.563   4.023   0.345  1.0923 -0.6597 -0.6565
  262MOL0     H35351   2.692   3.835   0.308  0.5969 -0.2388  0.6329
  262MOL0     H35352   2.847   3.530   0.248  2.0994 -1.5481 -3.7298
  262MOL0     H35353   3.010   3.353   0.181  0.0308  2.1314  0.2939
  262MOL0     H35354   3.134   3.968   1.274  0.0031 -0.5913  0.1590
  262MOL0     H35355   2.953   4.098   1.264 -0.3407 -0.2668 -0.9666
  262MOL0     H35356   2.595   4.244   1.126 -0.2701  1.0929 -0.6434
  262MOL0     H35357   2.478   4.446   1.158 -2.3311  1.0566  0.0020
  262MOL0     H35358   2.261   4.697   1.280 -1.3158 -1.9868 -0.5503
  262MOL0     H35359   2.348   4.597   1.171 -0.3131  0.9499  0.0084
  262MOL0     H35360   2.561   4.652   1.270 -1.8776 -2.5999 -0.7734
  262MOL0     H35361   2.494   4.704   1.417  2.6629 -0.0202 -0.7175
  262MOL0     H35362   2.360   4.879   1.235  0.4350 -0.2243 -1.9181
  262MOL0     H35363   2.503   4.821   1.146  1.3565 -3.5020  0.5315
  262MOL0     H35364   2.511   5.050   1.227  0.5978  0.4544 -0.3883
  262MOL0     H35365   2.518   4.999   1.394  3.1293  0.0811  0.3612
  262MOL0     H35366   2.913   4.947   1.281 -0.2933 -0.4780 -2.0206
  262MOL0     H35367   2.314   4.310   1.515  2.1188  0.5081  1.5063
  262MOL0     H35368   2.447   3.970   1.537  2.1906 -1.0524  2.9871
  262MOL0     H35369   2.517   4.111   1.624  2.0769 -2.5431 -1.0136
  262MOL0     H35370   2.339   4.083   1.597 -1.4295 -0.0438 -3.4359
  263MOL0     O35371   2.180   9.433   0.743  0.7135  0.0710  0.3395
  263MOL0     C35372   2.167   9.321   0.693 -0.5361  0.1888  0.3687
  263MOL0     O35373   2.259   9.240   0.632  0.3465 -0.7596  0.0965
  263MOL0     C35374   2.395   9.255   0.658  1.0046 -0.1525 -0.4522
  263MOL0     C35375   2.460   9.138   0.637 -0.4015  0.5224  1.9512
  263MOL0     C35376   2.597   9.132   0.635 -0.2971  0.3941  0.4890
  263MOL0     C35377   2.680   9.242   0.660 -0.7602  0.5960  0.1838
  263MOL0     O35378   2.817   9.217   0.649 -0.1831 -0.0424  1.3932
  263MOL0     C35379   2.900   9.316   0.703 -0.4031 -0.8364 -0.6031
  263MOL0     C35380   3.048   9.276   0.714  0.8389  0.0836  0.2142
  263MOL0     C35381   3.118   9.414   0.730  0.0446 -0.0556 -0.4899
  263MOL0     C35382   3.267   9.387   0.794  0.0523 -0.5069 -1.0365
  263MOL0     C35383   3.342   9.513   0.816  0.4611 -0.6134 -0.2743
  263MOL0     C35384   3.471   9.490   0.884  0.2579  0.3375 -0.6495
  263MOL0     C35385   3.531   9.621   0.947  0.0035 -0.4799 -0.6237
  263MOL0     C35386   3.666   9.608   1.023  0.4810 -0.7017  0.0718
  263MOL0     N35387   3.779   9.560   0.944 -0.2547 -0.5681  0.3344
  263MOL0     C35388   3.805   9.578   0.811  0.0516  0.7443  0.3210
  263MOL0     C35389   3.919   9.505   0.782 -0.3223 -0.9073  0.2023
  263MOL0     C35390   3.969   9.466   0.645 -0.0079  0.7171  0.4198
  263MOL0     C35391   4.119   9.497   0.622 -0.0463  0.1537  0.4251
  263MOL0     C35392   4.168   9.442   0.482 -0.0553 -0.1380  0.0992
  263MOL0     C35393   4.317   9.414   0.498  0.3610 -0.6701  0.1822
  263MOL0     O35394   4.380   9.400   0.373 -0.3943 -0.2299 -0.2731
  263MOL0     C35395   4.517   9.396   0.370  0.6608 -0.6684  0.0169
  263MOL0     C35396   4.608   9.383   0.480  0.2529 -0.9514  1.0817
  263MOL0     C35397   4.746   9.363   0.458  0.2861  0.0786 -0.3588
  263MOL0     C35398   4.803   9.367   0.328 -0.5921 -0.2239  0.4548
  263MOL0     C35399   4.951   9.345   0.307  0.5554 -1.2811  0.7536
  263MOL0     O35400   4.998   9.337   0.178  0.4959 -0.7780 -0.7993
  263MOL0     C35401   5.125   9.301   0.159  0.2347 -0.6953 -0.3142
  263MOL0     C35402   5.222   9.403   0.193  0.9271  0.1657 -1.3117
  263MOL0     C35403   5.356   9.395   0.173 -0.5213  0.1572 -0.5244
  263MOL0     C35404   5.404   9.277   0.113 -0.2879  0.0286 -0.2134
  263MOL0     O35405   5.539   9.262   0.081  0.3161  0.7074 -0.0836
  263MOL0     C35406   5.638   9.358   0.121 -0.0608 -0.5161  0.5333
  263MOL0     C35407   5.784   9.317   0.097 -0.3854 -0.1196  0.4478
  263MOL0     C35408   5.815   9.297  -0.048 -0.3088  0.3217 -0.0203
  263MOL0     C35409   5.976   9.270  -0.064  0.5193 -0.0363  0.4698
  263MOL0     C35410   6.035   9.246  -0.203  0.8679 -0.8315  0.2635
  263MOL0     C35411   6.181   9.276  -0.191 -1.2025 -0.8048 -0.6216
  263MOL0     C35412   6.256   9.245  -0.331 -0.5884  0.3051 -0.1504
  263MOL0     C35413   6.403   9.264  -0.345 -0.4521 -0.2568 -0.8967
  263MOL0    Cl35414   6.481   9.137  -0.245  0.1678  0.4196 -0.0457
  263MOL0     C35415   5.313   9.173   0.086 -0.2801 -0.2768 -0.2479
  263MOL0     C35416   5.172   9.179   0.113 -0.1799  0.1609 -0.3697
  263MOL0     O35417   5.020   9.347   0.407  0.4011  0.0736  0.0929
  263MOL0     C35418   4.713   9.387   0.213 -0.0289 -0.0381 -0.0329
  263MOL0     C35419   4.571   9.391   0.241  0.2704  0.1152 -0.4151
  263MOL0     N35420   3.970   9.459   0.894  0.6802 -0.1342  0.4855
  263MOL0     N35421   3.891   9.496   0.992 -0.3515 -0.1515 -0.0723
  263MOL0     C35422   2.611   9.360   0.695 -0.4664  0.2266 -0.2234
  263MOL0     C35423   2.472   9.370   0.693  0.0718  0.0544 -0.6475
  263MOL0     C35424   2.023   9.286   0.665 -0.4387  0.7996 -0.1284
  263MOL0     C35425   1.993   9.211   0.548  1.0445  0.7045  0.4789
  263MOL0     C35426   1.862   9.168   0.517 -1.2617  0.8053  0.5425
  263MOL0     C35427   1.750   9.193   0.605  0.3419  0.2151 -0.0980
  263MOL0     O35428   1.622   9.149   0.576  0.8747 -0.3662  0.2728
  263MOL0     C35429   1.578   9.123   0.431  0.4197  0.6532 -0.5308
  263MOL0     C35430   1.426   9.081   0.450 -0.6650 -0.0101  0.7038
  263MOL0     C35431   1.314   9.185   0.478  0.9242  0.0622  0.4796
  263MOL0     C35432   1.252   9.212   0.342 -0.1466  0.0634 -0.3811
  263MOL0     C35433   1.128   9.292   0.346 -0.7816  0.1514  0.7274
  263MOL0     C35434   1.022   9.354   0.355 -0.0775  0.3536 -0.2615
  263MOL0     C35435   1.777   9.282   0.708 -0.3667 -0.5139 -0.0954
  263MOL0     C35436   1.913   9.326   0.738  0.2495 -0.0005  0.1601
  263MOL0     C35437   1.928   9.407   0.864 -0.2180  1.1277  0.4602
  263MOL0     H35438   2.404   9.049   0.610  1.2968 -1.0390  3.2846
  263MOL0     H35439   2.647   9.038   0.609 -1.1780  0.5092 -1.8539
  263MOL0     H35440   2.904   9.409   0.646  2.6590 -0.3814  0.1713
  263MOL0     H35441   2.878   9.335   0.808  1.3763 -0.3717 -0.2889
  263MOL0     H35442   3.082   9.228   0.621  1.4240 -0.4825  0.7064
  263MOL0     H35443   3.067   9.198   0.789 -2.5323 -0.7442  0.3737
  263MOL0     H35444   3.071   9.489   0.794  2.4194  0.7752  0.3976
  263MOL0     H35445   3.128   9.451   0.628 -2.9257  0.7464 -0.5836
  263MOL0     H35446   3.253   9.329   0.886  0.5817  1.5923  0.4538
  263MOL0     H35447   3.322   9.320   0.727  1.4007  2.9883 -3.7483
  263MOL0     H35448   3.354   9.564   0.720  1.5544 -1.6558 -0.7174
  263MOL0     H35449   3.286   9.575   0.888  0.3853 -1.1851  0.1647
  263MOL0     H35450   3.446   9.418   0.963 -0.4302 -0.2290 -1.3779
  263MOL0     H35451   3.551   9.437   0.832  2.9033 -1.6653  4.6763
  263MOL0     H35452   3.464   9.673   1.017  1.1633  0.3370 -0.0962
  263MOL0     H35453   3.542   9.690   0.863  2.5074 -0.4527 -0.3340
  263MOL0     H35454   3.694   9.711   1.047  0.7421 -0.7967  0.1755
  263MOL0     H35455   3.659   9.551   1.116 -1.9218 -0.6571 -0.0080
  263MOL0     H35456   3.744   9.636   0.742 -1.3428  2.2246  2.6731
  263MOL0     H35457   3.963   9.357   0.646 -0.3139  0.6252 -2.6770
  263MOL0     H35458   3.905   9.510   0.569 -1.3329 -0.9907  0.4837
  263MOL0     H35459   4.128   9.606   0.616  3.3199 -0.0470 -0.5787
  263MOL0     H35460   4.180   9.449   0.700 -1.5103 -1.1780  0.7876
  263MOL0     H35461   4.156   9.520   0.406  1.6705 -0.8992 -1.0309
  263MOL0     H35462   4.108   9.353   0.460 -0.7815  1.0783 -3.3726
  263MOL0     H35463   4.344   9.334   0.568  2.4832 -0.0444  0.1704
  263MOL0     H35464   4.366   9.499   0.548  1.1987 -1.4189  0.6791
  263MOL0     H35465   4.567   9.391   0.581  1.5797  3.4217  1.4514
  263MOL0     H35466   4.803   9.346   0.549  0.1277 -0.0556 -0.2851
  263MOL0     H35467   5.191   9.498   0.235 -0.5336 -1.5087  1.7882
  263MOL0     H35468   5.418   9.481   0.199 -0.9194  0.0678  0.7840
  263MOL0     H35469   5.616   9.450   0.067  0.3984 -0.5504  0.2839
  263MOL0     H35470   5.630   9.385   0.227  1.7026 -0.7042  0.7457
  263MOL0     H35471   5.842   9.405   0.127 -0.2437 -0.5139  1.3586
  263MOL0     H35472   5.809   9.227   0.154 -2.7903 -1.7836 -0.9852
  263MOL0     H35473   5.750   9.222  -0.093 -1.0406 -1.8476  4.1136
  263MOL0     H35474   5.793   9.388  -0.104 -1.2147  1.7508  2.4907
  263MOL0     H35475   6.000   9.188   0.004 -0.2675  0.0499  0.8574
  263MOL0     H35476   6.038   9.341  -0.008  1.8024 -0.9765  0.2978
  263MOL0     H35477   5.989   9.308  -0.281 -4.0896 -3.2444  0.8464
  263MOL0     H35478   6.014   9.141  -0.226  0.0714 -0.8928  1.1993
  263MOL0     H35479   6.191   9.383  -0.167 -2.4785 -1.1292  1.6688
  263MOL0     H35480   6.225   9.211  -0.115  0.3163 -0.5571 -1.2367
  263MOL0     H35481   6.215   9.307  -0.411  2.4732  0.5670 -1.6558
  263MOL0     H35482   6.222   9.146  -0.362 -3.7246  1.1434  0.1560
  263MOL0     H35483   6.419   9.240  -0.451 -3.3896  1.7764 -1.9482
  263MOL0     H35484   6.439   9.354  -0.294 -0.6561 -1.0053  0.6301
  263MOL0     H35485   5.359   9.082   0.049 -0.4144 -1.3584  2.0556
  263MOL0     H35486   5.112   9.092   0.087  1.2776 -1.3113  0.9495
  263MOL0     H35487   4.758   9.392   0.114 -4.0875  3.2491 -2.0475
  263MOL0     H35488   4.509   9.400   0.152  0.7061 -0.6464 -0.8074
  263MOL0     H35489   2.667   9.451   0.710  0.4925 -0.3399 -0.2441
  263MOL0     H35490   2.409   9.457   0.702  0.0631  0.3754 -2.9942
  263MOL0     H35491   2.065   9.195   0.469  0.0990  0.3232 -0.3312
  263MOL0     H35492   1.845   9.114   0.424  0.9435  0.8805  0.0331
  263MOL0     H35493   1.634   9.039   0.388  0.9249  0.2812  0.8113
  263MOL0     H35494   1.587   9.205   0.359 -1.2394  0.0490 -1.4812
  263MOL0     H35495   1.422   9.008   0.531  0.4881 -0.1026  0.6809
  263MOL0     H35496   1.408   9.024   0.359  1.1837 -0.8708  0.8479
  263MOL0     H35497   1.343   9.281   0.522  1.8238  1.0697 -2.1368
  263MOL0     H35498   1.243   9.139   0.547  2.6593 -2.2271  0.8436
  263MOL0     H35499   1.312   9.257   0.262 -2.3979  3.1562 -0.4933
  263MOL0     H35500   1.211   9.118   0.303 -1.3735  1.0122 -1.4997
  263MOL0     H35501   0.924   9.396   0.347 -0.1429  0.3503  0.4854
  263MOL0     H35502   1.699   9.328   0.768  2.4377  3.1609  1.0683
  263MOL0     H35503   2.002   9.361   0.930 -1.3894 -1.3572  0.1582
  263MOL0     H35504   1.947   9.510   0.833 -3.1656  0.7514 -3.3630
  263MOL0     H35505   1.836   9.407   0.923  0.3916  3.4015  1.5507
  264MOL0     O35506   6.738   5.640   7.328 -0.4239  0.2857 -0.8056
  264MOL0     C35507   6.693   5.598   7.223  0.3966 -0.0404  0.2914
  264MOL0     O35508   6.768   5.574   7.106 -0.1851  0.7682 -0.2157
  264MOL0     C35509   6.906   5.596   7.110 -0.2631  0.0148  0.6342
  264MOL0     C35510   6.983   5.486   7.081 -0.0512 -0.3702  0.3037
  264MOL0     C35511   7.122   5.495   7.081 -0.0059  0.1057  0.2663
  264MOL0     C35512   7.180   5.630   7.094 -0.1585 -0.2643  0.1881
  264MOL0     O35513   7.316   5.657   7.092 -0.4591 -0.0920  0.0075
  264MOL0     C35514   7.405   5.542   7.089  0.2039  0.4866 -0.2442
  264MOL0     C35515   7.552   5.574   7.076  0.3321 -0.3855 -0.1652
  264MOL0     C35516   7.626   5.448   7.107 -0.0197 -0.3677  0.7784
  264MOL0     C35517   7.758   5.491   7.164  0.1131 -0.3194 -0.4849
  264MOL0     C35518   7.859   5.382   7.143  0.2218 -1.1929 -0.5264
  264MOL0     C35519   8.003   5.419   7.194  0.1952 -0.4392 -0.8821
  264MOL0     C35520   8.097   5.301   7.158 -0.8832  0.9041 -0.3357
  264MOL0     C35521   8.238   5.324   7.224 -0.0182  1.4881  0.3295
  264MOL0     N35522   8.345   5.235   7.176  0.2118 -0.6173  0.6324
  264MOL0     C35523   8.346   5.100   7.180  0.6776 -0.5601 -0.6431
  264MOL0     C35524   8.464   5.051   7.129  0.5841  0.4655  0.8954
  264MOL0     C35525   8.505   4.909   7.112  0.1426 -0.9301  0.4890
  264MOL0     C35526   8.434   4.837   7.002 -0.0617 -0.3009 -0.2005
  264MOL0     C35527   8.473   4.893   6.870  0.6372  0.0820 -0.3021
  264MOL0     C35528   8.622   4.893   6.833 -0.3356  0.0152  0.6891
  264MOL0     O35529   8.638   4.914   6.692  0.1653 -0.9513 -0.2836
  264MOL0     C35530   8.756   4.960   6.647  1.0907 -0.5224  0.0114
  264MOL0     C35531   8.853   5.025   6.731 -0.7460 -0.7060 -0.3253
  264MOL0     C35532   8.983   5.061   6.680 -0.3697  0.3790 -0.3612
  264MOL0     C35533   9.025   5.024   6.557  0.6418  0.3124  0.2292
  264MOL0     C35534   9.158   5.052   6.503  0.1737 -0.1353  0.0635
  264MOL0     O35535   9.187   5.026   6.379 -0.4359 -1.0456 -0.2593
  264MOL0     C35536   9.312   5.041   6.323  0.2117 -0.4505  0.2356
  264MOL0     C35537   9.436   5.035   6.389  0.8631 -1.0744 -1.1522
  264MOL0     C35538   9.546   5.058   6.319 -0.4938 -0.9759  0.6224
  264MOL0     C35539   9.551   5.090   6.186 -0.3287  0.6501  0.5027
  264MOL0     O35540   9.674   5.098   6.124  0.1951  0.3366  0.4267
  264MOL0     C35541   9.680   5.040   5.994  0.3451 -0.3856 -0.5711
  264MOL0     C35542   9.823   5.004   5.951 -0.0935  0.2908 -0.3430
  264MOL0     C35543   9.908   5.132   5.939  0.5490 -0.0529 -0.0193
  264MOL0     C35544  10.059   5.100   5.912  0.5264  0.1091 -0.4567
  264MOL0     C35545  10.133   5.228   5.884 -0.3620 -0.9502 -0.6947
  264MOL0     C35546  10.286   5.220   5.907 -0.6699 -0.4231 -0.4308
  264MOL0     C35547  10.346   5.350   5.846 -0.0525  0.1878  0.2527
  264MOL0     C35548  10.493   5.374   5.867 -0.4638  0.8157 -1.1438
  264MOL0    Cl35549  10.552   5.537   5.821  0.1278  0.0719  0.1800
  264MOL0     C35550   9.428   5.094   6.119 -0.1926  0.4250  0.3237
  264MOL0     C35551   9.311   5.062   6.186 -0.5893 -0.2186 -0.4065
  264MOL0     O35552   9.230   5.108   6.579  0.1161 -0.1066  0.4330
  264MOL0     C35553   8.931   4.962   6.476 -0.3134 -0.6478 -0.0808
  264MOL0     C35554   8.801   4.928   6.522  0.1546  0.8595  0.4840
  264MOL0     N35555   8.537   5.162   7.085  0.0146  0.8145 -0.6645
  264MOL0     N35556   8.469   5.267   7.127 -0.1734  0.0606  0.3158
  264MOL0     C35557   7.097   5.745   7.116 -0.6276 -0.7929  0.2919
  264MOL0     C35558   6.961   5.728   7.123  0.4290  0.4436 -0.5568
  264MOL0     C35559   6.549   5.576   7.219  1.1457 -0.1073 -0.2966
  264MOL0     C35560   6.463   5.672   7.266  0.5229  0.1199  0.1161
  264MOL0     C35561   6.323   5.662   7.254  0.0780 -0.8601  0.5946
  264MOL0     C35562   6.262   5.557   7.182 -0.3850 -0.1068 -0.9460
  264MOL0     O35563   6.135   5.536   7.163 -0.6239  0.2960 -0.3673
  264MOL0     C35564   6.032   5.637   7.185  0.4928  0.4447  0.4268
  264MOL0     C35565   5.981   5.616   7.333  0.8369 -0.2573 -0.5241
  264MOL0     C35566   5.840   5.677   7.342 -0.2999 -1.1296 -0.1402
  264MOL0     C35567   5.774   5.652   7.482 -0.1673 -0.4776  0.5444
  264MOL0     C35568   5.659   5.738   7.493  0.0820  0.3386 -0.0125
  264MOL0     C35569   5.541   5.778   7.506  0.8236  0.7591 -0.5553
  264MOL0     C35570   6.349   5.461   7.134  0.0710  0.3824 -0.0277
  264MOL0     C35571   6.488   5.471   7.154  0.2947  0.2057  0.1116
  264MOL0     C35572   6.565   5.358   7.109  0.3663  0.6667 -0.1425
  264MOL0     H35573   6.936   5.390   7.060  1.0197 -1.0714  1.0291
  264MOL0     H35574   7.179   5.403   7.072  3.7570  2.1544  1.1921
  264MOL0     H35575   7.392   5.474   7.174  0.6469  3.1214  2.0751
  264MOL0     H35576   7.376   5.492   6.996  0.1307  1.5645 -0.8193
  264MOL0     H35577   7.578   5.654   7.147  5.1024 -3.5132  2.1261
  264MOL0     H35578   7.574   5.608   6.975 -2.5362  1.0858 -0.4167
  264MOL0     H35579   7.643   5.397   7.011  2.0405  0.6940  0.5369
  264MOL0     H35580   7.573   5.393   7.185 -0.8435 -1.3747 -0.4353
  264MOL0     H35581   7.794   5.584   7.117 -3.5506  1.8503  0.5548
  264MOL0     H35582   7.741   5.516   7.269 -0.3576 -1.4191 -0.2867
  264MOL0     H35583   7.829   5.298   7.205  0.5812 -1.8279 -1.2035
  264MOL0     H35584   7.858   5.368   7.035  1.6732 -0.7466 -0.6182
  264MOL0     H35585   8.044   5.501   7.135 -3.3486  0.9891 -1.5671
  264MOL0     H35586   7.997   5.442   7.301 -3.0836 -1.9183 -0.6307
  264MOL0     H35587   8.100   5.286   7.050  4.8214 -2.6812 -0.0952
  264MOL0     H35588   8.070   5.202   7.196 -0.5054  0.5254 -1.0399
  264MOL0     H35589   8.275   5.426   7.208  1.3131  0.6154 -2.7951
  264MOL0     H35590   8.227   5.286   7.326 -1.7948  0.1702 -0.3061
  264MOL0     H35591   8.265   5.034   7.211  1.0153  0.7178  3.5395
  264MOL0     H35592   8.612   4.887   7.111  0.6731  1.4219 -0.9213
  264MOL0     H35593   8.471   4.863   7.205 -2.9777  1.0219  0.4366
  264MOL0     H35594   8.458   4.731   7.009 -1.0095 -0.4221  2.4712
  264MOL0     H35595   8.325   4.843   7.010  0.0286  1.1959  0.2830
  264MOL0     H35596   8.414   4.984   6.855  0.8973  0.1771 -0.8023
  264MOL0     H35597   8.431   4.837   6.785  0.7227  3.2769 -2.6447
  264MOL0     H35598   8.673   4.798   6.854  2.7560  1.0348 -1.4759
  264MOL0     H35599   8.671   4.972   6.891  5.2055 -1.7518 -0.9424
  264MOL0     H35600   8.844   5.048   6.836  2.2239  1.9760 -0.4840
  264MOL0     H35601   9.046   5.125   6.742 -2.7054  1.3269  1.1519
  264MOL0     H35602   9.446   5.020   6.496  0.1126  1.5073 -0.6475
  264MOL0     H35603   9.642   5.049   6.369  1.1733 -1.3277 -2.3945
  264MOL0     H35604   9.613   4.954   5.986  1.8947 -1.5637 -1.5043
  264MOL0     H35605   9.634   5.113   5.927 -1.6861  0.0381  1.1652
  264MOL0     H35606   9.865   4.934   6.024 -3.5198 -2.0067 -0.3230
  264MOL0     H35607   9.828   4.954   5.854  2.2046  0.4530 -0.3616
  264MOL0     H35608   9.849   5.187   5.865 -1.5128 -0.9967  0.8717
  264MOL0     H35609   9.903   5.189   6.032 -0.2206 -0.1573  0.0068
  264MOL0     H35610  10.070   5.025   5.833 -0.6059 -0.3015 -0.2358
  264MOL0     H35611  10.100   5.051   6.001 -2.9635 -0.9064  0.7645
  264MOL0     H35612  10.097   5.303   5.954  0.2753 -3.8091  2.9929
  264MOL0     H35613  10.117   5.267   5.783  0.0281  3.2622  0.6753
  264MOL0     H35614  10.307   5.208   6.014 -0.1381  1.6433 -0.2462
  264MOL0     H35615  10.313   5.135   5.844  1.1012  0.5754 -1.0964
  264MOL0     H35616  10.289   5.436   5.885  0.4845  0.6462  0.0382
  264MOL0     H35617  10.328   5.352   5.738  0.3408 -2.2154  0.0908
  264MOL0     H35618  10.527   5.353   5.969 -1.7894 -1.9327 -1.1746
  264MOL0     H35619  10.535   5.306   5.793 -1.0097 -0.8565  0.0110
  264MOL0     H35620   9.421   5.095   6.011 -0.0240 -0.3766  0.3051
  264MOL0     H35621   9.223   5.051   6.124 -1.8352  2.8490  0.6415
  264MOL0     H35622   8.948   4.945   6.370 -2.4854  0.0802 -0.5863
  264MOL0     H35623   8.734   4.882   6.450  0.0642 -0.5436  1.4364
  264MOL0     H35624   7.147   5.839   7.136  0.4011 -0.9600 -1.3009
  264MOL0     H35625   6.903   5.819   7.115  0.8250  0.5728 -2.9522
  264MOL0     H35626   6.501   5.760   7.317  0.3631  0.2609 -0.0092
  264MOL0     H35627   6.259   5.739   7.297  1.8497  0.6255  0.6657
  264MOL0     H35628   5.960   5.616   7.106  2.2155  1.2365 -1.4365
  264MOL0     H35629   6.072   5.735   7.160 -1.1388  1.4794  1.6723
  264MOL0     H35630   6.046   5.671   7.402  0.0354  0.2418 -0.1480
  264MOL0     H35631   5.988   5.513   7.368 -0.4554  0.1905  1.1499
  264MOL0     H35632   5.780   5.627   7.266  0.9217  1.1850 -2.7977
  264MOL0     H35633   5.840   5.783   7.316  4.5256 -1.0165 -0.5357
  264MOL0     H35634   5.740   5.548   7.483 -2.2777  0.1045 -1.4723
  264MOL0     H35635   5.849   5.675   7.557  0.2861  0.0836 -0.0738
  264MOL0     H35636   5.438   5.808   7.512 -0.2413 -1.9013 -3.0218
  264MOL0     H35637   6.301   5.368   7.104 -1.1964  0.7307  0.8466
  264MOL0     H35638   6.505   5.268   7.127  2.3230 -1.0462 -1.5603
  264MOL0     H35639   6.596   5.366   7.004  3.1376  0.8746  0.5972
  264MOL0     H35640   6.666   5.359   7.152 -0.0810 -2.8900  1.3638
  265MOL0     O35641   7.523   3.570   5.278  0.6435 -1.2877  0.3123
  265MOL0     C35642   7.516   3.695   5.263  0.7227 -0.8815  0.9968
  265MOL0     O35643   7.604   3.774   5.203 -0.3218  0.9100  0.2097
  265MOL0     C35644   7.716   3.713   5.150 -0.0360  0.1633  0.3869
  265MOL0     C35645   7.738   3.747   5.021 -0.5391 -0.1499  0.8916
  265MOL0     C35646   7.858   3.702   4.956  0.3345 -0.0994 -0.1728
  265MOL0     C35647   7.945   3.616   5.030  0.3543  0.6096  0.9537
  265MOL0     O35648   8.063   3.568   4.972  0.0472  0.2936  0.8620
  265MOL0     C35649   8.122   3.641   4.865 -0.5653  0.5752 -0.1159
  265MOL0     C35650   8.254   3.561   4.822 -0.0502  0.6694  0.5747
  265MOL0     C35651   8.358   3.578   4.934 -1.0364  0.5288 -0.2799
  265MOL0     C35652   8.491   3.516   4.882 -0.1596 -0.1047  0.4135
  265MOL0     C35653   8.588   3.497   5.008 -0.1139  0.3264  0.1578
  265MOL0     C35654   8.661   3.624   5.030 -0.1184  0.0419 -0.1938
  265MOL0     C35655   8.802   3.616   4.981 -0.1066 -0.3222 -0.6736
  265MOL0     C35656   8.882   3.741   4.985 -0.5699 -0.8838 -0.0301
  265MOL0     N35657   9.029   3.728   4.972 -0.1794 -0.4854 -0.0858
  265MOL0     C35658   9.110   3.659   5.056 -0.4023 -0.2344 -0.4975
  265MOL0     C35659   9.235   3.665   4.991 -0.2436 -0.2706  0.2826
  265MOL0     C35660   9.377   3.635   5.055  0.6070  0.5208  0.8116
  265MOL0     C35661   9.455   3.767   5.104  0.4041  0.3875  0.1681
  265MOL0     C35662   9.370   3.843   5.203  0.2044  0.3435 -0.0606
  265MOL0     C35663   9.352   3.779   5.341 -0.2601  0.0779 -0.3153
  265MOL0     O35664   9.463   3.795   5.420  0.4745 -0.4993  0.0969
  265MOL0     C35665   9.526   3.680   5.446  0.2789 -0.0563  0.0556
  265MOL0     C35666   9.668   3.687   5.448 -0.8995  0.1105 -0.1240
  265MOL0     C35667   9.754   3.579   5.479  0.5980 -0.1127 -0.5630
  265MOL0     C35668   9.687   3.466   5.517  0.1940  0.0681  0.1032
  265MOL0     C35669   9.765   3.340   5.558  0.6581  0.1310 -0.2863
  265MOL0     O35670   9.899   3.367   5.584  0.5799  0.7521 -0.8581
  265MOL0     C35671   9.987   3.260   5.602 -0.0261 -1.3072 -0.4411
  265MOL0     C35672  10.020   3.206   5.726 -0.4129 -0.7347  0.4999
  265MOL0     C35673  10.122   3.101   5.733 -0.4335  0.5571  0.5036
  265MOL0     C35674  10.176   3.052   5.609 -0.6696 -0.2237 -0.8007
  265MOL0     O35675  10.260   2.939   5.611  0.5243 -0.2834  0.0019
  265MOL0     C35676  10.334   2.902   5.489  0.1589 -0.2040 -0.3524
  265MOL0     C35677  10.479   2.949   5.506 -0.2188 -0.7727  0.1963
  265MOL0     C35678  10.545   2.856   5.609 -0.4397 -0.1325 -0.0619
  265MOL0     C35679  10.694   2.884   5.621  0.5059 -0.0403  0.1087
  265MOL0     C35680  10.753   2.814   5.734  0.9532  0.5249 -0.7730
  265MOL0     C35681  10.751   2.654   5.715  0.9677  0.1561 -0.1676
  265MOL0     C35682  10.836   2.579   5.830  0.4774 -0.2701  0.3746
  265MOL0     C35683  10.976   2.529   5.793 -0.0551 -0.3937  0.3349
  265MOL0    Cl35684  11.056   2.466   5.944  0.1196 -0.4325 -0.0875
  265MOL0     C35685  10.137   3.117   5.487 -0.2250 -0.4863 -0.1300
  265MOL0     C35686  10.048   3.227   5.484  0.0040 -0.9669  0.7531
  265MOL0     O35687   9.712   3.230   5.571  0.7180 -0.1976  0.3232
  265MOL0     C35688   9.545   3.459   5.523  1.5900 -0.0214 -0.1384
  265MOL0     C35689   9.460   3.563   5.486  0.7968 -0.5122  1.2336
  265MOL0     N35690   9.222   3.743   4.875 -0.4142 -0.4537  0.1363
  265MOL0     N35691   9.099   3.773   4.865 -0.3795  1.0138  0.7545
  265MOL0     C35692   7.926   3.590   5.170  0.0055 -0.0350 -0.1696
  265MOL0     C35693   7.807   3.641   5.229 -0.4202  1.0154  0.2868
  265MOL0     C35694   7.404   3.777   5.321 -0.1030  0.2817 -0.2345
  265MOL0     C35695   7.396   3.916   5.291 -0.0648 -0.1347 -0.3119
  265MOL0     C35696   7.294   3.988   5.348  0.0043 -0.0828  0.2385
  265MOL0     C35697   7.187   3.937   5.417 -0.0366 -0.1429 -0.0519
  265MOL0     O35698   7.084   4.005   5.464 -0.4219  0.3476 -0.1006
  265MOL0     C35699   7.069   4.134   5.416 -0.3776 -0.4076 -0.8540
  265MOL0     C35700   6.931   4.204   5.440 -0.2584 -0.0750 -0.0496
  265MOL0     C35701   6.863   4.219   5.578 -0.1081  0.1029 -0.1662
  265MOL0     C35702   6.771   4.334   5.594 -0.2578  0.9524  0.0855
  265MOL0     C35703   6.662   4.318   5.692 -0.2524 -0.2113 -0.4386
  265MOL0     C35704   6.574   4.274   5.769 -0.5677  0.0728 -0.7106
  265MOL0     C35705   7.210   3.807   5.459  0.0525 -0.1716  0.4924
  265MOL0     C35706   7.304   3.720   5.403 -0.3150 -0.9352 -0.2439
  265MOL0     C35707   7.291   3.580   5.445 -0.5506 -0.6734 -0.7764
  265MOL0     H35708   7.672   3.807   4.959 -1.6466 -4.4025 -2.5839
  265MOL0     H35709   7.873   3.720   4.850  2.2020 -4.2668 -0.7945
  265MOL0     H35710   8.053   3.639   4.780  1.1747  0.6737 -1.5945
  265MOL0     H35711   8.148   3.741   4.899 -0.0577  0.3933  0.0315
  265MOL0     H35712   8.285   3.604   4.727 -0.5543  0.1323  0.1573
  265MOL0     H35713   8.222   3.458   4.800  0.7660  0.2311  1.3860
  265MOL0     H35714   8.335   3.527   5.028  3.4650  0.1764  0.8766
  265MOL0     H35715   8.372   3.685   4.955  0.8454 -0.0365  1.7310
  265MOL0     H35716   8.471   3.422   4.831 -0.7721 -0.5704  1.4742
  265MOL0     H35717   8.540   3.586   4.814 -0.2386  1.1225  1.5780
  265MOL0     H35718   8.545   3.475   5.106  1.3394  0.0155  0.7540
  265MOL0     H35719   8.656   3.415   4.983 -1.3236  0.2382 -3.4081
  265MOL0     H35720   8.603   3.712   4.999 -0.8782 -0.7044 -0.9561
  265MOL0     H35721   8.673   3.630   5.139 -0.7734 -0.0059 -0.1113
  265MOL0     H35722   8.809   3.565   4.884 -0.3448 -3.6719  0.9011
  265MOL0     H35723   8.842   3.540   5.049 -3.1426 -2.3794 -0.9865
  265MOL0     H35724   8.840   3.804   4.906 -0.8166  3.6360  3.2991
  265MOL0     H35725   8.873   3.789   5.083  3.3971  0.7477 -0.2669
  265MOL0     H35726   9.092   3.614   5.153 -1.0912 -2.0781 -1.4172
  265MOL0     H35727   9.365   3.562   5.135  1.6901 -0.0148  0.5015
  265MOL0     H35728   9.445   3.590   4.981  0.6017 -0.4224  1.3586
  265MOL0     H35729   9.558   3.738   5.130  0.2763 -0.5719 -0.3448
  265MOL0     H35730   9.470   3.831   5.017  2.5991  0.3546  0.4549
  265MOL0     H35731   9.272   3.867   5.160 -0.6067 -0.8350  1.0276
  265MOL0     H35732   9.426   3.934   5.223  1.7749 -0.8477  1.1946
  265MOL0     H35733   9.323   3.676   5.318 -1.6958  0.1439  1.0232
  265MOL0     H35734   9.263   3.821   5.388 -2.1990 -1.0342 -2.7640
  265MOL0     H35735   9.709   3.778   5.406 -1.6871 -0.2868 -1.8310
  265MOL0     H35736   9.862   3.593   5.473  0.7593 -0.4824  1.0561
  265MOL0     H35737   9.967   3.242   5.813 -1.9829  1.4104 -1.2220
  265MOL0     H35738  10.156   3.055   5.825 -2.5771 -2.2882  0.0207
  265MOL0     H35739  10.329   2.793   5.496 -0.5103 -0.2429 -1.2678
  265MOL0     H35740  10.290   2.915   5.389  0.5115 -3.4757 -1.0437
  265MOL0     H35741  10.529   2.937   5.409  0.5659  2.1586  0.1467
  265MOL0     H35742  10.500   3.052   5.536  2.4214 -2.2338  4.1461
  265MOL0     H35743  10.495   2.873   5.704 -2.3122  4.3912 -1.5870
  265MOL0     H35744  10.517   2.758   5.570 -1.3021 -0.5074  1.4379
  265MOL0     H35745  10.716   2.987   5.649  0.9770 -1.2241  5.1129
  265MOL0     H35746  10.747   2.863   5.528  0.7583 -1.1924  0.4982
  265MOL0     H35747  10.707   2.833   5.832  1.5368 -1.3810 -0.0675
  265MOL0     H35748  10.857   2.840   5.755  0.7288  1.3546 -0.6555
  265MOL0     H35749  10.647   2.618   5.718  0.6229  0.6049 -3.4367
  265MOL0     H35750  10.790   2.643   5.614  2.5633  2.1979  0.1431
  265MOL0     H35751  10.773   2.498   5.868 -1.2161 -0.4564 -2.4852
  265MOL0     H35752  10.857   2.652   5.909  4.3776 -0.3142 -0.4431
  265MOL0     H35753  10.975   2.448   5.719  1.3125  1.8853 -2.3409
  265MOL0     H35754  11.023   2.621   5.758 -2.0305  1.7664  2.8909
  265MOL0     H35755  10.180   3.091   5.390  3.3823  2.8079  0.3199
  265MOL0     H35756  10.013   3.265   5.388 -0.5475  0.6982  1.5801
  265MOL0     H35757   9.499   3.367   5.560  0.7936  0.1226 -0.7413
  265MOL0     H35758   9.353   3.547   5.495  0.6065 -0.2157 -0.1888
  265MOL0     H35759   7.998   3.523   5.217 -1.4898 -1.4026  0.2664
  265MOL0     H35760   7.773   3.620   5.330 -3.7648  0.2176 -0.8800
  265MOL0     H35761   7.473   3.954   5.224  1.8587 -3.7357 -0.4080
  265MOL0     H35762   7.288   4.092   5.316  1.3165 -0.4345 -1.3102
  265MOL0     H35763   7.091   4.144   5.310 -1.4817 -0.2553 -1.0875
  265MOL0     H35764   7.142   4.185   5.480 -0.7634 -1.1887  0.2387
  265MOL0     H35765   6.872   4.143   5.371 -0.1531  0.5150 -0.6736
  265MOL0     H35766   6.948   4.297   5.385 -3.3368 -0.1477 -1.3297
  265MOL0     H35767   6.928   4.240   5.663  1.0244 -2.6339 -0.2427
  265MOL0     H35768   6.812   4.125   5.601 -0.5904  0.7179  1.4292
  265MOL0     H35769   6.814   4.432   5.618 -0.4612  1.3850 -1.2086
  265MOL0     H35770   6.722   4.338   5.496 -0.3622 -2.3988 -0.1169
  265MOL0     H35771   6.503   4.239   5.841  2.5594  1.1920  3.2990
  265MOL0     H35772   7.137   3.761   5.524  0.7188 -1.7526  0.1749
  265MOL0     H35773   7.280   3.525   5.351  2.0048 -1.7580 -0.5224
  265MOL0     H35774   7.383   3.543   5.491 -0.8874  2.0068  2.3909
  265MOL0     H35775   7.204   3.549   5.504  1.0364 -0.3472  1.9144
  266MOL0     O35776   2.908   9.816   7.931 -0.7438 -0.8846 -0.6796
  266MOL0     C35777   2.887   9.718   7.856 -0.6244 -0.6287  0.5082
  266MOL0     O35778   2.983   9.665   7.781 -0.1329 -0.1696  0.1615
  266MOL0     C35779   3.123   9.677   7.803  0.0152 -1.0094 -0.3679
  266MOL0     C35780   3.193   9.667   7.925  0.1892  0.1474 -0.1267
  266MOL0     C35781   3.328   9.668   7.921 -0.4800 -0.2942  0.4078
  266MOL0     C35782   3.409   9.670   7.806 -1.1140 -0.4530 -0.8119
  266MOL0     O35783   3.546   9.661   7.809 -0.0907  0.4728 -0.3790
  266MOL0     C35784   3.623   9.688   7.697  0.4988  0.8780  0.7015
  266MOL0     C35785   3.766   9.638   7.718 -1.0198  0.4846 -0.9956
  266MOL0     C35786   3.847   9.717   7.824  0.6484  0.2812 -0.6376
  266MOL0     C35787   3.994   9.673   7.831 -0.2509 -0.0789 -0.6865
  266MOL0     C35788   4.071   9.759   7.939  0.4003  0.7245 -1.0930
  266MOL0     C35789   4.212   9.698   7.954  0.1304 -0.0518 -0.1841
  266MOL0     C35790   4.323   9.767   8.036 -0.5866 -1.3581 -0.5718
  266MOL0     C35791   4.361   9.884   7.949  0.3134 -0.5604  0.7744
  266MOL0     N35792   4.435   9.985   8.032 -0.4141  0.8833  0.3533
  266MOL0     C35793   4.516   9.950   8.138  0.6803 -0.0382 -0.0182
  266MOL0     C35794   4.555  10.075   8.177  0.1498 -0.1935  0.2699
  266MOL0     C35795   4.655  10.103   8.294 -0.4665 -1.2495 -0.8609
  266MOL0     C35796   4.589  10.144   8.427 -0.4804  1.1131  0.3764
  266MOL0     C35797   4.679  10.232   8.514 -0.6344  0.2101  0.1208
  266MOL0     C35798   4.687  10.373   8.463 -0.1434 -0.6525 -0.1127
  266MOL0     O35799   4.745  10.461   8.556 -0.3233 -0.5806 -0.1354
  266MOL0     C35800   4.875  10.500   8.554  0.0621 -0.5643 -0.4366
  266MOL0     C35801   4.967  10.466   8.447  0.8721  0.0457 -0.1546
  266MOL0     C35802   5.100  10.522   8.445  0.3447  0.7457  0.4629
  266MOL0     C35803   5.141  10.610   8.545  0.2614 -0.0126 -0.4091
  266MOL0     C35804   5.267  10.688   8.537 -0.0343 -0.1483 -0.5285
  266MOL0     O35805   5.301  10.771   8.644  0.2254  0.2868 -0.4210
  266MOL0     C35806   5.381  10.877   8.616  0.0590 -0.0124  0.2333
  266MOL0     C35807   5.339  11.001   8.666 -0.0101  0.3821 -0.2304
  266MOL0     C35808   5.442  11.106   8.661 -0.1649 -0.9120  0.2936
  266MOL0     C35809   5.573  11.087   8.620  0.6896  0.0676  0.3495
  266MOL0     O35810   5.672  11.179   8.631 -0.1758  0.5995  0.1612
  266MOL0     C35811   5.801  11.151   8.582  0.3351 -0.2549 -0.0496
  266MOL0     C35812   5.885  11.068   8.670 -0.6964 -0.4197  0.2232
  266MOL0     C35813   6.026  11.060   8.596  0.8116 -0.0544 -0.1582
  266MOL0     C35814   6.133  10.993   8.681  0.3026  0.3193  0.0344
  266MOL0     C35815   6.258  10.958   8.597  1.0146  0.0004  0.1457
  266MOL0     C35816   6.353  10.876   8.674 -1.0603 -0.3025 -0.7338
  266MOL0     C35817   6.418  10.962   8.792  0.5135  0.2192 -0.5461
  266MOL0     C35818   6.519  10.881   8.883 -0.4783  0.3351 -0.4549
  266MOL0    Cl35819   6.606  10.993   8.997  0.3949 -0.2450  0.4199
  266MOL0     C35820   5.596  10.955   8.579  0.2853  0.8669  0.3564
  266MOL0     C35821   5.503  10.858   8.575 -0.0166  0.0052  0.1945
  266MOL0     O35822   5.326  10.692   8.434  0.0807 -0.4172  0.1893
  266MOL0     C35823   5.051  10.638   8.647  0.6112 -0.0133 -0.4016
  266MOL0     C35824   4.925  10.580   8.657 -0.1069 -0.8314 -1.0028
  266MOL0     N35825   4.503  10.178   8.100  0.0187  1.0590 -0.7022
  266MOL0     N35826   4.430  10.119   8.013  1.2760  0.5070  1.0201
  266MOL0     C35827   3.334   9.676   7.686 -0.5389  0.1242  0.7698
  266MOL0     C35828   3.198   9.692   7.694 -0.0247  0.4627  1.0535
  266MOL0     C35829   2.756   9.660   7.853 -0.2817  0.1416  0.2540
  266MOL0     C35830   2.652   9.713   7.940  1.3298  0.0084  0.3031
  266MOL0     C35831   2.522   9.661   7.939  0.6363 -0.3805  0.1584
  266MOL0     C35832   2.485   9.551   7.857 -0.1463  0.2004  0.2818
  266MOL0     O35833   2.359   9.503   7.871 -0.1698  0.1732  0.0377
  266MOL0     C35834   2.328   9.385   7.792  0.0037 -0.0832  0.2219
  266MOL0     C35835   2.189   9.331   7.814  0.3686 -0.0101  0.0884
  266MOL0     C35836   2.163   9.293   7.962 -0.3496 -0.5182  0.5420
  266MOL0     C35837   2.030   9.213   7.975 -0.5094 -0.2898 -0.4672
  266MOL0     C35838   2.053   9.068   7.937  0.2031 -0.1055 -1.0641
  266MOL0     C35839   2.057   8.955   7.898  0.2022 -0.4473  0.8997
  266MOL0     C35840   2.584   9.494   7.777  0.4060 -1.0561  1.7165
  266MOL0     C35841   2.718   9.548   7.772  0.4512 -0.2245  0.4768
  266MOL0     C35842   2.811   9.471   7.671  0.6212 -0.1201 -0.4835
  266MOL0     H35843   3.144   9.659   8.022  2.6527 -1.5590  1.0715
  266MOL0     H35844   3.385   9.664   8.013 -0.1330  0.4650  0.2375
  266MOL0     H35845   3.589   9.635   7.608  0.5847  3.2361 -0.8323
  266MOL0     H35846   3.628   9.796   7.677  2.2480  0.6652 -0.2058
  266MOL0     H35847   3.821   9.641   7.624 -0.9501  2.5798 -0.9354
  266MOL0     H35848   3.759   9.532   7.745 -1.7070  1.1521  1.8411
  266MOL0     H35849   3.796   9.721   7.920 -0.6710 -2.0585 -1.1684
  266MOL0     H35850   3.845   9.818   7.781 -3.8849 -0.4996 -2.7755
  266MOL0     H35851   3.998   9.566   7.856  0.3058  0.4030  1.5110
  266MOL0     H35852   4.041   9.689   7.734  3.0467 -2.0940  0.3795
  266MOL0     H35853   4.093   9.861   7.907  1.3052  0.7305 -0.4925
  266MOL0     H35854   4.021   9.757   8.037  1.1055 -0.4654 -0.7440
  266MOL0     H35855   4.190   9.606   8.008  1.9209  0.2411  1.1515
  266MOL0     H35856   4.252   9.684   7.854  1.3871 -1.0917  0.4256
  266MOL0     H35857   4.410   9.702   8.053 -0.9465 -1.4831  0.8656
  266MOL0     H35858   4.289   9.783   8.138  0.8400 -1.9422  0.0180
  266MOL0     H35859   4.424   9.852   7.866 -0.1022  1.0607 -0.2209
  266MOL0     H35860   4.275   9.936   7.904  0.8394 -0.9779 -0.7775
  266MOL0     H35861   4.542   9.855   8.182  1.3711  0.8018  1.4761
  266MOL0     H35862   4.709  10.011   8.317  1.3088  0.5706  3.3467
  266MOL0     H35863   4.730  10.179   8.271  0.5883 -1.7533  0.7444
  266MOL0     H35864   4.491  10.190   8.412 -1.5887 -1.4451 -0.8041
  266MOL0     H35865   4.572  10.047   8.474 -2.3931  2.3330  2.3458
  266MOL0     H35866   4.782  10.195   8.518  0.1561  1.7074 -2.8466
  266MOL0     H35867   4.645  10.222   8.617  1.9019 -1.9336  0.8674
  266MOL0     H35868   4.586  10.411   8.445  0.0082  0.2961  0.9208
  266MOL0     H35869   4.731  10.399   8.367 -0.6612  0.5982 -0.0336
  266MOL0     H35870   4.938  10.388   8.376  3.5220 -1.9280  0.7682
  266MOL0     H35871   5.168  10.491   8.366 -0.7839 -0.8041  0.0689
  266MOL0     H35872   5.235  11.014   8.693  0.0606 -0.2970  0.4039
  266MOL0     H35873   5.408  11.200   8.704 -0.3386 -1.0558  0.4772
  266MOL0     H35874   5.800  11.111   8.480  2.2730 -2.1348  0.5980
  266MOL0     H35875   5.845  11.249   8.559 -0.0032 -0.2731 -0.8037
  266MOL0     H35876   5.898  11.108   8.771  0.2023 -3.0028  1.2317
  266MOL0     H35877   5.845  10.966   8.678 -0.8505 -0.2848  1.2919
  266MOL0     H35878   6.007  11.006   8.504 -0.8582  1.1437 -0.5614
  266MOL0     H35879   6.052  11.163   8.570 -0.1412  0.3879  0.5608
  266MOL0     H35880   6.091  10.904   8.728  0.7527 -0.4143 -0.9174
  266MOL0     H35881   6.148  11.068   8.759 -1.1743 -0.1749  0.8355
  266MOL0     H35882   6.303  11.048   8.555  1.0117 -0.4436 -0.8397
  266MOL0     H35883   6.229  10.897   8.510  3.0072  0.0647 -0.6084
  266MOL0     H35884   6.302  10.785   8.708 -3.1244  1.3665  0.9402
  266MOL0     H35885   6.438  10.848   8.611 -1.5647 -1.6468 -0.8636
  266MOL0     H35886   6.339  11.004   8.856 -1.0101  0.1410 -2.2827
  266MOL0     H35887   6.468  11.045   8.743  0.9146 -0.6095 -1.5732
  266MOL0     H35888   6.477  10.795   8.937  2.8726 -2.8403 -2.4496
  266MOL0     H35889   6.596  10.837   8.819  1.7707  4.8504 -1.2418
  266MOL0     H35890   5.691  10.914   8.548  0.0194 -0.8227  1.6270
  266MOL0     H35891   5.533  10.760   8.539  1.9749  1.7357 -3.4432
  266MOL0     H35892   5.079  10.704   8.729 -2.4017  0.4702  0.3940
  266MOL0     H35893   4.871  10.598   8.749 -0.7957  0.1353 -1.5756
  266MOL0     H35894   3.382   9.687   7.590 -0.4888  0.0253  0.7830
  266MOL0     H35895   3.151   9.718   7.599 -0.2490  2.7460  1.7463
  266MOL0     H35896   2.667   9.799   8.004 -1.6057  1.0243 -0.2255
  266MOL0     H35897   2.447   9.708   8.001 -0.2447  0.6843 -1.6451
  266MOL0     H35898   2.404   9.310   7.815  2.7495  1.0221 -4.1332
  266MOL0     H35899   2.326   9.406   7.685 -0.4161 -2.5945 -0.3150
  266MOL0     H35900   2.178   9.247   7.745 -0.6115  1.1069 -1.1666
  266MOL0     H35901   2.122   9.408   7.775  1.9863 -0.3724 -3.8189
  266MOL0     H35902   2.147   9.391   8.009  0.1810 -0.5837  0.8574
  266MOL0     H35903   2.233   9.223   8.007 -0.8732 -1.7470 -0.5037
  266MOL0     H35904   2.020   9.210   8.084  2.9376 -2.3313 -0.0663
  266MOL0     H35905   1.951   9.258   7.915  0.4720 -2.4856 -3.6504
  266MOL0     H35906   2.040   8.866   7.840  0.7912 -0.9001  1.4045
  266MOL0     H35907   2.553   9.412   7.713 -0.3407  0.7601 -0.3423
  266MOL0     H35908   2.745   9.409   7.609 -3.3469  0.9008  2.3009
  266MOL0     H35909   2.858   9.547   7.609  0.0456  0.3723 -0.3295
  266MOL0     H35910   2.884   9.411   7.727  0.8544 -0.8274 -1.5229
  267MOL0     O35911   2.144   6.208   8.126 -0.0907 -0.3807 -0.3856
  267MOL0     C35912   2.189   6.133   8.212  0.0968  0.9276 -0.0035
  267MOL0     O35913   2.238   6.169   8.336  0.0043 -0.1169 -1.0124
  267MOL0     C35914   2.255   6.302   8.356  0.5028  0.5745 -0.1154
  267MOL0     C35915   2.200   6.357   8.474  0.2711 -0.3315 -0.2795
  267MOL0     C35916   2.221   6.480   8.520 -0.8659 -0.6831 -0.1876
  267MOL0     C35917   2.280   6.575   8.435 -0.1818 -0.7361  0.8357
  267MOL0     O35918   2.282   6.702   8.472 -0.1238  0.7059  0.2599
  267MOL0     C35919   2.238   6.803   8.380 -0.1312  0.6364 -0.6033
  267MOL0     C35920   2.087   6.776   8.343 -0.0756 -0.6847  0.0532
  267MOL0     C35921   1.981   6.838   8.443  0.4615  0.4316 -0.5672
  267MOL0     C35922   1.978   6.772   8.581  0.7045 -0.5736  0.6657
  267MOL0     C35923   1.846   6.804   8.652  0.9612  0.4443  0.3601
  267MOL0     C35924   1.809   6.952   8.651  0.1090  0.1260 -0.4611
  267MOL0     C35925   1.928   7.027   8.712 -0.3456  1.1292 -0.3069
  267MOL0     C35926   1.900   7.165   8.768 -1.2059 -0.7484 -0.1630
  267MOL0     N35927   1.980   7.186   8.890  0.4333  0.3447 -0.2350
  267MOL0     C35928   2.106   7.164   8.905 -0.0128  0.1326 -0.2148
  267MOL0     C35929   2.144   7.192   9.034  0.0126  0.0918 -0.4927
  267MOL0     C35930   2.280   7.187   9.104  0.1418  0.1935  0.8364
  267MOL0     C35931   2.320   7.312   9.181  0.2899  0.1255  0.1068
  267MOL0     C35932   2.434   7.273   9.282  0.6269 -0.2574 -0.0100
  267MOL0     C35933   2.575   7.267   9.222  0.3029  1.0460 -0.1674
  267MOL0     O35934   2.657   7.368   9.279  0.1323 -0.0615 -0.5138
  267MOL0     C35935   2.781   7.386   9.219 -0.2181  0.0277 -0.2371
  267MOL0     C35936   2.846   7.501   9.257  0.5214  0.0435  0.1486
  267MOL0     C35937   2.969   7.539   9.203  0.3797 -0.9770 -0.5801
  267MOL0     C35938   3.033   7.478   9.098 -0.6573  0.5670  0.1476
  267MOL0     C35939   3.171   7.515   9.064  0.5148  0.6308  0.0323
  267MOL0     O35940   3.248   7.602   9.146 -0.0068 -0.0140 -0.2229
  267MOL0     C35941   3.383   7.613   9.114  0.0021  0.2930  0.3782
  267MOL0     C35942   3.462   7.504   9.143  0.0957 -1.3790 -0.3083
  267MOL0     C35943   3.602   7.522   9.110  0.6310 -0.4468 -0.5702
  267MOL0     C35944   3.657   7.642   9.070 -0.1757 -0.5005 -0.3853
  267MOL0     O35945   3.787   7.674   9.038  0.3025 -0.1111 -0.8878
  267MOL0     C35946   3.880   7.582   9.104  0.6255 -0.6957 -0.2085
  267MOL0     C35947   4.021   7.631   9.101 -0.4929  0.3270 -0.1235
  267MOL0     C35948   4.045   7.754   9.183 -0.5672 -1.1377 -0.2318
  267MOL0     C35949   4.186   7.812   9.161 -0.1599  0.1049 -0.3004
  267MOL0     C35950   4.204   7.960   9.196 -0.0678  0.2748 -0.4446
  267MOL0     C35951   4.342   8.016   9.199  0.2353 -0.1138 -0.3073
  267MOL0     C35952   4.334   8.171   9.222 -0.2628  0.2894  0.1154
  267MOL0     C35953   4.458   8.219   9.306  0.4104 -0.1371 -0.4299
  267MOL0    Cl35954   4.440   8.171   9.488  0.2798 -0.0262  0.5126
  267MOL0     C35955   3.566   7.739   9.036  0.5529  0.4690  1.0360
  267MOL0     C35956   3.432   7.735   9.064 -0.6782  0.0410  0.5186
  267MOL0     O35957   3.213   7.461   8.962  0.5019 -0.0796  0.2771
  267MOL0     C35958   2.974   7.356   9.066  0.7184  0.2019  1.2519
  267MOL0     C35959   2.858   7.311   9.133  0.4050 -0.2494  0.9838
  267MOL0     N35960   2.035   7.243   9.098  0.5165 -0.2371  0.3438
  267MOL0     N35961   1.933   7.230   9.015 -0.0140  0.1850 -0.0345
  267MOL0     C35962   2.329   6.526   8.310 -0.3463 -0.3281  0.6527
  267MOL0     C35963   2.321   6.392   8.271  0.0223  0.3498 -0.2559
  267MOL0     C35964   2.192   5.991   8.194  0.0975  0.0008  0.5034
  267MOL0     C35965   2.304   5.920   8.241  0.0267  0.6113 -0.2825
  267MOL0     C35966   2.310   5.775   8.231 -0.0924  0.2751  0.6069
  267MOL0     C35967   2.211   5.704   8.172  0.0233  0.4239  0.1365
  267MOL0     O35968   2.219   5.564   8.160  0.1799 -0.1412 -0.5149
  267MOL0     C35969   2.137   5.504   8.056  0.2395 -0.0009 -0.7389
  267MOL0     C35970   2.203   5.356   8.037  0.0091  0.0606  0.4063
  267MOL0     C35971   2.102   5.270   7.950 -0.6680 -0.7162 -0.2247
  267MOL0     C35972   2.141   5.125   7.940 -1.1289 -0.0945  0.6667
  267MOL0     C35973   2.246   5.091   7.844 -0.5822  0.3624  0.1341
  267MOL0     C35974   2.335   5.062   7.760  0.1018 -0.2060 -1.1927
  267MOL0     C35975   2.105   5.774   8.118 -0.6209 -0.0921 -0.0278
  267MOL0     C35976   2.081   5.913   8.124 -0.1780  0.3510 -0.3365
  267MOL0     C35977   1.951   5.973   8.083  0.0736 -0.3634 -0.8920
  267MOL0     H35978   2.144   6.286   8.534 -2.2625  0.3384 -1.6958
  267MOL0     H35979   2.182   6.509   8.617  1.6901 -0.8847  0.9902
  267MOL0     H35980   2.236   6.897   8.436 -0.2875  0.4842 -0.3547
  267MOL0     H35981   2.301   6.794   8.291  0.6367  0.9662 -0.1115
  267MOL0     H35982   2.062   6.673   8.320 -0.3556 -0.3964 -1.0058
  267MOL0     H35983   2.081   6.827   8.247  1.7929  1.9023  1.1707
  267MOL0     H35984   1.879   6.848   8.406 -0.5455 -1.6711  1.3765
  267MOL0     H35985   2.009   6.943   8.462 -0.6456  1.0649 -2.2644
  267MOL0     H35986   1.985   6.663   8.569 -3.3784 -0.6729 -3.4019
  267MOL0     H35987   2.063   6.799   8.645  1.5290 -2.4555  0.4468
  267MOL0     H35988   1.762   6.758   8.599  0.2277 -1.5251  3.0254
  267MOL0     H35989   1.841   6.769   8.755 -1.9747  1.5172  0.6852
  267MOL0     H35990   1.801   6.990   8.549 -1.3980 -1.6852 -1.0787
  267MOL0     H35991   1.713   6.974   8.697 -0.4631 -0.8238 -1.1792
  267MOL0     H35992   2.007   7.036   8.637 -0.2301 -2.1035 -0.7404
  267MOL0     H35993   1.968   6.963   8.791 -1.6117  0.8070  0.0935
  267MOL0     H35994   1.927   7.243   8.696 -4.1908 -1.1781 -1.9206
  267MOL0     H35995   1.795   7.189   8.787 -1.4835 -1.8145 -0.2745
  267MOL0     H35996   2.171   7.113   8.835  3.6641  0.6144  2.5359
  267MOL0     H35997   2.293   7.093   9.159  1.7711 -0.7248 -0.9775
  267MOL0     H35998   2.347   7.176   9.018 -1.8067 -1.5475 -0.5647
  267MOL0     H35999   2.357   7.390   9.113 -0.8831  0.3000 -0.3652
  267MOL0     H36000   2.241   7.369   9.231 -0.0282  2.1845 -2.5253
  267MOL0     H36001   2.410   7.180   9.334  0.9759 -0.6341 -0.5112
  267MOL0     H36002   2.439   7.352   9.357  0.0191  0.1672 -0.4047
  267MOL0     H36003   2.578   7.279   9.114  1.2951 -2.3380 -0.6194
  267MOL0     H36004   2.607   7.163   9.236 -1.0551  0.8310  1.7680
  267MOL0     H36005   2.815   7.559   9.344 -0.7866 -2.2940  1.3246
  267MOL0     H36006   3.023   7.618   9.255  0.9053 -0.7895 -1.3968
  267MOL0     H36007   3.423   7.428   9.210 -0.5514  1.3113  2.6307
  267MOL0     H36008   3.664   7.437   9.140  2.8730  0.6606 -1.7963
  267MOL0     H36009   3.844   7.547   9.201 -2.3014 -1.9315 -1.6266
  267MOL0     H36010   3.881   7.492   9.043 -0.6676 -0.7180 -0.2089
  267MOL0     H36011   4.089   7.552   9.135 -0.7313  0.4541  0.6678
  267MOL0     H36012   4.027   7.659   8.995  0.8147  1.3886  0.1997
  267MOL0     H36013   3.971   7.833   9.168  0.8046 -0.2769 -3.2309
  267MOL0     H36014   4.045   7.715   9.285 -0.3235  1.6864  0.9165
  267MOL0     H36015   4.211   7.796   9.056 -2.7707 -0.6707 -0.8763
  267MOL0     H36016   4.259   7.748   9.213  3.4389  2.9357 -1.4082
  267MOL0     H36017   4.160   7.980   9.294  3.6243  0.5904  1.2988
  267MOL0     H36018   4.143   8.015   9.123 -0.5989 -0.7602 -0.8006
  267MOL0     H36019   4.406   7.971   9.276 -0.1862 -1.0657 -0.5051
  267MOL0     H36020   4.391   8.002   9.103  1.5055 -3.0334  0.6647
  267MOL0     H36021   4.244   8.212   9.269  0.6578  1.5073  0.8834
  267MOL0     H36022   4.326   8.214   9.121  0.1497  1.7094  0.6669
  267MOL0     H36023   4.549   8.170   9.273 -0.7264 -2.4500 -0.3070
  267MOL0     H36024   4.465   8.328   9.299 -2.7997  0.0444 -3.5499
  267MOL0     H36025   3.603   7.827   8.985  1.6452 -1.9176 -2.6649
  267MOL0     H36026   3.375   7.826   9.054  0.0784  0.6139  1.3103
  267MOL0     H36027   3.017   7.288   8.993 -1.0562  1.0257 -0.6763
  267MOL0     H36028   2.834   7.208   9.109  0.6034  0.3976 -2.4737
  267MOL0     H36029   2.379   6.590   8.238 -0.4704  1.5176  2.1503
  267MOL0     H36030   2.344   6.363   8.169 -2.1934  1.4914 -1.1641
  267MOL0     H36031   2.391   5.970   8.284  1.7026 -2.2336 -0.1287
  267MOL0     H36032   2.401   5.726   8.265 -1.0070 -0.9600  1.3689
  267MOL0     H36033   2.147   5.552   7.958  1.1093 -4.3465 -3.0350
  267MOL0     H36034   2.030   5.493   8.078  1.0170 -2.3858  2.6934
  267MOL0     H36035   2.216   5.313   8.137 -0.5559  0.2791  0.5819
  267MOL0     H36036   2.306   5.371   8.003 -0.3299 -0.0843 -0.7454
  267MOL0     H36037   2.100   5.311   7.848  0.5948  0.0413  0.0354
  267MOL0     H36038   2.003   5.270   7.996 -0.2016 -3.2083  0.8833
  267MOL0     H36039   2.186   5.101   8.037  2.7537 -1.1627 -1.2049
  267MOL0     H36040   2.047   5.076   7.913  0.7670 -2.3933 -2.4857
  267MOL0     H36041   2.410   5.055   7.684 -0.9841  3.2987 -2.7670
  267MOL0     H36042   2.019   5.720   8.079  0.1391 -1.5892  0.3015
  267MOL0     H36043   1.944   6.004   7.978 -2.4763 -1.8733 -1.2354
  267MOL0     H36044   1.867   5.907   8.103  1.2101 -1.6956 -0.3991
  267MOL0     H36045   1.926   6.060   8.145  0.1008 -1.8692  1.3105
  268MOL0     O36046   0.887   3.528  10.543 -0.8832  0.3729 -0.0232
  268MOL0     C36047   0.846   3.618  10.472 -0.3982 -0.3551 -0.2946
  268MOL0     O36048   0.849   3.617  10.333  0.1182  0.2855  0.2348
  268MOL0     C36049   0.907   3.516  10.262 -0.0942 -0.9002 -0.5648
  268MOL0     C36050   1.023   3.546  10.184  0.1535  0.5698 -0.6339
  268MOL0     C36051   1.058   3.451  10.092  1.2027 -0.0744  0.5178
  268MOL0     C36052   0.990   3.326  10.083 -0.7270 -0.4066  0.3571
  268MOL0     O36053   1.021   3.218  10.002  0.5750 -0.0321 -0.3210
  268MOL0     C36054   1.155   3.215   9.949 -0.2001  0.3729 -0.0875
  268MOL0     C36055   1.162   3.298   9.813  0.0953  0.1431  0.4294
  268MOL0     C36056   1.306   3.305   9.770  0.0248 -0.0346  0.6393
  268MOL0     C36057   1.315   3.341   9.623  0.5503 -0.1909  0.2010
  268MOL0     C36058   1.459   3.312   9.572  1.0599  0.1846  0.0511
  268MOL0     C36059   1.559   3.412   9.625 -0.4050 -0.3493 -0.6731
  268MOL0     C36060   1.681   3.445   9.535  0.5506  0.0606  0.4124
  268MOL0     C36061   1.769   3.321   9.528  0.2598  0.8881 -0.0787
  268MOL0     N36062   1.882   3.339   9.445  0.0583 -0.5949  0.0017
  268MOL0     C36063   1.999   3.266   9.447  0.4474 -0.9852 -0.1528
  268MOL0     C36064   2.071   3.293   9.337  0.6339  0.0211 -0.7827
  268MOL0     C36065   2.207   3.255   9.290  0.3191  0.3176 -0.8050
  268MOL0     C36066   2.327   3.323   9.374 -0.1235 -0.0679 -0.1322
  268MOL0     C36067   2.339   3.285   9.521  0.5677  0.1653  0.7492
  268MOL0     C36068   2.454   3.345   9.596 -0.8306  0.3043 -0.3135
  268MOL0     O36069   2.578   3.274   9.568 -0.4700  0.5871 -0.3697
  268MOL0     C36070   2.663   3.278   9.672 -0.5980  0.0751  0.5804
  268MOL0     C36071   2.672   3.174   9.760 -0.0470 -0.6842 -0.1026
  268MOL0     C36072   2.776   3.177   9.862  0.7896  0.8151 -0.1474
  268MOL0     C36073   2.856   3.289   9.884 -0.6738  0.6932  0.6966
  268MOL0     C36074   2.969   3.282   9.981 -0.4047  0.0946 -0.6376
  268MOL0     O36075   3.014   3.406  10.013 -0.3940  0.5723  0.2516
  268MOL0     C36076   3.113   3.421  10.101 -0.4292  0.3409  0.4909
  268MOL0     C36077   3.125   3.361  10.226 -0.5009 -0.3286  0.0806
  268MOL0     C36078   3.231   3.392  10.313  0.3107  0.8092 -0.3681
  268MOL0     C36079   3.336   3.478  10.269  0.3715 -0.3665  0.4279
  268MOL0     O36080   3.442   3.495  10.356  0.4577  0.4906 -0.0583
  268MOL0     C36081   3.539   3.586  10.310  0.0594  1.3128  0.3438
  268MOL0     C36082   3.651   3.588  10.413 -0.5649  0.6253 -0.4575
  268MOL0     C36083   3.768   3.676  10.366  0.0885  0.4510  0.1321
  268MOL0     C36084   3.907   3.646  10.441  0.8102 -0.9807  1.2698
  268MOL0     C36085   4.011   3.760  10.447 -0.2047  0.3340 -0.5783
  268MOL0     C36086   4.147   3.727  10.518  0.4659 -0.5786  0.1117
  268MOL0     C36087   4.217   3.855  10.542 -0.6314  0.5891  0.5921
  268MOL0     C36088   4.351   3.838  10.616 -0.9607  1.0250  0.4264
  268MOL0    Cl36089   4.469   3.779  10.493 -0.2873  0.0928 -0.0633
  268MOL0     C36090   3.322   3.537  10.140  1.0276  0.2898  0.2261
  268MOL0     C36091   3.210   3.518  10.057  0.0592  1.0917 -0.2451
  268MOL0     O36092   3.013   3.174  10.026  0.2172 -0.4316 -0.2186
  268MOL0     C36093   2.830   3.400   9.803  0.7581 -0.3222 -0.0662
  268MOL0     C36094   2.750   3.389   9.693  0.6184 -0.4576 -0.0005
  268MOL0     N36095   1.997   3.374   9.266  0.3125 -0.6485  0.0807
  268MOL0     N36096   1.890   3.403   9.324  0.7584  0.2217  0.2896
  268MOL0     C36097   0.890   3.296  10.178  0.4812 -0.2015 -1.3924
  268MOL0     C36098   0.854   3.388  10.268 -0.2618 -0.9161 -1.0940
  268MOL0     C36099   0.767   3.729  10.537  0.0570  0.4352 -0.3306
  268MOL0     C36100   0.830   3.798  10.640 -0.0327  0.0618  1.1437
  268MOL0     C36101   0.768   3.908  10.702 -0.4368  0.0507  0.4437
  268MOL0     C36102   0.643   3.950  10.659  0.2079  0.9343 -0.8980
  268MOL0     O36103   0.577   4.044  10.735 -0.3346  0.4108  0.2838
  268MOL0     C36104   0.604   4.177  10.695 -0.4168 -0.6648 -1.2793
  268MOL0     C36105   0.564   4.195  10.550  0.8959  0.0207  0.5566
  268MOL0     C36106   0.585   4.347  10.500 -0.0293  0.0453 -0.5704
  268MOL0     C36107   0.703   4.360  10.402  0.3583 -1.1976  0.5458
  268MOL0     C36108   0.710   4.494  10.359  0.1306  0.7001  0.1898
  268MOL0     C36109   0.728   4.607  10.316  0.6270  0.1731 -0.5806
  268MOL0     C36110   0.581   3.880  10.561  0.3574  0.2012  0.6093
  268MOL0     C36111   0.638   3.768  10.494 -0.4435 -0.5586  0.3958
  268MOL0     C36112   0.548   3.694  10.398 -0.8675 -0.5948 -0.1654
  268MOL0     H36113   1.064   3.646  10.198  1.2413  0.0343  0.1110
  268MOL0     H36114   1.141   3.478  10.028 -0.1992  0.3375 -1.2302
  268MOL0     H36115   1.231   3.243  10.023 -1.3972  0.2308  1.2129
  268MOL0     H36116   1.168   3.108   9.932  1.0451  0.7208 -1.5934
  268MOL0     H36117   1.129   3.402   9.821  0.6169  0.2692  1.0620
  268MOL0     H36118   1.092   3.267   9.735 -2.7100  0.5313  2.6150
  268MOL0     H36119   1.355   3.209   9.789  1.1646  1.0539  3.8439
  268MOL0     H36120   1.356   3.382   9.830  0.8447  0.7647 -0.9742
  268MOL0     H36121   1.249   3.281   9.560 -0.2552  0.4434  0.4400
  268MOL0     H36122   1.292   3.447   9.610 -0.7181 -0.5568 -0.6846
  268MOL0     H36123   1.489   3.212   9.603 -1.1689 -0.4411  0.3901
  268MOL0     H36124   1.451   3.313   9.463 -1.2773 -2.2948  0.0888
  268MOL0     H36125   1.503   3.505   9.627 -2.1447 -1.3512 -0.8353
  268MOL0     H36126   1.587   3.379   9.725  1.9117  0.6866 -0.9047
  268MOL0     H36127   1.734   3.537   9.559  0.6239  0.9950 -2.8476
  268MOL0     H36128   1.635   3.465   9.438 -1.2383 -1.4392  0.8866
  268MOL0     H36129   1.812   3.298   9.626  4.0176 -1.1562 -1.9833
  268MOL0     H36130   1.718   3.227   9.505 -1.3770  2.1646 -2.0078
  268MOL0     H36131   2.015   3.210   9.539 -0.4374 -3.4013 -1.3592
  268MOL0     H36132   2.212   3.146   9.288 -1.6313  0.1713  0.2891
  268MOL0     H36133   2.217   3.289   9.186 -0.7813  4.5705  0.2983
  268MOL0     H36134   2.416   3.292   9.318 -1.3742 -1.4478 -1.4290
  268MOL0     H36135   2.328   3.431   9.361 -1.8271  0.1714  1.3411
  268MOL0     H36136   2.350   3.176   9.515  3.6940  0.3017  2.0704
  268MOL0     H36137   2.250   3.317   9.575 -0.7152 -0.1291 -1.0865
  268MOL0     H36138   2.441   3.338   9.705 -0.3092  0.9294 -0.2042
  268MOL0     H36139   2.469   3.450   9.569  0.9696 -0.7945 -4.3622
  268MOL0     H36140   2.613   3.086   9.739  0.2683 -0.4410 -2.2930
  268MOL0     H36141   2.779   3.088   9.924  0.4110 -0.7534 -2.2433
  268MOL0     H36142   3.044   3.298  10.260 -1.2621  0.2448 -0.6283
  268MOL0     H36143   3.241   3.351  10.413 -4.4324  1.3296  0.5392
  268MOL0     H36144   3.577   3.567  10.209 -2.9780  2.3440 -1.0976
  268MOL0     H36145   3.490   3.683  10.308 -2.5527  0.0926  1.2854
  268MOL0     H36146   3.626   3.615  10.516  1.0271 -0.1644  0.1691
  268MOL0     H36147   3.694   3.488  10.408 -2.3267 -0.0720 -2.6771
  268MOL0     H36148   3.789   3.655  10.261  2.2397 -0.2379  0.6678
  268MOL0     H36149   3.730   3.779  10.369 -0.3849  0.2704  0.6819
  268MOL0     H36150   3.948   3.558  10.392  1.2387 -2.3869  3.9647
  268MOL0     H36151   3.883   3.617  10.544 -1.6635  1.1859  1.4161
  268MOL0     H36152   3.968   3.836  10.513 -1.0628 -1.4575  1.0233
  268MOL0     H36153   4.042   3.798  10.349  1.7180  3.3044  1.0381
  268MOL0     H36154   4.131   3.671  10.611 -1.2451 -0.3422 -0.0076
  268MOL0     H36155   4.199   3.642  10.472  0.9308  1.0868 -2.6383
  268MOL0     H36156   4.156   3.908  10.615  1.2231  0.1715  2.5337
  268MOL0     H36157   4.243   3.914  10.454  0.0388  0.2956  0.5899
  268MOL0     H36158   4.374   3.931  10.669  3.4081  0.8329 -0.7658
  268MOL0     H36159   4.337   3.758  10.691 -2.8513  1.9005  1.0623
  268MOL0     H36160   3.393   3.611  10.105  1.8889 -0.7277 -0.2224
  268MOL0     H36161   3.209   3.563   9.959 -1.0580 -1.1024 -1.3089
  268MOL0     H36162   2.898   3.484   9.816  1.4918 -1.2072  2.4804
  268MOL0     H36163   2.736   3.470   9.622 -1.6947 -1.2899 -0.5853
  268MOL0     H36164   0.848   3.196  10.186 -0.6812  0.4177  1.7114
  268MOL0     H36165   0.774   3.359  10.336  0.6459 -3.2869 -0.9340
  268MOL0     H36166   0.931   3.760  10.656  1.0187  0.1251 -3.6258
  268MOL0     H36167   0.820   3.961  10.782  1.6800 -1.5607  0.2149
  268MOL0     H36168   0.706   4.212  10.712 -0.3422 -1.3590 -0.1606
  268MOL0     H36169   0.533   4.238  10.751 -0.0350  0.6740 -2.2226
  268MOL0     H36170   0.459   4.171  10.527  1.5518  0.0027 -2.9253
  268MOL0     H36171   0.627   4.129  10.490  0.9707 -0.9299  1.6470
  268MOL0     H36172   0.593   4.417  10.583 -0.6401  1.5966 -1.7856
  268MOL0     H36173   0.500   4.388  10.445  1.3550 -0.1580 -3.0080
  268MOL0     H36174   0.800   4.336  10.447  0.2825  2.5184  3.1623
  268MOL0     H36175   0.685   4.290  10.319  0.1070 -2.1934  1.4129
  268MOL0     H36176   0.754   4.706  10.285 -1.1789  1.1463  0.8068
  268MOL0     H36177   0.480   3.914  10.542  0.1949 -1.0438 -0.9603
  268MOL0     H36178   0.451   3.743  10.408 -0.1415  0.3506  4.2550
  268MOL0     H36179   0.605   3.704  10.305  1.1553  0.4522  1.1015
  268MOL0     H36180   0.545   3.594  10.442  1.7583 -0.1595  1.2526
  269MOL0     O36181   3.109  10.844   7.295  0.0359  0.6669  0.0173
  269MOL0     C36182   3.016  10.913   7.253 -0.0851 -0.1991 -1.4306
  269MOL0     O36183   2.968  10.911   7.125 -0.2838 -0.7818  0.0636
  269MOL0     C36184   3.060  10.870   7.029 -0.6143 -0.0528  0.2627
  269MOL0     C36185   3.073  10.735   6.987 -0.4075 -1.5482 -0.1572
  269MOL0     C36186   3.160  10.716   6.882 -0.1234 -0.0410  0.9900
  269MOL0     C36187   3.236  10.817   6.820 -0.8589  0.8863  0.2929
  269MOL0     O36188   3.336  10.785   6.728 -0.4188 -0.3070 -1.0794
  269MOL0     C36189   3.315  10.673   6.645 -0.4801  0.3581  1.2973
  269MOL0     C36190   3.397  10.681   6.518 -0.1808  0.5935  0.4110
  269MOL0     C36191   3.546  10.677   6.542 -0.4231  0.4038  0.3910
  269MOL0     C36192   3.618  10.641   6.407 -0.2605 -1.2130 -1.3145
  269MOL0     C36193   3.774  10.675   6.410  0.4703  0.6371 -0.1583
  269MOL0     C36194   3.849  10.612   6.285 -0.4695 -0.7421  0.5745
  269MOL0     C36195   3.998  10.646   6.291  0.4305 -0.0733  0.1119
  269MOL0     C36196   4.064  10.633   6.153 -1.1362  0.9645 -0.4899
  269MOL0     N36197   4.064  10.496   6.099  0.1504  0.1782 -1.2678
  269MOL0     C36198   4.127  10.392   6.165 -0.5113  0.1072 -0.5378
  269MOL0     C36199   4.102  10.278   6.091  1.2790  0.0953 -0.0268
  269MOL0     C36200   4.143  10.137   6.120 -0.1804 -0.6973  0.5553
  269MOL0     C36201   4.246  10.100   6.006  0.4744  0.5713 -0.5546
  269MOL0     C36202   4.314   9.970   6.050 -0.2715 -0.4272 -0.2374
  269MOL0     C36203   4.437   9.940   5.974 -0.4199 -0.1005 -0.5883
  269MOL0     O36204   4.488   9.816   6.013  0.0564  0.4255 -0.7838
  269MOL0     C36205   4.608   9.776   5.964 -0.8561  0.7627 -0.5880
  269MOL0     C36206   4.673   9.848   5.864 -0.3776 -0.4529 -0.4547
  269MOL0     C36207   4.801   9.800   5.816  0.6496  0.3092 -0.0483
  269MOL0     C36208   4.866   9.683   5.874 -0.6364  0.3304  0.6921
  269MOL0     C36209   5.003   9.638   5.831  0.1678 -0.6998 -0.1763
  269MOL0     O36210   5.064   9.541   5.908 -0.6243 -0.5775 -0.1093
  269MOL0     C36211   5.190   9.503   5.876 -0.7888 -0.1283  0.6349
  269MOL0     C36212   5.291   9.548   5.960  0.0047  0.0940  0.4237
  269MOL0     C36213   5.425   9.518   5.942 -0.4552  0.4858  0.7236
  269MOL0     C36214   5.463   9.427   5.840 -0.7470  0.3525 -0.3788
  269MOL0     O36215   5.595   9.388   5.849 -0.1118  0.4189  0.1710
  269MOL0     C36216   5.656   9.353   5.721  0.2444  0.3409  0.3609
  269MOL0     C36217   5.804   9.365   5.732 -0.1121 -0.5313 -0.1500
  269MOL0     C36218   5.872   9.277   5.630  0.5921  0.0904  0.3481
  269MOL0     C36219   6.027   9.279   5.627  1.1661  0.3876 -0.5422
  269MOL0     C36220   6.105   9.182   5.539  0.2584  1.1294  0.8023
  269MOL0     C36221   6.214   9.110   5.614  0.1800 -0.6835 -0.6866
  269MOL0     C36222   6.312   9.041   5.514  0.3974 -0.0282  0.5712
  269MOL0     C36223   6.440   8.997   5.593  0.5166  0.1505 -1.1221
  269MOL0    Cl36224   6.572   8.963   5.483 -0.6223 -0.1377  0.5557
  269MOL0     C36225   5.365   9.385   5.745  0.2353  0.2034  0.0393
  269MOL0     C36226   5.230   9.421   5.768  0.0903 -0.6917 -0.8193
  269MOL0     O36227   5.055   9.687   5.723 -0.0242  0.3365 -0.4246
  269MOL0     C36228   4.793   9.616   5.978 -0.2575 -0.0645  0.0778
  269MOL0     C36229   4.670   9.664   6.021  0.2761  0.0562 -0.5171
  269MOL0     N36230   4.009  10.316   5.990 -0.1669  0.8877 -0.5292
  269MOL0     N36231   3.989  10.443   5.993  0.5830 -0.3967  0.7134
  269MOL0     C36232   3.227  10.946   6.865 -0.5152 -0.5233 -0.1922
  269MOL0     C36233   3.134  10.976   6.970  0.2894 -0.6922  0.3269
  269MOL0     C36234   2.944  10.995   7.352 -0.2904 -0.3346 -0.2853
  269MOL0     C36235   2.808  11.035   7.334 -0.0489 -1.2125 -0.2806
  269MOL0     C36236   2.728  11.107   7.430 -0.5067 -0.6164  0.5695
  269MOL0     C36237   2.791  11.157   7.547  0.2865  0.8690  0.4908
  269MOL0     O36238   2.708  11.222   7.640 -0.9404 -0.2026  0.1299
  269MOL0     C36239   2.713  11.171   7.779  0.1048  0.0938  0.4992
  269MOL0     C36240   2.677  11.020   7.798  0.2083  0.0509  0.5224
  269MOL0     C36241   2.538  10.989   7.751 -0.7158 -0.1201 -0.1497
  269MOL0     C36242   2.500  10.843   7.753  0.0283 -0.2366 -1.1961
  269MOL0     C36243   2.513  10.797   7.888  0.2900 -0.3461  0.6134
  269MOL0     C36244   2.510  10.778   8.003  0.1313  0.2806 -0.3342
  269MOL0     C36245   2.927  11.115   7.576  0.3395  0.2098 -0.3635
  269MOL0     C36246   3.001  11.034   7.476 -0.3809 -0.6442  0.7422
  269MOL0     C36247   3.142  11.009   7.529  0.4105 -0.5125  0.1021
  269MOL0     H36248   2.997  10.669   7.027 -0.8907 -0.6872  0.3830
  269MOL0     H36249   3.153  10.616   6.843  1.5034  1.4606 -3.7817
  269MOL0     H36250   3.348  10.580   6.693 -0.1826  0.5581  1.4870
  269MOL0     H36251   3.211  10.663   6.613  0.4527 -0.8984 -1.7009
  269MOL0     H36252   3.383  10.772   6.459  3.0269  2.5882  2.4228
  269MOL0     H36253   3.377  10.592   6.458  2.9344  0.2930 -0.3318
  269MOL0     H36254   3.570  10.607   6.623  0.0076 -0.6061 -0.5893
  269MOL0     H36255   3.577  10.778   6.570 -0.8309  0.0212  2.4202
  269MOL0     H36256   3.606  10.534   6.388 -0.4264 -1.8284  1.7049
  269MOL0     H36257   3.572  10.695   6.324 -2.7699 -0.5358  0.3795
  269MOL0     H36258   3.799  10.780   6.428 -0.9757  0.5449  3.1610
  269MOL0     H36259   3.815  10.618   6.494 -1.0973 -0.7876 -0.3093
  269MOL0     H36260   3.833  10.506   6.267 -1.0582 -0.5936  0.1998
  269MOL0     H36261   3.811  10.676   6.205  0.9618  0.0450  0.4884
  269MOL0     H36262   4.051  10.581   6.362 -0.0058 -3.9752 -2.8121
  269MOL0     H36263   4.008  10.753   6.309 -0.0876 -0.0520  0.2661
  269MOL0     H36264   4.009  10.686   6.075 -0.2658  1.7977 -0.5501
  269MOL0     H36265   4.163  10.680   6.157 -0.4936 -0.3420 -0.2432
  269MOL0     H36266   4.186  10.400   6.256 -1.5391 -2.9662  0.5380
  269MOL0     H36267   4.176  10.126   6.224 -2.0922 -3.6892  0.9588
  269MOL0     H36268   4.055  10.073   6.110  1.1893 -2.3424 -2.0972
  269MOL0     H36269   4.206  10.085   5.905  2.5767  1.2441 -1.5447
  269MOL0     H36270   4.311  10.187   5.993 -1.8667  2.7843  1.4450
  269MOL0     H36271   4.243   9.887   6.040 -2.3270  1.3442 -1.0007
  269MOL0     H36272   4.341   9.978   6.156  0.7059 -2.8417 -0.2372
  269MOL0     H36273   4.507  10.023   5.984 -0.6749  0.3144 -2.0434
  269MOL0     H36274   4.412   9.932   5.868 -1.1920 -3.1051 -0.2812
  269MOL0     H36275   4.622   9.929   5.813 -2.7792 -1.6778 -0.1521
  269MOL0     H36276   4.850   9.843   5.730 -2.0815 -1.1922 -2.5347
  269MOL0     H36277   5.269   9.623   6.035  2.0113 -2.0766  3.4532
  269MOL0     H36278   5.498   9.553   6.014 -2.5414 -0.0894  3.2754
  269MOL0     H36279   5.645   9.247   5.694  0.9680  0.8178 -2.0927
  269MOL0     H36280   5.616   9.413   5.639  0.9880  2.1348  1.2515
  269MOL0     H36281   5.842   9.467   5.717  1.2730 -0.7494  1.5974
  269MOL0     H36282   5.841   9.330   5.828 -0.3667  1.5625  0.7714
  269MOL0     H36283   5.835   9.178   5.656 -3.6759  1.5596  0.6927
  269MOL0     H36284   5.845   9.314   5.530  3.1210  0.3174 -0.3127
  269MOL0     H36285   6.036   9.241   5.729  0.1629 -2.0442 -1.2879
  269MOL0     H36286   6.066   9.381   5.618 -1.0985  1.3054 -0.6616
  269MOL0     H36287   6.149   9.238   5.455  0.6909 -1.7749 -1.0562
  269MOL0     H36288   6.032   9.110   5.501  0.6926  0.2807  1.5570
  269MOL0     H36289   6.267   9.188   5.669 -0.5784  1.2237 -2.5169
  269MOL0     H36290   6.172   9.032   5.678  3.4738 -1.7514  0.3783
  269MOL0     H36291   6.335   9.115   5.437  1.5017 -0.4458  0.4831
  269MOL0     H36292   6.250   8.960   5.474  0.6494 -0.3968  0.9242
  269MOL0     H36293   6.474   9.079   5.658  1.2514  0.3085 -1.6897
  269MOL0     H36294   6.419   8.909   5.654  2.2295  0.3281 -0.2163
  269MOL0     H36295   5.387   9.318   5.663  0.2501 -1.0369  1.0290
  269MOL0     H36296   5.158   9.385   5.695 -1.2524  0.2178  0.0046
  269MOL0     H36297   4.848   9.541   6.033  1.3533  0.7496 -0.3717
  269MOL0     H36298   4.620   9.614   6.103  1.1652 -1.4591 -0.8797
  269MOL0     H36299   3.295  11.028   6.845  0.1244 -1.5343 -2.3511
  269MOL0     H36300   3.135  11.079   7.003  1.7274 -0.0704 -1.4739
  269MOL0     H36301   2.758  10.998   7.245 -1.2329 -2.2411  0.7595
  269MOL0     H36302   2.622  11.128   7.422 -0.0778  2.8360  2.2475
  269MOL0     H36303   2.645  11.232   7.839 -0.0771  1.1255 -0.7013
  269MOL0     H36304   2.816  11.173   7.814 -0.9888 -2.1312  4.4349
  269MOL0     H36305   2.688  10.994   7.903  3.6099 -0.2553  0.1892
  269MOL0     H36306   2.748  10.954   7.748 -0.6178 -0.0294 -0.5876
  269MOL0     H36307   2.525  11.028   7.649 -2.5567  2.0967  0.8514
  269MOL0     H36308   2.468  11.041   7.817 -1.1633  2.0027 -2.1630
  269MOL0     H36309   2.395  10.841   7.721  0.0318  0.4916 -1.2610
  269MOL0     H36310   2.569  10.782   7.694  1.9141  1.0723 -0.4563
  269MOL0     H36311   2.505  10.746   8.105 -2.9435  2.2248  0.2775
  269MOL0     H36312   2.978  11.161   7.660 -0.8883 -0.4686  0.8024
  269MOL0     H36313   3.208  10.969   7.452  0.4268  0.1578 -0.2384
  269MOL0     H36314   3.183  11.102   7.568 -0.6386 -0.5937  1.4779
  269MOL0     H36315   3.132  10.930   7.604 -0.2231  0.8549  1.5031
  270MOL0     O36316  10.978   9.389   5.679  0.5251  0.0810  0.5452
  270MOL0     C36317  10.977   9.276   5.621 -0.5392  0.3040 -0.6827
  270MOL0     O36318  11.088   9.202   5.597 -0.0749 -0.2007  0.2218
  270MOL0     C36319  11.201   9.262   5.627 -0.2900  0.5001 -0.5941
  270MOL0     C36320  11.247   9.243   5.758 -0.0350 -0.0738  0.1552
  270MOL0     C36321  11.374   9.271   5.790 -0.3331  0.5810  0.4084
  270MOL0     C36322  11.460   9.336   5.699 -0.6248 -0.5228 -0.1367
  270MOL0     O36323  11.591   9.368   5.731 -0.0477  0.4305 -0.1430
  270MOL0     C36324  11.664   9.301   5.833 -1.2253 -1.2106 -0.5010
  270MOL0     C36325  11.802   9.368   5.850 -0.0443  0.1150 -0.3633
  270MOL0     C36326  11.773   9.515   5.907 -0.1232  0.8115  0.2654
  270MOL0     C36327  11.900   9.597   5.880 -0.8815  0.3896 -0.7878
  270MOL0     C36328  11.869   9.743   5.899 -0.6545 -0.3330  0.3818
  270MOL0     C36329  11.998   9.834   5.880 -0.0227  0.6711  0.5746
  270MOL0     C36330  12.113   9.805   5.989  0.7627 -0.2340  0.0964
  270MOL0     C36331  12.060   9.818   6.136  0.6559 -0.7035  0.6431
  270MOL0     N36332  12.049   9.693   6.209 -0.3927  0.1048  0.1874
  270MOL0     C36333  11.933   9.631   6.227  0.3934  0.3307 -0.7846
  270MOL0     C36334  11.964   9.528   6.306  0.2609 -0.4182 -0.0948
  270MOL0     C36335  11.864   9.423   6.343  0.2419 -0.1901 -0.1511
  270MOL0     C36336  11.793   9.476   6.466  0.2091 -0.1566 -0.1648
  270MOL0     C36337  11.711   9.354   6.529  0.2972  0.4272  0.3103
  270MOL0     C36338  11.666   9.386   6.673  0.5197  0.0708  0.5096
  270MOL0     O36339  11.633   9.518   6.687  0.4860 -0.4675 -0.2377
  270MOL0     C36340  11.517   9.567   6.638  0.5547 -0.7285 -0.8465
  270MOL0     C36341  11.427   9.501   6.553 -0.5723  0.2059 -0.4500
  270MOL0     C36342  11.307   9.555   6.505  0.3027  0.3793 -0.2566
  270MOL0     C36343  11.261   9.675   6.555 -0.4464  0.0324 -0.0994
  270MOL0     C36344  11.118   9.737   6.522 -0.9111  0.0563 -1.1111
  270MOL0     O36345  11.046   9.700   6.421 -1.1180 -0.1911 -0.0557
  270MOL0     C36346  10.921   9.755   6.409  0.3356  0.0597 -0.6106
  270MOL0     C36347  10.900   9.887   6.371  0.1345  0.4624 -0.5337
  270MOL0     C36348  10.774   9.931   6.348  0.3156 -0.6432  0.5030
  270MOL0     C36349  10.656   9.863   6.383  0.2763  0.7409  0.2031
  270MOL0     O36350  10.530   9.920   6.384 -0.2969 -0.4051  0.2938
  270MOL0     C36351  10.452   9.904   6.261  0.0720 -0.6495 -0.9434
  270MOL0     C36352  10.446  10.043   6.201 -1.0481 -0.6115 -0.0321
  270MOL0     C36353  10.331  10.055   6.096  0.0372 -1.0166 -0.3682
  270MOL0     C36354  10.246  10.182   6.122  0.6277 -0.2575 -0.9738
  270MOL0     C36355  10.111  10.183   6.035  0.6296 -0.2086 -0.2915
  270MOL0     C36356  10.015  10.069   6.063  0.1202  0.0360 -0.4975
  270MOL0     C36357   9.884  10.072   5.978 -0.4499 -0.9859  0.5637
  270MOL0     C36358   9.797   9.945   5.988 -0.9208 -0.1009 -0.5939
  270MOL0    Cl36359   9.749   9.906   6.156  0.0285  0.0241 -0.3461
  270MOL0     C36360  10.669   9.731   6.423  0.0652  0.5251  0.0696
  270MOL0     C36361  10.802   9.681   6.435 -0.4115  0.8907  0.8213
  270MOL0     O36362  11.080   9.827   6.603  1.0430 -0.4091  0.4613
  270MOL0     C36363  11.348   9.738   6.649 -0.5660 -1.0750  0.0879
  270MOL0     C36364  11.475   9.695   6.689 -1.1602 -0.0134  0.1878
  270MOL0     N36365  12.100   9.535   6.328 -0.3743  0.3560  0.0665
  270MOL0     N36366  12.152   9.632   6.266 -0.0200 -0.3532  0.0124
  270MOL0     C36367  11.421   9.347   5.569  0.4824 -0.8920  0.1245
  270MOL0     C36368  11.287   9.312   5.527 -0.0310 -0.3803  0.5586
  270MOL0     C36369  10.848   9.232   5.567  0.7947 -0.2936 -0.8263
  270MOL0     C36370  10.849   9.143   5.459  0.9047 -0.1038  0.2180
  270MOL0     C36371  10.738   9.085   5.402 -0.3086  0.1107 -0.7946
  270MOL0     C36372  10.608   9.117   5.447  0.4235  0.0334  0.3684
  270MOL0     O36373  10.491   9.064   5.410  0.2666  0.4597  0.3935
  270MOL0     C36374  10.501   8.965   5.310 -0.2790 -1.2985 -0.1032
  270MOL0     C36375  10.365   8.906   5.265 -0.7521  0.0106  0.9092
  270MOL0     C36376  10.292   8.833   5.375  0.2191  0.0851  0.7824
  270MOL0     C36377  10.165   8.758   5.333  0.1200 -0.1454 -0.0493
  270MOL0     C36378  10.069   8.731   5.438 -0.0702 -0.4900 -0.6205
  270MOL0     C36379   9.982   8.697   5.514  0.0102  0.0110 -0.0368
  270MOL0     C36380  10.599   9.206   5.558 -0.2867 -0.2566  0.9780
  270MOL0     C36381  10.717   9.265   5.613  1.1434 -0.1941  0.9116
  270MOL0     C36382  10.695   9.355   5.741 -0.0804 -0.9323  0.1815
  270MOL0     H36383  11.180   9.192   5.826 -1.1544  1.8908  0.5853
  270MOL0     H36384  11.400   9.262   5.895  0.3603  2.4416  0.4391
  270MOL0     H36385  11.613   9.304   5.930  1.5861 -1.2793  1.1027
  270MOL0     H36386  11.677   9.196   5.805 -1.9871 -1.6494  0.7225
  270MOL0     H36387  11.855   9.370   5.754  0.7253  2.8728  0.0368
  270MOL0     H36388  11.847   9.312   5.932 -0.3731  0.6287  0.1772
  270MOL0     H36389  11.735   9.532   6.008  0.6149  0.9394  0.5281
  270MOL0     H36390  11.700   9.567   5.844  2.1078  1.4625 -1.9411
  270MOL0     H36391  11.986   9.571   5.942  0.0901  1.5203 -1.6306
  270MOL0     H36392  11.932   9.578   5.777  0.3659  0.5824 -0.4503
  270MOL0     H36393  11.792   9.782   5.832  0.0758  0.3358 -0.0973
  270MOL0     H36394  11.828   9.758   5.999 -0.9748 -1.5816  0.4571
  270MOL0     H36395  12.038   9.816   5.780  2.3348 -0.0725  1.5842
  270MOL0     H36396  11.976   9.941   5.886 -3.5237 -0.0100  2.6812
  270MOL0     H36397  12.199   9.870   5.971  1.3275 -1.2359 -0.9224
  270MOL0     H36398  12.141   9.700   5.977 -1.6610 -1.1595  1.7088
  270MOL0     H36399  12.112   9.892   6.197 -0.5684 -0.4993  1.4887
  270MOL0     H36400  11.956   9.854   6.140  0.7823 -0.2482  0.1180
  270MOL0     H36401  11.834   9.659   6.193 -0.1438 -1.4076 -0.7192
  270MOL0     H36402  11.779   9.411   6.275  1.3202 -3.7228 -1.0869
  270MOL0     H36403  11.911   9.325   6.352  2.4725  0.6385 -1.7236
  270MOL0     H36404  11.868   9.494   6.544  0.7290 -1.5178 -0.3314
  270MOL0     H36405  11.737   9.563   6.429 -0.9203 -0.7721  0.0395
  270MOL0     H36406  11.774   9.265   6.534  0.5882  0.6943  2.1336
  270MOL0     H36407  11.631   9.335   6.457 -0.2234 -4.1520  1.7804
  270MOL0     H36408  11.737   9.364   6.753 -0.2894  2.3744  1.9674
  270MOL0     H36409  11.586   9.315   6.699 -0.9737  0.8677 -1.5544
  270MOL0     H36410  11.452   9.408   6.503 -1.5732 -0.2606 -0.1014
  270MOL0     H36411  11.242   9.500   6.437  2.2639  1.9798 -3.7394
  270MOL0     H36412  10.986   9.949   6.349  0.9571 -0.6117 -0.4694
  270MOL0     H36413  10.768  10.035   6.318 -0.5945 -0.9719 -0.5433
  270MOL0     H36414  10.496   9.836   6.187  4.0848  1.5228 -0.8351
  270MOL0     H36415  10.353   9.864   6.282  0.0081 -1.7704 -3.0812
  270MOL0     H36416  10.438  10.118   6.281  2.3297 -0.9615  0.7682
  270MOL0     H36417  10.538  10.070   6.148 -0.1881  0.6363  1.9943
  270MOL0     H36418  10.379  10.075   6.000 -0.2175 -0.8179 -0.4546
  270MOL0     H36419  10.266   9.968   6.080 -2.0354  0.2697  0.6427
  270MOL0     H36420  10.298  10.273   6.092  0.1869  0.5727  0.6801
  270MOL0     H36421  10.213  10.188   6.226  0.2865  0.3747 -1.1166
  270MOL0     H36422  10.130  10.185   5.928 -2.9330  1.5867 -1.0470
  270MOL0     H36423  10.047  10.271   6.049 -1.9838 -2.1050  0.5089
  270MOL0     H36424  10.066   9.977   6.036 -1.5218 -0.9449 -0.4072
  270MOL0     H36425   9.989  10.066   6.169  0.2264  1.4022 -0.4112
  270MOL0     H36426   9.904  10.093   5.872  0.1661  0.2445  0.9023
  270MOL0     H36427   9.822  10.157   6.008  1.8819  1.6610 -1.4897
  270MOL0     H36428   9.716   9.956   5.915  0.0442 -0.3908 -1.7236
  270MOL0     H36429   9.859   9.863   5.952  0.7065  0.4847  0.7581
  270MOL0     H36430  10.586   9.674   6.463 -0.4916  1.5339  0.4028
  270MOL0     H36431  10.816   9.584   6.482 -2.0118  1.1030  1.8061
  270MOL0     H36432  11.311   9.829   6.697  2.1044 -0.5914  1.4525
  270MOL0     H36433  11.540   9.737   6.765 -2.0144 -0.0519  0.9504
  270MOL0     H36434  11.481   9.403   5.498 -1.1416  2.0052  0.8896
  270MOL0     H36435  11.249   9.323   5.426  1.6104  2.8998  0.1573
  270MOL0     H36436  10.945   9.108   5.424  0.6638 -1.0309  0.4366
  270MOL0     H36437  10.748   9.007   5.327 -1.6416 -1.4858  0.6053
  270MOL0     H36438  10.551   8.880   5.356  1.7823  0.0196  0.2186
  270MOL0     H36439  10.557   8.997   5.221  0.8573  3.2541  1.9399
  270MOL0     H36440  10.373   8.850   5.171 -0.0384  2.9675 -0.9252
  270MOL0     H36441  10.294   8.979   5.227 -1.6465 -1.4310 -0.2870
  270MOL0     H36442  10.256   8.902   5.451 -0.9726  1.2643 -0.7691
  270MOL0     H36443  10.357   8.755   5.416 -0.7419 -1.1675 -0.0213
  270MOL0     H36444  10.109   8.830   5.273 -1.2016  1.1298  2.5281
  270MOL0     H36445  10.179   8.666   5.275  0.5267  1.7090 -3.0789
  270MOL0     H36446   9.915   8.665   5.591  0.2786 -0.3351  0.0584
  270MOL0     H36447  10.498   9.224   5.593 -0.8232 -0.9453 -0.1461
  270MOL0     H36448  10.780   9.350   5.809 -1.2310  0.7726  1.8298
  270MOL0     H36449  10.679   9.459   5.712  0.7171 -0.8704 -0.0483
  270MOL0     H36450  10.612   9.319   5.803 -1.4672 -0.5398 -1.3525
  271MOL0     O36451   6.799   7.507   7.936 -0.5589  0.4248  0.1473
  271MOL0     C36452   6.710   7.579   7.986 -0.8342 -0.3039  0.0642
  271MOL0     O36453   6.727   7.696   8.049 -0.4724  0.1699 -0.1845
  271MOL0     C36454   6.837   7.759   8.089  0.3990 -0.5482  0.5270
  271MOL0     C36455   6.835   7.836   8.213  0.2481 -0.7960  0.4523
  271MOL0     C36456   6.946   7.923   8.239  0.2478  0.0617 -0.5407
  271MOL0     C36457   7.045   7.927   8.146 -0.8478 -0.1582  0.2836
  271MOL0     O36458   7.148   8.017   8.147 -0.3220 -0.4121 -0.5452
  271MOL0     C36459   7.259   7.977   8.232 -0.2395  0.8551 -0.3416
  271MOL0     C36460   7.382   7.986   8.148  0.5406  0.2091 -0.6642
  271MOL0     C36461   7.408   8.134   8.117 -0.2963 -0.6814 -0.2238
  271MOL0     C36462   7.562   8.154   8.107  0.3880  0.2050 -0.2165
  271MOL0     C36463   7.587   8.303   8.135  1.1279  0.0595  0.1958
  271MOL0     C36464   7.727   8.340   8.110  1.3912 -0.0656  0.0196
  271MOL0     C36465   7.772   8.481   8.159 -0.4603  0.7280  0.0003
  271MOL0     C36466   7.905   8.536   8.124 -0.6159 -0.1793 -0.4305
  271MOL0     N36467   7.914   8.557   7.982 -0.7692 -0.0182  0.0147
  271MOL0     C36468   7.823   8.615   7.902 -0.2769  0.0418 -0.5606
  271MOL0     C36469   7.891   8.637   7.787  0.4147  0.5460 -0.1524
  271MOL0     C36470   7.828   8.701   7.666 -0.6244  0.3259 -0.1640
  271MOL0     C36471   7.731   8.615   7.583 -0.4596  1.9389 -0.2862
  271MOL0     C36472   7.793   8.468   7.549  0.4733 -0.4296  0.6127
  271MOL0     C36473   7.916   8.469   7.477 -1.0586 -0.1932  0.7605
  271MOL0     O36474   7.934   8.349   7.405  0.1084  0.3435  0.7183
  271MOL0     C36475   8.064   8.295   7.403  0.8786  0.1786  0.1403
  271MOL0     C36476   8.095   8.164   7.446  0.0895 -0.3147  0.7299
  271MOL0     C36477   8.224   8.122   7.474  0.0177  0.1669  0.4853
  271MOL0     C36478   8.337   8.203   7.446  0.5354  0.2360 -0.3709
  271MOL0     C36479   8.478   8.161   7.469 -0.0025  0.1830  0.9052
  271MOL0     O36480   8.513   8.029   7.500 -0.3933 -0.0247  0.5887
  271MOL0     C36481   8.643   7.993   7.531 -0.4497  0.0801  0.9428
  271MOL0     C36482   8.690   7.869   7.480  0.4643 -0.2068 -0.4502
  271MOL0     C36483   8.820   7.823   7.500  1.1436  0.7612  0.2901
  271MOL0     C36484   8.909   7.903   7.564 -1.0629 -0.2270 -0.7381
  271MOL0     O36485   9.042   7.868   7.584 -0.8001  1.0356 -0.4165
  271MOL0     C36486   9.074   7.735   7.571 -1.0304 -0.3875 -0.5860
  271MOL0     C36487   9.224   7.721   7.617 -0.2354 -0.1209 -0.7193
  271MOL0     C36488   9.273   7.579   7.612  0.2740  0.3055  0.4393
  271MOL0     C36489   9.237   7.490   7.496  0.7175  0.3609 -0.5118
  271MOL0     C36490   9.257   7.343   7.519  0.7198 -0.0012  0.5106
  271MOL0     C36491   9.188   7.247   7.417 -0.2420 -0.2634 -0.6660
  271MOL0     C36492   9.262   7.246   7.282  0.8881 -0.1972  0.5112
  271MOL0     C36493   9.186   7.331   7.177  0.6612  0.2335  0.7631
  271MOL0    Cl36494   9.023   7.260   7.133  0.1327 -0.0938 -0.5992
  271MOL0     C36495   8.868   8.029   7.613  0.0202 -0.9673 -0.3611
  271MOL0     C36496   8.737   8.066   7.600 -0.9987  0.2184 -0.2048
  271MOL0     O36497   8.561   8.250   7.455 -0.2973 -1.0604 -1.3680
  271MOL0     C36498   8.305   8.333   7.388  0.1312 -1.2770  1.1212
  271MOL0     C36499   8.174   8.371   7.364  0.8159 -1.0976 -0.0663
  271MOL0     N36500   8.010   8.578   7.797  0.8252 -0.3918  0.0829
  271MOL0     N36501   8.034   8.533   7.916  0.3751  1.1180 -1.2842
  271MOL0     C36502   7.046   7.837   8.033  0.2758 -0.0990 -1.5846
  271MOL0     C36503   6.940   7.751   8.007 -0.8618 -0.3691 -0.4635
  271MOL0     C36504   6.568   7.558   7.955  0.7334  0.3564 -0.4169
  271MOL0     C36505   6.534   7.452   7.868  0.6631  0.7181  1.2231
  271MOL0     C36506   6.402   7.411   7.836  0.3161 -0.4829  0.7771
  271MOL0     C36507   6.304   7.468   7.899  0.9926  0.3145  0.5502
  271MOL0     O36508   6.178   7.417   7.868 -0.8609  0.3687  0.0774
  271MOL0     C36509   6.070   7.510   7.886  1.7444  0.5888  0.4013
  271MOL0     C36510   5.970   7.509   7.765 -0.6031  0.4231 -0.7765
  271MOL0     C36511   5.937   7.372   7.710  0.0622 -0.1574  0.1405
  271MOL0     C36512   6.044   7.287   7.630  0.1252  1.1458  0.5569
  271MOL0     C36513   6.102   7.368   7.525  0.7443  0.2584  0.2956
  271MOL0     C36514   6.140   7.437   7.431  0.7152 -0.4248 -0.4570
  271MOL0     C36515   6.332   7.576   7.994  0.4378 -0.5506 -0.6006
  271MOL0     C36516   6.464   7.623   8.029  0.1121  0.2560  0.2679
  271MOL0     C36517   6.474   7.734   8.130  0.5335 -0.6970  0.1514
  271MOL0     H36518   6.752   7.837   8.283  0.6663 -2.9023  1.0307
  271MOL0     H36519   6.949   7.989   8.326  1.0205  1.5153 -1.6290
  271MOL0     H36520   7.272   8.043   8.319 -0.3954  0.9263 -0.3699
  271MOL0     H36521   7.250   7.877   8.275 -1.3158  1.8200  1.8787
  271MOL0     H36522   7.381   7.921   8.060  0.6497 -4.1747  2.2666
  271MOL0     H36523   7.461   7.946   8.212 -0.7621 -1.9344 -0.3020
  271MOL0     H36524   7.367   8.198   8.196  1.2181 -1.0841  0.9344
  271MOL0     H36525   7.350   8.172   8.033  2.9271  1.8575 -1.4806
  271MOL0     H36526   7.613   8.092   8.182 -1.2379 -1.6954 -0.6069
  271MOL0     H36527   7.591   8.131   8.004  0.8452  1.2160 -0.3302
  271MOL0     H36528   7.527   8.366   8.070 -0.8992 -1.9320  0.0226
  271MOL0     H36529   7.545   8.335   8.231 -0.4942  1.0236 -0.7888
  271MOL0     H36530   7.796   8.272   8.161  2.2385 -0.1386 -1.1747
  271MOL0     H36531   7.756   8.334   8.004  2.9397  0.4611  0.3928
  271MOL0     H36532   7.772   8.480   8.268  2.2275 -0.8552  0.0762
  271MOL0     H36533   7.697   8.550   8.119  0.2858  0.3270 -2.2392
  271MOL0     H36534   7.922   8.627   8.182 -0.8638  1.4476 -2.7310
  271MOL0     H36535   7.984   8.462   8.142 -1.1860 -0.4451  1.0517
  271MOL0     H36536   7.720   8.645   7.924  0.0451  1.4038 -0.8279
  271MOL0     H36537   7.772   8.790   7.698  0.3952  0.6613  0.7271
  271MOL0     H36538   7.902   8.733   7.592 -0.7842 -0.0579 -0.4964
  271MOL0     H36539   7.650   8.590   7.652 -1.3597  0.6364 -1.7423
  271MOL0     H36540   7.688   8.656   7.491  0.5495  1.0253 -1.1931
  271MOL0     H36541   7.707   8.418   7.504 -1.3386  0.7790  2.5481
  271MOL0     H36542   7.815   8.415   7.642 -0.7259  0.4065  1.4007
  271MOL0     H36543   7.999   8.486   7.546 -0.9848  0.7995  0.4482
  271MOL0     H36544   7.913   8.545   7.399 -1.8373  1.3841  2.2550
  271MOL0     H36545   8.015   8.095   7.469  0.7880 -1.0589  1.0204
  271MOL0     H36546   8.242   8.028   7.526  4.4283  0.6044  0.1855
  271MOL0     H36547   8.623   7.798   7.430  0.9915 -0.6659 -0.5164
  271MOL0     H36548   8.849   7.728   7.455 -0.5775 -0.8812  2.3958
  271MOL0     H36549   9.022   7.666   7.638  1.5390 -1.7624  0.1110
  271MOL0     H36550   9.056   7.711   7.466 -2.5334  1.6328 -0.8581
  271MOL0     H36551   9.279   7.792   7.555 -1.3301  1.3978 -0.0029
  271MOL0     H36552   9.218   7.761   7.719  0.7292  1.4794 -1.2612
  271MOL0     H36553   9.383   7.584   7.617  0.2501  3.2885 -0.4350
  271MOL0     H36554   9.232   7.532   7.702  0.7891 -0.7091  0.1611
  271MOL0     H36555   9.306   7.497   7.412  0.9348 -0.3564 -0.4035
  271MOL0     H36556   9.138   7.509   7.453  0.2741 -2.8683 -1.2014
  271MOL0     H36557   9.213   7.327   7.618  2.2892  3.1538  1.8550
  271MOL0     H36558   9.362   7.313   7.523  0.4046 -1.1211  0.6572
  271MOL0     H36559   9.198   7.150   7.467 -1.0693  0.6060  1.2841
  271MOL0     H36560   9.083   7.269   7.397 -0.7052  0.1960  1.8598
  271MOL0     H36561   9.243   7.142   7.252  1.8028 -1.1239  2.8880
  271MOL0     H36562   9.365   7.283   7.278  0.0797  2.0947 -1.2302
  271MOL0     H36563   9.173   7.436   7.205 -0.0646  0.8752 -1.7607
  271MOL0     H36564   9.240   7.329   7.082  0.0343 -2.2771  0.3790
  271MOL0     H36565   8.941   8.085   7.671 -0.4593 -0.4276 -0.2709
  271MOL0     H36566   8.721   8.167   7.636 -0.0715 -0.5271  2.5173
  271MOL0     H36567   8.387   8.403   7.379 -1.1497  0.4396  2.2448
  271MOL0     H36568   8.147   8.463   7.314  2.1959 -0.1948  0.7921
  271MOL0     H36569   7.125   7.832   7.959  0.8153 -2.4392 -0.9220
  271MOL0     H36570   6.944   7.695   7.914 -0.3123 -0.3888 -0.4279
  271MOL0     H36571   6.617   7.411   7.810  1.2779  0.9424  1.9232
  271MOL0     H36572   6.381   7.339   7.758 -1.1618  1.7206 -1.0048
  271MOL0     H36573   6.109   7.612   7.896  3.2597 -0.0285  1.0194
  271MOL0     H36574   6.009   7.489   7.974  2.9230 -0.4760  0.9894
  271MOL0     H36575   6.009   7.573   7.685  1.9486 -2.2208 -1.8139
  271MOL0     H36576   5.884   7.562   7.807  0.2006  2.1351 -1.1719
  271MOL0     H36577   5.857   7.392   7.638 -0.1336  0.1876  0.4498
  271MOL0     H36578   5.894   7.313   7.791  0.1056 -3.0035 -1.7822
  271MOL0     H36579   6.128   7.253   7.691 -0.6133  0.6717  1.3516
  271MOL0     H36580   5.999   7.202   7.578  1.5393 -0.6845  2.1768
  271MOL0     H36581   6.166   7.501   7.349 -0.1074  2.7325  1.5505
  271MOL0     H36582   6.248   7.620   8.046 -1.1717 -0.0998 -3.3927
  271MOL0     H36583   6.541   7.710   8.214  1.1093  1.9639  0.5466
  271MOL0     H36584   6.519   7.821   8.080 -1.4695 -1.1360 -2.6256
  271MOL0     H36585   6.377   7.762   8.171  0.1928 -2.1736  0.3883
  272MOL0     O36586   2.760   4.348   6.988  1.0401 -0.1368  0.3792
  272MOL0     C36587   2.668   4.274   6.967  0.0646 -0.4101  1.4082
  272MOL0     O36588   2.578   4.234   7.056  0.0072  0.5959  0.0492
  272MOL0     C36589   2.595   4.268   7.182 -0.4411 -0.7400  0.3426
  272MOL0     C36590   2.498   4.352   7.246  0.5686  0.5429  0.1124
  272MOL0     C36591   2.510   4.375   7.384 -0.3714  0.5171 -0.4340
  272MOL0     C36592   2.617   4.320   7.462 -0.2140 -0.2743  0.0400
  272MOL0     O36593   2.630   4.335   7.600 -0.2365  0.2234  0.3058
  272MOL0     C36594   2.587   4.463   7.662 -0.1024 -0.4787 -0.0858
  272MOL0     C36595   2.659   4.586   7.600 -0.5489  0.0565 -0.4276
  272MOL0     C36596   2.818   4.583   7.606  0.9205  0.8554 -0.1538
  272MOL0     C36597   2.867   4.655   7.723 -0.4836 -0.0597  0.0788
  272MOL0     C36598   3.021   4.642   7.746  0.8628 -0.9102 -0.8449
  272MOL0     C36599   3.044   4.713   7.871 -0.0294  0.4845  0.3463
  272MOL0     C36600   3.188   4.703   7.930 -0.3319  0.3685  0.7250
  272MOL0     C36601   3.184   4.765   8.062 -0.1703  0.3687  0.4523
  272MOL0     N36602   3.315   4.761   8.137  0.0494  0.8368  0.6237
  272MOL0     C36603   3.359   4.866   8.218 -0.1710 -0.6045 -1.1315
  272MOL0     C36604   3.492   4.841   8.237 -0.2872 -0.0057  0.2903
  272MOL0     C36605   3.581   4.946   8.307  0.1146 -0.1295 -0.4806
  272MOL0     C36606   3.727   4.925   8.313  0.5536 -0.2679 -0.7211
  272MOL0     C36607   3.769   4.786   8.370 -0.2840 -0.1566 -0.3350
  272MOL0     C36608   3.920   4.779   8.368  0.7874  0.5354  0.3217
  272MOL0     O36609   3.989   4.878   8.446  0.0348 -0.2822  0.0244
  272MOL0     C36610   4.124   4.883   8.446 -0.4795  0.2254  0.1067
  272MOL0     C36611   4.187   4.981   8.523  0.3576  0.2091  0.7786
  272MOL0     C36612   4.322   5.007   8.510 -0.5447  0.3573 -0.1319
  272MOL0     C36613   4.409   4.925   8.425  0.2484 -0.1645  0.8049
  272MOL0     C36614   4.553   4.945   8.417  0.3455 -0.1923  0.3319
  272MOL0     O36615   4.598   5.039   8.490  0.5057 -0.0453  0.3342
  272MOL0     C36616   4.730   5.080   8.476  0.1948  0.8473  0.6331
  272MOL0     C36617   4.775   5.150   8.362 -0.1473 -0.2414  0.1235
  272MOL0     C36618   4.898   5.207   8.358 -0.6525 -0.5561  0.4979
  272MOL0     C36619   4.996   5.177   8.459  0.1641 -0.6649  0.0178
  272MOL0     O36620   5.133   5.215   8.460  0.1839 -0.1737  0.6382
  272MOL0     C36621   5.204   5.272   8.341 -0.3606  0.1317 -0.4197
  272MOL0     C36622   5.360   5.277   8.373  0.1769 -0.3116 -0.5352
  272MOL0     C36623   5.430   5.336   8.257 -0.6435 -1.0344 -0.1917
  272MOL0     C36624   5.571   5.354   8.296 -0.1597 -0.1417 -0.8707
  272MOL0     C36625   5.654   5.402   8.179 -0.0825 -0.0046  0.0721
  272MOL0     C36626   5.801   5.416   8.215 -0.0263  0.9641  0.0116
  272MOL0     C36627   5.869   5.299   8.259 -0.4962 -0.0432  0.7840
  272MOL0     C36628   6.022   5.319   8.280  0.6821  0.9743 -0.2469
  272MOL0    Cl36629   6.105   5.386   8.134 -0.0590 -0.4171 -0.0892
  272MOL0     C36630   4.947   5.097   8.561 -0.0934  0.1802  0.2087
  272MOL0     C36631   4.817   5.049   8.569  0.2621 -0.0701 -0.0768
  272MOL0     O36632   4.614   4.866   8.347 -0.5260 -0.5178 -0.5373
  272MOL0     C36633   4.346   4.823   8.356 -0.4639 -0.0620  0.4326
  272MOL0     C36634   4.206   4.803   8.367  0.1266  0.2970  1.0480
  272MOL0     N36635   3.523   4.713   8.179 -0.4774  0.0098  0.9010
  272MOL0     N36636   3.408   4.670   8.126  0.8918 -0.2037 -0.2318
  272MOL0     C36637   2.716   4.249   7.393 -0.2562 -0.0067  0.3902
  272MOL0     C36638   2.706   4.222   7.256 -1.1554 -0.1306 -0.5952
  272MOL0     C36639   2.641   4.261   6.819  1.0597 -0.1699 -0.4561
  272MOL0     C36640   2.510   4.277   6.762 -0.1585 -0.1156 -0.6507
  272MOL0     C36641   2.504   4.262   6.623 -0.8028  0.2804  0.1574
  272MOL0     C36642   2.617   4.217   6.547  0.1267 -0.4758 -0.0433
  272MOL0     O36643   2.622   4.179   6.416 -0.3379 -0.3121 -0.4407
  272MOL0     C36644   2.506   4.177   6.331  0.1874 -0.5367  0.4963
  272MOL0     C36645   2.437   4.032   6.319  1.1172 -0.2355  0.4076
  272MOL0     C36646   2.525   3.904   6.322 -0.0088  0.7677 -0.0132
  272MOL0     C36647   2.440   3.783   6.295 -0.2842 -0.0700  0.0637
  272MOL0     C36648   2.323   3.775   6.381  0.7870 -0.4810  0.6854
  272MOL0     C36649   2.228   3.782   6.457  0.2229 -0.2317  0.0501
  272MOL0     C36650   2.740   4.213   6.607  0.9015 -0.1213  0.1659
  272MOL0     C36651   2.757   4.231   6.741 -0.7577  0.2449  0.1616
  272MOL0     C36652   2.903   4.238   6.786  0.3590  0.0637  0.1452
  272MOL0     H36653   2.411   4.396   7.197  1.5706  3.4410  0.7401
  272MOL0     H36654   2.427   4.427   7.431 -2.1540 -0.2306 -2.5715
  272MOL0     H36655   2.478   4.471   7.654 -0.0504  3.3920  0.8756
  272MOL0     H36656   2.629   4.458   7.763 -2.5475 -1.5017  0.9365
  272MOL0     H36657   2.623   4.677   7.650  0.7254  0.7010 -0.6395
  272MOL0     H36658   2.630   4.599   7.496 -1.3811  1.8741 -0.0110
  272MOL0     H36659   2.861   4.626   7.515 -1.4658  0.7747 -1.4027
  272MOL0     H36660   2.853   4.479   7.606 -0.7108  0.2812  0.3823
  272MOL0     H36661   2.832   4.758   7.710 -1.7670 -0.7414 -2.5040
  272MOL0     H36662   2.813   4.615   7.808  0.3942 -1.0205  0.2030
  272MOL0     H36663   3.043   4.535   7.752 -2.6672 -1.7145  0.1214
  272MOL0     H36664   3.090   4.685   7.672  0.9884  0.1003 -0.1598
  272MOL0     H36665   3.017   4.819   7.864  0.3853  0.5106 -1.3801
  272MOL0     H36666   2.981   4.661   7.943  0.5364 -0.3394  0.2573
  272MOL0     H36667   3.261   4.755   7.867 -0.8815  0.3051  0.0305
  272MOL0     H36668   3.216   4.598   7.937 -0.6802  0.1291 -1.1010
  272MOL0     H36669   3.149   4.868   8.049  1.4315  0.6861 -2.1859
  272MOL0     H36670   3.117   4.703   8.122  0.0541  1.1187  1.5072
  272MOL0     H36671   3.316   4.962   8.247 -0.6811 -1.0663 -0.3091
  272MOL0     H36672   3.554   5.041   8.260 -1.3373 -0.6387 -0.7141
  272MOL0     H36673   3.546   4.957   8.410 -0.4407  1.1082 -0.7801
  272MOL0     H36674   3.762   4.928   8.209 -2.6054 -0.6877 -1.9067
  272MOL0     H36675   3.781   4.997   8.375 -0.1832 -0.4634  0.1740
  272MOL0     H36676   3.715   4.702   8.326 -0.2963  1.0960 -2.8839
  272MOL0     H36677   3.740   4.780   8.475  2.2445  1.0996  0.5290
  272MOL0     H36678   3.957   4.780   8.265 -0.6435 -0.1141 -0.2274
  272MOL0     H36679   3.951   4.686   8.415  0.7840  1.3560  2.0125
  272MOL0     H36680   4.126   5.048   8.583  0.5287 -0.9731  2.3597
  272MOL0     H36681   4.351   5.085   8.579 -1.6120 -0.7426  1.6648
  272MOL0     H36682   4.701   5.158   8.283 -0.4723 -1.4609  0.2884
  272MOL0     H36683   4.918   5.268   8.271  3.2246 -1.2079  0.7281
  272MOL0     H36684   5.186   5.212   8.252  1.2005  0.3063 -0.8909
  272MOL0     H36685   5.159   5.369   8.320  0.7475  0.9066  0.6667
  272MOL0     H36686   5.372   5.334   8.465  1.5948 -0.4162 -0.6321
  272MOL0     H36687   5.401   5.176   8.381  0.4742 -0.1985 -0.6146
  272MOL0     H36688   5.428   5.269   8.170  2.1801 -0.0039 -1.1653
  272MOL0     H36689   5.384   5.432   8.232 -0.0488 -0.1263  1.9896
  272MOL0     H36690   5.621   5.262   8.329 -3.2245 -2.8607 -3.1834
  272MOL0     H36691   5.565   5.426   8.378 -2.3858 -2.9237  1.6217
  272MOL0     H36692   5.618   5.496   8.135 -2.0487 -1.0102 -0.6287
  272MOL0     H36693   5.643   5.335   8.093  2.5434 -0.3554 -0.0456
  272MOL0     H36694   5.856   5.453   8.128 -0.3484  1.9619  0.2198
  272MOL0     H36695   5.808   5.495   8.290  0.7407  0.5205  0.4164
  272MOL0     H36696   5.838   5.218   8.191  0.1152 -2.1750  2.9088
  272MOL0     H36697   5.834   5.269   8.358  2.8590  0.1612  2.1628
  272MOL0     H36698   6.051   5.381   8.365  1.9775  0.3109 -0.1775
  272MOL0     H36699   6.051   5.217   8.308 -4.2042 -1.4448 -2.6912
  272MOL0     H36700   5.008   5.070   8.646  1.1315 -0.6876 -0.9173
  272MOL0     H36701   4.787   5.007   8.665 -0.2184 -1.7919 -0.9497
  272MOL0     H36702   4.405   4.757   8.295 -1.2766 -2.4275  2.0583
  272MOL0     H36703   4.160   4.718   8.317 -0.4734  0.4138  1.3933
  272MOL0     H36704   2.809   4.224   7.443  0.3495 -0.7829 -1.0876
  272MOL0     H36705   2.784   4.168   7.203 -0.0576  0.4105  0.4090
  272MOL0     H36706   2.429   4.289   6.834  1.9110 -1.3692  2.1054
  272MOL0     H36707   2.404   4.264   6.581 -0.7739  0.4690  0.0960
  272MOL0     H36708   2.553   4.193   6.234  0.7531 -1.9970  0.5078
  272MOL0     H36709   2.430   4.253   6.352  0.5719  0.4341 -1.4006
  272MOL0     H36710   2.376   4.037   6.228  0.6818  0.8177  0.7334
  272MOL0     H36711   2.374   4.021   6.408  2.1942  0.4209  1.2740
  272MOL0     H36712   2.580   3.904   6.417  0.5811 -0.4157 -0.3419
  272MOL0     H36713   2.593   3.901   6.236 -2.9999  2.0043 -2.6008
  272MOL0     H36714   2.417   3.794   6.189  3.0142  1.0562 -0.6714
  272MOL0     H36715   2.500   3.693   6.311 -0.8064 -0.0198  2.6906
  272MOL0     H36716   2.150   3.777   6.530  1.7836  2.0427  2.0145
  272MOL0     H36717   2.816   4.195   6.531  0.3205  0.7107 -0.6362
  272MOL0     H36718   2.972   4.206   6.707 -0.6269 -1.2919 -0.1953
  272MOL0     H36719   2.935   4.339   6.815  2.6269 -0.4381 -0.4262
  272MOL0     H36720   2.907   4.162   6.864 -1.2059 -2.6081 -2.2007
  273MOL0     O36721   1.705   6.834   1.392  0.1192  0.5879 -0.2349
  273MOL0     C36722   1.611   6.780   1.456  0.2246  0.0174  0.5042
  273MOL0     O36723   1.612   6.754   1.589 -0.3689 -0.0984  0.2492
  273MOL0     C36724   1.740   6.762   1.643 -0.0483 -0.0219 -0.4534
  273MOL0     C36725   1.860   6.703   1.602 -0.4429  0.0137  0.0537
  273MOL0     C36726   1.977   6.709   1.685  0.0868  0.7267 -0.5687
  273MOL0     C36727   1.979   6.781   1.807  0.7588 -0.1304 -0.5567
  273MOL0     O36728   2.079   6.787   1.896 -0.0327 -0.5878 -0.0659
  273MOL0     C36729   2.154   6.663   1.926 -0.1438 -0.4151 -0.0175
  273MOL0     C36730   2.261   6.683   2.035  0.0851 -0.0807  0.3760
  273MOL0     C36731   2.188   6.714   2.166 -0.5393  0.0692  0.1235
  273MOL0     C36732   2.290   6.714   2.290 -1.0799 -0.3625  0.6651
  273MOL0     C36733   2.232   6.686   2.431  0.1404 -0.3954  0.9593
  273MOL0     C36734   2.118   6.781   2.466  0.8001 -0.1072  0.3459
  273MOL0     C36735   1.986   6.720   2.424 -0.2888  0.2206  0.2138
  273MOL0     C36736   1.878   6.823   2.435 -0.3724 -0.0080  0.5709
  273MOL0     N36737   1.761   6.778   2.360 -0.4473 -0.3512 -0.4841
  273MOL0     C36738   1.714   6.869   2.263  0.6711 -0.5345  0.2994
  273MOL0     C36739   1.597   6.813   2.225  0.5185 -0.5098  0.3671
  273MOL0     C36740   1.505   6.862   2.118 -0.1102  0.8090  0.1323
  273MOL0     C36741   1.421   6.987   2.121  0.6857  0.1852  0.7425
  273MOL0     C36742   1.316   6.978   2.234  0.3884 -0.6863 -0.0512
  273MOL0     C36743   1.213   6.873   2.202 -0.3153 -0.5538  0.3016
  273MOL0     O36744   1.125   6.902   2.089 -0.3886 -0.2397 -0.5239
  273MOL0     C36745   1.006   6.840   2.071 -0.2303  0.3667 -0.0302
  273MOL0     C36746   0.969   6.729   2.145  0.4318  0.5036 -0.3899
  273MOL0     C36747   0.855   6.655   2.122  0.1683  0.5268 -0.1083
  273MOL0     C36748   0.767   6.700   2.025 -0.3237 -0.4666 -0.1960
  273MOL0     C36749   0.642   6.615   2.006  0.2861 -0.1150  0.1929
  273MOL0     O36750   0.630   6.496   2.053 -0.1452  0.3553 -0.5172
  273MOL0     C36751   0.536   6.411   1.999  0.1723 -0.5265  0.6036
  273MOL0     C36752   0.395   6.423   2.020  0.2555  0.2030  0.4895
  273MOL0     C36753   0.300   6.339   1.954  0.7592  0.1379  0.7700
  273MOL0     C36754   0.352   6.240   1.857 -0.0606 -0.4251 -1.1101
  273MOL0     O36755   0.276   6.161   1.776 -0.1488  0.6999 -0.0219
  273MOL0     C36756   0.171   6.087   1.843 -0.1070 -0.0518  0.0565
  273MOL0     C36757   0.140   5.954   1.758  0.3817  0.4350 -0.6296
  273MOL0     C36758  -0.002   5.906   1.776 -0.4489 -0.1638  1.0822
  273MOL0     C36759  -0.029   5.751   1.785  1.0869 -1.2314 -0.4337
  273MOL0     C36760  -0.181   5.720   1.822 -0.2681 -0.2564  0.0111
  273MOL0     C36761  -0.272   5.745   1.704 -0.5243 -0.4063 -0.1937
  273MOL0     C36762  -0.405   5.687   1.713 -0.3649 -0.0569  0.1423
  273MOL0     C36763  -0.509   5.781   1.778  0.0577  0.3973 -0.2237
  273MOL0    Cl36764  -0.519   5.759   1.955  0.0595 -0.2435  0.3696
  273MOL0     C36765   0.487   6.226   1.850  0.5505  0.2339 -0.0902
  273MOL0     C36766   0.576   6.310   1.909  0.1351 -0.4741 -0.3620
  273MOL0     O36767   0.564   6.661   1.924 -0.0531  0.2648  0.0907
  273MOL0     C36768   0.789   6.823   1.966 -0.7997 -0.2947 -0.3674
  273MOL0     C36769   0.907   6.890   1.986  0.1003 -0.1791  0.1191
  273MOL0     N36770   1.579   6.697   2.302 -0.2305  0.6456  0.5642
  273MOL0     N36771   1.677   6.686   2.386 -0.3460  0.1213  0.2555
  273MOL0     C36772   1.859   6.838   1.853 -0.0360  0.2021 -0.6034
  273MOL0     C36773   1.740   6.827   1.776 -0.4047 -0.2114  0.6743
  273MOL0     C36774   1.484   6.765   1.382  0.4365  0.3822 -0.8320
  273MOL0     C36775   1.384   6.687   1.447 -0.4503 -0.1102 -0.4402
  273MOL0     C36776   1.270   6.656   1.392  0.1786  0.4597  0.6855
  273MOL0     C36777   1.250   6.676   1.257  0.3602 -0.0178  0.5710
  273MOL0     O36778   1.144   6.628   1.188 -0.1836  0.7978 -0.2605
  273MOL0     C36779   1.025   6.690   1.223  0.6076 -1.0721 -0.4706
  273MOL0     C36780   0.921   6.675   1.117  0.7138 -0.6183  0.6047
  273MOL0     C36781   0.779   6.669   1.172 -0.4379  0.3100  0.5082
  273MOL0     C36782   0.690   6.551   1.120 -0.0025 -0.8115  0.5698
  273MOL0     C36783   0.543   6.555   1.152 -0.8383 -0.6782  0.1715
  273MOL0     C36784   0.425   6.561   1.179 -0.0231  0.4799  0.1375
  273MOL0     C36785   1.337   6.758   1.197  0.2023  0.6622  0.7242
  273MOL0     C36786   1.451   6.799   1.253 -0.7122 -0.4827 -0.4093
  273MOL0     C36787   1.531   6.879   1.158 -0.1652 -0.6728 -0.1274
  273MOL0     H36788   1.874   6.661   1.503 -1.0218  2.3036 -1.0665
  273MOL0     H36789   2.070   6.686   1.635  0.0062 -1.5087  0.1673
  273MOL0     H36790   2.077   6.598   1.971  0.8706 -0.2051  2.1607
  273MOL0     H36791   2.200   6.625   1.834  3.2150  2.9418  0.0270
  273MOL0     H36792   2.332   6.763   2.015 -0.8092  0.8617  0.9177
  273MOL0     H36793   2.318   6.590   2.027 -1.0447 -0.6704 -1.4429
  273MOL0     H36794   2.125   6.625   2.177  2.2296 -1.7886  2.7369
  273MOL0     H36795   2.130   6.807   2.159 -2.1078 -0.8024  0.9249
  273MOL0     H36796   2.378   6.652   2.271 -1.4533 -0.2961 -1.4399
  273MOL0     H36797   2.339   6.812   2.289 -2.1159  0.2057  1.9535
  273MOL0     H36798   2.192   6.584   2.434  1.2170 -0.9387 -1.1781
  273MOL0     H36799   2.306   6.691   2.511  0.5481 -0.3698  0.5809
  273MOL0     H36800   2.126   6.803   2.572 -0.4328  0.8392  0.2634
  273MOL0     H36801   2.125   6.877   2.415  0.5320 -1.8530 -3.3186
  273MOL0     H36802   1.962   6.633   2.485  1.9995 -0.0091  0.8636
  273MOL0     H36803   1.975   6.684   2.321 -1.5908 -2.4528  1.2112
  273MOL0     H36804   1.866   6.833   2.543  0.4694 -1.8071  0.8703
  273MOL0     H36805   1.906   6.916   2.384 -0.0977  0.0017  0.7366
  273MOL0     H36806   1.763   6.955   2.217  1.1872 -1.5158 -1.0303
  273MOL0     H36807   1.572   6.850   2.033 -0.1009 -2.0793  0.4209
  273MOL0     H36808   1.436   6.781   2.091 -2.6043  2.2870  1.7008
  273MOL0     H36809   1.486   7.075   2.130  0.7562  0.6813 -3.0287
  273MOL0     H36810   1.367   7.014   2.030  2.4287  3.6830  0.5719
  273MOL0     H36811   1.251   7.065   2.248  0.5202 -0.4170 -1.0312
  273MOL0     H36812   1.357   6.948   2.332 -2.5434  1.2002  1.8982
  273MOL0     H36813   1.157   6.854   2.294  1.1028  4.1163  2.4318
  273MOL0     H36814   1.253   6.774   2.179 -1.4435 -1.3103  1.4335
  273MOL0     H36815   1.037   6.678   2.213 -1.5636  0.9224  2.0247
  273MOL0     H36816   0.833   6.576   2.193 -0.6971  0.4130 -0.4911
  273MOL0     H36817   0.370   6.508   2.084  1.1844  0.1398  0.9550
  273MOL0     H36818   0.193   6.353   1.960  0.7711  1.4660 -1.3130
  273MOL0     H36819   0.198   6.062   1.946  0.1950 -1.2235 -0.2858
  273MOL0     H36820   0.077   6.143   1.842  0.2447  0.7199  2.8455
  273MOL0     H36821   0.145   5.980   1.652 -4.2142 -0.7787 -1.3546
  273MOL0     H36822   0.217   5.878   1.770 -0.4883 -0.7469 -2.2947
  273MOL0     H36823  -0.037   5.945   1.872  2.1385 -1.2275  2.5611
  273MOL0     H36824  -0.065   5.953   1.700 -0.3395 -1.9021 -0.1478
  273MOL0     H36825   0.039   5.707   1.858 -0.1379 -2.5201 -0.0196
  273MOL0     H36826  -0.018   5.701   1.688 -0.9335 -2.9493  0.1398
  273MOL0     H36827  -0.220   5.790   1.896 -1.8796  0.0219 -1.0516
  273MOL0     H36828  -0.184   5.620   1.866  0.8159 -0.1186  0.4282
  273MOL0     H36829  -0.284   5.854   1.697 -0.3965 -0.1644  2.4497
  273MOL0     H36830  -0.237   5.707   1.608  1.8690  1.5261 -0.2060
  273MOL0     H36831  -0.406   5.587   1.758  0.1201  0.4668  1.3489
  273MOL0     H36832  -0.427   5.672   1.606  3.3034 -1.9356 -0.5542
  273MOL0     H36833  -0.493   5.888   1.765 -0.6089  0.7289  1.4216
  273MOL0     H36834  -0.605   5.752   1.734 -0.2090 -0.0259  0.6244
  273MOL0     H36835   0.514   6.151   1.776  0.4634 -0.9947  1.0840
  273MOL0     H36836   0.682   6.296   1.892  0.2602  1.6995 -1.7574
  273MOL0     H36837   0.718   6.877   1.904 -3.3337 -0.6076  2.0621
  273MOL0     H36838   0.925   6.980   1.929  0.0009  1.8916  3.0974
  273MOL0     H36839   1.852   6.884   1.951 -0.7269 -0.9453 -0.0961
  273MOL0     H36840   1.650   6.867   1.822  0.5108  2.3207  0.4270
  273MOL0     H36841   1.395   6.643   1.546  0.1609 -1.1973 -0.9833
  273MOL0     H36842   1.209   6.594   1.455 -3.0588  0.8105 -1.8411
  273MOL0     H36843   1.050   6.796   1.235  1.5876 -1.5045  1.6033
  273MOL0     H36844   0.994   6.658   1.323 -0.3189  1.4808  0.1495
  273MOL0     H36845   0.943   6.598   1.042 -2.1385 -1.7300  0.7653
  273MOL0     H36846   0.926   6.769   1.061 -0.1505 -1.2678 -0.6253
  273MOL0     H36847   0.735   6.764   1.139 -0.1286  0.8648  1.6609
  273MOL0     H36848   0.775   6.669   1.281 -2.1884  1.1011  0.4776
  273MOL0     H36849   0.696   6.539   1.012 -4.1281 -5.8820  0.5028
  273MOL0     H36850   0.736   6.461   1.161  1.8717 -0.3468 -0.4008
  273MOL0     H36851   0.321   6.567   1.205 -0.5149  2.0708 -1.9711
  273MOL0     H36852   1.321   6.764   1.090  2.7169  1.2772  0.3253
  273MOL0     H36853   1.589   6.817   1.089 -0.1011 -1.0187  0.2409
  273MOL0     H36854   1.465   6.950   1.106 -1.1400 -1.3405  0.1838
  273MOL0     H36855   1.598   6.956   1.198 -0.7971  0.5307 -1.2611
  274MOL0     O36856   8.424   7.474   3.281 -0.2605  0.9069 -0.0742
  274MOL0     C36857   8.385   7.441   3.169 -0.3795 -0.5130 -0.0438
  274MOL0     O36858   8.469   7.409   3.067  1.4650 -0.1622  0.0889
  274MOL0     C36859   8.606   7.410   3.097  0.3465  1.4355 -0.1836
  274MOL0     C36860   8.697   7.513   3.076 -0.1966 -0.1421  0.4655
  274MOL0     C36861   8.834   7.497   3.093 -0.6473 -0.0757 -0.0184
  274MOL0     C36862   8.893   7.376   3.137  1.1774  0.3485  0.5184
  274MOL0     O36863   9.024   7.362   3.154  0.1657  0.0880 -0.4536
  274MOL0     C36864   9.115   7.415   3.064  0.5813  0.2953  0.3410
  274MOL0     C36865   9.260   7.360   3.087  0.1646 -0.4841 -0.3963
  274MOL0     C36866   9.329   7.427   3.220  0.1415 -0.3332  0.3621
  274MOL0     C36867   9.468   7.396   3.261 -0.3578 -0.6859 -0.2463
  274MOL0     C36868   9.505   7.425   3.409 -0.6082  0.0593 -0.6925
  274MOL0     C36869   9.642   7.361   3.436  0.1881  0.0927  0.0162
  274MOL0     C36870   9.709   7.385   3.581 -0.1897 -0.5170 -0.0083
  274MOL0     C36871   9.744   7.530   3.618 -0.4139  0.1185  0.2824
  274MOL0     N36872   9.857   7.559   3.533 -1.1857 -0.8340  0.0087
  274MOL0     C36873   9.855   7.628   3.413  0.6937  0.7985  0.5212
  274MOL0     C36874   9.984   7.630   3.371  0.4398  0.4847  0.0760
  274MOL0     C36875  10.042   7.680   3.242  0.1393  0.9775  0.9983
  274MOL0     C36876  10.193   7.721   3.257 -0.2931  0.6461 -0.1774
  274MOL0     C36877  10.283   7.596   3.254 -0.0130  1.0672 -0.0407
  274MOL0     C36878  10.428   7.610   3.213 -1.3249 -0.1988  0.3816
  274MOL0     O36879  10.509   7.496   3.248 -0.7442  0.3978  0.8633
  274MOL0     C36880  10.637   7.505   3.201 -0.1673 -0.7434  0.3168
  274MOL0     C36881  10.691   7.386   3.162 -0.4875 -0.1033  0.7419
  274MOL0     C36882  10.817   7.368   3.113 -0.2791 -1.3591  0.6037
  274MOL0     C36883  10.890   7.481   3.087 -0.6268  0.4517  0.1827
  274MOL0     C36884  11.023   7.488   3.019  0.0353 -0.1058 -0.6707
  274MOL0     O36885  11.043   7.606   2.951 -0.5859 -0.1773 -0.9336
  274MOL0     C36886  11.163   7.614   2.894  0.1135 -0.0536  0.9672
  274MOL0     C36887  11.168   7.572   2.764  0.5188 -0.6899  0.0033
  274MOL0     C36888  11.288   7.607   2.693  0.2409 -0.2952  0.1233
  274MOL0     C36889  11.390   7.687   2.752  0.5835  0.4047  0.7881
  274MOL0     O36890  11.496   7.734   2.688  0.3807  0.1919 -0.2638
  274MOL0     C36891  11.583   7.662   2.598  0.1958  0.0407 -0.0482
  274MOL0     C36892  11.634   7.751   2.491 -0.7160 -0.1195 -0.1551
  274MOL0     C36893  11.711   7.876   2.556 -0.0257  0.0219  0.4261
  274MOL0     C36894  11.797   7.952   2.444 -0.4298 -0.4962 -0.0267
  274MOL0     C36895  11.862   8.086   2.501  0.4151 -0.6202 -0.1468
  274MOL0     C36896  11.945   8.149   2.387 -0.0419  1.0975 -0.4396
  274MOL0     C36897  12.044   8.246   2.451 -0.5368 -0.5209  0.2823
  274MOL0     C36898  12.119   8.329   2.343 -0.7210  0.6021 -0.0890
  274MOL0    Cl36899  12.002   8.454   2.288  0.3017 -0.1461  0.5596
  274MOL0     C36900  11.382   7.721   2.883  0.5951 -0.5930 -0.1062
  274MOL0     C36901  11.265   7.685   2.952  0.6282  0.4835 -0.2416
  274MOL0     O36902  11.110   7.401   3.039  0.0118  0.4232 -0.2981
  274MOL0     C36903  10.843   7.606   3.126 -0.1716  0.2263  0.0629
  274MOL0     C36904  10.713   7.618   3.182 -0.0422  0.2481 -0.7563
  274MOL0     N36905  10.063   7.585   3.471 -0.6722  0.2888 -0.0782
  274MOL0     N36906   9.990   7.540   3.566  0.0762 -0.4425 -0.6758
  274MOL0     C36907   8.797   7.272   3.167  0.1608  0.1696  0.3971
  274MOL0     C36908   8.661   7.288   3.143  0.7937 -0.6447  1.3925
  274MOL0     C36909   8.232   7.439   3.140  0.3799 -0.8469 -0.4408
  274MOL0     C36910   8.176   7.338   3.053 -0.0628  0.8394  0.2712
  274MOL0     C36911   8.051   7.348   3.009  0.6015  0.2417  0.4350
  274MOL0     C36912   7.966   7.452   3.047  0.5430  0.1468 -0.5798
  274MOL0     O36913   7.841   7.478   2.989 -0.6309 -0.0456 -0.4736
  274MOL0     C36914   7.735   7.521   3.071  0.1689 -0.5643  0.6487
  274MOL0     C36915   7.604   7.520   2.985  0.0249  0.7458  0.1460
  274MOL0     C36916   7.578   7.372   2.949  0.0971  0.3222  0.3920
  274MOL0     C36917   7.447   7.358   2.873  0.9725  0.2818 -0.6210
  274MOL0     C36918   7.349   7.303   2.965  0.4919 -0.6537  0.6353
  274MOL0     C36919   7.280   7.260   3.058 -1.1347  0.2629  0.0146
  274MOL0     C36920   8.007   7.537   3.151 -0.3556  0.0769 -0.2253
  274MOL0     C36921   8.147   7.539   3.187  1.4882  0.4513  0.3691
  274MOL0     C36922   8.193   7.651   3.276 -0.1970  0.6088 -0.4623
  274MOL0     H36923   8.656   7.603   3.031 -0.8853 -1.9443 -2.8792
  274MOL0     H36924   8.893   7.578   3.052  0.4915 -1.4267 -1.1480
  274MOL0     H36925   9.089   7.409   2.958  2.6265  1.9375 -0.3340
  274MOL0     H36926   9.119   7.523   3.082 -1.4644  1.3211 -4.0246
  274MOL0     H36927   9.320   7.379   2.997 -0.4210 -1.2566 -0.9697
  274MOL0     H36928   9.253   7.251   3.085  1.2434 -0.9296  5.3944
  274MOL0     H36929   9.261   7.395   3.299  0.3489 -3.0765 -0.4618
  274MOL0     H36930   9.334   7.536   3.209 -0.2162 -0.1580  1.7889
  274MOL0     H36931   9.469   7.291   3.231  0.9853 -1.3110  1.8001
  274MOL0     H36932   9.536   7.441   3.189  1.4540 -1.0226  1.1931
  274MOL0     H36933   9.514   7.533   3.420 -0.1006  0.1773 -2.0233
  274MOL0     H36934   9.435   7.396   3.488  0.3816  1.1376  0.6248
  274MOL0     H36935   9.633   7.255   3.413 -1.5691  0.1307  0.4291
  274MOL0     H36936   9.711   7.391   3.357  0.2216 -1.9642 -0.7857
  274MOL0     H36937   9.808   7.339   3.581  3.0299  5.4336  1.7341
  274MOL0     H36938   9.644   7.347   3.660  1.6846 -0.6359  1.5542
  274MOL0     H36939   9.653   7.591   3.612 -2.0788 -2.1998  0.8288
  274MOL0     H36940   9.780   7.526   3.721  1.5748  0.2234 -0.3724
  274MOL0     H36941   9.771   7.642   3.345  0.2612 -1.0909  0.6205
  274MOL0     H36942  10.029   7.608   3.161  1.1316  0.0041  1.6769
  274MOL0     H36943   9.986   7.770   3.215 -0.3488  0.4359  0.1540
  274MOL0     H36944  10.222   7.791   3.178  2.6883  1.0834  1.2000
  274MOL0     H36945  10.216   7.774   3.349  0.1313 -2.4302  1.6306
  274MOL0     H36946  10.235   7.520   3.192 -0.6617  1.3738  0.0783
  274MOL0     H36947  10.299   7.556   3.354  0.0299  0.0301 -0.4533
  274MOL0     H36948  10.463   7.704   3.257  2.7865  1.2824 -4.9966
  274MOL0     H36949  10.445   7.630   3.107  2.0867  0.4694  0.9561
  274MOL0     H36950  10.637   7.295   3.188  0.9665 -1.7872 -1.7052
  274MOL0     H36951  10.858   7.269   3.095  3.0909 -0.2321  1.3799
  274MOL0     H36952  11.083   7.514   2.732 -0.1163  0.9392 -1.4246
  274MOL0     H36953  11.297   7.576   2.589  0.5319  0.0006  0.0611
  274MOL0     H36954  11.660   7.615   2.659 -1.1939 -1.7572  0.3750
  274MOL0     H36955  11.520   7.584   2.555 -0.8893  0.2211  1.1757
  274MOL0     H36956  11.708   7.700   2.428  1.9073  1.5842  1.3413
  274MOL0     H36957  11.549   7.779   2.428 -0.9471 -0.9117 -0.2045
  274MOL0     H36958  11.628   7.941   2.587  0.5645  2.6378 -2.8979
  274MOL0     H36959  11.760   7.866   2.653  0.1727  2.0891  0.5868
  274MOL0     H36960  11.731   7.975   2.360 -0.5859 -0.1120  0.1983
  274MOL0     H36961  11.879   7.894   2.400  2.5724  0.0135  4.1929
  274MOL0     H36962  11.917   8.060   2.592  0.8398 -1.8113 -0.7279
  274MOL0     H36963  11.783   8.153   2.536  2.4954  1.9246  0.0449
  274MOL0     H36964  11.996   8.065   2.339 -1.4042  1.0403 -1.9042
  274MOL0     H36965  11.883   8.199   2.311 -3.0635 -0.1439  1.0208
  274MOL0     H36966  12.104   8.189   2.522 -2.1091 -1.0515  1.2493
  274MOL0     H36967  11.988   8.322   2.506  0.5773  2.2585 -2.2008
  274MOL0     H36968  12.214   8.372   2.374  0.0317 -1.6600  0.9548
  274MOL0     H36969  12.147   8.265   2.259  0.1122  0.0566  0.5823
  274MOL0     H36970  11.459   7.780   2.933  0.4431 -1.3853  1.1149
  274MOL0     H36971  11.240   7.703   3.056  2.6916 -0.7402  0.5403
  274MOL0     H36972  10.898   7.699   3.117  1.7772 -1.0167 -2.0112
  274MOL0     H36973  10.679   7.718   3.210 -0.9229 -0.1529 -0.3686
  274MOL0     H36974   8.826   7.177   3.212 -1.2980 -0.8085 -0.6118
  274MOL0     H36975   8.603   7.197   3.160  1.3108 -1.1130  0.6911
  274MOL0     H36976   8.247   7.263   3.018  2.8786  3.5832 -0.0409
  274MOL0     H36977   8.018   7.280   2.931  0.5373  0.8655 -0.0858
  274MOL0     H36978   7.753   7.626   3.098 -1.8427  0.2297 -0.7896
  274MOL0     H36979   7.714   7.456   3.156 -3.8662  2.0973  1.9310
  274MOL0     H36980   7.609   7.571   2.888 -3.4875 -2.7353 -2.2242
  274MOL0     H36981   7.518   7.553   3.044  0.8259 -1.7214  2.9437
  274MOL0     H36982   7.596   7.310   3.037  2.2099  2.7028  1.7985
  274MOL0     H36983   7.654   7.337   2.877  0.4254  0.8545  0.4686
  274MOL0     H36984   7.401   7.453   2.846  0.8533  1.1345  2.2589
  274MOL0     H36985   7.455   7.293   2.786  1.7575 -1.3297  0.6045
  274MOL0     H36986   7.232   7.236   3.151  0.7349  2.8816  1.7925
  274MOL0     H36987   7.945   7.622   3.178 -1.3832 -0.7936  0.2163
  274MOL0     H36988   8.209   7.618   3.379  2.5209 -0.5140 -1.1320
  274MOL0     H36989   8.286   7.693   3.235 -0.1403  0.8831 -0.0535
  274MOL0     H36990   8.119   7.731   3.280 -0.8048  0.3249 -3.4978
  275MOL0     O36991   5.746   4.140   2.083 -0.2085  0.1593  0.1887
  275MOL0     C36992   5.624   4.147   2.101  0.0001 -1.1148  0.1176
  275MOL0     O36993   5.550   4.094   2.199  0.2935  1.0120  0.4922
  275MOL0     C36994   5.626   4.048   2.304 -1.1997 -0.4936 -0.2862
  275MOL0     C36995   5.669   4.143   2.399  0.3118  0.1945  0.0908
  275MOL0     C36996   5.749   4.099   2.506 -0.3099  0.2651 -0.2196
  275MOL0     C36997   5.778   3.958   2.530  0.1783 -0.1345 -0.1935
  275MOL0     O36998   5.843   3.910   2.644 -0.0112  0.4656 -0.1528
  275MOL0     C36999   5.887   4.000   2.750 -0.0779 -0.0218  0.1154
  275MOL0     C37000   6.018   3.950   2.825 -0.1601  0.2046  0.4276
  275MOL0     C37001   6.004   3.804   2.880  0.4866  1.1388  0.5103
  275MOL0     C37002   6.105   3.763   2.987 -0.3933  0.7364  0.0791
  275MOL0     C37003   6.067   3.637   3.063  0.3335  0.5349 -0.0994
  275MOL0     C37004   6.191   3.606   3.159  0.4273  0.3925  0.5809
  275MOL0     C37005   6.165   3.461   3.206 -0.7199 -0.0385 -0.5069
  275MOL0     C37006   6.278   3.426   3.302 -0.1191 -0.8064 -0.0057
  275MOL0     N37007   6.408   3.378   3.230  0.1654  0.0339  0.4528
  275MOL0     C37008   6.415   3.254   3.172  0.2861  0.5010  0.3969
  275MOL0     C37009   6.537   3.251   3.113 -0.1590  1.0139  0.1711
  275MOL0     C37010   6.584   3.158   3.010  0.6738  0.7639 -0.0772
  275MOL0     C37011   6.739   3.152   3.006  0.4206  0.3601 -0.4648
  275MOL0     C37012   6.783   3.062   2.886  0.6619 -0.2630 -1.1495
  275MOL0     C37013   6.927   3.027   2.888  0.8251 -0.4270 -0.4679
  275MOL0     O37014   6.961   2.925   2.990  0.3166 -0.3190 -0.1545
  275MOL0     C37015   7.050   2.955   3.092  0.2685  0.1636  0.5094
  275MOL0     C37016   7.102   2.846   3.136 -0.5065  0.8653 -0.2462
  275MOL0     C37017   7.187   2.843   3.241  1.0125 -0.1356 -0.0372
  275MOL0     C37018   7.225   2.960   3.307  0.2715  0.9453 -0.5199
  275MOL0     C37019   7.318   2.961   3.426 -0.1242  0.0501 -0.4477
  275MOL0     O37020   7.341   3.081   3.486  0.3656  0.6627  0.3283
  275MOL0     C37021   7.442   3.079   3.586  0.2397  0.1785  0.6623
  275MOL0     C37022   7.406   3.128   3.707  0.1344 -0.7450 -0.3751
  275MOL0     C37023   7.499   3.126   3.815 -0.0280 -0.0953  1.0509
  275MOL0     C37024   7.635   3.099   3.775  0.4469 -0.1886 -0.5764
  275MOL0     O37025   7.724   3.110   3.875  0.6550 -0.3684 -0.0002
  275MOL0     C37026   7.851   3.162   3.833 -0.1484  0.6428  0.8215
  275MOL0     C37027   7.845   3.319   3.836 -0.2180  0.2669  0.5202
  275MOL0     C37028   7.989   3.369   3.871 -1.0658 -0.3858  0.6015
  275MOL0     C37029   7.988   3.506   3.944  0.0363  0.2498  0.2408
  275MOL0     C37030   8.132   3.544   3.988 -0.1750  0.0784 -0.5891
  275MOL0     C37031   8.220   3.591   3.869 -0.8933 -0.5146 -0.2715
  275MOL0     C37032   8.370   3.601   3.915 -0.2000 -0.0182 -0.5624
  275MOL0     C37033   8.440   3.465   3.945  0.3326  0.2345 -0.4564
  275MOL0    Cl37034   8.610   3.492   3.981  0.0001  0.1099 -0.3468
  275MOL0     C37035   7.667   3.046   3.654  0.8093  0.3193 -0.2144
  275MOL0     C37036   7.574   3.041   3.550 -0.5411  0.0962  0.8341
  275MOL0     O37037   7.357   2.851   3.463  0.0248  0.1358  0.4873
  275MOL0     C37038   7.169   3.078   3.259  0.0541  0.1285 -0.1846
  275MOL0     C37039   7.082   3.081   3.150  0.3912 -0.2054 -0.9584
  275MOL0     N37040   6.607   3.367   3.139  0.2326 -0.5328  0.1188
  275MOL0     N37041   6.531   3.441   3.212  0.1653 -0.2480  1.1727
  275MOL0     C37042   5.737   3.869   2.429  0.5352 -0.9537  0.9697
  275MOL0     C37043   5.656   3.911   2.323  0.8088  0.1284  1.0682
  275MOL0     C37044   5.554   4.212   1.988 -0.3498 -0.2756  0.3563
  275MOL0     C37045   5.633   4.268   1.884  0.0522 -0.2052 -0.2562
  275MOL0     C37046   5.582   4.327   1.766  1.4150 -0.8566  0.0236
  275MOL0     C37047   5.447   4.341   1.747  0.6571 -0.3927  0.3281
  275MOL0     O37048   5.382   4.414   1.656  0.1782 -1.0647 -0.1436
  275MOL0     C37049   5.438   4.432   1.527  0.2874 -0.2474 -0.0212
  275MOL0     C37050   5.397   4.565   1.465 -0.1992 -0.2322  0.1326
  275MOL0     C37051   5.442   4.692   1.538  0.9496  0.1271  0.5735
  275MOL0     C37052   5.404   4.822   1.468  0.0539 -0.5101 -0.7615
  275MOL0     C37053   5.453   4.939   1.542  0.3091  0.0477 -0.2717
  275MOL0     C37054   5.483   5.042   1.595 -0.4792 -0.1596  1.0535
  275MOL0     C37055   5.368   4.273   1.839  0.0167 -0.2357 -0.6952
  275MOL0     C37056   5.417   4.226   1.962  0.2628 -0.3357  0.3494
  275MOL0     C37057   5.320   4.173   2.060  0.4119 -0.3596  0.0892
  275MOL0     H37058   5.635   4.246   2.390 -1.1961 -0.3085 -0.2255
  275MOL0     H37059   5.781   4.181   2.570  0.7081  0.4122 -0.9017
  275MOL0     H37060   5.908   4.097   2.703 -2.2025 -0.7300 -2.5844
  275MOL0     H37061   5.802   3.995   2.819  1.0738 -0.5225  1.5516
  275MOL0     H37062   6.041   4.026   2.901 -0.3488 -0.0951  0.7893
  275MOL0     H37063   6.094   3.941   2.747 -1.2119 -0.7482 -0.5370
  275MOL0     H37064   5.999   3.724   2.806 -2.6835 -0.7031  2.4477
  275MOL0     H37065   5.912   3.784   2.937  0.1252 -0.2828 -0.5248
  275MOL0     H37066   6.203   3.752   2.938 -1.3259  2.0343 -2.2348
  275MOL0     H37067   6.100   3.847   3.056  1.8357  0.0638  1.1695
  275MOL0     H37068   5.970   3.650   3.111 -0.1788 -0.5518 -0.8029
  275MOL0     H37069   6.062   3.555   2.990  3.0645  0.6177 -0.5170
  275MOL0     H37070   6.284   3.612   3.102 -0.6288  0.2854 -1.2290
  275MOL0     H37071   6.184   3.671   3.247 -2.4793  2.1362 -0.7905
  275MOL0     H37072   6.168   3.390   3.122  1.4823  0.4291 -0.8774
  275MOL0     H37073   6.066   3.454   3.253 -1.6187  0.6038 -2.2196
  275MOL0     H37074   6.298   3.503   3.377  0.0784 -2.3739  1.6201
  275MOL0     H37075   6.242   3.339   3.358  2.2849 -1.5407  0.5503
  275MOL0     H37076   6.331   3.188   3.153 -1.0178  2.3784 -0.6629
  275MOL0     H37077   6.545   3.059   3.037  0.7249  1.2248  1.8113
  275MOL0     H37078   6.543   3.190   2.914 -2.5771  0.5480  1.1198
  275MOL0     H37079   6.776   3.252   2.982  1.2434 -0.0131 -0.8074
  275MOL0     H37080   6.775   3.114   3.102 -0.2991 -0.3762 -0.4771
  275MOL0     H37081   6.756   3.112   2.792 -3.3101  1.3045  0.6401
  275MOL0     H37082   6.719   2.973   2.892  0.9427 -0.4115 -0.2931
  275MOL0     H37083   6.986   3.119   2.893 -1.0092  0.7488  0.7426
  275MOL0     H37084   6.950   2.988   2.789  1.1713  0.1207 -0.6070
  275MOL0     H37085   7.065   2.752   3.097  1.4359  0.2365 -0.6955
  275MOL0     H37086   7.214   2.747   3.284 -0.5667 -0.8705 -0.6165
  275MOL0     H37087   7.310   3.169   3.736  0.4951 -1.5491  2.1692
  275MOL0     H37088   7.483   3.157   3.917 -1.0636 -3.9645  2.2589
  275MOL0     H37089   7.927   3.125   3.903 -1.3156  0.5449  2.0871
  275MOL0     H37090   7.880   3.147   3.729  0.0758  1.7266  0.7148
  275MOL0     H37091   7.815   3.358   3.738 -0.5916  2.4388  1.4226
  275MOL0     H37092   7.758   3.352   3.895  0.3142  2.2930  0.2679
  275MOL0     H37093   8.042   3.305   3.941 -3.0385  0.5390  3.0925
  275MOL0     H37094   8.050   3.374   3.780  0.0972 -0.7569  1.3346
  275MOL0     H37095   7.919   3.495   4.028  0.2413 -0.8839  0.2843
  275MOL0     H37096   7.952   3.583   3.875 -0.6995 -1.7099 -1.6738
  275MOL0     H37097   8.172   3.458   4.043 -0.7134  1.0844  1.4660
  275MOL0     H37098   8.134   3.623   4.064 -2.1243 -0.6949  0.3455
  275MOL0     H37099   8.212   3.529   3.779  1.2999  0.2982 -1.0806
  275MOL0     H37100   8.182   3.690   3.843  1.2628  0.6661  0.8231
  275MOL0     H37101   8.390   3.660   4.005  1.3719 -4.7384  2.5593
  275MOL0     H37102   8.424   3.653   3.835 -1.1049  0.7307 -0.7107
  275MOL0     H37103   8.400   3.430   4.040  3.0198  0.0250  0.6804
  275MOL0     H37104   8.420   3.398   3.860  1.3961  1.4213 -1.6976
  275MOL0     H37105   7.767   3.013   3.630  0.0290 -0.4712 -2.5977
  275MOL0     H37106   7.610   3.019   3.450  1.8454  2.9687  0.8995
  275MOL0     H37107   7.203   3.166   3.312  1.2405  0.4118 -1.3615
  275MOL0     H37108   7.039   3.177   3.125  2.3550  0.8416 -0.5416
  275MOL0     H37109   5.767   3.766   2.441 -1.7062 -2.2398 -2.7108
  275MOL0     H37110   5.617   3.829   2.262  1.5002  0.1021  0.6507
  275MOL0     H37111   5.741   4.266   1.887  0.1362  0.1437 -2.1128
  275MOL0     H37112   5.651   4.368   1.693 -0.3830  0.3654 -1.0894
  275MOL0     H37113   5.420   4.345   1.463  2.9144  0.3370 -1.7051
  275MOL0     H37114   5.547   4.430   1.525  0.3372  1.4815 -0.9331
  275MOL0     H37115   5.289   4.569   1.455 -0.2679 -0.0945  0.8787
  275MOL0     H37116   5.449   4.581   1.370 -0.1774  2.0369  0.4509
  275MOL0     H37117   5.551   4.692   1.533  0.8800 -0.8638 -2.0322
  275MOL0     H37118   5.402   4.693   1.640  0.3531 -1.8139  0.3997
  275MOL0     H37119   5.445   4.841   1.368  0.8281 -1.5985 -0.6690
  275MOL0     H37120   5.295   4.822   1.460  0.1183  0.3269 -2.0657
  275MOL0     H37121   5.508   5.136   1.640  0.4876 -0.4357  1.1279
  275MOL0     H37122   5.265   4.254   1.812 -0.6479  1.1214  0.7202
  275MOL0     H37123   5.223   4.220   2.040  0.1981  1.0103  3.6049
  275MOL0     H37124   5.299   4.065   2.058  0.3458 -0.3584 -2.0210
  275MOL0     H37125   5.347   4.195   2.164  2.5540 -0.5358 -0.3898
  276MOL0     O37126   5.679   5.919   4.473 -0.3500 -0.1151  0.0358
  276MOL0     C37127   5.600   6.009   4.477  1.1959  0.0964 -0.7749
  276MOL0     O37128   5.599   6.115   4.557  0.2189 -0.7252  0.3642
  276MOL0     C37129   5.719   6.164   4.597 -0.8823  0.6935  0.4290
  276MOL0     C37130   5.756   6.125   4.720 -0.0300  0.0661 -0.1202
  276MOL0     C37131   5.883   6.162   4.778 -0.2762  0.8273  0.3184
  276MOL0     C37132   5.972   6.242   4.704 -0.9087  0.8276 -1.0087
  276MOL0     O37133   6.088   6.277   4.764 -0.4902 -1.0570  0.2988
  276MOL0     C37134   6.202   6.307   4.678 -0.0830  0.0091  0.5378
  276MOL0     C37135   6.204   6.454   4.655 -0.4858  0.0152 -0.2914
  276MOL0     C37136   6.348   6.507   4.611  1.0174 -0.1465 -0.2237
  276MOL0     C37137   6.449   6.518   4.727 -0.2077 -0.6547 -0.0532
  276MOL0     C37138   6.590   6.547   4.683  0.3413 -0.1380  0.1108
  276MOL0     C37139   6.671   6.423   4.698  0.1729  0.1992 -0.4762
  276MOL0     C37140   6.817   6.442   4.649 -0.2253 -0.2467  0.2138
  276MOL0     C37141   6.901   6.540   4.740  0.2203  0.3488 -1.0352
  276MOL0     N37142   7.044   6.536   4.702 -0.8654  0.5715  0.0218
  276MOL0     C37143   7.091   6.531   4.571 -0.5594 -0.1634 -0.9306
  276MOL0     C37144   7.224   6.522   4.585  0.1846  0.7077 -0.1265
  276MOL0     C37145   7.318   6.500   4.474  0.6610  0.3326  0.4882
  276MOL0     C37146   7.465   6.481   4.509 -0.4338  0.1489  0.0255
  276MOL0     C37147   7.479   6.359   4.596 -0.7606  0.7534  0.3519
  276MOL0     C37148   7.606   6.282   4.552  0.3279 -0.1944 -0.6732
  276MOL0     O37149   7.720   6.366   4.584 -0.0294  0.6948 -0.3883
  276MOL0     C37150   7.833   6.306   4.635  0.8051 -0.0983 -0.8980
  276MOL0     C37151   7.926   6.396   4.669  0.2974 -0.0051 -0.4319
  276MOL0     C37152   8.045   6.357   4.723  0.4867 -0.4756  0.2015
  276MOL0     C37153   8.081   6.218   4.730 -0.0492 -0.4584 -0.7849
  276MOL0     C37154   8.206   6.170   4.785 -0.7873  0.1259 -0.0470
  276MOL0     O37155   8.305   6.265   4.806 -0.0587  0.6340  1.0933
  276MOL0     C37156   8.439   6.230   4.827 -0.6815 -0.1455 -0.7156
  276MOL0     C37157   8.501   6.111   4.790 -0.0225 -0.0012  0.8228
  276MOL0     C37158   8.638   6.089   4.807 -0.1559  0.0948 -1.0839
  276MOL0     C37159   8.715   6.192   4.873 -0.5774  0.9790 -0.0159
  276MOL0     O37160   8.849   6.186   4.896  0.7549 -0.2278 -0.3586
  276MOL0     C37161   8.914   6.081   4.828 -0.6258 -0.5868  0.6047
  276MOL0     C37162   9.069   6.094   4.853  0.1297 -0.3135 -0.1445
  276MOL0     C37163   9.149   5.973   4.814 -0.3083  0.3681  0.5016
  276MOL0     C37164   9.296   6.020   4.814 -1.3860  0.4977 -0.3417
  276MOL0     C37165   9.397   5.908   4.836  0.5646 -0.6846  0.1085
  276MOL0     C37166   9.478   5.849   4.712  0.3224  0.5709 -0.2444
  276MOL0     C37167   9.528   5.706   4.737  0.0924  0.1259 -0.3957
  276MOL0     C37168   9.647   5.667   4.656  0.9471 -0.2442  0.6595
  276MOL0    Cl37169   9.707   5.514   4.726  0.0942  0.4012 -0.5372
  276MOL0     C37170   8.654   6.311   4.913 -0.7533  0.3509 -0.9401
  276MOL0     C37171   8.522   6.330   4.883 -0.0047  0.0239  0.4480
  276MOL0     O37172   8.213   6.051   4.813 -0.4428  1.0487  0.0924
  276MOL0     C37173   7.980   6.131   4.699 -0.0920  0.6787  0.0435
  276MOL0     C37174   7.858   6.170   4.652  0.4824 -0.8626 -0.0206
  276MOL0     N37175   7.258   6.515   4.719  0.4304 -0.1253  0.1651
  276MOL0     N37176   7.153   6.524   4.793 -0.4117  0.6817  0.6855
  276MOL0     C37177   5.927   6.280   4.573  0.3791  0.5631  0.2609
  276MOL0     C37178   5.803   6.236   4.515  0.0526 -0.1899 -1.1967
  276MOL0     C37179   5.489   5.994   4.386  0.1673  0.3271 -0.7547
  276MOL0     C37180   5.359   6.047   4.422 -0.5097 -0.7156  0.5488
  276MOL0     C37181   5.242   6.026   4.354 -0.9153 -0.3024  0.0745
  276MOL0     C37182   5.244   5.933   4.247 -0.0455  0.5902 -0.0260
  276MOL0     O37183   5.128   5.894   4.180 -1.2776 -0.7137 -0.2876
  276MOL0     C37184   5.014   5.976   4.205  0.1933  0.3623  0.3920
  276MOL0     C37185   4.895   5.916   4.113  0.2300  0.7026  0.2074
  276MOL0     C37186   4.882   6.003   3.983 -0.0275 -0.3451 -0.4048
  276MOL0     C37187   4.766   5.977   3.897  0.3198  0.1581 -0.5426
  276MOL0     C37188   4.637   5.991   3.981 -0.0234 -0.7883  0.2774
  276MOL0     C37189   4.531   6.004   4.039 -0.3765  0.3884 -0.0276
  276MOL0     C37190   5.366   5.883   4.203 -0.3136  0.5203 -0.5333
  276MOL0     C37191   5.489   5.920   4.267  0.4818  1.1678  0.3238
  276MOL0     C37192   5.612   5.889   4.193 -0.5514 -0.0516 -0.2562
  276MOL0     H37193   5.689   6.058   4.771  0.2912  0.5070  0.9039
  276MOL0     H37194   5.905   6.138   4.881  1.8002  1.6913  0.1159
  276MOL0     H37195   6.289   6.279   4.739  0.9257 -3.2301 -2.0412
  276MOL0     H37196   6.198   6.248   4.586  1.9718 -0.6944  0.8525
  276MOL0     H37197   6.182   6.503   4.750  0.7747  1.1751 -0.5738
  276MOL0     H37198   6.119   6.465   4.587 -2.3724 -2.0330  1.5818
  276MOL0     H37199   6.337   6.605   4.564  4.4065  1.0370  1.1205
  276MOL0     H37200   6.384   6.450   4.525  0.7863  0.6617 -0.8588
  276MOL0     H37201   6.420   6.603   4.789  0.4349  0.7887 -1.6346
  276MOL0     H37202   6.436   6.440   4.802  1.6114  0.5606  1.6238
  276MOL0     H37203   6.612   6.580   4.581  0.2179  0.3194  0.2312
  276MOL0     H37204   6.628   6.610   4.765 -0.4879 -0.4261  0.7326
  276MOL0     H37205   6.665   6.382   4.799  0.1187 -2.1067 -1.3552
  276MOL0     H37206   6.616   6.352   4.636 -1.6616 -2.7472  4.0703
  276MOL0     H37207   6.801   6.479   4.548  0.6961  0.4494  0.3095
  276MOL0     H37208   6.864   6.343   4.643 -0.3496 -0.3398  0.7182
  276MOL0     H37209   6.861   6.641   4.726  0.9335  0.7041 -0.5644
  276MOL0     H37210   6.888   6.503   4.842 -2.2354  0.9342 -1.0921
  276MOL0     H37211   7.030   6.537   4.482 -2.4457 -1.9797  0.1378
  276MOL0     H37212   7.283   6.420   4.408  1.4796 -0.4753  1.0208
  276MOL0     H37213   7.305   6.598   4.427 -0.8503 -0.2001 -0.3041
  276MOL0     H37214   7.528   6.472   4.420  0.7480 -2.8019  1.0192
  276MOL0     H37215   7.512   6.566   4.559  3.5112  0.5915 -3.8581
  276MOL0     H37216   7.397   6.290   4.573  0.8060 -0.8318 -0.7796
  276MOL0     H37217   7.467   6.390   4.700  0.1064  0.5426  0.5159
  276MOL0     H37218   7.592   6.247   4.449 -2.0214 -4.0896  0.7379
  276MOL0     H37219   7.608   6.202   4.626 -1.3909 -0.1529 -0.5408
  276MOL0     H37220   7.905   6.502   4.658  0.6075  0.1785  0.6611
  276MOL0     H37221   8.107   6.434   4.766  2.2325 -0.0126 -2.8520
  276MOL0     H37222   8.449   6.032   4.737  0.1962  0.8751 -0.7507
  276MOL0     H37223   8.688   6.005   4.760 -0.2965 -1.2624  1.0317
  276MOL0     H37224   8.883   5.986   4.872 -0.2411 -0.8898  0.2313
  276MOL0     H37225   8.902   6.087   4.719  1.0037 -2.8022  0.2348
  276MOL0     H37226   9.111   6.172   4.789 -0.2578  0.4123  0.4738
  276MOL0     H37227   9.085   6.129   4.956  2.4598 -0.8392 -0.2695
  276MOL0     H37228   9.147   5.903   4.899  1.6063  1.3473  1.4230
  276MOL0     H37229   9.114   5.921   4.724 -0.5370 -0.3383  0.9911
  276MOL0     H37230   9.320   6.086   4.898  1.7779  0.7119 -1.2569
  276MOL0     H37231   9.329   6.076   4.726  1.2189  0.4783  0.5130
  276MOL0     H37232   9.332   5.826   4.867  0.3583 -2.1884 -3.8027
  276MOL0     H37233   9.473   5.950   4.903  1.2523 -0.2793 -0.9047
  276MOL0     H37234   9.417   5.846   4.621  1.6030  0.6971 -1.1287
  276MOL0     H37235   9.562   5.915   4.692  0.7544  0.9895  2.5391
  276MOL0     H37236   9.446   5.637   4.714 -0.7073  1.3292 -1.3258
  276MOL0     H37237   9.553   5.694   4.843 -1.5303  2.0936  0.2715
  276MOL0     H37238   9.617   5.655   4.552 -0.6970  0.4945  1.0033
  276MOL0     H37239   9.725   5.743   4.671  1.3972 -1.1767  3.9540
  276MOL0     H37240   8.714   6.390   4.959 -0.7312 -0.9106  1.3363
  276MOL0     H37241   8.462   6.416   4.911 -3.2138 -1.6061 -0.8859
  276MOL0     H37242   7.993   6.024   4.717  0.9643  0.9234  0.7851
  276MOL0     H37243   7.784   6.093   4.630 -0.4606 -0.4933  1.6007
  276MOL0     H37244   5.990   6.342   4.511 -2.0495  2.6723 -0.2773
  276MOL0     H37245   5.773   6.262   4.415  0.1359  2.6989 -0.5626
  276MOL0     H37246   5.348   6.111   4.509  0.2246 -0.3625  0.3936
  276MOL0     H37247   5.151   6.068   4.395 -0.6667 -1.3093  1.7720
  276MOL0     H37248   5.028   6.082   4.180 -1.1547  0.4411 -0.1095
  276MOL0     H37249   4.993   5.954   4.310  0.4794 -3.4930 -0.2201
  276MOL0     H37250   4.804   5.915   4.173  0.1220  1.4125  0.0653
  276MOL0     H37251   4.926   5.820   4.073  2.0573  1.1934  0.3334
  276MOL0     H37252   4.973   5.990   3.924  1.2619  1.6887  0.9806
  276MOL0     H37253   4.875   6.108   4.013 -0.1234  0.2395 -2.3459
  276MOL0     H37254   4.753   6.056   3.822  1.8878  2.0623  1.0898
  276MOL0     H37255   4.778   5.874   3.861  0.4266 -0.1867  0.4592
  276MOL0     H37256   4.442   6.027   4.094 -1.0383 -0.2998 -0.7923
  276MOL0     H37257   5.371   5.822   4.114 -0.7053 -2.0680  1.0935
  276MOL0     H37258   5.664   5.794   4.212 -0.2617 -0.0042 -0.7926
  276MOL0     H37259   5.596   5.887   4.085  2.1182 -2.6249 -0.7514
  276MOL0     H37260   5.685   5.958   4.236 -2.3092 -0.7220  4.3082
  277MOL0     O37261   2.771   6.613   7.009  0.4977 -0.4996  0.5531
  277MOL0     C37262   2.822   6.654   6.905  0.3604 -0.8588 -0.3947
  277MOL0     O37263   2.949   6.618   6.879  0.2335  0.6564  0.4221
  277MOL0     C37264   3.019   6.527   6.959 -0.0929 -0.0712  0.2396
  277MOL0     C37265   3.143   6.575   7.024  0.2378 -0.1204  0.5743
  277MOL0     C37266   3.229   6.480   7.084 -0.1590  0.6717  0.1657
  277MOL0     C37267   3.214   6.342   7.057  0.3018 -0.2061  0.1917
  277MOL0     O37268   3.292   6.260   7.121  0.0674  0.0596  0.9919
  277MOL0     C37269   3.287   6.277   7.264 -0.5108 -0.8948  0.2466
  277MOL0     C37270   3.396   6.194   7.326  0.3897  0.1775 -1.2769
  277MOL0     C37271   3.363   6.185   7.483  0.3882  0.8787 -0.0382
  277MOL0     C37272   3.416   6.055   7.541  0.2454  0.3375  0.6400
  277MOL0     C37273   3.401   6.053   7.695 -0.1872  0.5843  0.0233
  277MOL0     C37274   3.473   5.926   7.753 -0.8243 -0.0978 -0.0146
  277MOL0     C37275   3.626   5.967   7.773 -0.1741  0.5994 -0.6852
  277MOL0     C37276   3.699   5.843   7.825  0.2483  0.2220  0.0580
  277MOL0     N37277   3.831   5.871   7.881 -0.5878  0.5865 -0.2515
  277MOL0     C37278   3.951   5.867   7.815  0.4078 -0.4764  0.5154
  277MOL0     C37279   4.052   5.891   7.906  0.0299  0.1146 -0.6815
  277MOL0     C37280   4.210   5.896   7.886  0.9880  0.4879 -0.5116
  277MOL0     C37281   4.258   6.033   7.847 -0.7694 -0.0467 -0.0472
  277MOL0     C37282   4.400   6.020   7.794  0.1237 -0.0560  0.0088
  277MOL0     C37283   4.488   6.144   7.819  0.1200 -0.3236  0.0733
  277MOL0     O37284   4.605   6.113   7.748 -0.7109 -0.6279 -0.0474
  277MOL0     C37285   4.689   6.226   7.728  0.0411 -0.7338 -0.3540
  277MOL0     C37286   4.687   6.337   7.816 -0.8260  0.1392 -0.4263
  277MOL0     C37287   4.750   6.453   7.781 -0.2035 -0.6087 -1.1659
  277MOL0     C37288   4.833   6.460   7.666 -0.6304 -0.2638  0.8968
  277MOL0     C37289   4.919   6.576   7.624 -0.5024  0.5412  0.5479
  277MOL0     O37290   5.023   6.548   7.533  0.3953 -0.5350  0.1655
  277MOL0     C37291   5.091   6.659   7.487 -0.1971  0.6248  0.1252
  277MOL0     C37292   5.022   6.766   7.437 -0.4233  0.2657 -0.5291
  277MOL0     C37293   5.084   6.886   7.396 -0.5114  0.4671  0.0271
  277MOL0     C37294   5.230   6.883   7.404 -0.3068  0.6476 -0.4754
  277MOL0     O37295   5.301   6.977   7.339  0.4270 -0.2820  0.4821
  277MOL0     C37296   5.295   7.099   7.412 -0.7367 -0.2537  0.4340
  277MOL0     C37297   5.380   7.199   7.339 -0.9743 -0.7382 -0.2598
  277MOL0     C37298   5.532   7.196   7.351 -0.2748 -0.2093  0.1224
  277MOL0     C37299   5.597   7.321   7.281 -0.3089  0.6943 -0.1634
  277MOL0     C37300   5.723   7.295   7.205 -0.4833 -0.4585 -1.2502
  277MOL0     C37301   5.842   7.225   7.282 -0.1791 -0.3755  0.3805
  277MOL0     C37302   5.952   7.185   7.185 -0.4117 -0.2609  0.1355
  277MOL0     C37303   6.025   7.295   7.112  0.1766 -0.1802  0.0473
  277MOL0    Cl37304   6.188   7.227   7.069  0.1215 -0.1253 -0.4586
  277MOL0     C37305   5.300   6.773   7.442  0.4855  0.4409 -0.3133
  277MOL0     C37306   5.227   6.657   7.478 -1.0242  0.3863 -0.5023
  277MOL0     O37307   4.882   6.687   7.661  0.9340  0.4597 -0.3967
  277MOL0     C37308   4.841   6.343   7.583  0.7738  0.1772  0.0765
  277MOL0     C37309   4.767   6.228   7.617  0.4747  0.3026  0.5900
  277MOL0     N37310   3.985   5.911   8.027 -0.5947 -0.5792  0.1788
  277MOL0     N37311   3.854   5.905   8.008  0.4429 -0.7137 -1.1141
  277MOL0     C37312   3.098   6.301   6.987 -0.0097  0.5629  1.0312
  277MOL0     C37313   3.001   6.391   6.947 -0.1911  0.2345  0.4264
  277MOL0     C37314   2.750   6.747   6.816  0.6762  0.4527  0.4937
  277MOL0     C37315   2.826   6.816   6.727  1.4232  0.6160 -0.8459
  277MOL0     C37316   2.763   6.907   6.634 -0.1231  0.2194 -0.2247
  277MOL0     C37317   2.625   6.918   6.636  0.4087 -0.3992  0.2574
  277MOL0     O37318   2.556   7.002   6.556  0.3876 -0.2255  0.3174
  277MOL0     C37319   2.613   7.083   6.457  0.4717 -0.0153  0.2976
  277MOL0     C37320   2.515   7.196   6.422  0.2643  0.2086 -0.2882
  277MOL0     C37321   2.501   7.300   6.536  0.5268 -0.1114 -0.4158
  277MOL0     C37322   2.395   7.400   6.501  0.2027 -0.5413  0.2417
  277MOL0     C37323   2.387   7.490   6.612 -0.2895  0.4679 -0.1327
  277MOL0     C37324   2.365   7.565   6.707 -0.1032  1.0229 -0.1249
  277MOL0     C37325   2.553   6.851   6.721  0.5928 -0.6856  0.0535
  277MOL0     C37326   2.607   6.767   6.821 -0.0977 -0.0981  0.3707
  277MOL0     C37327   2.509   6.694   6.903  0.0975 -0.3942  0.5054
  277MOL0     H37328   3.164   6.680   7.039  1.7175 -0.2751 -0.1455
  277MOL0     H37329   3.310   6.519   7.145  1.0956 -1.2128 -0.2057
  277MOL0     H37330   3.309   6.378   7.299  2.2883 -0.8139 -1.4130
  277MOL0     H37331   3.190   6.237   7.297 -1.7416  1.2591 -0.5645
  277MOL0     H37332   3.501   6.220   7.307  1.4311 -3.5315 -1.5818
  277MOL0     H37333   3.391   6.092   7.286  1.8154 -1.1522  1.6637
  277MOL0     H37334   3.255   6.188   7.504  0.3167  1.6287 -0.4531
  277MOL0     H37335   3.411   6.271   7.530 -0.9162  1.7997 -0.3319
  277MOL0     H37336   3.367   5.969   7.494  1.6378  0.5532 -1.3516
  277MOL0     H37337   3.525   6.054   7.528 -0.0135 -0.7984 -2.1231
  277MOL0     H37338   3.449   6.143   7.736  1.9156 -0.9723  1.1574
  277MOL0     H37339   3.297   6.065   7.724 -0.5293  0.3685 -1.0615
  277MOL0     H37340   3.422   5.889   7.843  0.2587  0.4730  0.8612
  277MOL0     H37341   3.471   5.849   7.676  1.0479  2.6112 -2.9839
  277MOL0     H37342   3.622   6.047   7.848  0.8261 -1.7144  2.0306
  277MOL0     H37343   3.672   6.005   7.682  0.4020  1.8073  0.0809
  277MOL0     H37344   3.631   5.809   7.904 -0.6941 -1.1714 -1.2805
  277MOL0     H37345   3.707   5.759   7.754 -0.8142 -1.4020  1.7739
  277MOL0     H37346   3.952   5.841   7.709 -0.5911 -0.1661  0.4213
  277MOL0     H37347   4.243   5.868   7.987 -1.5110  4.1518  1.6169
  277MOL0     H37348   4.240   5.822   7.812 -1.1496 -0.7058 -0.2744
  277MOL0     H37349   4.192   6.091   7.781  0.3308  0.2819 -0.8970
  277MOL0     H37350   4.267   6.095   7.936  2.7975  0.1541 -0.4068
  277MOL0     H37351   4.405   5.980   7.693  2.9185 -1.7312  0.6931
  277MOL0     H37352   4.449   5.935   7.842 -0.6008 -0.4160  0.1318
  277MOL0     H37353   4.516   6.139   7.924  1.2864  0.8072 -0.1510
  277MOL0     H37354   4.436   6.240   7.802 -1.2980 -1.1561 -0.4849
  277MOL0     H37355   4.624   6.334   7.904  2.8398 -1.2193  2.3727
  277MOL0     H37356   4.733   6.524   7.862  1.3999 -2.4174  0.8656
  277MOL0     H37357   4.914   6.766   7.425 -0.5585 -1.9155  0.2259
  277MOL0     H37358   5.035   6.975   7.358 -1.1637 -0.3059 -1.0137
  277MOL0     H37359   5.190   7.127   7.415 -1.2253 -2.0557  1.9153
  277MOL0     H37360   5.329   7.091   7.515 -1.4015 -0.9966  0.6041
  277MOL0     H37361   5.359   7.197   7.232  0.5671 -0.7815 -0.5911
  277MOL0     H37362   5.348   7.300   7.367  1.8794  0.0433  0.5879
  277MOL0     H37363   5.561   7.186   7.457  1.6382 -2.3247 -0.5120
  277MOL0     H37364   5.571   7.109   7.297  0.3480 -0.1702  0.4901
  277MOL0     H37365   5.619   7.386   7.366  1.4653 -1.3459  1.0589
  277MOL0     H37366   5.533   7.362   7.203  1.0699  0.6828 -1.3523
  277MOL0     H37367   5.756   7.397   7.184 -0.0656  0.0019  1.2903
  277MOL0     H37368   5.696   7.233   7.119 -0.9056 -1.8611 -0.1473
  277MOL0     H37369   5.875   7.290   7.363 -1.8968  3.0851 -1.4714
  277MOL0     H37370   5.795   7.136   7.325 -2.9450  0.6080 -0.3834
  277MOL0     H37371   5.898   7.127   7.109  0.5409  0.0070 -0.7608
  277MOL0     H37372   6.016   7.118   7.243 -0.2394  1.5501  2.1363
  277MOL0     H37373   5.967   7.331   7.027 -0.3211 -2.5534 -0.7030
  277MOL0     H37374   6.030   7.383   7.176 -2.1065 -0.4683  0.7017
  277MOL0     H37375   5.408   6.767   7.434  0.3389 -1.1084 -1.6140
  277MOL0     H37376   5.280   6.566   7.503 -0.6494  0.0915 -2.2439
  277MOL0     H37377   4.899   6.344   7.492 -0.6026  2.8290 -0.8911
  277MOL0     H37378   4.760   6.151   7.540 -1.3500  3.3494 -2.5752
  277MOL0     H37379   3.087   6.196   6.961  1.0961  1.2561 -3.0054
  277MOL0     H37380   2.919   6.356   6.885 -0.5597  0.1899  0.9347
  277MOL0     H37381   2.930   6.788   6.732  1.1896 -0.4039 -1.4384
  277MOL0     H37382   2.814   6.973   6.564  1.1313 -1.5689 -1.0742
  277MOL0     H37383   2.629   7.021   6.368  1.9712  0.8471 -0.0787
  277MOL0     H37384   2.705   7.133   6.487 -1.6353  3.6053  1.2784
  277MOL0     H37385   2.418   7.171   6.380  0.8297 -0.8578 -1.0259
  277MOL0     H37386   2.564   7.257   6.345  0.4146 -0.5462 -0.7935
  277MOL0     H37387   2.596   7.352   6.554  0.5521 -0.7329  1.5046
  277MOL0     H37388   2.465   7.265   6.634 -0.9774  3.4496  0.4890
  277MOL0     H37389   2.429   7.465   6.420  1.0778 -0.8156  0.3756
  277MOL0     H37390   2.302   7.352   6.470 -0.8982  2.2716 -1.1792
  277MOL0     H37391   2.339   7.626   6.791 -0.2962  1.3465 -0.4174
  277MOL0     H37392   2.450   6.882   6.737  1.6055  2.6197  0.8670
  277MOL0     H37393   2.533   6.587   6.901 -1.4382 -0.7629 -1.3874
  277MOL0     H37394   2.514   6.728   7.007  3.4532 -0.4797  0.4897
  277MOL0     H37395   2.407   6.707   6.865  0.6207  0.9749 -0.5575
  278MOL0     O37396   1.170   2.087   8.694 -0.3483  0.2307 -0.3030
  278MOL0     C37397   1.264   2.014   8.685 -0.5507 -0.5382  0.0348
  278MOL0     O37398   1.303   1.925   8.783  0.1059  0.6070  0.0497
  278MOL0     C37399   1.239   1.933   8.906 -0.7941 -0.1218 -0.1207
  278MOL0     C37400   1.113   1.880   8.939  0.2315 -0.0170 -0.3686
  278MOL0     C37401   1.060   1.893   9.072  0.6991  0.5314  0.0649
  278MOL0     C37402   1.124   1.968   9.167 -0.3583  0.0834  0.3274
  278MOL0     O37403   1.077   1.996   9.294 -0.1748 -0.2298 -0.2106
  278MOL0     C37404   0.937   2.004   9.310  0.3267 -0.0703  0.1036
  278MOL0     C37405   0.877   2.054   9.440 -0.7550  0.1623 -0.5157
  278MOL0     C37406   0.736   1.996   9.456  0.0008 -0.4757  0.2244
  278MOL0     C37407   0.657   2.073   9.563  0.8228 -0.0406  0.4847
  278MOL0     C37408   0.506   2.013   9.564 -0.1609  1.0559  0.4475
  278MOL0     C37409   0.418   2.089   9.658  0.3312 -0.3231  0.1955
  278MOL0     C37410   0.277   2.032   9.660  0.6017  0.5564 -0.4023
  278MOL0     C37411   0.210   2.094   9.782 -0.1108  0.2491  0.3220
  278MOL0     N37412   0.086   2.011   9.815 -1.0213 -0.1762  0.0821
  278MOL0     C37413  -0.034   2.032   9.749  0.1963 -0.2574 -0.2220
  278MOL0     C37414  -0.111   1.940   9.811 -0.4558 -0.5258  0.5807
  278MOL0     C37415  -0.253   1.915   9.783 -1.0386 -0.0967  1.1018
  278MOL0     C37416  -0.350   1.963   9.886  0.6270  0.2710 -0.0277
  278MOL0     C37417  -0.494   1.937   9.835  0.0725 -0.3170  0.0897
  278MOL0     C37418  -0.597   1.971   9.943 -0.9885  0.7820  0.1027
  278MOL0     O37419  -0.582   2.109   9.969  0.6382 -0.6390 -0.1075
  278MOL0     C37420  -0.702   2.188   9.966 -0.8694  0.4681 -0.8778
  278MOL0     C37421  -0.709   2.290  10.065  0.8411  0.7728  0.0069
  278MOL0     C37422  -0.818   2.380  10.072  1.0659 -0.5326  0.4714
  278MOL0     C37423  -0.932   2.360   9.987 -0.4088 -0.5145 -0.1373
  278MOL0     C37424  -1.059   2.448   9.987  0.5324 -0.3871 -0.0620
  278MOL0     O37425  -1.050   2.568  10.054 -0.8453 -0.2169 -0.2356
  278MOL0     C37426  -1.151   2.659  10.066  0.0122  0.7625 -0.0224
  278MOL0     C37427  -1.291   2.615  10.084  0.3573 -0.2475  0.2927
  278MOL0     C37428  -1.384   2.723  10.112 -0.3609  1.1031 -0.7331
  278MOL0     C37429  -1.344   2.858  10.116 -0.0263  0.4418  0.6612
  278MOL0     O37430  -1.435   2.960  10.130  0.3488  0.1194  0.1382
  278MOL0     C37431  -1.485   2.972  10.270 -0.0398  0.5951  0.5266
  278MOL0     C37432  -1.616   3.055  10.274  0.1791  0.2018  0.1860
  278MOL0     C37433  -1.617   3.156  10.157 -0.0333 -0.2577 -0.5905
  278MOL0     C37434  -1.554   3.285  10.205 -1.4632  0.1981  0.6556
  278MOL0     C37435  -1.524   3.389  10.096  0.1907 -0.2460 -0.1602
  278MOL0     C37436  -1.418   3.338   9.994 -0.7481  0.0888 -0.0947
  278MOL0     C37437  -1.394   3.433   9.882 -0.0491  0.0652  0.6035
  278MOL0     C37438  -1.285   3.382   9.783 -0.3370 -0.1521 -0.3206
  278MOL0    Cl37439  -1.240   3.517   9.672 -0.0240  0.0428  0.3204
  278MOL0     C37440  -1.209   2.899  10.098  0.8927 -0.1923  0.2032
  278MOL0     C37441  -1.118   2.788  10.077  0.0050 -0.3824 -0.4577
  278MOL0     O37442  -1.155   2.404   9.920  0.9770 -0.0063  0.4728
  278MOL0     C37443  -0.931   2.255   9.894 -0.8457  0.4632  0.1178
  278MOL0     C37444  -0.818   2.163   9.890 -0.4316 -0.0996 -0.1209
  278MOL0     N37445  -0.039   1.871   9.905  0.0390 -0.2377  0.1236
  278MOL0     N37446   0.089   1.899   9.895  0.8161 -1.1226 -0.2656
  278MOL0     C37447   1.250   2.019   9.138 -1.2673  0.0588  0.5994
  278MOL0     C37448   1.307   2.007   9.009  0.2388  0.1886  1.1860
  278MOL0     C37449   1.334   1.998   8.558  0.2759  0.6065 -0.3966
  278MOL0     C37450   1.276   2.068   8.442  0.4271  0.6472 -0.2800
  278MOL0     C37451   1.331   2.052   8.315 -1.5425  0.0461  0.2593
  278MOL0     C37452   1.448   1.981   8.297 -0.5666 -1.0527 -0.3994
  278MOL0     O37453   1.516   1.970   8.180  0.3001  0.4989  0.5466
  278MOL0     C37454   1.458   2.041   8.064 -0.2187  0.6575 -0.1738
  278MOL0     C37455   1.539   2.014   7.942  0.7042 -0.7910  0.3129
  278MOL0     C37456   1.687   2.023   7.978  0.6472 -0.2533  0.3346
  278MOL0     C37457   1.764   2.048   7.851 -0.6096  0.0111  0.0711
  278MOL0     C37458   1.910   2.076   7.877 -0.6240  0.8917  0.1430
  278MOL0     C37459   2.018   2.102   7.909 -1.1585 -0.6559  0.0918
  278MOL0     C37460   1.485   1.896   8.399  0.4298  0.0685  0.8240
  278MOL0     C37461   1.441   1.909   8.536  0.1624 -0.5530  0.3147
  278MOL0     C37462   1.499   1.807   8.627 -0.7006  0.3265  0.3103
  278MOL0     H37463   1.062   1.812   8.872  1.4383 -1.7101  0.3611
  278MOL0     H37464   0.962   1.851   9.093  1.8016 -1.4651  1.5643
  278MOL0     H37465   0.895   2.077   9.240 -0.0233 -3.1145 -3.1422
  278MOL0     H37466   0.899   1.904   9.286  2.6683 -1.2094  0.8406
  278MOL0     H37467   0.865   2.162   9.437  0.2971  0.3847  1.6384
  278MOL0     H37468   0.932   2.024   9.530 -1.9077 -1.0834 -0.1776
  278MOL0     H37469   0.729   1.887   9.467 -2.3772 -0.1780  2.8089
  278MOL0     H37470   0.684   2.012   9.362  1.6880 -3.1082 -1.2700
  278MOL0     H37471   0.688   2.068   9.668 -0.3194 -0.7861  0.8011
  278MOL0     H37472   0.652   2.180   9.543 -3.0887 -0.1669  0.0086
  278MOL0     H37473   0.461   2.022   9.465  0.0832 -2.4194 -0.1067
  278MOL0     H37474   0.511   1.907   9.592  1.8110  1.2220  0.8756
  278MOL0     H37475   0.447   2.075   9.763 -0.9787 -2.3178  0.3492
  278MOL0     H37476   0.410   2.198   9.649 -3.1008 -0.4094  0.8399
  278MOL0     H37477   0.279   1.923   9.674  0.1645  0.4671 -0.9875
  278MOL0     H37478   0.226   2.046   9.564 -1.7057  0.1302  0.7053
  278MOL0     H37479   0.276   2.081   9.868  2.0742 -0.7999 -1.3991
  278MOL0     H37480   0.182   2.200   9.780  1.5940  0.7226 -0.2365
  278MOL0     H37481  -0.059   2.103   9.670  1.9972  1.7595  0.9127
  278MOL0     H37482  -0.277   1.963   9.687 -1.9731  1.8667  2.2513
  278MOL0     H37483  -0.259   1.810   9.752  3.6603 -0.1564 -0.4073
  278MOL0     H37484  -0.329   1.897   9.971  1.7871 -1.5285 -1.6191
  278MOL0     H37485  -0.336   2.071   9.897  0.6903  0.2569  0.0247
  278MOL0     H37486  -0.507   1.831   9.808  3.9279 -0.4835 -1.8449
  278MOL0     H37487  -0.511   2.006   9.751 -1.5040 -0.0316  0.6258
  278MOL0     H37488  -0.571   1.920  10.036  4.1944  2.5476 -0.0158
  278MOL0     H37489  -0.694   1.933   9.910 -0.9389  0.5346  0.2350
  278MOL0     H37490  -0.632   2.307  10.139 -1.0326 -0.4993  2.3796
  278MOL0     H37491  -0.829   2.457  10.148 -2.4238 -0.0148 -0.3682
  278MOL0     H37492  -1.326   2.512  10.075  0.7675 -0.2885 -1.2510
  278MOL0     H37493  -1.485   2.702  10.146 -0.9405 -0.2471 -3.0420
  278MOL0     H37494  -1.514   2.871  10.300  1.2634 -0.9545 -2.9268
  278MOL0     H37495  -1.402   3.012  10.328  0.8934  0.9437 -1.0008
  278MOL0     H37496  -1.691   2.977  10.259  0.8425 -0.1402 -1.6033
  278MOL0     H37497  -1.641   3.086  10.376  2.6714 -1.3255  1.3657
  278MOL0     H37498  -1.576   3.120  10.063  0.8796  0.2720 -0.4079
  278MOL0     H37499  -1.722   3.169  10.129  0.0172  0.3019 -0.5158
  278MOL0     H37500  -1.455   3.261  10.244 -0.2449  1.3666 -1.5134
  278MOL0     H37501  -1.609   3.342  10.280 -1.5170  0.8430  0.1365
  278MOL0     H37502  -1.487   3.476  10.151 -1.6121 -0.6908  1.8628
  278MOL0     H37503  -1.615   3.416  10.042  0.7895  0.7970 -0.6768
  278MOL0     H37504  -1.323   3.313  10.043  0.6242 -0.8293 -3.0154
  278MOL0     H37505  -1.442   3.238   9.957 -0.0713 -0.3134  0.5024
  278MOL0     H37506  -1.367   3.524   9.936 -0.3685 -0.8412  2.3610
  278MOL0     H37507  -1.485   3.462   9.828 -1.0201 -4.1825 -0.4562
  278MOL0     H37508  -1.199   3.338   9.834 -1.2753 -1.4231  0.2092
  278MOL0     H37509  -1.330   3.308   9.717  3.0957 -3.7905  0.9662
  278MOL0     H37510  -1.171   3.000  10.106  1.9346 -0.4536 -1.0094
  278MOL0     H37511  -1.012   2.812  10.079 -0.2673  1.0781  2.5315
  278MOL0     H37512  -1.010   2.222   9.828  0.8810 -2.1433 -0.8224
  278MOL0     H37513  -0.817   2.088   9.811  0.3488  0.1082 -0.3161
  278MOL0     H37514   1.299   2.071   9.220  1.3524 -1.8128  0.3409
  278MOL0     H37515   1.393   2.058   8.968  0.0351 -1.0914 -0.9381
  278MOL0     H37516   1.183   2.122   8.444 -0.7147 -1.2252  0.2764
  278MOL0     H37517   1.290   2.111   8.234  0.8753 -0.9723 -1.8681
  278MOL0     H37518   1.451   2.148   8.084  0.2102  0.4338  1.3099
  278MOL0     H37519   1.355   2.003   8.063  0.3166 -0.9452  1.2608
  278MOL0     H37520   1.495   2.096   7.884 -0.0960 -0.0880  1.8587
  278MOL0     H37521   1.513   1.912   7.913 -1.3678 -1.1644  3.0576
  278MOL0     H37522   1.718   1.928   8.023  1.0966 -0.9880 -1.4509
  278MOL0     H37523   1.709   2.101   8.051 -1.5666 -0.4265  1.2666
  278MOL0     H37524   1.748   1.966   7.781 -3.3137 -1.2708  1.9921
  278MOL0     H37525   1.723   2.138   7.805 -2.4841 -2.0407 -2.5804
  278MOL0     H37526   2.116   2.123   7.946 -0.8468  1.0393 -1.5246
  278MOL0     H37527   1.571   1.834   8.375  0.6004  1.3153 -2.2270
  278MOL0     H37528   1.427   1.728   8.648 -0.2277 -0.4125 -0.7599
  278MOL0     H37529   1.579   1.750   8.578 -1.4060 -0.8221  0.4593
  278MOL0     H37530   1.545   1.838   8.721  0.9597 -1.7974  0.2725
  279MOL0     O37531   0.876   6.048  10.873  0.3668 -0.6627 -1.3966
  279MOL0     C37532   0.774   6.096  10.933 -0.2482  0.1774 -0.7186
  279MOL0     O37533   0.763   6.108  11.074 -0.0243  0.3036  0.1543
  279MOL0     C37534   0.876   6.058  11.151  0.5224  0.4440  0.1980
  279MOL0     C37535   0.926   6.152  11.247 -0.6759 -0.2028  0.2961
  279MOL0     C37536   1.017   6.105  11.340 -0.3286 -0.1216 -0.6499
  279MOL0     C37537   1.069   5.965  11.337  0.3057 -0.6516 -0.5802
  279MOL0     O37538   1.153   5.919  11.442  0.4072 -0.8863 -0.1288
  279MOL0     C37539   1.233   5.809  11.411  0.7533  0.0868  0.0353
  279MOL0     C37540   1.376   5.825  11.467 -0.0353 -0.1320 -0.4591
  279MOL0     C37541   1.424   5.966  11.477  1.0520  0.0608  0.0605
  279MOL0     C37542   1.579   5.978  11.522  0.6521 -0.7982 -0.8003
  279MOL0     C37543   1.631   6.126  11.518  0.9879 -0.2998 -0.2955
  279MOL0     C37544   1.784   6.125  11.544  0.1835 -0.2196  0.2845
  279MOL0     C37545   1.843   6.267  11.533  0.3082 -0.3037 -0.1769
  279MOL0     C37546   1.848   6.323  11.390 -0.2033 -0.8841 -0.1068
  279MOL0     N37547   1.944   6.437  11.384 -0.5807 -0.2553  0.4437
  279MOL0     C37548   2.065   6.444  11.300  0.1288  0.1445 -0.8147
  279MOL0     C37549   2.143   6.542  11.354  0.1411  1.0044  0.2045
  279MOL0     C37550   2.288   6.570  11.323 -0.5845  0.1584 -0.0399
  279MOL0     C37551   2.287   6.706  11.266  0.3707  0.1070  0.9714
  279MOL0     C37552   2.435   6.752  11.241  0.6041  0.7512  0.1889
  279MOL0     C37553   2.437   6.903  11.219 -0.1800  0.1232  0.0357
  279MOL0     O37554   2.561   6.957  11.166  0.0404 -0.4038 -0.3599
  279MOL0     C37555   2.680   6.950  11.236  0.0713  0.5990 -0.2008
  279MOL0     C37556   2.687   6.924  11.369 -0.2162  0.2977 -0.6936
  279MOL0     C37557   2.812   6.898  11.432 -0.2411  0.3704  0.1022
  279MOL0     C37558   2.935   6.912  11.364 -0.2134  0.6028 -0.3436
  279MOL0     C37559   3.060   6.908  11.433 -0.1368 -0.8443 -0.0869
  279MOL0     O37560   3.157   6.858  11.345  0.3433 -0.2143 -0.9568
  279MOL0     C37561   3.293   6.844  11.391  0.5781  0.1921  0.1430
  279MOL0     C37562   3.339   6.882  11.517  0.0424 -0.1892  0.2505
  279MOL0     C37563   3.473   6.847  11.560 -0.4401 -0.0172  0.1877
  279MOL0     C37564   3.557   6.780  11.468 -0.6249 -0.4976  0.0026
  279MOL0     O37565   3.694   6.757  11.484 -0.1343  1.0578  0.5057
  279MOL0     C37566   3.746   6.738  11.617  0.2986  0.2288 -0.5676
  279MOL0     C37567   3.889   6.702  11.601 -0.1343  0.1151  0.2086
  279MOL0     C37568   3.959   6.753  11.475 -0.1527  0.3547  0.2332
  279MOL0     C37569   4.109   6.741  11.493 -0.3841  0.2528 -0.1727
  279MOL0     C37570   4.214   6.747  11.377  0.0218 -0.0204 -0.5995
  279MOL0     C37571   4.225   6.892  11.332 -0.2611 -0.0868 -0.3144
  279MOL0     C37572   4.333   6.916  11.228  0.2789 -0.4725 -0.3238
  279MOL0     C37573   4.362   7.071  11.236 -0.1469  0.8276  1.1702
  279MOL0    Cl37574   4.498   7.118  11.129  0.3607  0.0464  0.4089
  279MOL0     C37575   3.509   6.754  11.340 -0.2695 -0.4549  0.5233
  279MOL0     C37576   3.375   6.774  11.303  0.6616  0.4731  0.3865
  279MOL0     O37577   3.072   6.935  11.550  0.4962 -0.7060 -0.5851
  279MOL0     C37578   2.915   6.935  11.225 -1.2897 -0.5626 -0.6670
  279MOL0     C37579   2.795   6.950  11.166 -0.4463  0.5386  0.7970
  279MOL0     N37580   2.055   6.607  11.435 -0.8773  0.4359  0.1224
  279MOL0     N37581   1.941   6.548  11.452  0.1481 -0.7264  0.0654
  279MOL0     C37582   1.008   5.886  11.247  0.8368  1.1220 -0.8410
  279MOL0     C37583   0.920   5.930  11.153  0.5300 -0.1564  0.4739
  279MOL0     C37584   0.665   6.172  10.863  0.3557  0.7512  0.1358
  279MOL0     C37585   0.560   6.226  10.937  0.0452  0.1667 -0.4105
  279MOL0     C37586   0.463   6.305  10.876  0.2209 -0.4581  0.9691
  279MOL0     C37587   0.459   6.321  10.740 -0.1937  0.1380  0.9519
  279MOL0     O37588   0.368   6.413  10.685  0.7580  0.0650 -0.1419
  279MOL0     C37589   0.307   6.375  10.563 -0.2246 -0.2488 -1.0318
  279MOL0     C37590   0.194   6.478  10.523  0.7012  0.2621  0.3076
  279MOL0     C37591   0.081   6.462  10.626  0.3195 -0.1452 -0.0446
  279MOL0     C37592  -0.045   6.531  10.583  0.0996 -0.1323 -0.2070
  279MOL0     C37593  -0.031   6.678  10.585  0.7729 -0.4284  0.2389
  279MOL0     C37594  -0.036   6.800  10.610  0.1917  0.4596 -0.1969
  279MOL0     C37595   0.559   6.250  10.662  0.7004  0.2918 -0.0227
  279MOL0     C37596   0.654   6.172  10.724  0.4919 -0.1909  0.6379
  279MOL0     C37597   0.755   6.125  10.613 -0.0945  0.5891 -0.0786
  279MOL0     H37598   0.920   6.260  11.234  2.2411 -0.1172 -1.5021
  279MOL0     H37599   1.067   6.173  11.408  0.2800  0.4364 -1.6132
  279MOL0     H37600   1.196   5.720  11.462  0.1231 -0.0610 -0.6594
  279MOL0     H37601   1.241   5.782  11.305 -3.2917  1.9305 -0.9533
  279MOL0     H37602   1.439   5.763  11.403 -1.2734 -2.6877  0.6619
  279MOL0     H37603   1.401   5.775  11.560 -0.1452 -0.5028 -0.6239
  279MOL0     H37604   1.352   6.024  11.537  2.1375  0.2021  1.2636
  279MOL0     H37605   1.421   6.010  11.377  2.4475  3.4365  1.3600
  279MOL0     H37606   1.600   5.942  11.623 -3.2603 -1.7770 -0.1483
  279MOL0     H37607   1.642   5.928  11.448 -1.2153 -0.6419 -2.6145
  279MOL0     H37608   1.598   6.152  11.417  2.0040 -5.2114 -2.1954
  279MOL0     H37609   1.585   6.178  11.602  1.9737 -1.1204  0.7800
  279MOL0     H37610   1.801   6.080  11.643  2.0363 -2.5514 -0.9924
  279MOL0     H37611   1.834   6.048  11.485 -1.6101 -0.9029 -0.4311
  279MOL0     H37612   1.942   6.267  11.580  0.4914  0.0293 -0.5530
  279MOL0     H37613   1.787   6.339  11.594  0.0815  0.7715 -1.6111
  279MOL0     H37614   1.878   6.251  11.313 -1.7153  0.3435 -1.9417
  279MOL0     H37615   1.750   6.363  11.362 -0.6992 -0.3059  2.2155
  279MOL0     H37616   2.100   6.374  11.225  0.9865 -0.9294  0.5373
  279MOL0     H37617   2.340   6.570  11.419  0.7120 -0.5241 -0.7110
  279MOL0     H37618   2.332   6.491  11.261 -0.0579  0.1969  0.2827
  279MOL0     H37619   2.232   6.698  11.172  3.2635  1.6056 -0.9687
  279MOL0     H37620   2.232   6.766  11.339 -5.2606 -0.5097 -2.1484
  279MOL0     H37621   2.479   6.696  11.158 -1.3268 -2.5817  1.2248
  279MOL0     H37622   2.492   6.736  11.333 -0.3072 -0.6567  0.5460
  279MOL0     H37623   2.410   6.960  11.309 -0.6494  2.9439 -1.7756
  279MOL0     H37624   2.355   6.925  11.150 -0.4932 -0.8106  0.0892
  279MOL0     H37625   2.605   6.927  11.439 -0.1732  2.3188 -0.6686
  279MOL0     H37626   2.819   6.879  11.538  1.4439  1.3797  0.2142
  279MOL0     H37627   3.293   6.953  11.584 -0.7662  2.5988 -2.9791
  279MOL0     H37628   3.504   6.879  11.659  0.4740  1.7640 -0.6213
  279MOL0     H37629   3.736   6.832  11.672  1.6382 -1.1559  2.2431
  279MOL0     H37630   3.686   6.654  11.655  0.9747  0.5971  1.4768
  279MOL0     H37631   3.941   6.741  11.689  2.6682 -0.2690 -1.1835
  279MOL0     H37632   3.892   6.593  11.603 -0.1229  0.1219  1.1556
  279MOL0     H37633   3.923   6.706  11.383  0.9512 -2.0981  0.9680
  279MOL0     H37634   3.948   6.860  11.458  0.0246  0.0917 -1.9073
  279MOL0     H37635   4.120   6.641  11.537  3.4595 -0.2563 -1.8872
  279MOL0     H37636   4.138   6.814  11.569 -1.2095 -0.1765  0.5826
  279MOL0     H37637   4.180   6.685  11.294  1.2253 -1.9242  0.2800
  279MOL0     H37638   4.315   6.717  11.404  0.4996  1.1110 -1.0809
  279MOL0     H37639   4.127   6.915  11.288 -1.2580 -3.6006 -0.1815
  279MOL0     H37640   4.241   6.959  11.417 -0.6314 -1.5644  0.9665
  279MOL0     H37641   4.291   6.873  11.137  0.0200  1.7029 -1.2747
  279MOL0     H37642   4.425   6.858  11.241  1.8778  1.5037 -2.1346
  279MOL0     H37643   4.271   7.126  11.207 -0.4971 -0.3411 -0.0977
  279MOL0     H37644   4.392   7.086  11.340 -0.0240 -3.9518  2.0963
  279MOL0     H37645   3.581   6.714  11.270 -1.0960  0.4673 -0.9045
  279MOL0     H37646   3.328   6.756  11.207  1.4279  3.1216 -0.5682
  279MOL0     H37647   3.000   6.933  11.157 -1.2019 -2.4845 -0.5536
  279MOL0     H37648   2.788   6.955  11.058 -2.9757 -2.4289  0.6797
  279MOL0     H37649   1.025   5.779  11.254 -0.4611  0.8883 -0.8910
  279MOL0     H37650   0.869   5.863  11.085 -0.6288 -0.0186  1.1868
  279MOL0     H37651   0.543   6.217  11.043 -0.6808  0.7168 -0.4713
  279MOL0     H37652   0.394   6.365  10.935  1.8731  2.7095 -0.0692
  279MOL0     H37653   0.276   6.270  10.566  1.9658 -0.9461 -1.0880
  279MOL0     H37654   0.386   6.383  10.488 -0.6346 -2.6938 -1.8237
  279MOL0     H37655   0.174   6.442  10.422  1.2026  0.5425  0.1032
  279MOL0     H37656   0.229   6.581  10.509 -0.6128  0.5096 -1.5977
  279MOL0     H37657   0.111   6.500  10.724  0.7021  1.1861 -0.6509
  279MOL0     H37658   0.047   6.359  10.638 -1.1668  0.4020  0.7673
  279MOL0     H37659  -0.060   6.503  10.478 -2.3727  0.7664 -0.1667
  279MOL0     H37660  -0.127   6.492  10.644  0.0018  0.0834 -0.1990
  279MOL0     H37661  -0.023   6.903  10.633  0.3901  0.2994  0.4038
  279MOL0     H37662   0.566   6.270  10.555  0.8237 -1.7981 -0.4377
  279MOL0     H37663   0.721   6.147  10.511  0.7491  2.5267  0.0058
  279MOL0     H37664   0.853   6.171  10.628  0.3248 -0.5605  0.8136
  279MOL0     H37665   0.769   6.017  10.608 -1.3947  0.3939  0.1479
  280MOL0     O37666   0.987   2.483   2.997  0.0459  0.2468 -0.9988
  280MOL0     C37667   1.042   2.589   2.970 -0.7844  0.2672  0.0723
  280MOL0     O37668   0.977   2.707   2.937 -0.5692 -0.4474  0.1720
  280MOL0     C37669   0.841   2.719   2.948 -0.0977  0.4622 -0.3490
  280MOL0     C37670   0.779   2.807   3.033  0.4189  0.3983  0.8403
  280MOL0     C37671   0.648   2.838   3.012  1.2460  0.6444 -0.5420
  280MOL0     C37672   0.562   2.774   2.919  0.1983 -0.1049  0.6996
  280MOL0     O37673   0.426   2.800   2.911 -0.2371  0.9995 -0.2231
  280MOL0     C37674   0.346   2.704   2.839  0.2872 -0.1898 -0.6975
  280MOL0     C37675   0.201   2.754   2.841  0.0550  0.6473 -1.0278
  280MOL0     C37676   0.128   2.702   2.963  0.1830  0.0089  0.1757
  280MOL0     C37677   0.171   2.780   3.082  0.6089 -0.2075 -0.0560
  280MOL0     C37678   0.097   2.733   3.208  0.0560  0.6791 -0.6132
  280MOL0     C37679   0.143   2.814   3.333 -0.0328 -0.4420  0.0241
  280MOL0     C37680   0.099   2.748   3.465  0.1189  0.7806 -0.4923
  280MOL0     C37681  -0.053   2.731   3.474  0.1042  0.4691 -0.9589
  280MOL0     N37682  -0.132   2.852   3.441 -0.1967  0.3126 -0.7908
  280MOL0     C37683  -0.145   2.972   3.511 -0.2475  0.4958  0.2599
  280MOL0     C37684  -0.244   3.046   3.453  0.2197  0.3682  0.2965
  280MOL0     C37685  -0.285   3.183   3.462 -0.0116 -1.4281  0.7382
  280MOL0     C37686  -0.183   3.298   3.496 -0.1770  0.5340 -0.1059
  280MOL0     C37687  -0.249   3.439   3.486 -1.0551 -0.3042  0.8868
  280MOL0     C37688  -0.167   3.542   3.566  0.7894 -0.3472  0.0488
  280MOL0     O37689  -0.169   3.533   3.709  0.7069  0.4232  0.5794
  280MOL0     C37690  -0.072   3.606   3.777 -0.2052 -0.2352 -0.0177
  280MOL0     C37691  -0.007   3.723   3.730 -1.1038  0.7397 -0.1289
  280MOL0     C37692   0.101   3.778   3.800  0.3964  0.2159  0.4915
  280MOL0     C37693   0.139   3.726   3.924 -0.4124 -0.2718 -0.3637
  280MOL0     C37694   0.238   3.790   4.007 -0.1768 -0.5426 -0.6652
  280MOL0     O37695   0.304   3.707   4.105 -0.5588 -0.3372 -0.7578
  280MOL0     C37696   0.385   3.768   4.201  0.1432 -0.4816  0.5320
  280MOL0     C37697   0.381   3.736   4.337 -0.2253 -0.0321  0.5896
  280MOL0     C37698   0.474   3.785   4.433  1.1166  0.2494 -0.2638
  280MOL0     C37699   0.576   3.861   4.386  0.2464 -0.6776 -0.2641
  280MOL0     O37700   0.670   3.880   4.486 -0.0577  0.2129 -0.3732
  280MOL0     C37701   0.775   3.979   4.468  0.4164  0.0652 -0.5149
  280MOL0     C37702   0.889   3.974   4.575 -0.0117 -0.2768 -0.0173
  280MOL0     C37703   0.852   3.970   4.725  0.0800 -0.8516  0.2701
  280MOL0     C37704   0.797   4.111   4.769 -0.6494  0.5701 -0.9000
  280MOL0     C37705   0.895   4.227   4.745 -0.4891  0.3954  0.1864
  280MOL0     C37706   0.861   4.325   4.632  0.7715  0.2117 -1.4439
  280MOL0     C37707   0.941   4.462   4.635  0.2675 -0.2828  0.5652
  280MOL0     C37708   0.911   4.557   4.514 -0.0216  0.2999  0.1745
  280MOL0    Cl37709   1.021   4.695   4.505 -0.0061 -0.0860  0.2205
  280MOL0     C37710   0.582   3.896   4.249  0.4077 -0.1687 -0.8515
  280MOL0     C37711   0.484   3.851   4.152 -0.3406 -0.0390 -1.1902
  280MOL0     O37712   0.251   3.915   3.987  0.4858 -0.0357  0.0778
  280MOL0     C37713   0.071   3.616   3.975 -0.6634  1.0707 -0.0860
  280MOL0     C37714  -0.030   3.551   3.900  0.4236 -0.4751  0.0488
  280MOL0     N37715  -0.300   2.958   3.357 -0.2962  0.0346 -0.1772
  280MOL0     N37716  -0.230   2.853   3.351 -0.7085  0.1487  0.4307
  280MOL0     C37717   0.621   2.675   2.834 -1.1975 -0.3838  0.2313
  280MOL0     C37718   0.759   2.654   2.851  0.8078  0.8086  0.7616
  280MOL0     C37719   1.189   2.588   2.979 -0.9218  0.5117 -0.2941
  280MOL0     C37720   1.260   2.697   2.924  0.6075  0.7084  0.4753
  280MOL0     C37721   1.399   2.698   2.913 -0.2630  0.1473 -0.7690
  280MOL0     C37722   1.473   2.587   2.961  0.4875 -0.6529  0.0111
  280MOL0     O37723   1.612   2.589   2.959 -0.6010  1.3502 -0.1190
  280MOL0     C37724   1.694   2.482   3.016 -0.2947 -0.3120  0.3260
  280MOL0     C37725   1.835   2.527   2.984 -0.1454 -0.7358 -0.1272
  280MOL0     C37726   1.926   2.402   2.976  0.5196  0.0494  0.3841
  280MOL0     C37727   2.069   2.446   2.980 -0.7520 -0.6426  0.8032
  280MOL0     C37728   2.157   2.334   2.988 -0.1337  0.5061 -0.1898
  280MOL0     C37729   2.222   2.235   3.035  1.0631  0.9882  0.8106
  280MOL0     C37730   1.402   2.480   3.012  0.5480  0.2387 -0.2969
  280MOL0     C37731   1.261   2.483   3.029  0.5105  1.7180  0.3989
  280MOL0     C37732   1.200   2.372   3.103  0.3015  0.0542  0.0887
  280MOL0     H37733   0.846   2.870   3.091  1.0084  0.6531 -0.0826
  280MOL0     H37734   0.598   2.910   3.076 -1.3973 -2.5688  1.3544
  280MOL0     H37735   0.365   2.697   2.732  0.8159 -0.6749 -0.5776
  280MOL0     H37736   0.358   2.602   2.878  0.4996 -0.0900 -0.5071
  280MOL0     H37737   0.147   2.720   2.753  1.0608 -1.0417 -1.0269
  280MOL0     H37738   0.192   2.863   2.835 -0.1872  0.6274 -1.0223
  280MOL0     H37739   0.158   2.598   2.976  0.1262  0.1438  1.5408
  280MOL0     H37740   0.021   2.718   2.946  0.1163 -1.5217 -0.9916
  280MOL0     H37741   0.277   2.762   3.105  0.3153  1.4282  2.9587
  280MOL0     H37742   0.162   2.888   3.074  1.3522 -0.1601 -0.3741
  280MOL0     H37743  -0.010   2.747   3.189 -1.1698 -3.4791  1.9396
  280MOL0     H37744   0.103   2.625   3.223 -2.4253  0.6213  0.4163
  280MOL0     H37745   0.251   2.825   3.337 -0.1901  0.8035  1.8721
  280MOL0     H37746   0.085   2.906   3.321  1.6811  0.7727  0.6912
  280MOL0     H37747   0.139   2.801   3.552  2.8576 -3.8489  1.5189
  280MOL0     H37748   0.139   2.646   3.472  1.9033  1.3161 -2.0416
  280MOL0     H37749  -0.064   2.650   3.401 -0.5833  0.8143 -1.2416
  280MOL0     H37750  -0.084   2.718   3.578 -0.9894  1.3338 -1.1655
  280MOL0     H37751  -0.073   3.004   3.585  2.1219 -1.4234 -1.0375
  280MOL0     H37752  -0.325   3.196   3.361 -0.2384 -0.0057  1.0022
  280MOL0     H37753  -0.364   3.185   3.537  1.3041 -0.9896  2.1567
  280MOL0     H37754  -0.152   3.281   3.599  0.6965  0.0956 -0.4399
  280MOL0     H37755  -0.101   3.278   3.426 -0.2621 -3.1186  0.6623
  280MOL0     H37756  -0.352   3.424   3.520 -2.7785  2.2432 -2.5854
  280MOL0     H37757  -0.259   3.471   3.382  1.9304  0.5731  0.7764
  280MOL0     H37758  -0.184   3.646   3.536  2.7795 -0.7490 -2.8464
  280MOL0     H37759  -0.065   3.542   3.526  0.9418  0.7412  0.4008
  280MOL0     H37760  -0.036   3.773   3.638 -4.6037  0.3261  0.6004
  280MOL0     H37761   0.132   3.878   3.768 -1.5135  0.8517  0.5032
  280MOL0     H37762   0.301   3.666   4.360 -1.5474  0.4167 -2.1753
  280MOL0     H37763   0.477   3.751   4.536 -1.3737  0.7397  0.0405
  280MOL0     H37764   0.824   3.956   4.373 -1.2397  0.3351 -1.4775
  280MOL0     H37765   0.729   4.078   4.459 -0.2998 -0.1210  0.8697
  280MOL0     H37766   0.939   3.881   4.548 -0.9472 -0.8952  0.3119
  280MOL0     H37767   0.958   4.058   4.562  0.3371 -0.5007  0.3838
  280MOL0     H37768   0.778   3.891   4.743 -0.5005 -0.5001 -0.4957
  280MOL0     H37769   0.942   3.944   4.780  0.4624 -0.7979 -0.3152
  280MOL0     H37770   0.757   4.118   4.871  2.0062  3.5654  0.1001
  280MOL0     H37771   0.710   4.140   4.710 -3.2599  1.3106  2.9269
  280MOL0     H37772   0.995   4.189   4.722 -0.3640  1.2086 -0.6888
  280MOL0     H37773   0.898   4.288   4.836 -1.8922  2.5008 -1.0913
  280MOL0     H37774   0.872   4.277   4.534  0.1080  0.3347 -1.5849
  280MOL0     H37775   0.757   4.355   4.649  0.4513 -0.3522 -2.3013
  280MOL0     H37776   1.049   4.448   4.642  0.2938  0.6166  4.3774
  280MOL0     H37777   0.913   4.511   4.728 -0.3650 -1.7758  1.1970
  280MOL0     H37778   0.916   4.500   4.421  3.8211  3.8001 -2.1298
  280MOL0     H37779   0.810   4.597   4.517  0.2538  1.1538 -0.9595
  280MOL0     H37780   0.667   3.959   4.226  1.3191 -2.1183 -3.3224
  280MOL0     H37781   0.495   3.878   4.048  0.3566 -0.4475 -1.2276
  280MOL0     H37782   0.098   3.585   4.076  2.9997 -0.9111 -1.4863
  280MOL0     H37783  -0.076   3.466   3.949  1.2123 -0.7885  0.2609
  280MOL0     H37784   0.562   2.631   2.753 -0.8311 -0.2500 -0.1092
  280MOL0     H37785   0.798   2.595   2.769 -1.1773  0.4556  0.0104
  280MOL0     H37786   1.202   2.773   2.872  2.4466  1.0341 -1.2432
  280MOL0     H37787   1.448   2.780   2.862 -0.8883  0.9480 -0.1213
  280MOL0     H37788   1.673   2.388   2.964  0.6239  0.1393 -0.9108
  280MOL0     H37789   1.683   2.464   3.123 -0.6117  0.9364  0.5218
  280MOL0     H37790   1.868   2.597   3.062 -0.3303 -0.6367 -0.1377
  280MOL0     H37791   1.832   2.576   2.887  0.3375  1.7024  1.0001
  280MOL0     H37792   1.902   2.355   2.880  1.7858  1.1362 -0.4966
  280MOL0     H37793   1.906   2.324   3.050  2.0073 -0.4351  0.3109
  280MOL0     H37794   2.095   2.509   2.893 -1.9097 -1.3061 -0.0525
  280MOL0     H37795   2.079   2.502   3.073 -2.4436 -0.1772  0.7409
  280MOL0     H37796   2.293   2.162   3.068  1.2293  0.4137 -0.7247
  280MOL0     H37797   1.459   2.394   3.044  0.0270  0.2852  0.7964
  280MOL0     H37798   1.276   2.328   3.168  0.7039  2.1395  1.1175
  280MOL0     H37799   1.126   2.406   3.175 -1.7276 -4.3312  0.4015
  280MOL0     H37800   1.154   2.292   3.045 -0.1011  0.8262 -0.6722
  281MOL0     O37801   2.837   6.748   1.076  1.0075  0.0472  0.0961
  281MOL0     C37802   2.823   6.741   1.200  0.6365 -0.6891  0.4627
  281MOL0     O37803   2.922   6.726   1.287  0.0280 -0.0422 -0.5566
  281MOL0     C37804   3.059   6.724   1.253  0.3997 -0.0308  0.0915
  281MOL0     C37805   3.114   6.766   1.133 -0.1081 -1.4762 -0.6911
  281MOL0     C37806   3.247   6.737   1.103  0.6382  0.1476  0.4761
  281MOL0     C37807   3.331   6.677   1.193 -0.3033 -0.0121 -1.3527
  281MOL0     O37808   3.464   6.665   1.173 -0.0800 -0.3519 -0.2580
  281MOL0     C37809   3.552   6.690   1.282  0.2558  0.0616  0.0927
  281MOL0     C37810   3.698   6.681   1.232  0.7594  0.0262  0.1979
  281MOL0     C37811   3.783   6.697   1.361  0.0535  0.5270  0.1083
  281MOL0     C37812   3.933   6.696   1.340  1.0787  1.0033 -0.0683
  281MOL0     C37813   4.000   6.739   1.475 -0.3788 -0.2242  0.7717
  281MOL0     C37814   4.034   6.895   1.484  0.4656  0.3343 -0.7544
  281MOL0     C37815   3.910   6.975   1.524 -0.2461  0.1503 -0.3910
  281MOL0     C37816   3.958   7.117   1.571 -0.3081 -0.1251  0.1684
  281MOL0     N37817   4.032   7.193   1.469 -0.2957 -0.3204  0.6262
  281MOL0     C37818   3.984   7.278   1.370  0.7839  0.3811 -0.8314
  281MOL0     C37819   4.088   7.311   1.290 -0.0818 -0.5720 -0.7221
  281MOL0     C37820   4.085   7.396   1.160 -0.9544  1.0142 -0.5273
  281MOL0     C37821   4.165   7.524   1.168  0.7099 -0.2190  0.6374
  281MOL0     C37822   4.125   7.612   1.053  0.8646  0.6699 -0.6713
  281MOL0     C37823   4.237   7.710   1.023  0.2318  0.0732 -0.4841
  281MOL0     O37824   4.280   7.785   1.139  0.9414  0.2575  0.2847
  281MOL0     C37825   4.408   7.809   1.125 -0.4659  0.5808 -0.4874
  281MOL0     C37826   4.448   7.904   1.032 -0.2186 -0.3826  0.3291
  281MOL0     C37827   4.579   7.946   1.033  0.5148 -0.8194  0.5347
  281MOL0     C37828   4.665   7.909   1.135  0.3318 -0.4168  0.0232
  281MOL0     C37829   4.791   7.980   1.158  0.2371 -1.1772  0.7391
  281MOL0     O37830   4.868   7.930   1.257 -0.1825 -1.1210  0.0179
  281MOL0     C37831   5.001   7.946   1.252 -0.1327  0.4013  1.0298
  281MOL0     C37832   5.077   7.848   1.194  0.6706  0.3303  0.1853
  281MOL0     C37833   5.215   7.844   1.190  0.2747 -0.4120 -0.5265
  281MOL0     C37834   5.282   7.951   1.238 -0.3038 -0.1072 -0.8071
  281MOL0     O37835   5.418   7.950   1.219 -0.4655 -0.7028 -0.0577
  281MOL0     C37836   5.493   8.060   1.267 -0.4475  0.6553 -0.0237
  281MOL0     C37837   5.637   8.039   1.242 -0.0986  0.2277 -1.4381
  281MOL0     C37838   5.703   8.167   1.291 -0.2710  0.9497 -0.2124
  281MOL0     C37839   5.852   8.155   1.322  0.0701  0.0566  0.1036
  281MOL0     C37840   5.939   8.117   1.195  0.5521 -0.5443  1.2306
  281MOL0     C37841   6.088   8.096   1.222 -0.2232  0.0825 -1.2728
  281MOL0     C37842   6.120   7.971   1.325  0.8798 -0.5840 -0.4707
  281MOL0     C37843   6.269   7.976   1.379  0.0192  0.5008  0.6122
  281MOL0    Cl37844   6.383   8.063   1.266 -0.0928  0.4994 -0.0286
  281MOL0     C37845   5.207   8.053   1.299  0.3658 -0.5916  0.1923
  281MOL0     C37846   5.069   8.050   1.298  0.0134 -0.1789  0.3397
  281MOL0     O37847   4.825   8.074   1.086  0.2022  0.6509 -0.6336
  281MOL0     C37848   4.610   7.831   1.237 -0.5306 -0.1089 -0.2615
  281MOL0     C37849   4.488   7.771   1.229 -0.1792  0.0103  1.2322
  281MOL0     N37850   4.199   7.255   1.350 -0.1359 -0.0764 -0.8439
  281MOL0     N37851   4.165   7.197   1.460  0.1073 -0.1610  0.6710
  281MOL0     C37852   3.275   6.650   1.321 -0.2405  0.9043 -0.0152
  281MOL0     C37853   3.140   6.678   1.354 -0.1163 -0.4472  0.6430
  281MOL0     C37854   2.685   6.753   1.257  0.0910 -0.7006 -0.3747
  281MOL0     C37855   2.664   6.692   1.379  0.6197 -0.0898 -0.1038
  281MOL0     C37856   2.546   6.692   1.455  0.3477 -0.1574 -0.9071
  281MOL0     C37857   2.446   6.776   1.410  0.1297  0.7438 -0.3470
  281MOL0     O37858   2.334   6.792   1.496  0.8358  0.0595  0.2944
  281MOL0     C37859   2.275   6.919   1.462  0.7829  0.8580 -0.1061
  281MOL0     C37860   2.153   6.906   1.375  0.2435  0.7276 -0.3141
  281MOL0     C37861   2.099   7.030   1.309  0.6959 -0.7663  0.1362
  281MOL0     C37862   1.964   6.996   1.231  0.6901 -0.5570  0.4609
  281MOL0     C37863   1.929   7.102   1.132  0.0775  0.0394  0.1849
  281MOL0     C37864   1.904   7.188   1.051  0.4211 -0.2916  0.3079
  281MOL0     C37865   2.463   6.829   1.287  0.0093 -0.2321 -0.0248
  281MOL0     C37866   2.576   6.822   1.209 -0.6164 -0.6229  0.0557
  281MOL0     C37867   2.581   6.894   1.075  0.3720  0.1247  0.0056
  281MOL0     H37868   3.056   6.811   1.054  1.0405  1.8233  0.1738
  281MOL0     H37869   3.293   6.759   1.007  1.2246 -1.2483  0.3996
  281MOL0     H37870   3.526   6.781   1.338  0.2050 -0.2784  0.6351
  281MOL0     H37871   3.545   6.601   1.346 -0.1880 -0.5121 -0.7350
  281MOL0     H37872   3.713   6.765   1.163  0.1426  1.0334  1.2564
  281MOL0     H37873   3.718   6.588   1.179  0.0189  1.0967 -2.0708
  281MOL0     H37874   3.758   6.618   1.433  2.7128 -1.4120 -0.9378
  281MOL0     H37875   3.756   6.785   1.420  2.7059  0.7703  1.1265
  281MOL0     H37876   3.965   6.595   1.312  0.8451  1.3135 -1.5022
  281MOL0     H37877   3.966   6.764   1.261  2.7677 -0.0088 -0.2984
  281MOL0     H37878   3.958   6.695   1.566  3.2843 -1.0064  2.2616
  281MOL0     H37879   4.099   6.693   1.474 -1.3599 -2.5254  1.8434
  281MOL0     H37880   4.099   6.908   1.571 -0.9865 -1.7843  0.7736
  281MOL0     H37881   4.078   6.935   1.393 -0.3353  4.4510  0.4598
  281MOL0     H37882   3.851   6.930   1.604 -0.0958 -0.6937 -0.7408
  281MOL0     H37883   3.844   6.981   1.437 -0.8302  0.4629  0.0683
  281MOL0     H37884   3.869   7.181   1.583 -0.4892 -0.1066 -1.2008
  281MOL0     H37885   4.014   7.104   1.665  1.1762  2.7771 -0.1967
  281MOL0     H37886   3.879   7.297   1.352  1.1412  1.8286 -1.4485
  281MOL0     H37887   4.105   7.326   1.078 -3.4555  0.2689 -0.6029
  281MOL0     H37888   3.982   7.423   1.132 -2.0391 -0.2672  1.8972
  281MOL0     H37889   4.130   7.572   1.260 -0.3115  2.2347 -0.9386
  281MOL0     H37890   4.272   7.498   1.168  1.1929  1.6230  1.4409
  281MOL0     H37891   4.039   7.663   1.098 -0.1877  1.3551 -3.2954
  281MOL0     H37892   4.094   7.566   0.959 -1.8527  2.2440 -0.6690
  281MOL0     H37893   4.199   7.783   0.950  1.4917 -0.8235 -2.0794
  281MOL0     H37894   4.312   7.648   0.975 -1.4124 -2.4473  0.0071
  281MOL0     H37895   4.375   7.938   0.959  0.3532  0.8176  0.2863
  281MOL0     H37896   4.618   7.994   0.943  0.8113  1.1555  1.6643
  281MOL0     H37897   5.019   7.767   1.151  0.6981  2.5076 -4.4987
  281MOL0     H37898   5.257   7.756   1.143 -1.2765 -1.5141  0.0600
  281MOL0     H37899   5.475   8.154   1.214  1.5301  0.3192 -1.3738
  281MOL0     H37900   5.485   8.076   1.375  4.5746 -1.0703  0.8723
  281MOL0     H37901   5.676   7.953   1.298  2.8256  1.3137 -1.6220
  281MOL0     H37902   5.658   8.024   1.135  2.6828  2.6979 -1.3601
  281MOL0     H37903   5.684   8.233   1.206 -2.2399 -0.3394 -0.8374
  281MOL0     H37904   5.658   8.221   1.375  1.0856 -0.8070  1.7565
  281MOL0     H37905   5.858   8.076   1.398  4.9201 -0.1842 -0.2425
  281MOL0     H37906   5.895   8.243   1.371  2.0884 -2.2101  2.6990
  281MOL0     H37907   5.944   8.194   1.119  1.6178 -1.7564  0.0274
  281MOL0     H37908   5.900   8.025   1.150 -0.3655 -0.2098  1.3230
  281MOL0     H37909   6.141   8.074   1.128 -0.3305 -1.0858 -1.0709
  281MOL0     H37910   6.112   8.193   1.266 -0.4177 -0.8527  1.0083
  281MOL0     H37911   6.102   7.880   1.267 -1.4969  1.1283 -2.6531
  281MOL0     H37912   6.041   7.966   1.401 -2.2002 -2.1009 -3.4555
  281MOL0     H37913   6.270   8.028   1.475 -3.1148 -0.1189  1.0808
  281MOL0     H37914   6.305   7.875   1.401 -0.4328 -0.0971 -1.2066
  281MOL0     H37915   5.254   8.147   1.330 -2.5359 -0.3419  4.8322
  281MOL0     H37916   5.019   8.138   1.336  1.3626  0.7680  0.0138
  281MOL0     H37917   4.664   7.815   1.330 -2.3216 -0.9484  0.6873
  281MOL0     H37918   4.445   7.704   1.303  1.1940 -1.7856  0.4916
  281MOL0     H37919   3.332   6.591   1.391 -0.9572 -1.5748 -1.4213
  281MOL0     H37920   3.105   6.649   1.453 -1.0709 -1.6110 -0.0139
  281MOL0     H37921   2.737   6.620   1.413 -0.6762 -1.1297  0.5601
  281MOL0     H37922   2.540   6.629   1.543  1.5321 -0.4614 -1.0304
  281MOL0     H37923   2.342   6.989   1.413  1.1040 -2.3164 -4.8366
  281MOL0     H37924   2.227   6.959   1.552  0.5612 -0.1029  0.2210
  281MOL0     H37925   2.074   6.857   1.433  0.9491  2.0338  1.8460
  281MOL0     H37926   2.169   6.837   1.292  0.4667 -0.4625  0.6776
  281MOL0     H37927   2.175   7.052   1.234 -0.2299 -2.9456 -1.5760
  281MOL0     H37928   2.085   7.116   1.374 -1.3820 -1.3663  0.5739
  281MOL0     H37929   1.972   6.900   1.180  2.0663 -0.0102 -0.4314
  281MOL0     H37930   1.879   7.001   1.300 -1.6488  1.6210 -2.3478
  281MOL0     H37931   1.870   7.257   0.977 -0.6628 -1.0519  0.0759
  281MOL0     H37932   2.378   6.871   1.233  1.9850  0.1894 -3.0812
  281MOL0     H37933   2.565   6.830   0.988 -1.1839  0.9754 -0.3619
  281MOL0     H37934   2.501   6.968   1.083 -1.9506 -2.3541  0.6871
  281MOL0     H37935   2.674   6.951   1.059 -1.1298  2.2999 -1.7122
  282MOL0     O37936   7.633  10.262   0.475 -0.3307 -0.9651 -0.5620
  282MOL0     C37937   7.608  10.294   0.588 -0.2455  0.0738 -0.2046
  282MOL0     O37938   7.640  10.417   0.647 -0.4776  0.5813  0.1880
  282MOL0     C37939   7.731  10.505   0.593  1.1689 -0.3848 -0.4178
  282MOL0     C37940   7.733  10.542   0.464 -0.0478  0.0540  0.0773
  282MOL0     C37941   7.828  10.627   0.423 -0.5890  0.1063  0.8125
  282MOL0     C37942   7.909  10.700   0.516  0.6631  0.5661 -0.0585
  282MOL0     O37943   7.978  10.808   0.480 -0.5513 -0.7169  0.0762
  282MOL0     C37944   8.106  10.793   0.422 -0.3253 -0.0146  0.3219
  282MOL0     C37945   8.178  10.931   0.400  0.0372  0.2157  0.4797
  282MOL0     C37946   8.303  10.914   0.321 -0.1920  0.5887  1.6411
  282MOL0     C37947   8.418  10.993   0.384 -0.4456 -0.3835 -0.1516
  282MOL0     C37948   8.543  10.985   0.306  1.1350 -0.2861  0.5466
  282MOL0     C37949   8.659  11.028   0.384 -0.2900  0.1720 -0.6826
  282MOL0     C37950   8.777  11.008   0.292 -0.1366  0.2365 -0.0957
  282MOL0     C37951   8.892  11.059   0.365 -0.4752 -0.3055 -0.6148
  282MOL0     N37952   9.012  11.027   0.291 -0.1816  0.7117  0.5624
  282MOL0     C37953   9.067  11.106   0.192 -0.3502 -0.5189 -1.3622
  282MOL0     C37954   9.186  11.046   0.169 -0.4201 -0.0584 -0.0422
  282MOL0     C37955   9.287  11.089   0.069 -0.2590 -0.5674 -0.3891
  282MOL0     C37956   9.359  10.978   0.007 -0.5599  0.7890 -0.2810
  282MOL0     C37957   9.468  11.025  -0.101 -0.1179 -0.0498  0.3542
  282MOL0     C37958   9.562  10.910  -0.130 -0.4502 -0.1201  0.6613
  282MOL0     O37959   9.664  10.973  -0.206  0.3134  0.4586 -0.5026
  282MOL0     C37960   9.763  10.898  -0.261 -0.7459 -0.1159  0.7475
  282MOL0     C37961   9.802  10.765  -0.239 -0.0891 -0.4120 -0.1270
  282MOL0     C37962   9.922  10.704  -0.299  0.3512 -0.5069  0.6459
  282MOL0     C37963   9.995  10.769  -0.399  0.0499 -1.2749 -0.4224
  282MOL0     C37964  10.111  10.707  -0.473  0.0101 -0.0234 -0.5787
  282MOL0     O37965  10.118  10.576  -0.463 -0.6083 -0.0383  0.3463
  282MOL0     C37966  10.220  10.516  -0.539  0.2471  0.5755 -0.2273
  282MOL0     C37967  10.184  10.456  -0.652 -0.3095  0.9205  0.3543
  282MOL0     C37968  10.273  10.401  -0.744  1.0350 -0.1722 -0.6882
  282MOL0     C37969  10.409  10.422  -0.728  0.1272 -0.5242  0.0989
  282MOL0     O37970  10.502  10.397  -0.824  0.0006  0.8211  0.1625
  282MOL0     C37971  10.462  10.340  -0.952  0.0613 -0.4379  0.0115
  282MOL0     C37972  10.588  10.316  -1.040  0.7905  0.2524 -0.1366
  282MOL0     C37973  10.563  10.249  -1.170 -0.0780 -0.8043  0.2397
  282MOL0     C37974  10.697  10.198  -1.223 -0.9010  0.3524 -0.2476
  282MOL0     C37975  10.674  10.143  -1.366  0.2728 -0.0686 -0.4008
  282MOL0     C37976  10.782  10.034  -1.403 -0.2147 -0.3602 -0.1109
  282MOL0     C37977  10.748   9.946  -1.527  0.5418 -0.3637 -0.3264
  282MOL0     C37978  10.726  10.019  -1.658 -0.2855 -0.4077 -0.0618
  282MOL0    Cl37979  10.821  10.165  -1.663  0.0165  0.2188  0.1073
  282MOL0     C37980  10.450  10.491  -0.614 -0.3910 -1.0546 -0.7539
  282MOL0     C37981  10.358  10.541  -0.522 -0.3503 -0.4794 -0.4389
  282MOL0     O37982  10.189  10.786  -0.518 -0.3223  0.0092  0.4622
  282MOL0     C37983   9.953  10.902  -0.415  0.3747 -0.5717  0.5229
  282MOL0     C37984   9.844  10.967  -0.353 -0.5915  0.4263 -0.1099
  282MOL0     N37985   9.207  10.945   0.257  0.2465  0.1738 -0.2399
  282MOL0     N37986   9.101  10.929   0.328  0.1514  0.0434 -0.5689
  282MOL0     C37987   7.908  10.657   0.647  0.4443  0.0742 -0.5158
  282MOL0     C37988   7.819  10.565   0.687 -0.8119 -0.1452  0.0931
  282MOL0     C37989   7.522  10.192   0.656  0.0084  0.5683 -0.2780
  282MOL0     C37990   7.408  10.160   0.589  0.5367  0.4784  0.7642
  282MOL0     C37991   7.310  10.082   0.648 -0.7324  1.0589  0.0325
  282MOL0     C37992   7.333  10.011   0.771 -0.0447 -0.1814  0.1748
  282MOL0     O37993   7.259   9.914   0.832  0.8847 -1.0241  0.0510
  282MOL0     C37994   7.148   9.861   0.760 -0.0778  0.0831  1.4720
  282MOL0     C37995   7.201   9.767   0.648 -0.7943 -0.0148 -0.5663
  282MOL0     C37996   7.091   9.704   0.568 -0.3445  0.0014  0.3846
  282MOL0     C37997   7.009   9.797   0.471  0.3649  0.1523 -0.0554
  282MOL0     C37998   7.099   9.863   0.382  0.1554 -0.3239  0.1138
  282MOL0     C37999   7.183   9.914   0.309 -0.2632  0.7002  0.2269
  282MOL0     C38000   7.450  10.048   0.836 -0.2269  0.0924 -0.2615
  282MOL0     C38001   7.543  10.139   0.786 -0.4207  0.6103  0.5753
  282MOL0     C38002   7.665  10.191   0.862  0.2515  1.0191  0.0210
  282MOL0     H38003   7.669  10.496   0.390 -0.2116  0.2608  0.0903
  282MOL0     H38004   7.832  10.650   0.317  1.9328 -2.3636  0.2737
  282MOL0     H38005   8.173  10.734   0.485 -0.3679 -1.6423 -1.0735
  282MOL0     H38006   8.089  10.734   0.331 -0.6367 -0.0217  0.3824
  282MOL0     H38007   8.189  10.980   0.497  1.5565  2.4306 -0.7207
  282MOL0     H38008   8.106  10.992   0.345  0.6445  1.4167  0.9658
  282MOL0     H38009   8.286  10.945   0.218  0.5362 -0.7536  1.0862
  282MOL0     H38010   8.343  10.813   0.312  2.9267  1.8613 -0.6611
  282MOL0     H38011   8.387  11.098   0.383 -0.6513 -0.4395  0.1932
  282MOL0     H38012   8.426  10.974   0.491  0.0195 -0.5095 -0.2063
  282MOL0     H38013   8.560  10.886   0.262  2.1279 -0.1247  0.5346
  282MOL0     H38014   8.521  11.051   0.222 -3.8367 -1.7631  0.3842
  282MOL0     H38015   8.646  11.136   0.394  1.0487  0.1256  2.5137
  282MOL0     H38016   8.668  10.971   0.477  1.9574  0.2728 -0.7770
  282MOL0     H38017   8.767  11.072   0.204  0.5082  0.8951  0.2957
  282MOL0     H38018   8.791  10.902   0.271  1.0830  0.1632  0.9587
  282MOL0     H38019   8.880  11.166   0.383  1.5174 -0.3097  1.1417
  282MOL0     H38020   8.894  11.022   0.468 -1.6891 -1.1970 -0.8877
  282MOL0     H38021   9.022  11.195   0.150 -2.5251  0.3784  2.4282
  282MOL0     H38022   9.232  11.148  -0.005 -1.5625 -1.6659 -0.3292
  282MOL0     H38023   9.362  11.154   0.116 -0.7885  0.8799 -1.4567
  282MOL0     H38024   9.414  10.937   0.093  1.0938 -1.1561 -2.1555
  282MOL0     H38025   9.300  10.892  -0.027  1.6230 -0.8171 -0.2075
  282MOL0     H38026   9.514  11.114  -0.059 -1.3893  0.5032  0.6334
  282MOL0     H38027   9.418  11.054  -0.194  1.0301  0.8687  0.0001
  282MOL0     H38028   9.506  10.830  -0.179 -2.5117  0.4504  1.9949
  282MOL0     H38029   9.597  10.860  -0.039 -2.6007 -0.4744  1.3361
  282MOL0     H38030   9.733  10.715  -0.171  0.3568  0.1763  0.7774
  282MOL0     H38031   9.953  10.607  -0.262  0.9307 -0.0414  1.4056
  282MOL0     H38032  10.078  10.434  -0.652 -0.5447  1.7758 -2.3030
  282MOL0     H38033  10.230  10.358  -0.833  1.0936 -0.2934 -0.6585
  282MOL0     H38034  10.398  10.252  -0.945 -1.3602  0.2511 -2.7521
  282MOL0     H38035  10.397  10.415  -0.998 -0.8322 -0.7969  0.6742
  282MOL0     H38036  10.628  10.414  -1.070 -3.2925  0.6084 -6.4193
  282MOL0     H38037  10.651  10.249  -0.982  2.9346  0.5120 -2.0499
  282MOL0     H38038  10.495  10.165  -1.157  0.1595 -1.0688 -0.2441
  282MOL0     H38039  10.521  10.328  -1.233  2.3902  1.2442  0.9633
  282MOL0     H38040  10.739  10.127  -1.151 -0.6650  0.2784 -0.4536
  282MOL0     H38041  10.759  10.288  -1.229  0.3296 -0.4523 -0.0312
  282MOL0     H38042  10.665  10.226  -1.437 -1.2871  1.7233  1.7379
  282MOL0     H38043  10.586  10.080  -1.373 -0.0192  0.2551  0.2193
  282MOL0     H38044  10.879  10.082  -1.420  0.0601 -0.3627  1.3495
  282MOL0     H38045  10.800   9.973  -1.314  3.5031  1.7623  0.8080
  282MOL0     H38046  10.660   9.882  -1.511  1.7699 -1.7162  1.4138
  282MOL0     H38047  10.839   9.888  -1.544 -0.0066 -1.2100 -0.4855
  282MOL0     H38048  10.762   9.949  -1.734 -0.4816 -1.4837  0.8017
  282MOL0     H38049  10.621  10.033  -1.682  0.0796 -0.5521 -1.8680
  282MOL0     H38050  10.556  10.513  -0.609 -0.8377  1.0468  1.3969
  282MOL0     H38051  10.379  10.595  -0.431  0.8112 -0.9865 -0.3926
  282MOL0     H38052  10.002  10.961  -0.492 -0.9632  0.2266  0.2627
  282MOL0     H38053   9.828  11.070  -0.384  0.9985  0.4525 -0.9982
  282MOL0     H38054   7.985  10.707   0.704 -0.3016 -0.8692  1.4269
  282MOL0     H38055   7.820  10.527   0.789 -2.1774 -0.4612  0.0124
  282MOL0     H38056   7.379  10.207   0.496 -1.6914 -1.3971  0.4349
  282MOL0     H38057   7.220  10.055   0.595  0.4002  0.3277 -1.6054
  282MOL0     H38058   7.098   9.943   0.708  1.8289  1.6915  2.0219
  282MOL0     H38059   7.080   9.822   0.836 -0.4864  0.2863  1.2127
  282MOL0     H38060   7.251   9.686   0.703  1.0499  0.7292 -1.0747
  282MOL0     H38061   7.270   9.818   0.580 -0.4249 -0.1886 -0.3261
  282MOL0     H38062   7.030   9.643   0.636  0.2836 -0.4283  0.5854
  282MOL0     H38063   7.145   9.629   0.509  0.8641  1.6860 -0.7182
  282MOL0     H38064   6.943   9.735   0.410 -0.8778  0.1355  1.2542
  282MOL0     H38065   6.955   9.874   0.528  0.6530  0.9141 -0.7926
  282MOL0     H38066   7.253   9.953   0.237 -1.2613  2.0394 -0.0633
  282MOL0     H38067   7.461  10.003   0.934  0.3440 -0.6356 -0.6441
  282MOL0     H38068   7.640  10.154   0.962 -2.7480  2.2386 -0.1652
  282MOL0     H38069   7.756  10.156   0.812 -0.5863 -0.1814 -0.7234
  282MOL0     H38070   7.660  10.300   0.865 -2.0675  1.0692 -1.8952
  283MOL0     O38071   1.194   7.814   1.036  0.5295  0.5863 -0.1049
  283MOL0     C38072   1.211   7.733   0.945  0.9007 -0.9009 -0.3269
  283MOL0     O38073   1.145   7.744   0.818 -0.6947 -0.3616 -1.2136
  283MOL0     C38074   1.020   7.787   0.819  0.4054 -0.6556  0.3218
  283MOL0     C38075   0.980   7.925   0.837 -0.1332 -0.7164  0.5089
  283MOL0     C38076   0.842   7.955   0.827 -0.3295  0.1228 -0.1055
  283MOL0     C38077   0.745   7.858   0.810 -0.3991 -0.2727 -0.0964
  283MOL0     O38078   0.608   7.896   0.788 -0.2125  0.8370 -0.2439
  283MOL0     C38079   0.573   8.039   0.765  0.0976  0.2791  0.1514
  283MOL0     C38080   0.426   8.053   0.717  0.5649 -0.7653 -0.0211
  283MOL0     C38081   0.373   8.186   0.660 -0.2324 -0.2229  0.3884
  283MOL0     C38082   0.380   8.305   0.763  0.1786  0.3896  0.3180
  283MOL0     C38083   0.283   8.300   0.876  0.0362 -0.3403  0.3166
  283MOL0     C38084   0.142   8.305   0.817 -0.5910 -0.1812 -0.5674
  283MOL0     C38085   0.049   8.362   0.929 -0.2061  0.0530 -0.4878
  283MOL0     C38086  -0.098   8.360   0.878  0.7701 -0.1933  0.1399
  283MOL0     N38087  -0.133   8.444   0.762 -0.0992 -0.2588  0.7573
  283MOL0     C38088  -0.146   8.579   0.773  0.5284 -0.5903  0.3485
  283MOL0     C38089  -0.192   8.620   0.653  0.0109  0.0390 -0.3876
  283MOL0     C38090  -0.206   8.770   0.612  0.4884 -0.8674  0.5248
  283MOL0     C38091  -0.087   8.866   0.654 -0.0997 -0.2555  0.0761
  283MOL0     C38092   0.052   8.836   0.591 -0.0142  0.8983  0.9501
  283MOL0     C38093   0.155   8.927   0.652  0.1317  0.5254 -0.6697
  283MOL0     O38094   0.159   8.931   0.795 -0.0636  0.5117 -0.3490
  283MOL0     C38095   0.272   8.879   0.855 -0.9936  0.8173 -0.4994
  283MOL0     C38096   0.343   8.764   0.806  0.3444 -0.0996  0.3615
  283MOL0     C38097   0.468   8.734   0.847 -0.4001  0.6048 -0.8825
  283MOL0     C38098   0.534   8.821   0.936  0.2814 -0.4783 -0.4347
  283MOL0     C38099   0.680   8.807   0.964 -0.2506  0.1175  0.0012
  283MOL0     O38100   0.758   8.756   0.858 -0.0907 -0.4134  0.7336
  283MOL0     C38101   0.890   8.793   0.877 -0.5947 -0.2314  0.3409
  283MOL0     C38102   0.976   8.723   0.966  0.6223  0.1125 -1.1370
  283MOL0     C38103   1.109   8.759   0.979 -0.1730  0.0820 -0.2203
  283MOL0     C38104   1.164   8.868   0.903 -0.1099 -0.3905  0.3117
  283MOL0     O38105   1.291   8.921   0.910 -0.9257 -1.1028  0.4701
  283MOL0     C38106   1.392   8.819   0.957 -0.5292 -0.9737 -0.1943
  283MOL0     C38107   1.534   8.856   0.921  0.5833 -0.7612  0.0219
  283MOL0     C38108   1.645   8.763   0.973  0.4603 -0.1770 -0.1691
  283MOL0     C38109   1.760   8.735   0.876  0.4957  0.1352  0.3831
  283MOL0     C38110   1.849   8.853   0.839 -0.1903 -0.3427 -0.0560
  283MOL0     C38111   1.952   8.877   0.943  1.0330 -0.4230 -0.3273
  283MOL0     C38112   2.032   8.996   0.938 -0.1090  0.0353 -0.0366
  283MOL0     C38113   2.146   8.986   1.046  0.8130 -0.9682  0.4308
  283MOL0    Cl38114   2.283   9.076   0.973  0.0471 -0.5065  0.1563
  283MOL0     C38115   1.083   8.930   0.813 -0.3549 -0.5951 -0.2009
  283MOL0     C38116   0.946   8.905   0.812  0.9840 -0.3512  0.1444
  283MOL0     O38117   0.719   8.829   1.081 -0.8835 -0.0910 -0.4019
  283MOL0     C38118   0.462   8.921   0.999 -0.1024  0.0060  0.4775
  283MOL0     C38119   0.328   8.948   0.963 -0.0767  0.5349 -0.0983
  283MOL0     N38120  -0.200   8.510   0.569  0.2875 -0.6420 -0.2634
  283MOL0     N38121  -0.170   8.404   0.638 -0.5439  0.8846 -0.2581
  283MOL0     C38122   0.783   7.729   0.796  0.7348 -0.0310  0.7324
  283MOL0     C38123   0.917   7.694   0.797  0.4085  0.5605  0.5841
  283MOL0     C38124   1.318   7.626   0.980 -0.6678  0.5883 -0.2436
  283MOL0     C38125   1.369   7.625   1.112 -0.5393  0.5106 -0.7387
  283MOL0     C38126   1.470   7.540   1.153  0.0130 -0.1713 -0.2393
  283MOL0     C38127   1.504   7.437   1.068 -0.8812  0.0028 -0.4023
  283MOL0     O38128   1.584   7.328   1.101 -0.1469 -0.1520 -0.7646
  283MOL0     C38129   1.645   7.316   1.229 -0.7555 -0.0579 -0.8465
  283MOL0     C38130   1.550   7.250   1.331 -0.1559  0.0036  1.1272
  283MOL0     C38131   1.630   7.200   1.440 -0.4107 -0.8606  0.0831
  283MOL0     C38132   1.545   7.156   1.557  0.4102 -0.1465 -0.4466
  283MOL0     C38133   1.603   7.181   1.693  0.3293  0.3126 -0.6328
  283MOL0     C38134   1.663   7.205   1.801  0.9940  0.8755 -0.0776
  283MOL0     C38135   1.453   7.425   0.938 -0.4222 -0.3012  0.1873
  283MOL0     C38136   1.366   7.525   0.891  0.7236 -0.1534  0.4906
  283MOL0     C38137   1.317   7.502   0.748 -0.0625 -0.2645 -0.1420
  283MOL0     H38138   1.048   8.008   0.852 -0.2321 -0.3748 -0.8216
  283MOL0     H38139   0.807   8.058   0.834  1.0507  0.5827  0.3182
  283MOL0     H38140   0.577   8.094   0.859 -0.0986 -1.0194  0.9403
  283MOL0     H38141   0.628   8.086   0.683 -1.0971  1.5482  0.0295
  283MOL0     H38142   0.367   8.023   0.803  3.3376 -1.2810  1.8359
  283MOL0     H38143   0.410   7.978   0.638  0.6005 -1.1121  0.2987
  283MOL0     H38144   0.268   8.185   0.631 -0.4080  2.4579  0.6657
  283MOL0     H38145   0.430   8.215   0.571 -0.7332 -3.0070 -0.9574
  283MOL0     H38146   0.481   8.314   0.804 -0.0167 -3.2919  1.9302
  283MOL0     H38147   0.368   8.400   0.710  3.8140 -0.6193 -2.8552
  283MOL0     H38148   0.301   8.207   0.931  1.0689 -1.1204 -1.2555
  283MOL0     H38149   0.299   8.393   0.931 -1.7573  1.0584 -1.3759
  283MOL0     H38150   0.134   8.373   0.732  0.3909  1.8056  0.8547
  283MOL0     H38151   0.106   8.203   0.800 -2.1435  0.4145 -1.0136
  283MOL0     H38152   0.079   8.464   0.956  0.1284 -0.5466  1.5779
  283MOL0     H38153   0.058   8.301   1.019  0.2607 -1.5035 -1.5544
  283MOL0     H38154  -0.128   8.258   0.855  1.8288 -0.0937 -1.8749
  283MOL0     H38155  -0.153   8.395   0.966  2.2243  0.1813  0.9465
  283MOL0     H38156  -0.134   8.646   0.858  1.4262  2.1604 -1.7955
  283MOL0     H38157  -0.220   8.770   0.504 -0.5937 -0.4736  0.6486
  283MOL0     H38158  -0.298   8.807   0.658  0.0678  0.7802 -1.5015
  283MOL0     H38159  -0.106   8.973   0.639  3.5126  0.3814 -0.8328
  283MOL0     H38160  -0.081   8.867   0.763 -0.5594  0.3103  0.1007
  283MOL0     H38161   0.049   8.840   0.482  2.4980  2.9581  0.8479
  283MOL0     H38162   0.076   8.733   0.620 -1.4028  0.4880  0.6953
  283MOL0     H38163   0.126   9.026   0.616 -1.9793 -0.0174 -0.6383
  283MOL0     H38164   0.251   8.901   0.607  0.5980 -0.2198  0.6680
  283MOL0     H38165   0.292   8.713   0.725 -1.4040  2.8842 -0.5898
  283MOL0     H38166   0.529   8.650   0.817 -1.8944 -0.7579 -0.2679
  283MOL0     H38167   0.932   8.644   1.026  0.1192  1.8793  0.9417
  283MOL0     H38168   1.160   8.709   1.061 -0.3847 -1.6322 -1.0884
  283MOL0     H38169   1.392   8.804   1.066  0.4684 -1.0165 -0.1858
  283MOL0     H38170   1.371   8.724   0.908  2.9371 -1.6533 -0.6597
  283MOL0     H38171   1.546   8.854   0.812 -0.0283  0.8529 -0.0988
  283MOL0     H38172   1.549   8.959   0.954 -0.0373 -0.6122 -0.1452
  283MOL0     H38173   1.687   8.816   1.059  2.6759 -0.6749 -0.8866
  283MOL0     H38174   1.590   8.674   1.003 -0.3268  1.6407  4.8268
  283MOL0     H38175   1.702   8.695   0.792  2.0423  1.6043 -1.4802
  283MOL0     H38176   1.826   8.655   0.911  0.2466  0.0305  0.6175
  283MOL0     H38177   1.796   8.944   0.809  1.6367  0.6624 -0.4143
  283MOL0     H38178   1.910   8.838   0.749 -1.5347  0.9212 -1.2267
  283MOL0     H38179   1.906   8.881   1.042  0.1558  2.2323 -0.7735
  283MOL0     H38180   2.019   8.790   0.948 -0.1276 -1.2782  2.4228
  283MOL0     H38181   1.977   9.090   0.940  0.9112  0.6864 -1.3537
  283MOL0     H38182   2.079   9.004   0.840 -1.2739  1.4353 -0.5172
  283MOL0     H38183   2.100   9.037   1.131 -2.5531  1.2933 -2.4590
  283MOL0     H38184   2.178   8.885   1.071  0.6341 -0.5332  2.6023
  283MOL0     H38185   1.132   9.002   0.749 -0.7198 -1.2494 -1.2390
  283MOL0     H38186   0.875   8.958   0.749  1.3141  1.1122  0.9676
  283MOL0     H38187   0.499   8.986   1.077  3.2424  0.0877 -0.9948
  283MOL0     H38188   0.278   9.030   1.013  0.6931  1.8437 -1.4242
  283MOL0     H38189   0.703   7.656   0.785  0.4174  0.3369  0.5840
  283MOL0     H38190   0.932   7.590   0.773 -0.2299  0.2807  1.3759
  283MOL0     H38191   1.344   7.702   1.185  3.2351  1.2441 -0.0240
  283MOL0     H38192   1.512   7.563   1.251 -1.7132  1.1142  0.2397
  283MOL0     H38193   1.682   7.413   1.265 -1.9918 -1.1202  4.0924
  283MOL0     H38194   1.734   7.254   1.215  2.3646  2.5860  4.2492
  283MOL0     H38195   1.492   7.168   1.286 -1.4679  0.1755  2.4212
  283MOL0     H38196   1.477   7.328   1.354  0.0550  1.2400 -1.9002
  283MOL0     H38197   1.694   7.279   1.481 -1.1730 -1.5856  2.8503
  283MOL0     H38198   1.699   7.119   1.412  0.6076 -0.1816  0.5513
  283MOL0     H38199   1.454   7.215   1.571  0.6568 -0.0815  1.1167
  283MOL0     H38200   1.522   7.050   1.553  1.5485 -0.4483  0.5083
  283MOL0     H38201   1.703   7.212   1.900  0.7463  0.5627  0.0450
  283MOL0     H38202   1.476   7.341   0.873  1.3735 -0.0736  0.4896
  283MOL0     H38203   1.372   7.418   0.703  1.5369  1.3571 -1.3730
  283MOL0     H38204   1.210   7.482   0.744 -0.2726  0.7884 -0.1486
  283MOL0     H38205   1.336   7.587   0.682  5.8918 -0.5154  0.6843
  284MOL0     O38206  10.105   6.363   5.338  0.2405 -0.1781 -0.3916
  284MOL0     C38207  10.145   6.312   5.234  0.6864  0.1960  0.6324
  284MOL0     O38208  10.089   6.321   5.106 -1.3552  0.0366 -0.5526
  284MOL0     C38209   9.961   6.362   5.112  0.0798 -0.3219 -0.2227
  284MOL0     C38210   9.933   6.496   5.073  0.2028  1.0223  0.3670
  284MOL0     C38211   9.793   6.535   5.052  0.0288  0.3189 -0.0012
  284MOL0     C38212   9.686   6.442   5.064  0.6000  0.6166 -0.0080
  284MOL0     O38213   9.552   6.460   5.043 -0.0301 -0.3194 -0.7574
  284MOL0     C38214   9.522   6.586   4.983 -0.5967 -0.3177 -0.6247
  284MOL0     C38215   9.380   6.593   4.949  0.3162  0.2669  0.3672
  284MOL0     C38216   9.338   6.493   4.833  0.4352 -0.5405  0.2090
  284MOL0     C38217   9.190   6.481   4.826  0.0631  0.5329 -0.1226
  284MOL0     C38218   9.122   6.599   4.767 -0.5877  0.1124  0.3119
  284MOL0     C38219   8.970   6.574   4.776  1.1035  0.5029 -1.1469
  284MOL0     C38220   8.903   6.483   4.672  0.6319 -0.0257 -0.4899
  284MOL0     C38221   8.901   6.525   4.524  0.3939  0.1200  0.8413
  284MOL0     N38222   9.020   6.498   4.447 -0.1717 -0.4806 -0.1290
  284MOL0     C38223   9.089   6.375   4.447 -0.1920  0.1403 -0.0915
  284MOL0     C38224   9.206   6.395   4.373 -0.9659 -0.9660 -0.2601
  284MOL0     C38225   9.312   6.292   4.349 -0.0578 -1.1064 -0.0355
  284MOL0     C38226   9.438   6.347   4.414  0.2588 -0.4806  0.2840
  284MOL0     C38227   9.522   6.218   4.449  0.1165 -0.8624  0.2154
  284MOL0     C38228   9.627   6.236   4.559  1.3542 -0.1022 -0.0587
  284MOL0     O38229   9.690   6.107   4.587  1.1287  0.3547 -0.0765
  284MOL0     C38230   9.812   6.112   4.637 -0.3140  0.2082  0.0298
  284MOL0     C38231   9.863   6.205   4.733  1.0750 -0.0714 -0.0537
  284MOL0     C38232   9.996   6.213   4.772  0.0547 -0.3290 -0.3116
  284MOL0     C38233  10.094   6.125   4.719 -0.3698 -0.1188  1.2416
  284MOL0     C38234  10.241   6.138   4.754  0.9694  1.5016  0.2863
  284MOL0     O38235  10.333   6.050   4.702  0.2394 -0.9326 -0.0158
  284MOL0     C38236  10.470   6.069   4.728 -0.8743 -0.3540  0.1501
  284MOL0     C38237  10.543   6.163   4.654 -0.3477  0.2161 -0.3008
  284MOL0     C38238  10.678   6.191   4.685  0.1321 -0.5490 -0.8962
  284MOL0     C38239  10.737   6.129   4.801 -0.8018  1.1691 -0.1548
  284MOL0     O38240  10.874   6.145   4.832  0.6230 -0.5509  0.5051
  284MOL0     C38241  10.956   6.196   4.719 -0.3012  0.1364 -0.4711
  284MOL0     C38242  11.114   6.175   4.763 -0.4755  1.0285 -0.6250
  284MOL0     C38243  11.214   6.242   4.658  0.2254  0.4817  0.1054
  284MOL0     C38244  11.220   6.391   4.687 -0.7424  0.1713  1.0409
  284MOL0     C38245  11.337   6.443   4.604  0.3675  0.5622 -0.4426
  284MOL0     C38246  11.350   6.586   4.633 -0.1846 -0.1760 -0.1946
  284MOL0     C38247  11.484   6.648   4.583 -0.3384 -0.4782  1.1540
  284MOL0     C38248  11.493   6.799   4.594 -0.4351 -0.8780 -0.1321
  284MOL0    Cl38249  11.669   6.834   4.599 -0.0128  0.0176 -0.1002
  284MOL0     C38250  10.667   6.032   4.873 -0.1021 -0.4123  0.0302
  284MOL0     C38251  10.540   6.002   4.827 -0.4563  1.2461  0.3248
  284MOL0     O38252  10.273   6.238   4.820  0.6969  0.2025 -1.3326
  284MOL0     C38253  10.046   6.031   4.620  0.6108  0.0551 -0.4685
  284MOL0     C38254   9.908   6.016   4.590  0.6173  0.1672  0.4692
  284MOL0     N38255   9.199   6.525   4.325  0.6631 -0.6021 -0.1956
  284MOL0     N38256   9.093   6.588   4.372 -0.6186  0.3904 -0.5191
  284MOL0     C38257   9.715   6.319   5.120 -0.1534 -0.5485  1.2544
  284MOL0     C38258   9.849   6.283   5.142  0.2799  0.5551  0.7177
  284MOL0     C38259  10.269   6.236   5.232 -0.2913  0.6039 -0.2444
  284MOL0     C38260  10.364   6.270   5.133  0.0844  0.1283 -0.1642
  284MOL0     C38261  10.490   6.207   5.131 -0.2615 -0.1473 -0.3756
  284MOL0     C38262  10.529   6.116   5.229 -0.0348  0.5677  0.2036
  284MOL0     O38263  10.660   6.067   5.236 -0.1790 -0.0349  0.0121
  284MOL0     C38264  10.769   6.155   5.268  0.1770  0.3293 -0.1682
  284MOL0     C38265  10.833   6.208   5.141  0.0580 -0.7549  0.1655
  284MOL0     C38266  10.953   6.299   5.176  0.4879  0.2646  0.0948
  284MOL0     C38267  10.994   6.388   5.059 -0.1040  0.4763 -0.1512
  284MOL0     C38268  11.121   6.466   5.075 -0.2446 -0.2822 -0.1852
  284MOL0     C38269  11.217   6.542   5.079  0.8443 -0.5851 -0.3475
  284MOL0     C38270  10.435   6.074   5.327 -0.0938  0.1608  1.0111
  284MOL0     C38271  10.306   6.135   5.327 -0.2719 -1.2793  1.2608
  284MOL0     C38272  10.212   6.081   5.440  1.2433  0.3806  0.5838
  284MOL0     H38273  10.019   6.560   5.057 -0.9876  2.3111 -1.2711
  284MOL0     H38274   9.773   6.636   5.018  0.6437 -0.2573 -2.2946
  284MOL0     H38275   9.551   6.665   5.053  0.7898 -2.8494  1.8502
  284MOL0     H38276   9.582   6.602   4.893  0.3907  1.1699  0.2475
  284MOL0     H38277   9.361   6.698   4.924 -2.5013  0.2483  2.0172
  284MOL0     H38278   9.321   6.573   5.038 -1.5452  1.7507 -0.4588
  284MOL0     H38279   9.381   6.394   4.849 -1.2359 -1.1483  1.1755
  284MOL0     H38280   9.384   6.528   4.740  3.8054  0.4214  2.0474
  284MOL0     H38281   9.171   6.405   4.749 -0.8986  0.3429  0.2917
  284MOL0     H38282   9.148   6.447   4.921 -1.3520 -0.0911 -0.9436
  284MOL0     H38283   9.140   6.693   4.820  0.6590  0.5833 -0.8690
  284MOL0     H38284   9.158   6.605   4.663  1.0809  0.9406  0.8976
  284MOL0     H38285   8.938   6.529   4.871 -0.8693  0.3129 -1.8598
  284MOL0     H38286   8.926   6.672   4.759 -0.3865  0.2328  0.7851
  284MOL0     H38287   8.796   6.478   4.692  0.5490 -0.3919 -0.9931
  284MOL0     H38288   8.951   6.385   4.683  0.8502 -0.2224 -2.7005
  284MOL0     H38289   8.830   6.456   4.477  0.5324  1.1653 -0.9765
  284MOL0     H38290   8.867   6.628   4.508 -1.8271 -0.2782  2.4673
  284MOL0     H38291   9.071   6.276   4.487  0.8524 -0.5346 -1.1916
  284MOL0     H38292   9.277   6.194   4.385  1.1024 -1.6806 -0.4258
  284MOL0     H38293   9.325   6.293   4.241  3.7664  1.2273  0.2858
  284MOL0     H38294   9.484   6.424   4.352 -2.5328  0.1953 -1.1001
  284MOL0     H38295   9.413   6.405   4.503 -0.0531  3.8564 -2.3399
  284MOL0     H38296   9.565   6.174   4.359  0.3620 -2.6694  1.1613
  284MOL0     H38297   9.452   6.145   4.491  0.4048  0.0986  2.5185
  284MOL0     H38298   9.579   6.269   4.652 -3.4712 -1.4178 -1.8050
  284MOL0     H38299   9.702   6.312   4.536 -2.2073  2.7651 -3.4492
  284MOL0     H38300   9.787   6.268   4.778  1.3943 -0.0547  0.4594
  284MOL0     H38301  10.017   6.291   4.843 -0.8162 -1.0572  0.7824
  284MOL0     H38302  10.488   6.215   4.576  1.9432  0.6182 -1.7184
  284MOL0     H38303  10.736   6.251   4.616  1.1912 -1.7021 -1.0345
  284MOL0     H38304  10.928   6.143   4.628 -0.9827 -0.3588  0.0167
  284MOL0     H38305  10.950   6.305   4.705  3.1276  0.5904  0.6623
  284MOL0     H38306  11.143   6.215   4.861  1.8380  0.0479 -0.8476
  284MOL0     H38307  11.133   6.068   4.763  0.7254  1.2082  0.6583
  284MOL0     H38308  11.309   6.188   4.666 -1.7072 -3.4175 -0.3955
  284MOL0     H38309  11.188   6.218   4.554 -0.3551  1.1708  0.0869
  284MOL0     H38310  11.228   6.423   4.791 -1.9627  1.1416  0.8555
  284MOL0     H38311  11.125   6.426   4.645 -1.7267 -4.1398 -0.8809
  284MOL0     H38312  11.313   6.428   4.499 -2.6813  1.5514  0.0020
  284MOL0     H38313  11.430   6.389   4.626  0.0611 -0.3050 -1.2302
  284MOL0     H38314  11.256   6.628   4.597 -2.0525 -0.8283  3.4693
  284MOL0     H38315  11.348   6.595   4.742  2.9785  0.5077 -0.0862
  284MOL0     H38316  11.495   6.614   4.480 -3.2410 -2.5631  1.3975
  284MOL0     H38317  11.563   6.594   4.635  1.5401  0.8996 -0.1264
  284MOL0     H38318  11.444   6.854   4.512  1.1552 -1.0190 -1.2066
  284MOL0     H38319  11.444   6.815   4.691 -0.7524 -1.4988 -0.1870
  284MOL0     H38320  10.710   5.977   4.955  2.8695  1.8727  0.1809
  284MOL0     H38321  10.473   5.926   4.866  1.1380 -1.0704 -1.2511
  284MOL0     H38322  10.102   5.945   4.586 -1.4147 -1.4263 -0.2891
  284MOL0     H38323   9.862   5.942   4.525 -1.6988  1.3353  0.6528
  284MOL0     H38324   9.638   6.249   5.148 -0.4381 -0.4011  0.8528
  284MOL0     H38325   9.876   6.186   5.184  0.0117  0.3882  0.5062
  284MOL0     H38326  10.335   6.342   5.057  2.4445 -0.0038 -1.2847
  284MOL0     H38327  10.544   6.250   5.048 -1.3261 -0.0011 -1.0108
  284MOL0     H38328  10.836   6.093   5.329 -0.5721  0.2168  0.5593
  284MOL0     H38329  10.739   6.239   5.330 -0.9292  0.3885 -0.7461
  284MOL0     H38330  10.765   6.267   5.080  0.7634  1.5108  1.4436
  284MOL0     H38331  10.857   6.122   5.078  0.9089 -0.4480  0.0503
  284MOL0     H38332  11.034   6.227   5.190  1.3177  1.5582  2.6554
  284MOL0     H38333  10.938   6.360   5.266 -3.4119  1.6699 -1.2886
  284MOL0     H38334  11.009   6.333   4.966 -2.0765 -0.7530  0.2014
  284MOL0     H38335  10.923   6.470   5.052 -0.0163  0.5803  0.1237
  284MOL0     H38336  11.292   6.617   5.089 -0.8628  1.1663 -0.0142
  284MOL0     H38337  10.471   5.991   5.387  0.2765 -0.7977 -0.4787
  284MOL0     H38338  10.196   5.973   5.438  0.8852  0.3228  3.0611
  284MOL0     H38339  10.249   6.123   5.534 -0.0891 -0.8194  1.6848
  284MOL0     H38340  10.114   6.125   5.423  1.3657 -0.0766 -1.5421
  285MOL0     O38341   9.530   1.545   1.862 -0.3129 -0.1417  0.2811
  285MOL0     C38342   9.556   1.629   1.778 -0.0504 -0.1211  0.8808
  285MOL0     O38343   9.533   1.619   1.651 -0.5319  0.1466 -0.2017
  285MOL0     C38344   9.436   1.538   1.612  0.5143 -0.4771  0.6098
  285MOL0     C38345   9.307   1.593   1.581 -0.9096  0.2255 -0.4722
  285MOL0     C38346   9.207   1.495   1.554 -0.0286 -0.4088 -0.2644
  285MOL0     C38347   9.236   1.357   1.550 -0.2933 -0.5927  0.6207
  285MOL0     O38348   9.137   1.275   1.502  0.7777  0.4250 -0.2745
  285MOL0     C38349   9.182   1.147   1.448 -0.8574  0.5891  0.6586
  285MOL0     C38350   9.047   1.059   1.401  0.4781 -1.0383 -0.2411
  285MOL0     C38351   8.961   1.046   1.528 -0.1578  0.0831  0.0687
  285MOL0     C38352   8.824   0.993   1.480 -0.4991 -0.2104 -0.4682
  285MOL0     C38353   8.743   1.108   1.407 -0.3990 -0.7205 -1.1446
  285MOL0     C38354   8.601   1.051   1.397  0.1921 -0.2913  0.0889
  285MOL0     C38355   8.495   1.141   1.328 -0.4408  0.8797  0.0740
  285MOL0     C38356   8.368   1.063   1.291 -0.4544 -0.5281  0.4112
  285MOL0     N38357   8.273   1.132   1.210 -0.2693  0.1038 -0.2061
  285MOL0     C38358   8.297   1.219   1.114  0.5913 -0.7019  0.0837
  285MOL0     C38359   8.179   1.244   1.046 -0.5861  0.4745 -0.6134
  285MOL0     C38360   8.166   1.337   0.928 -0.0551 -0.1651 -0.3271
  285MOL0     C38361   8.015   1.374   0.919 -0.6906  0.0615 -0.9168
  285MOL0     C38362   7.999   1.489   0.816 -0.0814 -1.0515 -0.4326
  285MOL0     C38363   8.025   1.449   0.677  0.3920  0.1646 -0.2410
  285MOL0     O38364   7.973   1.548   0.580 -0.2247 -0.6614 -0.8922
  285MOL0     C38365   7.920   1.510   0.458  0.2052 -1.0310 -0.1820
  285MOL0     C38366   7.987   1.421   0.378 -0.0836  0.9003 -0.7208
  285MOL0     C38367   7.930   1.372   0.256  0.2285 -0.5915  0.2951
  285MOL0     C38368   7.809   1.430   0.208 -0.4378  0.0701  0.2207
  285MOL0     C38369   7.763   1.411   0.068 -0.4233 -0.3682  0.0430
  285MOL0     O38370   7.649   1.460   0.034  0.2878 -0.5846  0.6736
  285MOL0     C38371   7.578   1.424  -0.082 -0.9729 -0.0377  0.8730
  285MOL0     C38372   7.644   1.392  -0.201 -1.0194  0.0911  0.2425
  285MOL0     C38373   7.567   1.347  -0.311 -1.1965  0.3091 -0.3791
  285MOL0     C38374   7.435   1.335  -0.300  0.9451 -0.2518 -0.5827
  285MOL0     O38375   7.372   1.275  -0.408 -1.3208 -0.7799  0.0710
  285MOL0     C38376   7.229   1.261  -0.418  0.3744 -0.2536 -0.0918
  285MOL0     C38377   7.201   1.223  -0.563  0.7259 -0.4781 -0.0786
  285MOL0     C38378   7.073   1.138  -0.586  0.2907 -0.3020 -0.1456
  285MOL0     C38379   6.946   1.224  -0.572 -0.2230  0.8643  0.9691
  285MOL0     C38380   6.829   1.123  -0.584 -0.4508  0.6684  0.2295
  285MOL0     C38381   6.708   1.192  -0.653 -0.6444 -0.1717 -0.4201
  285MOL0     C38382   6.573   1.152  -0.596  0.2378  0.1428 -0.3559
  285MOL0     C38383   6.521   1.015  -0.646  1.0393  1.1787 -0.1769
  285MOL0    Cl38384   6.373   0.963  -0.546 -0.2343 -0.5325  0.6056
  285MOL0     C38385   7.370   1.372  -0.184 -0.7248 -0.0849 -0.2155
  285MOL0     C38386   7.442   1.428  -0.078  0.6992  0.1995 -0.3573
  285MOL0     O38387   7.837   1.330  -0.005 -0.8779 -0.2124 -0.4344
  285MOL0     C38388   7.747   1.525   0.293  0.1576  0.0391 -0.2005
  285MOL0     C38389   7.803   1.560   0.410  0.2849 -0.5494  0.0974
  285MOL0     N38390   8.080   1.159   1.102 -0.4899 -0.4193  0.4693
  285MOL0     N38391   8.141   1.107   1.209  0.3063  0.3035 -0.6475
  285MOL0     C38392   9.361   1.310   1.582  0.8169  0.1321 -0.2167
  285MOL0     C38393   9.459   1.401   1.613 -0.3841  0.7240 -0.1883
  285MOL0     C38394   9.631   1.745   1.826 -0.4107 -0.5088  0.2044
  285MOL0     C38395   9.757   1.765   1.772  0.2286 -0.2488 -0.3794
  285MOL0     C38396   9.813   1.892   1.796 -0.8340  0.2815 -0.8138
  285MOL0     C38397   9.753   1.994   1.869 -0.0168 -0.3270  0.0123
  285MOL0     O38398   9.797   2.119   1.886 -0.4789 -0.1435  0.0702
  285MOL0     C38399   9.883   2.171   1.784 -0.4079 -0.7312  0.2369
  285MOL0     C38400  10.029   2.188   1.838  0.6052  0.2197  0.3863
  285MOL0     C38401  10.101   2.061   1.890  1.4741  0.7335  0.3448
  285MOL0     C38402  10.240   2.094   1.937  1.0437  1.3138  0.2263
  285MOL0     C38403  10.296   1.975   2.009  0.7638 -0.7543 -0.0179
  285MOL0     C38404  10.322   1.876   2.074  0.5069  0.3628 -0.8112
  285MOL0     C38405   9.635   1.959   1.925 -0.3196  0.0901 -0.2982
  285MOL0     C38406   9.572   1.846   1.907  0.7668 -0.2374  0.8533
  285MOL0     C38407   9.442   1.834   1.975 -0.3081  1.1580 -0.6108
  285MOL0     H38408   9.295   1.700   1.592 -0.5319  0.1808  0.4622
  285MOL0     H38409   9.110   1.532   1.522  0.5954  0.3595 -1.3223
  285MOL0     H38410   9.248   1.161   1.363 -2.6728  2.5771 -0.5076
  285MOL0     H38411   9.220   1.079   1.526 -0.9367  0.8624  0.9360
  285MOL0     H38412   9.087   0.962   1.368 -0.8864 -2.1777  1.2761
  285MOL0     H38413   9.004   1.116   1.318  1.0755  1.1356  0.8804
  285MOL0     H38414   8.955   1.141   1.583  1.8431 -1.1209  2.5156
  285MOL0     H38415   9.000   0.968   1.594  1.0170 -1.8068 -2.6625
  285MOL0     H38416   8.838   0.910   1.409 -0.6544  0.1889 -0.9724
  285MOL0     H38417   8.764   0.958   1.564  0.1066  1.3626  0.6611
  285MOL0     H38418   8.749   1.191   1.478  2.8932 -1.8470  0.0437
  285MOL0     H38419   8.777   1.140   1.308  1.8033  3.0035  0.5924
  285MOL0     H38420   8.624   0.955   1.350  1.2258  0.3470 -0.7213
  285MOL0     H38421   8.561   1.030   1.497 -0.7777  1.8832  0.2078
  285MOL0     H38422   8.541   1.171   1.233 -3.3804  2.0648 -1.0841
  285MOL0     H38423   8.476   1.237   1.376  1.7477  2.0478 -1.2088
  285MOL0     H38424   8.389   0.967   1.241 -4.5247 -1.2780 -0.1767
  285MOL0     H38425   8.312   1.035   1.380 -0.0161 -0.2795  0.7709
  285MOL0     H38426   8.394   1.259   1.087  0.4027  0.3617  0.9293
  285MOL0     H38427   8.223   1.430   0.941 -1.4193  0.5095  1.1681
  285MOL0     H38428   8.205   1.279   0.845 -0.0773 -0.2876 -0.2519
  285MOL0     H38429   7.948   1.296   0.881  0.5227 -0.3283 -2.3397
  285MOL0     H38430   7.985   1.411   1.018  1.7142 -1.3460  0.4210
  285MOL0     H38431   8.069   1.567   0.847 -0.2649 -0.7742 -0.7079
  285MOL0     H38432   7.899   1.533   0.820  0.4351  0.0710  1.8261
  285MOL0     H38433   7.976   1.353   0.658 -1.8737  1.8474 -4.0536
  285MOL0     H38434   8.129   1.417   0.664  0.2459  0.0900 -1.3098
  285MOL0     H38435   8.079   1.375   0.413 -0.2627 -2.3015 -3.8452
  285MOL0     H38436   7.994   1.311   0.192  1.0928  1.0932 -0.5222
  285MOL0     H38437   7.749   1.408  -0.224 -1.4992  1.9642 -0.8205
  285MOL0     H38438   7.622   1.321  -0.401 -2.2950 -0.1314 -0.9359
  285MOL0     H38439   7.187   1.178  -0.359  0.2166 -1.6095 -2.0036
  285MOL0     H38440   7.184   1.357  -0.392 -0.2491 -0.2971 -0.9553
  285MOL0     H38441   7.187   1.319  -0.614 -2.2540 -0.1590  1.1707
  285MOL0     H38442   7.282   1.160  -0.603  2.4106  0.1588  2.1291
  285MOL0     H38443   7.076   1.096  -0.687  0.7682  0.3229 -0.3990
  285MOL0     H38444   7.076   1.056  -0.515  0.9217  1.5290  2.0632
  285MOL0     H38445   6.934   1.288  -0.661 -2.1175  1.0502  1.3266
  285MOL0     H38446   6.939   1.282  -0.480  0.3307  0.1297  1.4849
  285MOL0     H38447   6.801   1.080  -0.487  0.1569 -2.9247 -1.0317
  285MOL0     H38448   6.860   1.031  -0.633  0.4060 -0.2867  2.4283
  285MOL0     H38449   6.727   1.299  -0.644  0.6807 -0.3017 -1.3222
  285MOL0     H38450   6.722   1.173  -0.760 -1.9265 -1.1327 -0.4385
  285MOL0     H38451   6.489   1.221  -0.609  0.3681  0.4437  0.3819
  285MOL0     H38452   6.587   1.146  -0.488  2.0227  0.4091 -0.5476
  285MOL0     H38453   6.498   1.004  -0.753  2.9748  2.5865 -0.7871
  285MOL0     H38454   6.603   0.944  -0.634 -0.0882 -0.0337  0.6196
  285MOL0     H38455   7.263   1.360  -0.173 -0.6207 -1.9479 -0.8617
  285MOL0     H38456   7.410   1.453   0.023  1.9772  1.8639 -0.3147
  285MOL0     H38457   7.647   1.564   0.276 -0.1747  0.1017  1.6232
  285MOL0     H38458   7.752   1.633   0.471  0.6723 -0.8702  0.8179
  285MOL0     H38459   9.387   1.206   1.598  0.4500 -0.2749 -1.9898
  285MOL0     H38460   9.558   1.364   1.637  0.2623  0.9464 -2.3041
  285MOL0     H38461   9.806   1.695   1.705  1.6507  2.2596 -2.1528
  285MOL0     H38462   9.919   1.898   1.771  0.9473  0.8813  5.1549
  285MOL0     H38463   9.852   2.273   1.757  1.1203 -0.4448 -0.5496
  285MOL0     H38464   9.894   2.117   1.689  4.4873 -0.4344  0.4066
  285MOL0     H38465  10.030   2.262   1.918 -1.0148 -1.5164  2.1211
  285MOL0     H38466  10.096   2.224   1.760  1.1468  1.7952  1.5401
  285MOL0     H38467  10.098   1.987   1.809  0.5062  0.0385  0.9991
  285MOL0     H38468  10.039   2.016   1.967 -1.4778  1.4152 -1.4487
  285MOL0     H38469  10.293   2.123   1.846 -1.4172  2.5599 -0.9021
  285MOL0     H38470  10.239   2.178   2.006  0.8557  1.7996 -0.3565
  285MOL0     H38471  10.330   1.790   2.138 -2.2078  1.2648  0.9527
  285MOL0     H38472   9.584   2.034   1.985  0.9562 -1.2578  2.6356
  285MOL0     H38473   9.432   1.729   2.003  1.9743  0.5682 -1.7614
  285MOL0     H38474   9.439   1.892   2.068 -3.6225  1.3756 -0.7281
  285MOL0     H38475   9.360   1.867   1.911 -2.5439  2.0003  2.4343
  286MOL0     O38476   1.034   3.075   9.158 -0.2892 -0.8108  0.0770
  286MOL0     C38477   0.916   3.121   9.163 -0.4285  0.3593 -0.1831
  286MOL0     O38478   0.889   3.263   9.165  0.1872 -0.2533  0.7082
  286MOL0     C38479   0.996   3.344   9.144  0.3140  0.1776 -0.2255
  286MOL0     C38480   1.055   3.357   9.025 -0.3183  0.4400  0.1505
  286MOL0     C38481   1.144   3.469   9.011  0.3391  0.7486 -0.0011
  286MOL0     C38482   1.179   3.549   9.118 -0.5148  0.4626 -0.7690
  286MOL0     O38483   1.259   3.649   9.080 -0.0917  0.6421  0.5932
  286MOL0     C38484   1.252   3.783   9.127  0.1938  0.5397 -0.9850
  286MOL0     C38485   1.295   3.877   9.022  0.5035  0.3945 -0.2517
  286MOL0     C38486   1.377   4.000   9.066  0.4143 -0.3655  0.5087
  286MOL0     C38487   1.303   4.111   9.148 -1.0034  0.3844  0.3414
  286MOL0     C38488   1.394   4.234   9.153 -1.2384  0.7597 -0.2493
  286MOL0     C38489   1.379   4.312   9.289 -0.7215 -0.1573  0.0630
  286MOL0     C38490   1.494   4.409   9.307 -0.7680 -0.2666  0.0239
  286MOL0     C38491   1.488   4.502   9.436 -0.3934  0.6010  0.3303
  286MOL0     N38492   1.531   4.632   9.403 -0.1109 -0.9714  0.0971
  286MOL0     C38493   1.446   4.742   9.369 -0.4271  0.4176 -0.2645
  286MOL0     C38494   1.531   4.853   9.374  0.1996  0.1665  0.6733
  286MOL0     C38495   1.480   4.989   9.353  0.1483  0.4952 -0.0263
  286MOL0     C38496   1.504   5.090   9.475  0.4229  0.0702 -0.7936
  286MOL0     C38497   1.643   5.160   9.476  0.2368  0.0279  0.1124
  286MOL0     C38498   1.648   5.237   9.606 -0.0218 -0.5950 -0.4627
  286MOL0     O38499   1.599   5.171   9.719  0.5401 -0.2530  0.5044
  286MOL0     C38500   1.701   5.130   9.803  0.1694  0.2827  0.8179
  286MOL0     C38501   1.810   5.060   9.770 -0.5889  0.5998  0.0388
  286MOL0     C38502   1.908   5.009   9.855  0.5439  0.1913 -0.0522
  286MOL0     C38503   1.890   5.032   9.994 -0.8112  0.0004  0.1364
  286MOL0     C38504   1.989   4.983  10.087 -0.4845 -0.3929  0.2634
  286MOL0     O38505   1.994   5.041  10.210 -0.1819 -0.0680 -0.7699
  286MOL0     C38506   2.100   5.024  10.300  0.3794 -0.9558  0.5743
  286MOL0     C38507   2.225   5.084  10.280 -0.1491 -0.1794 -0.1716
  286MOL0     C38508   2.334   5.074  10.367  0.5582 -0.5111 -1.0964
  286MOL0     C38509   2.308   5.006  10.493  0.5751 -0.0429  0.4619
  286MOL0     O38510   2.417   4.990  10.579 -0.2272 -0.0665  1.2014
  286MOL0     C38511   2.427   4.862  10.645 -0.1243 -0.1236  0.0442
  286MOL0     C38512   2.564   4.789  10.626 -0.2609 -0.0043  0.1421
  286MOL0     C38513   2.592   4.780  10.476 -0.3200 -0.3377 -0.2399
  286MOL0     C38514   2.540   4.655  10.407 -0.2356 -0.3108 -0.7457
  286MOL0     C38515   2.396   4.659  10.360 -0.1087  0.0864 -0.5730
  286MOL0     C38516   2.369   4.571  10.243 -0.3617  0.1761  1.2381
  286MOL0     C38517   2.229   4.580  10.186 -0.0410 -0.4255  0.2620
  286MOL0     C38518   2.232   4.552  10.040  0.7546 -0.2500 -0.5460
  286MOL0    Cl38519   2.303   4.387  10.005  0.0185 -0.3348 -0.2704
  286MOL0     C38520   2.182   4.949  10.514 -0.6187  0.7029  0.2190
  286MOL0     C38521   2.081   4.959  10.417  0.3045 -0.0337 -0.5792
  286MOL0     O38522   2.068   4.897  10.049  0.7740 -0.2857  0.3895
  286MOL0     C38523   1.780   5.114  10.032 -0.4463 -0.2040  0.1712
  286MOL0     C38524   1.695   5.163   9.938  0.4697 -0.1029  0.6337
  286MOL0     N38525   1.653   4.809   9.418 -0.4411 -0.0306  0.3892
  286MOL0     N38526   1.658   4.675   9.419  0.0364 -0.4668  0.4088
  286MOL0     C38527   1.124   3.525   9.247  0.2353  0.4257  0.6951
  286MOL0     C38528   1.030   3.422   9.256 -0.5373  0.5139 -0.1861
  286MOL0     C38529   0.796   3.032   9.175  0.1449  0.7764  0.0689
  286MOL0     C38530   0.664   3.082   9.174  0.6522  0.0408  0.1696
  286MOL0     C38531   0.551   3.007   9.190 -0.2248  0.1369 -0.2110
  286MOL0     C38532   0.566   2.869   9.199  0.8229 -0.1049  0.6938
  286MOL0     O38533   0.458   2.787   9.232 -0.7644 -0.4344  0.3321
  286MOL0     C38534   0.429   2.677   9.144  0.4530  0.6988  0.8441
  286MOL0     C38535   0.414   2.727   8.995  0.3178  0.1193 -0.1117
  286MOL0     C38536   0.292   2.809   8.983 -0.6472 -0.6725 -0.5916
  286MOL0     C38537   0.259   2.839   8.840 -0.0842  0.3195 -0.3225
  286MOL0     C38538   0.324   2.959   8.802  0.1102 -0.9017 -0.3209
  286MOL0     C38539   0.373   3.068   8.775  0.4584  0.5022  0.8374
  286MOL0     C38540   0.689   2.814   9.205 -0.7461 -1.2106 -0.5556
  286MOL0     C38541   0.806   2.888   9.193 -0.1933 -0.6266 -0.2420
  286MOL0     C38542   0.936   2.803   9.227 -0.2129 -0.0949  0.6358
  286MOL0     H38543   1.034   3.292   8.940  3.8041  1.9966 -2.3441
  286MOL0     H38544   1.198   3.485   8.918  2.4321  3.1145  1.4836
  286MOL0     H38545   1.152   3.815   9.160  0.8252  2.5352 -0.8484
  286MOL0     H38546   1.327   3.792   9.206 -1.2900 -0.5438  0.6097
  286MOL0     H38547   1.208   3.913   8.967 -0.5709  0.6084  1.5147
  286MOL0     H38548   1.350   3.831   8.940  0.9562  3.8670 -2.0973
  286MOL0     H38549   1.393   4.052   8.971 -5.5893 -0.7230 -1.1218
  286MOL0     H38550   1.471   3.979   9.119 -0.0363  0.1278  1.5167
  286MOL0     H38551   1.202   4.130   9.108 -1.1635  0.8783  0.9662
  286MOL0     H38552   1.287   4.079   9.251 -1.5944  0.0296  0.1503
  286MOL0     H38553   1.499   4.206   9.150 -1.1394  0.8564  1.4135
  286MOL0     H38554   1.374   4.313   9.080 -0.4125  2.0948  0.9256
  286MOL0     H38555   1.285   4.367   9.279 -0.8121 -0.7055 -3.1076
  286MOL0     H38556   1.370   4.254   9.381  1.5144 -1.2760 -0.3515
  286MOL0     H38557   1.506   4.480   9.225 -0.6351  0.2993  0.5256
  286MOL0     H38558   1.590   4.359   9.325 -0.4432  1.2085  3.0385
  286MOL0     H38559   1.394   4.515   9.490  0.7159 -1.3721  2.9363
  286MOL0     H38560   1.550   4.459   9.515 -1.1103 -1.1884 -0.0345
  286MOL0     H38561   1.343   4.752   9.338  0.6011  1.7258 -3.7375
  286MOL0     H38562   1.539   5.027   9.269  1.6755  1.7941  1.5586
  286MOL0     H38563   1.373   4.984   9.329  0.2077  1.7118 -0.6496
  286MOL0     H38564   1.420   5.159   9.482 -1.0628 -1.5688 -1.6680
  286MOL0     H38565   1.496   5.022   9.560  3.6037 -1.0296 -1.2186
  286MOL0     H38566   1.651   5.235   9.398 -0.3014  0.3022  0.3084
  286MOL0     H38567   1.720   5.084   9.464  0.0120 -0.5792  2.0706
  286MOL0     H38568   1.580   5.322   9.601  0.6257  0.0283  0.9046
  286MOL0     H38569   1.745   5.284   9.623  0.1079 -1.3146  0.9995
  286MOL0     H38570   1.829   5.043   9.665  0.2075  3.9039 -0.4537
  286MOL0     H38571   1.988   4.957   9.804 -0.0138  0.3014 -1.0821
  286MOL0     H38572   2.234   5.134  10.184  1.4799 -0.1778 -0.0410
  286MOL0     H38573   2.422   5.132  10.343 -1.0926  2.5678 -0.2348
  286MOL0     H38574   2.418   4.883  10.752 -0.3856 -1.1851  0.2375
  286MOL0     H38575   2.344   4.798  10.616 -0.1154  0.0782 -0.4422
  286MOL0     H38576   2.640   4.842  10.684 -0.0440 -0.5354  0.3473
  286MOL0     H38577   2.569   4.689  10.671 -0.7733  0.2153  0.7086
  286MOL0     H38578   2.557   4.870  10.425 -1.8051 -0.7021  0.0726
  286MOL0     H38579   2.701   4.781  10.477 -0.2766 -1.8320  1.9262
  286MOL0     H38580   2.536   4.581  10.488 -2.6723  2.3549  1.8259
  286MOL0     H38581   2.608   4.625  10.327 -0.4669  1.0433 -1.4793
  286MOL0     H38582   2.379   4.763  10.329 -1.5713  0.2273  0.6158
  286MOL0     H38583   2.331   4.641  10.446 -0.1220 -0.0255 -0.6055
  286MOL0     H38584   2.436   4.609  10.166 -0.2984  1.1227  1.7505
  286MOL0     H38585   2.389   4.466  10.266  1.3369  0.4307  1.0503
  286MOL0     H38586   2.189   4.681  10.196 -1.7205 -0.9963 -0.3073
  286MOL0     H38587   2.158   4.515  10.239  0.9510 -1.8813 -0.1017
  286MOL0     H38588   2.129   4.552  10.004  0.7323 -0.7729 -0.4893
  286MOL0     H38589   2.283   4.632   9.985 -3.0935  1.9138 -1.3575
  286MOL0     H38590   2.163   4.898  10.608  3.7915  0.7277  1.3159
  286MOL0     H38591   1.983   4.915  10.429  0.8776 -1.4951 -1.0286
  286MOL0     H38592   1.755   5.142  10.134 -2.6188  0.4095 -0.4656
  286MOL0     H38593   1.611   5.222   9.974 -0.1817 -0.8742  0.3881
  286MOL0     H38594   1.159   3.578   9.335  1.3244  0.8839  0.0096
  286MOL0     H38595   0.992   3.391   9.353  0.1755  0.1664 -0.0158
  286MOL0     H38596   0.652   3.188   9.155 -0.9310 -0.1426 -0.0357
  286MOL0     H38597   0.452   3.051   9.195 -0.7793 -1.2084  3.0111
  286MOL0     H38598   0.333   2.645   9.184  1.2854 -0.2857  2.1298
  286MOL0     H38599   0.494   2.591   9.158 -2.4855 -2.2526 -1.9687
  286MOL0     H38600   0.411   2.637   8.933  3.5223  0.9978 -1.7853
  286MOL0     H38601   0.505   2.777   8.961 -0.4989  1.0698 -0.9359
  286MOL0     H38602   0.306   2.903   9.039  2.6457 -1.2923 -0.1388
  286MOL0     H38603   0.213   2.750   9.029 -0.2318  0.8810  2.4367
  286MOL0     H38604   0.290   2.750   8.784 -0.7114  1.5332 -2.7237
  286MOL0     H38605   0.150   2.848   8.838 -0.4370 -2.7552 -1.1594
  286MOL0     H38606   0.405   3.164   8.739 -1.1009 -0.2114 -3.0166
  286MOL0     H38607   0.688   2.707   9.226 -1.6740 -1.0972  0.0323
  286MOL0     H38608   0.995   2.802   9.135 -2.8156 -1.8811 -1.1408
  286MOL0     H38609   0.986   2.852   9.311  1.0418 -1.7156  0.9053
  286MOL0     H38610   0.903   2.702   9.253 -1.7175  0.2817  0.3049
  287MOL0     O38611   7.193   0.752   9.756 -0.1764 -0.0724  0.0738
  287MOL0     C38612   7.216   0.704   9.867  0.0599 -1.4641 -0.4312
  287MOL0     O38613   7.333   0.728   9.936 -0.3696  0.0210 -0.2473
  287MOL0     C38614   7.410   0.829   9.886 -0.3302 -0.0516  0.0724
  287MOL0     C38615   7.463   0.814   9.756 -0.3366  1.0587  0.0330
  287MOL0     C38616   7.550   0.907   9.707  0.2553 -0.5377  0.3252
  287MOL0     C38617   7.592   1.021   9.778 -0.3808  0.2381 -0.0015
  287MOL0     O38618   7.669   1.107   9.710  0.0303 -0.4941  0.4519
  287MOL0     C38619   7.745   1.192   9.787 -0.2393  0.5922  0.2210
  287MOL0     C38620   7.825   1.288   9.689  0.0294 -0.0233 -0.0665
  287MOL0     C38621   7.914   1.393   9.760  0.2702 -1.1814 -0.6585
  287MOL0     C38622   7.974   1.505   9.670  0.2966 -0.0730  0.3786
  287MOL0     C38623   8.085   1.604   9.730  0.9537  0.1156 -0.6547
  287MOL0     C38624   8.105   1.732   9.649 -0.0562  0.9410  0.6194
  287MOL0     C38625   8.208   1.823   9.726 -0.5418 -0.0247  0.1263
  287MOL0     C38626   8.228   1.972   9.673 -0.0817 -0.3926  0.4894
  287MOL0     N38627   8.177   1.993   9.536  0.0717 -0.2396  0.6023
  287MOL0     C38628   8.244   1.950   9.424  0.1121  0.3823  0.1910
  287MOL0     C38629   8.157   1.977   9.324  0.2912  0.4194  0.5823
  287MOL0     C38630   8.169   1.934   9.176 -0.1786  0.2320 -0.5721
  287MOL0     C38631   8.192   1.774   9.162 -0.2308 -0.5103 -0.1572
  287MOL0     C38632   8.170   1.752   9.013 -0.1954 -0.6467  0.4582
  287MOL0     C38633   8.260   1.820   8.911 -0.0212 -0.0441  0.0293
  287MOL0     O38634   8.397   1.771   8.945 -1.1604  0.2833 -0.6467
  287MOL0     C38635   8.498   1.855   8.916  0.6350 -0.2632  0.4805
  287MOL0     C38636   8.608   1.854   9.007  0.0512  0.3065  0.2663
  287MOL0     C38637   8.729   1.915   8.977 -0.2577  0.8698 -0.6872
  287MOL0     C38638   8.750   1.979   8.860 -0.2877  0.3057 -0.0703
  287MOL0     C38639   8.889   2.028   8.834  0.3514  0.1800  0.4109
  287MOL0     O38640   8.976   2.051   8.936  0.8080 -0.5163  0.2942
  287MOL0     C38641   9.091   2.118   8.927  0.8341  0.1318  0.1359
  287MOL0     C38642   9.120   2.234   8.852  0.4389 -0.1264 -0.0886
  287MOL0     C38643   9.250   2.274   8.851 -0.3818 -0.3998  0.4328
  287MOL0     C38644   9.359   2.207   8.907 -0.3845  0.7334  0.0366
  287MOL0     O38645   9.488   2.259   8.898  0.2920  0.1125 -0.2848
  287MOL0     C38646   9.598   2.195   8.975  0.1161 -0.1518  0.1412
  287MOL0     C38647   9.720   2.258   8.927 -0.0516  0.3017  0.5578
  287MOL0     C38648   9.850   2.196   8.962  0.6624 -0.7266  0.4079
  287MOL0     C38649   9.982   2.275   8.930  0.1676  0.1144 -0.0977
  287MOL0     C38650  10.102   2.201   8.986  0.0250  0.6600 -1.1356
  287MOL0     C38651  10.220   2.304   8.993 -0.1616  0.4852 -0.4545
  287MOL0     C38652  10.342   2.239   9.070  0.2594  0.2641 -0.4935
  287MOL0     C38653  10.471   2.295   9.020 -1.1520  0.4573  0.4954
  287MOL0    Cl38654  10.606   2.224   9.126 -0.3117  0.1185 -0.0961
  287MOL0     C38655   9.327   2.088   8.981 -0.1745  0.4307 -0.0887
  287MOL0     C38656   9.191   2.048   8.991 -0.8452  0.5178 -0.1635
  287MOL0     O38657   8.916   2.052   8.716  0.5841  0.6038 -0.3560
  287MOL0     C38658   8.641   1.989   8.765 -0.0949  0.4117 -0.4877
  287MOL0     C38659   8.515   1.928   8.795  0.1058 -0.2914  0.1580
  287MOL0     N38660   8.057   2.061   9.372 -0.1008 -0.0341  0.0915
  287MOL0     N38661   8.067   2.068   9.503 -0.0117 -0.4075  0.9179
  287MOL0     C38662   7.535   1.032   9.904 -0.4885  0.0531 -0.9570
  287MOL0     C38663   7.462   0.931   9.967  0.4983 -1.0080  0.2181
  287MOL0     C38664   7.117   0.618   9.937 -0.7037  0.3788 -0.2283
  287MOL0     C38665   7.164   0.548  10.050 -0.3995  0.8431  0.2730
  287MOL0     C38666   7.091   0.451  10.104 -0.4291 -0.2260 -0.5802
  287MOL0     C38667   6.967   0.420  10.053  1.0465 -0.3385  0.4086
  287MOL0     O38668   6.890   0.341  10.135  0.8300  0.0018 -0.0739
  287MOL0     C38669   6.814   0.234  10.070  0.0807  0.2250  1.0946
  287MOL0     C38670   6.665   0.264  10.100  1.2686 -0.2352 -0.6368
  287MOL0     C38671   6.566   0.196  10.001 -0.0354  0.0717 -0.2397
  287MOL0     C38672   6.427   0.246  10.017  0.3760 -0.4188  0.2096
  287MOL0     C38673   6.328   0.166   9.941  0.4051 -0.1162 -0.1126
  287MOL0     C38674   6.241   0.109   9.890  0.3555  0.2640 -0.3306
  287MOL0     C38675   6.917   0.490   9.943 -0.4565 -0.5621  0.7720
  287MOL0     C38676   6.993   0.594   9.885  1.0603 -1.2391 -0.6143
  287MOL0     C38677   6.936   0.666   9.761 -1.2634 -0.3315  0.1243
  287MOL0     H38678   7.447   0.723   9.700 -1.8983 -0.1233  2.2394
  287MOL0     H38679   7.591   0.902   9.607  3.9608 -0.4291  1.6841
  287MOL0     H38680   7.680   1.251   9.852 -0.9891 -0.4580  0.4372
  287MOL0     H38681   7.822   1.146   9.850  1.0037  1.9585 -0.2342
  287MOL0     H38682   7.746   1.339   9.634 -0.9114 -0.4587  0.8525
  287MOL0     H38683   7.880   1.232   9.613  1.0411  1.0715 -0.1745
  287MOL0     H38684   8.000   1.349   9.811  0.2241 -1.2698 -0.6568
  287MOL0     H38685   7.864   1.437   9.847  2.2275 -0.9911  0.4125
  287MOL0     H38686   8.019   1.463   9.579  1.3067  2.2471 -0.2908
  287MOL0     H38687   7.883   1.557   9.638  0.8271  2.0351  2.0675
  287MOL0     H38688   8.053   1.629   9.832 -2.0042 -1.2592 -1.1518
  287MOL0     H38689   8.179   1.548   9.731 -0.3935 -2.2861  1.1280
  287MOL0     H38690   8.132   1.697   9.550 -0.3093 -2.5801  1.6576
  287MOL0     H38691   8.012   1.790   9.636  1.6121  3.2326 -2.1454
  287MOL0     H38692   8.298   1.763   9.708 -1.9777 -1.6717 -2.2082
  287MOL0     H38693   8.180   1.819   9.832 -2.9709 -2.9628 -0.4809
  287MOL0     H38694   8.174   2.040   9.739  0.2003  0.2229  0.0949
  287MOL0     H38695   8.330   2.007   9.694  0.1883 -0.3548 -0.8232
  287MOL0     H38696   8.339   1.897   9.418  0.5981  1.3453 -1.5921
  287MOL0     H38697   8.075   1.959   9.127  1.8121  0.5821 -4.6629
  287MOL0     H38698   8.244   1.992   9.120 -1.0253  0.5291 -1.4256
  287MOL0     H38699   8.296   1.751   9.188  0.6409  0.5923 -2.3341
  287MOL0     H38700   8.122   1.725   9.229 -0.6421 -0.5760 -0.6281
  287MOL0     H38701   8.064   1.758   8.985 -0.7986 -1.7511  2.3426
  287MOL0     H38702   8.197   1.647   9.004 -1.4658 -0.8012 -3.5540
  287MOL0     H38703   8.256   1.927   8.931  1.0815  0.1117 -0.5145
  287MOL0     H38704   8.221   1.807   8.809 -0.4517  2.6670 -0.2212
  287MOL0     H38705   8.593   1.806   9.103  0.8442  0.7772  0.6274
  287MOL0     H38706   8.811   1.905   9.048 -0.8346 -1.6935 -0.2690
  287MOL0     H38707   9.043   2.296   8.807  1.7797  2.6889  1.2565
  287MOL0     H38708   9.283   2.352   8.782  0.8986 -0.0570  1.3858
  287MOL0     H38709   9.578   2.216   9.081  1.6083 -0.2833  0.4785
  287MOL0     H38710   9.613   2.091   8.946  0.1331  0.2410 -1.3271
  287MOL0     H38711   9.714   2.262   8.818 -4.6357 -0.0936  0.5654
  287MOL0     H38712   9.711   2.363   8.954 -1.4122  0.0589  1.1854
  287MOL0     H38713   9.850   2.188   9.071 -1.6660  0.0119  0.5058
  287MOL0     H38714   9.859   2.096   8.918  0.1513 -0.5401 -0.1252
  287MOL0     H38715   9.987   2.378   8.967 -0.0210  0.7195 -1.6733
  287MOL0     H38716   9.996   2.288   8.822 -1.1057  0.0330 -0.2868
  287MOL0     H38717  10.130   2.111   8.931  3.1634  0.8711 -0.0840
  287MOL0     H38718  10.086   2.177   9.091  0.5540  4.9101  0.1077
  287MOL0     H38719  10.255   2.321   8.890 -0.6625 -2.2953 -1.1744
  287MOL0     H38720  10.201   2.401   9.040 -2.5628  1.3468 -2.9104
  287MOL0     H38721  10.329   2.131   9.061  1.2323 -0.0751  1.6709
  287MOL0     H38722  10.337   2.260   9.177  0.6340 -0.4090 -0.3384
  287MOL0     H38723  10.505   2.275   8.918  0.2926 -0.7882  1.1855
  287MOL0     H38724  10.453   2.402   9.036 -1.1823  0.3967  0.8741
  287MOL0     H38725   9.401   2.035   9.041  0.1547  0.3533 -0.5526
  287MOL0     H38726   9.160   1.961   9.048  0.8409 -0.3701 -0.5447
  287MOL0     H38727   8.667   2.043   8.675  0.6235  1.9767  0.6121
  287MOL0     H38728   8.431   1.927   8.727  1.5613  0.9003 -1.7448
  287MOL0     H38729   7.563   1.121   9.961  1.3110 -1.3498  0.5035
  287MOL0     H38730   7.433   0.945  10.070 -0.2109 -0.7672 -0.0117
  287MOL0     H38731   7.260   0.576  10.094 -0.6930  1.9620  0.2286
  287MOL0     H38732   7.128   0.398  10.191 -0.4987 -0.8072 -0.9013
  287MOL0     H38733   6.832   0.132  10.105 -2.7449  0.0680  2.3326
  287MOL0     H38734   6.837   0.223   9.964  3.7609  0.5342  1.6990
  287MOL0     H38735   6.643   0.369  10.081 -2.1047 -1.1157 -2.5315
  287MOL0     H38736   6.638   0.244  10.204 -1.0108 -2.9403 -1.6189
  287MOL0     H38737   6.563   0.089  10.024  3.6345  0.2008  1.6118
  287MOL0     H38738   6.596   0.209   9.897  1.2954  2.5040  0.3771
  287MOL0     H38739   6.393   0.259  10.120 -0.7515 -0.9425 -0.0812
  287MOL0     H38740   6.410   0.343   9.968  0.3669  0.1225  1.2544
  287MOL0     H38741   6.156   0.053   9.856  1.8365 -1.7357 -0.9215
  287MOL0     H38742   6.819   0.471   9.900 -0.6373  2.8671 -0.6631
  287MOL0     H38743   6.930   0.774   9.777  1.1745 -0.2115  0.6327
  287MOL0     H38744   6.993   0.651   9.668 -2.5062 -0.6297 -0.6183
  287MOL0     H38745   6.840   0.625   9.728 -2.3445  1.5753  0.7599
  288MOL0     O38746   2.228   2.530   1.899 -0.2589  0.3159  0.2703
  288MOL0     C38747   2.178   2.641   1.918 -0.6020 -0.3456  0.6624
  288MOL0     O38748   2.243   2.739   2.000  0.2622  0.4338 -0.2943
  288MOL0     C38749   2.364   2.703   2.060  0.6732  0.0984  0.7222
  288MOL0     C38750   2.481   2.771   2.026 -0.3969  0.4434 -0.1027
  288MOL0     C38751   2.599   2.742   2.102  0.0053 -0.4404  0.5655
  288MOL0     C38752   2.602   2.650   2.208 -0.0321  0.2070  0.8032
  288MOL0     O38753   2.723   2.636   2.263 -0.3138  0.2170 -0.2668
  288MOL0     C38754   2.745   2.519   2.345  0.9432 -0.7570  0.0461
  288MOL0     C38755   2.876   2.540   2.406 -0.3008 -0.3898  0.2419
  288MOL0     C38756   2.930   2.424   2.481  0.2587 -0.1274  0.2508
  288MOL0     C38757   3.038   2.471   2.575  0.2531  0.1951 -0.6078
  288MOL0     C38758   3.155   2.552   2.522  0.1672  0.4156 -0.1464
  288MOL0     C38759   3.265   2.568   2.628  0.6796 -0.0236 -0.4066
  288MOL0     C38760   3.363   2.454   2.636 -0.7297  0.1918  0.4860
  288MOL0     C38761   3.452   2.433   2.517 -0.3061 -0.0534 -0.1616
  288MOL0     N38762   3.582   2.391   2.568 -0.7798  0.3914 -0.0753
  288MOL0     C38763   3.597   2.275   2.642  0.8708  0.2670  0.5198
  288MOL0     C38764   3.725   2.271   2.684  0.1829 -0.3232  0.2232
  288MOL0     C38765   3.786   2.171   2.780 -0.6569  0.1039 -0.6119
  288MOL0     C38766   3.735   2.023   2.778 -0.0536 -0.2585  0.0802
  288MOL0     C38767   3.718   1.968   2.918  0.9063 -0.8313 -0.3911
  288MOL0     C38768   3.838   1.943   3.005 -0.3230 -0.0339 -0.3446
  288MOL0     O38769   3.880   2.074   3.049  0.2494 -0.1746 -0.6543
  288MOL0     C38770   3.969   2.084   3.155  1.0481 -0.4806 -0.2363
  288MOL0     C38771   4.034   1.975   3.210  0.1319 -0.7701 -0.0526
  288MOL0     C38772   4.119   2.002   3.319  0.3566  0.0356 -0.2483
  288MOL0     C38773   4.144   2.126   3.373  1.3072  0.2890  0.4406
  288MOL0     C38774   4.230   2.151   3.494 -0.1510 -0.3496  0.1500
  288MOL0     O38775   4.212   2.271   3.564  0.5957  0.1574 -0.0423
  288MOL0     C38776   4.314   2.301   3.656  0.3617 -0.4486  0.0103
  288MOL0     C38777   4.418   2.385   3.623  0.4577 -0.3245 -0.0425
  288MOL0     C38778   4.516   2.426   3.720  1.0789 -0.6501 -0.2856
  288MOL0     C38779   4.526   2.372   3.843 -0.0986  1.9556  0.9954
  288MOL0     O38780   4.629   2.407   3.924  0.6457 -0.5318 -0.3425
  288MOL0     C38781   4.603   2.418   4.061 -0.7169 -0.1413 -0.5983
  288MOL0     C38782   4.693   2.529   4.107 -0.0931  0.5798 -0.6883
  288MOL0     C38783   4.715   2.520   4.261 -0.3547 -0.2375  0.3538
  288MOL0     C38784   4.782   2.391   4.316  0.1003  0.1372 -0.4965
  288MOL0     C38785   4.797   2.405   4.471  0.1696  0.2462 -0.8783
  288MOL0     C38786   4.670   2.411   4.561 -0.0834 -0.6727 -0.3943
  288MOL0     C38787   4.571   2.298   4.551  0.1322  0.0246  0.3928
  288MOL0     C38788   4.631   2.165   4.598 -0.4534  0.2526  0.3705
  288MOL0    Cl38789   4.675   2.154   4.769 -0.1935  0.5216  0.1096
  288MOL0     C38790   4.431   2.279   3.883  0.3021  0.0964  0.5808
  288MOL0     C38791   4.324   2.254   3.790 -0.0424  0.4315 -0.0825
  288MOL0     O38792   4.307   2.061   3.523 -0.2876  0.1444 -0.6654
  288MOL0     C38793   4.070   2.230   3.316 -0.7277  0.4532  0.0393
  288MOL0     C38794   3.990   2.209   3.205  1.3251 -0.5869  0.2373
  288MOL0     N38795   3.788   2.383   2.630  0.1607 -0.2374 -0.2520
  288MOL0     N38796   3.707   2.453   2.564  0.3490  0.7470  0.2166
  288MOL0     C38797   2.481   2.589   2.236  0.0563 -0.0731 -0.5337
  288MOL0     C38798   2.366   2.610   2.159 -0.2213  0.0578 -0.2960
  288MOL0     C38799   2.048   2.678   1.845 -0.4822 -0.3773 -0.2786
  288MOL0     C38800   2.011   2.816   1.859  0.7816 -0.7243 -0.7871
  288MOL0     C38801   1.892   2.855   1.805 -0.5438  1.0893 -0.0232
  288MOL0     C38802   1.815   2.764   1.728 -0.1883  0.5847  0.2980
  288MOL0     O38803   1.695   2.793   1.666  0.5631 -0.4969 -0.1003
  288MOL0     C38804   1.629   2.919   1.708  0.9608 -0.6935  0.5499
  288MOL0     C38805   1.496   2.943   1.630  0.0410  0.9408 -0.2220
  288MOL0     C38806   1.495   2.940   1.475  0.0265 -0.2381  0.4024
  288MOL0     C38807   1.435   3.068   1.419  0.1502  0.3174 -0.2477
  288MOL0     C38808   1.519   3.189   1.445  0.4908 -0.4181 -0.5176
  288MOL0     C38809   1.584   3.293   1.462  0.6507 -0.1179  0.1632
  288MOL0     C38810   1.858   2.630   1.711  0.6775 -0.3964 -0.0788
  288MOL0     C38811   1.969   2.585   1.774  0.8864 -0.2911  0.0420
  288MOL0     C38812   2.009   2.440   1.747  0.0842  0.2305 -0.0285
  288MOL0     H38813   2.477   2.855   1.958  1.1591 -0.5726 -1.5288
  288MOL0     H38814   2.692   2.787   2.071 -1.2379  0.9625 -1.3459
  288MOL0     H38815   2.671   2.508   2.425  0.0425  1.5991 -0.3647
  288MOL0     H38816   2.732   2.433   2.279  0.6709 -1.0838  0.5193
  288MOL0     H38817   2.868   2.625   2.475  1.7188 -0.4099  0.5572
  288MOL0     H38818   2.945   2.565   2.325 -0.5706 -0.3727  0.0163
  288MOL0     H38819   2.977   2.350   2.415 -0.2163  0.1506 -0.4149
  288MOL0     H38820   2.846   2.379   2.535 -0.4639  1.7280  0.7493
  288MOL0     H38821   2.987   2.519   2.659  1.1052 -0.2215  0.1656
  288MOL0     H38822   3.087   2.379   2.607 -0.0684  0.8300  1.9509
  288MOL0     H38823   3.213   2.516   2.437  1.9637 -1.3135  1.6936
  288MOL0     H38824   3.118   2.653   2.501 -0.0832  0.0920 -1.3183
  288MOL0     H38825   3.322   2.660   2.614  0.7269  0.0610  0.2988
  288MOL0     H38826   3.213   2.551   2.723 -2.5432 -1.5588 -2.2722
  288MOL0     H38827   3.322   2.353   2.645  1.8681 -1.2734 -2.2407
  288MOL0     H38828   3.422   2.472   2.726  0.9684 -1.1114 -0.3178
  288MOL0     H38829   3.405   2.350   2.463 -0.2243 -1.3033  1.5650
  288MOL0     H38830   3.461   2.528   2.465  0.6154  1.5778  2.7088
  288MOL0     H38831   3.517   2.203   2.657 -0.2484  0.5974 -3.0531
  288MOL0     H38832   3.895   2.170   2.778 -0.5157 -0.1990  2.3060
  288MOL0     H38833   3.772   2.223   2.875 -0.4008 -0.3177 -0.3425
  288MOL0     H38834   3.641   2.012   2.723 -0.5884  0.6774  0.7576
  288MOL0     H38835   3.810   1.961   2.729 -0.3783  0.4801 -1.4108
  288MOL0     H38836   3.677   1.867   2.904 -1.9874  0.1820 -0.0083
  288MOL0     H38837   3.645   2.027   2.975  3.2194  0.9711  0.8649
  288MOL0     H38838   3.903   1.882   2.942 -1.7280 -2.8623  0.7713
  288MOL0     H38839   3.809   1.886   3.094 -0.6424 -3.5316 -2.4815
  288MOL0     H38840   4.033   1.876   3.167 -1.9603 -1.6956  1.8931
  288MOL0     H38841   4.175   1.921   3.365  1.8488  0.5787 -1.0363
  288MOL0     H38842   4.432   2.406   3.517 -0.6764 -0.7640 -0.2973
  288MOL0     H38843   4.578   2.512   3.697 -0.9857  2.0020  3.1269
  288MOL0     H38844   4.499   2.444   4.081 -0.0259  1.9049  0.6571
  288MOL0     H38845   4.630   2.318   4.098 -1.8209 -0.7636 -1.4099
  288MOL0     H38846   4.790   2.510   4.059  0.3962 -1.2295  0.8664
  288MOL0     H38847   4.656   2.628   4.082  0.9657  1.6054  1.4861
  288MOL0     H38848   4.778   2.603   4.295  0.1132 -0.1924 -0.5846
  288MOL0     H38849   4.620   2.534   4.312  2.6485  0.8652  6.6381
  288MOL0     H38850   4.885   2.385   4.278  0.0770  0.0895 -0.5514
  288MOL0     H38851   4.724   2.299   4.305  1.2641 -0.8414  1.1462
  288MOL0     H38852   4.850   2.497   4.496 -0.7852  0.9243 -1.2822
  288MOL0     H38853   4.860   2.320   4.501  2.5325  2.2964  0.2985
  288MOL0     H38854   4.700   2.427   4.665 -0.7648 -0.9488 -0.1520
  288MOL0     H38855   4.614   2.499   4.526 -0.7034 -2.5913 -4.9824
  288MOL0     H38856   4.527   2.291   4.452 -1.1043 -1.7743  1.0183
  288MOL0     H38857   4.493   2.334   4.619  1.7463  3.2337  0.7659
  288MOL0     H38858   4.565   2.084   4.566  0.6883 -0.5813  0.0589
  288MOL0     H38859   4.722   2.151   4.539  1.8277  0.5745  3.5462
  288MOL0     H38860   4.421   2.251   3.987  1.0347  3.3601  1.6316
  288MOL0     H38861   4.245   2.190   3.827  0.1201 -0.7630 -1.6565
  288MOL0     H38862   4.079   2.324   3.369 -2.0497 -0.6263  2.3737
  288MOL0     H38863   3.934   2.289   3.157  0.7003 -0.0735  1.7641
  288MOL0     H38864   2.479   2.512   2.312  1.1429  1.3661  1.0106
  288MOL0     H38865   2.273   2.556   2.175 -0.3372 -0.6461 -2.8564
  288MOL0     H38866   2.069   2.883   1.923  2.8561 -0.2370 -3.0140
  288MOL0     H38867   1.870   2.961   1.816 -1.8964  0.6766  1.6534
  288MOL0     H38868   1.694   3.005   1.688 -0.3544 -0.2362 -2.2554
  288MOL0     H38869   1.608   2.919   1.815 -1.2769  1.8193  0.1997
  288MOL0     H38870   1.464   3.044   1.660  0.3851  0.9768  0.0381
  288MOL0     H38871   1.428   2.864   1.661 -0.5048  0.6611 -2.0176
  288MOL0     H38872   1.434   2.861   1.430  0.8515  0.0895 -1.3782
  288MOL0     H38873   1.596   2.928   1.436 -0.5779 -2.3572 -0.6975
  288MOL0     H38874   1.424   3.056   1.311 -1.0611 -1.0134 -0.0017
  288MOL0     H38875   1.336   3.075   1.465 -1.3846 -3.6573 -2.4509
  288MOL0     H38876   1.642   3.383   1.469  2.6731 -1.3467  0.0618
  288MOL0     H38877   1.794   2.570   1.647  0.1815  2.3346 -2.3816
  288MOL0     H38878   1.933   2.379   1.697 -0.8701 -0.5998  2.3085
  288MOL0     H38879   2.092   2.443   1.675  0.4992 -3.4435  0.1208
  288MOL0     H38880   2.038   2.389   1.839  1.9338 -1.7542 -1.6081
  289MOL0     O38881   2.877   9.632   4.202 -0.3086  0.6009  0.5170
  289MOL0     C38882   2.818   9.685   4.295  0.7684  0.5650  0.2155
  289MOL0     O38883   2.864   9.677   4.428 -0.0748 -0.1306 -0.1094
  289MOL0     C38884   2.994   9.648   4.460 -0.1438  0.8102 -0.8845
  289MOL0     C38885   3.027   9.608   4.590 -0.6245  0.3844  0.0161
  289MOL0     C38886   3.160   9.566   4.631  0.6182 -0.3998  0.3259
  289MOL0     C38887   3.260   9.558   4.536 -0.5581 -0.1708 -1.1045
  289MOL0     O38888   3.385   9.522   4.566 -0.1316  0.3138  0.7437
  289MOL0     C38889   3.456   9.598   4.673 -0.2033 -0.1424  0.8825
  289MOL0     C38890   3.537   9.706   4.594  0.0187  0.3466 -0.8134
  289MOL0     C38891   3.628   9.663   4.488 -0.2887  0.0122  0.2398
  289MOL0     C38892   3.713   9.774   4.431  0.2888 -0.6560 -0.0949
  289MOL0     C38893   3.854   9.773   4.483 -0.0360 -0.4025 -0.4493
  289MOL0     C38894   3.934   9.880   4.422  0.2978 -0.8664  0.1717
  289MOL0     C38895   4.082   9.872   4.464 -0.7784  0.0516 -0.5115
  289MOL0     C38896   4.165   9.965   4.380  0.7279  0.0869  0.0214
  289MOL0     N38897   4.297   9.987   4.428  0.0370  0.7022  0.2919
  289MOL0     C38898   4.411   9.910   4.418 -0.0269 -0.4591  0.6557
  289MOL0     C38899   4.506   9.986   4.465  1.1261 -0.4781 -0.3106
  289MOL0     C38900   4.651   9.947   4.457  0.3596  0.6669  0.0071
  289MOL0     C38901   4.700   9.916   4.313 -0.3564  0.0499  0.4029
  289MOL0     C38902   4.850   9.929   4.304 -1.0236 -0.5836  0.8614
  289MOL0     C38903   4.897   9.860   4.175  0.1593 -0.6136  0.8373
  289MOL0     O38904   5.035   9.887   4.171 -0.5438 -0.0146 -0.8808
  289MOL0     C38905   5.102   9.991   4.105 -0.7423 -0.5159 -0.0533
  289MOL0     C38906   5.237   9.966   4.073 -0.3579  0.2330 -0.0536
  289MOL0     C38907   5.315  10.059   4.014 -0.3300  0.1401 -0.4620
  289MOL0     C38908   5.272  10.187   3.983  1.0520  0.4355  0.4359
  289MOL0     C38909   5.358  10.288   3.917  0.2689 -0.0892  0.2899
  289MOL0     O38910   5.306  10.411   3.906  0.4309 -0.3005 -0.3628
  289MOL0     C38911   5.386  10.506   3.852 -0.5377 -0.0889  0.3027
  289MOL0     C38912   5.402  10.506   3.717  1.0239 -0.2607 -0.2977
  289MOL0     C38913   5.461  10.623   3.658  0.2810  0.3811  0.2860
  289MOL0     C38914   5.530  10.712   3.745  0.4361 -1.3103  0.1531
  289MOL0     O38915   5.597  10.816   3.701 -0.1566  0.2384  0.6626
  289MOL0     C38916   5.634  10.813   3.571 -0.3216  0.4121 -0.0646
  289MOL0     C38917   5.722  10.934   3.550 -0.0309  0.0907  0.4571
  289MOL0     C38918   5.650  11.067   3.559  0.0048 -0.0195  0.3145
  289MOL0     C38919   5.719  11.177   3.479  0.2917  0.7649 -0.7319
  289MOL0     C38920   5.677  11.167   3.331 -0.5095 -0.5867 -0.6966
  289MOL0     C38921   5.764  11.275   3.264  0.4739  0.1462  0.1214
  289MOL0     C38922   5.704  11.315   3.134  0.6710  0.5279  0.7760
  289MOL0     C38923   5.697  11.214   3.022 -0.3245  0.1519  0.8386
  289MOL0    Cl38924   5.869  11.200   2.961  0.0460  0.5776  0.2411
  289MOL0     C38925   5.507  10.709   3.880  0.3326 -0.1960  1.1800
  289MOL0     C38926   5.430  10.607   3.933 -0.2662  0.4734  0.6077
  289MOL0     O38927   5.469  10.250   3.882 -0.1335  0.6219 -0.0016
  289MOL0     C38928   5.136  10.215   4.020 -0.2119  0.0422 -0.1782
  289MOL0     C38929   5.048  10.120   4.078 -0.4807  0.0924 -0.4590
  289MOL0     N38930   4.456  10.105   4.515  0.4769 -0.5160  0.2111
  289MOL0     N38931   4.331  10.103   4.488  0.2961 -0.2523 -0.4249
  289MOL0     C38932   3.235   9.605   4.405  0.2900  0.3006  0.2223
  289MOL0     C38933   3.109   9.656   4.373 -0.9813  0.7046 -0.0971
  289MOL0     C38934   2.685   9.751   4.264  0.4150 -0.2309 -1.2498
  289MOL0     C38935   2.599   9.766   4.368 -0.2099 -0.0668  0.0393
  289MOL0     C38936   2.485   9.839   4.356 -0.4314 -0.5762  0.0822
  289MOL0     C38937   2.451   9.899   4.237  0.1306  0.4498  0.2846
  289MOL0     O38938   2.350   9.988   4.227  0.7090 -0.4492 -0.2969
  289MOL0     C38939   2.302  10.063   4.345  0.3118 -0.3171 -0.2321
  289MOL0     C38940   2.226  10.181   4.299  0.5546  0.1202 -0.5992
  289MOL0     C38941   2.141  10.173   4.164  0.8095  0.4039  0.1233
  289MOL0     C38942   1.992  10.143   4.199  0.2749  0.1156 -0.1291
  289MOL0     C38943   1.910  10.219   4.106  0.3600 -0.0489  0.5192
  289MOL0     C38944   1.824  10.278   4.042 -0.0318  0.0207 -0.2288
  289MOL0     C38945   2.541   9.890   4.130 -0.0303  0.7486 -0.0745
  289MOL0     C38946   2.650   9.808   4.143  0.0860  0.4632 -0.4109
  289MOL0     C38947   2.739   9.805   4.021  0.5869 -0.0974  0.7029
  289MOL0     H38948   2.945   9.603   4.661 -0.1141 -1.3992  0.5476
  289MOL0     H38949   3.187   9.537   4.732  1.0742 -0.0464  0.3073
  289MOL0     H38950   3.389   9.642   4.747 -1.5656  0.0474 -0.4009
  289MOL0     H38951   3.527   9.528   4.719 -1.7951 -2.4200  0.1037
  289MOL0     H38952   3.594   9.765   4.666  0.3780  0.8311 -1.4810
  289MOL0     H38953   3.463   9.774   4.551  1.0088  1.5635 -0.6446
  289MOL0     H38954   3.570   9.613   4.409 -0.7127 -0.0238  0.5691
  289MOL0     H38955   3.692   9.591   4.540 -0.2641  1.4277  2.2966
  289MOL0     H38956   3.721   9.761   4.322  2.1947  0.7564 -0.1743
  289MOL0     H38957   3.678   9.877   4.448 -0.1700 -1.0484  1.4188
  289MOL0     H38958   3.850   9.784   4.592 -1.7819 -0.5188 -0.4851
  289MOL0     H38959   3.895   9.672   4.470  0.1674 -0.6946  1.8699
  289MOL0     H38960   3.923   9.875   4.314 -1.8516 -2.0076  0.3900
  289MOL0     H38961   3.892   9.970   4.468 -3.5070 -2.5897  0.4265
  289MOL0     H38962   4.127   9.772   4.460  1.2564  0.8897  0.0712
  289MOL0     H38963   4.079   9.907   4.567 -0.6824  3.8229 -1.6332
  289MOL0     H38964   4.176   9.920   4.281 -3.4017 -0.9057 -0.1779
  289MOL0     H38965   4.115  10.062   4.374 -0.8168 -0.6450  0.5140
  289MOL0     H38966   4.415   9.812   4.372 -1.3826  0.5843 -1.9131
  289MOL0     H38967   4.702  10.026   4.512  0.3719 -1.2341  2.9043
  289MOL0     H38968   4.667   9.861   4.521 -3.0080  1.5040  2.2456
  289MOL0     H38969   4.666   9.816   4.285 -0.2654  0.4482 -1.2137
  289MOL0     H38970   4.655   9.991   4.247  0.5195  0.2405  0.0030
  289MOL0     H38971   4.886   9.878   4.394 -1.3187 -1.1883  0.6393
  289MOL0     H38972   4.891  10.031   4.307  2.5465 -1.7380 -1.6996
  289MOL0     H38973   4.848   9.896   4.085 -0.0266 -1.8993  0.4087
  289MOL0     H38974   4.871   9.754   4.184 -0.3533 -0.5153  0.5545
  289MOL0     H38975   5.273   9.867   4.099 -0.7577 -0.3027 -1.4681
  289MOL0     H38976   5.418  10.029   3.996  0.8606  3.0569  0.8510
  289MOL0     H38977   5.357  10.433   3.651  1.5433  2.1401 -3.5987
  289MOL0     H38978   5.455  10.635   3.550  0.6891  1.5660  0.3819
  289MOL0     H38979   5.689  10.719   3.567  0.3817  0.8241 -3.6714
  289MOL0     H38980   5.547  10.825   3.505  1.3702  2.3969 -2.1271
  289MOL0     H38981   5.804  10.946   3.621 -0.2197 -1.5055  0.9935
  289MOL0     H38982   5.771  10.903   3.457 -0.2630  0.4264  0.2229
  289MOL0     H38983   5.549  11.056   3.519  0.1525 -0.6981  0.1019
  289MOL0     H38984   5.655  11.108   3.661  0.6586 -0.2120  0.3700
  289MOL0     H38985   5.827  11.180   3.497  0.0637  2.4644  0.5488
  289MOL0     H38986   5.689  11.273   3.519  2.6818  1.5519 -0.6899
  289MOL0     H38987   5.570  11.185   3.319 -0.3892 -1.1518 -3.1664
  289MOL0     H38988   5.697  11.065   3.296 -0.3125 -0.6788 -0.3150
  289MOL0     H38989   5.770  11.364   3.327  2.7309  0.3324 -0.3010
  289MOL0     H38990   5.862  11.227   3.257  0.1809 -0.8108  1.8283
  289MOL0     H38991   5.748  11.411   3.105 -2.1628  2.9155  3.6805
  289MOL0     H38992   5.602  11.343   3.162  1.5018  2.1733  2.3604
  289MOL0     H38993   5.672  11.111   3.052  3.4004 -0.5842  1.9443
  289MOL0     H38994   5.646  11.262   2.939  0.8145 -1.2968 -0.7697
  289MOL0     H38995   5.571  10.774   3.939  1.5062  1.5090 -1.7370
  289MOL0     H38996   5.400  10.612   4.037 -1.8579 -3.2695  0.4732
  289MOL0     H38997   5.094  10.316   4.014 -1.0661 -0.2127  1.0172
  289MOL0     H38998   4.943  10.129   4.103 -0.6459  0.9910 -1.4007
  289MOL0     H38999   3.325   9.589   4.346  0.7726 -3.6156  1.6706
  289MOL0     H39000   3.086   9.682   4.270  0.7149  0.6793 -0.5096
  289MOL0     H39001   2.625   9.727   4.466  4.8812  2.3698 -0.0506
  289MOL0     H39002   2.427   9.847   4.447  0.2386  1.0595  0.3999
  289MOL0     H39003   2.389  10.097   4.402  0.1684  1.1266 -0.8205
  289MOL0     H39004   2.235   9.997   4.401 -1.9135 -0.3077 -2.6728
  289MOL0     H39005   2.299  10.259   4.276 -1.5630  1.2101 -4.7746
  289MOL0     H39006   2.161  10.214   4.380  1.9993 -0.4820  0.8581
  289MOL0     H39007   2.181  10.095   4.098  0.3182 -0.0203  0.3188
  289MOL0     H39008   2.153  10.269   4.113  1.6780  0.6952  0.8360
  289MOL0     H39009   1.982  10.034   4.191  0.3517  0.0816  0.2140
  289MOL0     H39010   1.966  10.179   4.299 -0.1179  2.4139 -1.0104
  289MOL0     H39011   1.755  10.326   3.977 -0.6273 -1.7869 -0.9896
  289MOL0     H39012   2.524   9.959   4.048  3.3020  2.0578  0.1958
  289MOL0     H39013   2.675   9.818   3.934  1.8660  1.9249 -0.0054
  289MOL0     H39014   2.802   9.894   4.026 -2.3906  2.1136  1.5335
  289MOL0     H39015   2.794   9.710   4.019  0.5206 -0.3064  3.5730
  290MOL0     O39016   3.897   4.833   9.257  0.6003 -0.1943 -0.5931
  290MOL0     C39017   3.855   4.717   9.255 -0.4424 -0.5776 -0.0556
  290MOL0     O39018   3.928   4.610   9.279 -0.2592  0.2222 -0.1469
  290MOL0     C39019   4.062   4.629   9.304  0.3012 -0.8681 -0.0539
  290MOL0     C39020   4.161   4.572   9.222 -0.1198  0.4496  0.6217
  290MOL0     C39021   4.302   4.586   9.246 -0.7276 -0.4634 -0.2965
  290MOL0     C39022   4.339   4.667   9.354 -0.0201 -0.1790  0.3483
  290MOL0     O39023   4.465   4.704   9.388  0.9550 -1.1812  0.0565
  290MOL0     C39024   4.575   4.657   9.300 -0.1702 -0.7198 -0.2876
  290MOL0     C39025   4.639   4.523   9.344 -0.0746 -0.7233 -0.1546
  290MOL0     C39026   4.791   4.522   9.313 -0.4967 -0.0009 -0.3711
  290MOL0     C39027   4.862   4.604   9.432  0.3472  0.5311  0.1673
  290MOL0     C39028   5.013   4.576   9.444 -0.4529 -0.2628 -0.2387
  290MOL0     C39029   5.096   4.595   9.313  0.1671 -0.4013  0.4543
  290MOL0     C39030   5.250   4.629   9.333  0.2861 -0.2192  0.3137
  290MOL0     C39031   5.266   4.777   9.363 -0.2450  0.0343 -0.7028
  290MOL0     N39032   5.406   4.806   9.397  0.3749  0.6267 -0.6924
  290MOL0     C39033   5.460   4.821   9.524 -1.2758 -0.0934  0.5239
  290MOL0     C39034   5.587   4.860   9.500  0.0785 -0.5587  0.0082
  290MOL0     C39035   5.681   4.907   9.611  0.4460 -0.6109  0.3894
  290MOL0     C39036   5.683   5.061   9.622  1.0765  0.6515  0.6618
  290MOL0     C39037   5.728   5.142   9.503 -0.4052  0.7924 -0.1775
  290MOL0     C39038   5.876   5.122   9.465  1.1174  0.4625 -0.5269
  290MOL0     O39039   5.919   5.254   9.431  0.2161  0.9438  0.4159
  290MOL0     C39040   6.049   5.274   9.399  0.2009 -0.1570  0.8194
  290MOL0     C39041   6.082   5.397   9.355  0.8835 -0.6166 -0.9154
  290MOL0     C39042   6.211   5.442   9.326 -0.2502  0.0298  0.3179
  290MOL0     C39043   6.309   5.348   9.333 -0.3113 -0.1282  0.9679
  290MOL0     C39044   6.451   5.393   9.303  0.1013 -0.3706 -0.1082
  290MOL0     O39045   6.471   5.525   9.294 -0.4681 -0.0803  0.8543
  290MOL0     C39046   6.599   5.588   9.273  0.7884  0.3422  0.0497
  290MOL0     C39047   6.716   5.535   9.340  0.2355  0.4852 -1.0707
  290MOL0     C39048   6.844   5.604   9.338  0.2628  0.2009 -0.0982
  290MOL0     C39049   6.871   5.723   9.267  0.6546  0.3046 -0.9207
  290MOL0     O39050   6.993   5.781   9.268  0.6533 -0.8971 -0.0238
  290MOL0     C39051   7.013   5.905   9.182 -0.6419  0.2664 -0.3912
  290MOL0     C39052   7.127   5.986   9.248 -0.7189 -0.3573  0.3925
  290MOL0     C39053   7.240   5.989   9.141  0.6670 -1.2938  0.1761
  290MOL0     C39054   7.379   6.034   9.215  1.5388  0.0695 -0.1209
  290MOL0     C39055   7.487   6.045   9.104  0.1322 -0.2402  0.1388
  290MOL0     C39056   7.628   6.029   9.161 -0.2617  0.5913 -0.1816
  290MOL0     C39057   7.675   6.119   9.279 -0.9343  0.5328 -0.1064
  290MOL0     C39058   7.715   6.251   9.231 -0.1414 -0.4182 -0.4285
  290MOL0    Cl39059   7.577   6.358   9.208 -0.2154  0.6519 -0.3582
  290MOL0     C39060   6.756   5.771   9.195  0.5903  0.1425 -0.6912
  290MOL0     C39061   6.626   5.708   9.209  0.0463  0.1942 -0.0452
  290MOL0     O39062   6.536   5.303   9.287  0.2689 -0.4546 -0.2909
  290MOL0     C39063   6.283   5.214   9.370  1.0907 -0.0608  0.2574
  290MOL0     C39064   6.151   5.176   9.396  0.1198 -0.1020  0.1360
  290MOL0     N39065   5.611   4.854   9.364  0.2199  0.4286  1.1099
  290MOL0     N39066   5.499   4.813   9.305 -0.0416 -0.4883 -0.1122
  290MOL0     C39067   4.246   4.724   9.443 -0.3140 -0.2345 -0.1058
  290MOL0     C39068   4.106   4.702   9.419 -0.0154  0.4941 -0.4170
  290MOL0     C39069   3.706   4.698   9.237  0.6620 -0.1403 -0.4834
  290MOL0     C39070   3.649   4.575   9.272 -1.4552  0.1086 -0.4140
  290MOL0     C39071   3.529   4.532   9.235  1.0522 -0.0809 -0.6297
  290MOL0     C39072   3.441   4.613   9.168 -0.0613 -0.6960  0.6714
  290MOL0     O39073   3.313   4.560   9.139 -0.4604  0.0109 -1.0179
  290MOL0     C39074   3.247   4.616   9.026  0.7103 -0.5325 -0.5664
  290MOL0     C39075   3.154   4.730   9.078 -0.2967 -0.3277 -0.1917
  290MOL0     C39076   3.021   4.676   9.117  0.4357 -1.0089  0.9916
  290MOL0     C39077   2.913   4.786   9.090 -0.6066 -0.4577 -0.1857
  290MOL0     C39078   2.875   4.761   8.944  0.1366  0.2902  0.7329
  290MOL0     C39079   2.833   4.753   8.826 -0.3520 -0.0137  0.8305
  290MOL0     C39080   3.493   4.734   9.118 -0.1529  0.3957 -0.4798
  290MOL0     C39081   3.621   4.785   9.169  0.8042 -0.0161 -0.4869
  290MOL0     C39082   3.656   4.930   9.117 -0.4781 -0.2440 -0.0299
  290MOL0     H39083   4.142   4.509   9.136 -0.5594 -2.0709  2.4488
  290MOL0     H39084   4.375   4.532   9.186 -0.7929  1.6508 -2.3966
  290MOL0     H39085   4.539   4.644   9.197 -1.0092 -0.0265 -0.0898
  290MOL0     H39086   4.658   4.727   9.313  0.3208 -1.4925  0.9516
  290MOL0     H39087   4.582   4.442   9.299  0.0382  0.0312 -1.7130
  290MOL0     H39088   4.623   4.521   9.453  0.0028  1.1308 -0.0762
  290MOL0     H39089   4.823   4.551   9.212 -0.1308 -0.2797 -0.3405
  290MOL0     H39090   4.833   4.421   9.314  0.9086  0.5283  2.1424
  290MOL0     H39091   4.857   4.712   9.418 -0.8130  0.4640 -0.0595
  290MOL0     H39092   4.816   4.580   9.529 -0.2728 -1.1763 -0.5041
  290MOL0     H39093   5.068   4.643   9.512  1.7073  0.9827 -3.0048
  290MOL0     H39094   5.029   4.471   9.471  2.2979  0.2460  0.4296
  290MOL0     H39095   5.083   4.512   9.244  2.8844 -0.8512  0.3843
  290MOL0     H39096   5.055   4.684   9.263  3.7495  0.9215 -0.4448
  290MOL0     H39097   5.303   4.598   9.242 -2.4021  0.6008 -1.6552
  290MOL0     H39098   5.280   4.564   9.415 -0.6397  1.5897  2.1658
  290MOL0     H39099   5.239   4.826   9.270 -0.9747 -1.7645 -1.4922
  290MOL0     H39100   5.193   4.796   9.442 -0.2736  0.6443 -0.8725
  290MOL0     H39101   5.405   4.800   9.616  0.1494 -2.3936  0.9397
  290MOL0     H39102   5.650   4.863   9.706  0.4669 -1.9998 -0.2122
  290MOL0     H39103   5.775   4.860   9.581  0.4490  0.4418 -1.3508
  290MOL0     H39104   5.578   5.090   9.632  1.0308  0.1189  1.8748
  290MOL0     H39105   5.723   5.097   9.717 -3.5603  1.7843  2.4758
  290MOL0     H39106   5.699   5.245   9.526 -2.2255 -0.3508  3.5201
  290MOL0     H39107   5.665   5.113   9.419 -1.2867  2.1003  0.0168
  290MOL0     H39108   5.879   5.064   9.372  2.1822 -2.5222  1.2457
  290MOL0     H39109   5.928   5.068   9.545 -0.8014 -2.4003 -1.0910
  290MOL0     H39110   6.001   5.469   9.360  0.2802 -1.3552  1.2420
  290MOL0     H39111   6.223   5.548   9.306 -0.1023 -0.4997 -3.0216
  290MOL0     H39112   6.705   5.453   9.411  3.6507 -1.7652 -2.8523
  290MOL0     H39113   6.923   5.564   9.401  0.6742  0.9739 -0.1175
  290MOL0     H39114   7.033   5.863   9.083 -0.9530  2.4242 -1.4286
  290MOL0     H39115   6.922   5.965   9.179 -0.5629  0.5853  1.9545
  290MOL0     H39116   7.087   6.087   9.259  0.2959  0.3527 -1.7888
  290MOL0     H39117   7.150   5.940   9.344  0.7063  0.0237  0.2600
  290MOL0     H39118   7.254   5.898   9.081  1.1859 -0.3220 -1.2300
  290MOL0     H39119   7.220   6.073   9.073  1.7036 -1.7711 -0.7567
  290MOL0     H39120   7.411   5.968   9.296 -2.7376 -0.0294  1.7919
  290MOL0     H39121   7.376   6.130   9.268 -0.0879  0.4155 -0.7622
  290MOL0     H39122   7.483   6.144   9.055  0.3436 -0.6660 -0.7697
  290MOL0     H39123   7.475   5.961   9.035  2.2262 -1.1222  0.7681
  290MOL0     H39124   7.631   5.930   9.208 -0.6509  1.8104  2.5736
  290MOL0     H39125   7.703   6.033   9.081  0.5960 -0.6413  0.5334
  290MOL0     H39126   7.758   6.060   9.319 -1.3402 -1.4425 -1.9830
  290MOL0     H39127   7.607   6.136   9.363 -0.8473  2.2966 -0.3666
  290MOL0     H39128   7.782   6.292   9.308 -0.1656 -0.7220 -0.2436
  290MOL0     H39129   7.777   6.249   9.141  2.1186  2.0911  0.9208
  290MOL0     H39130   6.764   5.857   9.129  0.1218 -0.1130 -1.0804
  290MOL0     H39131   6.541   5.761   9.168 -0.3386  0.1672  0.6949
  290MOL0     H39132   6.359   5.137   9.379  1.0567 -0.0385  0.8059
  290MOL0     H39133   6.124   5.075   9.424 -0.6031 -0.6856 -2.4102
  290MOL0     H39134   4.274   4.785   9.527 -2.0417  1.8621 -0.9675
  290MOL0     H39135   4.038   4.757   9.484  0.5586  1.0796 -0.2963
  290MOL0     H39136   3.700   4.502   9.335 -0.9151  1.5738  0.9314
  290MOL0     H39137   3.491   4.439   9.274 -0.0130  0.1480 -1.1041
  290MOL0     H39138   3.200   4.536   8.969 -1.5461 -0.5441  1.1641
  290MOL0     H39139   3.317   4.664   8.957  0.8180  1.6995  0.9609
  290MOL0     H39140   3.142   4.799   8.994 -2.2936 -0.8946 -0.4156
  290MOL0     H39141   3.197   4.786   9.161 -2.9674 -1.3211  1.9855
  290MOL0     H39142   3.011   4.675   9.226 -2.8320  1.0195  0.8469
  290MOL0     H39143   3.008   4.573   9.080 -1.5581 -0.8713  1.1782
  290MOL0     H39144   2.823   4.772   9.151 -1.1277  0.6414 -0.6708
  290MOL0     H39145   2.952   4.888   9.096  2.3330 -1.3723 -1.6602
  290MOL0     H39146   2.778   4.766   8.735 -0.8847  1.4643  1.3391
  290MOL0     H39147   3.441   4.805   9.055  1.5338  1.2216 -1.0079
  290MOL0     H39148   3.672   5.000   9.200 -1.3341  1.1120 -0.9715
  290MOL0     H39149   3.750   4.937   9.060 -0.6069  1.0058 -0.1270
  290MOL0     H39150   3.576   4.977   9.058  2.7284  1.3005 -3.6091
  291MOL0     O39151   9.418  10.890   8.299 -0.4098  0.1729 -0.0557
  291MOL0     C39152   9.450  10.914   8.182 -0.1504  0.0367 -0.6949
  291MOL0     O39153   9.350  10.929   8.082 -0.8980  0.4146  0.2902
  291MOL0     C39154   9.225  10.868   8.091 -0.0449 -0.4100 -0.0524
  291MOL0     C39155   9.116  10.920   8.016  0.0713  0.1909 -0.4565
  291MOL0     C39156   8.987  10.866   8.017  0.0484 -0.4652 -0.5423
  291MOL0     C39157   8.971  10.735   8.066 -0.1208  0.4924  0.0237
  291MOL0     O39158   8.845  10.683   8.066  0.8039  0.0140 -0.8792
  291MOL0     C39159   8.822  10.566   8.139 -0.6232 -0.2333 -0.4697
  291MOL0     C39160   8.675  10.519   8.122 -0.1630 -0.2841 -0.2921
  291MOL0     C39161   8.581  10.524   8.244  0.2918 -0.3514 -1.5667
  291MOL0     C39162   8.486  10.402   8.251 -0.1908  0.1343  0.5372
  291MOL0     C39163   8.387  10.414   8.368  0.1151 -0.3687  0.9957
  291MOL0     C39164   8.289  10.301   8.359 -0.2763  0.3951  0.4080
  291MOL0     C39165   8.159  10.339   8.432  0.3188  1.0487  0.8326
  291MOL0     C39166   8.056  10.218   8.437 -0.1086  0.5982 -0.3689
  291MOL0     N39167   7.942  10.254   8.520 -0.1761  0.1748 -0.1137
  291MOL0     C39168   7.930  10.289   8.646 -0.2927  0.3968 -0.2114
  291MOL0     C39169   7.798  10.314   8.661  0.6242 -0.0464 -0.3375
  291MOL0     C39170   7.716  10.353   8.790 -1.5081 -1.1644 -0.0603
  291MOL0     C39171   7.695  10.505   8.816  0.1232  0.3155 -0.7089
  291MOL0     C39172   7.823  10.593   8.841 -1.2540  0.3372  0.6358
  291MOL0     C39173   7.896  10.636   8.700  0.3370  1.1332  0.2216
  291MOL0     O39174   8.036  10.620   8.695  0.2467 -0.0959  0.5934
  291MOL0     C39175   8.121  10.715   8.654  0.0062 -0.0524 -0.1011
  291MOL0     C39176   8.099  10.847   8.612  0.8793  0.0078  0.9689
  291MOL0     C39177   8.197  10.929   8.546 -0.1939 -0.1734  0.0992
  291MOL0     C39178   8.328  10.877   8.518 -0.0801  0.7420 -0.2469
  291MOL0     C39179   8.441  10.956   8.454  0.0342 -0.0475  0.0209
  291MOL0     O39180   8.566  10.912   8.494 -1.0335 -0.2513  0.1544
  291MOL0     C39181   8.669  11.010   8.462 -0.9594  0.1698 -0.0810
  291MOL0     C39182   8.671  11.137   8.518  0.4745  0.2958 -0.1209
  291MOL0     C39183   8.767  11.225   8.489 -0.3249  0.3493  0.2125
  291MOL0     C39184   8.876  11.193   8.402  0.1394  1.2626  0.0299
  291MOL0     O39185   8.984  11.273   8.373  0.3966 -0.3712  0.1752
  291MOL0     C39186   9.104  11.219   8.311 -0.4722 -0.4608 -0.9974
  291MOL0     C39187   9.194  11.338   8.272  0.2813  0.4285  0.5138
  291MOL0     C39188   9.338  11.318   8.297 -1.1088 -0.5334  0.4594
  291MOL0     C39189   9.405  11.456   8.299 -0.7799  0.8892 -0.1463
  291MOL0     C39190   9.558  11.450   8.290  0.4029  0.9794  0.3750
  291MOL0     C39191   9.630  11.397   8.169  0.5279  1.0172 -0.4730
  291MOL0     C39192   9.781  11.396   8.205 -0.3875  0.0308  0.3629
  291MOL0     C39193   9.871  11.369   8.085  0.1011  0.3150 -0.7524
  291MOL0    Cl39194  10.000  11.481   8.099 -0.4324  0.0771  0.4795
  291MOL0     C39195   8.867  11.067   8.340  0.3697 -0.4627 -0.0199
  291MOL0     C39196   8.773  10.976   8.375 -0.1580  0.9878  0.2338
  291MOL0     O39197   8.413  11.060   8.395  0.3046 -0.2362 -0.9818
  291MOL0     C39198   8.350  10.740   8.563 -0.3013  0.4032 -0.1631
  291MOL0     C39199   8.247  10.666   8.620 -0.1623 -0.6138  0.4291
  291MOL0     N39200   7.736  10.298   8.543  0.5290 -0.1760 -0.2449
  291MOL0     N39201   7.823  10.254   8.464 -0.2528 -1.2093  0.1020
  291MOL0     C39202   9.085  10.673   8.121  0.1283 -0.1341 -0.9204
  291MOL0     C39203   9.208  10.736   8.130 -0.2600 -0.0835  0.3576
  291MOL0     C39204   9.586  10.947   8.148 -0.0309 -0.4353  0.3256
  291MOL0     C39205   9.613  10.931   8.010 -0.0108 -0.3676 -0.2944
  291MOL0     C39206   9.733  10.972   7.956  0.6039 -0.0770  0.3154
  291MOL0     C39207   9.838  11.000   8.042  0.1081  0.1094  0.1700
  291MOL0     O39208   9.965  11.045   8.007  0.5741  0.0558 -0.1840
  291MOL0     C39209  10.009  11.037   7.871  0.3085 -0.6040 -0.1262
  291MOL0     C39210   9.972  11.162   7.798  0.3665  0.2105 -0.0678
  291MOL0     C39211   9.904  11.123   7.658 -0.0289 -0.6409 -0.3320
  291MOL0     C39212   9.921  11.234   7.553  0.7544  0.3232 -0.6167
  291MOL0     C39213   9.868  11.185   7.418 -0.5199 -0.6028  0.5332
  291MOL0     C39214   9.825  11.148   7.315  0.1116 -0.3355 -0.1373
  291MOL0     C39215   9.808  11.002   8.180 -0.9067 -0.7755  1.1877
  291MOL0     C39216   9.684  10.975   8.239  0.9057  0.2481  0.3772
  291MOL0     C39217   9.668  10.998   8.383 -1.2724  0.4908  0.2060
  291MOL0     H39218   9.118  11.019   7.971 -2.0219  0.4406 -0.0981
  291MOL0     H39219   8.899  10.921   7.987 -0.1858 -1.0478 -0.9386
  291MOL0     H39220   8.874  10.476   8.108 -0.7574 -1.3838  2.3398
  291MOL0     H39221   8.842  10.592   8.244 -0.1606  2.2842 -1.1085
  291MOL0     H39222   8.674  10.418   8.080 -1.3007  0.1846 -1.4534
  291MOL0     H39223   8.635  10.593   8.053  1.7642 -0.1709 -1.3617
  291MOL0     H39224   8.516  10.611   8.254  0.3153 -0.4768 -0.0521
  291MOL0     H39225   8.637  10.539   8.337 -2.6161  4.1127 -0.2011
  291MOL0     H39226   8.434  10.395   8.155  0.9194  1.7680 -0.2264
  291MOL0     H39227   8.534  10.305   8.266  0.7325 -0.1156 -3.1803
  291MOL0     H39228   8.443  10.402   8.462  1.2452  0.5814  0.4735
  291MOL0     H39229   8.342  10.513   8.373 -2.2627 -1.3558  0.2897
  291MOL0     H39230   8.262  10.267   8.258 -3.4007 -2.6078  2.0353
  291MOL0     H39231   8.339  10.214   8.403 -0.1815 -0.4529 -1.2881
  291MOL0     H39232   8.118  10.428   8.385  1.2162 -0.0317 -2.2038
  291MOL0     H39233   8.177  10.351   8.540  0.8659  1.3205  0.7157
  291MOL0     H39234   8.004  10.201   8.343 -2.9112 -0.7744  1.3039
  291MOL0     H39235   8.100  10.119   8.452 -1.4745 -0.4387 -2.7056
  291MOL0     H39236   7.998  10.277   8.729 -1.7554 -0.1996  0.9313
  291MOL0     H39237   7.614  10.316   8.780 -1.9649  0.2352 -0.7741
  291MOL0     H39238   7.761  10.314   8.882  2.2922  2.7013  0.0535
  291MOL0     H39239   7.642  10.547   8.730 -3.0720  0.1519  1.0396
  291MOL0     H39240   7.618  10.517   8.893  0.0601  1.5096 -0.9462
  291MOL0     H39241   7.902  10.550   8.903 -2.6248 -0.7363  1.7241
  291MOL0     H39242   7.794  10.683   8.895  1.7172 -0.5810  4.2572
  291MOL0     H39243   7.873  10.742   8.691 -1.2722  0.7710 -0.1326
  291MOL0     H39244   7.846  10.590   8.615  0.0145  0.0560  0.9786
  291MOL0     H39245   8.006  10.898   8.632  1.1229  0.6683  0.4649
  291MOL0     H39246   8.181  11.035   8.528  1.9472 -0.2981 -3.8620
  291MOL0     H39247   8.592  11.153   8.591 -0.1286 -2.4225 -0.0798
  291MOL0     H39248   8.786  11.316   8.545  1.7743 -0.3364  0.7365
  291MOL0     H39249   9.152  11.157   8.388 -0.1211  0.7678 -0.1850
  291MOL0     H39250   9.082  11.152   8.228  0.4287 -2.7551  0.5201
  291MOL0     H39251   9.172  11.376   8.172 -0.7379 -0.4069  0.4014
  291MOL0     H39252   9.159  11.420   8.336 -3.1172  1.3113 -2.1905
  291MOL0     H39253   9.366  11.273   8.392  0.9277 -1.0834 -0.3350
  291MOL0     H39254   9.375  11.252   8.217  3.6402  2.1939  0.0290
  291MOL0     H39255   9.381  11.512   8.390  0.7497  0.1548  0.7438
  291MOL0     H39256   9.374  11.516   8.213 -0.8405 -0.4492 -1.0790
  291MOL0     H39257   9.583  11.387   8.376 -1.5491  2.6337  2.2689
  291MOL0     H39258   9.600  11.547   8.319  0.7347  0.4497  1.7408
  291MOL0     H39259   9.598  11.293   8.155 -0.2300  1.1055  0.4681
  291MOL0     H39260   9.609  11.472   8.093  0.4527  1.8103  0.3085
  291MOL0     H39261   9.779  11.311   8.274 -1.5747 -1.1690 -1.0665
  291MOL0     H39262   9.816  11.486   8.256 -0.5936 -0.5565  1.5697
  291MOL0     H39263   9.906  11.265   8.087  5.5886  1.8547 -1.9767
  291MOL0     H39264   9.814  11.385   7.993 -2.6239 -2.2139  0.3241
  291MOL0     H39265   8.943  11.020   8.279 -0.6508 -2.1752 -0.0546
  291MOL0     H39266   8.793  10.877   8.335  0.8717  0.7735  1.2228
  291MOL0     H39267   8.442  10.687   8.539 -0.5233  0.0236 -0.1907
  291MOL0     H39268   8.275  10.563   8.639  0.2406 -0.6499 -0.3304
  291MOL0     H39269   9.083  10.570   8.152  1.9477  0.0336 -0.1245
  291MOL0     H39270   9.292  10.676   8.164 -1.3173  0.1561  3.7713
  291MOL0     H39271   9.525  10.900   7.954  0.1362 -0.8154 -0.2810
  291MOL0     H39272   9.742  10.983   7.849 -3.5303  2.8329  0.0523
  291MOL0     H39273   9.975  10.950   7.815 -1.4783  2.0751 -3.5934
  291MOL0     H39274  10.118  11.035   7.872  0.6625  2.3566  4.8251
  291MOL0     H39275  10.059  11.228   7.788  0.6811  0.1467  1.9744
  291MOL0     H39276   9.902  11.216   7.863  0.4691 -1.3398  1.3876
  291MOL0     H39277   9.795  11.116   7.672 -0.6086  2.3113 -2.5139
  291MOL0     H39278   9.939  11.025   7.624 -0.2961 -0.9916  0.3791
  291MOL0     H39279   9.869  11.321   7.593  3.1255  0.6952  1.9606
  291MOL0     H39280  10.025  11.263   7.535  0.8640 -0.0065 -0.5199
  291MOL0     H39281   9.780  11.128   7.220 -0.3721  0.2288 -0.0294
  291MOL0     H39282   9.878  11.032   8.257 -1.4132 -2.0404  2.1727
  291MOL0     H39283   9.579  11.060   8.391 -1.1527  0.4876  1.8415
  291MOL0     H39284   9.665  10.904   8.439  1.5735 -1.5146 -2.6510
  291MOL0     H39285   9.748  11.059   8.426 -0.8739  0.3281 -0.2877
  292MOL0     O39286   5.793   0.076   7.689 -1.1215  0.6352 -1.0232
  292MOL0     C39287   5.836   0.131   7.792 -0.5014 -0.3911 -0.3938
  292MOL0     O39288   5.768   0.177   7.894  0.3031 -0.1516  0.7514
  292MOL0     C39289   5.632   0.180   7.879  0.3137 -0.2012 -0.6837
  292MOL0     C39290   5.554   0.147   7.989  0.1457  1.0216 -0.2464
  292MOL0     C39291   5.417   0.139   8.002  0.1348  0.2776 -0.4758
  292MOL0     C39292   5.338   0.165   7.890 -0.2519 -0.3348  0.2160
  292MOL0     O39293   5.205   0.144   7.883 -0.2080 -0.5878  0.1632
  292MOL0     C39294   5.124   0.223   7.973 -0.1817 -0.2667  0.0050
  292MOL0     C39295   4.987   0.159   7.969  0.5789  0.4089 -0.1140
  292MOL0     C39296   4.996   0.024   8.029  0.8017  0.8374 -0.6934
  292MOL0     C39297   4.851  -0.034   8.044 -0.4726  0.0896  0.0877
  292MOL0     C39298   4.847  -0.158   8.137 -0.5771 -0.7629  0.0545
  292MOL0     C39299   4.930  -0.283   8.072 -0.4805  0.2628  0.3182
  292MOL0     C39300   4.903  -0.400   8.162  0.2839  0.4750 -0.9873
  292MOL0     C39301   4.971  -0.523   8.130  0.2349  0.2447 -0.3257
  292MOL0     N39302   5.118  -0.511   8.114 -1.0068 -0.1411  0.8081
  292MOL0     C39303   5.213  -0.501   8.208  0.3700  1.0194  0.0305
  292MOL0     C39304   5.325  -0.484   8.139  0.3001  0.1365  0.7427
  292MOL0     C39305   5.457  -0.491   8.196  0.0651 -0.5317  0.3663
  292MOL0     C39306   5.528  -0.625   8.163 -0.5881 -0.6925 -0.3135
  292MOL0     C39307   5.645  -0.658   8.252  0.0006 -0.1163  0.2266
  292MOL0     C39308   5.762  -0.558   8.246  0.5384 -0.5238  0.0521
  292MOL0     O39309   5.843  -0.601   8.357 -0.3132  0.1482  0.1833
  292MOL0     C39310   5.972  -0.640   8.341  0.3537 -0.5887 -0.4166
  292MOL0     C39311   6.022  -0.714   8.445  0.4376 -0.4152 -0.1317
  292MOL0     C39312   6.152  -0.747   8.446  1.0558 -0.9056 -0.2390
  292MOL0     C39313   6.240  -0.719   8.336  0.1635  0.3893 -0.0232
  292MOL0     C39314   6.385  -0.742   8.345 -0.3862  0.3267 -0.2590
  292MOL0     O39315   6.463  -0.724   8.226  0.7004  0.2472 -0.4349
  292MOL0     C39316   6.577  -0.793   8.223  0.0841  0.3314 -0.9943
  292MOL0     C39317   6.690  -0.727   8.177 -1.6577 -0.2056 -1.0638
  292MOL0     C39318   6.814  -0.790   8.169  0.0521  0.1670 -0.3305
  292MOL0     C39319   6.828  -0.923   8.205  0.1642  1.1182 -0.8703
  292MOL0     O39320   6.953  -0.985   8.188 -0.1390  0.0534  0.1339
  292MOL0     C39321   6.968  -1.120   8.200 -0.1205 -0.0736 -0.3119
  292MOL0     C39322   7.118  -1.154   8.193  1.1731 -0.5729  1.0620
  292MOL0     C39323   7.199  -1.103   8.321  0.1724 -0.1212 -0.3682
  292MOL0     C39324   7.239  -0.960   8.321  0.7481 -0.8045  0.4749
  292MOL0     C39325   7.332  -0.914   8.433 -0.9742  0.0319  0.4398
  292MOL0     C39326   7.375  -0.767   8.430 -0.4372  0.7209 -0.2517
  292MOL0     C39327   7.455  -0.731   8.556 -0.3126 -0.1213  0.4767
  292MOL0     C39328   7.465  -0.581   8.574  0.7571 -0.0729  0.3703
  292MOL0    Cl39329   7.559  -0.563   8.727 -0.1810  0.0830 -0.1273
  292MOL0     C39330   6.713  -1.003   8.232 -0.0664  0.9331  0.1162
  292MOL0     C39331   6.598  -0.934   8.252  0.8674  0.0046 -0.5366
  292MOL0     O39332   6.423  -0.780   8.457 -0.5585 -0.1755  0.0196
  292MOL0     C39333   6.182  -0.645   8.228 -0.5190 -0.5436  0.9535
  292MOL0     C39334   6.046  -0.607   8.232  0.5178  0.2087  0.9720
  292MOL0     N39335   5.298  -0.482   8.002 -0.3754  0.0991 -0.4083
  292MOL0     N39336   5.172  -0.497   7.991 -0.3685  0.5679 -0.3045
  292MOL0     C39337   5.407   0.195   7.764 -0.0806 -0.6937 -0.3001
  292MOL0     C39338   5.550   0.216   7.770 -0.2897  0.4507 -0.2790
  292MOL0     C39339   5.981   0.150   7.812 -0.4906 -0.1657 -0.1517
  292MOL0     C39340   6.046   0.176   7.937  0.0918  0.6934 -0.2447
  292MOL0     C39341   6.185   0.188   7.955  0.3040 -0.8052 -0.2324
  292MOL0     C39342   6.275   0.177   7.852  0.0011  0.1335  0.0353
  292MOL0     O39343   6.406   0.196   7.890  0.3275  0.5096 -0.3782
  292MOL0     C39344   6.509   0.180   7.798  0.1646  0.2180 -0.2594
  292MOL0     C39345   6.568   0.039   7.799  0.0183  0.9365 -0.7125
  292MOL0     C39346   6.718   0.042   7.760  0.0631 -0.2348 -0.1628
  292MOL0     C39347   6.804   0.081   7.879 -0.4901 -0.4533  0.8005
  292MOL0     C39348   6.947   0.078   7.840  0.3651  0.9854 -0.4267
  292MOL0     C39349   7.060   0.089   7.791  0.6650 -0.5659 -0.0787
  292MOL0     C39350   6.220   0.138   7.730  0.0411  0.5365 -0.3460
  292MOL0     C39351   6.084   0.135   7.702  1.0548  0.1440  0.0559
  292MOL0     C39352   6.037   0.117   7.556 -0.3950  0.8529  0.0094
  292MOL0     H39353   5.619   0.125   8.073  0.3065 -4.8583 -1.5202
  292MOL0     H39354   5.366   0.115   8.094  1.5635  0.6537  0.4354
  292MOL0     H39355   5.169   0.238   8.072  1.1032  1.8055 -0.8106
  292MOL0     H39356   5.120   0.322   7.925  0.4077 -1.0263 -1.6939
  292MOL0     H39357   4.969   0.159   7.862 -0.4898  0.6494  0.0508
  292MOL0     H39358   4.918   0.226   8.022  0.7833 -0.8471  1.8653
  292MOL0     H39359   5.029   0.028   8.134 -1.9308 -2.2178  0.4396
  292MOL0     H39360   5.063  -0.051   7.985 -2.0962 -2.0353 -0.5308
  292MOL0     H39361   4.782   0.048   8.066  1.8132  1.6218  2.0180
  292MOL0     H39362   4.827  -0.063   7.941  3.4391  0.9954 -1.2504
  292MOL0     H39363   4.888  -0.127   8.233 -0.3859 -2.4013  0.5366
  292MOL0     H39364   4.744  -0.177   8.168 -0.5558  2.7924  2.9280
  292MOL0     H39365   4.901  -0.301   7.968 -0.9110 -1.7063  0.7340
  292MOL0     H39366   5.034  -0.248   8.067 -1.1186  3.0170  3.1278
  292MOL0     H39367   4.796  -0.420   8.159  0.1975  0.6583  0.2676
  292MOL0     H39368   4.932  -0.361   8.260 -1.5665  1.8136 -0.9247
  292MOL0     H39369   4.951  -0.590   8.214  0.4315 -0.3314 -0.7333
  292MOL0     H39370   4.928  -0.567   8.040 -0.1676 -0.7217  0.3248
  292MOL0     H39371   5.202  -0.520   8.315 -1.1468 -3.1016 -0.6821
  292MOL0     H39372   5.514  -0.406   8.156  0.7319 -0.4990  1.3600
  292MOL0     H39373   5.441  -0.499   8.303 -1.4484 -1.6529  0.0827
  292MOL0     H39374   5.450  -0.699   8.182 -1.2867  0.5562  2.0660
  292MOL0     H39375   5.560  -0.627   8.058  0.0095 -0.0465 -0.1505
  292MOL0     H39376   5.685  -0.756   8.222  0.5701  0.1489  0.1134
  292MOL0     H39377   5.605  -0.667   8.353  0.3005 -2.1669  0.2105
  292MOL0     H39378   5.739  -0.453   8.267  2.3737  0.5817 -2.8238
  292MOL0     H39379   5.802  -0.565   8.144 -0.1096 -1.7620 -0.1355
  292MOL0     H39380   5.956  -0.744   8.526 -1.6611  0.6107 -1.3841
  292MOL0     H39381   6.187  -0.794   8.537  0.0123 -0.1040  0.6158
  292MOL0     H39382   6.686  -0.627   8.135 -2.9301 -0.2166 -1.0138
  292MOL0     H39383   6.895  -0.731   8.128  1.1120  0.3327  1.8297
  292MOL0     H39384   6.935  -1.159   8.297  1.9679 -2.4294 -0.4610
  292MOL0     H39385   6.908  -1.170   8.123 -1.7261  1.7758 -0.3386
  292MOL0     H39386   7.116  -1.263   8.198 -2.5655 -0.5670  3.2879
  292MOL0     H39387   7.162  -1.110   8.103  0.2618 -0.1918  0.7823
  292MOL0     H39388   7.135  -1.119   8.409  0.3488  0.8341 -0.0581
  292MOL0     H39389   7.287  -1.167   8.339 -1.1158 -1.7438  0.4658
  292MOL0     H39390   7.152  -0.895   8.314  1.8939  1.0178  2.1046
  292MOL0     H39391   7.308  -0.952   8.236  0.6954 -1.3319  0.3827
  292MOL0     H39392   7.420  -0.980   8.432 -1.8723 -1.2440 -1.2282
  292MOL0     H39393   7.272  -0.935   8.522  1.7002 -3.0094  1.7297
  292MOL0     H39394   7.422  -0.729   8.339  1.9119  2.3696  1.5267
  292MOL0     H39395   7.284  -0.707   8.427  0.6480  2.3948 -0.7269
  292MOL0     H39396   7.550  -0.785   8.559 -0.0833  0.2306 -0.1798
  292MOL0     H39397   7.399  -0.760   8.645  0.1182 -1.4364  0.3370
  292MOL0     H39398   7.523  -0.542   8.490  0.1302 -1.1719 -0.5964
  292MOL0     H39399   7.370  -0.528   8.579  1.6774  1.5654  1.8398
  292MOL0     H39400   6.728  -1.110   8.228  0.4168  0.9959  0.1496
  292MOL0     H39401   6.504  -0.978   8.286  0.8341  1.2023  1.0621
  292MOL0     H39402   6.241  -0.620   8.140 -0.1290  2.1429  1.8634
  292MOL0     H39403   6.005  -0.542   8.156  0.7592  1.5756  1.9714
  292MOL0     H39404   5.344   0.224   7.681 -0.8354  1.7634  1.0515
  292MOL0     H39405   5.597   0.255   7.680 -2.0245  1.8901 -0.6111
  292MOL0     H39406   5.983   0.194   8.023  1.3611  0.6953  0.7157
  292MOL0     H39407   6.242   0.199   8.047  2.9472 -0.1516 -1.8130
  292MOL0     H39408   6.588   0.248   7.831  0.7380 -1.9799  3.4858
  292MOL0     H39409   6.484   0.205   7.695  3.9467  1.2955 -1.0629
  292MOL0     H39410   6.514  -0.021   7.725  0.5518 -1.4110  0.6766
  292MOL0     H39411   6.542  -0.004   7.896 -1.5390 -0.7688 -1.8106
  292MOL0     H39412   6.739   0.116   7.682 -0.7638  1.1835  0.9050
  292MOL0     H39413   6.752  -0.054   7.721  2.8310  0.6917 -0.2595
  292MOL0     H39414   6.783   0.185   7.907  1.4711  0.0656  0.4737
  292MOL0     H39415   6.779   0.012   7.960 -2.9627 -2.2795 -1.3833
  292MOL0     H39416   7.163   0.101   7.765  0.4421  0.9481 -0.3139
  292MOL0     H39417   6.279   0.109   7.643 -2.0270 -3.5504 -0.6523
  292MOL0     H39418   5.985   0.022   7.540 -0.5930  0.8873  0.4443
  292MOL0     H39419   5.973   0.198   7.522 -0.4676  1.1915  0.9340
  292MOL0     H39420   6.124   0.104   7.491 -0.9866  2.2453 -1.0947
  293MOL0     O39421   1.277   7.819   6.677 -0.5492  0.0825  0.5511
  293MOL0     C39422   1.300   7.762   6.571  0.1388 -1.3644  0.4454
  293MOL0     O39423   1.213   7.692   6.504  0.6128 -0.0000  0.0762
  293MOL0     C39424   1.081   7.670   6.526 -0.0775 -0.8454  0.7511
  293MOL0     C39425   0.998   7.751   6.603  0.4213 -0.2177  0.0890
  293MOL0     C39426   0.857   7.736   6.603 -0.6061  0.5705  0.4575
  293MOL0     C39427   0.799   7.624   6.543 -0.0814  0.8749 -0.2401
  293MOL0     O39428   0.653   7.594   6.556 -0.5312 -0.4566 -0.3061
  293MOL0     C39429   0.565   7.643   6.664 -0.5432  0.5235 -0.5784
  293MOL0     C39430   0.457   7.533   6.688 -0.0037 -0.8400  0.8712
  293MOL0     C39431   0.336   7.588   6.755  0.6385 -0.4974 -0.5925
  293MOL0     C39432   0.244   7.473   6.804 -0.4845 -1.1060  0.8829
  293MOL0     C39433   0.104   7.526   6.837  0.6087  0.1426  0.3284
  293MOL0     C39434   0.083   7.602   6.976  0.4129  0.9146  0.9346
  293MOL0     C39435  -0.071   7.599   6.997 -0.4835 -0.1714 -0.0740
  293MOL0     C39436  -0.111   7.656   7.140 -0.1779  0.2948 -0.4360
  293MOL0     N39437  -0.258   7.641   7.158  0.0863  0.3476 -0.0683
  293MOL0     C39438  -0.346   7.709   7.081  0.4535 -0.7380 -0.3662
  293MOL0     C39439  -0.465   7.647   7.093  0.1445  0.7607  0.3497
  293MOL0     C39440  -0.589   7.686   7.028 -0.3851  0.0010  0.4964
  293MOL0     C39441  -0.578   7.660   6.875 -0.2370  0.5214  0.6029
  293MOL0     C39442  -0.679   7.737   6.800 -0.0905 -0.3073  0.7407
  293MOL0     C39443  -0.661   7.748   6.649  0.5659  0.0673 -0.6121
  293MOL0     O39444  -0.561   7.849   6.616  0.0346  0.6941 -1.2804
  293MOL0     C39445  -0.550   7.884   6.489 -0.2541  0.6280 -0.7899
  293MOL0     C39446  -0.611   7.815   6.383 -0.0829  0.1763  0.2613
  293MOL0     C39447  -0.599   7.853   6.249  0.6311 -0.6530 -0.9086
  293MOL0     C39448  -0.512   7.963   6.218  1.1844  0.4297 -0.0837
  293MOL0     C39449  -0.491   8.008   6.078  0.8602  0.3519 -0.4442
  293MOL0     O39450  -0.410   8.117   6.060  0.7865 -0.1037 -0.3013
  293MOL0     C39451  -0.364   8.170   5.947  0.1746 -0.0152  0.9752
  293MOL0     C39452  -0.367   8.109   5.816 -0.9457  0.1939 -0.3346
  293MOL0     C39453  -0.320   8.177   5.704 -0.2570 -0.0678  0.1971
  293MOL0     C39454  -0.252   8.302   5.715  0.6012  0.1956  0.1909
  293MOL0     O39455  -0.195   8.359   5.609 -0.1783 -0.0864  0.1366
  293MOL0     C39456  -0.180   8.502   5.594  0.0539  0.6777  0.0983
  293MOL0     C39457  -0.126   8.536   5.464 -0.7728 -0.4253 -0.3660
  293MOL0     C39458   0.020   8.479   5.435  0.4609 -0.6799 -0.7838
  293MOL0     C39459   0.092   8.511   5.307  0.2930 -0.3289  0.3302
  293MOL0     C39460   0.153   8.649   5.306 -0.6214 -0.0031 -0.2342
  293MOL0     C39461   0.202   8.709   5.171 -0.0320  0.6036  0.1208
  293MOL0     C39462   0.285   8.612   5.079 -0.3752 -0.4216  0.0022
  293MOL0     C39463   0.358   8.691   4.970 -0.2159 -0.4869 -0.3868
  293MOL0    Cl39464   0.238   8.797   4.890  0.1854 -0.1983 -0.0798
  293MOL0     C39465  -0.247   8.363   5.837 -0.1012 -0.4671  0.0827
  293MOL0     C39466  -0.298   8.295   5.952  0.3886 -0.1857 -0.2896
  293MOL0     O39467  -0.532   7.937   5.986 -0.3035  1.4516 -0.5373
  293MOL0     C39468  -0.451   8.032   6.323 -0.6587  0.2805 -0.4669
  293MOL0     C39469  -0.470   7.996   6.455 -0.6482 -0.0365  0.6427
  293MOL0     N39470  -0.450   7.536   7.181  0.1459 -0.3876  0.5496
  293MOL0     N39471  -0.322   7.533   7.211  0.8608 -0.0240 -0.0366
  293MOL0     C39472   0.883   7.538   6.464 -0.0152 -0.6570  0.1649
  293MOL0     C39473   1.025   7.560   6.458 -0.1644 -0.4307  0.9006
  293MOL0     C39474   1.438   7.768   6.511  1.0736 -0.8284 -0.5704
  293MOL0     C39475   1.530   7.859   6.572 -0.2302  0.4647  0.5241
  293MOL0     C39476   1.658   7.871   6.531 -0.0001  0.1270 -0.2200
  293MOL0     C39477   1.707   7.794   6.427 -0.5279  0.5638 -0.8507
  293MOL0     O39478   1.837   7.807   6.391  0.3067 -0.2621  0.1723
  293MOL0     C39479   1.928   7.738   6.480 -0.3557  0.5739 -0.7143
  293MOL0     C39480   1.926   7.589   6.484  0.0258  0.0877 -0.5018
  293MOL0     C39481   2.032   7.509   6.562 -0.6333  0.9828 -0.1967
  293MOL0     C39482   2.011   7.361   6.564  0.6936  0.6485  0.0915
  293MOL0     C39483   1.891   7.328   6.642 -0.2641  0.3097 -0.5959
  293MOL0     C39484   1.791   7.286   6.701 -0.0319 -0.2085 -0.8206
  293MOL0     C39485   1.624   7.710   6.357 -0.5310  0.3676  0.0143
  293MOL0     C39486   1.490   7.699   6.396  0.2139  0.6819  0.2922
  293MOL0     C39487   1.420   7.597   6.307  0.3989 -0.2144  0.4615
  293MOL0     H39488   1.038   7.828   6.668  1.4028 -0.3034 -0.3839
  293MOL0     H39489   0.787   7.797   6.658  0.3277  1.8628  0.2624
  293MOL0     H39490   0.627   7.674   6.748  3.0153  1.6531 -3.3811
  293MOL0     H39491   0.520   7.738   6.632 -0.1022  1.7387  2.1567
  293MOL0     H39492   0.511   7.452   6.737 -1.3618 -0.5590  2.9454
  293MOL0     H39493   0.422   7.494   6.591  2.5818 -3.3975  0.8257
  293MOL0     H39494   0.271   7.658   6.702 -2.7440 -0.9531  2.5511
  293MOL0     H39495   0.380   7.645   6.837  2.7064 -1.1599 -1.1792
  293MOL0     H39496   0.222   7.401   6.725 -0.0656  1.1419 -1.4126
  293MOL0     H39497   0.286   7.424   6.892 -3.5496 -0.3267  2.9242
  293MOL0     H39498   0.077   7.595   6.757 -2.6305 -3.2651 -1.8331
  293MOL0     H39499   0.042   7.436   6.836  0.9517 -0.1834  2.8820
  293MOL0     H39500   0.139   7.553   7.056  0.2276 -1.9462 -0.5826
  293MOL0     H39501   0.135   7.698   6.966 -0.7950  1.5289  0.3592
  293MOL0     H39502  -0.099   7.493   6.996  2.1325 -0.9218  0.4358
  293MOL0     H39503  -0.133   7.647   6.920 -0.3051  1.3565  0.6893
  293MOL0     H39504  -0.062   7.600   7.219 -1.3701  1.4869  1.2306
  293MOL0     H39505  -0.093   7.762   7.161 -2.1073  0.4528  0.6949
  293MOL0     H39506  -0.316   7.787   7.012 -1.5452  0.6061  0.2164
  293MOL0     H39507  -0.680   7.644   7.073 -0.7764  1.2208  0.8948
  293MOL0     H39508  -0.595   7.794   7.040  2.7694  0.9785 -3.9824
  293MOL0     H39509  -0.481   7.698   6.842 -1.1692  2.2140 -0.3125
  293MOL0     H39510  -0.576   7.555   6.845  2.0258  0.6388  0.0961
  293MOL0     H39511  -0.691   7.840   6.836 -1.4936  0.0832 -0.7342
  293MOL0     H39512  -0.780   7.695   6.812 -0.2038 -0.3419 -0.2681
  293MOL0     H39513  -0.762   7.766   6.611  0.4163  1.4537  0.3437
  293MOL0     H39514  -0.633   7.652   6.604 -2.7683  0.5368 -4.1627
  293MOL0     H39515  -0.674   7.728   6.400 -0.8939  0.4038 -1.3762
  293MOL0     H39516  -0.656   7.800   6.172  1.2660 -1.2513 -0.9724
  293MOL0     H39517  -0.413   8.012   5.807 -0.1856 -0.0665 -1.6815
  293MOL0     H39518  -0.324   8.133   5.605 -0.2580 -0.4020  0.3403
  293MOL0     H39519  -0.275   8.557   5.602  0.9812  2.4376 -0.4738
  293MOL0     H39520  -0.116   8.545   5.672  0.6812  0.5528 -0.3480
  293MOL0     H39521  -0.194   8.509   5.382 -3.6889  4.2487  0.1088
  293MOL0     H39522  -0.118   8.645   5.457 -2.6760 -0.2334 -0.0967
  293MOL0     H39523   0.090   8.511   5.512 -2.1629  0.5964  1.2415
  293MOL0     H39524   0.013   8.370   5.443  1.6737 -0.7278 -0.1227
  293MOL0     H39525   0.018   8.502   5.227  1.8138 -0.0389 -1.1674
  293MOL0     H39526   0.167   8.432   5.292 -1.4336 -1.7436 -1.5338
  293MOL0     H39527   0.243   8.649   5.368 -0.3499  0.3010 -0.6227
  293MOL0     H39528   0.094   8.730   5.349  0.2229  1.2855 -1.4268
  293MOL0     H39529   0.110   8.739   5.120 -0.5391 -1.7798 -0.5072
  293MOL0     H39530   0.259   8.794   5.209 -0.1147  1.0017 -0.6290
  293MOL0     H39531   0.214   8.542   5.033 -2.8457  2.1512 -0.3841
  293MOL0     H39532   0.353   8.552   5.140  0.0354 -2.0466 -1.9275
  293MOL0     H39533   0.439   8.753   5.009 -0.0366 -1.2818  0.5391
  293MOL0     H39534   0.396   8.625   4.891  2.6376  2.7502 -2.0183
  293MOL0     H39535  -0.219   8.467   5.846 -0.4240 -0.4491  0.9594
  293MOL0     H39536  -0.298   8.353   6.043  0.0843 -1.9646  0.8898
  293MOL0     H39537  -0.381   8.112   6.303  1.4280 -1.1992  0.4239
  293MOL0     H39538  -0.412   8.051   6.528  0.0974  2.5375 -1.7244
  293MOL0     H39539   0.839   7.463   6.399 -1.5784  3.0746 -3.5090
  293MOL0     H39540   1.096   7.494   6.410  0.5098  0.8660  0.0556
  293MOL0     H39541   1.494   7.905   6.664  0.7907 -0.2444  1.3077
  293MOL0     H39542   1.721   7.947   6.575 -0.2988 -0.0405  0.4977
  293MOL0     H39543   1.923   7.788   6.577  0.3912  1.0025 -0.8880
  293MOL0     H39544   2.030   7.755   6.443 -0.0229 -2.7043 -1.6947
  293MOL0     H39545   1.926   7.542   6.385  0.3786  0.7878 -0.8437
  293MOL0     H39546   1.833   7.569   6.537 -1.0983  2.6849 -1.3381
  293MOL0     H39547   2.048   7.543   6.665 -1.5446  1.2842 -0.1467
  293MOL0     H39548   2.132   7.516   6.517 -0.2855 -0.8268  0.2073
  293MOL0     H39549   1.999   7.332   6.460  1.3664  2.7951 -0.6439
  293MOL0     H39550   2.090   7.310   6.621  0.5450  3.5529  3.2206
  293MOL0     H39551   1.706   7.246   6.752  0.7367 -0.0813  0.5913
  293MOL0     H39552   1.665   7.657   6.271  0.9720 -0.5430  1.2301
  293MOL0     H39553   1.486   7.525   6.258  0.1449  0.2029 -0.5056
  293MOL0     H39554   1.348   7.533   6.359  0.0904  0.2125  0.5635
  293MOL0     H39555   1.364   7.643   6.226 -0.7439 -0.3372  1.1631
  294MOL0     O39556   7.600   2.891   5.620  0.8258  0.0429  1.2380
  294MOL0     C39557   7.593   2.807   5.531 -0.1445  0.2761 -0.5426
  294MOL0     O39558   7.693   2.770   5.452  0.3471 -0.0763 -0.0062
  294MOL0     C39559   7.813   2.834   5.450  0.0344  0.4171  0.2364
  294MOL0     C39560   7.847   2.973   5.459  0.8053  0.2672  0.5118
  294MOL0     C39561   7.979   3.011   5.454 -0.3215 -0.4916 -0.3370
  294MOL0     C39562   8.087   2.918   5.433  0.2093 -0.7034 -0.1673
  294MOL0     O39563   8.226   2.953   5.430 -0.1786  0.0416 -0.2327
  294MOL0     C39564   8.274   3.084   5.445 -0.6786  0.1451 -0.2019
  294MOL0     C39565   8.428   3.064   5.425  0.6888  0.8980 -0.5945
  294MOL0     C39566   8.510   3.199   5.413  0.2854  0.3441  0.7203
  294MOL0     C39567   8.652   3.165   5.405 -0.0728 -0.3357  0.2267
  294MOL0     C39568   8.731   3.304   5.420  0.1747 -0.1325  1.2510
  294MOL0     C39569   8.879   3.275   5.439 -0.5385  0.1966 -0.6922
  294MOL0     C39570   8.955   3.408   5.434  0.4467 -0.3567  0.5744
  294MOL0     C39571   9.105   3.386   5.457  0.3756  0.4773  0.3153
  294MOL0     N39572   9.167   3.318   5.345  0.5361  0.0592  0.0567
  294MOL0     C39573   9.211   3.185   5.363 -0.5430 -0.7935 -0.6420
  294MOL0     C39574   9.328   3.177   5.296  0.4219 -0.5198  0.1301
  294MOL0     C39575   9.412   3.056   5.269 -0.5259  0.3751 -0.4492
  294MOL0     C39576   9.557   3.072   5.321  0.2994  0.0908 -0.3844
  294MOL0     C39577   9.644   2.943   5.325  1.2621  0.0828  0.1912
  294MOL0     C39578   9.786   2.995   5.369 -0.1004  0.2269 -0.9812
  294MOL0     O39579   9.873   2.897   5.314 -0.1107 -0.0966  0.4535
  294MOL0     C39580   9.939   2.809   5.389 -0.2018 -0.8071 -0.1577
  294MOL0     C39581  10.031   2.726   5.330  0.3742  0.6861  0.9795
  294MOL0     C39582  10.090   2.618   5.398  0.0662 -0.7299  0.1595
  294MOL0     C39583  10.065   2.599   5.534 -0.0463  0.0562  0.4623
  294MOL0     C39584  10.135   2.498   5.610  0.0636  0.3747  0.1661
  294MOL0     O39585  10.221   2.415   5.542 -0.1160  0.6367 -0.4824
  294MOL0     C39586  10.309   2.336   5.610  0.3489  0.2525  0.5502
  294MOL0     C39587  10.261   2.215   5.659 -0.0571  0.0482 -0.4645
  294MOL0     C39588  10.338   2.140   5.743  0.1211  0.3584 -0.1035
  294MOL0     C39589  10.467   2.182   5.781 -0.5504  0.0305 -0.3668
  294MOL0     O39590  10.549   2.106   5.864 -0.4204  0.2836  0.1438
  294MOL0     C39591  10.543   1.959   5.886  0.8460 -0.0503  0.1979
  294MOL0     C39592  10.581   1.877   5.754 -0.6159 -0.0596 -1.5746
  294MOL0     C39593  10.725   1.909   5.714  0.0919 -0.2823  0.4788
  294MOL0     C39594  10.833   1.879   5.812 -0.7450 -0.4923  0.1105
  294MOL0     C39595  10.891   2.011   5.888 -0.6534 -0.0838 -0.0630
  294MOL0     C39596  10.970   2.111   5.803  0.2257  0.4489 -0.8265
  294MOL0     C39597  11.070   2.050   5.699 -0.3852  0.3573  0.1808
  294MOL0     C39598  11.163   2.160   5.661 -0.7785 -0.2882 -0.2061
  294MOL0    Cl39599  11.271   2.117   5.523 -0.3039  0.4738  0.1748
  294MOL0     C39600  10.511   2.313   5.740 -0.5640  0.7197  0.1629
  294MOL0     C39601  10.436   2.381   5.644 -0.8275  0.3325  0.3558
  294MOL0     O39602  10.099   2.478   5.727  0.1469  0.0395 -0.5202
  294MOL0     C39603   9.969   2.691   5.591 -0.5093 -0.5463  0.1986
  294MOL0     C39604   9.911   2.795   5.529  0.1083  0.7400 -0.2823
  294MOL0     N39605   9.356   3.298   5.236 -0.0788  0.5695 -0.5566
  294MOL0     N39606   9.252   3.376   5.261 -0.5267 -0.5985  0.1134
  294MOL0     C39607   8.048   2.784   5.414 -0.4004 -0.0859 -1.1726
  294MOL0     C39608   7.914   2.744   5.416  1.1574  0.1807 -0.0105
  294MOL0     C39609   7.460   2.737   5.508  0.3029 -1.3192  0.4310
  294MOL0     C39610   7.370   2.730   5.620  1.2289 -0.3709 -0.1294
  294MOL0     C39611   7.242   2.678   5.604  0.2364 -1.0991 -0.4446
  294MOL0     C39612   7.196   2.625   5.480 -0.7682 -0.4194 -1.0950
  294MOL0     O39613   7.068   2.575   5.455  0.3622 -0.4394 -0.4284
  294MOL0     C39614   6.968   2.586   5.558 -0.9216  0.4283  0.7109
  294MOL0     C39615   6.844   2.519   5.509 -0.6795 -0.0423  0.4645
  294MOL0     C39616   6.846   2.372   5.501 -0.4247  0.2927  0.6355
  294MOL0     C39617   6.724   2.306   5.426 -0.5350  0.3388 -0.2155
  294MOL0     C39618   6.593   2.352   5.467 -0.6535  0.0439  0.2877
  294MOL0     C39619   6.496   2.376   5.532 -0.5603 -0.4704  0.3616
  294MOL0     C39620   7.297   2.613   5.383  0.1924  0.1018  0.7927
  294MOL0     C39621   7.421   2.677   5.391  0.4342  0.6139 -1.1953
  294MOL0     C39622   7.513   2.665   5.271 -0.5242 -0.2713  0.5402
  294MOL0     H39623   7.770   3.048   5.477 -1.5810 -1.4403 -1.8521
  294MOL0     H39624   8.007   3.116   5.451  2.3290 -1.0327  1.3064
  294MOL0     H39625   8.231   3.153   5.371  0.1811  2.0704  1.0147
  294MOL0     H39626   8.248   3.127   5.542  0.7751 -0.4800  0.4991
  294MOL0     H39627   8.448   3.017   5.329  0.5855  1.6291 -0.9844
  294MOL0     H39628   8.461   3.001   5.508 -0.2825  0.6262 -0.3967
  294MOL0     H39629   8.497   3.256   5.506 -0.4944  1.3830 -0.0051
  294MOL0     H39630   8.476   3.259   5.328  1.5429  1.2592  0.8321
  294MOL0     H39631   8.686   3.090   5.477  2.6023 -1.8915 -2.4575
  294MOL0     H39632   8.675   3.125   5.306  1.1104  1.2982 -0.1950
  294MOL0     H39633   8.705   3.364   5.332 -0.3659  5.6878  4.8503
  294MOL0     H39634   8.689   3.351   5.510 -0.7874 -0.8884  1.2122
  294MOL0     H39635   8.899   3.232   5.537  2.4052  1.1729 -0.7526
  294MOL0     H39636   8.901   3.207   5.356 -1.5370 -1.2506  0.1892
  294MOL0     H39637   8.922   3.471   5.517 -0.4977 -2.3441  1.8145
  294MOL0     H39638   8.932   3.456   5.339 -1.2646  0.1094  1.1871
  294MOL0     H39639   9.146   3.487   5.458  2.0798 -0.1917  1.3934
  294MOL0     H39640   9.107   3.322   5.546 -0.9602 -1.8263 -1.2057
  294MOL0     H39641   9.173   3.109   5.430 -0.7543 -0.8785 -0.8580
  294MOL0     H39642   9.359   2.979   5.326 -1.2087 -0.0114 -1.5816
  294MOL0     H39643   9.420   3.041   5.161  0.5534 -0.5070 -0.2597
  294MOL0     H39644   9.612   3.158   5.279 -2.4089  3.4515  2.3446
  294MOL0     H39645   9.549   3.104   5.425 -1.8036 -1.4980 -0.0159
  294MOL0     H39646   9.633   2.900   5.225 -4.4415  2.4614 -0.6109
  294MOL0     H39647   9.601   2.868   5.393 -1.4381 -0.1049 -1.5746
  294MOL0     H39648   9.786   2.995   5.478  0.0301 -2.3475 -0.9346
  294MOL0     H39649   9.804   3.094   5.324 -1.0781 -0.2999 -2.6411
  294MOL0     H39650  10.058   2.740   5.226 -0.4117 -1.5278  0.4193
  294MOL0     H39651  10.149   2.543   5.345 -0.0199 -0.7553  0.0998
  294MOL0     H39652  10.160   2.184   5.635 -0.1851  1.2506 -1.5254
  294MOL0     H39653  10.307   2.040   5.773  4.6932 -1.2764 -0.0075
  294MOL0     H39654  10.621   1.935   5.959 -0.9794 -3.0071  1.3787
  294MOL0     H39655  10.443   1.940   5.925 -0.6544 -1.6056 -3.8932
  294MOL0     H39656  10.581   1.769   5.773  0.2070  0.2539  0.4577
  294MOL0     H39657  10.507   1.888   5.675  0.5269 -3.2710 -3.2865
  294MOL0     H39658  10.750   1.853   5.624  2.2985 -1.2331  1.5932
  294MOL0     H39659  10.739   2.017   5.702 -0.9472 -0.1673  0.2165
  294MOL0     H39660  10.915   1.825   5.763  1.8252  0.9570  2.5232
  294MOL0     H39661  10.794   1.810   5.887  1.4154 -0.7303  1.0721
  294MOL0     H39662  10.949   1.999   5.980 -1.8522 -0.7835  0.6370
  294MOL0     H39663  10.809   2.069   5.930 -0.4446  0.7534 -0.7842
  294MOL0     H39664  10.894   2.171   5.752 -0.9476 -1.1748 -1.0772
  294MOL0     H39665  11.023   2.174   5.875  0.0846 -0.6694  0.2922
  294MOL0     H39666  11.008   2.023   5.613  2.6333 -3.5455 -1.0983
  294MOL0     H39667  11.129   1.964   5.732 -0.1853 -0.3679 -1.8883
  294MOL0     H39668  11.110   2.248   5.624 -1.2453 -0.1500  0.7433
  294MOL0     H39669  11.232   2.195   5.738  1.2679  1.3998 -2.6727
  294MOL0     H39670  10.611   2.350   5.763 -0.9863  2.4212 -0.5658
  294MOL0     H39671  10.467   2.474   5.598 -1.7379  1.2919  1.5864
  294MOL0     H39672   9.953   2.673   5.697 -0.5255 -1.3890  0.0627
  294MOL0     H39673   9.846   2.855   5.591 -0.9323  0.1253 -0.7457
  294MOL0     H39674   8.122   2.710   5.385  2.8360  0.2406  4.6775
  294MOL0     H39675   7.881   2.647   5.380  1.0063 -0.5316  1.9592
  294MOL0     H39676   7.400   2.759   5.720 -1.0316 -2.6309  1.3406
  294MOL0     H39677   7.185   2.662   5.695  0.8399 -1.2228 -0.0854
  294MOL0     H39678   6.952   2.691   5.586  1.3796  1.2651 -0.7865
  294MOL0     H39679   7.010   2.530   5.641  0.7438 -0.9844 -0.9997
  294MOL0     H39680   6.829   2.566   5.411 -0.8043 -0.8552  0.0842
  294MOL0     H39681   6.774   2.557   5.583 -2.7712 -2.3505 -0.1900
  294MOL0     H39682   6.849   2.314   5.594 -0.5634 -2.0384 -0.7186
  294MOL0     H39683   6.939   2.349   5.449 -0.9822 -0.8026  0.0698
  294MOL0     H39684   6.725   2.324   5.318 -2.2701  2.6648  0.0982
  294MOL0     H39685   6.731   2.198   5.445  0.1693  0.6224  1.2592
  294MOL0     H39686   6.397   2.394   5.570 -0.1430 -0.5412  1.5068
  294MOL0     H39687   7.273   2.553   5.296  1.2441  0.3109  0.3508
  294MOL0     H39688   7.573   2.756   5.265 -2.1353  0.7182 -1.6657
  294MOL0     H39689   7.579   2.579   5.283  1.1591  0.7958 -0.7546
  294MOL0     H39690   7.462   2.659   5.174 -1.5152 -1.0415  1.0764
  295MOL0     O39691   7.455   1.115   8.996 -0.3801 -1.0954  0.4472
  295MOL0     C39692   7.458   1.122   9.114  0.0410  0.6486 -0.8957
  295MOL0     O39693   7.571   1.126   9.198 -0.3045 -1.2575 -0.3665
  295MOL0     C39694   7.699   1.097   9.154  0.2919 -0.2488  0.0950
  295MOL0     C39695   7.731   1.030   9.030  0.3637 -0.5791 -0.8241
  295MOL0     C39696   7.872   1.010   8.998  0.5473 -0.6134  0.0630
  295MOL0     C39697   7.971   1.062   9.088  0.9833  0.0087 -0.0915
  295MOL0     O39698   8.107   1.045   9.048 -0.1852 -0.9037  0.2570
  295MOL0     C39699   8.190   1.155   9.090  0.7959  0.4300  0.7153
  295MOL0     C39700   8.299   1.174   8.987  0.1411  0.0332  0.5137
  295MOL0     C39701   8.375   1.298   9.023 -0.2191 -0.5920  0.3491
  295MOL0     C39702   8.491   1.316   8.925 -0.0522 -0.2864 -0.4047
  295MOL0     C39703   8.572   1.450   8.948  0.3471  0.1154 -0.4815
  295MOL0     C39704   8.687   1.434   8.845 -0.1552 -0.0781  0.9023
  295MOL0     C39705   8.798   1.537   8.863  0.6732  0.2277 -0.9509
  295MOL0     C39706   8.901   1.529   8.752 -0.3566 -0.4381 -0.5310
  295MOL0     N39707   9.004   1.639   8.757 -0.2044 -0.3026  0.0147
  295MOL0     C39708   9.059   1.712   8.654  1.3773  0.7256  0.6870
  295MOL0     C39709   9.150   1.795   8.714  0.0547  0.5451  0.5146
  295MOL0     C39710   9.225   1.900   8.637  0.2081 -0.9472  0.1509
  295MOL0     C39711   9.369   1.895   8.671  0.1131  0.0095  0.6039
  295MOL0     C39712   9.445   2.001   8.590 -0.1767 -0.8340 -0.0325
  295MOL0     C39713   9.586   2.022   8.648  0.0493 -0.5116  0.2324
  295MOL0     O39714   9.681   1.921   8.609  0.2682 -0.2889 -0.7596
  295MOL0     C39715   9.815   1.936   8.604  0.4110 -0.1557 -0.8262
  295MOL0     C39716   9.895   1.870   8.697 -0.0907 -0.2183  0.0312
  295MOL0     C39717  10.030   1.907   8.711 -0.1345 -0.8774 -0.1053
  295MOL0     C39718  10.088   1.998   8.626 -0.3563 -0.6992  0.0235
  295MOL0     C39719  10.232   2.029   8.637  0.4574  0.0688 -1.2102
  295MOL0     O39720  10.283   2.108   8.535  0.1128  0.6881 -0.0497
  295MOL0     C39721  10.413   2.116   8.527 -0.0137 -0.8256  0.5094
  295MOL0     C39722  10.501   2.007   8.554 -0.2249  0.9755 -0.9825
  295MOL0     C39723  10.642   2.033   8.560  0.8258  0.3848  0.3532
  295MOL0     C39724  10.698   2.151   8.514  0.1614 -0.0916 -0.4375
  295MOL0     O39725  10.833   2.171   8.496  0.3045 -0.3562  0.2676
  295MOL0     C39726  10.895   2.063   8.418 -0.6671  0.5729  0.4820
  295MOL0     C39727  11.044   2.089   8.403 -0.2697  0.0222  0.7135
  295MOL0     C39728  11.096   2.189   8.510  0.1170 -0.0693  0.0548
  295MOL0     C39729  11.246   2.178   8.530 -0.7244  0.8736  0.0870
  295MOL0     C39730  11.289   2.285   8.626  0.2078  0.4823  1.0426
  295MOL0     C39731  11.425   2.239   8.680  0.1724 -0.8168  0.8927
  295MOL0     C39732  11.414   2.163   8.811 -0.3037  0.7249  0.6153
  295MOL0     C39733  11.459   2.251   8.921  0.2353 -0.1962  0.2760
  295MOL0    Cl39734  11.632   2.296   8.896  0.3576  0.4232 -0.1176
  295MOL0     C39735  10.609   2.254   8.481 -0.2108  0.3583  0.6837
  295MOL0     C39736  10.464   2.240   8.481 -0.5469  0.0271 -0.1839
  295MOL0     O39737  10.294   2.005   8.738  0.0117  0.5893  0.1495
  295MOL0     C39738  10.003   2.058   8.533 -0.1660 -0.4895  0.4161
  295MOL0     C39739   9.864   2.033   8.521 -0.3108  0.6500 -0.7619
  295MOL0     N39740   9.162   1.770   8.845  0.3236  0.1252 -0.6220
  295MOL0     N39741   9.077   1.669   8.869 -0.1376  0.2302  0.1729
  295MOL0     C39742   7.938   1.113   9.220 -0.4683 -0.1634  0.3938
  295MOL0     C39743   7.803   1.131   9.244 -0.7275  0.0098 -0.9605
  295MOL0     C39744   7.340   1.138   9.204  0.8384 -0.7307  0.3568
  295MOL0     C39745   7.355   1.140   9.348  0.1597 -0.4858 -0.3167
  295MOL0     C39746   7.260   1.164   9.438  0.4405  0.3489 -0.8818
  295MOL0     C39747   7.125   1.175   9.393  0.7286  1.2070  1.0479
  295MOL0     O39748   7.018   1.210   9.480 -0.1630  0.0588 -0.2145
  295MOL0     C39749   7.037   1.280   9.600  0.5236 -0.0284 -0.7458
  295MOL0     C39750   7.058   1.199   9.727 -0.0871  0.4063 -0.6517
  295MOL0     C39751   7.105   1.299   9.843  0.7167 -1.0082 -0.0128
  295MOL0     C39752   7.197   1.242   9.950  0.2508 -0.0809 -0.4043
  295MOL0     C39753   7.138   1.122  10.005  0.1026 -0.3269 -0.0395
  295MOL0     C39754   7.087   1.015  10.030  0.8028  0.2869 -0.2939
  295MOL0     C39755   7.100   1.162   9.257  1.1871 -0.1240  0.5052
  295MOL0     C39756   7.201   1.143   9.159 -0.8648  0.9574  0.2496
  295MOL0     C39757   7.158   1.117   9.017 -0.7634 -0.3309  0.3493
  295MOL0     H39758   7.649   0.995   8.968  1.9434 -1.3737 -2.5885
  295MOL0     H39759   7.908   0.983   8.900  3.1799 -0.1856  0.8214
  295MOL0     H39760   8.132   1.246   9.107  0.8126  0.3346  1.2933
  295MOL0     H39761   8.232   1.139   9.190  3.6127  2.8990  0.0823
  295MOL0     H39762   8.254   1.178   8.887 -2.0935 -1.6528  1.3640
  295MOL0     H39763   8.362   1.085   8.989 -3.7306 -2.9574  1.3806
  295MOL0     H39764   8.397   1.300   9.130 -1.7069  3.8442  0.8014
  295MOL0     H39765   8.310   1.385   9.006 -0.2682 -0.7193 -0.1377
  295MOL0     H39766   8.565   1.236   8.935 -0.8782 -1.1126 -0.7766
  295MOL0     H39767   8.443   1.310   8.827  0.1902  0.7946 -0.6003
  295MOL0     H39768   8.518   1.545   8.952  2.6701  1.5441 -1.0803
  295MOL0     H39769   8.628   1.445   9.042  0.1891  5.4566  0.1877
  295MOL0     H39770   8.736   1.336   8.848  1.7978  0.8573  2.7050
  295MOL0     H39771   8.650   1.453   8.744  0.1585  0.2913  0.8567
  295MOL0     H39772   8.841   1.512   8.960 -0.2243  1.1237 -0.3044
  295MOL0     H39773   8.754   1.637   8.869  0.9937  0.2714  2.3566
  295MOL0     H39774   8.951   1.432   8.750 -0.4427 -0.6014  2.3190
  295MOL0     H39775   8.833   1.544   8.667  0.1845  0.7727 -0.7772
  295MOL0     H39776   9.041   1.699   8.547  3.2284 -1.0655  0.5450
  295MOL0     H39777   9.216   1.897   8.528 -1.7263 -2.1327  0.2912
  295MOL0     H39778   9.188   1.998   8.671  1.1929 -1.3594  2.6657
  295MOL0     H39779   9.370   1.921   8.777 -2.5559 -5.8008  2.5107
  295MOL0     H39780   9.414   1.796   8.656  0.4339  0.0485  1.2891
  295MOL0     H39781   9.400   2.100   8.602  2.3113  0.6428 -1.9082
  295MOL0     H39782   9.438   1.993   8.481  0.2308  0.2561 -0.1547
  295MOL0     H39783   9.592   2.004   8.756 -1.4169 -1.6221  0.1682
  295MOL0     H39784   9.620   2.122   8.621  2.1302 -0.6767  1.9322
  295MOL0     H39785   9.850   1.791   8.756 -1.4694  0.3884 -0.1542
  295MOL0     H39786  10.081   1.862   8.796 -1.4859 -1.1972  0.5662
  295MOL0     H39787  10.462   1.910   8.585  0.5664  1.3168  1.2959
  295MOL0     H39788  10.709   1.949   8.570  0.7650  0.4553  1.5987
  295MOL0     H39789  10.892   1.967   8.470 -1.1432 -0.8142 -1.9665
  295MOL0     H39790  10.840   2.051   8.324  1.0387 -3.6177 -0.1920
  295MOL0     H39791  11.110   2.003   8.393 -1.3951 -1.5626  4.7771
  295MOL0     H39792  11.067   2.139   8.308 -1.0336  0.3818  0.7096
  295MOL0     H39793  11.068   2.288   8.474  0.8141  0.4758  0.9635
  295MOL0     H39794  11.046   2.180   8.607 -1.7243  0.8569 -0.7677
  295MOL0     H39795  11.296   2.182   8.433 -2.3243 -1.8258 -0.9650
  295MOL0     H39796  11.265   2.078   8.571  0.1326  0.4810 -1.2072
  295MOL0     H39797  11.216   2.288   8.708 -0.1812  0.3225  0.7056
  295MOL0     H39798  11.280   2.380   8.573  0.0702 -0.5057 -0.7889
  295MOL0     H39799  11.490   2.197   8.603 -1.0869 -0.3916 -0.4444
  295MOL0     H39800  11.489   2.327   8.690  0.3018 -0.9651  1.4111
  295MOL0     H39801  11.487   2.082   8.799  0.4781  1.6395 -1.2359
  295MOL0     H39802  11.316   2.118   8.830  0.9234 -3.1221 -1.1750
  295MOL0     H39803  11.396   2.341   8.924 -1.7964 -1.5607  1.9496
  295MOL0     H39804  11.461   2.203   9.019  0.2245 -2.3415 -0.7188
  295MOL0     H39805  10.655   2.342   8.438  2.0768 -1.8472 -1.6735
  295MOL0     H39806  10.399   2.320   8.448  0.4773  1.3785  0.9069
  295MOL0     H39807  10.045   2.128   8.461 -1.8175  3.1169  2.6761
  295MOL0     H39808   9.795   2.071   8.447 -0.9465 -2.4784 -1.9069
  295MOL0     H39809   8.012   1.138   9.295  2.1618 -2.9225 -1.0747
  295MOL0     H39810   7.776   1.176   9.339  0.8537  1.2720 -1.0737
  295MOL0     H39811   7.453   1.125   9.391  0.3282  2.4117  0.4759
  295MOL0     H39812   7.277   1.170   9.545  1.0139 -1.0240 -0.8771
  295MOL0     H39813   6.946   1.338   9.618  0.4288 -0.5087  0.4303
  295MOL0     H39814   7.118   1.354   9.595  0.5157  0.1786  1.3177
  295MOL0     H39815   7.132   1.124   9.696 -0.9006  0.3288 -2.5232
  295MOL0     H39816   6.964   1.146   9.746 -0.2951 -0.2375 -3.1789
  295MOL0     H39817   7.012   1.344   9.880  1.0831  1.3966 -1.7961
  295MOL0     H39818   7.155   1.386   9.799  1.9316 -1.3107  0.7234
  295MOL0     H39819   7.297   1.224   9.908 -0.3268  1.3383 -2.4916
  295MOL0     H39820   7.218   1.318  10.026  0.4124  2.3986 -2.8010
  295MOL0     H39821   7.068   0.913  10.056 -1.8797  0.7571 -0.1003
  295MOL0     H39822   6.994   1.165   9.233  1.0601  0.7557  1.1442
  295MOL0     H39823   7.212   1.033   8.973 -1.3891  0.1553 -1.4758
  295MOL0     H39824   7.050   1.096   9.021 -0.6099 -0.9243  2.4627
  295MOL0     H39825   7.188   1.200   8.952  2.1222 -1.9124 -0.4909
  296MOL0     O39826   4.581   9.130  10.987 -1.1053  0.3602 -0.2253
  296MOL0     C39827   4.612   9.017  10.943  0.2433 -0.8638  0.4853
  296MOL0     O39828   4.631   8.906  11.021  0.6375  0.0168  0.2989
  296MOL0     C39829   4.690   8.921  11.146 -0.0238 -0.9525 -0.0607
  296MOL0     C39830   4.682   8.810  11.230  0.6579 -0.4700 -0.5353
  296MOL0     C39831   4.723   8.806  11.361 -1.0742  0.5118  0.2905
  296MOL0     C39832   4.794   8.919  11.408  1.0258  0.2788  0.0793
  296MOL0     O39833   4.839   8.944  11.535 -0.5267  0.2499 -0.6701
  296MOL0     C39834   4.778   8.871  11.642 -0.6197 -0.1491 -0.2784
  296MOL0     C39835   4.836   8.923  11.772 -0.6594  0.5368 -0.2921
  296MOL0     C39836   4.986   8.886  11.778 -0.3271  0.0560 -0.1088
  296MOL0     C39837   5.037   8.948  11.910  1.5099  0.6772 -0.1665
  296MOL0     C39838   5.182   8.910  11.944  0.0067 -0.2633 -0.0970
  296MOL0     C39839   5.274   8.901  11.810  0.0203 -0.3135  0.0068
  296MOL0     C39840   5.421   8.884  11.849 -0.1267 -0.1374 -0.2576
  296MOL0     C39841   5.484   9.000  11.936 -0.3598  0.2552 -0.3246
  296MOL0     N39842   5.634   8.975  11.933  0.1656  0.6721  0.0726
  296MOL0     C39843   5.722   9.047  11.850  0.2177  0.0017 -0.3248
  296MOL0     C39844   5.844   8.983  11.878 -0.3316  1.3318 -0.4864
  296MOL0     C39845   5.975   9.017  11.824 -0.1150 -0.3639  0.2961
  296MOL0     C39846   6.018   8.940  11.695  0.1026 -0.5994 -0.1513
  296MOL0     C39847   6.136   9.007  11.619 -0.3313 -0.2074 -0.0476
  296MOL0     C39848   6.277   8.963  11.660  0.5815  0.3838  0.2305
  296MOL0     O39849   6.364   8.993  11.554 -0.2106  0.1625  1.3148
  296MOL0     C39850   6.507   8.994  11.575  0.1461 -0.2251 -0.2366
  296MOL0     C39851   6.565   8.986  11.702  0.2589 -0.7632  0.4660
  296MOL0     C39852   6.703   9.008  11.717  0.4083 -0.1352 -0.1039
  296MOL0     C39853   6.782   9.023  11.604  0.6505  0.5555 -0.1742
  296MOL0     C39854   6.930   9.048  11.632  0.1387 -0.3954  0.5804
  296MOL0     O39855   7.010   9.036  11.517  0.3243 -0.0783  0.1410
  296MOL0     C39856   7.148   9.067  11.527 -0.4289 -0.2130  0.7943
  296MOL0     C39857   7.210   9.143  11.422  0.0727  0.3916 -0.5724
  296MOL0     C39858   7.350   9.163  11.412  0.1914  0.0686  0.1899
  296MOL0     C39859   7.435   9.111  11.518  0.4719  0.5565  0.2049
  296MOL0     O39860   7.566   9.130  11.519 -0.0552  0.7109  0.8514
  296MOL0     C39861   7.629   9.219  11.610 -0.0006  0.0926 -0.8541
  296MOL0     C39862   7.784   9.214  11.597 -0.6281  0.3187 -0.1548
  296MOL0     C39863   7.846   9.078  11.656  0.3086 -0.1633  0.2059
  296MOL0     C39864   7.987   9.060  11.622 -0.6134 -0.1682  0.8270
  296MOL0     C39865   8.039   8.932  11.688  0.8155 -1.1358  0.7607
  296MOL0     C39866   8.072   8.945  11.837 -0.4748 -0.2406  0.6194
  296MOL0     C39867   8.214   9.012  11.854 -0.9976  0.5713  0.5727
  296MOL0     C39868   8.247   9.025  12.002 -0.3251 -0.0476 -0.3579
  296MOL0    Cl39869   8.301   8.861  12.074 -0.1826  0.3718 -0.5440
  296MOL0     C39870   7.371   9.036  11.620 -0.4753  0.5367 -1.3268
  296MOL0     C39871   7.238   9.015  11.628  0.5316 -1.1853 -0.0891
  296MOL0     O39872   6.975   9.089  11.742  0.1180  0.6180  0.5719
  296MOL0     C39873   6.727   9.018  11.478  0.2378  0.1027  0.4923
  296MOL0     C39874   6.589   9.005  11.462  0.2431  1.7123  0.2113
  296MOL0     N39875   5.824   8.883  11.967 -0.8661  0.4026 -0.0371
  296MOL0     N39876   5.704   8.875  11.996  0.2953  0.8218 -0.0753
  296MOL0     C39877   4.815   9.023  11.319 -0.1990 -0.8655  0.1267
  296MOL0     C39878   4.758   9.037  11.195  0.4747  0.5612 -0.4339
  296MOL0     C39879   4.622   8.995  10.796  0.4572 -0.2402 -0.4747
  296MOL0     C39880   4.508   8.978  10.722 -0.4718 -0.4773  0.2663
  296MOL0     C39881   4.519   8.941  10.590  0.1086  0.5241  0.1694
  296MOL0     C39882   4.637   8.917  10.527  0.5281 -0.6085  0.6302
  296MOL0     O39883   4.649   8.858  10.399  0.1160 -0.0222 -0.3707
  296MOL0     C39884   4.779   8.830  10.342 -0.2378 -0.1682  0.4235
  296MOL0     C39885   4.755   8.727  10.227  0.4042  1.0757  0.1195
  296MOL0     C39886   4.670   8.611  10.271  0.1483  0.2532 -0.3965
  296MOL0     C39887   4.629   8.522  10.158  0.8394 -0.1576  0.6071
  296MOL0     C39888   4.555   8.410  10.215 -0.1764  0.0156 -0.8006
  296MOL0     C39889   4.493   8.323  10.270  0.2397  0.2152 -0.0820
  296MOL0     C39890   4.760   8.950  10.600  0.2085  0.8378  0.2179
  296MOL0     C39891   4.750   8.998  10.730  0.4870  0.0589  0.3334
  296MOL0     C39892   4.877   9.023  10.804  0.4342 -0.0258 -0.6144
  296MOL0     H39893   4.621   8.729  11.192 -0.0739  0.0646 -0.5226
  296MOL0     H39894   4.713   8.718  11.425  3.6789  1.1075  2.3120
  296MOL0     H39895   4.672   8.894  11.654 -0.0929  1.0370  3.7690
  296MOL0     H39896   4.796   8.763  11.644 -2.8540 -0.5846  1.8893
  296MOL0     H39897   4.778   8.893  11.860 -1.2460  1.2103 -0.4327
  296MOL0     H39898   4.836   9.032  11.775  0.0661  0.5485 -0.4828
  296MOL0     H39899   5.046   8.930  11.698  1.4115 -1.7731  0.1089
  296MOL0     H39900   4.995   8.777  11.786 -0.7185 -0.2626 -3.0960
  296MOL0     H39901   5.031   9.057  11.910 -1.9469  0.6180  1.3973
  296MOL0     H39902   4.967   8.929  11.992  1.7956 -0.1301 -0.1003
  296MOL0     H39903   5.221   8.971  12.026  1.9045 -2.0270  0.4079
  296MOL0     H39904   5.186   8.809  11.987 -0.9866  0.5030  1.9546
  296MOL0     H39905   5.248   8.824  11.736  3.1565  0.6820 -2.3385
  296MOL0     H39906   5.265   9.001  11.767 -0.5138 -1.1287 -1.8395
  296MOL0     H39907   5.473   8.879  11.752 -1.9891  0.1528 -1.3220
  296MOL0     H39908   5.436   8.788  11.898  2.8155  0.3414 -0.0587
  296MOL0     H39909   5.458   9.098  11.894 -0.2225  0.0838 -0.8123
  296MOL0     H39910   5.459   8.986  12.041  2.2044 -2.6302  0.0483
  296MOL0     H39911   5.698   9.130  11.784 -0.6510  1.5957  1.8739
  296MOL0     H39912   5.973   9.124  11.800  0.7147 -0.5027 -0.4296
  296MOL0     H39913   6.046   9.010  11.907 -1.3441 -3.1369  1.2162
  296MOL0     H39914   6.055   8.841  11.723  0.4978 -0.5591 -0.5279
  296MOL0     H39915   5.938   8.918  11.623  3.0023 -2.2528 -3.1291
  296MOL0     H39916   6.134   9.115  11.639  1.8496 -0.1586  0.0516
  296MOL0     H39917   6.122   8.988  11.512 -0.2990  1.0391 -0.2910
  296MOL0     H39918   6.282   8.856  11.681  1.5877  0.2119 -0.7712
  296MOL0     H39919   6.298   9.027  11.745  0.2957  1.8300 -0.7485
  296MOL0     H39920   6.504   8.968  11.790 -1.2302  1.4037 -0.0281
  296MOL0     H39921   6.751   9.017  11.814 -0.8539  2.8728  0.3517
  296MOL0     H39922   7.144   9.197  11.355 -1.3659 -1.4321 -0.7102
  296MOL0     H39923   7.386   9.224  11.330  0.9904 -0.7429 -0.0810
  296MOL0     H39924   7.594   9.321  11.592  0.3180 -0.0148 -2.1401
  296MOL0     H39925   7.598   9.191  11.712 -4.5575 -1.4262 -2.4105
  296MOL0     H39926   7.819   9.224  11.493 -1.6830 -1.8055 -0.7803
  296MOL0     H39927   7.824   9.296  11.657  2.7470 -0.5166 -1.0377
  296MOL0     H39928   7.828   9.080  11.764 -2.7665  0.3616 -0.2269
  296MOL0     H39929   7.790   8.999  11.604 -0.0616  0.0803  0.2333
  296MOL0     H39930   8.042   9.150  11.650 -2.2212  1.6188 -1.3903
  296MOL0     H39931   8.001   9.052  11.514 -2.1686 -0.6666  0.6370
  296MOL0     H39932   8.123   8.885  11.637  1.7281  1.2145 -0.0329
  296MOL0     H39933   7.954   8.863  11.685  0.1163 -0.3516  1.7792
  296MOL0     H39934   7.990   8.992  11.893 -1.5315 -1.6883  0.3602
  296MOL0     H39935   8.081   8.845  11.881 -1.1671  0.0214  1.3826
  296MOL0     H39936   8.222   9.110  11.806  4.3316  0.7156  1.1963
  296MOL0     H39937   8.294   8.956  11.806 -1.1470 -0.2674  1.2769
  296MOL0     H39938   8.339   9.084  12.013 -0.3699  0.0658 -0.5842
  296MOL0     H39939   8.155   9.049  12.056 -0.6987 -2.0318 -0.0186
  296MOL0     H39940   7.439   9.006  11.700  1.3810  1.8910 -2.3143
  296MOL0     H39941   7.196   8.954  11.708 -0.5579  0.2737  0.5018
  296MOL0     H39942   6.774   9.026  11.381 -2.3246  0.6995 -0.7905
  296MOL0     H39943   6.534   9.017  11.369 -0.4978 -0.5669  0.3041
  296MOL0     H39944   4.865   9.115  11.345 -1.6374 -0.8039  3.0034
  296MOL0     H39945   4.775   9.128  11.139  0.3096  0.8178 -0.0733
  296MOL0     H39946   4.412   8.977  10.773 -0.4814 -1.2071  0.2467
  296MOL0     H39947   4.433   8.925  10.525 -0.4751  1.8050  0.5741
  296MOL0     H39948   4.839   8.784  10.421  0.4839  1.1528  0.6813
  296MOL0     H39949   4.822   8.920  10.298  0.5577  0.2493  1.9648
  296MOL0     H39950   4.849   8.695  10.180  1.6860  2.2035  1.7716
  296MOL0     H39951   4.700   8.774  10.145  0.9288  0.2864 -0.7018
  296MOL0     H39952   4.581   8.638  10.330  0.0024 -4.0758  1.8360
  296MOL0     H39953   4.731   8.545  10.333 -0.9907 -0.1596  0.3223
  296MOL0     H39954   4.572   8.586  10.090 -0.5369  2.1525  3.7239
  296MOL0     H39955   4.704   8.476  10.093 -0.6106 -1.1624 -0.4495
  296MOL0     H39956   4.423   8.248  10.302  0.9496 -0.1224  0.7131
  296MOL0     H39957   4.860   8.947  10.559 -0.4645  1.5424 -1.5456
  296MOL0     H39958   4.923   8.926  10.826 -0.9059 -0.3331  0.9916
  296MOL0     H39959   4.947   9.083  10.745  1.6430 -1.5238 -0.7708
  296MOL0     H39960   4.853   9.076  10.896 -0.4280 -0.7098 -0.4373
  297MOL0     O39961  10.947   5.940   9.591  0.4142  0.1719  0.0392
  297MOL0     C39962  10.912   5.846   9.524  0.5028 -0.2402  0.5687
  297MOL0     O39963  10.985   5.787   9.432 -0.5615 -0.4877  0.1855
  297MOL0     C39964  11.118   5.798   9.448  0.4959  0.4527 -0.0710
  297MOL0     C39965  11.202   5.683   9.469  1.1326 -0.2264 -0.5289
  297MOL0     C39966  11.338   5.693   9.498 -0.0814 -0.2415  0.0426
  297MOL0     C39967  11.399   5.816   9.507 -0.2781 -0.5433  0.1492
  297MOL0     O39968  11.530   5.828   9.544 -0.3939  0.2218  1.5467
  297MOL0     C39969  11.600   5.943   9.495  0.0060  0.6844 -0.0558
  297MOL0     C39970  11.753   5.899   9.476  0.1795 -0.2473 -0.7983
  297MOL0     C39971  11.824   5.899   9.621 -0.2599  0.0144  0.4922
  297MOL0     C39972  11.970   5.867   9.613 -0.4781 -0.9349 -0.7628
  297MOL0     C39973  12.012   5.725   9.608  0.4390 -0.2826 -0.0738
  297MOL0     C39974  12.166   5.702   9.612  0.3612 -0.3264 -0.3635
  297MOL0     C39975  12.244   5.764   9.725  0.7326 -0.4502  0.7915
  297MOL0     C39976  12.368   5.691   9.747 -0.5477 -0.5050 -0.0862
  297MOL0     N39977  12.450   5.755   9.848  0.0746  0.6453 -0.2174
  297MOL0     C39978  12.412   5.760   9.980 -0.6130 -0.0442  0.1341
  297MOL0     C39979  12.498   5.847  10.043  0.1201  0.5284 -0.1983
  297MOL0     C39980  12.494   5.882  10.188  0.6517 -0.4781  0.2729
  297MOL0     C39981  12.362   5.864  10.258 -0.3556 -0.5596 -1.0470
  297MOL0     C39982  12.346   5.944  10.386  0.0156 -0.6695  0.3652
  297MOL0     C39983  12.450   5.908  10.490  0.6135  0.4025  0.5051
  297MOL0     O39984  12.460   5.770  10.512  0.0975 -0.7526  0.3582
  297MOL0     C39985  12.516   5.735  10.632 -0.9441 -1.1148 -0.1943
  297MOL0     C39986  12.515   5.819  10.744  0.4655 -0.4979  1.4059
  297MOL0     C39987  12.578   5.777  10.855 -0.9131  0.1083 -0.0210
  297MOL0     C39988  12.655   5.652  10.867  0.3367  0.2154  0.2646
  297MOL0     C39989  12.731   5.625  10.985  0.1296 -0.1778  0.2670
  297MOL0     O39990  12.822   5.527  10.971  0.4423  0.9846 -0.4989
  297MOL0     C39991  12.911   5.489  11.062 -0.4306 -0.1776 -0.7603
  297MOL0     C39992  12.902   5.502  11.205  0.1325 -0.4492  0.5524
  297MOL0     C39993  13.007   5.455  11.283  0.0851  0.2078  0.1407
  297MOL0     C39994  13.121   5.400  11.218 -0.7356  0.4724 -0.0061
  297MOL0     O39995  13.216   5.332  11.287 -0.8565 -0.0995 -1.0778
  297MOL0     C39996  13.222   5.350  11.434  0.2038 -0.2428  0.6724
  297MOL0     C39997  13.304   5.235  11.491 -0.4312  0.2557 -0.5840
  297MOL0     C39998  13.460   5.259  11.508  0.6308 -0.0258 -0.0386
  297MOL0     C39999  13.531   5.119  11.544 -0.5570 -0.0756  0.0939
  297MOL0     C40000  13.558   5.046  11.410  0.1140  0.0702  0.2745
  297MOL0     C40001  13.646   4.925  11.418 -0.1619 -0.1739 -0.2543
  297MOL0     C40002  13.783   4.937  11.481 -0.6632  0.2176 -0.1922
  297MOL0     C40003  13.884   5.000  11.395 -1.4825  0.5654  0.4198
  297MOL0    Cl40004  13.898   5.174  11.457 -0.0009 -0.1499 -0.0398
  297MOL0     C40005  13.135   5.390  11.084 -0.2893  0.0344  0.4478
  297MOL0     C40006  13.034   5.447  11.007 -0.3235  0.0297  0.3110
  297MOL0     O40007  12.709   5.690  11.086  0.0039  0.2023  0.1948
  297MOL0     C40008  12.661   5.579  10.755  0.1746  0.7389  0.5127
  297MOL0     C40009  12.595   5.622  10.639  0.2225 -0.5396  0.3725
  297MOL0     N40010  12.595   5.890   9.956  0.4475  1.0050 -0.2289
  297MOL0     N40011  12.566   5.835   9.838 -0.7607  0.2919 -0.9230
  297MOL0     C40012  11.316   5.930   9.476  0.7318 -0.2142  1.1608
  297MOL0     C40013  11.177   5.919   9.433  0.2665 -0.3168  0.1127
  297MOL0     C40014  10.772   5.795   9.547  0.2781 -0.7098 -0.5043
  297MOL0     C40015  10.710   5.711   9.452  0.7040  0.6672 -0.0108
  297MOL0     C40016  10.579   5.664   9.470  0.7100 -0.2986 -0.3096
  297MOL0     C40017  10.499   5.706   9.574 -0.3936  0.4739  0.2608
  297MOL0     O40018  10.371   5.670   9.595 -0.6317  0.0853  0.3983
  297MOL0     C40019  10.296   5.565   9.526 -0.5494 -0.0227 -0.8132
  297MOL0     C40020  10.170   5.514   9.598  0.0283  0.6054  0.5401
  297MOL0     C40021  10.156   5.546   9.750  0.4630 -0.3969 -0.3548
  297MOL0     C40022  10.187   5.436   9.851 -0.2649 -0.0336 -0.1270
  297MOL0     C40023  10.330   5.410   9.867  0.9135  0.8088  0.5220
  297MOL0     C40024  10.451   5.400   9.892  0.0639 -0.8085  0.2041
  297MOL0     C40025  10.549   5.797   9.662 -0.7937 -0.3532 -0.3767
  297MOL0     C40026  10.691   5.841   9.657  0.0022 -0.0322 -0.6161
  297MOL0     C40027  10.732   5.943   9.757  0.4051  0.1248  0.2046
  297MOL0     H40028  11.148   5.588   9.469  0.5702  0.0444  1.8704
  297MOL0     H40029  11.398   5.607   9.528  2.9319  1.8405  0.4961
  297MOL0     H40030  11.572   5.982   9.397 -0.2840  0.1063 -0.2134
  297MOL0     H40031  11.591   6.017   9.575  2.9690  0.7351  0.3071
  297MOL0     H40032  11.805   5.971   9.412  0.4279  0.6441  0.3721
  297MOL0     H40033  11.758   5.800   9.428  0.2228 -1.1352  0.9594
  297MOL0     H40034  11.769   5.825   9.679  1.5768 -0.9292  1.1016
  297MOL0     H40035  11.802   5.996   9.667 -0.0731 -0.2043  1.0411
  297MOL0     H40036  12.011   5.917   9.525  0.8368  0.7940  0.7420
  297MOL0     H40037  12.019   5.920   9.695 -1.4128  2.1923 -2.0921
  297MOL0     H40038  11.958   5.681   9.693  1.6882  1.7482  1.9080
  297MOL0     H40039  11.970   5.687   9.515  1.1184 -2.5829  0.4981
  297MOL0     H40040  12.180   5.593   9.610 -2.3863 -0.8630  2.1158
  297MOL0     H40041  12.200   5.740   9.515  0.7631  0.6253  0.1379
  297MOL0     H40042  12.177   5.760   9.812 -2.0024 -2.4566 -1.2180
  297MOL0     H40043  12.266   5.866   9.693 -1.4978 -0.9473 -2.9766
  297MOL0     H40044  12.335   5.597   9.794  0.8936 -0.8701  0.2512
  297MOL0     H40045  12.429   5.675   9.658  0.6478 -1.3274  0.8502
  297MOL0     H40046  12.326   5.708  10.022 -0.4724 -0.1520  0.2863
  297MOL0     H40047  12.564   5.820  10.245  0.7904 -2.0136 -1.4888
  297MOL0     H40048  12.524   5.988  10.189 -1.2879  0.1107 -0.2083
  297MOL0     H40049  12.278   5.869  10.188 -1.3718  0.1447  0.1962
  297MOL0     H40050  12.355   5.757  10.279 -2.8403 -0.2500 -0.0146
  297MOL0     H40051  12.248   5.909  10.419 -1.9685  1.9446 -2.1461
  297MOL0     H40052  12.332   6.051  10.366 -0.7945 -0.9698 -0.7694
  297MOL0     H40053  12.405   5.963  10.573 -1.0433 -1.8657  1.2060
  297MOL0     H40054  12.547   5.952  10.462 -0.3191  2.8638  0.8429
  297MOL0     H40055  12.460   5.913  10.746  1.5645  0.1741  0.9264
  297MOL0     H40056  12.564   5.841  10.941 -3.8155  0.7047 -0.8465
  297MOL0     H40057  12.821   5.556  11.255 -0.0379  0.6241 -0.8096
  297MOL0     H40058  13.017   5.462  11.391  0.1492 -2.1571  0.3313
  297MOL0     H40059  13.272   5.443  11.464 -0.2074  1.0179 -2.2483
  297MOL0     H40060  13.120   5.334  11.473  0.9456  0.0437  2.8969
  297MOL0     H40061  13.262   5.222  11.591  1.7899  3.5968  0.9713
  297MOL0     H40062  13.288   5.152  11.422 -0.7214 -1.1503  1.1080
  297MOL0     H40063  13.504   5.290  11.413  1.3830  0.8572  0.5835
  297MOL0     H40064  13.480   5.340  11.578  0.7804 -2.0022  2.3324
  297MOL0     H40065  13.448   5.076  11.602  0.9814 -3.1038  0.2332
  297MOL0     H40066  13.621   5.126  11.605  0.1828  0.8880 -1.0656
  297MOL0     H40067  13.607   5.112  11.338  0.4811 -0.4250  0.0693
  297MOL0     H40068  13.459   5.020  11.372 -0.6000  1.6769  0.9247
  297MOL0     H40069  13.593   4.853  11.481  2.1766 -0.3141  1.7076
  297MOL0     H40070  13.647   4.887  11.315 -0.0412 -0.6492 -0.0831
  297MOL0     H40071  13.803   4.835  11.515 -0.2327  0.7467  1.2119
  297MOL0     H40072  13.782   4.998  11.571 -2.5229  0.4384 -0.3342
  297MOL0     H40073  13.984   4.959  11.410 -0.3280  3.3485  0.9099
  297MOL0     H40074  13.853   4.991  11.290 -0.3722  1.5214 -0.0064
  297MOL0     H40075  13.210   5.327  11.038 -1.3151 -1.6428  0.9829
  297MOL0     H40076  13.046   5.441  10.900 -1.5125  0.2583  0.1462
  297MOL0     H40077  12.719   5.488  10.743 -1.5180 -0.2411 -0.7870
  297MOL0     H40078  12.608   5.562  10.550 -1.7737  0.8966 -0.9696
  297MOL0     H40079  11.359   6.030   9.476  0.3270  0.0055 -1.1086
  297MOL0     H40080  11.112   6.005   9.429 -1.1592 -1.4074 -1.3815
  297MOL0     H40081  10.757   5.687   9.357  1.6410  1.3351  0.2637
  297MOL0     H40082  10.539   5.594   9.398  2.1565 -2.0888  0.5462
  297MOL0     H40083  10.360   5.477   9.512  0.7274  1.0132 -1.6756
  297MOL0     H40084  10.261   5.596   9.428 -4.1561 -1.6540 -0.2328
  297MOL0     H40085  10.168   5.406   9.579  1.0546  0.4572  1.2140
  297MOL0     H40086  10.079   5.555   9.553  1.6433  1.2243 -2.4383
  297MOL0     H40087  10.048   5.551   9.767  0.8108 -1.3310  2.7713
  297MOL0     H40088  10.197   5.643   9.776 -0.3528 -0.6372  2.0780
  297MOL0     H40089  10.135   5.462   9.944 -0.6083 -0.3514 -0.2287
  297MOL0     H40090  10.138   5.342   9.824  0.1013 -1.4863  3.6580
  297MOL0     H40091  10.555   5.391   9.916  1.1798  0.6503 -3.4268
  297MOL0     H40092  10.496   5.839   9.747  1.0885 -0.0030  0.6693
  297MOL0     H40093  10.816   5.910   9.820  1.8516  2.6075 -0.2825
  297MOL0     H40094  10.748   6.042   9.712  1.7690 -1.6392 -3.6385
  297MOL0     H40095  10.659   5.959   9.837  1.9977 -1.1936  2.0325
  298MOL0     O40096  10.166  11.241   5.887  0.6403 -0.6471 -0.0462
  298MOL0     C40097  10.176  11.136   5.947 -0.5554  0.7122 -0.4286
  298MOL0     O40098  10.289  11.086   6.017  0.1941 -0.5414  0.8110
  298MOL0     C40099  10.406  11.162   6.044  0.5128  0.2296  0.1399
  298MOL0     C40100  10.452  11.266   5.966 -0.1903  0.3754  0.5971
  298MOL0     C40101  10.574  11.332   5.991  0.5538 -0.5675  0.1122
  298MOL0     C40102  10.647  11.301   6.107  0.0187 -0.0508  0.4381
  298MOL0     O40103  10.760  11.377   6.138  0.2058  0.6109 -0.4572
  298MOL0     C40104  10.764  11.414   6.280  0.1690  0.2685 -0.5094
  298MOL0     C40105  10.855  11.540   6.285 -0.1039  0.5238  0.3605
  298MOL0     C40106  11.013  11.506   6.288 -1.0958  0.3186 -0.4190
  298MOL0     C40107  11.086  11.612   6.362 -0.2496 -0.6091 -0.5046
  298MOL0     C40108  11.232  11.616   6.333  0.3696  1.2372 -0.1280
  298MOL0     C40109  11.305  11.494   6.398  0.7229  0.2023 -0.3383
  298MOL0     C40110  11.411  11.552   6.493  0.0157 -0.1729  0.1198
  298MOL0     C40111  11.496  11.451   6.548 -0.1530 -0.5203 -0.3425
  298MOL0     N40112  11.601  11.509   6.636 -0.8802 -0.9325 -0.0813
  298MOL0     C40113  11.600  11.636   6.696  0.0161  0.3298  0.6690
  298MOL0     C40114  11.731  11.646   6.732  0.3410  1.0078  0.0296
  298MOL0     C40115  11.806  11.766   6.792  0.1547  0.3720  0.0979
  298MOL0     C40116  11.728  11.888   6.772  0.5788 -0.1151 -0.0737
  298MOL0     C40117  11.772  11.997   6.866 -0.2694  0.4051 -0.1566
  298MOL0     C40118  11.901  12.060   6.807  0.0598  0.2046 -0.2541
  298MOL0     O40119  11.962  12.150   6.899  0.4839 -0.2287 -0.3597
  298MOL0     C40120  12.096  12.167   6.889  0.5125  0.9953  0.6057
  298MOL0     C40121  12.178  12.060   6.935  0.0720 -0.3420 -0.4901
  298MOL0     C40122  12.314  12.074   6.946 -0.2944  0.4424 -0.0400
  298MOL0     C40123  12.383  12.176   6.880  0.2198  0.1063 -0.5639
  298MOL0     C40124  12.528  12.179   6.877  0.6586 -0.6820 -0.2832
  298MOL0     O40125  12.578  12.282   6.810  0.5407 -0.2753 -0.6896
  298MOL0     C40126  12.713  12.292   6.829  0.0725 -0.9744 -0.1522
  298MOL0     C40127  12.764  12.385   6.916 -0.5734 -0.3787 -0.1127
  298MOL0     C40128  12.905  12.389   6.933  0.4878  1.3207 -0.0992
  298MOL0     C40129  12.995  12.317   6.844 -0.1234 -0.2158 -0.3134
  298MOL0     O40130  13.128  12.310   6.868  0.1708  0.3371  0.1767
  298MOL0     C40131  13.200  12.427   6.909 -1.1439  0.5853 -0.2048
  298MOL0     C40132  13.234  12.402   7.056  0.2735 -0.1745 -0.7020
  298MOL0     C40133  13.235  12.532   7.128 -0.0427 -0.4357  0.5080
  298MOL0     C40134  13.221  12.509   7.278  0.0736 -0.6031 -0.1763
  298MOL0     C40135  13.240  12.634   7.360 -0.6809  0.6472 -0.2220
  298MOL0     C40136  13.254  12.612   7.514 -0.7220  0.6854  1.1932
  298MOL0     C40137  13.255  12.738   7.598 -0.4453  0.8936  0.7072
  298MOL0     C40138  13.280  12.706   7.743  0.5209 -0.9648  0.3107
  298MOL0    Cl40139  13.138  12.631   7.833 -0.0411 -0.0403 -0.3559
  298MOL0     C40140  12.939  12.229   6.751  0.0665  0.4598  1.1775
  298MOL0     C40141  12.802  12.213   6.755  0.9731 -0.4961 -0.2359
  298MOL0     O40142  12.594  12.089   6.936 -0.5264 -1.1060  0.5644
  298MOL0     C40143  12.302  12.274   6.822 -0.3628 -0.1260 -0.9624
  298MOL0     C40144  12.163  12.277   6.836  0.2035  0.3095  0.7325
  298MOL0     N40145  11.802  11.532   6.710 -0.1081  0.2727  0.1286
  298MOL0     N40146  11.725  11.447   6.653 -0.1550 -0.1511  0.3822
  298MOL0     C40147  10.598  11.200   6.186 -0.7358  0.0176 -0.4805
  298MOL0     C40148  10.485  11.128   6.152  0.3880 -0.4771 -0.8936
  298MOL0     C40149  10.066  11.042   5.928  0.4063 -0.2321 -0.7815
  298MOL0     C40150  10.071  10.926   6.001  0.4003 -0.3736 -0.2481
  298MOL0     C40151   9.965  10.843   6.002 -0.3409 -0.5948  1.2115
  298MOL0     C40152   9.846  10.869   5.930 -0.3313 -0.1696  0.4885
  298MOL0     O40153   9.748  10.778   5.949 -0.4971  0.6009 -0.3079
  298MOL0     C40154   9.613  10.784   5.893 -0.2700 -0.9444 -0.0047
  298MOL0     C40155   9.535  10.666   5.947 -0.9502 -0.5784  0.2925
  298MOL0     C40156   9.391  10.695   5.946  0.6324  0.0253 -0.5184
  298MOL0     C40157   9.319  10.656   6.085 -0.2090  0.3250  0.0592
  298MOL0     C40158   9.172  10.663   6.057  0.4151  0.8130 -0.2768
  298MOL0     C40159   9.049  10.648   6.043 -0.5053 -0.1860 -0.6672
  298MOL0     C40160   9.836  10.987   5.854  0.2926 -0.3394  0.0894
  298MOL0     C40161   9.949  11.071   5.843  0.4678 -0.2545 -0.0014
  298MOL0     C40162   9.916  11.204   5.785  0.6631  0.0169  1.0110
  298MOL0     H40163  10.393  11.284   5.876  1.2596 -2.5202 -1.0508
  298MOL0     H40164  10.626  11.382   5.910  0.6311 -3.1331 -1.5151
  298MOL0     H40165  10.666  11.428   6.327  0.7360  0.5863  0.6103
  298MOL0     H40166  10.815  11.339   6.341  0.2138  0.0963 -0.7596
  298MOL0     H40167  10.836  11.587   6.382  4.3331 -2.9289  3.3613
  298MOL0     H40168  10.823  11.601   6.201 -3.5049 -1.0018  0.3804
  298MOL0     H40169  11.052  11.510   6.186  1.0464 -0.0765  0.3344
  298MOL0     H40170  11.044  11.412   6.334 -1.8210 -0.0625 -0.6814
  298MOL0     H40171  11.049  11.710   6.331 -0.4720 -0.6703 -0.4338
  298MOL0     H40172  11.053  11.593   6.465 -1.8743 -1.5474 -1.1561
  298MOL0     H40173  11.255  11.628   6.227 -1.4042  0.7760 -0.6041
  298MOL0     H40174  11.263  11.704   6.390  0.3985  0.2871  1.3848
  298MOL0     H40175  11.237  11.424   6.447 -1.5934  0.9165 -2.3473
  298MOL0     H40176  11.355  11.430   6.325  1.9062 -0.0512  0.6603
  298MOL0     H40177  11.358  11.607   6.572  2.2038  3.0624 -0.4630
  298MOL0     H40178  11.467  11.627   6.438 -0.6867 -1.4280 -2.4943
  298MOL0     H40179  11.430  11.396   6.616  0.3080  0.6782  1.1316
  298MOL0     H40180  11.539  11.372   6.486 -1.2034 -2.0761  0.8245
  298MOL0     H40181  11.528  11.716   6.710  0.8319  1.4514 -1.1292
  298MOL0     H40182  11.834  11.739   6.894 -0.2379  0.5106  0.2437
  298MOL0     H40183  11.893  11.783   6.727  0.0907  0.6999  0.0973
  298MOL0     H40184  11.738  11.925   6.670  2.0257 -0.2452 -0.0109
  298MOL0     H40185  11.622  11.884   6.798  0.3107  2.4759 -0.4847
  298MOL0     H40186  11.801  11.947   6.959 -0.4819 -1.3862 -1.0070
  298MOL0     H40187  11.695  12.072   6.884 -3.0191 -2.7305  2.6128
  298MOL0     H40188  11.884  12.120   6.718  0.4050  2.5095  1.1509
  298MOL0     H40189  11.971  11.978   6.787 -1.1029 -1.2773  1.3972
  298MOL0     H40190  12.130  11.975   6.981 -1.1581 -0.2228 -1.5180
  298MOL0     H40191  12.371  12.010   7.013  2.7558 -1.0868 -3.7065
  298MOL0     H40192  12.700  12.455   6.968 -0.1673  0.9976 -1.4162
  298MOL0     H40193  12.946  12.447   7.016  0.1074 -0.2947  1.2799
  298MOL0     H40194  13.297  12.421   6.858  0.1929 -2.0893  2.3856
  298MOL0     H40195  13.143  12.515   6.876  0.1183  1.4572 -0.1369
  298MOL0     H40196  13.156  12.346   7.107  0.5488  0.6041  0.6161
  298MOL0     H40197  13.330  12.355   7.079 -0.3049 -0.4719  1.3037
  298MOL0     H40198  13.328  12.585   7.101  1.3184 -2.5399  0.8708
  298MOL0     H40199  13.140  12.574   7.095  0.3285 -0.8821 -1.2266
  298MOL0     H40200  13.289  12.431   7.312  2.2685  2.0832  2.0939
  298MOL0     H40201  13.117  12.481   7.296 -0.1641  1.3830  2.0381
  298MOL0     H40202  13.163  12.707   7.333  0.2669  1.6553 -0.2716
  298MOL0     H40203  13.334  12.682   7.331 -1.5149  1.4025 -1.8122
  298MOL0     H40204  13.167  12.552   7.543  0.6113 -1.4229  0.9924
  298MOL0     H40205  13.347  12.559   7.535 -0.4716  0.6444  0.0661
  298MOL0     H40206  13.167  12.801   7.580 -1.2947 -0.9266 -2.2214
  298MOL0     H40207  13.342  12.797   7.567 -1.3887  2.3781  0.7690
  298MOL0     H40208  13.366  12.639   7.749  1.6410  0.4868  1.1714
  298MOL0     H40209  13.321  12.797   7.787  0.1381  0.2628 -1.7409
  298MOL0     H40210  13.008  12.172   6.690  0.5000  1.0619  1.0926
  298MOL0     H40211  12.761  12.132   6.697 -0.7969 -0.1347  0.4365
  298MOL0     H40212  12.344  12.354   6.762 -1.3495  1.0533 -0.1215
  298MOL0     H40213  12.106  12.360   6.796  0.5700 -0.9510 -2.6638
  298MOL0     H40214  10.649  11.173   6.279  0.8318 -2.2848 -1.9122
  298MOL0     H40215  10.459  11.042   6.213 -0.3237  1.4387  1.6953
  298MOL0     H40216  10.160  10.900   6.058  2.2111  0.9014 -2.3228
  298MOL0     H40217   9.970  10.750   6.058 -0.8923 -0.5342  1.3611
  298MOL0     H40218   9.615  10.779   5.784  1.6880 -0.1079 -0.0508
  298MOL0     H40219   9.568  10.876   5.930 -1.2366 -1.0785 -0.7975
  298MOL0     H40220   9.562  10.651   6.053  0.7616 -0.7580 -0.1319
  298MOL0     H40221   9.559  10.570   5.901 -0.6773  0.5975 -2.1596
  298MOL0     H40222   9.343  10.635   5.868 -1.1088  0.1309  0.4105
  298MOL0     H40223   9.363  10.798   5.921  0.4688  0.6000  1.7936
  298MOL0     H40224   9.352  10.556   6.117 -2.4651 -0.5312 -0.1507
  298MOL0     H40225   9.334  10.735   6.160 -0.8938  1.4206 -0.9345
  298MOL0     H40226   8.942  10.649   6.033 -0.6587  2.5872  0.4869
  298MOL0     H40227   9.742  11.015   5.808  0.3410 -1.0667 -0.4564
  298MOL0     H40228   9.815  11.209   5.743  0.9698  2.1920  0.3955
  298MOL0     H40229   9.912  11.274   5.870 -1.7629 -1.7256  2.4571
  298MOL0     H40230   9.990  11.233   5.710 -0.2169  1.0681  0.5180
  299MOL0     O40231   0.243   5.030   1.726  0.2166 -0.7237 -0.5951
  299MOL0     C40232   0.227   5.148   1.732 -0.4953  0.5978  0.5390
  299MOL0     O40233   0.324   5.233   1.720  0.5033 -0.1819 -0.3508
  299MOL0     C40234   0.457   5.186   1.733  0.3840 -1.1007  0.0036
  299MOL0     C40235   0.549   5.225   1.633 -0.0281  0.0005 -0.6529
  299MOL0     C40236   0.679   5.178   1.637 -0.0054 -0.2411  0.1383
  299MOL0     C40237   0.729   5.093   1.742 -0.3410  0.0571 -0.2092
  299MOL0     O40238   0.860   5.054   1.745 -0.5787 -0.2730 -0.0710
  299MOL0     C40239   0.906   4.939   1.824  0.3781 -0.6638  0.9041
  299MOL0     C40240   1.037   4.875   1.768  0.9227  0.4382  0.1206
  299MOL0     C40241   1.154   4.977   1.764  0.0005  0.9607 -0.5258
  299MOL0     C40242   1.289   4.919   1.798 -0.4118 -0.1161 -0.2905
  299MOL0     C40243   1.403   4.979   1.711  0.9492  0.4679  0.7470
  299MOL0     C40244   1.544   4.946   1.765  0.9289  0.4195 -0.3190
  299MOL0     C40245   1.666   5.018   1.702  0.9727  0.2584 -0.1905
  299MOL0     C40246   1.798   4.955   1.723 -0.7725 -0.4567 -0.1484
  299MOL0     N40247   1.809   4.830   1.650 -0.3261 -0.9893 -0.1203
  299MOL0     C40248   1.823   4.823   1.514 -0.5308 -0.0004 -0.1792
  299MOL0     C40249   1.807   4.689   1.484 -0.1100 -0.0514 -0.8462
  299MOL0     C40250   1.814   4.620   1.347  0.7246  0.2983  0.2687
  299MOL0     C40251   1.678   4.648   1.277  0.2139  0.4667 -1.7869
  299MOL0     C40252   1.569   4.553   1.319  0.4877  0.1836 -0.5666
  299MOL0     C40253   1.431   4.622   1.333 -1.0785 -0.6676 -0.4025
  299MOL0     O40254   1.392   4.675   1.209 -0.1945 -0.2737  0.5610
  299MOL0     C40255   1.320   4.793   1.197  0.5198 -0.0298  0.6482
  299MOL0     C40256   1.299   4.859   1.076  0.2021  0.3160 -0.3246
  299MOL0     C40257   1.229   4.982   1.066 -1.0264  0.6171 -0.4918
  299MOL0     C40258   1.188   5.050   1.183 -0.9471 -0.9793  1.1399
  299MOL0     C40259   1.120   5.188   1.179 -0.4803  1.1786 -0.1117
  299MOL0     O40260   1.123   5.256   1.056  0.6389 -0.2315 -0.5246
  299MOL0     C40261   1.071   5.386   1.044  0.6317  0.5474  0.5128
  299MOL0     C40262   0.965   5.407   0.957 -0.7442 -0.1381  0.4344
  299MOL0     C40263   0.907   5.531   0.936  0.3833  0.2037 -0.2696
  299MOL0     C40264   0.970   5.634   1.009 -1.0797 -0.6127 -0.7346
  299MOL0     O40265   0.934   5.768   0.996 -0.2681 -0.0430 -0.1365
  299MOL0     C40266   0.875   5.797   0.864 -0.1886  0.5697  0.0332
  299MOL0     C40267   0.830   5.943   0.872 -0.5780  0.5000  0.5281
  299MOL0     C40268   0.935   6.049   0.921 -0.6162 -0.7582  0.0562
  299MOL0     C40269   1.027   6.096   0.818 -0.1256 -0.7483  0.9486
  299MOL0     C40270   1.081   6.237   0.837  0.3111 -0.1427  0.6342
  299MOL0     C40271   1.184   6.235   0.951  0.0876  1.0752  0.8147
  299MOL0     C40272   1.261   6.355   0.984  0.2086 -0.7540 -0.1327
  299MOL0     C40273   1.371   6.314   1.080 -1.0192 -0.0196  0.3651
  299MOL0    Cl40274   1.523   6.298   0.972  0.5987 -0.0332 -0.0930
  299MOL0     C40275   1.067   5.612   1.105 -0.0646  0.2956 -0.1380
  299MOL0     C40276   1.124   5.491   1.117  0.3014 -1.0058 -0.4870
  299MOL0     O40277   1.077   5.230   1.288 -0.6692 -0.0370 -0.2255
  299MOL0     C40278   1.205   4.988   1.306 -0.0543  0.6588 -0.5794
  299MOL0     C40279   1.276   4.864   1.315  0.0474 -0.3232  0.2210
  299MOL0     N40280   1.770   4.632   1.610  0.7531 -1.3875  0.5011
  299MOL0     N40281   1.774   4.713   1.712  0.3954 -0.3742  0.0873
  299MOL0     C40282   0.640   5.065   1.852  0.3417 -0.3941  0.2324
  299MOL0     C40283   0.506   5.107   1.836  0.1145 -0.9591  0.3241
  299MOL0     C40284   0.097   5.194   1.743  0.8814 -0.3930  0.7219
  299MOL0     C40285   0.002   5.101   1.797  0.3181 -0.1064  0.4264
  299MOL0     C40286  -0.120   5.153   1.829  0.4187 -0.3930 -0.8807
  299MOL0     C40287  -0.158   5.293   1.814  0.4857 -0.3890  0.3821
  299MOL0     O40288  -0.280   5.353   1.831  0.7413  0.3036 -0.2472
  299MOL0     C40289  -0.373   5.286   1.914  0.6462  0.6810  0.8036
  299MOL0     C40290  -0.509   5.351   1.908  0.6317  0.6523 -0.0184
  299MOL0     C40291  -0.560   5.349   1.768 -0.4394 -0.2775 -0.0472
  299MOL0     C40292  -0.680   5.440   1.732  0.1780  0.3400 -0.9019
  299MOL0     C40293  -0.691   5.444   1.591 -0.2691  1.4326  1.0300
  299MOL0     C40294  -0.696   5.466   1.475  0.7716 -0.0745 -0.1395
  299MOL0     C40295  -0.065   5.370   1.740  1.7212  0.4390  0.0230
  299MOL0     C40296   0.057   5.327   1.702  0.5436 -0.2111 -0.2502
  299MOL0     C40297   0.140   5.417   1.621 -0.5562 -0.0256  0.0007
  299MOL0     H40298   0.537   5.293   1.550  1.3823 -0.1175 -0.9772
  299MOL0     H40299   0.750   5.211   1.561  1.0971  0.1090  1.2728
  299MOL0     H40300   0.898   4.982   1.924  4.1518  3.8833 -0.3591
  299MOL0     H40301   0.828   4.863   1.814  0.3477 -0.4758 -0.6094
  299MOL0     H40302   1.015   4.839   1.667 -0.6526  2.1651 -0.2231
  299MOL0     H40303   1.063   4.800   1.842 -0.1118  1.7521  1.8836
  299MOL0     H40304   1.124   5.049   1.841 -3.6297  0.6283 -1.4438
  299MOL0     H40305   1.151   5.021   1.664  0.3156  2.3047  0.0355
  299MOL0     H40306   1.324   4.924   1.902 -0.8068 -0.4670 -0.1352
  299MOL0     H40307   1.282   4.813   1.772 -2.1068  0.2202 -1.2868
  299MOL0     H40308   1.401   4.945   1.607 -0.8450 -1.1248  1.2544
  299MOL0     H40309   1.390   5.087   1.715  1.4948  0.5902 -0.4212
  299MOL0     H40310   1.542   4.955   1.874  0.9415 -2.5690 -0.0015
  299MOL0     H40311   1.544   4.841   1.734  0.8323  0.2668  0.1892
  299MOL0     H40312   1.668   5.117   1.747  0.9179 -0.1071  0.6367
  299MOL0     H40313   1.644   5.030   1.596 -1.8806  0.8630  0.3872
  299MOL0     H40314   1.868   5.032   1.690 -1.8358  0.4911 -0.2935
  299MOL0     H40315   1.812   4.943   1.831 -0.8698  0.4976 -0.0202
  299MOL0     H40316   1.846   4.900   1.441  0.0976  0.6385  0.6652
  299MOL0     H40317   1.901   4.646   1.287  1.8550  1.6209  2.3587
  299MOL0     H40318   1.816   4.512   1.365 -2.0905 -0.3933 -2.5395
  299MOL0     H40319   1.642   4.747   1.305 -0.8904 -0.6303  1.1881
  299MOL0     H40320   1.682   4.641   1.168 -3.4092  1.0486 -2.0865
  299MOL0     H40321   1.594   4.517   1.419 -2.2295 -0.6370 -0.1054
  299MOL0     H40322   1.563   4.467   1.251  2.7564  0.1452 -0.7860
  299MOL0     H40323   1.444   4.691   1.416  3.6672 -3.4538  1.6158
  299MOL0     H40324   1.352   4.553   1.364 -0.4294 -0.5837  1.5198
  299MOL0     H40325   1.323   4.819   0.978 -1.5746  0.8202 -0.9996
  299MOL0     H40326   1.213   5.016   0.964  1.1121  1.0617 -0.7182
  299MOL0     H40327   0.932   5.322   0.898 -2.1596  0.5195  0.2299
  299MOL0     H40328   0.827   5.550   0.864  0.2236 -1.7381 -0.6860
  299MOL0     H40329   0.950   5.773   0.788 -1.7458 -1.1554 -1.0437
  299MOL0     H40330   0.787   5.738   0.836  0.4758 -1.4514  1.9355
  299MOL0     H40331   0.804   5.955   0.766  1.6141 -0.9870 -0.2495
  299MOL0     H40332   0.741   5.947   0.935 -0.9341 -0.7483  0.1217
  299MOL0     H40333   0.897   6.140   0.967  0.8740 -0.6514  1.1386
  299MOL0     H40334   0.996   6.008   1.002  1.7985 -1.7436 -2.1262
  299MOL0     H40335   0.985   6.108   0.718 -3.0489 -0.7121  2.1085
  299MOL0     H40336   1.112   6.027   0.812 -0.3681 -0.9421 -3.2190
  299MOL0     H40337   1.002   6.308   0.859 -0.7247 -0.8374 -0.6660
  299MOL0     H40338   1.131   6.275   0.747 -3.4672  0.9478 -1.1927
  299MOL0     H40339   1.124   6.222   1.042 -3.6560 -0.0934 -1.5746
  299MOL0     H40340   1.258   6.160   0.925 -0.9309  0.8293 -1.6032
  299MOL0     H40341   1.198   6.425   1.040 -0.4715 -1.0937 -0.4643
  299MOL0     H40342   1.303   6.412   0.900  0.2989 -1.3550 -0.4999
  299MOL0     H40343   1.389   6.391   1.155  0.1554 -0.2172  0.3050
  299MOL0     H40344   1.362   6.218   1.132 -0.8581  0.2417  0.8838
  299MOL0     H40345   1.120   5.698   1.146  2.6423 -1.4694  0.2975
  299MOL0     H40346   1.200   5.470   1.192  0.3370  1.2256  0.1788
  299MOL0     H40347   1.163   5.032   1.396 -2.1603 -0.3049 -1.0293
  299MOL0     H40348   1.291   4.824   1.415  0.0085 -3.6836 -0.9723
  299MOL0     H40349   0.672   5.013   1.942 -1.4283  0.4693  1.4106
  299MOL0     H40350   0.427   5.090   1.908 -1.0521  2.2197 -0.0501
  299MOL0     H40351   0.024   5.003   1.839  2.5354  1.1495  2.4856
  299MOL0     H40352  -0.189   5.089   1.884  2.5125 -1.0663  1.1241
  299MOL0     H40353  -0.347   5.313   2.017  2.3806 -1.1366  0.9084
  299MOL0     H40354  -0.376   5.181   1.885  0.1150  1.3816 -1.9816
  299MOL0     H40355  -0.509   5.451   1.952  1.6042  1.9549 -2.7523
  299MOL0     H40356  -0.576   5.290   1.969  1.8081 -0.2660  0.3943
  299MOL0     H40357  -0.598   5.251   1.738 -1.1406  0.0867 -0.3675
  299MOL0     H40358  -0.485   5.364   1.690  0.4489 -3.1130  0.1371
  299MOL0     H40359  -0.772   5.397   1.773  2.4025 -3.3461  0.7567
  299MOL0     H40360  -0.673   5.543   1.769  1.0199  1.4422 -3.8008
  299MOL0     H40361  -0.701   5.496   1.372  0.9859 -2.6936 -0.9908
  299MOL0     H40362  -0.085   5.476   1.728 -0.2214  0.1273  0.2284
  299MOL0     H40363   0.217   5.456   1.689  0.9089 -1.1164 -0.9713
  299MOL0     H40364   0.170   5.357   1.535 -2.0520  0.7045 -1.0794
  299MOL0     H40365   0.088   5.508   1.591 -1.8716 -0.1717  1.6768
  300MOL0     O40366   0.085   9.026   9.878  0.0305  0.8956 -0.0244
  300MOL0     C40367  -0.033   8.996   9.861 -0.2037 -0.8637  0.0831
  300MOL0     O40368  -0.125   8.969   9.958 -0.7459  0.0559 -0.1097
  300MOL0     C40369  -0.100   9.026  10.080 -1.2217 -0.6457 -0.1415
  300MOL0     C40370  -0.084   9.161  10.103 -0.8382  0.6444 -0.1622
  300MOL0     C40371  -0.037   9.207  10.227  0.3776 -0.2857  0.2002
  300MOL0     C40372  -0.022   9.125  10.333  0.3891 -0.9745 -0.2290
  300MOL0     O40373   0.047   9.152  10.448 -0.4757  0.6724 -0.1033
  300MOL0     C40374   0.043   9.276  10.507 -0.1590 -0.6130 -0.5969
  300MOL0     C40375  -0.100   9.318  10.544  0.2715  0.2439 -0.0070
  300MOL0     C40376  -0.161   9.228  10.657 -0.0470  0.0525 -0.5919
  300MOL0     C40377  -0.313   9.252  10.657  0.6896  0.2402  0.0168
  300MOL0     C40378  -0.351   9.397  10.673  0.0792  1.1267  0.1338
  300MOL0     C40379  -0.499   9.404  10.704  0.7423 -0.2361  0.3791
  300MOL0     C40380  -0.575   9.384  10.571 -0.4390 -0.9933 -0.3946
  300MOL0     C40381  -0.677   9.498  10.540  0.2465  0.2089 -0.7053
  300MOL0     N40382  -0.606   9.627  10.538  0.1241  0.5049 -0.4534
  300MOL0     C40383  -0.560   9.680  10.419  0.7397 -0.0647  0.1215
  300MOL0     C40384  -0.542   9.809  10.461  0.5708 -0.2224 -0.2577
  300MOL0     C40385  -0.483   9.912  10.377  0.1009  0.0932  0.0228
  300MOL0     C40386  -0.333   9.911  10.385  0.8235 -1.1331  0.1815
  300MOL0     C40387  -0.280   9.987  10.254  0.0516 -0.4615 -0.2182
  300MOL0     C40388  -0.306  10.137  10.242 -0.5459  0.2613  0.5073
  300MOL0     O40389  -0.268  10.203  10.367 -0.7318 -0.4749 -0.1724
  300MOL0     C40390  -0.126  10.223  10.386  0.0386  0.3258  0.5368
  300MOL0     C40391  -0.018  10.182  10.302  0.2369  0.0008 -0.0168
  300MOL0     C40392   0.111  10.213  10.326  0.6994  0.4596  0.2737
  300MOL0     C40393   0.145  10.271  10.448 -0.1218 -0.1114  0.4925
  300MOL0     C40394   0.285  10.315  10.491 -0.5557 -0.3541 -0.8527
  300MOL0     O40395   0.306  10.355  10.623  0.1551  0.2619 -0.1767
  300MOL0     C40396   0.423  10.409  10.658 -0.2393 -0.7354 -0.2965
  300MOL0     C40397   0.457  10.392  10.795 -0.4188 -1.0397  0.4198
  300MOL0     C40398   0.572  10.456  10.843  0.6649 -0.3590 -0.6382
  300MOL0     C40399   0.657  10.527  10.761 -0.2902 -0.4248 -0.9979
  300MOL0     O40400   0.781  10.560  10.820 -0.3254 -0.1647  0.2038
  300MOL0     C40401   0.862  10.651  10.738 -0.3946  0.4383 -0.2500
  300MOL0     C40402   0.966  10.694  10.834  0.3653  0.3241  0.7468
  300MOL0     C40403   1.003  10.843  10.804 -0.1091  0.5725 -0.5789
  300MOL0     C40404   1.128  10.878  10.877 -0.5605 -0.4208  0.3470
  300MOL0     C40405   1.191  11.011  10.820 -0.6535  0.6703 -0.2996
  300MOL0     C40406   1.332  11.022  10.874 -0.3078 -0.6397  0.2987
  300MOL0     C40407   1.331  11.074  11.015  0.0065 -0.7448  0.5610
  300MOL0     C40408   1.458  11.157  11.046 -0.2500  0.6263  0.0063
  300MOL0    Cl40409   1.448  11.313  10.967 -0.4107  0.4862 -0.7712
  300MOL0     C40410   0.623  10.539  10.623 -0.2635  0.7833 -0.3626
  300MOL0     C40411   0.500  10.491  10.580  0.5050  0.7187  0.5338
  300MOL0     O40412   0.377  10.304  10.403  0.1999 -0.6726  0.2776
  300MOL0     C40413   0.041  10.317  10.529 -0.0376 -0.3288  0.0204
  300MOL0     C40414  -0.096  10.294  10.500 -0.0686 -0.4105  0.9134
  300MOL0     N40415  -0.578   9.834  10.593 -1.0935  0.1740 -0.6766
  300MOL0     N40416  -0.616   9.717  10.641 -0.0718 -0.8654  0.7748
  300MOL0     C40417  -0.055   8.990  10.312  0.7063 -0.1968  0.2009
  300MOL0     C40418  -0.089   8.942  10.187 -0.0751  0.1350 -1.2260
  300MOL0     C40419  -0.075   8.965   9.719  0.4293 -0.0778 -0.4932
  300MOL0     C40420  -0.213   8.963   9.692  0.8242  0.6621 -0.3762
  300MOL0     C40421  -0.264   8.933   9.564 -0.0382 -0.2513 -0.2701
  300MOL0     C40422  -0.173   8.907   9.455 -0.9082 -0.9170  0.3808
  300MOL0     O40423  -0.199   8.872   9.323  0.4195 -0.6096 -0.3789
  300MOL0     C40424  -0.341   8.870   9.292 -0.6082 -0.5303  0.2882
  300MOL0     C40425  -0.330   8.800   9.153 -0.2568 -0.0148 -0.1537
  300MOL0     C40426  -0.454   8.728   9.092 -0.6083  0.9227 -0.4156
  300MOL0     C40427  -0.582   8.821   9.081  0.2443 -0.4037  0.5045
  300MOL0     C40428  -0.651   8.834   9.203  0.8383  0.2306  0.2589
  300MOL0     C40429  -0.698   8.814   9.317 -0.1778 -0.0726 -0.5780
  300MOL0     C40430  -0.033   8.932   9.488 -0.3111 -0.5201  0.0718
  300MOL0     C40431   0.018   8.953   9.608 -0.3010  0.0974 -0.2984
  300MOL0     C40432   0.169   8.960   9.621 -0.6258  0.1903  0.1060
  300MOL0     H40433  -0.107   9.231  10.024 -0.5674 -0.6030 -1.3757
  300MOL0     H40434  -0.018   9.312  10.242 -2.2898  0.3597 -0.3892
  300MOL0     H40435   0.117   9.268  10.587  0.1125  0.5393 -0.7170
  300MOL0     H40436   0.081   9.357  10.444  2.4369 -2.3503 -1.4740
  300MOL0     H40437  -0.164   9.302  10.457 -1.5043 -3.2104  1.7389
  300MOL0     H40438  -0.106   9.424  10.572 -0.7131 -0.1363  1.3497
  300MOL0     H40439  -0.102   9.257  10.745  0.7919  1.6159 -1.6307
  300MOL0     H40440  -0.142   9.121  10.644  0.3289  0.0117  0.1785
  300MOL0     H40441  -0.346   9.198  10.568  0.4720 -1.0373  0.8381
  300MOL0     H40442  -0.349   9.194  10.743  1.0422 -0.9518 -0.6262
  300MOL0     H40443  -0.285   9.427  10.755  0.2458 -0.4383  0.5982
  300MOL0     H40444  -0.332   9.452  10.580  0.5966  3.9700  1.8006
  300MOL0     H40445  -0.532   9.323  10.769  3.5464 -1.4570  0.4293
  300MOL0     H40446  -0.521   9.500  10.752  2.3630  0.7047 -0.6491
  300MOL0     H40447  -0.628   9.289  10.579  0.9295 -1.6808  1.1388
  300MOL0     H40448  -0.512   9.369  10.484 -0.4655 -2.0772 -0.2415
  300MOL0     H40449  -0.745   9.486  10.455 -1.0701  0.0924  0.3322
  300MOL0     H40450  -0.748   9.495  10.623  1.6757 -2.2375  0.5147
  300MOL0     H40451  -0.548   9.637  10.320 -0.3368 -0.7085  0.2499
  300MOL0     H40452  -0.516   9.893  10.274  0.9070  0.6671 -0.3563
  300MOL0     H40453  -0.524  10.013  10.386  0.6007  0.3598 -0.5935
  300MOL0     H40454  -0.286   9.961  10.470  0.8291 -1.2645  0.2553
  300MOL0     H40455  -0.300   9.807  10.395  3.1623 -0.4825 -0.1590
  300MOL0     H40456  -0.323   9.949  10.161 -0.9338  2.5900 -1.1216
  300MOL0     H40457  -0.173   9.969  10.237  0.0471 -0.4974 -0.2081
  300MOL0     H40458  -0.415  10.147  10.231 -0.8230 -2.6063 -0.0304
  300MOL0     H40459  -0.254  10.174  10.154  1.2024 -1.8545  0.5681
  300MOL0     H40460  -0.030  10.132  10.206  1.4591  1.5542 -1.0259
  300MOL0     H40461   0.185  10.193  10.249  1.8264  3.5558  0.4369
  300MOL0     H40462   0.381  10.344  10.856 -1.0763  0.0061  0.4438
  300MOL0     H40463   0.590  10.464  10.950 -0.5193 -0.1930 -0.4367
  300MOL0     H40464   0.904  10.606  10.647 -0.9679 -0.9588  0.1427
  300MOL0     H40465   0.805  10.737  10.703 -2.1690 -1.2536 -1.8179
  300MOL0     H40466   0.935  10.694  10.938  1.5079 -0.8127  1.1159
  300MOL0     H40467   1.045  10.620  10.817 -0.4146  0.0237 -2.1250
  300MOL0     H40468   1.012  10.865  10.697  0.2109 -0.2200 -0.7265
  300MOL0     H40469   0.915  10.901  10.834  0.5504  1.5041 -0.4118
  300MOL0     H40470   1.210  10.808  10.859  1.5724  1.9561  0.1856
  300MOL0     H40471   1.102  10.870  10.983 -0.6602 -0.1996  0.3416
  300MOL0     H40472   1.144  11.105  10.852 -2.6785 -0.7950  1.2464
  300MOL0     H40473   1.193  11.016  10.711 -0.2620  0.5993 -0.2978
  300MOL0     H40474   1.392  10.931  10.881  1.9376  0.7548  0.3270
  300MOL0     H40475   1.395  11.080  10.806  1.3307 -2.3247  0.2840
  300MOL0     H40476   1.329  10.987  11.081  0.1550 -1.4960 -0.3986
  300MOL0     H40477   1.246  11.141  11.032 -0.8333 -1.4998 -0.4741
  300MOL0     H40478   1.457  11.166  11.155  0.7399  0.4260  0.0423
  300MOL0     H40479   1.554  11.114  11.016  0.8516  2.2613  1.0314
  300MOL0     H40480   0.695  10.583  10.555  1.7409 -0.2780  0.9928
  300MOL0     H40481   0.467  10.498  10.477 -1.4330 -2.1061  0.8432
  300MOL0     H40482   0.062  10.385  10.612  0.3033  2.2099 -2.0253
  300MOL0     H40483  -0.163  10.350  10.564 -0.6390  1.1077 -0.9134
  300MOL0     H40484  -0.037   8.919  10.392  0.9124  1.5768  1.7988
  300MOL0     H40485  -0.107   8.835  10.177  3.2233 -0.6464 -0.0494
  300MOL0     H40486  -0.287   8.970   9.770  0.1619 -1.8002 -0.6806
  300MOL0     H40487  -0.373   8.927   9.559 -0.0229 -3.5181  0.8029
  300MOL0     H40488  -0.378   8.973   9.282  1.6669  0.2211 -1.7724
  300MOL0     H40489  -0.397   8.811   9.364 -0.0703  1.9431  2.9378
  300MOL0     H40490  -0.239   8.738   9.153  0.9317  1.5743  2.0112
  300MOL0     H40491  -0.310   8.879   9.081 -0.2555 -0.3482 -0.5199
  300MOL0     H40492  -0.485   8.631   9.131 -1.1966  2.1368  2.3933
  300MOL0     H40493  -0.408   8.709   8.994  0.0899 -0.2573  0.1210
  300MOL0     H40494  -0.546   8.919   9.049  2.8271 -1.0896  1.0765
  300MOL0     H40495  -0.648   8.783   9.003  2.0487  1.6210 -2.2093
  300MOL0     H40496  -0.737   8.797   9.415  2.9002  0.8036  0.9528
  300MOL0     H40497   0.029   8.935   9.399 -1.5880 -3.9520 -1.0748
  300MOL0     H40498   0.222   8.945   9.527 -0.5037  2.2526 -0.2001
  300MOL0     H40499   0.203   9.053   9.668 -0.1958 -0.5921  1.3845
  300MOL0     H40500   0.195   8.879   9.691 -1.8241 -1.4657 -1.2783
  301MOL0     O40501   5.419   6.342   7.526 -0.0013 -0.3891 -0.3225
  301MOL0     C40502   5.412   6.233   7.475  0.0858 -0.4368 -0.1855
  301MOL0     O40503   5.497   6.180   7.390 -0.0127 -0.1538  0.0586
  301MOL0     C40504   5.613   6.241   7.368 -0.4150 -0.5101  0.0516
  301MOL0     C40505   5.644   6.378   7.359  0.4152  0.3836  0.3086
  301MOL0     C40506   5.776   6.426   7.329 -0.0645  0.5004 -0.7847
  301MOL0     C40507   5.877   6.328   7.289  0.5992 -0.0217 -0.1652
  301MOL0     O40508   6.003   6.368   7.259  0.7974 -0.6134  0.3489
  301MOL0     C40509   6.007   6.446   7.137 -0.5335 -0.1121 -0.3739
  301MOL0     C40510   6.145   6.519   7.149 -0.1068 -0.6140  0.1973
  301MOL0     C40511   6.271   6.422   7.148 -0.8989 -0.1919 -0.8000
  301MOL0     C40512   6.354   6.449   7.027 -0.1831 -0.3336 -0.2333
  301MOL0     C40513   6.488   6.371   7.013 -0.3418 -0.0844  0.6901
  301MOL0     C40514   6.585   6.409   7.121  0.4999 -0.1434 -0.6312
  301MOL0     C40515   6.721   6.337   7.119  0.1023 -0.2363 -0.4730
  301MOL0     C40516   6.805   6.384   7.002 -0.1095  0.2437  1.1092
  301MOL0     N40517   6.957   6.387   7.036  0.6718 -0.0338 -0.0401
  301MOL0     C40518   7.021   6.277   7.091  0.2023 -0.3080  0.6725
  301MOL0     C40519   7.143   6.320   7.107  0.2106  0.3377  1.5509
  301MOL0     C40520   7.249   6.227   7.167 -0.7383  0.6402  0.5206
  301MOL0     C40521   7.371   6.187   7.078  0.4559  0.0425  0.8320
  301MOL0     C40522   7.427   6.055   7.111 -0.2243 -0.3541  0.3365
  301MOL0     C40523   7.571   6.043   7.064  0.2397 -0.4835  0.2309
  301MOL0     O40524   7.645   5.943   7.144  0.1428  0.0418 -0.6144
  301MOL0     C40525   7.775   5.910   7.111 -0.1844 -0.1780 -0.3310
  301MOL0     C40526   7.838   5.952   6.994  0.6357 -0.6631  0.0514
  301MOL0     C40527   7.966   5.920   6.962 -0.0752 -0.3913 -0.0517
  301MOL0     C40528   8.041   5.838   7.044  0.8906 -0.3359 -0.2029
  301MOL0     C40529   8.176   5.791   7.010  0.0583 -0.0664 -0.7093
  301MOL0     O40530   8.229   5.855   6.912  0.3125  0.9819  1.0647
  301MOL0     C40531   8.361   5.846   6.892  0.1851  0.1136  0.1651
  301MOL0     C40532   8.443   5.961   6.893 -0.6377  0.2166  0.0592
  301MOL0     C40533   8.575   5.952   6.852 -0.4138 -0.3018  0.1738
  301MOL0     C40534   8.631   5.824   6.831 -0.6824 -0.2186  0.5456
  301MOL0     O40535   8.760   5.793   6.794  0.2180 -0.2595 -0.0189
  301MOL0     C40536   8.853   5.891   6.764  0.1126  0.1936  0.2157
  301MOL0     C40537   8.986   5.824   6.792  0.2900 -0.4396  1.0394
  301MOL0     C40538   9.111   5.891   6.750  0.1615  0.1737 -0.0300
  301MOL0     C40539   9.224   5.786   6.767 -0.9927 -0.0202 -0.9620
  301MOL0     C40540   9.366   5.842   6.743  0.5285  0.0482  0.2410
  301MOL0     C40541   9.478   5.752   6.789 -0.5374 -0.2340  0.7155
  301MOL0     C40542   9.616   5.787   6.732  0.7713 -0.5881 -0.2352
  301MOL0     C40543   9.708   5.668   6.719  0.3023  0.2548 -1.0466
  301MOL0    Cl40544   9.873   5.721   6.750 -0.1931 -0.0268 -0.1565
  301MOL0     C40545   8.548   5.716   6.823 -0.0835  0.2605  0.7974
  301MOL0     C40546   8.417   5.731   6.853 -0.9257 -0.0912  0.3033
  301MOL0     O40547   8.223   5.710   7.085 -1.0409 -0.3321  0.2670
  301MOL0     C40548   7.978   5.790   7.168 -0.5848  0.0013  0.5449
  301MOL0     C40549   7.848   5.834   7.201  0.0943  0.6742 -0.5690
  301MOL0     N40550   7.156   6.447   7.053 -0.1060  0.4268 -0.0926
  301MOL0     N40551   7.044   6.489   7.015  0.5441  0.2261  0.2548
  301MOL0     C40552   5.841   6.193   7.285 -0.2499  0.0728 -0.3750
  301MOL0     C40553   5.708   6.156   7.317 -0.4461 -0.3088  0.4034
  301MOL0     C40554   5.297   6.147   7.506 -0.9048 -0.1402  0.0067
  301MOL0     C40555   5.279   6.033   7.426 -0.6489 -0.1916 -0.2141
  301MOL0     C40556   5.184   5.934   7.457  0.2801  0.2650  0.3577
  301MOL0     C40557   5.102   5.944   7.571 -0.4145 -0.4770 -0.6042
  301MOL0     O40558   5.026   5.843   7.599 -0.0331 -0.0631 -0.2073
  301MOL0     C40559   4.918   5.873   7.696  0.5477  0.1241 -0.3540
  301MOL0     C40560   4.813   5.760   7.705 -0.1077 -0.0756  0.7683
  301MOL0     C40561   4.878   5.646   7.779  0.0605 -0.1765  0.4001
  301MOL0     C40562   4.787   5.520   7.780 -0.4669 -0.6247  0.1307
  301MOL0     C40563   4.841   5.428   7.883 -0.4953  1.1129 -0.1480
  301MOL0     C40564   4.894   5.343   7.953 -0.1159 -0.2771 -0.4308
  301MOL0     C40565   5.119   6.063   7.645 -0.4727  0.5630  0.1159
  301MOL0     C40566   5.210   6.161   7.617 -0.7970  0.5914  0.3036
  301MOL0     C40567   5.205   6.287   7.700  0.9826  0.3171  0.6968
  301MOL0     H40568   5.561   6.448   7.369  1.2986  1.4524  0.3173
  301MOL0     H40569   5.797   6.532   7.326  0.1860  0.4254 -3.1943
  301MOL0     H40570   6.009   6.374   7.055  1.5776 -1.2789  0.6166
  301MOL0     H40571   5.923   6.515   7.123  0.0780  0.3264 -2.0690
  301MOL0     H40572   6.136   6.572   7.244 -1.1700  0.7059 -0.6063
  301MOL0     H40573   6.134   6.586   7.063 -2.7337 -0.6266  0.4360
  301MOL0     H40574   6.231   6.321   7.139 -0.8655 -0.5634  2.2964
  301MOL0     H40575   6.335   6.430   7.236 -0.2516  1.9079 -1.3933
  301MOL0     H40576   6.297   6.423   6.937 -0.1262  0.0078 -0.3727
  301MOL0     H40577   6.376   6.556   7.019  0.3592 -0.5115 -1.4830
  301MOL0     H40578   6.463   6.266   7.030  1.0345 -0.5450  0.0799
  301MOL0     H40579   6.531   6.394   6.914 -2.4755  5.9817  0.7290
  301MOL0     H40580   6.610   6.516   7.125  0.7202 -0.1250  4.3166
  301MOL0     H40581   6.540   6.400   7.221  1.5028 -2.6826 -0.3481
  301MOL0     H40582   6.708   6.229   7.106  0.2052 -0.4794  1.2183
  301MOL0     H40583   6.772   6.347   7.215  0.0009  0.4161 -0.4805
  301MOL0     H40584   6.785   6.319   6.917 -2.5633  1.9184  0.3023
  301MOL0     H40585   6.770   6.477   6.958  0.0461 -0.2344 -0.0516
  301MOL0     H40586   6.982   6.179   7.118  1.5256 -1.1486 -0.3362
  301MOL0     H40587   7.287   6.282   7.253  1.2756  2.1915 -1.2445
  301MOL0     H40588   7.200   6.137   7.205  1.0779  0.1782  1.9267
  301MOL0     H40589   7.341   6.183   6.973 -1.9858  0.3887  1.4466
  301MOL0     H40590   7.443   6.268   7.098 -0.0123  0.7988 -0.3920
  301MOL0     H40591   7.372   5.977   7.058  1.8630 -1.8960  0.2812
  301MOL0     H40592   7.424   6.045   7.220 -0.4622  0.5438  0.4225
  301MOL0     H40593   7.616   6.141   7.079 -0.1321 -0.3656  0.5734
  301MOL0     H40594   7.577   6.026   6.956 -0.8183  2.3807 -0.3622
  301MOL0     H40595   7.785   6.009   6.918  1.8610  0.4395 -0.0169
  301MOL0     H40596   7.994   5.948   6.861 -4.0235 -0.4606 -1.3424
  301MOL0     H40597   8.393   6.056   6.909 -0.2593  0.5364 -0.6235
  301MOL0     H40598   8.641   6.038   6.852 -1.4343  0.5464  1.8544
  301MOL0     H40599   8.839   5.935   6.665  4.1452  4.5375  1.1755
  301MOL0     H40600   8.851   5.979   6.829 -2.2990  0.3959 -0.0634
  301MOL0     H40601   8.996   5.787   6.894 -2.0198 -3.1683  0.4089
  301MOL0     H40602   8.992   5.737   6.725  1.4364  0.6497 -0.3359
  301MOL0     H40603   9.106   5.909   6.642 -1.6732 -0.5476 -0.0976
  301MOL0     H40604   9.132   5.986   6.801  3.0763 -1.8080  2.8689
  301MOL0     H40605   9.192   5.702   6.704 -2.1743  0.6115 -1.2407
  301MOL0     H40606   9.222   5.744   6.868  1.6745  0.7390 -0.5214
  301MOL0     H40607   9.384   5.943   6.781  0.6028  1.0064 -2.1295
  301MOL0     H40608   9.363   5.862   6.635 -0.8146  0.3438  0.3045
  301MOL0     H40609   9.478   5.749   6.898 -1.3338 -0.8938  0.7079
  301MOL0     H40610   9.453   5.651   6.754  2.3518 -0.0244 -2.5965
  301MOL0     H40611   9.654   5.856   6.808  0.8138  0.8687 -1.5432
  301MOL0     H40612   9.609   5.839   6.637  1.1774  3.5010  1.7757
  301MOL0     H40613   9.687   5.601   6.804  0.4774  1.6757  0.1580
  301MOL0     H40614   9.711   5.616   6.623 -0.8892 -2.8507  0.4591
  301MOL0     H40615   8.602   5.623   6.813  3.9032  2.3624  0.6580
  301MOL0     H40616   8.355   5.646   6.827  3.0009 -2.6385 -1.6869
  301MOL0     H40617   8.028   5.716   7.230  1.2383 -2.0340 -3.0324
  301MOL0     H40618   7.796   5.799   7.290  0.9860  0.4562 -0.1238
  301MOL0     H40619   5.913   6.112   7.276 -0.1442  0.2101 -0.7981
  301MOL0     H40620   5.694   6.050   7.297 -0.8963  0.1195 -1.7920
  301MOL0     H40621   5.334   6.023   7.333 -0.0414  1.1652 -0.0289
  301MOL0     H40622   5.176   5.837   7.409 -2.0145  1.2638 -1.5241
  301MOL0     H40623   4.857   5.958   7.662  0.6982  0.5673  0.4388
  301MOL0     H40624   4.956   5.907   7.793 -0.1755  2.4854 -0.8180
  301MOL0     H40625   4.782   5.724   7.607 -3.4239 -3.7017  2.8595
  301MOL0     H40626   4.722   5.793   7.756 -0.0943  1.5345 -0.1637
  301MOL0     H40627   4.897   5.673   7.884 -1.9649 -0.6738  0.9470
  301MOL0     H40628   4.975   5.627   7.734  0.2759  3.7301 -1.1664
  301MOL0     H40629   4.682   5.547   7.794 -0.4906  0.2006 -1.4070
  301MOL0     H40630   4.780   5.472   7.682  2.3569 -1.3013  0.1671
  301MOL0     H40631   4.942   5.286   8.030 -1.3330  1.7426  1.9520
  301MOL0     H40632   5.065   6.066   7.738 -1.1758  1.0801 -0.3070
  301MOL0     H40633   5.116   6.284   7.764 -0.6892 -1.5949 -1.4995
  301MOL0     H40634   5.293   6.306   7.761  2.1649 -0.2874 -0.7643
  301MOL0     H40635   5.182   6.372   7.634 -2.4724 -0.3587  0.8373
  302MOL0     O40636   7.607   8.333  10.351 -0.1107 -0.2859  0.7174
  302MOL0     C40637   7.522   8.397  10.416  0.8428 -0.8980 -0.5540
  302MOL0     O40638   7.534   8.526  10.443 -0.7223  1.2487  0.2162
  302MOL0     C40639   7.658   8.578  10.421 -0.4431  0.1517 -1.1654
  302MOL0     C40640   7.754   8.566  10.526 -0.0693 -0.5084 -0.4176
  302MOL0     C40641   7.890   8.596  10.498 -0.8119 -0.4969  0.4120
  302MOL0     C40642   7.931   8.659  10.380  0.7207  0.2862  0.3276
  302MOL0     O40643   8.065   8.680  10.374  0.8944  1.1294  0.3383
  302MOL0     C40644   8.108   8.729  10.243  0.5098 -0.0968  0.5071
  302MOL0     C40645   8.249   8.782  10.240  0.1582 -0.1515 -0.3962
  302MOL0     C40646   8.355   8.667  10.253  0.5778 -0.6829  0.1876
  302MOL0     C40647   8.368   8.613  10.397  0.5115  0.2703  0.6478
  302MOL0     C40648   8.509   8.556  10.405 -0.1339 -0.0290 -0.3160
  302MOL0     C40649   8.532   8.473  10.535  0.8343 -0.0243  1.1362
  302MOL0     C40650   8.649   8.368  10.517  0.5384 -0.8151  0.2002
  302MOL0     C40651   8.778   8.443  10.490  0.0307  0.0169  0.0933
  302MOL0     N40652   8.897   8.365  10.445 -0.0115 -0.0433 -0.0325
  302MOL0     C40653   8.915   8.314  10.321  0.3336  0.0705  0.2526
  302MOL0     C40654   9.041   8.264  10.325 -0.1186  0.3897 -0.4059
  302MOL0     C40655   9.123   8.216  10.208 -0.3232  1.1359  0.2133
  302MOL0     C40656   9.169   8.344  10.137  0.0940 -0.4858  0.6616
  302MOL0     C40657   9.269   8.318  10.019 -0.3849 -0.6821 -0.6700
  302MOL0     C40658   9.305   8.452   9.953 -0.0368  0.6094  0.3319
  302MOL0     O40659   9.191   8.514   9.891 -0.0373 -0.3037  0.0116
  302MOL0     C40660   9.211   8.623   9.806 -0.2873  0.9631 -0.5589
  302MOL0     C40661   9.333   8.677   9.766 -0.4857 -0.5068 -0.5690
  302MOL0     C40662   9.341   8.801   9.702  0.4251 -0.0661 -0.2027
  302MOL0     C40663   9.225   8.855   9.650 -0.2891 -0.7032 -0.7061
  302MOL0     C40664   9.226   8.986   9.574  0.1198 -0.1997 -0.1113
  302MOL0     O40665   9.333   9.067   9.589  0.1976  0.3921  0.1433
  302MOL0     C40666   9.325   9.190   9.526 -0.0064 -0.8019 -0.7616
  302MOL0     C40667   9.321   9.306   9.605 -1.4287  0.1692  0.4418
  302MOL0     C40668   9.321   9.429   9.541  0.4724 -0.8180  0.7946
  302MOL0     C40669   9.327   9.444   9.400  0.6519  0.1042  0.1087
  302MOL0     O40670   9.326   9.568   9.337 -0.5177  0.9066  0.2024
  302MOL0     C40671   9.372   9.682   9.410  0.1345  0.9195 -0.3730
  302MOL0     C40672   9.413   9.801   9.326  0.0940 -1.0112  0.1135
  302MOL0     C40673   9.279   9.883   9.279 -0.5131  0.2708 -1.1364
  302MOL0     C40674   9.264  10.018   9.344 -0.1944 -0.2658 -0.2704
  302MOL0     C40675   9.144  10.100   9.288 -1.5936 -0.3441 -0.0556
  302MOL0     C40676   9.158  10.250   9.318  0.4213 -0.2976 -0.2915
  302MOL0     C40677   9.061  10.329   9.239  0.0387  0.0476 -0.6499
  302MOL0     C40678   9.094  10.478   9.241 -0.0366  0.6434  0.1630
  302MOL0    Cl40679   8.971  10.563   9.153 -0.5116  0.1243 -0.0599
  302MOL0     C40680   9.322   9.332   9.318  0.5880  0.7734 -0.0447
  302MOL0     C40681   9.323   9.202   9.389  0.1352 -0.0922  0.0437
  302MOL0     O40682   9.120   9.020   9.517 -0.1362  0.5530 -1.1823
  302MOL0     C40683   9.102   8.796   9.684  0.0613  0.0099 -0.8583
  302MOL0     C40684   9.094   8.672   9.761 -0.9667 -0.5090  0.0946
  302MOL0     N40685   9.091   8.285  10.452  0.6655  0.6454 -0.3580
  302MOL0     N40686   9.001   8.334  10.528  0.7693  0.3904  0.4382
  302MOL0     C40687   7.827   8.674  10.276  0.1472  0.0420 -0.6101
  302MOL0     C40688   7.692   8.633  10.299 -0.6868  0.3658  0.7585
  302MOL0     C40689   7.404   8.320  10.459  0.5923  0.4335 -0.2884
  302MOL0     C40690   7.282   8.394  10.480 -0.4962  0.4040  0.7822
  302MOL0     C40691   7.166   8.325  10.517  0.5109  0.2022  0.0554
  302MOL0     C40692   7.164   8.185  10.529  0.4429 -0.0515 -0.6227
  302MOL0     O40693   7.042   8.117  10.538 -0.6335 -0.2914 -0.8670
  302MOL0     C40694   7.041   7.972  10.539  0.0467 -0.3969  0.7872
  302MOL0     C40695   6.907   7.934  10.593 -0.4605 -0.7739  0.5887
  302MOL0     C40696   6.903   7.785  10.592  0.2345  0.4619 -0.3440
  302MOL0     C40697   6.762   7.727  10.579 -0.1616 -1.2502  0.7090
  302MOL0     C40698   6.755   7.586  10.596 -0.1852 -0.3961 -0.7016
  302MOL0     C40699   6.744   7.464  10.597 -0.9045 -0.4631 -0.6451
  302MOL0     C40700   7.291   8.122  10.522  0.8321  0.1506  0.7841
  302MOL0     C40701   7.408   8.181  10.496 -0.3470 -0.0089 -0.4219
  302MOL0     C40702   7.538   8.087  10.492  0.6764  0.2589 -0.7020
  302MOL0     H40703   7.714   8.521  10.616 -0.2606 -0.6045 -0.5494
  302MOL0     H40704   7.966   8.591  10.575  0.6702 -1.1379 -1.0362
  302MOL0     H40705   8.112   8.645  10.173 -0.0330 -0.7347  1.2330
  302MOL0     H40706   8.041   8.811  10.216  1.4575  0.3524 -0.5492
  302MOL0     H40707   8.262   8.839  10.332  0.6992  0.8258 -1.0589
  302MOL0     H40708   8.271   8.844  10.153 -2.8457  1.6688 -0.0117
  302MOL0     H40709   8.447   8.724  10.236 -1.1907  2.4940  0.3958
  302MOL0     H40710   8.336   8.587  10.181 -0.8177 -0.6011  0.4266
  302MOL0     H40711   8.359   8.691  10.473 -0.5678 -1.9855  2.9657
  302MOL0     H40712   8.289   8.544  10.428  0.5577  1.2868  3.2554
  302MOL0     H40713   8.521   8.478  10.330  0.3996 -0.6881  0.4426
  302MOL0     H40714   8.588   8.632  10.396  1.5551 -1.8275 -1.3639
  302MOL0     H40715   8.542   8.538  10.622 -0.3645  1.5936  0.1394
  302MOL0     H40716   8.445   8.411  10.556 -1.1758  1.5753 -1.6955
  302MOL0     H40717   8.622   8.306  10.431 -2.3451  1.9444 -1.1169
  302MOL0     H40718   8.643   8.302  10.603 -1.7043 -3.2629 -1.6397
  302MOL0     H40719   8.765   8.527  10.422 -2.8878 -1.7881 -1.8232
  302MOL0     H40720   8.804   8.474  10.592 -0.5035  2.7120 -0.5176
  302MOL0     H40721   8.854   8.321  10.231  0.7040  2.2480  0.1088
  302MOL0     H40722   9.206   8.164  10.256 -0.1565  1.6323  0.4641
  302MOL0     H40723   9.063   8.151  10.144  2.5900 -3.5921  1.7709
  302MOL0     H40724   9.080   8.382  10.086  1.1253 -1.6527 -2.2702
  302MOL0     H40725   9.218   8.418  10.201  1.3582  0.2442 -1.0601
  302MOL0     H40726   9.222   8.260   9.939  1.3483  0.0626 -2.3073
  302MOL0     H40727   9.363   8.275  10.055  0.1141 -0.3101 -1.4878
  302MOL0     H40728   9.375   8.410   9.879  2.3370  0.8753  2.3063
  302MOL0     H40729   9.352   8.517  10.027 -0.8634 -0.3774  1.7641
  302MOL0     H40730   9.427   8.630   9.795 -0.3667  0.2537  0.3491
  302MOL0     H40731   9.435   8.853   9.688 -0.6248  2.3248  1.0559
  302MOL0     H40732   9.314   9.307   9.714 -3.2409  1.1775  0.3503
  302MOL0     H40733   9.313   9.519   9.602 -1.3373 -0.9510  0.8097
  302MOL0     H40734   9.289   9.714   9.473 -0.9660  0.3478 -1.5042
  302MOL0     H40735   9.456   9.666   9.479  1.4440  0.2782 -2.0532
  302MOL0     H40736   9.476   9.861   9.392 -2.0072  0.7377  0.6257
  302MOL0     H40737   9.476   9.776   9.240 -0.0672  0.3996 -0.4377
  302MOL0     H40738   9.298   9.893   9.172  3.4115  0.2560 -0.6003
  302MOL0     H40739   9.187   9.829   9.302 -0.5017  0.8133  0.3194
  302MOL0     H40740   9.351  10.083   9.331 -1.3477  1.2359 -0.8433
  302MOL0     H40741   9.262  10.019   9.453 -2.9040  0.4072 -0.2562
  302MOL0     H40742   9.053  10.065   9.338 -0.5995 -2.2100  0.5757
  302MOL0     H40743   9.120  10.073   9.184 -1.4421 -0.1563 -0.1396
  302MOL0     H40744   9.150  10.268   9.426  0.8501 -0.2412 -0.2647
  302MOL0     H40745   9.260  10.284   9.297  0.8397 -1.7326 -0.7208
  302MOL0     H40746   8.964  10.314   9.288  0.0554 -1.0873 -0.9268
  302MOL0     H40747   9.076  10.289   9.139 -0.8907 -2.6266  0.1686
  302MOL0     H40748   9.103  10.510   9.345  1.2182  0.2672  0.1805
  302MOL0     H40749   9.187  10.473   9.184 -0.7449 -2.4083 -0.8996
  302MOL0     H40750   9.344   9.339   9.212  0.0978  3.0092 -0.0400
  302MOL0     H40751   9.326   9.114   9.325 -0.2606 -0.0225 -0.0698
  302MOL0     H40752   9.011   8.851   9.664 -0.8523 -0.2581  2.0136
  302MOL0     H40753   9.004   8.621   9.794 -0.3905  0.5647  3.6972
  302MOL0     H40754   7.855   8.723  10.183 -1.5316  0.4274 -0.9557
  302MOL0     H40755   7.628   8.651  10.213  1.3444  0.4353 -0.8203
  302MOL0     H40756   7.284   8.499  10.453  0.2051  0.6946  1.9050
  302MOL0     H40757   7.081   8.390  10.536  0.0044 -1.0880  2.5840
  302MOL0     H40758   7.120   7.921  10.594 -0.6913 -1.8886  0.5053
  302MOL0     H40759   7.054   7.943  10.435 -1.7206  0.8954  0.1488
  302MOL0     H40760   6.828   7.985  10.537 -1.4827  0.6821  3.1810
  302MOL0     H40761   6.902   7.974  10.695  1.3452  0.1499  0.3572
  302MOL0     H40762   6.949   7.744  10.683 -0.1645  2.3282  0.7648
  302MOL0     H40763   6.975   7.746  10.520  0.9000 -2.9494  1.9328
  302MOL0     H40764   6.704   7.763  10.665 -0.7454  0.2012 -0.2481
  302MOL0     H40765   6.713   7.756  10.485 -1.3000  0.1741  1.6890
  302MOL0     H40766   6.726   7.359  10.587 -5.0411  0.2207 -2.8578
  302MOL0     H40767   7.305   8.019  10.553  0.1908 -0.8408 -1.9188
  302MOL0     H40768   7.508   7.990  10.532 -0.1152  1.0374  0.6898
  302MOL0     H40769   7.577   8.077  10.390  2.0782 -1.0694 -0.0603
  302MOL0     H40770   7.608   8.132  10.563  0.6187 -2.4072  1.1875
  303MOL0     O40771   2.040   3.323   0.890  0.2228  0.3073 -0.2409
  303MOL0     C40772   2.138   3.383   0.927  0.1018  0.5378 -0.3292
  303MOL0     O40773   2.265   3.383   0.866 -0.5623 -0.2628  0.0513
  303MOL0     C40774   2.285   3.324   0.741  0.4925 -0.6973  0.2383
  303MOL0     C40775   2.204   3.359   0.632 -0.4406 -0.2088 -0.1578
  303MOL0     C40776   2.222   3.291   0.513  0.4054  0.2188  0.0298
  303MOL0     C40777   2.325   3.202   0.487 -0.2141 -0.1740 -0.7310
  303MOL0     O40778   2.349   3.154   0.362 -0.7541  0.3997  0.3634
  303MOL0     C40779   2.429   3.234   0.268  0.1681  0.3606 -0.1810
  303MOL0     C40780   2.439   3.172   0.130  0.8738  0.7393  0.2294
  303MOL0     C40781   2.573   3.196   0.061  0.0062  0.3089 -0.3713
  303MOL0     C40782   2.595   3.344   0.034 -0.3174 -0.1309 -0.6308
  303MOL0     C40783   2.729   3.360  -0.050 -0.7746 -0.5320 -0.2494
  303MOL0     C40784   2.756   3.515  -0.073 -0.1518  1.4107 -1.2539
  303MOL0     C40785   2.889   3.538  -0.156  0.0968  0.2364 -0.1423
  303MOL0     C40786   2.924   3.684  -0.177 -0.5995 -0.0161 -0.8188
  303MOL0     N40787   2.990   3.745  -0.057  0.1601  0.1924  0.7177
  303MOL0     C40788   3.109   3.803  -0.072  0.5746 -0.6323  0.7390
  303MOL0     C40789   3.139   3.881   0.030  0.2642  0.2158  0.1425
  303MOL0     C40790   3.254   3.973   0.070  0.1283 -0.4063  0.8502
  303MOL0     C40791   3.306   3.938   0.214  0.5127 -0.9294 -1.0053
  303MOL0     C40792   3.453   3.977   0.245  0.7027  0.6332 -0.1918
  303MOL0     C40793   3.486   4.122   0.214 -0.2255  0.0566  0.1236
  303MOL0     O40794   3.447   4.168   0.079 -1.1002  0.4720 -0.4272
  303MOL0     C40795   3.489   4.298   0.060 -0.5465  0.4775  0.3843
  303MOL0     C40796   3.436   4.346  -0.065 -0.3648  0.1640  1.0531
  303MOL0     C40797   3.459   4.478  -0.099  0.5053  0.3296  0.0227
  303MOL0     C40798   3.527   4.566  -0.013  0.3619  0.2439  0.0848
  303MOL0     C40799   3.538   4.708  -0.061  0.8618 -1.3260  0.3016
  303MOL0     O40800   3.581   4.805   0.028 -0.3775 -0.6321 -0.7526
  303MOL0     C40801   3.539   4.934   0.024 -0.2900 -0.6195 -1.1876
  303MOL0     C40802   3.405   4.979   0.002 -0.3175 -0.4307 -0.3287
  303MOL0     C40803   3.374   5.115   0.017  0.4719  0.5877  0.0446
  303MOL0     C40804   3.464   5.210   0.073 -0.2072 -0.2965 -0.6494
  303MOL0     O40805   3.429   5.341   0.103  0.5772  0.8413 -0.3383
  303MOL0     C40806   3.295   5.389   0.108  0.8425  0.9788 -0.5016
  303MOL0     C40807   3.298   5.534   0.156  0.3499 -0.3152  0.9260
  303MOL0     C40808   3.157   5.587   0.188  0.5539  0.0183  1.0414
  303MOL0     C40809   3.055   5.492   0.264 -0.5269  0.6457  0.0932
  303MOL0     C40810   2.920   5.555   0.287  0.9309  0.0569  0.3400
  303MOL0     C40811   2.817   5.441   0.330 -0.4132  0.3772  0.1260
  303MOL0     C40812   2.681   5.502   0.375 -0.7631  0.0902  0.3134
  303MOL0     C40813   2.578   5.394   0.390 -0.7618  0.2003  0.1834
  303MOL0    Cl40814   2.431   5.469   0.450 -0.2733 -0.3568  0.3091
  303MOL0     C40815   3.590   5.162   0.094 -0.5973  0.4331  0.5684
  303MOL0     C40816   3.627   5.030   0.068 -0.4859 -0.0924  0.3132
  303MOL0     O40817   3.504   4.733  -0.179 -0.4586  0.6240 -0.0813
  303MOL0     C40818   3.595   4.524   0.099  0.2552 -0.7039 -0.7104
  303MOL0     C40819   3.571   4.388   0.140  0.6410  0.3260 -0.1910
  303MOL0     N40820   3.034   3.860   0.120  0.2590  0.2988  0.2593
  303MOL0     N40821   2.944   3.781   0.059  0.7089  0.0086 -0.8846
  303MOL0     C40822   2.411   3.180   0.600 -0.7492  0.3361  1.0597
  303MOL0     C40823   2.395   3.240   0.721 -0.5032  0.5047 -0.1513
  303MOL0     C40824   2.125   3.464   1.058 -0.5510 -0.0690  0.0899
  303MOL0     C40825   2.239   3.504   1.118 -0.2829  0.8882  0.0971
  303MOL0     C40826   2.244   3.599   1.217  0.1817  0.0311 -0.1802
  303MOL0     C40827   2.125   3.641   1.278  0.0631  0.2248  0.6545
  303MOL0     O40828   2.148   3.738   1.375  0.8853 -0.5254 -0.0670
  303MOL0     C40829   2.030   3.788   1.444 -0.4213  0.8146  0.3308
  303MOL0     C40830   2.051   3.919   1.514  0.1396  0.2848 -0.0023
  303MOL0     C40831   2.060   4.026   1.401  0.6917 -0.5020 -0.2589
  303MOL0     C40832   1.920   4.054   1.351  0.8209  0.0003 -0.4398
  303MOL0     C40833   1.911   4.154   1.245 -0.8771  0.6074 -0.0835
  303MOL0     C40834   1.898   4.232   1.150 -0.3687 -0.0911  0.7358
  303MOL0     C40835   2.003   3.591   1.229  0.4726 -0.4295  0.3172
  303MOL0     C40836   1.999   3.507   1.115  0.9842 -0.1344  0.1537
  303MOL0     C40837   1.858   3.457   1.084 -0.3761 -0.3617  0.5384
  303MOL0     H40838   2.128   3.434   0.652  1.1384  2.1459 -2.4379
  303MOL0     H40839   2.157   3.314   0.429  1.0794 -1.2199 -0.9184
  303MOL0     H40840   2.394   3.338   0.264  0.1865  0.3763  0.0409
  303MOL0     H40841   2.527   3.238   0.318 -0.1193 -1.1763  0.5673
  303MOL0     H40842   2.365   3.221   0.067  1.0552  1.2803  0.4263
  303MOL0     H40843   2.428   3.063   0.138 -0.8396  0.9875  1.9476
  303MOL0     H40844   2.579   3.138  -0.031 -4.4647 -0.0191 -0.6847
  303MOL0     H40845   2.655   3.164   0.126  1.8939  0.1028 -2.7506
  303MOL0     H40846   2.510   3.394  -0.012 -1.1067  1.3853  2.2414
  303MOL0     H40847   2.613   3.400   0.126  0.4673  1.7808 -1.8682
  303MOL0     H40848   2.810   3.314   0.007 -1.1387  1.1453  1.7114
  303MOL0     H40849   2.723   3.314  -0.149  3.2158  1.1921 -1.5111
  303MOL0     H40850   2.671   3.556  -0.128 -1.3908 -1.1441 -1.3926
  303MOL0     H40851   2.754   3.579   0.015 -5.9182  1.2147 -0.8331
  303MOL0     H40852   2.884   3.484  -0.251  1.9656 -2.1350  0.9924
  303MOL0     H40853   2.977   3.495  -0.107  2.4375  0.9816 -3.4032
  303MOL0     H40854   2.983   3.702  -0.268  0.3276  0.5563 -0.1184
  303MOL0     H40855   2.834   3.737  -0.209 -0.9931  0.4099  0.9273
  303MOL0     H40856   3.174   3.796  -0.159  0.8606 -0.0112  0.9014
  303MOL0     H40857   3.333   3.966  -0.005  2.2859 -0.6831  3.0294
  303MOL0     H40858   3.235   4.081   0.062  0.9754 -0.3356 -0.6945
  303MOL0     H40859   3.231   3.966   0.288 -0.1514  0.8749 -2.3004
  303MOL0     H40860   3.308   3.829   0.222  1.5615 -1.2290 -4.0494
  303MOL0     H40861   3.516   3.913   0.183  0.4006 -0.0492  0.1918
  303MOL0     H40862   3.472   3.942   0.347 -1.2649 -0.6250 -0.2091
  303MOL0     H40863   3.595   4.121   0.222 -0.3641 -1.1491  3.6590
  303MOL0     H40864   3.444   4.194   0.286 -1.4452 -1.0688  0.5851
  303MOL0     H40865   3.374   4.284  -0.129  0.5859 -0.1099  0.3641
  303MOL0     H40866   3.417   4.513  -0.193  0.5372 -1.2463 -0.6143
  303MOL0     H40867   3.326   4.907  -0.018  0.5309 -1.0536 -1.6178
  303MOL0     H40868   3.272   5.142  -0.010 -0.6839 -1.9570  1.5248
  303MOL0     H40869   3.245   5.383   0.011 -1.6301 -1.2738  0.7728
  303MOL0     H40870   3.235   5.321   0.169  2.7712 -0.5644 -0.1920
  303MOL0     H40871   3.365   5.537   0.242  0.6139 -0.7849  0.7396
  303MOL0     H40872   3.338   5.588   0.070  2.0406 -0.0869  1.8288
  303MOL0     H40873   3.150   5.688   0.229  1.5729  0.6497 -0.2951
  303MOL0     H40874   3.104   5.602   0.094  1.7776  0.5770  0.4143
  303MOL0     H40875   3.092   5.461   0.363 -4.1667 -1.6070  0.9415
  303MOL0     H40876   3.047   5.397   0.211 -0.7521  0.7138  0.0022
  303MOL0     H40877   2.884   5.593   0.191 -0.7295 -3.7112 -0.7160
  303MOL0     H40878   2.926   5.642   0.353  4.8864  0.8285 -0.7256
  303MOL0     H40879   2.792   5.375   0.246 -1.8336 -0.6155  1.2606
  303MOL0     H40880   2.867   5.381   0.407 -0.3422 -0.3079 -0.4395
  303MOL0     H40881   2.647   5.568   0.295  0.6282 -2.5619 -2.7396
  303MOL0     H40882   2.698   5.554   0.470  3.5060  1.6507 -1.0360
  303MOL0     H40883   2.556   5.343   0.296 -2.3232 -2.4058  1.8388
  303MOL0     H40884   2.624   5.322   0.459 -0.8931 -0.3535 -0.3064
  303MOL0     H40885   3.664   5.235   0.125 -1.5933  1.7424 -0.0028
  303MOL0     H40886   3.727   4.996   0.093 -0.1026  0.6380 -0.1903
  303MOL0     H40887   3.650   4.597   0.158  3.1514 -2.1561 -1.4012
  303MOL0     H40888   3.623   4.349   0.227  2.6331  1.1655 -0.9292
  303MOL0     H40889   2.494   3.112   0.583 -0.0611  1.4496 -0.2374
  303MOL0     H40890   2.441   3.196   0.808 -1.6047  0.9836  0.6901
  303MOL0     H40891   2.334   3.472   1.077 -0.8660  2.7181 -3.0331
  303MOL0     H40892   2.336   3.631   1.266  1.0191 -1.2211 -0.8754
  303MOL0     H40893   2.000   3.708   1.512 -1.7797  0.3431 -0.7581
  303MOL0     H40894   1.949   3.803   1.372 -0.7834  1.4106  0.8532
  303MOL0     H40895   2.141   3.917   1.576  0.2661  3.3678  0.0665
  303MOL0     H40896   1.964   3.933   1.579 -1.3485  0.0994 -1.8655
  303MOL0     H40897   2.131   3.988   1.327  1.7506  1.3363 -0.2438
  303MOL0     H40898   2.087   4.129   1.428 -0.7461 -0.2790  0.4026
  303MOL0     H40899   1.866   3.963   1.325 -1.3865  0.5114  1.8676
  303MOL0     H40900   1.866   4.102   1.434 -1.4027 -1.8480 -0.7078
  303MOL0     H40901   1.902   4.303   1.070  2.3062  1.4227  2.0648
  303MOL0     H40902   1.905   3.620   1.266  0.0040  1.4486 -2.1137
  303MOL0     H40903   1.785   3.536   1.102  0.4890  0.5178  0.2410
  303MOL0     H40904   1.853   3.425   0.979  1.2286  0.8809  0.0392
  303MOL0     H40905   1.824   3.372   1.145 -0.2973  0.9114  2.4376
  304MOL0     O40906   0.687   3.851   7.100 -0.0226  0.7115 -0.0919
  304MOL0     C40907   0.805   3.843   7.049  0.7448  0.0361 -0.1784
  304MOL0     O40908   0.847   3.877   6.923  0.0199 -0.2243  0.2585
  304MOL0     C40909   0.756   3.911   6.823 -0.2601  0.1087 -0.1904
  304MOL0     C40910   0.784   4.020   6.740 -0.6692 -0.5718 -0.5491
  304MOL0     C40911   0.709   4.050   6.625  0.2012  0.1985 -0.5521
  304MOL0     C40912   0.598   3.969   6.595 -0.2267 -0.8062  0.0424
  304MOL0     O40913   0.521   3.989   6.480  0.0258 -0.0494  0.3784
  304MOL0     C40914   0.381   3.960   6.478  0.4476  0.4694 -0.8300
  304MOL0     C40915   0.307   4.069   6.400  0.1090  0.3033 -0.5607
  304MOL0     C40916   0.310   4.211   6.446  0.0202  0.7129 -0.3970
  304MOL0     C40917   0.435   4.287   6.396 -0.3329 -0.5923 -0.3854
  304MOL0     C40918   0.435   4.429   6.465 -0.3233 -0.5667 -0.3463
  304MOL0     C40919   0.536   4.529   6.393  1.0621  0.7585 -0.8459
  304MOL0     C40920   0.681   4.504   6.423  0.2123  0.6396  0.8063
  304MOL0     C40921   0.720   4.538   6.561  0.2235  0.5721  1.0754
  304MOL0     N40922   0.839   4.452   6.587 -0.3429 -0.4088 -0.3946
  304MOL0     C40923   0.961   4.465   6.517  1.3935 -0.0000 -0.6770
  304MOL0     C40924   1.038   4.360   6.561 -0.1342 -0.2539 -0.3825
  304MOL0     C40925   1.179   4.324   6.526 -0.0863  0.3451 -0.4938
  304MOL0     C40926   1.248   4.423   6.423  0.8333 -0.4565  0.6920
  304MOL0     C40927   1.295   4.554   6.503  0.9901  0.4824 -0.1248
  304MOL0     C40928   1.415   4.627   6.441  0.3033 -0.3107  0.4086
  304MOL0     O40929   1.458   4.716   6.543  0.9298 -0.3489 -0.5056
  304MOL0     C40930   1.568   4.797   6.535 -0.0409  0.2410 -0.0946
  304MOL0     C40931   1.607   4.874   6.644  0.3455 -0.1040  0.2390
  304MOL0     C40932   1.718   4.952   6.651  0.1796 -1.1745  0.3984
  304MOL0     C40933   1.802   4.960   6.540 -0.2616  0.9664 -0.0971
  304MOL0     C40934   1.932   5.036   6.545  0.2796  0.1773 -0.4576
  304MOL0     O40935   1.965   5.063   6.675  0.5317 -0.5864 -0.1248
  304MOL0     C40936   2.087   5.123   6.702 -0.0133  0.5423  0.8381
  304MOL0     C40937   2.099   5.259   6.723  0.5125  0.1478  0.0486
  304MOL0     C40938   2.224   5.320   6.746  0.7478  0.5986  0.3310
  304MOL0     C40939   2.338   5.244   6.733 -1.1391  0.3876  0.0913
  304MOL0     O40940   2.453   5.321   6.742 -0.5390  0.1542 -0.5298
  304MOL0     C40941   2.551   5.273   6.654 -0.3394 -0.5499  0.3299
  304MOL0     C40942   2.676   5.361   6.655  0.1055  0.2365 -0.0192
  304MOL0     C40943   2.779   5.294   6.568  0.0089 -0.0621 -0.3812
  304MOL0     C40944   2.911   5.364   6.540 -0.5262  0.0621 -0.3787
  304MOL0     C40945   2.990   5.408   6.666 -0.1042  0.1659 -0.5522
  304MOL0     C40946   3.125   5.478   6.631  0.1705  0.1740 -0.2780
  304MOL0     C40947   3.225   5.385   6.573  0.8681  0.3779  0.2681
  304MOL0     C40948   3.343   5.475   6.519 -0.4220 -0.7224 -0.3399
  304MOL0    Cl40949   3.438   5.550   6.649 -0.1068  0.1614  0.2154
  304MOL0     C40950   2.325   5.102   6.707 -0.4138  0.5389 -0.1154
  304MOL0     C40951   2.203   5.044   6.695 -0.2771  0.1504  0.1493
  304MOL0     O40952   2.002   5.047   6.444  0.7649  0.1634  0.0296
  304MOL0     C40953   1.766   4.883   6.427 -0.1486 -0.3818 -0.3899
  304MOL0     C40954   1.656   4.799   6.420 -0.8958 -0.3505 -0.0757
  304MOL0     N40955   0.963   4.288   6.661 -0.5140 -0.7153 -0.3859
  304MOL0     N40956   0.842   4.343   6.661 -0.7592 -0.1953  0.7904
  304MOL0     C40957   0.570   3.852   6.673 -1.0170 -0.2206 -0.2416
  304MOL0     C40958   0.655   3.825   6.782 -0.1470 -0.4929 -0.1061
  304MOL0     C40959   0.913   3.803   7.138 -0.5988 -0.0473  0.4311
  304MOL0     C40960   1.021   3.892   7.139  0.1731  0.1892 -0.4860
  304MOL0     C40961   1.138   3.856   7.211  0.5116 -0.6126 -0.5075
  304MOL0     C40962   1.147   3.732   7.283  0.0638  0.1056 -0.1467
  304MOL0     O40963   1.269   3.695   7.332 -0.7913  0.7532  0.6849
  304MOL0     C40964   1.294   3.560   7.380 -0.7667 -0.7032 -0.5667
  304MOL0     C40965   1.430   3.527   7.428 -0.0048 -1.0009 -0.7747
  304MOL0     C40966   1.437   3.401   7.512  0.6284 -0.0324 -0.8579
  304MOL0     C40967   1.497   3.281   7.450  0.7451  0.2381 -0.0633
  304MOL0     C40968   1.429   3.248   7.323  0.0850  0.2776  0.2912
  304MOL0     C40969   1.400   3.225   7.207 -0.1103 -0.4542  0.7297
  304MOL0     C40970   1.025   3.661   7.300 -0.1921 -0.4591 -0.0938
  304MOL0     C40971   0.906   3.691   7.225 -0.3896 -0.7372 -0.2433
  304MOL0     C40972   0.789   3.594   7.232  0.6021  0.4663 -0.5219
  304MOL0     H40973   0.873   4.080   6.757 -0.6254  0.1020 -2.8119
  304MOL0     H40974   0.731   4.138   6.565 -0.4609  1.7359  1.3560
  304MOL0     H40975   0.383   3.866   6.421 -0.0098 -0.3745  0.4936
  304MOL0     H40976   0.344   3.948   6.580 -1.2455 -1.4520 -1.5766
  304MOL0     H40977   0.203   4.034   6.399  0.1918  0.0637 -2.0363
  304MOL0     H40978   0.332   4.072   6.294 -0.7710 -0.3269 -0.7987
  304MOL0     H40979   0.304   4.198   6.555  1.1437  0.4640 -0.3526
  304MOL0     H40980   0.219   4.265   6.419 -0.8040 -0.3220  0.2429
  304MOL0     H40981   0.521   4.240   6.444  0.8485  2.4661  0.7203
  304MOL0     H40982   0.434   4.291   6.287  2.2331 -3.3561 -0.6518
  304MOL0     H40983   0.335   4.472   6.466 -1.3812 -2.7129 -2.5960
  304MOL0     H40984   0.451   4.407   6.571  3.4900 -3.5473 -1.2961
  304MOL0     H40985   0.506   4.530   6.288 -0.1383  2.3028 -0.5237
  304MOL0     H40986   0.506   4.625   6.436 -0.7082  0.4554 -1.3240
  304MOL0     H40987   0.736   4.569   6.354 -1.8831  1.5344 -0.1253
  304MOL0     H40988   0.705   4.401   6.396 -3.9596  0.0200 -1.4709
  304MOL0     H40989   0.732   4.646   6.574 -0.3475  0.7567  0.0943
  304MOL0     H40990   0.641   4.513   6.633 -1.2332  1.4811 -0.1580
  304MOL0     H40991   0.993   4.539   6.446  0.5975  2.9821  1.8471
  304MOL0     H40992   1.242   4.312   6.615 -2.2838  0.0911  1.1122
  304MOL0     H40993   1.167   4.226   6.478 -0.4703  1.4099 -2.6809
  304MOL0     H40994   1.333   4.371   6.378 -0.7706 -2.3836 -0.2758
  304MOL0     H40995   1.171   4.455   6.352 -2.2073 -3.4914  2.3328
  304MOL0     H40996   1.320   4.524   6.605 -0.8687  1.9597  0.8550
  304MOL0     H40997   1.213   4.623   6.525  0.6162  0.8120 -2.3230
  304MOL0     H40998   1.374   4.665   6.347 -0.5346 -3.5329 -0.6877
  304MOL0     H40999   1.488   4.554   6.404 -1.7873 -1.0645 -2.7063
  304MOL0     H41000   1.533   4.878   6.723  0.3081  0.0506  0.1969
  304MOL0     H41001   1.727   5.012   6.741 -0.1762 -1.0108  0.3276
  304MOL0     H41002   2.009   5.320   6.730  0.2828 -0.3029  1.3010
  304MOL0     H41003   2.226   5.426   6.772 -0.3773  0.4645  1.0334
  304MOL0     H41004   2.571   5.173   6.693 -0.4771  0.0670  2.1161
  304MOL0     H41005   2.508   5.248   6.557 -3.2007  1.5458  0.9224
  304MOL0     H41006   2.654   5.460   6.615 -2.5163 -0.3335 -0.1453
  304MOL0     H41007   2.705   5.361   6.760 -2.3707  0.4708  0.7106
  304MOL0     H41008   2.790   5.192   6.607  0.0772 -0.4696 -1.4136
  304MOL0     H41009   2.735   5.293   6.468 -1.7921 -0.8976  0.3750
  304MOL0     H41010   2.891   5.453   6.479 -0.0520 -0.7694 -1.7990
  304MOL0     H41011   2.978   5.291   6.492  0.1694 -1.2335  2.3443
  304MOL0     H41012   2.999   5.319   6.729 -1.6626  2.0025  2.4468
  304MOL0     H41013   2.926   5.481   6.715 -1.7342 -0.8670 -1.0422
  304MOL0     H41014   3.102   5.555   6.557  2.0335 -1.0402 -2.2463
  304MOL0     H41015   3.164   5.524   6.723  2.0239 -1.5100 -0.1549
  304MOL0     H41016   3.178   5.349   6.481 -2.1913  0.2189  1.7840
  304MOL0     H41017   3.255   5.300   6.635 -0.7874 -1.0041 -0.7409
  304MOL0     H41018   3.400   5.423   6.441  0.3203  1.0573 -1.0311
  304MOL0     H41019   3.314   5.567   6.467  2.9559  0.6128 -0.1457
  304MOL0     H41020   2.407   5.033   6.694 -1.9686 -1.3987 -0.1167
  304MOL0     H41021   2.184   4.940   6.667 -1.8303  0.3348  0.4065
  304MOL0     H41022   1.821   4.891   6.334  0.1300  4.4940 -0.0750
  304MOL0     H41023   1.628   4.736   6.336 -1.9617 -2.4277  1.7533
  304MOL0     H41024   0.489   3.784   6.650  0.2046 -2.1119  0.7279
  304MOL0     H41025   0.630   3.735   6.837 -2.4835  0.0687 -0.1413
  304MOL0     H41026   1.011   3.986   7.086  0.4505  0.7865  0.4983
  304MOL0     H41027   1.223   3.922   7.194  1.5216 -2.1697 -1.7804
  304MOL0     H41028   1.274   3.500   7.291 -0.6702  0.2439 -1.2303
  304MOL0     H41029   1.214   3.550   7.455 -1.0341  4.6580  0.1979
  304MOL0     H41030   1.456   3.611   7.492 -0.1111  0.9434 -3.1358
  304MOL0     H41031   1.518   3.532   7.363  2.0478  1.2129  1.9320
  304MOL0     H41032   1.335   3.376   7.544  0.9431  2.6070  2.9607
  304MOL0     H41033   1.498   3.432   7.597 -1.6264 -0.9490  1.2235
  304MOL0     H41034   1.605   3.285   7.433  0.4339  4.5404 -2.2202
  304MOL0     H41035   1.476   3.192   7.510  4.6921 -0.6367  0.2924
  304MOL0     H41036   1.371   3.194   7.108  0.7781  0.3777  0.1868
  304MOL0     H41037   1.015   3.579   7.371 -0.7380  1.3315  2.0202
  304MOL0     H41038   0.753   3.559   7.136 -0.9829  1.4232 -0.3031
  304MOL0     H41039   0.821   3.504   7.285 -2.6248 -0.3123  0.2663
  304MOL0     H41040   0.710   3.634   7.296  2.8235  1.7413  1.6414
  305MOL0     O41041   1.819   1.495   0.419  0.7873 -0.2247 -0.2421
  305MOL0     C41042   1.761   1.603   0.426 -0.1987  0.7471  0.0586
  305MOL0     O41043   1.819   1.730   0.434 -0.1010  0.0279  0.2299
  305MOL0     C41044   1.961   1.740   0.426  0.4908 -0.6656  0.0362
  305MOL0     C41045   2.050   1.689   0.519 -0.6841  0.5474  0.5485
  305MOL0     C41046   2.190   1.695   0.508  0.6782  0.1355 -0.8008
  305MOL0     C41047   2.243   1.773   0.403  0.5296  0.1335  0.1951
  305MOL0     O41048   2.379   1.792   0.362  1.0221  0.2870 -0.4378
  305MOL0     C41049   2.475   1.690   0.409  0.0373  0.0537 -0.2429
  305MOL0     C41050   2.607   1.710   0.329  0.1974 -0.1256 -0.4346
  305MOL0     C41051   2.723   1.685   0.425 -0.0298 -0.0488 -0.7717
  305MOL0     C41052   2.853   1.663   0.351 -0.9322 -0.3667  0.4092
  305MOL0     C41053   2.970   1.625   0.436 -0.4337 -0.4034 -0.1232
  305MOL0     C41054   3.085   1.545   0.366  0.5261 -0.1692 -0.3834
  305MOL0     C41055   3.222   1.563   0.436  1.3189 -0.8645 -0.1760
  305MOL0     C41056   3.225   1.537   0.591 -0.2730 -0.6211 -0.6742
  305MOL0     N41057   3.246   1.402   0.640  0.8151  0.5579 -0.5012
  305MOL0     C41058   3.365   1.338   0.618  0.5179 -0.0274  0.4393
  305MOL0     C41059   3.347   1.224   0.691 -0.0654 -0.8370  1.3354
  305MOL0     C41060   3.465   1.131   0.702  1.0838  0.7769  0.5421
  305MOL0     C41061   3.418   0.990   0.691  0.2336  0.4324 -0.1863
  305MOL0     C41062   3.536   0.897   0.656  0.1431  0.1754  0.4157
  305MOL0     C41063   3.656   0.897   0.743  0.3568  0.0315  0.4582
  305MOL0     O41064   3.752   0.806   0.691  0.5138  0.3292  0.0356
  305MOL0     C41065   3.863   0.791   0.773 -0.0403 -0.3307  0.4534
  305MOL0     C41066   3.984   0.795   0.714 -0.4850 -0.0651  0.4819
  305MOL0     C41067   4.098   0.772   0.795  0.1605 -0.0928  0.5254
  305MOL0     C41068   4.093   0.735   0.934  1.1539 -0.9210  0.6760
  305MOL0     C41069   4.206   0.722   1.023 -0.1883 -0.0347  0.2210
  305MOL0     O41070   4.327   0.749   0.964  0.2246  0.0793 -0.2856
  305MOL0     C41071   4.447   0.761   1.036  0.2796  0.2909  0.0817
  305MOL0     C41072   4.456   0.822   1.156  0.9485 -0.6201 -0.0654
  305MOL0     C41073   4.576   0.830   1.230  0.2496  0.4311  0.3797
  305MOL0     C41074   4.693   0.770   1.180 -1.0091 -0.5950  0.0834
  305MOL0     O41075   4.824   0.783   1.234 -0.1065 -0.5156  0.2318
  305MOL0     C41076   4.844   0.867   1.343 -0.2614 -0.1752  0.5712
  305MOL0     C41077   4.820   0.778   1.473 -0.3602 -0.0922 -0.1521
  305MOL0     C41078   4.867   0.849   1.596  0.1416  0.6442  0.7006
  305MOL0     C41079   4.747   0.906   1.680 -0.4845 -0.7038 -0.7908
  305MOL0     C41080   4.787   1.000   1.793 -0.3097  0.1782  0.0329
  305MOL0     C41081   4.833   0.946   1.923  0.6551 -0.6655 -0.4126
  305MOL0     C41082   4.869   1.072   2.000 -0.2655  0.6304 -0.0061
  305MOL0     C41083   4.962   1.031   2.126  0.0521 -0.6917  0.4090
  305MOL0    Cl41084   5.107   0.937   2.067  0.3859  0.1337  0.2238
  305MOL0     C41085   4.685   0.704   1.058  0.1415 -0.5571  0.0462
  305MOL0     C41086   4.565   0.699   0.989  0.5062  0.1600  0.2126
  305MOL0     O41087   4.194   0.692   1.139  0.5036  0.2680  0.3125
  305MOL0     C41088   3.959   0.711   0.984 -0.4461  0.0022  0.7478
  305MOL0     C41089   3.854   0.735   0.904  0.6347  0.0177  0.2086
  305MOL0     N41090   3.226   1.224   0.754  0.1089  0.0373  0.4760
  305MOL0     N41091   3.157   1.327   0.718 -0.5191  0.6377  0.1035
  305MOL0     C41092   2.153   1.824   0.305  0.8852 -0.2007  0.3661
  305MOL0     C41093   2.012   1.810   0.317 -0.4219 -0.4904 -0.7551
  305MOL0     C41094   1.613   1.616   0.420  0.1568  0.7475 -0.3908
  305MOL0     C41095   1.552   1.745   0.399 -1.4145 -0.7016 -0.9989
  305MOL0     C41096   1.412   1.769   0.415  0.4039  0.4872  0.7751
  305MOL0     C41097   1.318   1.661   0.423 -0.0133 -0.2045 -0.3016
  305MOL0     O41098   1.191   1.659   0.457 -0.3195 -0.5680 -0.5513
  305MOL0     C41099   1.100   1.760   0.433  0.4014 -0.0347 -0.2522
  305MOL0     C41100   0.965   1.705   0.429  0.0706  0.6666 -0.0147
  305MOL0     C41101   0.970   1.582   0.339 -0.1179  0.1596 -0.0722
  305MOL0     C41102   0.831   1.521   0.307  0.0539 -0.2226 -0.5742
  305MOL0     C41103   0.840   1.377   0.260 -0.0744  0.4012 -0.7146
  305MOL0     C41104   0.833   1.262   0.252  0.3363 -0.1412 -0.9122
  305MOL0     C41105   1.380   1.537   0.414  0.5647 -0.6909 -0.0556
  305MOL0     C41106   1.517   1.505   0.417  0.0390 -0.2941  0.3626
  305MOL0     C41107   1.545   1.360   0.414 -0.2981  0.0331 -0.6383
  305MOL0     H41108   2.005   1.617   0.587 -0.9460 -1.0230 -1.2230
  305MOL0     H41109   2.251   1.653   0.587  0.4842  0.3677 -0.5288
  305MOL0     H41110   2.491   1.709   0.515 -0.2935 -0.6488 -0.0615
  305MOL0     H41111   2.433   1.592   0.386 -0.6061  0.4541 -0.8208
  305MOL0     H41112   2.611   1.809   0.284  0.8209 -0.4724 -1.1645
  305MOL0     H41113   2.612   1.640   0.245 -1.5763  0.1620 -0.8097
  305MOL0     H41114   2.703   1.598   0.487  1.9052 -0.9377 -1.3243
  305MOL0     H41115   2.753   1.773   0.483  3.1416 -1.5904  0.1586
  305MOL0     H41116   2.851   1.590   0.270  1.8986 -3.1377  2.5513
  305MOL0     H41117   2.882   1.755   0.299  2.3246 -0.9706  0.9365
  305MOL0     H41118   3.009   1.718   0.478 -2.5059 -0.0032  1.1023
  305MOL0     H41119   2.937   1.571   0.526  2.6835 -0.0726  1.3601
  305MOL0     H41120   3.062   1.439   0.351 -0.8834  0.0451  0.1262
  305MOL0     H41121   3.110   1.590   0.270  1.6802  1.5470  0.6761
  305MOL0     H41122   3.257   1.667   0.425 -0.0980 -0.2073  1.1647
  305MOL0     H41123   3.290   1.490   0.392 -1.4794 -3.1356 -0.9918
  305MOL0     H41124   3.307   1.594   0.635 -1.6671  1.1497 -0.2599
  305MOL0     H41125   3.136   1.587   0.631  0.3687  1.6307 -1.9158
  305MOL0     H41126   3.448   1.371   0.556  0.4798  2.3873  1.5710
  305MOL0     H41127   3.537   1.144   0.620  1.7949 -1.8436  0.6718
  305MOL0     H41128   3.501   1.148   0.804 -0.6162 -2.3565  1.7789
  305MOL0     H41129   3.379   0.947   0.784 -0.3885 -0.1831 -0.7235
  305MOL0     H41130   3.352   0.972   0.606  0.0568 -0.3187  0.1009
  305MOL0     H41131   3.576   0.905   0.554 -0.8372  2.3620  0.1350
  305MOL0     H41132   3.503   0.793   0.654 -0.8595  0.3410 -4.6654
  305MOL0     H41133   3.630   0.895   0.849 -1.5051 -0.7169  0.0302
  305MOL0     H41134   3.693   0.997   0.722 -1.7302  0.1643 -3.7057
  305MOL0     H41135   3.984   0.839   0.615  1.4414  0.5622  0.7181
  305MOL0     H41136   4.196   0.781   0.749 -1.5425  0.0355 -3.4665
  305MOL0     H41137   4.376   0.867   1.215 -0.9949 -1.5100 -1.8939
  305MOL0     H41138   4.565   0.867   1.331 -1.5900  0.5755  0.1584
  305MOL0     H41139   4.947   0.903   1.351  0.2888 -1.6300  0.3635
  305MOL0     H41140   4.776   0.952   1.352 -0.6668  0.3675 -4.7245
  305MOL0     H41141   4.714   0.753   1.474 -0.3727 -0.1236 -1.2908
  305MOL0     H41142   4.880   0.688   1.458 -3.0244 -1.5974 -2.9005
  305MOL0     H41143   4.915   0.770   1.654 -1.3777 -4.1768 -3.8423
  305MOL0     H41144   4.940   0.926   1.572 -0.9960  2.0011  1.4227
  305MOL0     H41145   4.690   0.821   1.720  0.2091 -0.9999 -0.4231
  305MOL0     H41146   4.687   0.969   1.614 -0.2433  3.1433  2.3197
  305MOL0     H41147   4.703   1.069   1.805 -0.9547 -0.5348 -0.2935
  305MOL0     H41148   4.874   1.056   1.758  2.4154 -1.3829  3.7132
  305MOL0     H41149   4.748   0.890   1.965 -0.7517 -0.5136 -2.8736
  305MOL0     H41150   4.920   0.879   1.918 -0.0504 -1.9974  2.6788
  305MOL0     H41151   4.783   1.132   2.031 -3.0082 -3.0348  0.1521
  305MOL0     H41152   4.938   1.132   1.939 -0.0439 -0.1158 -0.4988
  305MOL0     H41153   4.982   1.119   2.187 -0.9448  0.4923 -0.9006
  305MOL0     H41154   4.900   0.960   2.181 -0.3042  0.5514  1.6554
  305MOL0     H41155   4.778   0.671   1.014  1.2672 -1.2115  2.7048
  305MOL0     H41156   4.557   0.644   0.896 -3.9189  0.5205  0.1368
  305MOL0     H41157   3.945   0.679   1.087  0.3938 -0.4942  0.7149
  305MOL0     H41158   3.754   0.705   0.934  1.3113 -0.7224  1.8386
  305MOL0     H41159   2.198   1.878   0.222  0.0997  0.2724  0.2385
  305MOL0     H41160   1.944   1.842   0.240 -0.6725 -1.0659 -0.7767
  305MOL0     H41161   1.607   1.836   0.421 -3.2285 -0.2282  2.2189
  305MOL0     H41162   1.368   1.868   0.422 -2.1515 -0.6996  3.6208
  305MOL0     H41163   1.120   1.817   0.341  2.3419 -0.3775 -0.0888
  305MOL0     H41164   1.112   1.846   0.500  1.4715  1.6641 -2.4830
  305MOL0     H41165   0.890   1.768   0.381 -2.3866 -0.1782  2.3911
  305MOL0     H41166   0.932   1.663   0.525 -1.6762 -1.1815 -1.3367
  305MOL0     H41167   1.037   1.509   0.385  1.5844  1.3569 -0.5410
  305MOL0     H41168   1.023   1.611   0.248  1.2235 -2.8257 -0.3835
  305MOL0     H41169   0.773   1.535   0.399  2.0922 -1.0392  0.9164
  305MOL0     H41170   0.774   1.582   0.236 -2.1477 -1.2109  0.2284
  305MOL0     H41171   0.819   1.156   0.254 -1.3111  0.0504 -1.3320
  305MOL0     H41172   1.306   1.458   0.425 -1.2026  0.8647 -0.2804
  305MOL0     H41173   1.516   1.325   0.314  1.4542 -2.0882 -0.4637
  305MOL0     H41174   1.650   1.340   0.432  0.1999  0.7862 -2.4695
  305MOL0     H41175   1.484   1.307   0.488  0.7066 -0.2857 -0.0306
  306MOL0     O41176   8.410   4.781   2.374  0.6932  0.5800 -0.5900
  306MOL0     C41177   8.330   4.751   2.460 -0.0847 -0.8297  0.2330
  306MOL0     O41178   8.367   4.716   2.591 -0.0848  0.3750 -0.0983
  306MOL0     C41179   8.500   4.719   2.612  0.0950  0.6075 -0.5544
  306MOL0     C41180   8.558   4.825   2.667 -0.1452  0.8657 -0.3153
  306MOL0     C41181   8.694   4.821   2.694  0.5844  0.0502 -0.5019
  306MOL0     C41182   8.780   4.713   2.669  0.4743  0.7763  0.1758
  306MOL0     O41183   8.911   4.706   2.708 -0.0794  0.6182  0.3684
  306MOL0     C41184   9.000   4.733   2.587 -0.5237  0.4764 -0.0852
  306MOL0     C41185   9.152   4.731   2.626  0.0867 -0.3401  0.5114
  306MOL0     C41186   9.180   4.832   2.740 -0.2643 -0.2803  0.5773
  306MOL0     C41187   9.303   4.915   2.730 -0.3446  0.2719 -0.0058
  306MOL0     C41188   9.436   4.828   2.773  0.7360 -0.7707  1.1477
  306MOL0     C41189   9.472   4.720   2.664 -0.5890 -0.0675  0.5914
  306MOL0     C41190   9.617   4.665   2.678  0.1056 -0.1656 -0.3587
  306MOL0     C41191   9.721   4.770   2.646  0.2975  0.0240  0.1576
  306MOL0     N41192   9.845   4.692   2.621 -0.0780  0.1380 -0.0855
  306MOL0     C41193   9.916   4.630   2.716  0.4040 -0.9949 -0.4670
  306MOL0     C41194  10.011   4.568   2.648  0.2537 -0.8884 -0.1501
  306MOL0     C41195  10.126   4.496   2.704 -0.7518 -0.4213 -0.6211
  306MOL0     C41196  10.095   4.398   2.816  0.0729  0.3355 -0.8515
  306MOL0     C41197  10.072   4.256   2.763  0.0385  0.0531  0.5691
  306MOL0     C41198  10.020   4.152   2.865  0.4758  0.1092  0.5171
  306MOL0     O41199  10.037   4.019   2.833  0.3550  0.2243  0.4984
  306MOL0     C41200  10.158   3.954   2.827  0.4225 -0.1253 -0.0092
  306MOL0     C41201  10.160   3.818   2.788  0.0064 -0.0115 -0.5972
  306MOL0     C41202  10.285   3.753   2.779 -0.1550 -0.1818 -0.3730
  306MOL0     C41203  10.404   3.821   2.795 -0.2711 -0.2572 -0.1712
  306MOL0     C41204  10.536   3.767   2.764  0.7827  0.3031  0.8895
  306MOL0     O41205  10.633   3.866   2.738  0.3339 -0.2305 -0.0245
  306MOL0     C41206  10.752   3.826   2.685  0.4149  0.1411 -0.3170
  306MOL0     C41207  10.775   3.851   2.552 -0.4136 -0.0709  0.8930
  306MOL0     C41208  10.894   3.807   2.490 -0.6067  0.7949  0.3086
  306MOL0     C41209  10.986   3.731   2.563  0.1539  0.0111  0.6148
  306MOL0     O41210  11.100   3.674   2.493 -0.1534  0.2362 -0.4069
  306MOL0     C41211  11.107   3.619   2.359  0.3954 -0.3128  0.4239
  306MOL0     C41212  11.240   3.562   2.328 -0.5303 -0.6618 -0.5474
  306MOL0     C41213  11.280   3.451   2.426 -0.7114 -0.0928 -0.6032
  306MOL0     C41214  11.334   3.498   2.562 -1.4497 -0.5169 -0.3819
  306MOL0     C41215  11.395   3.389   2.650 -0.3277 -0.4509 -0.2089
  306MOL0     C41216  11.427   3.442   2.789  0.5168 -0.7398 -0.3548
  306MOL0     C41217  11.502   3.340   2.888  0.1850  0.1701 -0.2068
  306MOL0     C41218  11.525   3.411   3.012  0.2020  0.3048 -0.3009
  306MOL0    Cl41219  11.542   3.299   3.155  0.3790 -0.3977  0.0132
  306MOL0     C41220  10.967   3.715   2.701 -0.5314 -0.2172  0.2391
  306MOL0     C41221  10.851   3.758   2.768  0.7942 -0.0810  0.9668
  306MOL0     O41222  10.551   3.651   2.744  0.3911 -0.8680  0.4957
  306MOL0     C41223  10.398   3.948   2.841 -0.7417 -0.6709 -0.6558
  306MOL0     C41224  10.276   4.018   2.855 -0.4502 -0.1007 -0.9553
  306MOL0     N41225  10.008   4.609   2.516 -0.0644 -0.0734  0.0779
  306MOL0     N41226   9.909   4.693   2.505  0.6140  0.3018  0.3995
  306MOL0     C41227   8.718   4.600   2.623  0.3982  0.2245  0.4752
  306MOL0     C41228   8.582   4.603   2.589 -0.1120  0.2703 -0.1754
  306MOL0     C41229   8.195   4.764   2.428  0.2119 -0.1310 -1.2293
  306MOL0     C41230   8.104   4.754   2.540 -0.0472 -0.2224  0.2885
  306MOL0     C41231   7.960   4.766   2.525  0.1211 -0.3906 -0.1276
  306MOL0     C41232   7.902   4.781   2.402 -0.1564  0.7400 -0.3034
  306MOL0     O41233   7.776   4.814   2.381 -0.0374  0.6101 -0.0678
  306MOL0     C41234   7.679   4.841   2.482  0.3270  0.6379 -0.0547
  306MOL0     C41235   7.557   4.876   2.402 -0.2060  0.9268  0.0997
  306MOL0     C41236   7.486   4.754   2.349  0.6739  0.2559 -0.1821
  306MOL0     C41237   7.406   4.789   2.231 -0.2390 -0.1111  0.4279
  306MOL0     C41238   7.345   4.681   2.165 -0.5273  0.0305 -0.0221
  306MOL0     C41239   7.300   4.593   2.093 -1.1816 -0.6340 -0.1198
  306MOL0     C41240   7.991   4.774   2.288  0.4552 -0.6740  0.8234
  306MOL0     C41241   8.132   4.776   2.299  0.2212  0.8183 -0.1125
  306MOL0     C41242   8.216   4.757   2.174  0.7871  0.1141 -0.5445
  306MOL0     H41243   8.504   4.907   2.714 -0.6021  0.1841  0.3752
  306MOL0     H41244   8.737   4.907   2.742 -3.4804  0.7120  2.5116
  306MOL0     H41245   8.982   4.654   2.514 -1.6248  0.7189 -0.1014
  306MOL0     H41246   8.967   4.822   2.533  3.8402  2.1149 -0.4462
  306MOL0     H41247   9.205   4.756   2.533 -0.7182  0.6437  0.2880
  306MOL0     H41248   9.185   4.637   2.671 -1.7240 -0.7476  1.0925
  306MOL0     H41249   9.181   4.783   2.837 -1.4648 -0.9119  0.2854
  306MOL0     H41250   9.095   4.900   2.736 -0.9880 -1.1761 -2.9492
  306MOL0     H41251   9.311   4.955   2.628  2.7866  1.8239  0.7311
  306MOL0     H41252   9.291   4.984   2.814 -1.6399 -1.5133  1.3476
  306MOL0     H41253   9.522   4.895   2.781 -1.9742  2.8163  2.8101
  306MOL0     H41254   9.410   4.780   2.868 -1.6388 -1.2008  0.3571
  306MOL0     H41255   9.402   4.636   2.670  1.2517 -1.6331  1.2979
  306MOL0     H41256   9.477   4.759   2.562  3.2953  0.5132  0.8441
  306MOL0     H41257   9.620   4.578   2.612  2.0535  1.8122 -3.1082
  306MOL0     H41258   9.630   4.624   2.778 -3.1269  0.9352  0.6473
  306MOL0     H41259   9.692   4.832   2.561 -4.6109 -1.1004  0.7110
  306MOL0     H41260   9.728   4.843   2.728  1.2345 -1.0135  1.0389
  306MOL0     H41261   9.908   4.606   2.822  0.7208  0.8764  0.0039
  306MOL0     H41262  10.182   4.455   2.621  0.1623 -3.1031  1.1951
  306MOL0     H41263  10.196   4.573   2.739 -0.0950 -0.3865 -1.9862
  306MOL0     H41264  10.178   4.405   2.886 -1.0102  0.1011  0.4925
  306MOL0     H41265  10.007   4.432   2.871  0.9226  0.4343  0.4784
  306MOL0     H41266  10.153   4.214   2.702  0.3237  1.4984 -0.0939
  306MOL0     H41267   9.995   4.280   2.690 -0.8822  2.8481  2.2902
  306MOL0     H41268   9.912   4.166   2.877  0.5054 -0.9879  2.4741
  306MOL0     H41269  10.067   4.175   2.961 -0.0427  0.7005  0.6357
  306MOL0     H41270  10.068   3.764   2.768 -1.0804  0.6310  2.0774
  306MOL0     H41271  10.292   3.646   2.758  0.9153 -0.5518  1.6358
  306MOL0     H41272  10.692   3.900   2.503  1.3272  2.1163 -0.0180
  306MOL0     H41273  10.910   3.816   2.384 -0.2674 -0.4741  0.2362
  306MOL0     H41274  11.031   3.542   2.344 -1.5911  1.8251 -1.1999
  306MOL0     H41275  11.089   3.703   2.291 -0.1759 -0.4760  0.3686
  306MOL0     H41276  11.242   3.510   2.231  2.3928 -1.2480 -0.2904
  306MOL0     H41277  11.304   3.651   2.329 -0.3102 -0.8059  1.3835
  306MOL0     H41278  11.211   3.370   2.449  1.2246 -1.1311  2.1410
  306MOL0     H41279  11.368   3.403   2.381 -0.6483 -0.3564 -0.2010
  306MOL0     H41280  11.261   3.548   2.626  0.2347 -1.6515  2.6934
  306MOL0     H41281  11.411   3.573   2.541 -0.9892 -1.3281 -1.7286
  306MOL0     H41282  11.490   3.350   2.613  2.3184  1.8446  3.4507
  306MOL0     H41283  11.328   3.305   2.663 -0.5056 -0.2012  0.5451
  306MOL0     H41284  11.483   3.536   2.778 -0.5218  0.3331  2.5996
  306MOL0     H41285  11.329   3.464   2.831  0.0372 -1.9640 -0.8212
  306MOL0     H41286  11.594   3.294   2.851 -0.7085 -0.5123 -1.6598
  306MOL0     H41287  11.435   3.255   2.899  2.1227 -1.1292  2.6643
  306MOL0     H41288  11.616   3.467   2.989 -1.0438  1.4943 -2.7730
  306MOL0     H41289  11.444   3.479   3.041  1.4382  1.4697  0.5945
  306MOL0     H41290  11.047   3.671   2.759 -1.7943 -0.0397  2.2185
  306MOL0     H41291  10.831   3.759   2.874 -0.2399  0.1950  0.7768
  306MOL0     H41292  10.487   4.004   2.866 -1.0170  0.4337 -2.0413
  306MOL0     H41293  10.282   4.123   2.883 -1.0481 -0.2827 -0.1022
  306MOL0     H41294   8.773   4.507   2.610  1.7032  1.0238  0.0078
  306MOL0     H41295   8.531   4.516   2.548 -0.5183  0.8302 -0.8905
  306MOL0     H41296   8.146   4.747   2.639 -0.2589 -0.1666  0.3836
  306MOL0     H41297   7.911   4.755   2.621  2.1759 -0.7985  0.9422
  306MOL0     H41298   7.707   4.916   2.557 -0.5939 -1.8832  3.0446
  306MOL0     H41299   7.656   4.749   2.538 -0.3918  1.4549  1.0412
  306MOL0     H41300   7.586   4.941   2.318  0.6392 -1.8486 -1.9038
  306MOL0     H41301   7.485   4.932   2.462 -0.3092  1.2098 -0.2813
  306MOL0     H41302   7.416   4.721   2.427  1.5708 -0.1997  0.4339
  306MOL0     H41303   7.558   4.675   2.329 -1.1299 -1.2618 -0.9950
  306MOL0     H41304   7.323   4.857   2.252 -0.0768  0.5544 -0.9728
  306MOL0     H41305   7.477   4.834   2.161  0.9569 -2.2779  0.1574
  306MOL0     H41306   7.273   4.504   2.040 -1.7389 -0.7988  0.4251
  306MOL0     H41307   7.946   4.784   2.190  1.6808  1.0747  0.3973
  306MOL0     H41308   8.140   4.744   2.096  0.6036  0.9582 -0.5234
  306MOL0     H41309   8.275   4.847   2.155  0.6503 -0.0453 -1.8169
  306MOL0     H41310   8.283   4.671   2.176  1.3058  0.4713 -1.7769
  307MOL0     O41311   4.169   3.029   9.796 -0.0632 -0.0767 -0.2922
  307MOL0     C41312   4.224   2.968   9.706 -0.1720  0.0618  1.5013
  307MOL0     O41313   4.352   3.001   9.665  0.1488  1.0186 -0.2777
  307MOL0     C41314   4.445   3.031   9.760 -0.4114  0.5960 -0.3015
  307MOL0     C41315   4.429   3.018   9.904 -1.0238 -0.0308  0.3238
  307MOL0     C41316   4.531   3.075   9.986 -0.1220  0.2768  0.1810
  307MOL0     C41317   4.651   3.129   9.937 -0.4001  0.3398  0.1196
  307MOL0     O41318   4.740   3.185  10.020 -0.1092 -0.3599 -0.7648
  307MOL0     C41319   4.874   3.213   9.967 -0.3782 -0.0826 -0.1478
  307MOL0     C41320   4.967   3.291  10.063 -0.1060  0.5144  0.0739
  307MOL0     C41321   5.104   3.326  10.009  0.6586 -0.6895  0.7338
  307MOL0     C41322   5.176   3.403  10.120  0.4173  0.4205  0.1087
  307MOL0     C41323   5.308   3.455  10.082 -0.6347  0.3970 -0.5590
  307MOL0     C41324   5.373   3.539  10.195 -0.3204  0.1143  0.0486
  307MOL0     C41325   5.417   3.457  10.323 -0.4905 -0.5151 -0.2470
  307MOL0     C41326   5.431   3.556  10.441  0.5382 -0.7137 -0.0628
  307MOL0     N41327   5.545   3.652  10.419 -0.6452 -0.4209 -0.0610
  307MOL0     C41328   5.668   3.627  10.362 -0.4841  0.2714  0.3920
  307MOL0     C41329   5.737   3.748  10.363  0.1863 -0.3665 -0.6794
  307MOL0     C41330   5.877   3.766  10.315 -0.2877  0.1948 -0.4369
  307MOL0     C41331   5.972   3.807  10.428 -0.6681 -0.0140  0.2961
  307MOL0     C41332   6.121   3.775  10.398 -0.3650 -0.2361  0.0490
  307MOL0     C41333   6.220   3.839  10.503 -0.8197 -0.0228  0.8505
  307MOL0     O41334   6.352   3.830  10.436  0.3615  0.1857 -0.0538
  307MOL0     C41335   6.459   3.870  10.512 -0.0774 -0.1818  1.3523
  307MOL0     C41336   6.466   3.897  10.648 -0.0692  0.1039  0.1534
  307MOL0     C41337   6.583   3.952  10.703  0.8217 -0.4096 -0.0128
  307MOL0     C41338   6.704   3.954  10.633 -0.1837  0.2018  0.7193
  307MOL0     C41339   6.821   3.994  10.703 -0.0431 -0.5342  0.1856
  307MOL0     O41340   6.816   4.066  10.815 -0.1394 -0.0812  0.5504
  307MOL0     C41341   6.938   4.105  10.869 -1.0273 -1.2037 -0.2209
  307MOL0     C41342   6.965   4.097  11.013 -0.7211  0.4051  0.2688
  307MOL0     C41343   7.083   4.156  11.070 -0.0022  0.1916  0.3405
  307MOL0     C41344   7.180   4.223  10.992 -0.1197  0.3734  0.6518
  307MOL0     O41345   7.287   4.272  11.064 -0.6577  0.0479 -0.0273
  307MOL0     C41346   7.388   4.323  10.982  0.4518  0.5081 -0.5938
  307MOL0     C41347   7.381   4.473  11.001 -0.3858 -0.4967 -0.6374
  307MOL0     C41348   7.478   4.545  10.897 -0.1679 -0.8942  0.3813
  307MOL0     C41349   7.465   4.694  10.914  0.0712 -0.2418 -0.5724
  307MOL0     C41350   7.540   4.774  10.798 -0.3561  0.4285 -0.1691
  307MOL0     C41351   7.693   4.762  10.792 -0.2146  0.5809 -0.1643
  307MOL0     C41352   7.759   4.826  10.670  0.5427  0.4119 -0.4310
  307MOL0     C41353   7.903   4.774  10.640 -0.1181 -0.4627  0.1706
  307MOL0    Cl41354   8.010   4.825  10.773  0.0363 -0.3278  0.2207
  307MOL0     C41355   7.145   4.255  10.860  0.2749  0.2393 -0.3692
  307MOL0     C41356   7.026   4.196  10.806  0.3638  0.7476  0.3406
  307MOL0     O41357   6.922   3.953  10.651  0.1747  0.2841 -0.5483
  307MOL0     C41358   6.700   3.924  10.495 -0.2409 -0.2912 -0.1311
  307MOL0     C41359   6.577   3.892  10.442  0.2379 -0.1149  0.4404
  307MOL0     N41360   5.660   3.841  10.438  0.2443  0.5637 -0.2798
  307MOL0     N41361   5.544   3.784  10.458  1.2160 -0.2095  0.3086
  307MOL0     C41362   4.672   3.127   9.797  0.0153  0.2189  0.3256
  307MOL0     C41363   4.575   3.072   9.711 -0.3855  0.0880  0.3316
  307MOL0     C41364   4.151   2.874   9.614  0.4933  0.4878  0.4176
  307MOL0     C41365   4.210   2.843   9.488 -0.9388 -0.2835 -0.7109
  307MOL0     C41366   4.145   2.751   9.401 -0.0926 -0.3641  0.0270
  307MOL0     C41367   4.030   2.680   9.451  0.0294  0.5196 -0.0714
  307MOL0     O41368   3.991   2.572   9.378 -0.4012  0.4560  0.5798
  307MOL0     C41369   3.916   2.465   9.439  0.6478  0.0015  0.6556
  307MOL0     C41370   4.016   2.362   9.494 -0.4371 -0.5399  0.2748
  307MOL0     C41371   3.957   2.262   9.592 -0.0519  0.0274 -1.0763
  307MOL0     C41372   3.913   2.332   9.723 -0.2533 -0.6076  0.0551
  307MOL0     C41373   4.012   2.420   9.789 -0.1393 -0.4968 -0.1447
  307MOL0     C41374   4.067   2.503   9.854  0.1802  0.8938 -0.3233
  307MOL0     C41375   3.974   2.718   9.568  0.0165 -0.2918  0.2677
  307MOL0     C41376   4.031   2.811   9.645 -0.1529  0.0201  1.5192
  307MOL0     C41377   3.957   2.847   9.776 -0.3160  0.1450  0.3307
  307MOL0     H41378   4.342   2.977   9.955 -0.4701  0.2898  1.5688
  307MOL0     H41379   4.536   3.083  10.094  1.2541 -0.7583  0.2188
  307MOL0     H41380   4.912   3.116   9.934 -5.1266 -2.1802 -0.2546
  307MOL0     H41381   4.868   3.287   9.887  2.0305  2.6531  1.9969
  307MOL0     H41382   4.979   3.233  10.155 -0.4019 -1.7685 -1.2421
  307MOL0     H41383   4.915   3.386  10.079 -2.2760 -0.5616 -0.0936
  307MOL0     H41384   5.102   3.374   9.911  1.1995 -1.5117  0.3135
  307MOL0     H41385   5.160   3.234   9.991  3.7285  1.0326  0.8912
  307MOL0     H41386   5.114   3.489  10.148  0.6388  0.0169  1.9792
  307MOL0     H41387   5.188   3.342  10.210  2.8215  2.1823  1.1126
  307MOL0     H41388   5.375   3.370  10.067 -1.4323 -0.1816 -0.9041
  307MOL0     H41389   5.300   3.498   9.982 -3.2133  2.2674  0.3294
  307MOL0     H41390   5.460   3.595  10.159 -0.0846 -0.2448  0.0513
  307MOL0     H41391   5.307   3.616  10.235  1.3426  2.9229 -2.1666
  307MOL0     H41392   5.506   3.395  10.305 -0.4779 -0.0934 -1.7453
  307MOL0     H41393   5.342   3.384  10.354 -1.6860  1.3347  1.3702
  307MOL0     H41394   5.351   3.622  10.475 -1.6309 -3.8582  1.3678
  307MOL0     H41395   5.451   3.496  10.531 -2.3181 -1.5477  0.1228
  307MOL0     H41396   5.685   3.538  10.303 -0.9187  1.7983 -2.1914
  307MOL0     H41397   5.906   3.676  10.259 -1.0320  1.2430 -2.6347
  307MOL0     H41398   5.881   3.843  10.237 -1.9238  0.0438 -0.7144
  307MOL0     H41399   5.951   3.914  10.443 -1.9797  0.2049 -2.3684
  307MOL0     H41400   5.939   3.744  10.511  0.1000  1.5583  1.8540
  307MOL0     H41401   6.132   3.815  10.297 -0.5292  0.0105  0.1250
  307MOL0     H41402   6.144   3.668  10.395  0.2486 -0.0890 -1.1287
  307MOL0     H41403   6.224   3.774  10.591 -1.7801 -0.5212  0.5335
  307MOL0     H41404   6.201   3.944  10.526 -0.2916 -0.2649  2.5956
  307MOL0     H41405   6.377   3.882  10.708 -1.9486  1.0904 -2.2270
  307MOL0     H41406   6.579   3.989  10.805 -1.2460  3.6481 -1.3213
  307MOL0     H41407   6.902   4.034  11.074  0.0238 -0.2745  0.3530
  307MOL0     H41408   7.113   4.134  11.172 -2.2689  1.2328  1.3128
  307MOL0     H41409   7.482   4.295  11.031 -1.8104 -3.6075  1.9766
  307MOL0     H41410   7.386   4.277  10.883  1.3234  1.1403 -0.9107
  307MOL0     H41411   7.277   4.501  10.988 -0.5908 -1.0411 -0.2184
  307MOL0     H41412   7.418   4.495  11.102  0.5097  0.8457 -1.2310
  307MOL0     H41413   7.578   4.504  10.913  0.9253  0.9836 -1.2441
  307MOL0     H41414   7.456   4.528  10.791  2.2156  3.0987 -0.9845
  307MOL0     H41415   7.498   4.718  11.015  0.1736  2.1172 -1.1093
  307MOL0     H41416   7.360   4.726  10.916  0.3957  1.0239  3.0199
  307MOL0     H41417   7.515   4.878  10.820 -0.5751  0.8506 -2.2016
  307MOL0     H41418   7.499   4.746  10.700  1.9084 -0.8813 -0.8259
  307MOL0     H41419   7.742   4.792  10.885 -1.3463  0.2067  0.5737
  307MOL0     H41420   7.719   4.657  10.780  1.0476  0.9936 -1.2172
  307MOL0     H41421   7.760   4.935  10.674  2.3966  0.6359 -3.5195
  307MOL0     H41422   7.702   4.804  10.580  0.4324 -2.0495  0.1665
  307MOL0     H41423   7.905   4.664  10.638  1.6363 -0.4578 -1.5326
  307MOL0     H41424   7.938   4.819  10.547 -1.6699 -1.4660 -0.9416
  307MOL0     H41425   7.203   4.314  10.789  3.2344 -1.5108  0.4245
  307MOL0     H41426   7.003   4.215  10.702  3.1001 -2.7902 -1.1070
  307MOL0     H41427   6.785   3.908  10.430 -0.5534 -1.8835 -0.1753
  307MOL0     H41428   6.584   3.854  10.341  1.1246  1.3228 -0.0761
  307MOL0     H41429   4.757   3.176   9.751 -0.3022  2.4125  1.9055
  307MOL0     H41430   4.580   3.091   9.604 -2.0508  2.8809  0.6692
  307MOL0     H41431   4.304   2.885   9.453 -0.2839 -1.2671 -0.1556
  307MOL0     H41432   4.181   2.728   9.301 -3.5560 -0.5941 -1.2829
  307MOL0     H41433   3.841   2.424   9.372 -0.1831 -0.5001  1.8505
  307MOL0     H41434   3.848   2.490   9.521 -0.4032 -1.7266  0.3506
  307MOL0     H41435   4.105   2.412   9.534  2.5266 -1.8922 -3.9132
  307MOL0     H41436   4.056   2.310   9.407 -0.9849 -2.0916  0.9188
  307MOL0     H41437   4.018   2.173   9.609 -1.6409 -1.1800 -1.4056
  307MOL0     H41438   3.868   2.213   9.552 -0.8281 -0.6174  1.2865
  307MOL0     H41439   3.824   2.386   9.690 -0.7755 -1.7136 -0.4202
  307MOL0     H41440   3.876   2.259   9.795  0.5362 -2.6427 -1.4793
  307MOL0     H41441   4.133   2.577   9.896  0.6535 -0.8858  2.3378
  307MOL0     H41442   3.878   2.687   9.609  0.6025 -0.1622  1.7952
  307MOL0     H41443   3.927   2.952   9.766  1.0137  0.4008 -1.4235
  307MOL0     H41444   3.872   2.781   9.794  4.0609 -5.1337  5.6589
  307MOL0     H41445   4.021   2.840   9.865 -2.9492  1.7180  2.5102
  308MOL0     O41446   6.341   7.052   7.479 -0.1308  0.4948  0.0140
  308MOL0     C41447   6.265   6.953   7.451  0.0639 -0.0616  1.2353
  308MOL0     O41448   6.299   6.841   7.377  0.2424  0.0340 -0.2826
  308MOL0     C41449   6.415   6.854   7.307  0.0401 -0.1244  0.2867
  308MOL0     C41450   6.430   6.942   7.198  0.0590  0.2672 -0.5989
  308MOL0     C41451   6.552   6.942   7.127 -1.1768  0.4271 -0.0726
  308MOL0     C41452   6.666   6.865   7.171  0.5589  0.3304 -0.0336
  308MOL0     O41453   6.780   6.869   7.095 -0.4422 -1.0016  0.0206
  308MOL0     C41454   6.868   6.972   7.147  0.1032  0.6603  1.3142
  308MOL0     C41455   6.908   7.071   7.037 -0.7112 -0.7015  0.0873
  308MOL0     C41456   7.003   7.183   7.080  0.1437 -0.2903 -0.0277
  308MOL0     C41457   7.140   7.143   7.064 -0.9565  0.5112 -0.0972
  308MOL0     C41458   7.228   7.256   7.109 -0.6062  0.7296  0.1896
  308MOL0     C41459   7.374   7.223   7.130 -0.7618  0.8409 -0.2405
  308MOL0     C41460   7.393   7.119   7.250  0.1456  0.3568  0.4480
  308MOL0     C41461   7.322   7.160   7.376 -0.3032  0.1315  0.1546
  308MOL0     N41462   7.333   7.302   7.425 -0.2133  0.2047  0.5385
  308MOL0     C41463   7.465   7.345   7.447 -0.5037  0.1358 -0.0594
  308MOL0     C41464   7.454   7.470   7.494 -0.6291 -0.0496  1.3583
  308MOL0     C41465   7.571   7.563   7.537  0.6692 -0.7906 -0.5667
  308MOL0     C41466   7.606   7.665   7.427  0.1776 -0.3452  0.3512
  308MOL0     C41467   7.753   7.679   7.455 -0.1315 -0.6644 -0.7415
  308MOL0     C41468   7.809   7.792   7.370 -0.1269 -0.0854  0.1094
  308MOL0     O41469   7.948   7.761   7.330  0.5265  0.2118 -0.0973
  308MOL0     C41470   8.056   7.746   7.412 -0.0132 -0.0672 -0.5711
  308MOL0     C41471   8.064   7.777   7.546  0.0970  0.0705 -0.4360
  308MOL0     C41472   8.175   7.741   7.622 -0.2533 -0.1978  0.7068
  308MOL0     C41473   8.282   7.673   7.564  0.2115  0.5819  0.3749
  308MOL0     C41474   8.414   7.649   7.642  0.1195  0.6393 -0.0690
  308MOL0     O41475   8.417   7.699   7.773 -0.4363  0.2257 -0.9097
  308MOL0     C41476   8.543   7.691   7.831  0.7055  0.3962 -1.0638
  308MOL0     C41477   8.642   7.781   7.832  0.2904 -0.3374  0.1324
  308MOL0     C41478   8.760   7.766   7.902 -0.0389 -0.6031  0.2820
  308MOL0     C41479   8.774   7.649   7.988 -0.2340  0.0234  0.1248
  308MOL0     O41480   8.875   7.619   8.076 -0.6024  0.6658  0.4648
  308MOL0     C41481   8.977   7.714   8.107  0.4770  0.0171 -0.9151
  308MOL0     C41482   9.108   7.704   8.024  0.6750 -0.5628  0.0107
  308MOL0     C41483   9.220   7.624   8.096  0.3898 -0.5443  0.2463
  308MOL0     C41484   9.342   7.620   7.996 -0.0575 -0.3298  0.1895
  308MOL0     C41485   9.473   7.574   8.073  0.7264  0.1759 -0.2555
  308MOL0     C41486   9.585   7.597   7.975 -0.4358 -0.1278 -0.0533
  308MOL0     C41487   9.714   7.544   8.039 -0.2923  0.6662  0.1843
  308MOL0     C41488   9.846   7.576   7.965 -0.2175  0.3607  1.0977
  308MOL0    Cl41489   9.835   7.525   7.787 -0.2990  0.5101  0.6206
  308MOL0     C41490   8.673   7.562   7.991  0.2275  0.5751 -0.4173
  308MOL0     C41491   8.558   7.572   7.911  0.7161 -0.4082 -0.0321
  308MOL0     O41492   8.510   7.601   7.578  0.7475 -0.3374  0.1225
  308MOL0     C41493   8.274   7.633   7.426 -0.4960 -0.3011  0.6297
  308MOL0     C41494   8.160   7.679   7.353 -0.1998  0.0977 -0.2087
  308MOL0     N41495   7.324   7.503   7.510  0.8196 -0.2327 -0.0547
  308MOL0     N41496   7.248   7.401   7.467  0.5375 -0.5134 -0.1096
  308MOL0     C41497   6.642   6.771   7.270  0.3550  0.5473  0.6401
  308MOL0     C41498   6.517   6.767   7.335  0.9422  0.8875  0.7058
  308MOL0     C41499   6.146   6.935   7.529  0.3670 -0.1827 -0.2077
  308MOL0     C41500   6.043   6.871   7.461 -0.6630  0.4368  0.4002
  308MOL0     C41501   5.918   6.856   7.510  0.2529 -0.1080 -0.3492
  308MOL0     C41502   5.898   6.899   7.643  1.4963 -0.3439 -0.4050
  308MOL0     O41503   5.771   6.883   7.695 -0.4139 -0.8367  0.2168
  308MOL0     C41504   5.717   6.998   7.765  0.5122 -0.0562  0.4430
  308MOL0     C41505   5.574   7.006   7.715 -0.4218 -0.3551  0.6095
  308MOL0     C41506   5.483   7.098   7.791  0.2176 -0.7527  0.8330
  308MOL0     C41507   5.455   7.055   7.931  0.5236  0.9058 -0.0127
  308MOL0     C41508   5.376   7.153   8.013 -0.3566  0.1015 -0.2580
  308MOL0     C41509   5.312   7.243   8.074  0.5569  0.7861  0.9803
  308MOL0     C41510   6.001   6.949   7.723  0.0397 -0.7340 -0.5842
  308MOL0     C41511   6.130   6.974   7.667  0.0466  0.0653  0.8323
  308MOL0     C41512   6.241   7.019   7.756 -0.1541  0.9878  0.1486
  308MOL0     H41513   6.349   7.014   7.189  1.9378  2.4834 -0.7615
  308MOL0     H41514   6.554   7.005   7.039  1.8865 -0.8112 -1.0295
  308MOL0     H41515   6.836   7.018   7.241  2.7220  1.6621  1.8056
  308MOL0     H41516   6.967   6.939   7.183  2.0239  2.6330 -1.7332
  308MOL0     H41517   6.815   7.116   7.003  0.4977 -0.6766 -3.6484
  308MOL0     H41518   6.949   7.018   6.950 -2.6206 -1.1443 -0.5969
  308MOL0     H41519   6.976   7.219   7.179 -1.4289  1.3945 -1.0003
  308MOL0     H41520   6.994   7.267   7.010  0.9964  0.5681  0.8632
  308MOL0     H41521   7.151   7.061   7.136 -3.6181 -1.0664 -1.3481
  308MOL0     H41522   7.166   7.107   6.964 -3.2875 -1.0244 -0.2264
  308MOL0     H41523   7.230   7.321   7.020 -1.6342  3.2723  1.8960
  308MOL0     H41524   7.179   7.315   7.187 -4.2657 -1.6315 -0.0669
  308MOL0     H41525   7.425   7.184   7.041 -0.6806 -1.1039  0.6119
  308MOL0     H41526   7.426   7.315   7.159 -2.5465  1.8216 -0.0549
  308MOL0     H41527   7.499   7.102   7.266  0.8149  1.4922 -2.2055
  308MOL0     H41528   7.354   7.019   7.233  0.4405  0.3877 -0.4296
  308MOL0     H41529   7.214   7.148   7.364 -0.4491 -2.9598  3.0317
  308MOL0     H41530   7.351   7.097   7.461  1.3422  0.2499 -0.2778
  308MOL0     H41531   7.561   7.303   7.418 -0.6079  1.2571 -2.2231
  308MOL0     H41532   7.530   7.636   7.607  2.1368 -0.6673  0.1920
  308MOL0     H41533   7.652   7.502   7.575 -0.4052 -0.2779  2.8886
  308MOL0     H41534   7.604   7.628   7.324 -0.2175  0.5854  0.0158
  308MOL0     H41535   7.552   7.758   7.442  0.8954 -0.4083  4.2808
  308MOL0     H41536   7.809   7.589   7.430 -2.1529 -1.6507 -1.9629
  308MOL0     H41537   7.780   7.713   7.556  2.1984  0.2723 -1.6087
  308MOL0     H41538   7.808   7.891   7.418  0.8320  1.2764 -2.5072
  308MOL0     H41539   7.748   7.803   7.280  0.0396  0.9881  0.1130
  308MOL0     H41540   7.982   7.833   7.590 -1.0555 -1.8472 -0.0136
  308MOL0     H41541   8.193   7.780   7.722 -2.4398  0.8552  0.7438
  308MOL0     H41542   8.635   7.872   7.773  3.0313 -1.3981 -2.0671
  308MOL0     H41543   8.846   7.832   7.904 -1.7373  1.7126  0.4734
  308MOL0     H41544   8.941   7.818   8.104  3.0133  0.9440 -2.3896
  308MOL0     H41545   9.006   7.698   8.211 -1.4826 -0.8008 -0.4452
  308MOL0     H41546   9.087   7.654   7.929  0.8965 -0.8996  0.1378
  308MOL0     H41547   9.150   7.802   7.998 -1.4446  0.2545 -0.5313
  308MOL0     H41548   9.245   7.677   8.188  0.1408  2.8323 -1.4847
  308MOL0     H41549   9.182   7.524   8.121  0.5083 -0.5682  0.3272
  308MOL0     H41550   9.365   7.720   7.958 -2.1518 -0.4384 -1.5073
  308MOL0     H41551   9.332   7.550   7.912  0.1708  0.5520 -0.5876
  308MOL0     H41552   9.462   7.469   8.103  1.4419  0.1143 -0.1877
  308MOL0     H41553   9.482   7.618   8.173 -4.9440 -1.3211  1.2872
  308MOL0     H41554   9.567   7.544   7.881  3.4473  0.2157 -1.1828
  308MOL0     H41555   9.599   7.704   7.954  2.9845 -0.9332 -2.8301
  308MOL0     H41556   9.711   7.435   8.045  1.2842  0.5279 -0.9524
  308MOL0     H41557   9.735   7.583   8.139  0.8964 -1.5268  0.8483
  308MOL0     H41558   9.859   7.682   7.988  1.6907  0.1858  0.9948
  308MOL0     H41559   9.918   7.514   8.019 -0.8565 -1.2064  0.2412
  308MOL0     H41560   8.679   7.478   8.059  0.0204  0.2803 -0.7629
  308MOL0     H41561   8.479   7.498   7.909 -1.2139  1.5548 -1.5671
  308MOL0     H41562   8.352   7.581   7.371 -1.4015  0.0530 -1.0684
  308MOL0     H41563   8.147   7.647   7.251 -4.1235 -3.1370  1.0283
  308MOL0     H41564   6.734   6.722   7.301  0.6530 -1.5944 -3.0796
  308MOL0     H41565   6.490   6.707   7.421 -1.9304  3.6691  1.9163
  308MOL0     H41566   6.060   6.830   7.362 -2.1298 -0.5515  0.5421
  308MOL0     H41567   5.855   6.817   7.431  2.7799 -1.3136 -1.8764
  308MOL0     H41568   5.774   7.090   7.750  1.2249 -0.9172 -2.9276
  308MOL0     H41569   5.728   6.966   7.869  2.5391  0.9908  0.5956
  308MOL0     H41570   5.530   6.906   7.708  2.2564 -1.5124 -1.2146
  308MOL0     H41571   5.590   7.034   7.611  1.2196  0.3305  0.9984
  308MOL0     H41572   5.389   7.106   7.736  2.4168 -1.6291 -3.5276
  308MOL0     H41573   5.532   7.195   7.791  0.8186 -1.0106 -1.4969
  308MOL0     H41574   5.405   6.959   7.944  3.3327 -0.2478  4.5815
  308MOL0     H41575   5.548   7.045   7.988  1.4249  2.1494 -1.1966
  308MOL0     H41576   5.244   7.307   8.127 -0.5451  2.7562 -2.5392
  308MOL0     H41577   5.983   6.963   7.829 -1.6308 -2.6900 -0.5445
  308MOL0     H41578   6.309   6.934   7.766 -3.8696 -2.0442  2.6205
  308MOL0     H41579   6.293   7.114   7.739  0.3204  0.7486  0.2197
  308MOL0     H41580   6.197   7.037   7.855 -1.3679 -0.1556 -0.1712
  309MOL0     O41581   4.845   0.608   0.734 -0.1290  0.3187 -0.0537
  309MOL0     C41582   4.838   0.509   0.655 -0.9584  0.1866  0.4338
  309MOL0     O41583   4.947   0.434   0.615 -0.0325  0.4081 -0.0048
  309MOL0     C41584   5.064   0.481   0.660  0.2962 -0.2963  0.0426
  309MOL0     C41585   5.093   0.468   0.798 -0.1747 -0.4752  0.1318
  309MOL0     C41586   5.215   0.514   0.850 -0.8874  0.2329  0.7783
  309MOL0     C41587   5.320   0.565   0.768  0.0610  0.3179  0.2900
  309MOL0     O41588   5.435   0.607   0.825  0.1508 -0.9360 -0.3150
  309MOL0     C41589   5.479   0.731   0.794  0.1043 -0.5756  0.2845
  309MOL0     C41590   5.612   0.774   0.879  0.7681 -0.3402  0.2318
  309MOL0     C41591   5.710   0.657   0.887  0.6954  0.2906  0.3191
  309MOL0     C41592   5.813   0.686   0.991  0.4745  0.5262  0.7365
  309MOL0     C41593   5.878   0.565   1.060  1.0538 -0.1743 -0.4040
  309MOL0     C41594   5.964   0.492   0.961 -0.2164 -0.0566  0.2436
  309MOL0     C41595   6.027   0.357   1.006  0.5774  0.0231 -0.6474
  309MOL0     C41596   6.139   0.372   1.110 -0.7026 -0.3166  0.0759
  309MOL0     N41597   6.274   0.421   1.050  0.3411  0.5594  0.3443
  309MOL0     C41598   6.360   0.340   0.971  0.0717  0.2375 -0.0347
  309MOL0     C41599   6.474   0.414   0.961  0.4947 -0.4535 -0.4713
  309MOL0     C41600   6.590   0.372   0.878 -0.2836  0.3855  0.3669
  309MOL0     C41601   6.690   0.328   0.982 -0.0811  0.1517  0.6465
  309MOL0     C41602   6.787   0.218   0.929  0.5843 -0.4614  0.0026
  309MOL0     C41603   6.928   0.234   0.970 -0.7974 -0.0546 -0.9125
  309MOL0     O41604   6.995   0.328   0.891 -0.1100 -0.3306  0.2829
  309MOL0     C41605   7.132   0.339   0.888 -0.2860 -0.2038  0.7068
  309MOL0     C41606   7.211   0.305   0.993  0.0081  0.5470  0.0920
  309MOL0     C41607   7.351   0.322   0.985 -0.0058 -0.2588  0.1804
  309MOL0     C41608   7.416   0.369   0.867  0.2568 -0.0320 -0.2276
  309MOL0     C41609   7.568   0.375   0.852  0.0086  0.3345  0.0545
  309MOL0     O41610   7.649   0.342   0.954 -0.0657 -0.2877 -0.5455
  309MOL0     C41611   7.782   0.354   0.929 -0.8441  0.5255 -0.1149
  309MOL0     C41612   7.867   0.237   0.947  0.2819 -0.1607  0.0981
  309MOL0     C41613   8.006   0.245   0.917  0.3556 -0.4485 -0.5674
  309MOL0     C41614   8.067   0.377   0.881 -1.0292  0.2964  0.0624
  309MOL0     O41615   8.204   0.385   0.855  0.0621  0.7081 -0.4432
  309MOL0     C41616   8.289   0.279   0.901  0.0677  0.7772  0.6354
  309MOL0     C41617   8.433   0.318   0.873 -0.2579  0.6674  0.8504
  309MOL0     C41618   8.537   0.206   0.901  0.7175 -0.0870 -1.0018
  309MOL0     C41619   8.681   0.245   0.885 -0.6506  0.5390  1.0180
  309MOL0     C41620   8.762   0.121   0.924  0.0353  0.1425  0.2983
  309MOL0     C41621   8.912   0.140   0.902  0.4574  0.0875  0.7377
  309MOL0     C41622   8.969   0.007   0.949  0.8703  0.1037 -0.0857
  309MOL0     C41623   9.118  -0.002   0.889 -0.5138  0.1187 -0.1426
  309MOL0    Cl41624   9.164  -0.178   0.890  0.0511 -0.5445 -0.2585
  309MOL0     C41625   7.981   0.482   0.856 -0.2294  1.1090 -0.3205
  309MOL0     C41626   7.840   0.469   0.871 -0.9927  0.0472  0.3251
  309MOL0     O41627   7.608   0.405   0.739  0.0060 -0.2393 -0.4263
  309MOL0     C41628   7.332   0.408   0.764 -0.0632  1.0247  0.5308
  309MOL0     C41629   7.192   0.393   0.772  0.0197 -0.1216 -0.4254
  309MOL0     N41630   6.466   0.542   1.021 -0.1715  0.1409  0.0137
  309MOL0     N41631   6.348   0.535   1.079 -0.0170  0.1629  1.0696
  309MOL0     C41632   5.288   0.561   0.628 -1.2019  0.3147 -0.3170
  309MOL0     C41633   5.164   0.533   0.578 -0.1905  0.0785  0.2142
  309MOL0     C41634   4.700   0.472   0.617  0.0458 -0.3571 -0.4452
  309MOL0     C41635   4.652   0.336   0.620 -0.0258 -0.5399  0.4298
  309MOL0     C41636   4.515   0.308   0.606  0.4648 -0.3864 -0.3378
  309MOL0     C41637   4.426   0.411   0.578  0.8740 -0.7051  0.2128
  309MOL0     O41638   4.291   0.408   0.572  0.0149  0.2172  0.2153
  309MOL0     C41639   4.230   0.282   0.608 -0.4791 -0.3828 -0.1959
  309MOL0     C41640   4.234   0.182   0.491  0.3554 -0.4656  1.1216
  309MOL0     C41641   4.140   0.233   0.378 -0.1965 -0.3731 -0.4525
  309MOL0     C41642   3.999   0.250   0.417  0.6427  0.4613  0.2996
  309MOL0     C41643   3.969   0.384   0.469  0.3866 -0.7679  0.0907
  309MOL0     C41644   3.944   0.478   0.535  0.8566 -0.4727  0.4445
  309MOL0     C41645   4.471   0.540   0.566  0.2597 -0.6004 -0.1917
  309MOL0     C41646   4.608   0.572   0.583 -0.1171 -0.1717 -0.3575
  309MOL0     C41647   4.646   0.718   0.581  0.8418  0.7065 -0.1348
  309MOL0     H41648   5.023   0.430   0.872  0.1659  1.6347  1.6089
  309MOL0     H41649   5.232   0.487   0.954  2.8476 -1.0614  0.0042
  309MOL0     H41650   5.485   0.732   0.685 -3.2565  0.4021  0.0022
  309MOL0     H41651   5.404   0.803   0.830 -0.3362 -2.7320  4.2600
  309MOL0     H41652   5.573   0.806   0.976  1.5466  0.5579  0.2605
  309MOL0     H41653   5.651   0.869   0.840 -2.2054  1.8048  2.0379
  309MOL0     H41654   5.761   0.627   0.796 -0.7885 -2.4833  0.2701
  309MOL0     H41655   5.657   0.565   0.912 -0.7558  0.4116 -2.0129
  309MOL0     H41656   5.887   0.747   0.938  1.1778 -1.3831 -0.5859
  309MOL0     H41657   5.776   0.744   1.076  0.9825  2.7132 -0.4649
  309MOL0     H41658   5.928   0.605   1.148  0.4863 -2.1188  0.8605
  309MOL0     H41659   5.794   0.509   1.104 -0.9403  3.4652  0.8122
  309MOL0     H41660   5.902   0.473   0.873 -1.1237 -1.0364  1.0677
  309MOL0     H41661   6.049   0.551   0.926 -2.5295  3.1565 -0.4098
  309MOL0     H41662   6.067   0.304   0.919  4.6701 -0.2379  1.1544
  309MOL0     H41663   5.953   0.300   1.064  1.5614  2.7054  3.6828
  309MOL0     H41664   6.111   0.439   1.192  0.2941 -2.0980  1.9556
  309MOL0     H41665   6.156   0.281   1.167  1.3986 -0.2005 -0.2854
  309MOL0     H41666   6.337   0.240   0.938 -1.1473  0.5383 -0.1563
  309MOL0     H41667   6.558   0.302   0.800  2.0238  1.1519 -1.3838
  309MOL0     H41668   6.618   0.463   0.824 -2.3263  0.3884 -0.7655
  309MOL0     H41669   6.750   0.416   1.006 -0.5490  0.5990  0.1958
  309MOL0     H41670   6.645   0.297   1.078  0.3249  1.1990  1.1912
  309MOL0     H41671   6.772   0.215   0.821  0.0646  2.7110 -0.0881
  309MOL0     H41672   6.736   0.130   0.969 -2.4214  1.2935  0.3584
  309MOL0     H41673   6.977   0.137   0.960 -0.4503 -0.3440  2.4709
  309MOL0     H41674   6.933   0.255   1.077  0.6789  2.7548 -1.4421
  309MOL0     H41675   7.171   0.261   1.084  3.4463 -1.2990  0.8712
  309MOL0     H41676   7.413   0.307   1.073  1.5976  3.8196 -0.0265
  309MOL0     H41677   7.817   0.145   0.975 -1.9927 -0.2197 -3.4929
  309MOL0     H41678   8.058   0.154   0.945  0.7058 -0.1104 -0.0996
  309MOL0     H41679   8.264   0.255   1.005 -4.3350  1.9989  0.0806
  309MOL0     H41680   8.276   0.190   0.839 -0.9267  2.8380 -2.3468
  309MOL0     H41681   8.436   0.334   0.765  1.6611  1.2050  0.9437
  309MOL0     H41682   8.461   0.416   0.913  0.5408  1.0631 -0.6174
  309MOL0     H41683   8.517   0.170   1.002 -0.7933  1.5445 -0.6549
  309MOL0     H41684   8.510   0.129   0.829 -3.9217 -0.0389  0.3740
  309MOL0     H41685   8.717   0.335   0.934  1.4140  1.1084 -1.3456
  309MOL0     H41686   8.701   0.262   0.778 -0.4099 -3.8663  0.1719
  309MOL0     H41687   8.725   0.035   0.868 -2.1569  1.1195  0.1581
  309MOL0     H41688   8.740   0.114   1.031  3.6685  1.9423  1.3335
  309MOL0     H41689   8.925   0.153   0.794  1.3518 -2.0837  0.5221
  309MOL0     H41690   8.945   0.220   0.968 -2.0554 -0.0505  2.2790
  309MOL0     H41691   8.911  -0.075   0.906  0.4018  0.1081  0.5309
  309MOL0     H41692   8.977  -0.009   1.057 -0.7544 -2.7260 -0.2784
  309MOL0     H41693   9.124   0.041   0.789  1.1361 -0.8306 -0.4965
  309MOL0     H41694   9.185   0.052   0.957 -1.2013 -0.3589  0.9599
  309MOL0     H41695   8.015   0.574   0.808  0.5079  0.1817 -1.6128
  309MOL0     H41696   7.767   0.549   0.866 -1.6457 -0.5027  0.6508
  309MOL0     H41697   7.379   0.448   0.675 -0.8352  0.0392 -0.3455
  309MOL0     H41698   7.127   0.439   0.697  1.0231  0.1227 -1.1622
  309MOL0     H41699   5.359   0.602   0.557 -0.6078  2.0898  1.2386
  309MOL0     H41700   5.147   0.543   0.471  0.7227  0.6817  0.1171
  309MOL0     H41701   4.722   0.255   0.605 -0.3820 -0.8085  0.2025
  309MOL0     H41702   4.477   0.206   0.611  2.2968 -1.0450  1.6823
  309MOL0     H41703   4.129   0.302   0.644  0.7426  0.7271  2.9813
  309MOL0     H41704   4.277   0.228   0.690 -0.4636 -0.4523 -0.2505
  309MOL0     H41705   4.203   0.081   0.519 -1.4114 -0.3328 -0.1920
  309MOL0     H41706   4.329   0.164   0.439 -0.5647  0.7985 -1.1026
  309MOL0     H41707   4.149   0.164   0.294  0.8082 -2.0131  0.9326
  309MOL0     H41708   4.169   0.333   0.343 -0.7084  0.3356  1.0536
  309MOL0     H41709   3.947   0.237   0.321 -0.4488  1.3200  0.7484
  309MOL0     H41710   3.956   0.182   0.491  0.9367  0.7241  0.7144
  309MOL0     H41711   3.913   0.557   0.601 -2.7800 -1.7711  0.5197
  309MOL0     H41712   4.401   0.620   0.543  2.3276  0.4488 -3.4865
  309MOL0     H41713   4.745   0.735   0.538  0.9864  0.4017  0.0731
  309MOL0     H41714   4.572   0.765   0.515 -3.9631 -2.5424  2.3139
  309MOL0     H41715   4.643   0.766   0.679 -0.3754 -0.3565  0.3817
  310MOL0     O41716  11.123   8.896   3.761  0.1046 -0.4232 -0.0510
  310MOL0     C41717  11.101   8.940   3.873 -0.0961  0.6246 -0.2510
  310MOL0     O41718  11.186   8.995   3.949 -0.3905  0.0080 -0.0482
  310MOL0     C41719  11.321   8.974   3.932 -0.4548 -0.4320 -0.0860
  310MOL0     C41720  11.408   9.082   3.935  0.5320 -0.1175 -0.2706
  310MOL0     C41721  11.545   9.072   3.931 -0.2604 -0.2380 -1.0857
  310MOL0     C41722  11.603   8.941   3.906 -0.0567  0.4286 -0.5777
  310MOL0     O41723  11.735   8.919   3.859 -0.4271  0.1607  0.4206
  310MOL0     C41724  11.814   9.038   3.855 -0.4900  0.4661 -0.3297
  310MOL0     C41725  11.939   9.015   3.760  0.5667  0.0980 -0.3052
  310MOL0     C41726  11.902   8.964   3.622  0.1079 -0.0117 -0.0634
  310MOL0     C41727  12.017   8.968   3.519  0.5779 -0.0268 -0.4062
  310MOL0     C41728  12.078   9.113   3.492 -0.2777  1.0574 -0.8203
  310MOL0     C41729  12.157   9.122   3.365 -0.2937 -0.3930  0.2682
  310MOL0     C41730  12.205   9.267   3.346 -0.1163  0.3740 -0.2183
  310MOL0     C41731  12.319   9.313   3.433 -1.4717 -0.0158 -0.7867
  310MOL0     N41732  12.376   9.438   3.379  0.7232  0.5480 -0.5452
  310MOL0     C41733  12.508   9.475   3.398  0.5826 -0.0730 -0.1446
  310MOL0     C41734  12.513   9.607   3.351  0.2016  0.5446 -1.4804
  310MOL0     C41735  12.632   9.693   3.324  0.2202  0.2527 -0.2172
  310MOL0     C41736  12.723   9.637   3.216  0.0654  0.3863  0.4116
  310MOL0     C41737  12.827   9.745   3.198  0.6546 -0.3657 -0.0775
  310MOL0     C41738  12.932   9.703   3.092  0.5841 -0.6221 -0.2172
  310MOL0     O41739  13.014   9.815   3.052 -0.1922 -0.0420 -0.3721
  310MOL0     C41740  13.142   9.798   2.995  0.2711  0.7352 -0.2065
  310MOL0     C41741  13.223   9.683   2.993 -0.0536  0.3601 -0.7858
  310MOL0     C41742  13.348   9.675   2.928 -0.3263  1.0225 -0.2178
  310MOL0     C41743  13.390   9.789   2.853 -0.5865  0.8397  0.0959
  310MOL0     C41744  13.501   9.784   2.755  0.2058 -0.0088 -0.2494
  310MOL0     O41745  13.545   9.655   2.741 -0.2829 -0.3627  0.3363
  310MOL0     C41746  13.644   9.622   2.653 -0.1004 -0.5361  0.4408
  310MOL0     C41747  13.742   9.530   2.695  0.3208  0.2410  0.6564
  310MOL0     C41748  13.829   9.475   2.600  0.0897 -0.0392  1.1137
  310MOL0     C41749  13.833   9.512   2.463 -0.2561 -0.2715  0.3843
  310MOL0     O41750  13.920   9.461   2.372 -0.3867 -0.2979 -0.0771
  310MOL0     C41751  14.054   9.454   2.424  0.2245 -0.2554  0.0043
  310MOL0     C41752  14.160   9.481   2.319 -0.6457 -0.0013  0.1230
  310MOL0     C41753  14.298   9.427   2.355  0.1831  1.0342 -0.3798
  310MOL0     C41754  14.398   9.429   2.239  0.0945  0.1214 -0.3704
  310MOL0     C41755  14.542   9.409   2.287  0.0176  0.1148 -0.3399
  310MOL0     C41756  14.629   9.492   2.190 -0.2744 -0.5669 -1.3588
  310MOL0     C41757  14.779   9.463   2.203 -1.3270  1.0187 -0.6866
  310MOL0     C41758  14.851   9.501   2.073 -0.1343  0.4603 -0.1712
  310MOL0    Cl41759  15.038   9.449   2.082  0.6549  0.2097 -0.1172
  310MOL0     C41760  13.733   9.601   2.423 -0.4269  0.5157 -0.3643
  310MOL0     C41761  13.647   9.663   2.520  0.4156 -0.7420 -0.3762
  310MOL0     O41762  13.533   9.882   2.686  0.3598  0.8526  0.4576
  310MOL0     C41763  13.327   9.910   2.882  0.5997  1.0086 -0.3664
  310MOL0     C41764  13.206   9.915   2.956  0.1740 -0.1079 -0.7991
  310MOL0     N41765  12.387   9.652   3.327 -0.3442 -0.1827 -0.4701
  310MOL0     N41766  12.308   9.549   3.336  0.0556 -0.5241  0.2624
  310MOL0     C41767  11.514   8.829   3.886  0.2646  0.8264  0.4394
  310MOL0     C41768  11.379   8.844   3.925  0.4086  0.3050 -0.9132
  310MOL0     C41769  10.968   8.926   3.928  1.1002 -0.0941 -0.8842
  310MOL0     C41770  10.925   9.040   4.005  0.0244 -0.3743 -0.2743
  310MOL0     C41771  10.788   9.054   4.045  0.4252  0.0876 -0.1300
  310MOL0     C41772  10.702   8.944   4.031 -0.7217  0.3520 -0.5812
  310MOL0     O41773  10.577   8.935   4.094 -0.2498 -0.0796 -0.0501
  310MOL0     C41774  10.537   9.036   4.198 -0.1519  0.5122 -0.1576
  310MOL0     C41775  10.399   8.998   4.242 -0.2336  0.2059 -0.0461
  310MOL0     C41776  10.330   9.095   4.336 -0.2898 -0.8776  0.3306
  310MOL0     C41777  10.188   9.044   4.362  0.0476 -0.3192 -0.4278
  310MOL0     C41778  10.115   9.120   4.464  0.4889 -0.0147 -0.2087
  310MOL0     C41779  10.053   9.190   4.541  0.6274  0.0634  0.0044
  310MOL0     C41780  10.747   8.832   3.960 -0.0270  0.3521  0.7099
  310MOL0     C41781  10.878   8.824   3.900  0.6964  0.4796  0.5602
  310MOL0     C41782  10.902   8.701   3.815 -0.0024  0.1820 -0.4534
  310MOL0     H41783  11.352   9.175   3.938 -0.6177 -0.8083  1.4291
  310MOL0     H41784  11.613   9.155   3.941  0.2672 -0.2695 -3.6445
  310MOL0     H41785  11.760   9.126   3.817 -3.4035 -1.0550 -0.0055
  310MOL0     H41786  11.871   9.057   3.946  2.1423 -1.4177 -1.4627
  310MOL0     H41787  12.010   8.945   3.804  0.7461 -0.1742 -1.0095
  310MOL0     H41788  11.980   9.116   3.751  0.9402 -0.0262 -0.0235
  310MOL0     H41789  11.808   9.012   3.591  0.1980 -0.9595 -1.9617
  310MOL0     H41790  11.862   8.864   3.643 -3.0675  1.4973  1.8459
  310MOL0     H41791  12.096   8.901   3.557  1.9353  2.0807  0.6796
  310MOL0     H41792  11.981   8.935   3.421 -1.7556  1.0673  0.0096
  310MOL0     H41793  11.996   9.183   3.477  0.5117  2.4055  0.8129
  310MOL0     H41794  12.132   9.144   3.582 -0.0144 -0.7167 -0.3245
  310MOL0     H41795  12.230   9.042   3.351 -2.3800 -2.0019 -2.6347
  310MOL0     H41796  12.087   9.105   3.282 -2.0773 -1.8278  1.9739
  310MOL0     H41797  12.123   9.338   3.353  1.1342  1.9748 -1.0845
  310MOL0     H41798  12.242   9.269   3.243  0.6749 -0.2495  0.0396
  310MOL0     H41799  12.288   9.324   3.537  2.3593 -1.6645  0.7391
  310MOL0     H41800  12.391   9.230   3.439 -1.1967  0.2403 -0.5283
  310MOL0     H41801  12.578   9.407   3.445  0.1021  0.5812  1.5789
  310MOL0     H41802  12.603   9.797   3.303  2.4313  1.5020  2.3613
  310MOL0     H41803  12.693   9.696   3.414 -0.2249 -1.1404  0.1580
  310MOL0     H41804  12.781   9.551   3.251 -0.2694 -0.7692 -1.7809
  310MOL0     H41805  12.660   9.625   3.128  0.1655  2.1724  0.0520
  310MOL0     H41806  12.868   9.771   3.296  0.5808 -0.1047 -0.1159
  310MOL0     H41807  12.773   9.834   3.165 -1.3383 -1.7757 -0.8955
  310MOL0     H41808  12.874   9.680   3.002 -1.0677 -0.2418  0.7153
  310MOL0     H41809  12.986   9.613   3.123 -0.8165 -1.0996  0.9497
  310MOL0     H41810  13.183   9.595   3.043  2.2783 -0.4303 -0.1713
  310MOL0     H41811  13.406   9.583   2.933 -1.1355  0.5708  2.7587
  310MOL0     H41812  13.716   9.486   2.791  0.9406  3.6322  2.5328
  310MOL0     H41813  13.895   9.398   2.640  1.9771  0.1881 -1.3290
  310MOL0     H41814  14.067   9.515   2.514  3.0114 -1.8769  0.8248
  310MOL0     H41815  14.072   9.356   2.468  1.1258  0.0940  0.4588
  310MOL0     H41816  14.139   9.429   2.225 -0.5727 -1.5587  0.9262
  310MOL0     H41817  14.176   9.586   2.293  2.7043 -0.5965 -0.6997
  310MOL0     H41818  14.336   9.483   2.441 -0.9201 -0.0434  0.8651
  310MOL0     H41819  14.279   9.323   2.386 -0.3019  0.4158 -2.5572
  310MOL0     H41820  14.388   9.528   2.193  0.6077  0.1432 -0.4454
  310MOL0     H41821  14.375   9.356   2.161  0.6679 -1.2560  0.7082
  310MOL0     H41822  14.562   9.302   2.288  0.7136  0.1878 -2.2630
  310MOL0     H41823  14.559   9.450   2.387  0.7715 -0.7687 -0.0998
  310MOL0     H41824  14.607   9.464   2.086  1.0998  1.0225 -2.1211
  310MOL0     H41825  14.605   9.599   2.201 -0.4273 -0.6499 -0.8395
  310MOL0     H41826  14.791   9.358   2.231 -0.7864  1.1874 -0.2569
  310MOL0     H41827  14.820   9.524   2.284 -0.5669  0.5465 -0.7005
  310MOL0     H41828  14.805   9.447   1.990  0.8597  2.5399 -2.1944
  310MOL0     H41829  14.839   9.607   2.052  0.6449  0.4662 -0.6283
  310MOL0     H41830  13.713   9.639   2.323 -3.4843  0.9412  0.3015
  310MOL0     H41831  13.566   9.723   2.480  2.3017  1.1936 -1.4584
  310MOL0     H41832  13.365  10.005   2.846 -1.5796  2.2160  0.3132
  310MOL0     H41833  13.144  10.005   2.964 -2.1167 -1.6461 -0.0904
  310MOL0     H41834  11.547   8.730   3.857  0.0200  1.1852 -1.1327
  310MOL0     H41835  11.308   8.762   3.913 -1.2763  1.9892 -3.2939
  310MOL0     H41836  10.981   9.126   4.041 -1.3741  1.0845 -1.4469
  310MOL0     H41837  10.755   9.142   4.099  0.7156 -0.7611  1.5257
  310MOL0     H41838  10.544   9.141   4.170 -0.3231  0.5374 -0.1030
  310MOL0     H41839  10.607   9.011   4.278  0.4779 -0.4835 -0.9945
  310MOL0     H41840  10.412   8.906   4.300 -1.1177 -0.8491 -1.4904
  310MOL0     H41841  10.336   8.978   4.156  2.5656 -1.0513 -1.9670
  310MOL0     H41842  10.320   9.190   4.283  1.5127  0.0599  1.5506
  310MOL0     H41843  10.379   9.125   4.430 -0.9581  4.3901 -0.6805
  310MOL0     H41844  10.143   9.054   4.263 -2.6070 -3.2321  0.3449
  310MOL0     H41845  10.190   8.937   4.381  2.8534 -0.4825 -1.1662
  310MOL0     H41846   9.989   9.250   4.602  0.8286 -0.0497  0.3326
  310MOL0     H41847  10.682   8.745   3.957  1.8552 -1.1067  0.3732
  310MOL0     H41848  10.971   8.631   3.862  2.6138  0.9507 -2.8912
  310MOL0     H41849  10.813   8.644   3.784  1.0550 -0.4079 -2.5896
  310MOL0     H41850  10.945   8.732   3.719  0.4273  0.8412 -0.0491
  311MOL0     O41851  11.112   2.903   9.185  0.3445  0.3427 -0.9699
  311MOL0     C41852  11.079   2.869   9.302  0.3629 -0.3430 -0.5601
  311MOL0     O41853  11.151   2.868   9.414 -0.1775 -0.1913 -0.2092
  311MOL0     C41854  11.283   2.901   9.396 -0.4722 -0.2811  0.6739
  311MOL0     C41855  11.382   2.811   9.354 -0.3429  0.2843 -0.4923
  311MOL0     C41856  11.512   2.845   9.354 -0.6659 -0.0106  0.4698
  311MOL0     C41857  11.543   2.978   9.391  1.2841  0.7877  0.7115
  311MOL0     O41858  11.672   3.009   9.382  1.0575 -0.4619 -0.1357
  311MOL0     C41859  11.716   3.076   9.497 -0.0462  0.1402  0.1629
  311MOL0     C41860  11.864   3.043   9.513  0.0289 -0.0212  0.2124
  311MOL0     C41861  11.900   2.907   9.562 -0.3991  0.2657  0.0497
  311MOL0     C41862  12.053   2.868   9.570  0.8594  0.5053 -0.7034
  311MOL0     C41863  12.086   2.745   9.657  0.3206  0.9561  0.2767
  311MOL0     C41864  12.102   2.617   9.572  0.6917 -0.2590  0.0130
  311MOL0     C41865  12.135   2.489   9.653  0.0686  0.0640  0.7128
  311MOL0     C41866  12.274   2.504   9.735 -0.2723 -0.0759 -0.9634
  311MOL0     N41867  12.319   2.382   9.801 -0.7362  0.9319 -0.4048
  311MOL0     C41868  12.346   2.359   9.932 -0.3492 -0.6693 -0.4687
  311MOL0     C41869  12.357   2.231   9.959 -0.5050 -0.4139 -0.2703
  311MOL0     C41870  12.387   2.161  10.077  0.0178 -0.9894  0.2083
  311MOL0     C41871  12.510   2.062  10.049  0.7254 -0.9603  0.6138
  311MOL0     C41872  12.634   2.141   9.996  0.0091  1.0033 -1.2949
  311MOL0     C41873  12.750   2.051   9.983  0.6385 -0.3201 -0.1559
  311MOL0     O41874  12.825   2.095   9.872 -0.2954 -0.6154  0.2039
  311MOL0     C41875  12.954   2.058   9.858 -1.9015  0.0916  0.3910
  311MOL0     C41876  13.011   2.077   9.735 -0.1714 -0.4099  0.1649
  311MOL0     C41877  13.144   2.050   9.717 -0.7419  0.7246  0.5088
  311MOL0     C41878  13.231   1.988   9.814  0.4403  0.0642  1.1340
  311MOL0     C41879  13.378   1.952   9.774 -0.3758 -0.0584  0.6349
  311MOL0     O41880  13.459   1.897   9.869 -0.4138  0.5252  0.0216
  311MOL0     C41881  13.594   1.880   9.844  0.2100 -0.2036  0.7128
  311MOL0     C41882  13.678   1.968   9.766 -0.7411  0.3500 -0.1470
  311MOL0     C41883  13.811   1.919   9.752 -0.8026  0.0380  0.7943
  311MOL0     C41884  13.864   1.807   9.828 -0.0499  0.0024  1.0166
  311MOL0     O41885  13.995   1.765   9.817 -0.2198 -0.2056 -0.3408
  311MOL0     C41886  14.011   1.669   9.713 -0.4764  0.0972 -0.2494
  311MOL0     C41887  14.156   1.615   9.706 -0.2670  0.1170 -0.3702
  311MOL0     C41888  14.188   1.568   9.852  0.4795 -0.4014  0.4966
  311MOL0     C41889  14.321   1.504   9.856  0.6676 -0.2614  0.6470
  311MOL0     C41890  14.323   1.384   9.950  0.1374  0.6976  0.0468
  311MOL0     C41891  14.454   1.319   9.954  0.1216  0.7669 -0.5898
  311MOL0     C41892  14.448   1.225  10.077  0.1782 -0.4464 -0.3826
  311MOL0     C41893  14.576   1.140  10.098  0.2869  0.0941  0.0344
  311MOL0    Cl41894  14.721   1.253  10.098  0.1673 -0.6190  0.3672
  311MOL0     C41895  13.781   1.736   9.905  0.4793  0.0366 -0.6213
  311MOL0     C41896  13.650   1.777   9.920  0.5000  0.4985  0.2830
  311MOL0     O41897  13.407   1.965   9.655 -0.5923  0.2778 -0.0074
  311MOL0     C41898  13.164   1.956   9.931 -0.5138 -0.7260 -0.6374
  311MOL0     C41899  13.033   1.988   9.956 -0.5334 -0.8527  0.5833
  311MOL0     N41900  12.321   2.174   9.839 -0.9744  0.4255 -0.6032
  311MOL0     N41901  12.302   2.258   9.742  0.0991  0.6233 -0.4524
  311MOL0     C41902  11.441   3.073   9.412 -0.2413  1.3989 -0.2164
  311MOL0     C41903  11.311   3.030   9.422  0.4836  0.3507  0.1295
  311MOL0     C41904  10.939   2.824   9.317 -0.1270 -0.0747 -0.1141
  311MOL0     C41905  10.841   2.925   9.333  0.5052  0.2406  0.3156
  311MOL0     C41906  10.704   2.891   9.342 -0.1212 -0.3934 -1.0319
  311MOL0     C41907  10.661   2.762   9.332  0.5295  0.9868  1.6495
  311MOL0     O41908  10.536   2.712   9.310 -0.0028 -0.3543 -0.0741
  311MOL0     C41909  10.432   2.813   9.298  0.1256  0.2760  0.3839
  311MOL0     C41910  10.305   2.760   9.241  0.2577  0.1419  0.5883
  311MOL0     C41911  10.334   2.676   9.120  0.0841 -0.6103  0.1739
  311MOL0     C41912  10.229   2.690   9.002  0.3139 -0.9891 -0.9694
  311MOL0     C41913  10.096   2.653   9.050  0.0788  0.4422 -0.4446
  311MOL0     C41914   9.981   2.634   9.058  0.2369  0.4853 -0.1163
  311MOL0     C41915  10.760   2.667   9.316 -0.0079 -0.1010  0.4024
  311MOL0     C41916  10.897   2.694   9.301  0.0523  0.1081  0.9032
  311MOL0     C41917  10.989   2.578   9.276 -0.6068 -0.1251  0.0335
  311MOL0     H41918  11.356   2.713   9.315 -1.2142  1.0782 -1.9510
  311MOL0     H41919  11.591   2.777   9.324 -0.9618  0.2970 -1.0900
  311MOL0     H41920  11.705   3.184   9.484 -0.8933  0.3089  1.9227
  311MOL0     H41921  11.662   3.051   9.589 -0.0654 -1.0344 -0.1509
  311MOL0     H41922  11.910   3.110   9.586  3.4080 -3.2524  1.3334
  311MOL0     H41923  11.918   3.065   9.421 -0.3971 -1.4842 -0.4125
  311MOL0     H41924  11.848   2.829   9.505  1.0878 -1.0685  0.4412
  311MOL0     H41925  11.860   2.905   9.663  0.9479  2.5959  0.6974
  311MOL0     H41926  12.091   2.858   9.467 -1.1445 -0.9771 -1.3650
  311MOL0     H41927  12.100   2.953   9.619  2.5074 -1.0124  0.4831
  311MOL0     H41928  12.185   2.766   9.698  1.3184 -0.6246 -1.1605
  311MOL0     H41929  12.017   2.726   9.740 -0.2820 -0.3886 -0.4976
  311MOL0     H41930  12.008   2.604   9.518  0.3511  0.2928  0.4698
  311MOL0     H41931  12.177   2.623   9.492 -0.4129 -3.9930 -1.5202
  311MOL0     H41932  12.141   2.402   9.587 -4.1716 -0.2819  0.4822
  311MOL0     H41933  12.063   2.463   9.732  1.7837  1.3225  2.8193
  311MOL0     H41934  12.351   2.537   9.666 -0.6159 -0.2651 -1.4411
  311MOL0     H41935  12.264   2.583   9.810  1.6657  0.1091 -0.8491
  311MOL0     H41936  12.339   2.433  10.011 -0.2601 -0.7553 -0.3802
  311MOL0     H41937  12.418   2.230  10.157 -3.3844  1.2209 -0.2048
  311MOL0     H41938  12.293   2.116  10.110 -1.3157  0.9980 -0.7175
  311MOL0     H41939  12.551   2.048  10.150  0.8077 -0.5623  0.6359
  311MOL0     H41940  12.489   1.970   9.993  0.4068  0.2727 -1.3865
  311MOL0     H41941  12.656   2.223  10.066 -1.0659  0.0282  0.2567
  311MOL0     H41942  12.624   2.196   9.902  0.1563 -0.4007 -2.1537
  311MOL0     H41943  12.715   1.951   9.956  0.3256  0.1429 -1.5130
  311MOL0     H41944  12.807   2.042  10.076  0.9658  0.0416 -0.3176
  311MOL0     H41945  12.956   2.119   9.651 -0.7556  1.1554  1.2658
  311MOL0     H41946  13.190   2.064   9.620 -2.3323  3.7679  0.0854
  311MOL0     H41947  13.641   2.061   9.724  0.1953  3.3700  4.8605
  311MOL0     H41948  13.886   1.969   9.692 -1.2430  0.3107  0.4736
  311MOL0     H41949  13.947   1.587   9.744  0.6851 -0.8085 -0.1801
  311MOL0     H41950  13.984   1.706   9.614 -1.1623 -0.8965 -0.4433
  311MOL0     H41951  14.169   1.538   9.630 -3.2399  0.1263 -1.0336
  311MOL0     H41952  14.207   1.707   9.675 -1.7385  0.8272 -0.8145
  311MOL0     H41953  14.178   1.652   9.921 -0.8190  0.1806 -0.3499
  311MOL0     H41954  14.113   1.495   9.886 -1.6390  1.4237 -0.0310
  311MOL0     H41955  14.397   1.580   9.879 -0.8951  1.0931  1.5812
  311MOL0     H41956  14.348   1.481   9.753  3.6927  1.9885  0.7903
  311MOL0     H41957  14.245   1.317   9.911  1.1561 -0.2378 -0.4297
  311MOL0     H41958  14.284   1.409  10.049  0.2566  0.4214  0.1658
  311MOL0     H41959  14.470   1.265   9.860 -2.2344  1.3010 -1.3589
  311MOL0     H41960  14.534   1.393   9.962  0.4314  0.2716  1.8759
  311MOL0     H41961  14.365   1.159  10.050  1.2821 -1.8973 -0.3251
  311MOL0     H41962  14.416   1.280  10.165 -0.6851  1.3029 -1.7237
  311MOL0     H41963  14.564   1.086  10.193  1.0714  0.1814  0.1951
  311MOL0     H41964  14.579   1.069  10.014  0.6133  1.3292 -1.0229
  311MOL0     H41965  13.819   1.657   9.969 -0.9937  1.5817  2.3728
  311MOL0     H41966  13.590   1.725   9.993 -1.0435  0.3568 -1.0219
  311MOL0     H41967  13.220   1.911  10.013 -2.2652 -0.8944  0.5209
  311MOL0     H41968  12.983   1.955  10.046 -3.0380  2.4161  0.6238
  311MOL0     H41969  11.456   3.179   9.427  0.8763  1.7744 -3.2648
  311MOL0     H41970  11.232   3.092   9.463  0.5143 -0.4445  1.4737
  311MOL0     H41971  10.863   3.031   9.344  2.1339 -0.0231 -0.0994
  311MOL0     H41972  10.637   2.976   9.356 -0.1637 -0.6350  0.4893
  311MOL0     H41973  10.474   2.894   9.237  0.7435 -0.3943 -0.1008
  311MOL0     H41974  10.410   2.849   9.399 -1.4978  1.4044 -0.3389
  311MOL0     H41975  10.249   2.851   9.218  0.4512  0.4885  1.4304
  311MOL0     H41976  10.242   2.701   9.309  1.9152 -2.3837  0.0646
  311MOL0     H41977  10.361   2.573   9.147  2.0094 -0.8505 -2.2722
  311MOL0     H41978  10.423   2.719   9.074 -0.5524  1.5846  0.9045
  311MOL0     H41979  10.231   2.787   8.951 -0.9448  0.4289  1.4770
  311MOL0     H41980  10.264   2.625   8.922  0.7360  0.0825 -1.6729
  311MOL0     H41981   9.877   2.614   9.075  0.7360 -0.3357  2.4046
  311MOL0     H41982  10.737   2.562   9.328 -2.3510  0.0715 -1.7019
  311MOL0     H41983  10.931   2.487   9.292  0.2229 -1.2451 -2.7781
  311MOL0     H41984  11.018   2.579   9.171 -1.8359  2.7301 -0.3880
  311MOL0     H41985  11.069   2.587   9.350 -1.8679  1.1885  1.3315
  312MOL0     O41986   0.391   7.645   2.149  0.9223 -0.0661 -0.0738
  312MOL0     C41987   0.316   7.558   2.180 -0.2396 -0.4528  0.4895
  312MOL0     O41988   0.350   7.430   2.188 -0.1349  0.1179 -0.6452
  312MOL0     C41989   0.473   7.387   2.229 -0.5049 -0.1245  0.4261
  312MOL0     C41990   0.506   7.257   2.192  0.1402 -0.0224 -0.1461
  312MOL0     C41991   0.627   7.204   2.228 -0.4254 -0.6297  0.2014
  312MOL0     C41992   0.716   7.279   2.304  0.9451  0.4769 -0.4039
  312MOL0     O41993   0.832   7.222   2.355 -0.0393 -0.5334  0.1605
  312MOL0     C41994   0.863   7.093   2.328 -0.7082 -0.3323 -0.5621
  312MOL0     C41995   0.958   7.040   2.442 -0.1703  0.2024  0.4574
  312MOL0     C41996   1.073   7.123   2.476 -0.2833 -0.4893  0.4586
  312MOL0     C41997   1.196   7.057   2.546  0.8694  0.6782  0.0667
  312MOL0     C41998   1.319   7.152   2.556 -0.1101  0.1570  0.7553
  312MOL0     C41999   1.411   7.086   2.659 -0.9814  1.0291 -0.6560
  312MOL0     C42000   1.462   6.945   2.624  0.2428  1.1785  0.9265
  312MOL0     C42001   1.387   6.823   2.685  0.0286  0.9745 -0.2937
  312MOL0     N42002   1.477   6.728   2.749  0.1192  0.0642 -0.7383
  312MOL0     C42003   1.548   6.638   2.681 -0.1677 -0.8483  0.0424
  312MOL0     C42004   1.596   6.566   2.783  0.7358  0.0539  0.2360
  312MOL0     C42005   1.666   6.432   2.754  0.6226 -0.6226 -0.1590
  312MOL0     C42006   1.813   6.456   2.722 -0.4974  0.4612  0.8052
  312MOL0     C42007   1.889   6.328   2.700 -0.3120 -0.1611  0.4296
  312MOL0     C42008   2.037   6.379   2.695 -0.3284  0.0792 -0.2339
  312MOL0     O42009   2.076   6.396   2.825 -0.4777 -0.3335  0.0238
  312MOL0     C42010   2.208   6.400   2.855  0.3976 -0.0497 -0.3333
  312MOL0     C42011   2.312   6.378   2.764 -0.3353  0.0735 -0.2314
  312MOL0     C42012   2.441   6.395   2.804 -0.3731 -1.0052 -0.1849
  312MOL0     C42013   2.485   6.426   2.938  0.6986  0.7417  0.0329
  312MOL0     C42014   2.623   6.444   2.965 -0.0766 -0.4699 -0.2500
  312MOL0     O42015   2.707   6.441   2.856 -0.1416 -0.1427  0.0769
  312MOL0     C42016   2.838   6.388   2.878 -0.3238  0.2118  0.7772
  312MOL0     C42017   2.867   6.256   2.895 -0.6898  0.3095 -0.5936
  312MOL0     C42018   2.997   6.215   2.928 -0.0386  0.2700  0.5144
  312MOL0     C42019   3.101   6.314   2.934  0.1959  0.1062  0.9517
  312MOL0     O42020   3.234   6.292   2.961 -0.7685  0.2762 -0.4916
  312MOL0     C42021   3.276   6.163   3.001 -0.0271 -0.0867 -0.7802
  312MOL0     C42022   3.428   6.161   3.030 -0.4213 -0.3593  0.0755
  312MOL0     C42023   3.464   6.233   3.161 -0.5086 -0.5709 -0.2297
  312MOL0     C42024   3.400   6.189   3.297 -0.2257 -0.5039  0.1084
  312MOL0     C42025   3.406   6.035   3.321  0.3876  0.0643 -0.5129
  312MOL0     C42026   3.546   5.974   3.328 -0.1776 -0.2955 -0.7746
  312MOL0     C42027   3.612   5.999   3.467  0.7395 -0.5008 -0.0025
  312MOL0     C42028   3.724   5.905   3.497 -0.5171 -0.1028 -0.5271
  312MOL0    Cl42029   3.809   5.956   3.643 -0.0998  0.0349 -0.0848
  312MOL0     C42030   3.069   6.450   2.911  0.2043  0.2855  1.1212
  312MOL0     C42031   2.935   6.488   2.883 -0.3962 -0.7999  0.1309
  312MOL0     O42032   2.659   6.448   3.086  0.3273  1.0627 -0.6630
  312MOL0     C42033   2.389   6.427   3.035  0.6400  0.2675 -0.4107
  312MOL0     C42034   2.252   6.407   2.991  0.2276  0.0491  0.0008
  312MOL0     N42035   1.566   6.613   2.911 -0.0783  0.1595  0.8303
  312MOL0     N42036   1.479   6.705   2.888  0.4628 -0.6928  0.3938
  312MOL0     C42037   0.690   7.406   2.337 -0.1886 -0.3288  0.6590
  312MOL0     C42038   0.564   7.457   2.301 -0.3526  0.3019  0.0346
  312MOL0     C42039   0.166   7.601   2.180 -0.4057  0.2498 -0.4037
  312MOL0     C42040   0.128   7.724   2.126 -0.9256 -0.7746 -0.6873
  312MOL0     C42041  -0.007   7.765   2.126  0.3312 -0.3156 -0.4257
  312MOL0     C42042  -0.100   7.688   2.196  0.9557  0.4451  0.4376
  312MOL0     O42043  -0.232   7.730   2.206 -0.0556 -0.7672 -0.2436
  312MOL0     C42044  -0.297   7.763   2.082  0.1558 -0.3812 -0.0091
  312MOL0     C42045  -0.448   7.763   2.099 -0.2528  0.9727 -0.0939
  312MOL0     C42046  -0.499   7.868   2.195  0.4504 -0.2107  0.3516
  312MOL0     C42047  -0.649   7.854   2.225  0.3788 -0.0315 -0.3673
  312MOL0     C42048  -0.696   7.971   2.301 -0.4704 -0.3263 -0.7600
  312MOL0     C42049  -0.752   8.067   2.356 -0.0878 -0.4149 -0.0074
  312MOL0     C42050  -0.071   7.569   2.257  0.4865 -0.2929  1.2390
  312MOL0     C42051   0.068   7.529   2.255 -0.0802 -0.0968 -0.2316
  312MOL0     C42052   0.100   7.406   2.344 -0.0224 -0.4891  0.5761
  312MOL0     H42053   0.430   7.207   2.134  0.3351  1.7215 -2.0117
  312MOL0     H42054   0.645   7.102   2.194  1.8982 -0.4633  0.7220
  312MOL0     H42055   0.780   7.021   2.333 -0.6564 -0.3476  0.3773
  312MOL0     H42056   0.910   7.079   2.230  0.6429 -1.5909  0.2100
  312MOL0     H42057   1.006   6.945   2.416 -1.4100 -0.6554  1.1611
  312MOL0     H42058   0.899   7.032   2.534  0.4035  1.5516  0.9629
  312MOL0     H42059   1.044   7.205   2.542  0.3458  0.6408 -0.6214
  312MOL0     H42060   1.113   7.165   2.383 -2.6858 -2.1574 -1.4421
  312MOL0     H42061   1.166   7.015   2.642 -1.5425  1.6286 -0.2059
  312MOL0     H42062   1.234   6.974   2.487 -0.5541 -0.0223  0.1187
  312MOL0     H42063   1.378   7.163   2.465  0.8762  2.0178  1.5617
  312MOL0     H42064   1.282   7.249   2.592 -2.9217 -1.6355  3.1280
  312MOL0     H42065   1.499   7.152   2.659 -1.0844  1.2217 -2.5559
  312MOL0     H42066   1.367   7.078   2.758 -2.1856 -4.0710 -1.3171
  312MOL0     H42067   1.564   6.941   2.664 -0.0279 -4.0895  1.8693
  312MOL0     H42068   1.470   6.931   2.516  2.3869 -1.7219  1.3433
  312MOL0     H42069   1.314   6.866   2.754  0.7236  4.9666 -1.7597
  312MOL0     H42070   1.326   6.781   2.604 -2.1329  1.0967  1.1938
  312MOL0     H42071   1.553   6.619   2.574  0.0652  2.8196 -0.7111
  312MOL0     H42072   1.650   6.373   2.844  1.2908  1.2286  1.2497
  312MOL0     H42073   1.620   6.383   2.668  1.7029  0.8623 -1.6419
  312MOL0     H42074   1.818   6.521   2.634  3.5363  1.4304  1.5322
  312MOL0     H42075   1.853   6.515   2.805 -0.1912 -0.7112  1.5198
  312MOL0     H42076   1.862   6.277   2.608 -0.0224  1.2253 -0.4606
  312MOL0     H42077   1.882   6.268   2.791 -2.1222 -1.6657 -0.6477
  312MOL0     H42078   2.067   6.466   2.635  3.0293 -0.6393  0.2298
  312MOL0     H42079   2.088   6.297   2.645 -0.7688  0.8298 -1.9861
  312MOL0     H42080   2.283   6.358   2.662  0.9596  1.3291 -0.8825
  312MOL0     H42081   2.520   6.394   2.728  0.6258 -1.4822  0.8292
  312MOL0     H42082   2.784   6.185   2.892  0.6403 -1.2661 -1.5537
  312MOL0     H42083   3.021   6.110   2.936  1.9688  0.6412 -0.0261
  312MOL0     H42084   3.219   6.128   3.088 -2.5229  1.0664 -1.8420
  312MOL0     H42085   3.248   6.094   2.921 -1.2219 -2.4968  1.5322
  312MOL0     H42086   3.451   6.054   3.038  1.5746  0.0590  0.5130
  312MOL0     H42087   3.493   6.200   2.951  0.9646 -3.7318 -0.6163
  312MOL0     H42088   3.568   6.208   3.187 -0.2653 -0.6554 -1.2594
  312MOL0     H42089   3.457   6.341   3.149  2.2976 -0.2961 -0.1535
  312MOL0     H42090   3.296   6.223   3.304  0.4008  1.2236  2.7432
  312MOL0     H42091   3.449   6.231   3.385 -0.1263 -0.6920  0.1432
  312MOL0     H42092   3.355   5.986   3.237  0.5992  1.0498 -1.2328
  312MOL0     H42093   3.350   6.005   3.411  0.6992 -0.9318 -0.6420
  312MOL0     H42094   3.526   5.867   3.328 -1.7218 -0.0319 -1.1722
  312MOL0     H42095   3.605   6.006   3.241  0.1107  0.1119 -0.4326
  312MOL0     H42096   3.546   5.971   3.549 -0.1466 -1.1456 -0.9187
  312MOL0     H42097   3.651   6.101   3.479  2.4541 -1.3882  3.1598
  312MOL0     H42098   3.685   5.803   3.504 -0.2096 -0.1528  0.6295
  312MOL0     H42099   3.794   5.903   3.413  1.3899  0.1427  0.9920
  312MOL0     H42100   3.151   6.522   2.912  1.4623 -1.0280 -0.4273
  312MOL0     H42101   2.911   6.584   2.840  0.3093 -1.0336 -0.8144
  312MOL0     H42102   2.425   6.452   3.134  1.3295 -2.2664  0.0419
  312MOL0     H42103   2.173   6.420   3.063 -1.6967 -1.6891 -1.6312
  312MOL0     H42104   0.752   7.469   2.401 -3.2870  4.4535 -0.5283
  312MOL0     H42105   0.536   7.560   2.319 -4.5030 -0.5260 -0.6949
  312MOL0     H42106   0.198   7.789   2.073 -1.3945 -0.8745 -1.4476
  312MOL0     H42107  -0.023   7.866   2.090 -0.2310 -0.8408 -1.7190
  312MOL0     H42108  -0.267   7.707   1.993 -0.5932  1.3611 -1.4103
  312MOL0     H42109  -0.263   7.863   2.054  3.7849 -1.8107 -1.2987
  312MOL0     H42110  -0.476   7.666   2.141  3.1781  0.7182  2.0738
  312MOL0     H42111  -0.498   7.778   2.003  0.2977  0.9405 -0.3918
  312MOL0     H42112  -0.487   7.965   2.145 -3.5237  0.8920  1.2229
  312MOL0     H42113  -0.448   7.874   2.291 -0.1470 -2.3389  0.8473
  312MOL0     H42114  -0.707   7.861   2.132  2.0013  0.8160 -1.3721
  312MOL0     H42115  -0.683   7.758   2.265  0.1300 -0.3691 -1.3575
  312MOL0     H42116  -0.791   8.148   2.415 -1.3185 -2.0266  1.4725
  312MOL0     H42117  -0.149   7.512   2.306  0.1346  1.0910  2.3802
  312MOL0     H42118   0.198   7.418   2.390  0.9621  2.0232 -1.9154
  312MOL0     H42119   0.019   7.396   2.416 -1.9868  1.2300 -1.2426
  312MOL0     H42120   0.112   7.315   2.283 -1.8128  0.1648 -0.8464
  313MOL0     O42121   0.356   6.358   0.422 -0.5426 -0.7786 -0.0693
  313MOL0     C42122   0.247   6.327   0.375 -0.0100  0.5974 -0.0572
  313MOL0     O42123   0.211   6.192   0.369  0.7642 -0.4622  0.4927
  313MOL0     C42124   0.276   6.080   0.416 -0.4054 -0.4124 -0.4302
  313MOL0     C42125   0.353   6.082   0.530 -0.3460 -0.6148  0.1261
  313MOL0     C42126   0.417   5.962   0.557  0.1655  0.7439  0.2984
  313MOL0     C42127   0.397   5.838   0.487  0.8092  0.2072 -0.3533
  313MOL0     O42128   0.453   5.720   0.519 -0.2135 -0.2750 -0.1788
  313MOL0     C42129   0.531   5.714   0.642  0.5137  0.9838  0.3574
  313MOL0     C42130   0.570   5.571   0.672 -0.3362 -0.5307 -0.0044
  313MOL0     C42131   0.453   5.477   0.675 -0.5007 -0.1919 -0.7259
  313MOL0     C42132   0.492   5.340   0.730 -0.3518  0.6053 -0.2183
  313MOL0     C42133   0.391   5.226   0.720 -0.5802 -1.2224 -0.0109
  313MOL0     C42134   0.458   5.086   0.726  0.0326 -0.2264 -0.3349
  313MOL0     C42135   0.528   5.048   0.589 -0.7906 -0.5392 -1.0728
  313MOL0     C42136   0.667   4.982   0.603 -0.5783 -0.8086  0.4199
  313MOL0     N42137   0.785   5.070   0.617 -0.2222 -0.6060 -0.5391
  313MOL0     C42138   0.813   5.178   0.541  0.3599  0.6125  0.7341
  313MOL0     C42139   0.931   5.229   0.594 -0.1265 -0.5710  0.1554
  313MOL0     C42140   1.002   5.357   0.553 -0.6832 -0.4321 -0.6357
  313MOL0     C42141   1.068   5.334   0.422 -0.4749  0.6938 -0.0410
  313MOL0     C42142   1.207   5.391   0.424  0.3441 -0.4921  0.2226
  313MOL0     C42143   1.272   5.385   0.279  0.2294 -0.3127 -0.2795
  313MOL0     O42144   1.391   5.461   0.272 -0.4267 -0.1082  0.0559
  313MOL0     C42145   1.510   5.417   0.329  0.0725  0.7697 -0.5489
  313MOL0     C42146   1.527   5.287   0.381 -0.4740  0.4997  0.2848
  313MOL0     C42147   1.648   5.255   0.440 -0.1072 -0.2439  0.4427
  313MOL0     C42148   1.751   5.343   0.445  0.2496  0.4769  0.3168
  313MOL0     C42149   1.885   5.305   0.503 -0.4007  0.1394 -0.0478
  313MOL0     O42150   1.888   5.177   0.545  0.4008 -0.2436 -0.7665
  313MOL0     C42151   1.993   5.128   0.616  0.1114  0.5102 -0.3760
  313MOL0     C42152   1.976   5.029   0.716  0.1473  0.2289 -0.0581
  313MOL0     C42153   2.080   4.973   0.778 -0.0327  1.7870  0.0569
  313MOL0     C42154   2.213   5.010   0.742 -0.8696 -1.2630  0.0336
  313MOL0     O42155   2.321   4.964   0.810  0.3714  0.7423  0.5314
  313MOL0     C42156   2.445   4.959   0.741 -0.9046 -1.5835 -0.1601
  313MOL0     C42157   2.551   4.887   0.826 -0.1356  0.1638 -0.0705
  313MOL0     C42158   2.533   4.740   0.821  0.3722 -0.0069 -0.0073
  313MOL0     C42159   2.633   4.678   0.912 -0.1296 -0.9953  0.0987
  313MOL0     C42160   2.644   4.524   0.907  0.2983  0.6416 -0.4617
  313MOL0     C42161   2.667   4.462   0.768 -0.2150 -0.1675 -0.3736
  313MOL0     C42162   2.783   4.511   0.690 -0.5341 -0.1655 -0.9327
  313MOL0     C42163   2.814   4.411   0.573  0.1793  0.0788 -0.1609
  313MOL0    Cl42164   2.978   4.445   0.503 -0.1320 -0.2492  0.0212
  313MOL0     C42165   2.231   5.103   0.645  0.4565  0.3657  0.3469
  313MOL0     C42166   2.131   5.156   0.577  0.2454  1.6146  0.5315
  313MOL0     O42167   1.973   5.383   0.512 -0.9822 -0.2845 -0.8321
  313MOL0     C42168   1.739   5.471   0.390 -0.0482 -0.0632  0.1445
  313MOL0     C42169   1.616   5.506   0.342 -0.6020 -0.1826 -0.6185
  313MOL0     N42170   0.970   5.154   0.706 -0.1642 -0.3331  0.7053
  313MOL0     N42171   0.871   5.068   0.720 -0.0064  0.0549  0.3673
  313MOL0     C42172   0.310   5.849   0.376  0.4448  0.0980 -0.8568
  313MOL0     C42173   0.250   5.962   0.342  0.4796 -0.5692  0.7014
  313MOL0     C42174   0.156   6.426   0.324  0.8265  1.1410  0.6015
  313MOL0     C42175   0.060   6.386   0.224  0.9689 -0.0467 -0.0946
  313MOL0     C42176  -0.032   6.474   0.167  0.2468 -0.0372  0.4090
  313MOL0     C42177  -0.022   6.609   0.206 -0.0417 -0.4350  0.0365
  313MOL0     O42178  -0.098   6.716   0.158 -0.9377  0.1141 -0.1624
  313MOL0     C42179  -0.239   6.692   0.166  0.0571  0.3017 -0.3235
  313MOL0     C42180  -0.302   6.829   0.146 -0.1132 -0.4712  0.2436
  313MOL0     C42181  -0.293   6.885  -0.004 -0.2120  0.0536  0.1113
  313MOL0     C42182  -0.403   6.822  -0.095 -0.4110 -0.4731  0.6308
  313MOL0     C42183  -0.536   6.860  -0.053  0.2203  0.1963  0.0660
  313MOL0     C42184  -0.644   6.879  -0.001 -0.6335  1.3232  1.0075
  313MOL0     C42185   0.075   6.646   0.296  0.7114 -0.1028  0.4778
  313MOL0     C42186   0.162   6.563   0.357 -0.1656 -0.8316  0.5947
  313MOL0     C42187   0.251   6.623   0.465  0.3010 -1.0260  1.5253
  313MOL0     H42188   0.381   6.172   0.583  0.8021 -0.9995  0.2167
  313MOL0     H42189   0.493   5.971   0.634 -0.4535 -1.6038  1.2759
  313MOL0     H42190   0.626   5.763   0.620  0.3205  0.7706 -1.0498
  313MOL0     H42191   0.475   5.755   0.727  1.1671  1.1810  0.6949
  313MOL0     H42192   0.600   5.567   0.777 -3.8635 -5.5184  1.1976
  313MOL0     H42193   0.644   5.533   0.601 -0.8583 -2.6717  0.5470
  313MOL0     H42194   0.404   5.461   0.578  1.2078 -2.2115 -1.3257
  313MOL0     H42195   0.384   5.519   0.748 -1.8354 -2.6215 -0.4646
  313MOL0     H42196   0.582   5.299   0.683 -0.6196 -0.9697  0.5692
  313MOL0     H42197   0.509   5.357   0.837 -0.5375  1.4938 -0.3187
  313MOL0     H42198   0.340   5.236   0.816  0.1398 -0.7099  0.3222
  313MOL0     H42199   0.321   5.238   0.637 -3.0369 -2.4644  1.7415
  313MOL0     H42200   0.533   5.094   0.805 -1.7212  3.1192  1.1815
  313MOL0     H42201   0.381   5.011   0.747  0.7273 -0.2437  2.6557
  313MOL0     H42202   0.545   5.124   0.512  1.7457 -0.0376 -0.1296
  313MOL0     H42203   0.471   4.977   0.529 -0.5009  0.1276 -2.1785
  313MOL0     H42204   0.653   4.906   0.681 -0.7634 -1.4213 -0.2036
  313MOL0     H42205   0.676   4.926   0.509 -0.2325 -1.0305  0.5802
  313MOL0     H42206   0.760   5.216   0.455  0.2591 -1.9806 -0.4144
  313MOL0     H42207   0.931   5.440   0.544  1.0885  0.8992 -4.5689
  313MOL0     H42208   1.075   5.389   0.627 -0.7368  0.7451 -1.0669
  313MOL0     H42209   1.071   5.229   0.394  2.4889  0.8140 -0.4194
  313MOL0     H42210   1.017   5.385   0.340 -0.9957  0.2945  0.0269
  313MOL0     H42211   1.271   5.340   0.497  2.8886  1.1004 -0.7886
  313MOL0     H42212   1.189   5.498   0.440 -3.3192 -0.9929  0.3964
  313MOL0     H42213   1.203   5.435   0.210  0.2428  2.0761  1.3359
  313MOL0     H42214   1.292   5.282   0.246 -0.6854 -0.7669  0.5141
  313MOL0     H42215   1.457   5.205   0.395  1.1800 -0.7842  1.4762
  313MOL0     H42216   1.666   5.157   0.481  0.9458  0.9543  3.0835
  313MOL0     H42217   1.873   5.006   0.741 -0.1319  0.7938 -0.6632
  313MOL0     H42218   2.079   4.906   0.863  0.0476 -0.8550 -1.8830
  313MOL0     H42219   2.422   4.902   0.651 -1.5542 -0.8057 -0.4998
  313MOL0     H42220   2.484   5.058   0.716  0.4449 -2.2986 -0.9848
  313MOL0     H42221   2.647   4.900   0.774 -0.0487 -0.4892 -0.0774
  313MOL0     H42222   2.556   4.929   0.927  2.2877 -1.1828  0.4568
  313MOL0     H42223   2.430   4.704   0.831  0.6231 -0.8583 -0.3769
  313MOL0     H42224   2.573   4.701   0.727 -2.0823 -2.6277 -0.1108
  313MOL0     H42225   2.613   4.699   1.018  0.8909  2.7697 -0.2944
  313MOL0     H42226   2.726   4.723   0.876 -1.1991 -1.4728 -3.6174
  313MOL0     H42227   2.552   4.490   0.956  1.1251  0.0414  0.7244
  313MOL0     H42228   2.720   4.485   0.975  2.3969  0.6276 -2.6604
  313MOL0     H42229   2.664   4.352   0.770 -2.4468 -0.1471  2.7087
  313MOL0     H42230   2.575   4.483   0.714 -1.6503  0.3330  2.1264
  313MOL0     H42231   2.872   4.536   0.748 -1.1788  0.7804 -0.3256
  313MOL0     H42232   2.763   4.611   0.650  1.5052  0.9646  0.6792
  313MOL0     H42233   2.812   4.307   0.607 -0.3566  0.2194  0.2430
  313MOL0     H42234   2.743   4.420   0.490  2.0444 -0.9951 -1.9771
  313MOL0     H42235   2.328   5.132   0.606  0.5754 -0.6260 -0.1060
  313MOL0     H42236   2.139   5.220   0.490 -3.2398 -0.2630 -1.3819
  313MOL0     H42237   1.806   5.556   0.385 -4.2848  3.6273 -2.6197
  313MOL0     H42238   1.608   5.610   0.311  4.2910  0.4250 -0.5395
  313MOL0     H42239   0.289   5.754   0.328  2.3588  0.4511 -2.5281
  313MOL0     H42240   0.183   5.963   0.256  2.5158 -1.6684 -1.0094
  313MOL0     H42241   0.069   6.285   0.187 -1.5360  0.2394 -1.7305
  313MOL0     H42242  -0.092   6.438   0.084  3.4227 -0.2721 -2.0234
  313MOL0     H42243  -0.276   6.656   0.263 -0.8300  0.2386 -0.6776
  313MOL0     H42244  -0.284   6.635   0.084 -2.8645  4.9597 -2.3094
  313MOL0     H42245  -0.244   6.902   0.202  0.5092 -0.6617 -0.1327
  313MOL0     H42246  -0.404   6.828   0.185 -0.0462  1.5674  0.5640
  313MOL0     H42247  -0.206   6.844  -0.055 -1.2106 -1.5594 -0.3696
  313MOL0     H42248  -0.303   6.991  -0.025  1.9165 -0.1955 -2.6531
  313MOL0     H42249  -0.383   6.848  -0.200  1.3655 -0.6412  0.9008
  313MOL0     H42250  -0.394   6.714  -0.084 -2.6266 -0.6435  1.2865
  313MOL0     H42251  -0.740   6.890   0.044 -3.1417 -3.3717 -2.4545
  313MOL0     H42252   0.072   6.749   0.331  1.2332 -0.6057  2.0717
  313MOL0     H42253   0.207   6.719   0.494 -1.5575 -2.4583  3.7980
  313MOL0     H42254   0.237   6.565   0.557 -3.1843 -0.4160  1.5236
  313MOL0     H42255   0.353   6.637   0.430 -0.2981 -0.6401 -0.1576
  314MOL0     O42256   8.118   0.899   6.575  0.1076 -0.1511 -0.1569
  314MOL0     C42257   8.110   0.963   6.684 -0.4760  0.3782  0.0896
  314MOL0     O42258   8.208   0.971   6.775 -0.7182  0.0039  0.0727
  314MOL0     C42259   8.338   0.930   6.741  0.1097 -0.2151  0.3479
  314MOL0     C42260   8.406   0.957   6.625 -0.2479  0.1940  0.0254
  314MOL0     C42261   8.535   0.908   6.598  0.3036 -0.2269 -0.2514
  314MOL0     C42262   8.601   0.818   6.687  0.3542 -0.5721  0.8905
  314MOL0     O42263   8.724   0.779   6.668 -0.4790  0.2959  0.1614
  314MOL0     C42264   8.807   0.834   6.563 -0.1794  0.0993  0.5691
  314MOL0     C42265   8.951   0.785   6.589  0.0448  0.1707 -0.1548
  314MOL0     C42266   9.053   0.807   6.482 -0.2437  0.2451  0.7011
  314MOL0     C42267   9.103   0.956   6.471  0.8134 -0.0922  0.2926
  314MOL0     C42268   9.233   0.977   6.395  0.0335 -0.4003 -0.3237
  314MOL0     C42269   9.306   1.113   6.396  0.0344 -0.2942 -0.2827
  314MOL0     C42270   9.224   1.226   6.339 -0.3129 -0.5899 -0.0234
  314MOL0     C42271   9.308   1.361   6.345 -0.2358  0.4562  0.5501
  314MOL0     N42272   9.249   1.455   6.257 -0.0386  0.0793 -0.1620
  314MOL0     C42273   9.174   1.566   6.286 -0.2179  0.3107  0.4933
  314MOL0     C42274   9.171   1.637   6.175 -0.4645  0.3705  1.1559
  314MOL0     C42275   9.119   1.769   6.158  1.3497 -0.0109  0.7257
  314MOL0     C42276   8.987   1.802   6.232  0.0178 -0.7505  0.2890
  314MOL0     C42277   8.978   1.956   6.255 -0.0533  0.0720 -0.7703
  314MOL0     C42278   8.846   1.996   6.317 -0.4434 -0.4657 -0.8300
  314MOL0     O42279   8.848   2.129   6.365 -0.4473 -0.0247 -0.1175
  314MOL0     C42280   8.739   2.173   6.434  0.2965  0.2553 -0.1034
  314MOL0     C42281   8.633   2.098   6.489 -0.6343 -0.3468  0.4513
  314MOL0     C42282   8.539   2.145   6.570 -0.0864 -0.7141 -0.2761
  314MOL0     C42283   8.536   2.278   6.605  0.1070 -0.3182  0.3206
  314MOL0     C42284   8.437   2.336   6.705 -0.1936  1.1903 -0.1420
  314MOL0     O42285   8.363   2.240   6.782 -0.1744  0.1779  0.5130
  314MOL0     C42286   8.284   2.298   6.873  0.5345  0.1559 -0.3056
  314MOL0     C42287   8.177   2.380   6.841 -0.2440 -0.5910 -0.1338
  314MOL0     C42288   8.088   2.427   6.942 -0.6147  0.2479  0.2030
  314MOL0     C42289   8.109   2.386   7.072  0.0176  0.1913  0.5776
  314MOL0     O42290   8.037   2.439   7.184 -1.0269  0.5568  0.5198
  314MOL0     C42291   8.120   2.521   7.274 -0.5367 -0.3538  0.8345
  314MOL0     C42292   8.041   2.646   7.312  0.1638  0.1813 -0.3169
  314MOL0     C42293   8.100   2.782   7.257  0.0352  0.1409  0.5558
  314MOL0     C42294   7.983   2.890   7.258 -0.6388  1.3846 -0.2573
  314MOL0     C42295   8.040   3.019   7.206 -0.3108 -0.4929 -0.3473
  314MOL0     C42296   7.947   3.126   7.268  0.1181  0.0857  0.3460
  314MOL0     C42297   8.005   3.278   7.259 -0.0941  0.1982  0.1773
  314MOL0     C42298   7.955   3.376   7.368  0.3176 -0.5003  0.7420
  314MOL0    Cl42299   7.963   3.306   7.531 -0.1428 -0.0064 -0.0019
  314MOL0     C42300   8.205   2.293   7.098 -0.6832 -0.7803 -0.1338
  314MOL0     C42301   8.294   2.244   7.003  0.5831 -0.7858  0.0115
  314MOL0     O42302   8.433   2.455   6.718  0.6183 -0.8706  0.4038
  314MOL0     C42303   8.631   2.359   6.548 -0.2097  0.2424  0.7251
  314MOL0     C42304   8.735   2.305   6.464 -0.1165 -0.8043 -0.7949
  314MOL0     N42305   9.250   1.579   6.069 -0.3862  1.0847 -0.4607
  314MOL0     N42306   9.284   1.468   6.125 -0.0741 -0.4148  0.9022
  314MOL0     C42307   8.529   0.799   6.804  0.2792 -0.6800 -0.6609
  314MOL0     C42308   8.401   0.857   6.834  0.2399  0.1261 -0.6588
  314MOL0     C42309   7.990   1.029   6.728 -0.7416 -0.4155  0.0033
  314MOL0     C42310   7.934   1.120   6.636 -0.8323 -0.4344  0.3346
  314MOL0     C42311   7.829   1.198   6.679 -1.0436 -0.6107 -0.2432
  314MOL0     C42312   7.770   1.193   6.802 -1.0994  0.1211  0.2905
  314MOL0     O42313   7.674   1.276   6.841  0.1234  0.6044  0.0247
  314MOL0     C42314   7.547   1.219   6.858  0.5778 -0.0834  1.2757
  314MOL0     C42315   7.463   1.338   6.903  0.5985 -0.9371  0.5214
  314MOL0     C42316   7.447   1.345   7.058  0.0579  0.0642 -0.0508
  314MOL0     C42317   7.573   1.404   7.121  0.4549  0.9315  0.3867
  314MOL0     C42318   7.560   1.411   7.263 -0.3487 -0.0797 -0.0434
  314MOL0     C42319   7.552   1.412   7.383 -0.4624 -0.2869  1.2123
  314MOL0     C42320   7.821   1.098   6.891 -0.4728 -0.5955 -0.9831
  314MOL0     C42321   7.929   1.009   6.859 -1.3595 -0.6527 -0.3825
  314MOL0     C42322   7.973   0.911   6.968  0.8420  0.3912  1.0068
  314MOL0     H42323   8.354   1.023   6.556 -1.7746 -1.4134 -0.4293
  314MOL0     H42324   8.572   0.937   6.499 -1.3474  0.9253 -0.5722
  314MOL0     H42325   8.772   0.797   6.466 -0.0274 -2.0128  1.2702
  314MOL0     H42326   8.817   0.943   6.571  0.6546 -0.0738  2.1474
  314MOL0     H42327   8.948   0.678   6.613  0.0171  0.2113  0.0273
  314MOL0     H42328   8.986   0.832   6.682 -0.4720 -0.5581  0.4185
  314MOL0     H42329   9.019   0.775   6.383 -1.6208  1.4486  0.7419
  314MOL0     H42330   9.136   0.742   6.510 -0.4186 -1.2407 -1.8805
  314MOL0     H42331   9.020   1.008   6.422  1.5645  1.3596  0.5067
  314MOL0     H42332   9.106   0.998   6.572  1.4590  2.5874 -0.7789
  314MOL0     H42333   9.299   0.903   6.443 -2.0295 -2.2699 -0.2088
  314MOL0     H42334   9.215   0.958   6.289 -2.9807  1.5212 -0.2589
  314MOL0     H42335   9.340   1.139   6.497 -0.8613  2.6689 -0.6498
  314MOL0     H42336   9.387   1.118   6.323 -0.4638 -2.1054 -1.0122
  314MOL0     H42337   9.130   1.237   6.393  0.3412  2.2485  0.7125
  314MOL0     H42338   9.200   1.200   6.235  2.2085 -0.7632 -0.6254
  314MOL0     H42339   9.304   1.402   6.446 -0.3873 -2.4325  1.8339
  314MOL0     H42340   9.408   1.336   6.310 -1.1055 -1.4405 -0.8042
  314MOL0     H42341   9.131   1.593   6.382 -3.2948  0.4288 -0.8054
  314MOL0     H42342   9.202   1.825   6.201  2.4147 -1.3484  0.4847
  314MOL0     H42343   9.102   1.806   6.057 -0.2506  0.6219  1.1926
  314MOL0     H42344   8.902   1.760   6.177  0.0556 -1.6368  0.8781
  314MOL0     H42345   8.981   1.741   6.323  2.2683 -0.5852  0.6157
  314MOL0     H42346   8.993   1.990   6.151 -1.7817  0.7797 -0.8194
  314MOL0     H42347   9.065   1.972   6.318 -1.2945  1.9701  0.5602
  314MOL0     H42348   8.826   1.931   6.403  0.0210 -0.7901 -0.9634
  314MOL0     H42349   8.768   1.971   6.245 -0.7622 -3.5404  0.4165
  314MOL0     H42350   8.633   1.990   6.479 -0.5261 -0.4018  1.0230
  314MOL0     H42351   8.457   2.083   6.605 -1.7281  1.2478 -0.4596
  314MOL0     H42352   8.174   2.429   6.744  1.1533  2.1857  1.1436
  314MOL0     H42353   8.006   2.494   6.916 -2.7819 -1.7966  1.3937
  314MOL0     H42354   8.132   2.464   7.367 -2.4109 -1.0974  0.6679
  314MOL0     H42355   8.216   2.552   7.231 -0.4665  0.4952  1.5703
  314MOL0     H42356   7.940   2.631   7.272 -0.0871  0.0270  0.3486
  314MOL0     H42357   8.039   2.645   7.422 -1.2582 -0.3419 -0.3188
  314MOL0     H42358   8.179   2.816   7.324  0.5991  3.3045 -1.5055
  314MOL0     H42359   8.156   2.767   7.164 -0.5493 -1.5154  0.4288
  314MOL0     H42360   7.944   2.887   7.360  2.4042  2.6809  1.0942
  314MOL0     H42361   7.908   2.857   7.187  0.2802  0.5641 -0.8743
  314MOL0     H42362   8.029   3.027   7.097 -2.1722 -3.2016 -0.4540
  314MOL0     H42363   8.144   3.024   7.242 -0.6325 -1.7157  0.8346
  314MOL0     H42364   7.861   3.115   7.202  1.6385 -3.3522 -1.3154
  314MOL0     H42365   7.943   3.094   7.372  0.4557  0.4214  0.4648
  314MOL0     H42366   7.972   3.317   7.162  0.3229 -0.5842 -0.2838
  314MOL0     H42367   8.113   3.264   7.251 -0.2007  0.5120 -3.8555
  314MOL0     H42368   8.011   3.470   7.366 -1.0894  0.3420  0.1107
  314MOL0     H42369   7.852   3.403   7.346  0.4341  1.2416  2.1231
  314MOL0     H42370   8.208   2.271   7.204  2.5211  1.3139  0.3576
  314MOL0     H42371   8.367   2.167   7.028  0.8973 -0.5793 -0.2642
  314MOL0     H42372   8.635   2.465   6.570 -0.0601  0.4977 -0.4909
  314MOL0     H42373   8.816   2.365   6.422 -0.9163 -0.1268 -1.4120
  314MOL0     H42374   8.574   0.755   6.893 -1.9893  2.7154  2.4517
  314MOL0     H42375   8.351   0.851   6.930  0.5649  2.2691 -0.3135
  314MOL0     H42376   7.967   1.125   6.533  1.1325  1.2154  0.9747
  314MOL0     H42377   7.789   1.278   6.618  0.5295  2.5314  2.4935
  314MOL0     H42378   7.562   1.139   6.932  1.1617 -3.7902 -2.4938
  314MOL0     H42379   7.512   1.171   6.767 -1.6354  2.1009  0.8851
  314MOL0     H42380   7.364   1.328   6.859  1.2435  1.0848 -1.6205
  314MOL0     H42381   7.485   1.432   6.851 -0.5850 -0.6218  0.5740
  314MOL0     H42382   7.429   1.243   7.092 -0.7519 -1.1713 -3.7213
  314MOL0     H42383   7.363   1.408   7.090  0.2299  0.8514 -1.0859
  314MOL0     H42384   7.659   1.344   7.092 -0.9648 -0.1805 -1.7985
  314MOL0     H42385   7.590   1.506   7.086 -2.8288  1.6377  0.5068
  314MOL0     H42386   7.530   1.418   7.488  1.5193 -1.9993  1.7946
  314MOL0     H42387   7.784   1.090   6.992 -0.4233  1.5724 -0.7367
  314MOL0     H42388   7.979   0.811   6.925 -1.9956  0.8235 -0.6475
  314MOL0     H42389   8.072   0.936   7.007  2.0988 -2.2736 -0.2148
  314MOL0     H42390   7.901   0.911   7.051  0.2146  0.8322  0.4661
  315MOL0     O42391   4.651   5.619   6.802 -0.4010 -0.4572 -0.7625
  315MOL0     C42392   4.637   5.615   6.686 -0.4419  0.5308 -0.1387
  315MOL0     O42393   4.698   5.692   6.607 -0.2589  0.4004  0.0583
  315MOL0     C42394   4.750   5.817   6.626 -0.0627 -0.4280  0.2148
  315MOL0     C42395   4.772   5.903   6.511  0.4837 -0.3715 -0.3951
  315MOL0     C42396   4.837   6.029   6.532 -0.3420  0.6004 -0.9510
  315MOL0     C42397   4.873   6.072   6.660  0.1756 -0.6936  0.0271
  315MOL0     O42398   4.941   6.190   6.668 -0.5118 -0.3230 -0.3689
  315MOL0     C42399   4.997   6.241   6.792  0.9921  0.5061  0.6935
  315MOL0     C42400   5.055   6.381   6.770  0.0826 -0.0305  0.7611
  315MOL0     C42401   5.193   6.380   6.694 -0.7724 -0.7168 -0.1303
  315MOL0     C42402   5.258   6.518   6.647  0.3577 -0.1648 -0.0343
  315MOL0     C42403   5.399   6.482   6.615 -0.5858  1.1379 -0.2394
  315MOL0     C42404   5.446   6.576   6.501 -0.4175  0.1796 -0.3502
  315MOL0     C42405   5.602   6.603   6.504  0.0411  0.2040  0.2881
  315MOL0     C42406   5.659   6.703   6.614  0.4589 -0.7560  0.9828
  315MOL0     N42407   5.792   6.736   6.573 -0.4484  0.7806  0.2796
  315MOL0     C42408   5.838   6.841   6.492 -0.8413  1.3809 -0.8767
  315MOL0     C42409   5.975   6.813   6.490 -0.3503 -0.4355  0.3028
  315MOL0     C42410   6.074   6.899   6.419  1.0493  0.2920 -0.0785
  315MOL0     C42411   6.047   6.949   6.280  0.3969 -0.2133  0.1902
  315MOL0     C42412   6.107   6.844   6.173 -0.8427 -0.2509 -0.4386
  315MOL0     C42413   6.061   6.876   6.035  0.0987  0.2217  0.2858
  315MOL0     O42414   6.090   6.773   5.946 -0.3509 -0.0192 -0.3787
  315MOL0     C42415   6.223   6.748   5.925 -0.3805  0.0061  0.2817
  315MOL0     C42416   6.261   6.614   5.900  0.3355 -0.5069 -0.4104
  315MOL0     C42417   6.393   6.589   5.869 -0.0559  0.7408 -0.3825
  315MOL0     C42418   6.485   6.691   5.847 -1.0295  0.5687  0.3773
  315MOL0     C42419   6.621   6.650   5.811  0.4845  0.2465  0.0861
  315MOL0     O42420   6.722   6.735   5.835 -0.4050 -0.1547  0.2401
  315MOL0     C42421   6.854   6.700   5.802  0.0587  0.8988  0.1993
  315MOL0     C42422   6.900   6.668   5.674  0.5596  0.0387 -0.4523
  315MOL0     C42423   7.037   6.659   5.649 -0.7466  0.2673 -0.5400
  315MOL0     C42424   7.135   6.672   5.750 -0.1685 -0.0120 -0.3374
  315MOL0     O42425   7.266   6.637   5.722  0.5023  0.4907  0.0029
  315MOL0     C42426   7.330   6.683   5.602 -0.2728 -0.2334  0.2857
  315MOL0     C42427   7.465   6.741   5.645 -0.3632  0.2436 -0.4874
  315MOL0     C42428   7.450   6.882   5.677 -0.8873  0.2026 -0.2101
  315MOL0     C42429   7.533   6.934   5.793  0.5282  0.3402 -0.3254
  315MOL0     C42430   7.553   7.092   5.800 -0.4473 -0.6160 -0.1212
  315MOL0     C42431   7.612   7.131   5.938  0.6977 -0.6253 -0.4085
  315MOL0     C42432   7.672   7.277   5.948 -0.3495 -0.1976 -0.3379
  315MOL0     C42433   7.736   7.304   6.082 -0.3561 -0.5123 -0.1357
  315MOL0    Cl42434   7.786   7.480   6.076 -0.2672  0.1476  0.0008
  315MOL0     C42435   7.091   6.709   5.882  0.4083  0.8136 -0.0246
  315MOL0     C42436   6.950   6.720   5.903 -0.2855  0.4090  0.4862
  315MOL0     O42437   6.639   6.538   5.762  0.3746 -0.0530  0.2283
  315MOL0     C42438   6.449   6.824   5.865  0.1320 -0.1545  0.2499
  315MOL0     C42439   6.321   6.856   5.901 -0.3586 -0.3002 -0.2124
  315MOL0     N42440   6.017   6.715   6.570  0.7784  0.7768  0.4965
  315MOL0     N42441   5.903   6.681   6.627  0.1384 -0.0506 -0.0498
  315MOL0     C42442   4.878   5.981   6.765 -0.1979  0.2085  0.6581
  315MOL0     C42443   4.812   5.857   6.744 -0.3233 -0.1223 -0.4206
  315MOL0     C42444   4.560   5.507   6.639 -0.1850 -0.7988  0.0472
  315MOL0     C42445   4.437   5.494   6.698  0.1113  1.2978  0.6851
  315MOL0     C42446   4.359   5.385   6.660  0.2428 -0.0710 -0.1477
  315MOL0     C42447   4.398   5.296   6.553 -0.4411 -0.5442 -0.7332
  315MOL0     O42448   4.314   5.195   6.526  0.3549  0.6383 -1.2094
  315MOL0     C42449   4.293   5.171   6.390  0.1762 -0.3334 -0.4742
  315MOL0     C42450   4.147   5.185   6.355  0.2692  0.0744  0.1608
  315MOL0     C42451   4.065   5.051   6.373  0.7131  0.9659  0.0239
  315MOL0     C42452   3.911   5.064   6.341  0.6593 -0.2052 -0.1977
  315MOL0     C42453   3.892   5.099   6.199  0.1412 -0.0225 -0.5390
  315MOL0     C42454   3.869   5.125   6.081  1.1016 -0.1749  0.1278
  315MOL0     C42455   4.523   5.309   6.497 -0.3199  0.2203 -0.2031
  315MOL0     C42456   4.604   5.413   6.538  0.3046 -0.8906 -0.2278
  315MOL0     C42457   4.732   5.440   6.467  0.1806  0.8385  0.4927
  315MOL0     H42458   4.733   5.858   6.421 -1.5639 -3.7847  1.9463
  315MOL0     H42459   4.868   6.097   6.453  0.3200  2.2242  0.6206
  315MOL0     H42460   4.917   6.252   6.866 -0.6194  4.0056 -1.3361
  315MOL0     H42461   5.071   6.174   6.837 -1.9795 -1.9971  2.2775
  315MOL0     H42462   5.055   6.438   6.864 -2.4974  1.9811 -0.3329
  315MOL0     H42463   4.987   6.439   6.708  4.6200  2.4672 -2.4426
  315MOL0     H42464   5.195   6.312   6.609  4.0386 -1.4963  0.3418
  315MOL0     H42465   5.260   6.326   6.761  1.6611 -0.7565 -2.4407
  315MOL0     H42466   5.201   6.562   6.564 -2.5849 -1.8513  0.9185
  315MOL0     H42467   5.257   6.596   6.723  1.4465 -1.7390  1.6834
  315MOL0     H42468   5.450   6.497   6.711 -0.3902  1.1588 -0.3473
  315MOL0     H42469   5.417   6.381   6.578  1.2648  0.4106  2.3601
  315MOL0     H42470   5.423   6.531   6.404  0.9886 -2.1079  0.2817
  315MOL0     H42471   5.394   6.671   6.498 -1.7325 -0.5333 -0.8217
  315MOL0     H42472   5.635   6.644   6.408  0.1184  0.0111  0.2331
  315MOL0     H42473   5.656   6.509   6.518  0.5733  0.3748 -0.5428
  315MOL0     H42474   5.598   6.794   6.614  0.0178 -1.0414  0.1852
  315MOL0     H42475   5.661   6.660   6.714  0.3541 -1.7582  0.5632
  315MOL0     H42476   5.780   6.921   6.449 -1.6045  2.0335  1.2356
  315MOL0     H42477   6.089   6.985   6.485  3.1923 -0.9541  1.1981
  315MOL0     H42478   6.166   6.842   6.400 -0.9809 -2.9884 -0.8074
  315MOL0     H42479   5.939   6.965   6.271  0.1111 -0.1389  2.8411
  315MOL0     H42480   6.089   7.049   6.264 -3.4648  1.8445  1.5098
  315MOL0     H42481   6.066   6.745   6.192  0.7728 -0.8002  0.2731
  315MOL0     H42482   6.216   6.844   6.183 -0.9104  0.3686  0.4673
  315MOL0     H42483   6.101   6.968   5.993 -1.4267  0.7270 -0.1134
  315MOL0     H42484   5.952   6.881   6.036 -0.1577 -2.6027 -1.0632
  315MOL0     H42485   6.182   6.540   5.910 -0.7562  0.3249 -2.4074
  315MOL0     H42486   6.419   6.483   5.862 -2.6895 -0.0234  0.2334
  315MOL0     H42487   6.830   6.657   5.592 -0.6598 -0.7238  0.6505
  315MOL0     H42488   7.069   6.623   5.552 -0.9228 -1.1705 -0.0990
  315MOL0     H42489   7.349   6.590   5.547 -0.1986  0.1405 -0.3357
  315MOL0     H42490   7.277   6.748   5.531  3.1449  1.5760 -0.8016
  315MOL0     H42491   7.511   6.686   5.727 -0.1199  0.2748 -0.6011
  315MOL0     H42492   7.529   6.733   5.557 -1.4129 -2.0680 -1.0854
  315MOL0     H42493   7.477   6.942   5.590  1.2536 -0.3147  0.0454
  315MOL0     H42494   7.344   6.905   5.690 -0.6795 -0.4066  3.4795
  315MOL0     H42495   7.634   6.896   5.776  2.0131  2.8612  2.0745
  315MOL0     H42496   7.482   6.898   5.883  0.2818  2.8325  0.6035
  315MOL0     H42497   7.461   7.149   5.789  2.0393  3.5336 -1.6783
  315MOL0     H42498   7.618   7.119   5.717 -2.4473  0.6465 -1.3601
  315MOL0     H42499   7.532   7.118   6.011  0.4273 -0.9084 -0.7488
  315MOL0     H42500   7.686   7.052   5.958  1.6310  0.0087 -1.2328
  315MOL0     H42501   7.600   7.355   5.923  3.1801  2.6995 -2.7099
  315MOL0     H42502   7.746   7.297   5.869 -0.6076  0.7340 -0.3560
  315MOL0     H42503   7.664   7.286   6.162  1.8849 -0.0412  2.1249
  315MOL0     H42504   7.816   7.237   6.114  0.9296  1.8539  1.9356
  315MOL0     H42505   7.167   6.715   5.959  2.0574  3.5489 -1.6881
  315MOL0     H42506   6.904   6.752   5.995 -5.1171 -1.2006 -1.0313
  315MOL0     H42507   6.519   6.906   5.853 -0.0942 -0.3034 -2.8145
  315MOL0     H42508   6.292   6.961   5.904 -1.5473 -0.6224  0.9754
  315MOL0     H42509   4.922   6.002   6.862  2.5046 -4.3757  0.7225
  315MOL0     H42510   4.820   5.792   6.831 -0.5496 -0.2749 -0.5129
  315MOL0     H42511   4.402   5.573   6.763 -2.1344  1.2157 -0.3259
  315MOL0     H42512   4.266   5.380   6.716 -0.0719  0.9428 -0.5566
  315MOL0     H42513   4.340   5.080   6.352  1.0327  0.1652 -0.6450
  315MOL0     H42514   4.340   5.252   6.333 -1.3007  3.2484  2.9243
  315MOL0     H42515   4.155   5.225   6.254  3.3937  3.3813  1.4942
  315MOL0     H42516   4.111   5.268   6.416  2.4816  1.3900 -0.2434
  315MOL0     H42517   4.072   5.006   6.472 -3.3107 -1.5012 -0.6000
  315MOL0     H42518   4.100   4.973   6.305 -2.0252 -1.2915  0.9948
  315MOL0     H42519   3.867   4.968   6.369  2.3449 -0.8526  0.3063
  315MOL0     H42520   3.856   5.140   6.397 -0.4812 -0.0455 -1.4504
  315MOL0     H42521   3.850   5.135   5.976  1.7084 -1.1210 -0.0843
  315MOL0     H42522   4.551   5.255   6.407 -0.0047 -0.9103  0.5449
  315MOL0     H42523   4.764   5.354   6.408 -0.3335  2.6907 -2.7593
  315MOL0     H42524   4.720   5.521   6.394 -0.6824  1.3516  1.1705
  315MOL0     H42525   4.813   5.474   6.532 -1.2616  3.7509  0.9336
  316MOL0     O42526   0.341   7.325   9.462  0.1203 -0.4897  0.1730
  316MOL0     C42527   0.323   7.443   9.425  0.6334 -0.3329 -0.1743
  316MOL0     O42528   0.232   7.495   9.339 -0.3083  0.9384  0.0009
  316MOL0     C42529   0.145   7.405   9.275  0.2944  0.0361  0.8707
  316MOL0     C42530   0.007   7.437   9.263  0.9885 -0.5738  0.2664
  316MOL0     C42531  -0.081   7.357   9.196  0.9463 -0.3214  0.9738
  316MOL0     C42532  -0.044   7.233   9.140  0.0689  0.5217 -0.3436
  316MOL0     O42533  -0.130   7.145   9.078 -0.1455  0.1905 -0.6399
  316MOL0     C42534  -0.176   7.198   8.954 -0.3219 -0.1312 -0.5419
  316MOL0     C42535  -0.261   7.092   8.891  0.6008  1.5763  0.5627
  316MOL0     C42536  -0.416   7.097   8.930  0.0324 -0.4598  0.8380
  316MOL0     C42537  -0.450   7.045   9.071 -0.4814 -0.4433 -0.1532
  316MOL0     C42538  -0.576   7.113   9.133 -0.2557  0.3473  0.1022
  316MOL0     C42539  -0.710   7.095   9.053  0.1737  0.3296 -0.4936
  316MOL0     C42540  -0.824   7.159   9.127 -0.5701 -0.0560  0.7456
  316MOL0     C42541  -0.829   7.309   9.104 -0.0249  0.0800  0.2259
  316MOL0     N42542  -0.947   7.371   9.162  0.3879  0.5333 -0.2450
  316MOL0     C42543  -1.046   7.429   9.090  0.3256 -0.1283 -0.4347
  316MOL0     C42544  -1.137   7.474   9.188  0.4146  0.3183  0.3957
  316MOL0     C42545  -1.269   7.545   9.161  0.5146  0.2205  0.0429
  316MOL0     C42546  -1.264   7.641   9.029  0.0316  0.4130  0.0724
  316MOL0     C42547  -1.217   7.784   9.050 -0.6251 -0.2270 -0.9100
  316MOL0     C42548  -1.067   7.786   9.083  0.1442  0.4764  0.7683
  316MOL0     O42549  -0.995   7.737   8.969  0.1623 -0.2150  0.6744
  316MOL0     C42550  -0.868   7.678   8.968 -0.2281 -0.1282 -0.2569
  316MOL0     C42551  -0.802   7.650   8.850 -0.1195 -0.6283 -0.1384
  316MOL0     C42552  -0.671   7.597   8.849  0.9666 -0.0899 -0.5352
  316MOL0     C42553  -0.601   7.576   8.965 -0.1265  0.2934 -0.1169
  316MOL0     C42554  -0.461   7.545   8.968  0.5778  0.1558  0.8093
  316MOL0     O42555  -0.389   7.606   8.865  0.2353 -0.4373 -0.0391
  316MOL0     C42556  -0.264   7.547   8.849  0.7366 -0.4974  0.1582
  316MOL0     C42557  -0.224   7.481   8.734 -0.2803  0.9547 -0.4364
  316MOL0     C42558  -0.090   7.445   8.719 -0.3736 -1.2735 -0.1649
  316MOL0     C42559   0.003   7.473   8.822 -0.4183 -0.0649 -0.0030
  316MOL0     O42560   0.132   7.414   8.807  0.0531 -0.6642  0.0778
  316MOL0     C42561   0.233   7.462   8.898 -0.4193 -0.2469  0.0673
  316MOL0     C42562   0.284   7.602   8.859 -0.0568 -0.5959  1.3448
  316MOL0     C42563   0.378   7.661   8.961  0.4184  0.2371 -0.1947
  316MOL0     C42564   0.527   7.608   8.962  0.3585  0.3971 -0.0453
  316MOL0     C42565   0.605   7.659   9.078 -0.1307 -0.4704  0.1735
  316MOL0     C42566   0.760   7.661   9.062 -0.3134  0.8082 -0.5268
  316MOL0     C42567   0.829   7.717   9.187  0.2622  0.1886 -0.6962
  316MOL0     C42568   0.981   7.715   9.175 -0.4660  0.1169 -1.0370
  316MOL0    Cl42569   1.039   7.800   9.315 -0.0985 -0.3055  0.1867
  316MOL0     C42570  -0.040   7.551   8.936 -0.9738  0.7221  0.4034
  316MOL0     C42571  -0.176   7.580   8.945  0.5753  0.1475  0.0309
  316MOL0     O42572  -0.426   7.452   9.039  0.2880  0.6310 -0.3726
  316MOL0     C42573  -0.659   7.608   9.087  0.0495 -0.0406  0.3437
  316MOL0     C42574  -0.791   7.659   9.086 -0.3229  0.1982 -0.2616
  316MOL0     N42575  -1.089   7.430   9.312  0.5453  1.3080  0.1841
  316MOL0     N42576  -0.978   7.382   9.294 -0.5638  0.0831  0.2480
  316MOL0     C42577   0.092   7.197   9.147 -0.1740  0.2080  0.3427
  316MOL0     C42578   0.183   7.283   9.207  0.6866 -0.0710 -0.4981
  316MOL0     C42579   0.403   7.537   9.499  0.4227 -0.7696  0.3646
  316MOL0     C42580   0.480   7.485   9.610 -0.9271 -0.8374  0.9710
  316MOL0     C42581   0.561   7.560   9.694  0.4655 -0.3741 -0.5094
  316MOL0     C42582   0.574   7.692   9.665 -0.1463 -0.3121 -0.3046
  316MOL0     O42583   0.650   7.773   9.746  0.0262  0.3141  0.4832
  316MOL0     C42584   0.741   7.850   9.664 -0.1853 -0.3517 -0.2079
  316MOL0     C42585   0.851   7.894   9.761  0.8786 -0.3873 -0.5374
  316MOL0     C42586   0.946   7.788   9.805  0.5333 -0.7209 -0.7633
  316MOL0     C42587   1.043   7.763   9.693  0.3682  1.0646 -0.4182
  316MOL0     C42588   1.131   7.657   9.732  1.2305  0.4717 -0.8851
  316MOL0     C42589   1.201   7.558   9.768 -0.0947 -0.0458  0.5124
  316MOL0     C42590   0.504   7.754   9.556  0.3608 -0.0404  0.0248
  316MOL0     C42591   0.417   7.681   9.479  0.5246 -0.0321 -0.0048
  316MOL0     C42592   0.350   7.763   9.366 -0.0217 -0.6429 -0.0059
  316MOL0     H42593  -0.032   7.525   9.313 -2.2087 -0.9588 -1.2979
  316MOL0     H42594  -0.182   7.397   9.200  1.9122  2.1939  2.4126
  316MOL0     H42595  -0.230   7.293   8.966  0.5430  0.4964 -1.4453
  316MOL0     H42596  -0.089   7.213   8.889  0.8038  0.7710  1.1172
  316MOL0     H42597  -0.214   6.995   8.906 -1.0568  1.1378  3.7971
  316MOL0     H42598  -0.269   7.108   8.783 -0.6518  0.9488  0.5470
  316MOL0     H42599  -0.461   7.036   8.852  1.7346  0.1775 -0.7012
  316MOL0     H42600  -0.446   7.200   8.909  3.9739  0.8795  0.9725
  316MOL0     H42601  -0.472   6.939   9.061 -2.6246 -0.1232  0.5798
  316MOL0     H42602  -0.362   7.048   9.136 -0.6700 -2.4990  0.2629
  316MOL0     H42603  -0.594   7.086   9.238  2.1675  2.0934  1.0790
  316MOL0     H42604  -0.550   7.219   9.142 -1.3382  0.7413 -1.2020
  316MOL0     H42605  -0.695   7.117   8.947  0.6556 -2.4903 -1.1151
  316MOL0     H42606  -0.725   6.987   9.059  2.7797 -0.1048 -0.3902
  316MOL0     H42607  -0.804   7.134   9.231  1.6515 -0.3290  0.2973
  316MOL0     H42608  -0.922   7.117   9.100 -0.1623  0.5060 -1.8625
  316MOL0     H42609  -0.749   7.349   9.166 -1.5072  3.4260  0.1985
  316MOL0     H42610  -0.821   7.332   8.997  0.1699 -1.3395 -0.0874
  316MOL0     H42611  -1.056   7.449   8.984 -1.0252 -1.6710 -0.6454
  316MOL0     H42612  -1.350   7.472   9.152 -0.9482  1.6797  0.8185
  316MOL0     H42613  -1.291   7.603   9.250 -1.7842 -1.9486  0.9972
  316MOL0     H42614  -1.211   7.581   8.953 -1.4987 -1.6732  0.5571
  316MOL0     H42615  -1.368   7.645   8.996 -0.0443  0.3411  0.3033
  316MOL0     H42616  -1.283   7.841   9.116 -1.0409 -0.4753 -1.1079
  316MOL0     H42617  -1.222   7.833   8.953  2.6624  0.1227 -1.0432
  316MOL0     H42618  -1.055   7.739   9.182  2.3637 -0.0677  0.3004
  316MOL0     H42619  -1.023   7.884   9.103  0.8785 -0.2917  3.3553
  316MOL0     H42620  -0.864   7.662   8.762 -2.0562  1.3137  1.3664
  316MOL0     H42621  -0.627   7.589   8.750 -1.0249  0.0702 -1.4913
  316MOL0     H42622  -0.298   7.458   8.658 -0.8187  2.4880 -0.4260
  316MOL0     H42623  -0.047   7.395   8.633  1.4395 -0.2013  0.0859
  316MOL0     H42624   0.193   7.460   9.000  2.7977 -2.7844  1.4404
  316MOL0     H42625   0.322   7.399   8.896 -0.4213 -0.3267  1.5425
  316MOL0     H42626   0.330   7.589   8.760 -3.5796 -4.8116 -0.0699
  316MOL0     H42627   0.197   7.668   8.857 -1.8679 -2.8908  0.8083
  316MOL0     H42628   0.386   7.766   8.931 -0.7414  0.7536  1.1749
  316MOL0     H42629   0.318   7.648   9.052 -3.8009  1.4783 -2.5081
  316MOL0     H42630   0.567   7.650   8.869  0.6486  4.3170  1.6796
  316MOL0     H42631   0.526   7.499   8.967  0.0497  0.2990 -1.6906
  316MOL0     H42632   0.587   7.598   9.167 -1.1276  0.3647  0.5627
  316MOL0     H42633   0.570   7.760   9.102  0.0319 -0.5572  0.7869
  316MOL0     H42634   0.805   7.564   9.041  1.5014  1.7789 -1.2956
  316MOL0     H42635   0.788   7.727   8.979  2.3614 -1.8571 -1.9156
  316MOL0     H42636   0.798   7.646   9.265 -2.3322 -1.0108 -2.6393
  316MOL0     H42637   0.795   7.819   9.211  0.6464  0.2839 -0.5499
  316MOL0     H42638   1.027   7.616   9.182 -2.9969 -0.9965  2.5724
  316MOL0     H42639   0.997   7.787   9.094  0.1632  2.3375  0.9614
  316MOL0     H42640   0.021   7.588   9.018 -1.5823 -1.6443  2.0469
  316MOL0     H42641  -0.208   7.633   9.034  2.2869  0.0864  0.7169
  316MOL0     H42642  -0.600   7.589   9.176  2.0245 -1.0778 -1.1208
  316MOL0     H42643  -0.835   7.685   9.182 -1.1617  0.3375 -0.6782
  316MOL0     H42644   0.135   7.110   9.098  0.5561  0.2180  0.9566
  316MOL0     H42645   0.284   7.245   9.208  0.4341 -0.7599 -0.4111
  316MOL0     H42646   0.468   7.383   9.645 -4.0178 -0.4737  1.2025
  316MOL0     H42647   0.607   7.509   9.778  0.5931  1.8014  0.8252
  316MOL0     H42648   0.692   7.939   9.624  0.1327 -0.9060 -1.9377
  316MOL0     H42649   0.788   7.788   9.587 -0.7258  0.0964 -0.9180
  316MOL0     H42650   0.811   7.948   9.848 -0.4782 -0.1004 -1.3014
  316MOL0     H42651   0.908   7.976   9.717 -1.2899  1.6639  0.2159
  316MOL0     H42652   0.888   7.698   9.824  1.0439 -1.2296 -1.5882
  316MOL0     H42653   0.998   7.806   9.900 -0.1536  1.4753 -0.7366
  316MOL0     H42654   0.979   7.728   9.611 -0.5042  2.4335 -0.3431
  316MOL0     H42655   1.093   7.856   9.665 -1.6847  2.5320  0.5043
  316MOL0     H42656   1.266   7.477   9.795  1.9612  1.1421 -0.7086
  316MOL0     H42657   0.508   7.859   9.531 -1.8405 -0.2559 -1.5695
  316MOL0     H42658   0.345   7.869   9.391 -0.5949 -0.7505  0.3578
  316MOL0     H42659   0.410   7.757   9.275 -1.3661 -0.8445 -0.9085
  316MOL0     H42660   0.247   7.727   9.355  0.3362 -1.7354  0.1360
  317MOL0     O42661  10.295   5.064   3.730  0.3076  1.0419  0.3133
  317MOL0     C42662  10.178   5.042   3.772 -0.3759  0.3798  0.2410
  317MOL0     O42663  10.139   5.023   3.902  0.5549 -0.2247 -0.0164
  317MOL0     C42664  10.222   5.028   4.010 -0.4838 -0.8461  0.4504
  317MOL0     C42665  10.175   5.092   4.122 -0.8456  0.0165 -0.1258
  317MOL0     C42666  10.250   5.072   4.249 -0.0330 -0.4197  0.1894
  317MOL0     C42667  10.353   4.973   4.257 -0.0740 -0.3245 -0.6279
  317MOL0     O42668  10.407   4.953   4.385  0.1919  0.5673  0.2209
  317MOL0     C42669  10.451   4.827   4.435  0.4035  0.6668  0.3589
  317MOL0     C42670  10.535   4.838   4.559 -0.6438  0.4938 -0.6294
  317MOL0     C42671  10.646   4.719   4.560 -0.0075  0.5044 -0.4512
  317MOL0     C42672  10.711   4.692   4.701 -0.6854 -0.0476 -0.1763
  317MOL0     C42673  10.815   4.583   4.695 -0.6455 -0.0669 -0.3626
  317MOL0     C42674  10.950   4.639   4.662  0.6092 -0.1941 -0.2652
  317MOL0     C42675  11.034   4.526   4.591 -0.4207 -0.5219 -0.6465
  317MOL0     C42676  11.111   4.436   4.691  0.0290  0.0586  0.4777
  317MOL0     N42677  11.217   4.505   4.761 -1.2838 -0.3241  0.4013
  317MOL0     C42678  11.333   4.560   4.712 -0.1726  0.3339 -0.0303
  317MOL0     C42679  11.405   4.609   4.817  0.2584 -0.2581 -0.3623
  317MOL0     C42680  11.541   4.670   4.790 -0.1018  0.4003 -0.3677
  317MOL0     C42681  11.534   4.821   4.820 -0.7931 -0.4383  0.0366
  317MOL0     C42682  11.676   4.876   4.798 -0.0815 -0.6656 -0.1574
  317MOL0     C42683  11.689   5.024   4.763 -0.8573 -0.7990  0.2780
  317MOL0     O42684  11.825   5.066   4.795 -0.6046  0.6055  0.4653
  317MOL0     C42685  11.862   5.199   4.828 -0.7287  1.2345  0.6464
  317MOL0     C42686  12.001   5.223   4.848  0.2864 -0.3306 -0.1659
  317MOL0     C42687  12.043   5.344   4.891  0.2740 -0.6292  0.2773
  317MOL0     C42688  11.952   5.454   4.896 -0.6664  0.5993  0.3253
  317MOL0     C42689  12.010   5.593   4.916 -1.5500 -0.7535 -0.6323
  317MOL0     O42690  12.148   5.606   4.941 -0.6863 -0.4783  0.0335
  317MOL0     C42691  12.201   5.736   4.925 -0.1143 -0.6056 -0.4268
  317MOL0     C42692  12.290   5.777   5.022  0.6145 -0.1920 -0.4584
  317MOL0     C42693  12.326   5.909   5.029 -0.4991  1.0508 -0.5238
  317MOL0     C42694  12.293   5.996   4.928 -0.1759 -0.4186 -0.8382
  317MOL0     O42695  12.351   6.122   4.917  0.6047  0.0056  0.1252
  317MOL0     C42696  12.483   6.130   4.856 -0.2117 -0.3962 -0.3689
  317MOL0     C42697  12.549   6.263   4.898  0.3135 -0.4651 -0.6279
  317MOL0     C42698  12.701   6.256   4.890 -0.8029  0.1470 -0.8696
  317MOL0     C42699  12.768   6.399   4.901 -0.8954  0.2350 -0.2305
  317MOL0     C42700  12.914   6.395   4.860 -0.5371  0.9412  0.1506
  317MOL0     C42701  12.982   6.534   4.851  0.3962  0.5604 -0.4923
  317MOL0     C42702  13.104   6.509   4.763 -0.4184  0.2780 -0.2839
  317MOL0     C42703  13.216   6.620   4.786  0.4069 -0.3501  0.4274
  317MOL0    Cl42704  13.368   6.595   4.682  0.4338  0.0146  0.1891
  317MOL0     C42705  12.221   5.944   4.819  0.0020 -0.2912 -0.7150
  317MOL0     C42706  12.165   5.817   4.825 -0.4829 -0.0111 -0.0563
  317MOL0     O42707  11.936   5.689   4.918  1.0383 -0.5310  0.3561
  317MOL0     C42708  11.818   5.433   4.866 -1.3359  0.2929 -0.8050
  317MOL0     C42709  11.768   5.304   4.826  0.0025 -0.1593  0.5551
  317MOL0     N42710  11.323   4.593   4.925  0.3020  1.2913 -0.0889
  317MOL0     N42711  11.217   4.526   4.893 -0.1381 -0.5723  0.5680
  317MOL0     C42712  10.378   4.896   4.147  0.6803  0.3810 -0.2343
  317MOL0     C42713  10.319   4.929   4.024  0.2766 -0.0499  0.2481
  317MOL0     C42714  10.064   5.038   3.667  0.6593  0.3370  0.5293
  317MOL0     C42715   9.934   5.049   3.711 -0.1558  0.7378 -0.0907
  317MOL0     C42716   9.821   5.056   3.628 -0.2238 -0.3636  0.4694
  317MOL0     C42717   9.837   5.033   3.494 -0.5728  0.7342 -0.3601
  317MOL0     O42718   9.724   5.021   3.418  0.0207  0.3169  0.5183
  317MOL0     C42719   9.739   5.045   3.277 -0.1500  0.2924  0.2596
  317MOL0     C42720   9.774   4.914   3.201  0.2127 -0.8633  0.0549
  317MOL0     C42721   9.645   4.835   3.189  0.1782 -0.1362  0.5762
  317MOL0     C42722   9.672   4.737   3.070  0.2976 -0.4378 -0.0081
  317MOL0     C42723   9.786   4.651   3.079 -0.0913 -0.8470 -0.6502
  317MOL0     C42724   9.905   4.621   3.096 -0.3659  1.2426 -0.7548
  317MOL0     C42725   9.968   5.022   3.441 -0.8685  0.2818  0.4267
  317MOL0     C42726  10.079   5.035   3.527  0.0255  0.3373  0.2485
  317MOL0     C42727  10.212   5.024   3.449  0.1769 -0.2583  0.2798
  317MOL0     H42728  10.078   5.141   4.125 -0.3168  1.0690  0.5310
  317MOL0     H42729  10.235   5.122   4.344  1.8806  0.9127 -0.1560
  317MOL0     H42730  10.362   4.767   4.458  3.0250 -3.7418  0.0970
  317MOL0     H42731  10.503   4.771   4.357 -2.2029 -1.9464  0.2937
  317MOL0     H42732  10.470   4.832   4.647 -1.9670  0.8422 -1.5506
  317MOL0     H42733  10.586   4.934   4.552 -0.8163  0.4778 -2.8015
  317MOL0     H42734  10.725   4.732   4.486  2.8351 -0.8535  2.1432
  317MOL0     H42735  10.591   4.630   4.526 -1.9188  0.4399  2.4157
  317MOL0     H42736  10.746   4.789   4.739 -2.0177  0.1721  0.5692
  317MOL0     H42737  10.636   4.671   4.778 -0.6635  0.1702 -0.0922
  317MOL0     H42738  10.821   4.523   4.786 -2.6858 -0.8453 -0.6894
  317MOL0     H42739  10.778   4.502   4.632  0.4105 -2.6657  2.1146
  317MOL0     H42740  10.925   4.718   4.590 -0.1764  0.0914  0.3091
  317MOL0     H42741  10.999   4.677   4.752  3.4246 -4.4343  0.3109
  317MOL0     H42742  11.107   4.573   4.525 -0.0660 -1.3840 -0.8732
  317MOL0     H42743  10.972   4.456   4.534  1.2695 -1.3807 -1.4882
  317MOL0     H42744  11.042   4.380   4.754 -0.8978  1.7534  1.0477
  317MOL0     H42745  11.163   4.359   4.635  2.1518  1.7801 -0.0528
  317MOL0     H42746  11.362   4.560   4.608  0.1633 -0.4733  0.0587
  317MOL0     H42747  11.615   4.616   4.849  0.8528  0.4949 -1.4444
  317MOL0     H42748  11.565   4.658   4.684 -1.9112  1.6243 -0.9796
  317MOL0     H42749  11.452   4.870   4.767 -2.5626 -1.5049  1.6218
  317MOL0     H42750  11.504   4.829   4.926 -0.8016  0.7650 -0.0410
  317MOL0     H42751  11.716   4.827   4.709  2.3611  0.6293  0.1386
  317MOL0     H42752  11.741   4.846   4.880  2.2373 -0.4526 -1.8212
  317MOL0     H42753  11.616   5.076   4.827 -0.8837 -1.0765  0.4735
  317MOL0     H42754  11.661   5.048   4.660 -0.3008 -0.5022  0.1882
  317MOL0     H42755  12.075   5.144   4.843  1.8911  0.5447  4.3281
  317MOL0     H42756  12.150   5.361   4.887  0.5909 -2.5482 -0.5041
  317MOL0     H42757  12.318   5.704   5.097  0.3781 -1.0587 -1.1947
  317MOL0     H42758  12.386   5.938   5.115 -3.5914  2.1700  1.4066
  317MOL0     H42759  12.547   6.043   4.868 -2.1207 -1.7817  0.1236
  317MOL0     H42760  12.453   6.137   4.751  1.7120 -0.0957 -0.9366
  317MOL0     H42761  12.507   6.343   4.836  0.0649  0.3146  0.5169
  317MOL0     H42762  12.526   6.277   5.004 -0.8001 -2.9583 -0.4630
  317MOL0     H42763  12.750   6.195   4.966  1.5592  1.9928 -0.8174
  317MOL0     H42764  12.736   6.219   4.794 -1.1041 -0.2067 -0.8438
  317MOL0     H42765  12.755   6.445   4.999 -1.0232  1.6287 -0.8814
  317MOL0     H42766  12.718   6.467   4.832  1.4041  1.0866 -1.1457
  317MOL0     H42767  12.924   6.360   4.756  0.2895  1.9172 -0.1196
  317MOL0     H42768  12.970   6.338   4.934  0.1301  1.6295  0.1904
  317MOL0     H42769  12.916   6.613   4.815 -0.0349 -0.3303 -1.7560
  317MOL0     H42770  13.008   6.559   4.954 -0.2440 -2.1764  0.4336
  317MOL0     H42771  13.069   6.511   4.660  3.6031 -1.3670 -1.8917
  317MOL0     H42772  13.153   6.412   4.778 -0.1396  0.5362  0.5857
  317MOL0     H42773  13.179   6.722   4.772  2.7798  0.6018  0.6137
  317MOL0     H42774  13.229   6.619   4.895 -2.0655 -0.7691  0.7746
  317MOL0     H42775  12.217   6.005   4.729 -0.3260 -0.1288 -0.5936
  317MOL0     H42776  12.094   5.774   4.756  1.1817 -0.5673 -1.4909
  317MOL0     H42777  11.750   5.516   4.880 -1.5760 -0.0541  0.2374
  317MOL0     H42778  11.663   5.282   4.805  0.3691 -0.2187 -1.3173
  317MOL0     H42779  10.450   4.815   4.155  3.0436  2.2781 -1.1070
  317MOL0     H42780  10.344   4.859   3.945  0.9796  0.6154 -0.1329
  317MOL0     H42781   9.908   5.047   3.817 -2.6057 -0.4609 -0.6330
  317MOL0     H42782   9.730   5.076   3.684 -0.8668  3.0715 -1.5404
  317MOL0     H42783   9.820   5.110   3.244 -0.0776  0.2502  0.3570
  317MOL0     H42784   9.649   5.089   3.233 -0.6052 -1.9082 -1.1510
  317MOL0     H42785   9.851   4.863   3.260 -0.9605 -0.0666  2.3647
  317MOL0     H42786   9.825   4.932   3.106  1.8658  1.3963  1.2865
  317MOL0     H42787   9.565   4.900   3.151 -0.3167 -0.8531  0.3638
  317MOL0     H42788   9.617   4.790   3.284 -0.1347  2.2726  1.7076
  317MOL0     H42789   9.579   4.682   3.058 -0.7041  1.7362 -4.2618
  317MOL0     H42790   9.679   4.802   2.982 -0.7731  1.2091  1.0911
  317MOL0     H42791   9.999   4.570   3.097 -1.6475 -1.3650  1.8845
  317MOL0     H42792   9.993   4.999   3.338 -1.7905  0.7186  0.0942
  317MOL0     H42793  10.194   5.058   3.347  0.6059  2.2843  0.9579
  317MOL0     H42794  10.290   5.091   3.488 -2.0262  2.1705  0.8219
  317MOL0     H42795  10.260   4.927   3.460  1.8433  0.5882  0.8900
  318MOL0     O42796   0.431   9.435   7.694 -0.4229  0.3963  0.5704
  318MOL0     C42797   0.402   9.349   7.772 -0.4915  0.0556 -0.6294
  318MOL0     O42798   0.489   9.293   7.868  0.6265 -0.7849 -0.4735
  318MOL0     C42799   0.617   9.323   7.857 -0.0430  0.3530  0.3181
  318MOL0     C42800   0.668   9.425   7.938 -0.2382  0.8408 -0.0873
  318MOL0     C42801   0.795   9.473   7.927 -0.1958 -0.3570  0.1971
  318MOL0     C42802   0.886   9.408   7.834  0.0502 -0.0016 -0.7357
  318MOL0     O42803   1.010   9.445   7.816 -0.7143 -0.0355 -0.5238
  318MOL0     C42804   1.060   9.547   7.906  0.6972 -0.0029 -0.2456
  318MOL0     C42805   1.213   9.582   7.878  0.4404  0.6379  0.7116
  318MOL0     C42806   1.294   9.610   8.012  0.0673 -0.9509  0.5119
  318MOL0     C42807   1.444   9.640   7.986  0.7854  0.2322  0.3010
  318MOL0     C42808   1.476   9.785   7.949 -0.4194 -0.6065  0.4829
  318MOL0     C42809   1.622   9.789   7.906  0.0100 -0.9864 -1.1489
  318MOL0     C42810   1.662   9.936   7.892 -0.6613  0.6719 -0.5223
  318MOL0     C42811   1.810   9.957   7.854  0.2663 -0.9025  0.6820
  318MOL0     N42812   1.841  10.101   7.835 -0.0509 -0.2802 -0.5672
  318MOL0     C42813   1.755  10.196   7.779 -0.6363  0.7609  0.0374
  318MOL0     C42814   1.826  10.310   7.773 -0.1532  0.0350  0.4372
  318MOL0     C42815   1.776  10.448   7.732  0.4155  0.3176 -0.4322
  318MOL0     C42816   1.673  10.507   7.831 -0.2551 -0.7523 -0.2906
  318MOL0     C42817   1.704  10.661   7.847  0.0350 -0.4991 -0.4029
  318MOL0     C42818   1.599  10.742   7.924 -0.0586 -0.3395  1.0640
  318MOL0     O42819   1.480  10.773   7.861  0.0553 -0.5269  0.7890
  318MOL0     C42820   1.359  10.737   7.931  0.4269  0.2207 -0.2753
  318MOL0     C42821   1.249  10.823   7.929  0.1020 -0.3062  0.2896
  318MOL0     C42822   1.128  10.790   7.990 -0.5218  0.1803 -0.5948
  318MOL0     C42823   1.107  10.669   8.070  0.4805  0.1981  0.7983
  318MOL0     C42824   0.984  10.632   8.133  0.2391  0.3495 -0.6950
  318MOL0     O42825   0.989  10.514   8.201 -0.0573 -0.3001  0.0637
  318MOL0     C42826   0.875  10.452   8.263 -0.9762 -0.5216 -0.8379
  318MOL0     C42827   0.914  10.346   8.346  0.5489  0.1849 -0.0141
  318MOL0     C42828   0.827  10.252   8.384 -0.1198  0.1957  0.0966
  318MOL0     C42829   0.692  10.276   8.362  0.9644  0.2245 -0.3350
  318MOL0     O42830   0.606  10.185   8.417 -0.1954 -0.5081  0.2626
  318MOL0     C42831   0.471  10.173   8.374 -0.3632 -0.6531 -0.5259
  318MOL0     C42832   0.412  10.054   8.445  0.2628  0.1482 -0.2195
  318MOL0     C42833   0.291   9.973   8.383 -0.2548 -0.3953  0.0341
  318MOL0     C42834   0.168  10.056   8.377  0.1649  0.3910 -1.0068
  318MOL0     C42835   0.054  10.007   8.290 -0.0437  0.6814  0.8450
  318MOL0     C42836  -0.084  10.075   8.304  0.3156 -0.0747 -0.5291
  318MOL0     C42837  -0.189  10.029   8.203  0.1870 -0.7216  0.2146
  318MOL0     C42838  -0.329  10.102   8.208 -0.1659  0.1027 -0.4383
  318MOL0    Cl42839  -0.348  10.214   8.072  0.0099  0.2030  0.1497
  318MOL0     C42840   0.649  10.377   8.275  0.0989  0.3369  0.4727
  318MOL0     C42841   0.743  10.466   8.231  0.1755  1.2526  0.8013
  318MOL0     O42842   0.883  10.705   8.129 -0.1589  0.1438 -0.6526
  318MOL0     C42843   1.218  10.582   8.071 -0.7246  0.1888 -0.3828
  318MOL0     C42844   1.336  10.620   8.004 -0.5660  0.6163 -0.0315
  318MOL0     N42845   1.962  10.280   7.822  0.4087 -0.9397  0.1335
  318MOL0     N42846   1.964  10.154   7.849  0.1191  0.0463  0.7911
  318MOL0     C42847   0.835   9.312   7.745  0.5377 -0.7718  0.0181
  318MOL0     C42848   0.703   9.263   7.760 -0.3136  1.2863  0.8818
  318MOL0     C42849   0.253   9.320   7.777  0.4171 -0.2087 -0.1026
  318MOL0     C42850   0.171   9.399   7.691  0.2545 -0.0872  0.2545
  318MOL0     C42851   0.034   9.383   7.687  0.6168  0.2919  0.6841
  318MOL0     C42852  -0.030   9.295   7.776  1.2855  0.3839  0.4634
  318MOL0     O42853  -0.170   9.297   7.787 -0.2586 -0.1964  0.5159
  318MOL0     C42854  -0.241   9.189   7.735  0.7466  0.3019  0.4774
  318MOL0     C42855  -0.399   9.212   7.719 -0.4776  0.1306 -0.3922
  318MOL0     C42856  -0.438   9.329   7.627 -0.0213  0.3259 -1.0842
  318MOL0     C42857  -0.400   9.470   7.675 -0.1619 -0.8334  0.0583
  318MOL0     C42858  -0.469   9.569   7.591 -0.5618 -0.6854 -0.1876
  318MOL0     C42859  -0.534   9.644   7.525 -0.1834  0.2638 -0.2517
  318MOL0     C42860   0.050   9.208   7.861 -0.1172 -0.4128 -0.0719
  318MOL0     C42861   0.189   9.216   7.862 -0.4036 -0.5905  0.3171
  318MOL0     C42862   0.262   9.121   7.954 -0.7668 -0.6120  1.2241
  318MOL0     H42863   0.602   9.459   8.017 -1.6999 -0.9047 -0.4817
  318MOL0     H42864   0.827   9.547   8.000 -2.5045  0.0040  0.9529
  318MOL0     H42865   1.010   9.644   7.907  1.4592  0.4294 -1.5828
  318MOL0     H42866   1.051   9.510   8.009  0.4451  0.5410 -0.0648
  318MOL0     H42867   1.223   9.667   7.809 -0.8480 -0.3139 -0.7209
  318MOL0     H42868   1.259   9.493   7.833  2.9158  1.0532  2.2161
  318MOL0     H42869   1.293   9.524   8.078  1.4318  0.5609  2.6226
  318MOL0     H42870   1.244   9.692   8.064  0.9264 -0.6741  0.9193
  318MOL0     H42871   1.499   9.614   8.077  1.4978 -0.6721 -0.3673
  318MOL0     H42872   1.473   9.577   7.902  0.2392 -2.0894  1.7554
  318MOL0     H42873   1.413   9.805   7.862  1.4546 -2.4911 -1.3963
  318MOL0     H42874   1.464   9.848   8.038  1.1758  2.2712 -1.2130
  318MOL0     H42875   1.688   9.743   7.979  2.0096  0.8255 -1.7252
  318MOL0     H42876   1.632   9.735   7.811 -0.2232 -0.7913 -1.2884
  318MOL0     H42877   1.632   9.984   7.985 -0.9688 -0.0825 -0.2224
  318MOL0     H42878   1.596   9.986   7.820 -1.4934  0.8964  0.3756
  318MOL0     H42879   1.881   9.910   7.921  0.0183 -1.3286  0.6481
  318MOL0     H42880   1.821   9.910   7.756  1.3716 -2.5287  1.5424
  318MOL0     H42881   1.648  10.185   7.765 -0.4903 -1.1903  0.2524
  318MOL0     H42882   1.865  10.512   7.728  2.4021 -2.3357 -1.2529
  318MOL0     H42883   1.732  10.449   7.632 -0.4993 -0.8261 -0.0624
  318MOL0     H42884   1.572  10.502   7.787  0.0179  1.4389 -1.3014
  318MOL0     H42885   1.680  10.455   7.927  0.9925  0.4550  0.2887
  318MOL0     H42886   1.714  10.707   7.748  1.4203 -1.9913 -0.9818
  318MOL0     H42887   1.799  10.671   7.901 -0.2728 -3.6382  0.8961
  318MOL0     H42888   1.649  10.837   7.945 -0.4632  0.6431 -1.8135
  318MOL0     H42889   1.585  10.684   8.015  0.0567  1.6958  2.4468
  318MOL0     H42890   1.265  10.916   7.875  2.0716 -0.3798  0.6795
  318MOL0     H42891   1.042  10.856   7.979  0.3077  1.4429  0.2455
  318MOL0     H42892   1.020  10.350   8.366  0.3504  0.6142  0.9899
  318MOL0     H42893   0.860  10.165   8.440  0.4233  0.3904  0.0828
  318MOL0     H42894   0.413  10.266   8.384 -2.9406 -2.1967 -0.1257
  318MOL0     H42895   0.460  10.146   8.268 -0.1108 -0.6663 -0.5500
  318MOL0     H42896   0.490   9.978   8.457  2.6945  2.2291 -1.6296
  318MOL0     H42897   0.386  10.087   8.546  0.0793 -2.8695  0.8297
  318MOL0     H42898   0.310   9.937   8.281 -3.6026 -3.5076  0.3129
  318MOL0     H42899   0.275   9.882   8.442 -4.3009 -0.0200 -0.2027
  318MOL0     H42900   0.191  10.161   8.356  0.3739  0.7199  0.7457
  318MOL0     H42901   0.124  10.056   8.477 -1.6775  0.3762 -1.7869
  318MOL0     H42902   0.044   9.899   8.298 -2.0855  0.4346 -2.8119
  318MOL0     H42903   0.091  10.018   8.188  2.2992 -1.1910  1.4139
  318MOL0     H42904  -0.135  10.053   8.398 -1.9083  1.9025 -1.1718
  318MOL0     H42905  -0.069  10.182   8.291 -2.4304  0.1574 -2.8247
  318MOL0     H42906  -0.207   9.921   8.216 -2.9754 -0.2495  0.6538
  318MOL0     H42907  -0.141  10.039   8.106 -0.0014 -0.8716  0.1032
  318MOL0     H42908  -0.414  10.033   8.200 -2.1906  2.2561  1.0067
  318MOL0     H42909  -0.353  10.151   8.302 -0.6330 -0.4838 -0.2393
  318MOL0     H42910   0.546  10.401   8.250 -0.5502  0.8400  3.2732
  318MOL0     H42911   0.719  10.547   8.164 -1.1666 -0.4924 -0.9678
  318MOL0     H42912   1.215  10.486   8.123 -0.0452 -0.7974 -2.1032
  318MOL0     H42913   1.416  10.546   8.002 -0.1702  1.0453 -1.4630
  318MOL0     H42914   0.888   9.260   7.666 -2.7113  1.0553 -3.6727
  318MOL0     H42915   0.662   9.191   7.690  2.5166 -0.1911  0.5974
  318MOL0     H42916   0.214   9.473   7.625 -1.3768 -0.6046 -1.4730
  318MOL0     H42917  -0.027   9.453   7.633 -0.4956 -1.2280 -0.1005
  318MOL0     H42918  -0.228   9.103   7.801  2.0358  0.4987  0.5110
  318MOL0     H42919  -0.207   9.166   7.633 -2.8174 -1.1249 -0.5324
  318MOL0     H42920  -0.440   9.237   7.818  0.2374  3.1187 -0.7588
  318MOL0     H42921  -0.447   9.121   7.682 -1.7211  0.9808 -0.9299
  318MOL0     H42922  -0.547   9.330   7.617 -0.2671 -1.8658  0.5793
  318MOL0     H42923  -0.399   9.311   7.527  1.7052 -1.0646 -0.2103
  318MOL0     H42924  -0.424   9.482   7.781  0.3725 -0.5415  0.1493
  318MOL0     H42925  -0.294   9.494   7.677 -0.5347  1.2895 -1.7107
  318MOL0     H42926  -0.607   9.686   7.458 -1.7431 -0.8877  0.6654
  318MOL0     H42927   0.005   9.142   7.935  1.6801 -1.4531  0.1406
  318MOL0     H42928   0.319   9.185   8.021  2.7208 -3.3976  1.2288
  318MOL0     H42929   0.197   9.052   8.009 -0.0375 -1.6487  0.8228
  318MOL0     H42930   0.338   9.065   7.899 -0.1664  2.5189 -1.4424
  319MOL0     O42931   3.461   6.939   8.955 -0.0878 -0.2703  0.3933
  319MOL0     C42932   3.393   6.857   8.884 -0.0403 -0.2342 -0.6812
  319MOL0     O42933   3.440   6.765   8.792  0.2324 -0.1922  0.3030
  319MOL0     C42934   3.572   6.767   8.743 -0.0218  0.1259 -0.7350
  319MOL0     C42935   3.683   6.821   8.801 -0.4817 -0.2469 -0.4379
  319MOL0     C42936   3.807   6.822   8.740  0.0139  0.2106  0.8397
  319MOL0     C42937   3.822   6.759   8.615 -0.6980 -0.2778 -0.4346
  319MOL0     O42938   3.946   6.729   8.576 -0.4429  0.7926 -0.1356
  319MOL0     C42939   3.960   6.653   8.448  0.4410 -0.1363  0.0635
  319MOL0     C42940   4.109   6.647   8.409  1.2605  0.5395 -0.1716
  319MOL0     C42941   4.150   6.539   8.300 -0.5239 -0.3702  0.4838
  319MOL0     C42942   4.047   6.500   8.188  1.1629 -0.4588  0.1048
  319MOL0     C42943   4.113   6.407   8.085 -0.1911 -0.5445 -0.5501
  319MOL0     C42944   4.017   6.310   8.034  0.2428  0.5712  0.3389
  319MOL0     C42945   3.914   6.387   7.940  0.3885 -0.2408  0.1390
  319MOL0     C42946   3.789   6.301   7.900 -0.0478  0.3019 -0.1610
  319MOL0     N42947   3.698   6.358   7.792  0.1232  0.1196 -0.0084
  319MOL0     C42948   3.747   6.400   7.672  0.3637  0.3306 -0.4150
  319MOL0     C42949   3.639   6.454   7.613  0.7737  0.4284  0.4723
  319MOL0     C42950   3.635   6.546   7.496 -0.0040 -0.2132  0.8494
  319MOL0     C42951   3.606   6.463   7.374 -0.3652 -0.6132 -0.2516
  319MOL0     C42952   3.575   6.548   7.242  0.0731  0.1315 -0.3062
  319MOL0     C42953   3.705   6.627   7.203  0.8439 -0.0705  0.2544
  319MOL0     O42954   3.706   6.655   7.060  0.6351  0.0812  0.0155
  319MOL0     C42955   3.603   6.728   7.007 -0.1480 -0.7902 -0.0150
  319MOL0     C42956   3.562   6.853   7.055  0.3791  0.2362 -0.3811
  319MOL0     C42957   3.451   6.920   7.004 -0.4749 -0.1028  0.2282
  319MOL0     C42958   3.383   6.868   6.890  0.4627  0.1679  0.0270
  319MOL0     C42959   3.254   6.929   6.839  0.3881  0.3001 -0.7608
  319MOL0     O42960   3.233   7.064   6.856 -0.2385  0.5208 -0.5108
  319MOL0     C42961   3.141   7.133   6.784 -1.0621 -0.9718  0.2146
  319MOL0     C42962   3.187   7.215   6.677  0.4860  0.1423  0.1131
  319MOL0     C42963   3.101   7.302   6.603  0.4362  0.5728  0.7336
  319MOL0     C42964   2.963   7.301   6.638 -0.1568  0.6353 -0.1376
  319MOL0     O42965   2.855   7.367   6.582 -0.1626  0.1324 -0.7104
  319MOL0     C42966   2.899   7.459   6.476 -0.0020  0.9655  0.4182
  319MOL0     C42967   2.785   7.494   6.374 -0.2819  0.2008  1.2566
  319MOL0     C42968   2.707   7.615   6.414 -0.5713 -0.0646 -0.5737
  319MOL0     C42969   2.618   7.673   6.302 -0.6243  0.7467 -0.1333
  319MOL0     C42970   2.534   7.787   6.346  0.4788 -0.4964 -0.5123
  319MOL0     C42971   2.404   7.829   6.270  0.2269  0.0999  0.0796
  319MOL0     C42972   2.355   7.966   6.323  0.6745 -0.8875 -0.2256
  319MOL0     C42973   2.247   8.036   6.242 -0.1716 -0.2860  0.1471
  319MOL0    Cl42974   2.238   8.198   6.308  0.2485  0.1740 -0.0456
  319MOL0     C42975   2.918   7.204   6.730 -0.5215 -0.2499 -0.8485
  319MOL0     C42976   3.004   7.136   6.812 -0.5867 -0.1095 -0.7384
  319MOL0     O42977   3.176   6.846   6.777 -0.1236  0.9532  0.0324
  319MOL0     C42978   3.424   6.741   6.838  0.0403  0.2037  0.3206
  319MOL0     C42979   3.537   6.680   6.893 -0.4887 -0.4035 -0.1191
  319MOL0     N42980   3.530   6.442   7.695 -0.2498  0.4347  0.5737
  319MOL0     N42981   3.568   6.383   7.799  0.1054 -0.4918 -0.0554
  319MOL0     C42982   3.710   6.718   8.545  0.2131 -0.0646 -0.5255
  319MOL0     C42983   3.585   6.717   8.608 -0.5185 -0.6553  0.5052
  319MOL0     C42984   3.242   6.860   8.910 -0.3744  0.3324 -0.9563
  319MOL0     C42985   3.165   6.755   8.854  0.2586  0.3308  0.9673
  319MOL0     C42986   3.042   6.728   8.906  0.1398 -0.7717  0.1097
  319MOL0     C42987   2.978   6.806   9.006  0.2454 -0.0736  0.6600
  319MOL0     O42988   2.857   6.760   9.042  0.8696  0.1715  0.0968
  319MOL0     C42989   2.803   6.798   9.164 -0.0489  0.3543  0.2962
  319MOL0     C42990   2.661   6.744   9.175 -0.0969  0.3199  0.3150
  319MOL0     C42991   2.559   6.820   9.085  0.2727  0.3928 -0.4678
  319MOL0     C42992   2.429   6.751   9.130  0.5945  0.3131 -0.2614
  319MOL0     C42993   2.326   6.801   9.031 -0.1661 -0.5920 -0.8343
  319MOL0     C42994   2.227   6.840   8.975 -0.8245  0.2721 -0.5570
  319MOL0     C42995   3.047   6.925   9.048 -0.3114  0.3616 -0.5039
  319MOL0     C42996   3.179   6.947   9.013 -0.8939  0.0119 -0.5897
  319MOL0     C42997   3.247   7.048   9.104 -0.3258  0.8224 -0.4064
  319MOL0     H42998   3.680   6.860   8.903 -0.2676  3.2794 -1.6488
  319MOL0     H42999   3.897   6.858   8.789  0.1584  0.7899  0.1611
  319MOL0     H43000   3.910   6.555   8.445 -0.5525  0.3923 -1.8687
  319MOL0     H43001   3.915   6.702   8.361  0.3736  1.2100  0.8263
  319MOL0     H43002   4.172   6.634   8.497 -1.4439 -0.9171  1.6886
  319MOL0     H43003   4.124   6.751   8.379 -2.5545  0.9776 -1.0373
  319MOL0     H43004   4.164   6.453   8.366  0.9862  0.3094  1.1065
  319MOL0     H43005   4.240   6.551   8.239 -1.4261  0.3956 -0.7439
  319MOL0     H43006   3.972   6.443   8.242  0.5323 -0.5093 -0.7909
  319MOL0     H43007   3.997   6.586   8.142  1.1458 -0.6245 -0.1909
  319MOL0     H43008   4.151   6.473   8.006 -0.9187 -1.8999 -2.0876
  319MOL0     H43009   4.193   6.349   8.133  0.2451 -0.1121 -0.7486
  319MOL0     H43010   4.061   6.228   7.976  1.9473  0.4682  1.7250
  319MOL0     H43011   3.963   6.262   8.117 -0.0680 -1.5233 -0.9967
  319MOL0     H43012   3.971   6.412   7.851  0.0172 -0.5365 -0.1843
  319MOL0     H43013   3.882   6.482   7.984 -3.3105  0.0172 -2.6672
  319MOL0     H43014   3.827   6.203   7.868 -1.3418 -0.3564  0.2407
  319MOL0     H43015   3.725   6.295   7.988  0.4382  0.0699  0.1795
  319MOL0     H43016   3.844   6.380   7.626 -0.4729 -2.4906 -1.1587
  319MOL0     H43017   3.554   6.619   7.506 -2.1359 -2.1372 -1.2803
  319MOL0     H43018   3.728   6.604   7.486  0.0705 -0.8176 -3.7337
  319MOL0     H43019   3.686   6.389   7.371  0.6111  0.4111 -0.1445
  319MOL0     H43020   3.511   6.412   7.388  0.3173 -2.2838 -1.4109
  319MOL0     H43021   3.492   6.617   7.258 -1.4953 -1.8916  0.8076
  319MOL0     H43022   3.557   6.471   7.166  1.7705  2.2509 -3.0672
  319MOL0     H43023   3.794   6.574   7.238  1.7859 -0.5945 -2.6650
  319MOL0     H43024   3.708   6.727   7.247  1.5002  0.0030  0.0659
  319MOL0     H43025   3.627   6.899   7.129  0.9817 -2.5320  0.9615
  319MOL0     H43026   3.402   7.001   7.059  0.4893  0.6513  0.0094
  319MOL0     H43027   3.295   7.211   6.663  0.4616  0.8684 -0.3271
  319MOL0     H43028   3.135   7.374   6.530  0.4621  0.8571  1.0270
  319MOL0     H43029   2.949   7.547   6.518 -0.0083  0.6197  1.1596
  319MOL0     H43030   2.981   7.423   6.414 -0.2097  0.9062  0.1742
  319MOL0     H43031   2.832   7.516   6.277 -1.5325 -0.5153  0.4692
  319MOL0     H43032   2.727   7.403   6.359  1.5564 -0.7880 -0.2674
  319MOL0     H43033   2.659   7.587   6.508  1.9375  1.0230  1.1440
  319MOL0     H43034   2.773   7.697   6.440 -2.4058  2.0442 -2.2071
  319MOL0     H43035   2.560   7.596   6.249  0.8991  0.0337 -0.8179
  319MOL0     H43036   2.692   7.702   6.227 -0.6913 -5.4803 -3.3348
  319MOL0     H43037   2.598   7.875   6.356  0.7268 -0.6243 -0.9410
  319MOL0     H43038   2.505   7.753   6.446  3.2445 -1.9490 -0.0827
  319MOL0     H43039   2.424   7.850   6.165  0.1772 -1.2423 -0.2234
  319MOL0     H43040   2.323   7.755   6.270 -1.5001  1.9379 -0.1047
  319MOL0     H43041   2.443   8.030   6.331 -0.8280  1.0411  3.2244
  319MOL0     H43042   2.319   7.950   6.426  1.5986 -0.8969  0.1053
  319MOL0     H43043   2.283   8.058   6.141  0.5066  2.4624  0.9204
  319MOL0     H43044   2.148   7.989   6.243 -1.7072  2.6702  2.2386
  319MOL0     H43045   2.814   7.192   6.758 -0.1112 -1.7189  0.1831
  319MOL0     H43046   2.970   7.069   6.891 -1.7111 -2.1702 -2.8592
  319MOL0     H43047   3.373   6.696   6.754 -0.3497 -0.8147  1.0799
  319MOL0     H43048   3.569   6.584   6.856  0.0365 -0.0219 -0.6610
  319MOL0     H43049   3.702   6.671   8.448 -1.6040  2.0498 -1.4927
  319MOL0     H43050   3.507   6.667   8.552  0.1512  1.3170 -2.3815
  319MOL0     H43051   3.211   6.687   8.783  1.8541  2.4102 -0.0854
  319MOL0     H43052   2.990   6.640   8.869 -0.8845  0.9950 -3.1169
  319MOL0     H43053   2.801   6.907   9.174 -1.4010  0.2026  2.0765
  319MOL0     H43054   2.864   6.743   9.237  1.5811 -1.4092 -2.2285
  319MOL0     H43055   2.623   6.753   9.277 -0.3617 -1.7648  0.4574
  319MOL0     H43056   2.653   6.639   9.146 -2.4916  0.7623 -0.9331
  319MOL0     H43057   2.570   6.810   8.977 -3.7036  1.8532 -1.1741
  319MOL0     H43058   2.555   6.924   9.121 -1.1536 -1.0244  4.2680
  319MOL0     H43059   2.434   6.642   9.134 -0.1623  0.2912  0.4332
  319MOL0     H43060   2.403   6.790   9.229 -0.7822 -1.0364 -0.0598
  319MOL0     H43061   2.129   6.867   8.943 -1.3596 -0.1535  0.6664
  319MOL0     H43062   2.987   6.977   9.121  0.6927 -0.8471  1.2667
  319MOL0     H43063   3.168   7.108   9.148 -1.8300 -1.5103  0.2351
  319MOL0     H43064   3.298   7.002   9.190  0.2224 -0.0120 -1.1478
  319MOL0     H43065   3.309   7.117   9.046 -0.8684 -2.3671 -5.3795
  320MOL0     O43066  10.745   3.175   5.974  0.2198  0.1021 -0.0204
  320MOL0     C43067  10.751   3.286   5.935  0.1037  0.1795 -0.1520
  320MOL0     O43068  10.866   3.363   5.942  0.4116  0.3553 -0.1246
  320MOL0     C43069  10.986   3.294   5.955  0.1937 -0.6150 -0.4514
  320MOL0     C43070  11.035   3.245   5.834 -0.3605 -0.5227  0.4251
  320MOL0     C43071  11.154   3.169   5.827  0.2977 -0.4856  0.3888
  320MOL0     C43072  11.224   3.144   5.943 -1.0064  0.4888 -0.8364
  320MOL0     O43073  11.336   3.067   5.951 -0.4527 -0.5285  0.0661
  320MOL0     C43074  11.384   2.996   5.844  0.2857 -0.7116  0.7371
  320MOL0     C43075  11.481   2.889   5.864 -0.0871  0.3595 -0.4958
  320MOL0     C43076  11.406   2.757   5.878  0.9389  0.5846  0.0642
  320MOL0     C43077  11.497   2.638   5.900  0.8912 -1.0844  0.3733
  320MOL0     C43078  11.417   2.520   5.935 -0.7219 -0.0850 -0.4164
  320MOL0     C43079  11.499   2.402   5.957 -0.6933 -0.0054 -0.0551
  320MOL0     C43080  11.418   2.282   5.994  0.8609 -0.9484  0.0083
  320MOL0     C43081  11.479   2.155   5.933  0.4904  0.0994  0.6888
  320MOL0     N43082  11.441   2.032   6.008  0.1015 -0.3122 -0.5095
  320MOL0     C43083  11.320   1.976   6.024 -0.4799 -0.5381  0.1928
  320MOL0     C43084  11.336   1.868   6.092 -0.2078  0.6199  0.0148
  320MOL0     C43085  11.241   1.756   6.131 -0.4163 -0.0995 -0.0454
  320MOL0     C43086  11.238   1.639   6.028 -0.0272 -0.0025  0.4481
  320MOL0     C43087  11.176   1.512   6.091 -0.5068  0.5798  0.0816
  320MOL0     C43088  11.030   1.523   6.129  0.1965 -0.4541  0.4202
  320MOL0     O43089  10.951   1.503   6.013  0.6972 -0.6216  0.3608
  320MOL0     C43090  10.819   1.480   6.031  1.1569 -0.2727 -0.0641
  320MOL0     C43091  10.727   1.584   6.073  0.0161  0.5210 -0.2805
  320MOL0     C43092  10.595   1.560   6.099 -0.2480 -0.0558 -0.6437
  320MOL0     C43093  10.544   1.432   6.081 -0.5566  0.8049 -0.0862
  320MOL0     C43094  10.401   1.403   6.098 -0.2163  0.8820 -0.7898
  320MOL0     O43095  10.364   1.275   6.099  0.1328  0.1274  0.0976
  320MOL0     C43096  10.235   1.247   6.088  0.1110 -0.1271  0.4565
  320MOL0     C43097  10.153   1.265   6.199 -1.0176  0.1256 -0.6741
  320MOL0     C43098  10.023   1.215   6.193 -0.4920 -0.3303  0.3030
  320MOL0     C43099   9.970   1.158   6.081  0.7673 -0.8402 -0.3777
  320MOL0     O43100   9.838   1.113   6.090  0.5064  0.1699 -0.3336
  320MOL0     C43101   9.743   1.220   6.075  0.5780  0.0681 -0.2688
  320MOL0     C43102   9.629   1.218   6.178  0.5070  0.4369  0.0088
  320MOL0     C43103   9.678   1.237   6.322  0.8238 -0.0156  0.7003
  320MOL0     C43104   9.700   1.110   6.395 -0.0054  0.0528  0.0920
  320MOL0     C43105   9.733   1.132   6.546  0.4418  0.4119 -0.7236
  320MOL0     C43106   9.874   1.196   6.567 -0.7238 -0.9869  0.6010
  320MOL0     C43107   9.918   1.214   6.718 -0.8424 -0.9299 -0.3420
  320MOL0     C43108   9.977   1.093   6.789  0.4333 -0.0996 -0.9327
  320MOL0    Cl43109   9.985   1.119   6.965  0.2429 -0.3975  0.1855
  320MOL0     C43110  10.047   1.153   5.961  0.9146 -0.1955 -0.1844
  320MOL0     C43111  10.179   1.196   5.972 -0.4756 -0.4917  1.1414
  320MOL0     O43112  10.333   1.504   6.096 -0.0039  0.3041  0.4275
  320MOL0     C43113  10.636   1.326   6.054  0.1207  0.1234 -0.0119
  320MOL0     C43114  10.773   1.352   6.022  0.0093  0.2195  0.7148
  320MOL0     N43115  11.466   1.851   6.125  1.0338 -0.6444 -0.0078
  320MOL0     N43116  11.529   1.959   6.076 -0.7534  0.8540 -0.3451
  320MOL0     C43117  11.169   3.193   6.065  0.3938  0.4137 -0.1773
  320MOL0     C43118  11.050   3.268   6.068  0.4297 -0.0830 -0.0600
  320MOL0     C43119  10.625   3.351   5.876 -1.0460  0.6033 -0.3823
  320MOL0     C43120  10.632   3.495   5.857 -0.6830  0.6234 -0.1563
  320MOL0     C43121  10.534   3.564   5.792  0.8891  0.1073 -0.2944
  320MOL0     C43122  10.411   3.499   5.779  0.3544 -0.4538  0.7099
  320MOL0     O43123  10.324   3.596   5.735 -0.1771 -0.0981  0.0230
  320MOL0     C43124  10.187   3.568   5.719  0.3848  0.8776  0.1461
  320MOL0     C43125  10.113   3.701   5.688  0.7020 -0.1855 -0.2433
  320MOL0     C43126  10.136   3.748   5.543  0.1483  0.2043 -0.1403
  320MOL0     C43127  10.279   3.806   5.524 -0.8591 -0.2624  0.1982
  320MOL0     C43128  10.291   3.849   5.387  0.7826 -0.4296  0.0364
  320MOL0     C43129  10.287   3.869   5.267 -1.7503 -0.5431  0.0321
  320MOL0     C43130  10.398   3.368   5.799  0.6562  0.0360  0.6244
  320MOL0     C43131  10.508   3.288   5.847  1.2987  1.1087  0.2838
  320MOL0     C43132  10.489   3.138   5.871 -0.2440  0.0918 -0.7122
  320MOL0     H43133  10.986   3.265   5.739  0.6420  0.0581  0.0193
  320MOL0     H43134  11.190   3.134   5.731 -0.3433  3.0600 -1.2793
  320MOL0     H43135  11.296   2.950   5.798  0.4080 -1.7546  1.5052
  320MOL0     H43136  11.423   3.069   5.774  0.6483  2.4496  3.9346
  320MOL0     H43137  11.534   2.916   5.956 -1.3953  1.6375 -0.0691
  320MOL0     H43138  11.545   2.868   5.777 -1.2748 -0.9165 -1.0906
  320MOL0     H43139  11.351   2.733   5.786 -1.1856  0.7553  1.2173
  320MOL0     H43140  11.334   2.759   5.960  2.3978 -1.1101  1.4431
  320MOL0     H43141  11.553   2.629   5.806  0.8186  3.0781 -0.2979
  320MOL0     H43142  11.568   2.655   5.981  1.6342  4.1132 -0.9895
  320MOL0     H43143  11.354   2.531   6.023 -0.3182 -1.8664  0.1403
  320MOL0     H43144  11.347   2.497   5.853 -2.0891 -0.3566  0.7906
  320MOL0     H43145  11.545   2.385   5.860  1.0396 -3.7870  1.2294
  320MOL0     H43146  11.572   2.411   6.038 -1.3078  0.0744  0.4983
  320MOL0     H43147  11.316   2.283   5.955  1.0664  1.2769 -0.6042
  320MOL0     H43148  11.421   2.267   6.102  1.0890 -0.3004  0.0976
  320MOL0     H43149  11.446   2.144   5.829 -0.0065 -2.1457  1.0236
  320MOL0     H43150  11.587   2.171   5.929  0.7583 -1.6953 -0.0369
  320MOL0     H43151  11.234   2.013   5.969 -1.2728 -1.0734  1.0446
  320MOL0     H43152  11.280   1.718   6.226  0.6339 -1.6170 -1.0371
  320MOL0     H43153  11.145   1.802   6.157  0.3217  1.9966 -0.8427
  320MOL0     H43154  11.182   1.668   5.939  1.0758  0.7123 -0.0333
  320MOL0     H43155  11.337   1.620   5.986 -0.1561 -1.3175  0.7054
  320MOL0     H43156  11.249   1.488   6.169 -1.0362  2.5567  1.2373
  320MOL0     H43157  11.175   1.428   6.020  0.9251 -1.0475  1.8548
  320MOL0     H43158  11.000   1.611   6.186 -2.7937 -0.4255 -0.9983
  320MOL0     H43159  11.001   1.440   6.195  2.0375 -1.3884  0.1312
  320MOL0     H43160  10.752   1.688   6.092 -4.4580  1.3958  2.1539
  320MOL0     H43161  10.535   1.645   6.132  0.2873 -0.2828  1.0090
  320MOL0     H43162  10.203   1.292   6.291 -2.8829  0.6914  0.2176
  320MOL0     H43163   9.953   1.222   6.276  0.8445 -0.5070  1.4729
  320MOL0     H43164   9.794   1.316   6.084  0.9419 -0.1927  0.5418
  320MOL0     H43165   9.711   1.210   5.971 -0.6847  1.0863  0.0063
  320MOL0     H43166   9.569   1.306   6.154 -2.4713 -1.3568  0.3494
  320MOL0     H43167   9.566   1.137   6.141 -0.2684  0.9589  0.1617
  320MOL0     H43168   9.765   1.303   6.327  1.3419 -0.5086 -1.3114
  320MOL0     H43169   9.602   1.287   6.383  1.9288 -0.1504  2.2707
  320MOL0     H43170   9.789   1.067   6.347  0.2444  1.9669 -1.2853
  320MOL0     H43171   9.616   1.042   6.376 -0.8937  1.1025  0.1769
  320MOL0     H43172   9.724   1.030   6.586 -0.8125 -0.1834 -2.4148
  320MOL0     H43173   9.655   1.194   6.590 -0.0752 -2.0221  2.1855
  320MOL0     H43174   9.945   1.137   6.508 -1.6075 -2.5320  1.0279
  320MOL0     H43175   9.881   1.288   6.509  1.0010 -2.0928 -1.0900
  320MOL0     H43176   9.841   1.257   6.782 -1.0641  1.6828 -2.2174
  320MOL0     H43177   9.995   1.290   6.712 -0.4015 -1.3601 -0.2009
  320MOL0     H43178   9.915   1.007   6.763 -2.4750  1.3127  0.6922
  320MOL0     H43179  10.076   1.073   6.749  0.5710  1.4770 -1.4754
  320MOL0     H43180  10.001   1.116   5.870 -0.3851 -0.3465  0.5024
  320MOL0     H43181  10.250   1.189   5.891 -1.8567  1.2445 -0.2959
  320MOL0     H43182  10.597   1.225   6.043 -2.5241  0.9905  0.8350
  320MOL0     H43183  10.817   1.261   5.982 -1.0531  0.7614 -1.9116
  320MOL0     H43184  11.212   3.173   6.162 -0.7473 -1.7270 -0.0509
  320MOL0     H43185  11.013   3.289   6.168  1.6154  4.4226 -0.3260
  320MOL0     H43186  10.714   3.559   5.890  0.0889 -2.1122  4.1469
  320MOL0     H43187  10.541   3.672   5.784 -0.3698  0.2414  0.1649
  320MOL0     H43188  10.149   3.518   5.808  0.2031  1.2443  0.2769
  320MOL0     H43189  10.184   3.490   5.642  0.2896 -1.5332  2.4492
  320MOL0     H43190  10.159   3.780   5.748 -0.3944 -0.5311  1.0990
  320MOL0     H43191  10.005   3.688   5.704  0.7168 -1.9288 -1.3917
  320MOL0     H43192  10.065   3.824   5.510  0.7757  1.5443  1.4054
  320MOL0     H43193  10.117   3.672   5.467 -0.1493  1.5158 -1.4257
  320MOL0     H43194  10.300   3.892   5.588  0.5935 -1.1469  0.9577
  320MOL0     H43195  10.355   3.730   5.544 -0.6836 -0.3369 -0.7332
  320MOL0     H43196  10.286   3.881   5.160  1.8796 -0.7148 -0.1425
  320MOL0     H43197  10.297   3.328   5.797  0.9311 -0.6720  0.1611
  320MOL0     H43198  10.564   3.078   5.819  0.5580  1.3429 -1.0599
  320MOL0     H43199  10.490   3.109   5.976 -0.1184  0.3970 -0.6285
  320MOL0     H43200  10.393   3.104   5.831 -0.4935  0.6489 -0.6097
  321MOL0     O43201   0.783   9.320   1.857  0.9674  0.5223  0.0487
  321MOL0     C43202   0.763   9.208   1.897  0.2696  0.4950 -0.5938
  321MOL0     O43203   0.850   9.127   1.967  0.0995  0.0829  0.4382
  321MOL0     C43204   0.946   9.180   2.047  0.5661  0.0199  1.2609
  321MOL0     C43205   1.045   9.102   2.081 -0.4245 -0.1182 -0.4256
  321MOL0     C43206   1.151   9.143   2.160 -0.0827 -0.6298 -0.1971
  321MOL0     C43207   1.146   9.266   2.222 -0.2105 -0.1350  0.1204
  321MOL0     O43208   1.234   9.315   2.311 -0.7633  0.5185 -0.2222
  321MOL0     C43209   1.281   9.225   2.414 -0.0712 -0.7464  0.7112
  321MOL0     C43210   1.431   9.243   2.440  0.3409  1.3510 -0.4555
  321MOL0     C43211   1.517   9.208   2.310 -0.1764 -0.4332 -0.2557
  321MOL0     C43212   1.655   9.255   2.349 -0.2741 -0.8893 -0.6690
  321MOL0     C43213   1.752   9.215   2.225  0.3492  0.0864 -0.0846
  321MOL0     C43214   1.746   9.308   2.107  0.6770 -0.2646 -0.6036
  321MOL0     C43215   1.859   9.280   2.010  0.5195 -1.0271 -0.0124
  321MOL0     C43216   1.848   9.373   1.892  0.3245 -1.2991 -0.6884
  321MOL0     N43217   1.757   9.316   1.802 -0.7538 -0.2698  0.5705
  321MOL0     C43218   1.803   9.217   1.714  0.3673 -0.2590  0.5884
  321MOL0     C43219   1.694   9.189   1.634  0.5769 -0.4047 -0.4723
  321MOL0     C43220   1.692   9.061   1.558  0.3902  1.4274  0.3197
  321MOL0     C43221   1.549   9.045   1.495 -0.0670  0.9238 -0.7932
  321MOL0     C43222   1.550   8.915   1.421 -0.0735  0.6237  0.2086
  321MOL0     C43223   1.411   8.845   1.410 -0.1322 -0.6572  0.0593
  321MOL0     O43224   1.430   8.721   1.360  0.1389 -0.5879  0.9122
  321MOL0     C43225   1.319   8.648   1.327  1.0109  0.1771  0.4596
  321MOL0     C43226   1.186   8.698   1.337 -0.6005 -0.4432  0.9214
  321MOL0     C43227   1.086   8.614   1.307  0.3293 -0.4614  0.6484
  321MOL0     C43228   1.110   8.481   1.257  1.1925 -0.1855 -0.3642
  321MOL0     C43229   0.994   8.391   1.228 -0.0896 -0.3841  0.6668
  321MOL0     O43230   0.864   8.416   1.250 -0.0869  0.1117  0.3455
  321MOL0     C43231   0.763   8.327   1.213  0.4404 -1.3932  0.4514
  321MOL0     C43232   0.633   8.370   1.248  0.3253  0.0989 -0.7073
  321MOL0     C43233   0.512   8.299   1.217 -0.8353 -0.1553  0.7639
  321MOL0     C43234   0.522   8.171   1.163 -0.1163 -0.9325  0.7135
  321MOL0     O43235   0.407   8.096   1.159 -0.4973 -1.1589  0.0091
  321MOL0     C43236   0.409   7.960   1.119  0.6397 -0.3505 -0.5265
  321MOL0     C43237   0.267   7.902   1.121 -0.3026 -0.1003  0.1943
  321MOL0     C43238   0.160   7.996   1.048 -0.4080  0.0370 -0.8166
  321MOL0     C43239   0.028   7.934   1.091  0.0515  0.2991  0.9376
  321MOL0     C43240  -0.069   8.004   1.006  0.1566  0.4227  0.4132
  321MOL0     C43241  -0.198   7.925   1.010  1.0578  0.0390 -0.5803
  321MOL0     C43242  -0.310   8.014   0.949  0.5526 -0.2983  0.0619
  321MOL0     C43243  -0.441   7.931   0.961 -0.7257 -0.3050 -0.1561
  321MOL0    Cl43244  -0.583   8.044   0.971 -0.1781 -0.1090 -0.1120
  321MOL0     C43245   0.650   8.127   1.127  0.6581  1.1735 -0.9500
  321MOL0     C43246   0.768   8.206   1.139  0.1031 -0.7580 -0.9491
  321MOL0     O43247   1.041   8.275   1.183  0.4817 -0.8730  0.1083
  321MOL0     C43248   1.241   8.443   1.240  0.0345 -0.1843  0.6209
  321MOL0     C43249   1.347   8.527   1.270  1.2944  0.5516  0.6677
  321MOL0     N43250   1.590   9.269   1.666  0.5147 -0.3083  0.4265
  321MOL0     N43251   1.627   9.350   1.769  0.2218 -0.0331 -0.1815
  321MOL0     C43252   1.040   9.356   2.184 -0.4771 -0.4110 -0.8880
  321MOL0     C43253   0.933   9.301   2.109  0.6575 -1.2217  0.9580
  321MOL0     C43254   0.644   9.133   1.846  1.1750 -0.4575 -0.3648
  321MOL0     C43255   0.597   9.147   1.713 -0.6820  0.6208  0.5121
  321MOL0     C43256   0.494   9.075   1.667 -0.3616  0.0646  0.1193
  321MOL0     C43257   0.428   8.988   1.746 -0.0198  0.0108 -0.6068
  321MOL0     O43258   0.319   8.917   1.694 -0.1229 -0.2038  0.7608
  321MOL0     C43259   0.364   8.800   1.631 -0.4362  0.5349 -0.6641
  321MOL0     C43260   0.380   8.816   1.475 -0.2083  0.2159  0.4581
  321MOL0     C43261   0.368   8.671   1.415 -0.4102 -0.0316 -0.0623
  321MOL0     C43262   0.354   8.668   1.260 -0.0072 -0.0415 -0.4749
  321MOL0     C43263   0.210   8.701   1.214  0.2565  0.7926 -0.6332
  321MOL0     C43264   0.098   8.731   1.192 -0.6579 -1.1271 -0.3031
  321MOL0     C43265   0.469   8.982   1.883 -0.0471  0.1665  0.0578
  321MOL0     C43266   0.568   9.056   1.935 -1.6277 -0.0941  0.5074
  321MOL0     C43267   0.570   9.070   2.083  0.1489 -0.6414  0.1851
  321MOL0     H43268   1.063   9.005   2.038  1.2318 -0.4782  0.9525
  321MOL0     H43269   1.243   9.086   2.162  0.0147 -0.6398 -2.6595
  321MOL0     H43270   1.232   9.267   2.503  2.5316  0.3486  1.7077
  321MOL0     H43271   1.265   9.117   2.403  1.9138 -0.9431 -0.7698
  321MOL0     H43272   1.459   9.172   2.519 -2.5912 -1.0497 -1.3715
  321MOL0     H43273   1.464   9.344   2.464  2.6616  0.5992 -0.2429
  321MOL0     H43274   1.480   9.265   2.224 -2.2814  0.9840  1.4729
  321MOL0     H43275   1.510   9.101   2.294 -0.0838 -0.5254  0.3010
  321MOL0     H43276   1.655   9.363   2.362 -1.6444 -0.5985 -2.6098
  321MOL0     H43277   1.682   9.215   2.447 -0.2662 -1.0628 -0.7401
  321MOL0     H43278   1.858   9.234   2.247  0.4668  1.0291 -1.3456
  321MOL0     H43279   1.741   9.111   2.195  0.3877  0.7723 -2.7250
  321MOL0     H43280   1.656   9.272   2.056  0.8445 -4.6810  1.7303
  321MOL0     H43281   1.746   9.411   2.145 -0.1837 -1.1449  1.9749
  321MOL0     H43282   1.848   9.173   1.988 -2.1688 -0.7883 -0.2507
  321MOL0     H43283   1.958   9.301   2.052  0.8693 -0.3653 -1.1415
  321MOL0     H43284   1.809   9.465   1.937 -3.0522 -4.1029  2.7605
  321MOL0     H43285   1.946   9.386   1.845  1.7598 -3.8937  1.2928
  321MOL0     H43286   1.896   9.161   1.724 -0.1726 -0.9922  1.7278
  321MOL0     H43287   1.769   9.061   1.480 -1.4936  1.1538 -1.6367
  321MOL0     H43288   1.717   8.985   1.633 -0.4319  0.4864 -0.3221
  321MOL0     H43289   1.477   9.038   1.577  1.8246  0.1353  0.8826
  321MOL0     H43290   1.535   9.137   1.438 -0.7141  0.4731 -1.3683
  321MOL0     H43291   1.615   8.841   1.468 -2.4801 -2.2940 -0.7160
  321MOL0     H43292   1.596   8.924   1.322 -2.1862  0.9618 -0.7914
  321MOL0     H43293   1.348   8.908   1.347  0.2205 -1.0247 -0.6764
  321MOL0     H43294   1.376   8.837   1.513 -0.1339  2.6678  0.4261
  321MOL0     H43295   1.163   8.794   1.383  2.7789  0.7075  0.4271
  321MOL0     H43296   0.984   8.650   1.314 -0.2288 -1.4456 -1.4298
  321MOL0     H43297   0.619   8.464   1.300  0.8158 -0.3503  0.2586
  321MOL0     H43298   0.420   8.343   1.252 -1.3251 -1.2102  0.8544
  321MOL0     H43299   0.443   7.943   1.016  1.5480 -4.6563  0.3037
  321MOL0     H43300   0.474   7.913   1.193 -1.7277 -0.0838  1.8451
  321MOL0     H43301   0.263   7.801   1.079  0.8264  0.6682 -1.8882
  321MOL0     H43302   0.229   7.891   1.223 -0.3501  1.3560  0.3446
  321MOL0     H43303   0.171   8.099   1.083  3.2070  0.0391 -1.5426
  321MOL0     H43304   0.185   8.005   0.941  2.1254  1.2622 -0.1944
  321MOL0     H43305   0.012   7.938   1.199  0.4678 -0.8283  1.0550
  321MOL0     H43306   0.040   7.830   1.059 -0.0480  0.0278  1.7491
  321MOL0     H43307  -0.026   8.002   0.905  4.2681 -1.0076  1.9676
  321MOL0     H43308  -0.090   8.103   1.048 -0.2218  0.7768 -0.5980
  321MOL0     H43309  -0.200   7.826   0.962 -3.9998 -1.7241  2.4860
  321MOL0     H43310  -0.223   7.896   1.113 -0.0298 -1.1664 -1.1549
  321MOL0     H43311  -0.283   8.033   0.845  1.0976 -0.5318  0.1567
  321MOL0     H43312  -0.310   8.105   1.010 -1.3754 -0.6740  0.7166
  321MOL0     H43313  -0.448   7.865   0.874 -0.4148  0.0181 -0.4318
  321MOL0     H43314  -0.440   7.862   1.045 -0.0684 -1.8906 -1.4075
  321MOL0     H43315   0.670   8.024   1.101 -0.8728  0.4893  0.3900
  321MOL0     H43316   0.862   8.172   1.097  0.7338  0.8473 -0.9318
  321MOL0     H43317   1.265   8.349   1.192  1.3136  0.0763  0.7156
  321MOL0     H43318   1.452   8.501   1.265  1.6727  1.4014  2.9284
  321MOL0     H43319   1.026   9.454   2.230 -4.1271  0.1960 -2.8835
  321MOL0     H43320   0.844   9.362   2.096  1.5790 -0.2360 -1.2502
  321MOL0     H43321   0.651   9.210   1.643 -0.4839  0.8168  0.8383
  321MOL0     H43322   0.470   9.098   1.564  1.7197  1.1617 -0.1739
  321MOL0     H43323   0.286   8.729   1.661  0.5782  0.6999  2.8022
  321MOL0     H43324   0.458   8.763   1.672  0.3378  1.6385 -1.3824
  321MOL0     H43325   0.479   8.858   1.453 -1.0206  0.7265 -2.7186
  321MOL0     H43326   0.299   8.876   1.433  0.9042  0.6272 -1.1919
  321MOL0     H43327   0.287   8.615   1.463  1.7409 -0.3099  3.5976
  321MOL0     H43328   0.455   8.612   1.447 -1.2119 -1.9056 -1.2139
  321MOL0     H43329   0.422   8.748   1.230  3.5262 -2.7502 -0.2976
  321MOL0     H43330   0.391   8.577   1.212 -0.5620 -0.6055  0.1459
  321MOL0     H43331  -0.006   8.748   1.170 -1.8231 -0.7387  4.4894
  321MOL0     H43332   0.403   8.923   1.946 -0.8847 -2.0899 -2.7122
  321MOL0     H43333   0.670   9.077   2.127 -0.0255 -1.6739  0.7835
  321MOL0     H43334   0.522   9.161   2.120  0.1927 -0.3649 -0.4379
  321MOL0     H43335   0.512   8.989   2.128 -0.0706 -0.6003 -0.0254
  322MOL0     O43336   5.387   8.209   6.071 -0.2638  0.2484 -0.0569
  322MOL0     C43337   5.474   8.274   6.018 -0.5582 -0.4812  1.0795
  322MOL0     O43338   5.452   8.363   5.914  0.0836  0.6611 -0.0310
  322MOL0     C43339   5.336   8.418   5.867  0.0112  0.2658 -0.3606
  322MOL0     C43340   5.357   8.533   5.789 -0.2891  0.2189 -1.0622
  322MOL0     C43341   5.243   8.599   5.735  0.5715 -0.3140  0.2507
  322MOL0     C43342   5.113   8.557   5.761 -0.1052  0.1122 -0.4484
  322MOL0     O43343   5.003   8.627   5.710 -0.1796  0.8707  0.1261
  322MOL0     C43344   4.890   8.542   5.679  0.0916  0.3380  0.4406
  322MOL0     C43345   4.781   8.639   5.627  0.2058  0.5291  0.0880
  322MOL0     C43346   4.668   8.555   5.567 -0.7102 -0.1984  0.2877
  322MOL0     C43347   4.565   8.653   5.511 -0.7631  0.7541  0.4732
  322MOL0     C43348   4.458   8.685   5.621 -0.1075  0.8612  0.6749
  322MOL0     C43349   4.384   8.816   5.584 -0.1612  0.1235 -0.5937
  322MOL0     C43350   4.265   8.846   5.684 -0.8138  0.3866 -0.0928
  322MOL0     C43351   4.163   8.917   5.612  0.0369 -0.0151  0.1248
  322MOL0     N43352   4.052   8.937   5.700  0.1561  0.5498  0.8643
  322MOL0     C43353   3.943   8.848   5.733 -0.7602 -0.4190  0.2812
  322MOL0     C43354   3.857   8.924   5.806 -0.5326 -0.2169  0.6975
  322MOL0     C43355   3.733   8.862   5.861  0.0534  0.2993  1.3774
  322MOL0     C43356   3.750   8.842   6.012  0.9292  0.2562 -0.0562
  322MOL0     C43357   3.767   8.969   6.091 -0.0239 -0.3721 -0.1164
  322MOL0     C43358   3.917   9.002   6.140  0.5468  1.0563  0.0521
  322MOL0     O43359   3.950   8.908   6.238  0.6216 -0.3499 -0.3314
  322MOL0     C43360   4.084   8.899   6.278 -0.5347  0.4007  1.2562
  322MOL0     C43361   4.186   8.964   6.207 -0.3436  0.2332  0.6272
  322MOL0     C43362   4.323   8.943   6.239 -0.2825 -0.4441  0.6693
  322MOL0     C43363   4.361   8.854   6.345 -0.1184 -1.0360  0.4709
  322MOL0     C43364   4.500   8.841   6.387 -0.3654 -0.1806 -0.2076
  322MOL0     O43365   4.523   8.814   6.518 -0.2060  0.6931 -0.1920
  322MOL0     C43366   4.650   8.835   6.568  0.8846  0.6902 -0.5021
  322MOL0     C43367   4.722   8.953   6.552  0.4490  0.7490 -0.1798
  322MOL0     C43368   4.844   8.973   6.615 -0.6238  0.5999  0.5637
  322MOL0     C43369   4.888   8.881   6.712 -0.0232  0.5504 -1.2421
  322MOL0     O43370   5.000   8.900   6.792 -0.0630 -0.5711  0.1278
  322MOL0     C43371   5.115   8.948   6.717 -0.6056  0.4155 -0.8651
  322MOL0     C43372   5.140   9.100   6.749 -0.0929  0.6885  0.2438
  322MOL0     C43373   5.284   9.151   6.716  0.2605 -0.1207 -0.4307
  322MOL0     C43374   5.408   9.075   6.783  0.3089 -0.1082  1.2188
  322MOL0     C43375   5.557   9.122   6.734 -0.0453  0.2647 -0.4055
  322MOL0     C43376   5.666   9.072   6.827  0.2239  0.3735 -0.1376
  322MOL0     C43377   5.805   9.131   6.797  0.5312 -0.5168 -0.1342
  322MOL0     C43378   5.857   9.117   6.654 -0.1858 -0.1660 -0.0947
  322MOL0    Cl43379   5.881   8.951   6.584 -0.6568 -0.0335 -0.9199
  322MOL0     C43380   4.808   8.778   6.744 -0.6069  0.7823 -0.3254
  322MOL0     C43381   4.692   8.748   6.674 -0.7660  0.5233  0.4477
  322MOL0     O43382   4.587   8.871   6.306  0.0515 -0.1630  0.0189
  322MOL0     C43383   4.260   8.802   6.428 -0.3496  0.2873  0.5181
  322MOL0     C43384   4.124   8.816   6.385  0.4829  0.8291  0.7270
  322MOL0     N43385   3.919   9.046   5.816  1.5681  0.3876  0.4178
  322MOL0     N43386   4.035   9.054   5.754 -0.3354 -0.7919 -1.1653
  322MOL0     C43387   5.102   8.454   5.856  0.7179  0.2622 -0.3597
  322MOL0     C43388   5.210   8.381   5.905 -0.8302  0.0730 -0.5974
  322MOL0     C43389   5.612   8.264   6.066  0.2781 -0.1468 -0.2721
  322MOL0     C43390   5.636   8.194   6.185  0.1084 -0.3511 -0.0940
  322MOL0     C43391   5.763   8.183   6.244  0.7985 -0.4784  1.1711
  322MOL0     C43392   5.874   8.242   6.182 -0.4102  0.1360 -0.5166
  322MOL0     O43393   6.005   8.236   6.222  0.4314  0.2766 -0.1863
  322MOL0     C43394   6.017   8.147   6.335 -0.0876  0.1140  0.0172
  322MOL0     C43395   6.159   8.155   6.387 -0.5182 -0.1660 -0.4282
  322MOL0     C43396   6.251   8.054   6.317 -0.4146  0.1431 -0.0871
  322MOL0     C43397   6.254   8.055   6.157  0.1980  0.1676  0.2509
  322MOL0     C43398   6.320   7.939   6.109 -0.3537 -0.0361 -0.0526
  322MOL0     C43399   6.382   7.845   6.076 -0.5173 -0.0819 -0.0455
  322MOL0     C43400   5.851   8.309   6.067  0.2089 -0.1308 -0.1420
  322MOL0     C43401   5.728   8.325   6.006 -0.1875 -1.0752 -0.2753
  322MOL0     C43402   5.719   8.408   5.881  0.2175 -0.2849 -0.1504
  322MOL0     H43403   5.462   8.550   5.767 -0.4051 -2.2507 -4.3898
  322MOL0     H43404   5.257   8.687   5.673 -1.5691  0.6927  1.1165
  322MOL0     H43405   4.925   8.484   5.593 -1.0511 -2.0010  1.4520
  322MOL0     H43406   4.852   8.472   5.754 -0.2708 -1.7195 -1.5521
  322MOL0     H43407   4.817   8.693   5.540  1.9720  0.9075  0.9934
  322MOL0     H43408   4.752   8.708   5.707  1.2905 -0.9671  1.8771
  322MOL0     H43409   4.619   8.491   5.641  0.5211 -3.3724 -1.4169
  322MOL0     H43410   4.719   8.490   5.495  1.7852  1.7838  0.1105
  322MOL0     H43411   4.617   8.738   5.468 -0.8827  0.0187 -1.2157
  322MOL0     H43412   4.514   8.602   5.428 -0.6070 -0.5644  1.1510
  322MOL0     H43413   4.385   8.603   5.626 -0.6066  1.2431 -0.1422
  322MOL0     H43414   4.502   8.694   5.721 -1.0442  0.3328  1.1503
  322MOL0     H43415   4.451   8.902   5.574  1.3945 -0.8486  0.9206
  322MOL0     H43416   4.347   8.809   5.481 -0.3072  1.4099 -0.6523
  322MOL0     H43417   4.303   8.917   5.758 -2.0894  1.6209 -0.5644
  322MOL0     H43418   4.224   8.759   5.736 -0.6993  1.0675  1.1903
  322MOL0     H43419   4.197   9.012   5.570  2.3330 -2.3345 -3.9438
  322MOL0     H43420   4.124   8.859   5.528  1.4136  1.1855 -1.4020
  322MOL0     H43421   3.934   8.743   5.708 -2.3129  0.1770 -1.9694
  322MOL0     H43422   3.654   8.937   5.860 -1.1380 -0.7885  4.1444
  322MOL0     H43423   3.688   8.776   5.812  0.2625  0.3016  1.1783
  322MOL0     H43424   3.660   8.794   6.052  0.3371 -0.1626 -1.7954
  322MOL0     H43425   3.835   8.775   6.027  0.1776 -0.4474  1.1832
  322MOL0     H43426   3.699   8.973   6.176 -0.4499  1.0448 -0.4945
  322MOL0     H43427   3.725   9.045   6.026  0.4365  0.9588  1.0847
  322MOL0     H43428   3.932   9.106   6.172  0.2652  1.3802 -0.8330
  322MOL0     H43429   3.975   8.977   6.051 -2.3154 -1.8047 -1.2468
  322MOL0     H43430   4.173   9.035   6.126 -1.9352  1.4243  1.8657
  322MOL0     H43431   4.394   9.019   6.207  0.0531 -0.2489  1.8355
  322MOL0     H43432   4.675   9.021   6.482  0.9387 -0.3795 -1.6643
  322MOL0     H43433   4.883   9.073   6.599 -3.4236  1.7405  0.3229
  322MOL0     H43434   5.201   8.894   6.759 -0.9013  1.6041  1.4151
  322MOL0     H43435   5.109   8.928   6.610  2.5456  2.6008 -1.6199
  322MOL0     H43436   5.065   9.158   6.694  1.5931  2.8760  0.0976
  322MOL0     H43437   5.130   9.110   6.857  1.5501 -0.4484  0.5355
  322MOL0     H43438   5.297   9.153   6.608  1.6811 -3.2691 -0.4149
  322MOL0     H43439   5.283   9.254   6.753 -0.8343 -0.5563  0.8470
  322MOL0     H43440   5.401   8.968   6.760  0.7240  0.6189 -3.4726
  322MOL0     H43441   5.398   9.092   6.890 -0.0926  2.8250  0.8052
  322MOL0     H43442   5.555   9.232   6.731  1.1738  0.3151  0.2030
  322MOL0     H43443   5.574   9.081   6.634 -0.5348 -2.5312  0.5705
  322MOL0     H43444   5.635   9.109   6.926 -1.8080 -1.7546  0.1018
  322MOL0     H43445   5.662   8.963   6.826 -0.2924  0.3243 -3.2678
  322MOL0     H43446   5.882   9.088   6.862  0.9072  0.2403 -0.0779
  322MOL0     H43447   5.793   9.237   6.819  1.0239 -0.2541 -1.0760
  322MOL0     H43448   5.787   9.171   6.589 -1.2597  0.3745  1.4282
  322MOL0     H43449   5.948   9.178   6.648  0.3288 -0.9283 -0.0847
  322MOL0     H43450   4.836   8.717   6.830  0.2907 -0.2435 -1.3001
  322MOL0     H43451   4.637   8.658   6.699 -3.0056  1.4996 -0.6945
  322MOL0     H43452   4.282   8.735   6.510 -0.9518 -0.8653 -0.2227
  322MOL0     H43453   4.043   8.764   6.436  0.6641 -2.9257 -2.3829
  322MOL0     H43454   5.001   8.428   5.885 -0.5707  3.5764 -1.4025
  322MOL0     H43455   5.199   8.290   5.964  1.0786 -1.1039 -1.9205
  322MOL0     H43456   5.555   8.144   6.238  1.1694 -0.9919  0.9731
  322MOL0     H43457   5.768   8.115   6.328 -1.9203 -0.1698  1.6449
  322MOL0     H43458   5.991   8.047   6.300  0.2126  0.3113 -0.7799
  322MOL0     H43459   5.952   8.171   6.420 -0.4189  0.8076 -0.4238
  322MOL0     H43460   6.165   8.142   6.495 -0.2960  1.5862 -0.1902
  322MOL0     H43461   6.189   8.259   6.372  1.5723 -0.5045  0.9060
  322MOL0     H43462   6.234   7.954   6.358 -0.8249  1.2127  2.5933
  322MOL0     H43463   6.353   8.079   6.349  0.2783  0.5835 -2.4355
  322MOL0     H43464   6.152   8.039   6.122 -0.2550  0.9682  1.1670
  322MOL0     H43465   6.285   8.147   6.107 -1.2393 -0.2935 -1.6215
  322MOL0     H43466   6.438   7.758   6.048  2.7577  2.3961 -1.8905
  322MOL0     H43467   5.937   8.349   6.014  2.1730 -3.4943  0.2144
  322MOL0     H43468   5.815   8.442   5.841 -0.4733  0.8047 -0.9422
  322MOL0     H43469   5.660   8.351   5.808 -1.1954  0.3388  0.4628
  322MOL0     H43470   5.654   8.495   5.895 -1.9766 -1.6702 -1.0771
  323MOL0     O43471  10.002   0.050   7.053  1.0661 -0.6049 -0.0770
  323MOL0     C43472   9.935   0.121   7.132 -0.2107  0.1768  0.0394
  323MOL0     O43473   9.804   0.161   7.115  0.1567  0.3748  0.3980
  323MOL0     C43474   9.739   0.126   6.995 -0.3509  0.7054 -1.0737
  323MOL0     C43475   9.613   0.183   6.987  0.2102  0.0088  0.6268
  323MOL0     C43476   9.528   0.160   6.881  0.3455 -0.3372  0.7131
  323MOL0     C43477   9.558   0.066   6.781 -0.4487  0.0333  0.4565
  323MOL0     O43478   9.480   0.065   6.669  0.5695  0.1102  0.6957
  323MOL0     C43479   9.494  -0.054   6.590  0.0010  0.6600  0.9050
  323MOL0     C43480   9.389  -0.055   6.471 -0.3763 -0.3741 -0.0080
  323MOL0     C43481   9.247  -0.044   6.532 -0.6136 -0.8429 -0.6897
  323MOL0     C43482   9.140  -0.071   6.432 -0.3773  0.1823 -0.1853
  323MOL0     C43483   9.009  -0.014   6.485 -0.6187  0.1114 -1.4946
  323MOL0     C43484   8.890  -0.037   6.389 -0.6697  0.3278  0.0414
  323MOL0     C43485   8.770   0.014   6.469 -0.3516  0.1888 -0.3099
  323MOL0     C43486   8.642  -0.006   6.396  0.4415 -0.2824  0.6033
  323MOL0     N43487   8.564  -0.126   6.427 -0.3495 -0.5412 -0.6578
  323MOL0     C43488   8.606  -0.249   6.391  0.0514 -0.2479 -0.1980
  323MOL0     C43489   8.508  -0.326   6.447  0.1065  0.5113 -0.0253
  323MOL0     C43490   8.489  -0.473   6.425  0.4677  0.5040 -0.7356
  323MOL0     C43491   8.615  -0.545   6.451  0.2169 -0.0034  0.0138
  323MOL0     C43492   8.596  -0.695   6.439 -0.7252  1.0544  0.1233
  323MOL0     C43493   8.711  -0.777   6.504  0.1619 -1.3373 -0.4468
  323MOL0     O43494   8.839  -0.737   6.435  0.4668 -0.3598 -0.0425
  323MOL0     C43495   8.956  -0.789   6.487  0.0695 -0.1997 -0.4131
  323MOL0     C43496   8.965  -0.886   6.595 -0.4038 -0.3703  1.1596
  323MOL0     C43497   9.093  -0.922   6.654 -0.6185 -0.3200  0.1141
  323MOL0     C43498   9.212  -0.884   6.591 -0.1787  0.7473  0.5263
  323MOL0     C43499   9.345  -0.913   6.650  1.4003  0.3963  0.7390
  323MOL0     O43500   9.465  -0.871   6.595  1.0672  0.1965  0.0708
  323MOL0     C43501   9.589  -0.919   6.649  0.9551  0.2901  0.3628
  323MOL0     C43502   9.686  -0.818   6.650  0.8246  0.2043 -1.6035
  323MOL0     C43503   9.813  -0.844   6.699 -0.8480 -0.1833  0.0495
  323MOL0     C43504   9.848  -0.974   6.744  0.4170 -0.3638  0.7818
  323MOL0     O43505   9.968  -1.007   6.808 -0.0428 -1.2995 -0.4823
  323MOL0     C43506  10.078  -0.915   6.801 -1.1549 -0.5179 -0.7664
  323MOL0     C43507  10.192  -1.010   6.747 -0.2362  0.3674 -0.8339
  323MOL0     C43508  10.299  -0.937   6.670  0.0397 -0.1397 -0.1542
  323MOL0     C43509  10.430  -1.017   6.666  0.1441 -0.1154 -0.5198
  323MOL0     C43510  10.540  -0.969   6.572  0.0374 -0.2478 -0.3579
  323MOL0     C43511  10.658  -1.058   6.603  0.2048 -0.7632 -0.1563
  323MOL0     C43512  10.781  -1.017   6.530  0.4199 -0.5723  0.5408
  323MOL0     C43513  10.782  -0.993   6.375  0.0001 -0.1022  0.3512
  323MOL0    Cl43514  10.658  -1.086   6.294 -0.1406  0.6505  0.2924
  323MOL0     C43515   9.749  -1.073   6.726  1.1005  0.7355 -0.6127
  323MOL0     C43516   9.625  -1.053   6.680  0.4912  0.6510  0.1068
  323MOL0     O43517   9.335  -0.971   6.759 -0.2717 -0.1449 -0.1187
  323MOL0     C43518   9.200  -0.801   6.476 -0.4130 -0.0642  0.0074
  323MOL0     C43519   9.080  -0.749   6.428 -0.3088  0.5205  0.4849
  323MOL0     N43520   8.429  -0.257   6.535  0.2083  0.1331  0.9240
  323MOL0     N43521   8.471  -0.136   6.522  0.1288 -0.1222 -0.3455
  323MOL0     C43522   9.686   0.003   6.790  0.2798  0.4963 -0.0015
  323MOL0     C43523   9.770   0.038   6.888  0.3329  0.4060 -0.4119
  323MOL0     C43524  10.003   0.163   7.255 -0.4377 -0.1406 -0.1377
  323MOL0     C43525   9.928   0.168   7.374 -0.4824 -1.0690 -0.0961
  323MOL0     C43526   9.988   0.218   7.496 -0.1442  0.0377 -0.3387
  323MOL0     C43527  10.127   0.236   7.499 -0.2513 -0.0566 -0.7053
  323MOL0     O43528  10.198   0.277   7.603  0.8497 -0.5399  0.4135
  323MOL0     C43529  10.149   0.262   7.737  0.3133 -0.6362  0.8833
  323MOL0     C43530  10.155   0.124   7.770 -0.2008  1.3135  0.7908
  323MOL0     C43531  10.302   0.073   7.779 -0.3977 -0.2016 -0.3659
  323MOL0     C43532  10.319  -0.060   7.847  0.0671  0.0510 -0.1064
  323MOL0     C43533  10.455  -0.086   7.891  0.1116 -0.4797  0.3786
  323MOL0     C43534  10.558  -0.126   7.934  0.0071  0.5432 -0.1568
  323MOL0     C43535  10.201   0.209   7.388  0.5568 -0.3929  0.4357
  323MOL0     C43536  10.145   0.187   7.270 -0.0526  0.8174 -0.0621
  323MOL0     C43537  10.241   0.178   7.150 -0.2350 -0.3712  0.7834
  323MOL0     H43538   9.604   0.260   7.064 -0.2650  0.1221  0.4611
  323MOL0     H43539   9.440   0.223   6.882  1.0009  0.5875  1.5200
  323MOL0     H43540   9.592  -0.063   6.544 -0.9013 -0.6331 -0.8577
  323MOL0     H43541   9.467  -0.127   6.667 -2.0164  1.5553  1.1014
  323MOL0     H43542   9.397  -0.150   6.418  1.5674 -0.4662  0.3781
  323MOL0     H43543   9.416   0.023   6.400  4.6762 -3.1391 -1.5976
  323MOL0     H43544   9.237   0.056   6.576  0.6053 -0.3387 -1.4903
  323MOL0     H43545   9.224  -0.106   6.618 -1.5895  4.5818  3.5343
  323MOL0     H43546   9.159  -0.018   6.339  1.0803 -1.9389 -1.1817
  323MOL0     H43547   9.131  -0.179   6.420 -5.5374  0.2837  0.6572
  323MOL0     H43548   8.996  -0.057   6.585 -0.5521  0.6641 -1.2464
  323MOL0     H43549   9.021   0.094   6.481  2.3729 -0.1356 -1.8233
  323MOL0     H43550   8.910   0.011   6.293 -0.4067  2.2536  1.0160
  323MOL0     H43551   8.880  -0.142   6.361 -4.0360  0.1755  1.4562
  323MOL0     H43552   8.780   0.122   6.480 -4.4927  0.6262  0.5472
  323MOL0     H43553   8.760  -0.042   6.562 -1.1837  3.3544  1.6638
  323MOL0     H43554   8.578   0.073   6.434  0.7815  0.7690 -0.9173
  323MOL0     H43555   8.656  -0.006   6.287 -1.6143  1.4733  0.2893
  323MOL0     H43556   8.690  -0.279   6.329  1.7333  2.9395  0.3045
  323MOL0     H43557   8.404  -0.509   6.483 -0.3024  0.9348 -1.5680
  323MOL0     H43558   8.461  -0.484   6.320  0.5383  0.0979 -0.7124
  323MOL0     H43559   8.691  -0.501   6.386 -1.0558  0.2779 -1.3522
  323MOL0     H43560   8.656  -0.522   6.549 -0.1574 -0.8905  0.3899
  323MOL0     H43561   8.593  -0.720   6.333  0.2545  2.3960 -0.2466
  323MOL0     H43562   8.499  -0.721   6.482 -1.1592 -1.6364 -2.2177
  323MOL0     H43563   8.699  -0.885   6.494 -0.1757 -1.3606  0.1719
  323MOL0     H43564   8.719  -0.747   6.609  3.2658  3.1530 -1.6346
  323MOL0     H43565   8.872  -0.921   6.638 -1.4979  0.0051 -0.7909
  323MOL0     H43566   9.095  -0.993   6.736 -0.5911 -1.8189 -1.1434
  323MOL0     H43567   9.660  -0.717   6.619 -1.7364  0.0628 -0.1769
  323MOL0     H43568   9.875  -0.755   6.707 -0.0142 -0.6064 -1.2853
  323MOL0     H43569  10.082  -0.827   6.736  1.6587 -0.1665 -0.2437
  323MOL0     H43570  10.106  -0.891   6.904 -1.6803 -1.9010 -0.2685
  323MOL0     H43571  10.248  -1.062   6.825 -0.0275  1.3657 -0.2991
  323MOL0     H43572  10.148  -1.085   6.681 -0.3264  0.0688 -0.4372
  323MOL0     H43573  10.272  -0.935   6.564  2.3823  0.8928 -0.8013
  323MOL0     H43574  10.311  -0.835   6.708 -0.1098 -0.0878 -0.2472
  323MOL0     H43575  10.404  -1.116   6.627  0.9478  0.8396 -3.7576
  323MOL0     H43576  10.464  -1.032   6.768 -3.2826  2.5451  1.2420
  323MOL0     H43577  10.569  -0.864   6.581  0.9614 -0.4441 -0.9172
  323MOL0     H43578  10.499  -0.987   6.472 -2.1976 -1.2214  0.6535
  323MOL0     H43579  10.677  -1.072   6.710  0.8181 -0.6650 -0.2461
  323MOL0     H43580  10.648  -1.161   6.566 -0.0141 -0.8511  0.1466
  323MOL0     H43581  10.854  -1.097   6.544  1.7228  0.7315  1.4828
  323MOL0     H43582  10.832  -0.937   6.584 -1.3094  0.4293  0.7405
  323MOL0     H43583  10.756  -0.887   6.363  2.2739  0.8070  2.5920
  323MOL0     H43584  10.881  -1.005   6.330 -0.4683  2.3086 -1.5570
  323MOL0     H43585   9.781  -1.176   6.743  0.4218 -0.1999 -4.2254
  323MOL0     H43586   9.560  -1.140   6.672  0.8483  0.2792  1.1177
  323MOL0     H43587   9.293  -0.788   6.421  0.0013 -2.5083  0.0317
  323MOL0     H43588   9.081  -0.685   6.340  1.8752  0.3238  0.3086
  323MOL0     H43589   9.724  -0.073   6.721  1.8826  2.5469 -1.5053
  323MOL0     H43590   9.860  -0.022   6.882 -0.7386 -1.3190 -0.0450
  323MOL0     H43591   9.824   0.138   7.377 -0.7286 -0.1397  0.9567
  323MOL0     H43592   9.925   0.244   7.580 -0.2280  1.7520 -0.8734
  323MOL0     H43593  10.048   0.304   7.735  1.3432  2.5984 -4.6626
  323MOL0     H43594  10.207   0.330   7.801  0.5070 -0.5262  0.5920
  323MOL0     H43595  10.097   0.059   7.703  1.2297 -1.5873  2.2045
  323MOL0     H43596  10.116   0.116   7.872  0.3072  2.5897  1.1010
  323MOL0     H43597  10.359   0.145   7.839 -1.7232  3.0758 -2.7483
  323MOL0     H43598  10.337   0.061   7.676 -3.4076 -2.2258 -1.3024
  323MOL0     H43599  10.257  -0.072   7.936  0.0723 -0.4215 -0.1648
  323MOL0     H43600  10.290  -0.130   7.769  1.9742  0.1192 -0.9423
  323MOL0     H43601  10.646  -0.155   7.988 -1.1948 -1.4681  0.8474
  323MOL0     H43602  10.306   0.229   7.404  0.2648 -0.3088  2.5375
  323MOL0     H43603  10.185   0.213   7.063 -0.2156 -2.2020 -0.0061
  323MOL0     H43604  10.336   0.229   7.165  0.7762 -1.4301 -1.5708
  323MOL0     H43605  10.261   0.072   7.131 -1.2037 -0.4960  0.3976
  324MOL0     O43606   5.155   4.662   5.743 -0.6052  0.1373  0.3263
  324MOL0     C43607   5.113   4.670   5.627  0.2559  0.3601  0.0093
  324MOL0     O43608   5.171   4.623   5.513  0.0855 -0.2159  0.4381
  324MOL0     C43609   5.296   4.578   5.535  0.8818  0.5096  0.4201
  324MOL0     C43610   5.394   4.666   5.546 -1.1989  0.2369 -0.3201
  324MOL0     C43611   5.525   4.619   5.569 -0.1057  0.2238 -0.3131
  324MOL0     C43612   5.548   4.483   5.570  0.3370 -1.1812  0.0926
  324MOL0     O43613   5.667   4.428   5.585 -0.3450  0.5368 -0.0658
  324MOL0     C43614   5.781   4.508   5.559  0.1972  0.7639  0.5602
  324MOL0     C43615   5.904   4.405   5.543 -0.3603 -0.1385 -0.9525
  324MOL0     C43616   5.958   4.342   5.671  0.2428  0.2015 -0.8093
  324MOL0     C43617   6.037   4.443   5.753 -0.3047 -0.8815 -0.2428
  324MOL0     C43618   6.114   4.385   5.876 -0.9623  1.2305 -0.0122
  324MOL0     C43619   6.217   4.484   5.927  0.4651 -0.6387 -0.3162
  324MOL0     C43620   6.259   4.450   6.065 -0.8650  0.4660  0.0426
  324MOL0     C43621   6.361   4.543   6.129 -0.3364  0.1754 -0.9836
  324MOL0     N43622   6.493   4.559   6.056  0.0404  0.9107  0.6337
  324MOL0     C43623   6.610   4.489   6.084  0.8959 -0.9812 -0.1612
  324MOL0     C43624   6.693   4.542   5.991 -0.3760  0.0803 -0.4024
  324MOL0     C43625   6.841   4.525   6.004  0.0275 -0.1152  0.1532
  324MOL0     C43626   6.893   4.382   6.059  0.0624 -0.0107  0.3322
  324MOL0     C43627   7.048   4.369   6.035  0.2824  0.2274  0.3602
  324MOL0     C43628   7.100   4.226   6.044  0.1161  0.4207 -0.7028
  324MOL0     O43629   7.248   4.240   6.055 -0.0762  0.3437 -0.6293
  324MOL0     C43630   7.327   4.250   5.940 -0.2627  0.4120  0.6445
  324MOL0     C43631   7.464   4.253   5.952 -0.1157  2.0435 -0.1609
  324MOL0     C43632   7.549   4.266   5.841  0.4222  0.3895  0.8853
  324MOL0     C43633   7.496   4.260   5.705 -0.1483  0.3460  0.2963
  324MOL0     C43634   7.585   4.249   5.585  0.9746 -0.4606 -0.3423
  324MOL0     O43635   7.707   4.310   5.597 -0.7009 -0.1717 -0.3563
  324MOL0     C43636   7.782   4.349   5.484 -0.1534 -0.9054 -2.1775
  324MOL0     C43637   7.917   4.354   5.503 -0.8268  0.0258  0.5153
  324MOL0     C43638   8.006   4.398   5.404 -0.0111  0.8645 -0.0951
  324MOL0     C43639   7.954   4.447   5.286 -0.1444  0.2718  0.1669
  324MOL0     O43640   8.019   4.522   5.193 -0.6592 -0.8910 -0.0963
  324MOL0     C43641   8.166   4.513   5.175 -0.0972 -0.0141  0.2781
  324MOL0     C43642   8.196   4.455   5.030 -0.2811 -0.2646  0.4096
  324MOL0     C43643   8.347   4.467   4.972  0.7396 -0.4352 -1.2198
  324MOL0     C43644   8.423   4.602   5.011  0.0022  0.1739  0.0292
  324MOL0     C43645   8.544   4.631   4.922 -0.2378 -0.1000 -0.5762
  324MOL0     C43646   8.475   4.710   4.805  0.7426 -0.2907 -0.7484
  324MOL0     C43647   8.587   4.746   4.703  0.0641 -0.5024 -0.4376
  324MOL0     C43648   8.623   4.637   4.607 -0.0220 -0.0786 -0.1218
  324MOL0    Cl43649   8.744   4.707   4.489 -0.3404 -0.7836  0.3563
  324MOL0     C43650   7.819   4.452   5.265 -0.6193 -0.3062 -0.8372
  324MOL0     C43651   7.732   4.395   5.358  0.4692 -0.1387  0.5927
  324MOL0     O43652   7.533   4.216   5.477  0.8536  1.0279 -0.6462
  324MOL0     C43653   7.353   4.255   5.694  0.2860 -0.0585 -0.3218
  324MOL0     C43654   7.273   4.250   5.807 -0.4375  0.6014 -0.3907
  324MOL0     N43655   6.636   4.638   5.914  0.2086 -0.0827 -0.5890
  324MOL0     N43656   6.509   4.647   5.953 -0.1579  0.3120  0.4420
  324MOL0     C43657   5.439   4.403   5.578  0.4007  0.9448 -0.2094
  324MOL0     C43658   5.312   4.449   5.560 -0.0009 -0.6032  0.7710
  324MOL0     C43659   4.972   4.698   5.608  0.1972  0.3627 -0.5894
  324MOL0     C43660   4.902   4.655   5.494 -0.1849 -0.2275  1.1021
  324MOL0     C43661   4.766   4.690   5.477 -0.1417 -0.0494 -1.0316
  324MOL0     C43662   4.688   4.764   5.562 -0.1112  0.0478 -0.1824
  324MOL0     O43663   4.551   4.763   5.534 -0.7553  0.3264 -0.2898
  324MOL0     C43664   4.455   4.815   5.621 -0.4120  0.6753  0.0945
  324MOL0     C43665   4.438   4.719   5.739  0.7894 -0.2349 -0.6462
  324MOL0     C43666   4.329   4.768   5.832  0.0556 -0.3284  0.0625
  324MOL0     C43667   4.345   4.699   5.973  0.1827  0.3080 -0.6134
  324MOL0     C43668   4.213   4.687   6.035  0.3290  0.0814  0.0663
  324MOL0     C43669   4.113   4.698   6.087  0.1237 -0.3789 -0.2914
  324MOL0     C43670   4.755   4.803   5.682 -0.5341  0.2654  0.0376
  324MOL0     C43671   4.894   4.774   5.703  0.2415  0.1994 -0.0261
  324MOL0     C43672   4.946   4.841   5.824  0.4656 -0.5513 -0.5148
  324MOL0     H43673   5.377   4.769   5.515  1.2762  1.3363  1.6241
  324MOL0     H43674   5.596   4.700   5.554  3.9649 -2.4666  2.2732
  324MOL0     H43675   5.777   4.560   5.463 -0.1973 -1.2011 -0.5308
  324MOL0     H43676   5.804   4.580   5.639  0.4047 -0.3741  1.5596
  324MOL0     H43677   5.984   4.451   5.484  1.4254  2.2158  2.8745
  324MOL0     H43678   5.874   4.324   5.477 -1.7952  2.6079 -3.8991
  324MOL0     H43679   6.014   4.256   5.633 -2.9975 -1.5639 -1.9915
  324MOL0     H43680   5.876   4.305   5.733  0.3372  1.5093  0.1364
  324MOL0     H43681   6.120   4.491   5.700  0.3378 -0.9108  0.7230
  324MOL0     H43682   5.957   4.513   5.779 -2.6031 -2.4438 -2.5728
  324MOL0     H43683   6.052   4.341   5.954 -1.2482  4.4523  1.7734
  324MOL0     H43684   6.170   4.306   5.826  0.2687  1.5692  0.7852
  324MOL0     H43685   6.298   4.496   5.854 -1.8071  3.3087 -2.5187
  324MOL0     H43686   6.160   4.577   5.924  0.6344 -0.5604 -2.0798
  324MOL0     H43687   6.308   4.352   6.062  0.9730  1.2358  2.0846
  324MOL0     H43688   6.169   4.444   6.127  0.2418  0.1852  1.6879
  324MOL0     H43689   6.307   4.636   6.150  0.7388  0.4876  0.5721
  324MOL0     H43690   6.381   4.499   6.227 -0.8400  2.3498  0.1809
  324MOL0     H43691   6.635   4.416   6.161 -2.0343 -0.2496  1.6709
  324MOL0     H43692   6.881   4.542   5.904  1.4164 -2.3392  0.2483
  324MOL0     H43693   6.886   4.598   6.072  1.1038 -0.7154  0.1203
  324MOL0     H43694   6.857   4.369   6.162 -2.5899 -1.8427 -0.7123
  324MOL0     H43695   6.837   4.317   5.990 -0.6121 -0.9159  1.6798
  324MOL0     H43696   7.108   4.441   6.093 -0.1422  1.7499 -1.0084
  324MOL0     H43697   7.062   4.403   5.932 -1.6692 -1.6957 -0.5967
  324MOL0     H43698   7.071   4.151   5.970 -3.3212  2.0342 -1.1626
  324MOL0     H43699   7.062   4.185   6.137  0.8325  3.4996  1.0807
  324MOL0     H43700   7.505   4.259   6.052  0.1070 -1.2541  0.0648
  324MOL0     H43701   7.653   4.268   5.871  0.0266  1.4245  2.3236
  324MOL0     H43702   7.958   4.327   5.599 -0.5240  0.0528  0.3957
  324MOL0     H43703   8.108   4.407   5.438 -1.1855  0.0482  4.2489
  324MOL0     H43704   8.211   4.613   5.178 -2.3732  1.2024 -1.9423
  324MOL0     H43705   8.211   4.452   5.253  1.4692 -0.9659 -1.2922
  324MOL0     H43706   8.168   4.350   5.020  0.8796 -0.5477 -0.1286
  324MOL0     H43707   8.136   4.518   4.964 -1.5947 -0.5616  1.2997
  324MOL0     H43708   8.399   4.378   5.010  2.8396  1.0122 -0.5161
  324MOL0     H43709   8.345   4.459   4.863 -1.7457 -1.0674 -1.1911
  324MOL0     H43710   8.459   4.591   5.113  0.1710 -0.7242 -0.1204
  324MOL0     H43711   8.341   4.673   5.022 -1.4738 -1.8190  3.3415
  324MOL0     H43712   8.590   4.537   4.892  0.8755  0.1162  0.3769
  324MOL0     H43713   8.615   4.696   4.975 -0.1873 -0.5870 -0.0422
  324MOL0     H43714   8.394   4.650   4.763 -0.1375 -1.5201  2.4159
  324MOL0     H43715   8.428   4.801   4.843 -1.1240 -1.1112 -0.9829
  324MOL0     H43716   8.681   4.758   4.758  0.4964 -2.8241 -0.5777
  324MOL0     H43717   8.562   4.836   4.645 -0.4280 -0.1512  0.3008
  324MOL0     H43718   8.669   4.558   4.668  0.6019  1.6291  1.7420
  324MOL0     H43719   8.533   4.609   4.553 -0.0637 -0.6383  0.2234
  324MOL0     H43720   7.782   4.497   5.173 -1.5048  3.4280  1.1476
  324MOL0     H43721   7.627   4.389   5.329  0.3415  0.0286  1.0195
  324MOL0     H43722   7.304   4.260   5.598  1.0031  3.2836 -0.6247
  324MOL0     H43723   7.168   4.255   5.782 -0.8934  1.1984  1.5010
  324MOL0     H43724   5.444   4.295   5.587 -1.2990  0.7261 -1.3676
  324MOL0     H43725   5.230   4.378   5.567 -0.5800 -0.0203  0.1362
  324MOL0     H43726   4.953   4.599   5.417 -4.0882 -1.3703 -0.9557
  324MOL0     H43727   4.710   4.661   5.389  0.3357 -3.6012 -0.3019
  324MOL0     H43728   4.369   4.833   5.556  1.0724  4.2887 -1.1440
  324MOL0     H43729   4.483   4.916   5.653  1.7840  0.5603 -1.2384
  324MOL0     H43730   4.534   4.704   5.789  0.7043  0.2815 -0.3238
  324MOL0     H43731   4.404   4.622   5.702 -2.2128  1.0645 -1.6104
  324MOL0     H43732   4.228   4.746   5.795 -0.0725 -0.9584  0.7521
  324MOL0     H43733   4.332   4.877   5.837 -2.5352 -0.2077  0.8582
  324MOL0     H43734   4.382   4.596   5.975  2.6739  1.1408  1.2353
  324MOL0     H43735   4.415   4.757   6.032  0.4835  0.7911 -1.4250
  324MOL0     H43736   4.020   4.708   6.139 -0.2729  2.2658 -1.3659
  324MOL0     H43737   4.708   4.865   5.758  0.6648  0.0716  0.9738
  324MOL0     H43738   4.865   4.890   5.878  2.2968 -0.0392  1.9515
  324MOL0     H43739   4.994   4.762   5.883 -1.4416 -0.6576  1.0270
  324MOL0     H43740   5.014   4.918   5.786 -0.8826  0.8717 -0.1526
  325MOL0     O43741   8.747   1.394   8.212  0.1792  0.1431 -0.3660
  325MOL0     C43742   8.755   1.376   8.339 -0.1039  0.2522  0.0168
  325MOL0     O43743   8.868   1.408   8.413  0.4112 -0.7940  0.2478
  325MOL0     C43744   8.967   1.480   8.353  1.1268 -1.2266  0.0187
  325MOL0     C43745   9.098   1.436   8.376 -1.2160 -0.7924 -0.2105
  325MOL0     C43746   9.212   1.504   8.334  0.5155 -0.2196  0.3167
  325MOL0     C43747   9.195   1.620   8.259  0.5754 -0.1733 -0.0093
  325MOL0     O43748   9.298   1.697   8.214 -0.8323  0.2431  0.4079
  325MOL0     C43749   9.369   1.639   8.100 -0.5485 -0.2713  0.1971
  325MOL0     C43750   9.508   1.701   8.077 -0.3023 -0.2421  0.2509
  325MOL0     C43751   9.613   1.639   8.160 -0.1324 -0.6596 -0.0135
  325MOL0     C43752   9.743   1.717   8.176 -0.0326  0.8271 -0.6816
  325MOL0     C43753   9.845   1.665   8.278 -0.6352  0.6628  0.8861
  325MOL0     C43754   9.954   1.775   8.293 -0.5409 -0.8735  0.0383
  325MOL0     C43755  10.009   1.839   8.160 -0.8815 -0.0394 -0.4239
  325MOL0     C43756  10.131   1.934   8.189 -0.3142  0.5170 -0.5298
  325MOL0     N43757  10.088   2.075   8.195 -0.3611  0.2246 -0.6216
  325MOL0     C43758  10.180   2.174   8.230  0.7525 -0.5864  0.3894
  325MOL0     C43759  10.109   2.288   8.213  0.2607 -0.2941 -0.4124
  325MOL0     C43760  10.156   2.429   8.231  0.3843  0.8840  0.1724
  325MOL0     C43761  10.174   2.496   8.101 -1.0296  0.2198 -0.0881
  325MOL0     C43762  10.212   2.645   8.119 -0.6689 -0.0259 -0.1195
  325MOL0     C43763  10.358   2.682   8.127  0.0852 -0.4187  0.1884
  325MOL0     O43764  10.402   2.666   7.991  0.0467  0.3181  0.0458
  325MOL0     C43765  10.537   2.682   7.967  0.2591  0.2181  0.2556
  325MOL0     C43766  10.572   2.689   7.831  0.0222 -0.6248 -0.4418
  325MOL0     C43767  10.697   2.744   7.797  0.4625  0.0464  0.2927
  325MOL0     C43768  10.793   2.775   7.897 -0.3746 -0.4034 -0.3970
  325MOL0     C43769  10.941   2.810   7.866  0.3970 -0.4519  0.1685
  325MOL0     O43770  11.027   2.800   7.968 -0.6392  0.5080 -0.2754
  325MOL0     C43771  11.163   2.806   7.943  0.8201  0.0216  0.6547
  325MOL0     C43772  11.231   2.708   7.868  0.6475  0.3889  0.1994
  325MOL0     C43773  11.371   2.717   7.848 -0.1932 -0.1732  0.5682
  325MOL0     C43774  11.445   2.813   7.905  0.5114 -0.1252 -0.7825
  325MOL0     O43775  11.583   2.823   7.882  0.1496  0.1648 -0.8057
  325MOL0     C43776  11.646   2.703   7.934 -0.3110 -0.2479  0.4750
  325MOL0     C43777  11.793   2.721   7.921 -0.1046 -0.1404 -0.1017
  325MOL0     C43778  11.854   2.716   7.783 -0.0503 -0.1669 -0.3608
  325MOL0     C43779  12.001   2.666   7.792 -0.2138 -0.3459  0.4855
  325MOL0     C43780  12.076   2.721   7.665  0.7739 -0.7984 -0.1409
  325MOL0     C43781  12.206   2.651   7.616  0.4548  0.6360 -0.4103
  325MOL0     C43782  12.318   2.676   7.725  0.4589  0.1123  1.1351
  325MOL0     C43783  12.453   2.597   7.698 -0.1363 -0.2262  0.4152
  325MOL0    Cl43784  12.525   2.651   7.547 -0.1781 -0.0993 -0.1219
  325MOL0     C43785  11.381   2.915   7.977  0.4318 -0.1545  0.3767
  325MOL0     C43786  11.239   2.914   8.001 -0.4783  0.0295 -0.8936
  325MOL0     O43787  10.965   2.823   7.751 -0.6325 -0.3660 -0.0507
  325MOL0     C43788  10.748   2.756   8.031 -1.1360 -0.2111  0.7371
  325MOL0     C43789  10.623   2.720   8.073 -0.9875  0.9528  0.8889
  325MOL0     N43790   9.974   2.247   8.193 -0.0792 -0.2789 -0.3659
  325MOL0     N43791   9.960   2.121   8.176 -0.5648 -0.2653  0.6639
  325MOL0     C43792   9.060   1.660   8.237  0.3973 -0.5007 -0.0652
  325MOL0     C43793   8.947   1.599   8.286 -0.5784 -0.1605 -0.6592
  325MOL0     C43794   8.636   1.317   8.414  0.2883  0.6791 -0.5457
  325MOL0     C43795   8.661   1.253   8.540  0.6884 -0.0570 -0.6659
  325MOL0     C43796   8.553   1.194   8.609 -0.2429 -0.1560  0.3811
  325MOL0     C43797   8.419   1.199   8.561  0.3933  0.6919  0.1043
  325MOL0     O43798   8.315   1.133   8.623 -0.2087  0.3701 -0.0130
  325MOL0     C43799   8.187   1.150   8.553 -0.2947  0.2783 -0.6381
  325MOL0     C43800   8.073   1.084   8.637  0.1192 -0.3574 -0.0508
  325MOL0     C43801   8.095   0.942   8.678  0.9172 -0.3030  0.0714
  325MOL0     C43802   8.033   0.842   8.569  0.6610  0.5529  0.3320
  325MOL0     C43803   7.998   0.716   8.629 -0.5671 -0.0702  0.4739
  325MOL0     C43804   7.975   0.606   8.687  0.3321 -0.4874 -0.5514
  325MOL0     C43805   8.403   1.285   8.452 -0.3360 -0.5898 -1.1574
  325MOL0     C43806   8.502   1.341   8.378 -0.4287  0.4040 -0.6015
  325MOL0     C43807   8.471   1.426   8.260  1.1135 -0.3008 -0.0440
  325MOL0     H43808   9.100   1.357   8.450 -1.1871 -1.7990 -1.2534
  325MOL0     H43809   9.313   1.472   8.359  0.3734  0.5737  2.0236
  325MOL0     H43810   9.381   1.530   8.095  1.5621  0.0085 -2.8194
  325MOL0     H43811   9.315   1.657   8.007 -1.5810 -3.0371  0.1693
  325MOL0     H43812   9.495   1.805   8.109 -1.4643 -0.0456 -0.7509
  325MOL0     H43813   9.538   1.705   7.971 -0.7610 -1.7403  0.0383
  325MOL0     H43814   9.635   1.544   8.109 -0.0068  0.1826 -1.6009
  325MOL0     H43815   9.574   1.625   8.261 -2.4701  1.6579 -0.4877
  325MOL0     H43816   9.785   1.715   8.075 -1.6638  2.7618 -1.4893
  325MOL0     H43817   9.712   1.819   8.202 -0.3860  0.5065  0.1704
  325MOL0     H43818   9.792   1.655   8.373 -3.0213 -2.7148 -0.5878
  325MOL0     H43819   9.880   1.567   8.244 -0.1259  1.8520 -2.4297
  325MOL0     H43820   9.914   1.862   8.345  0.9777  0.5897 -1.1269
  325MOL0     H43821  10.031   1.725   8.352 -1.0109  0.0569  1.4770
  325MOL0     H43822   9.927   1.881   8.101 -1.7842  0.3252  1.0339
  325MOL0     H43823  10.056   1.756   8.106  0.3425  0.7460 -0.6088
  325MOL0     H43824  10.183   1.902   8.280 -1.2793  1.4729  0.3977
  325MOL0     H43825  10.194   1.924   8.100  0.9615 -0.4823  0.4509
  325MOL0     H43826  10.286   2.175   8.251  1.6481 -0.3683 -3.4210
  325MOL0     H43827  10.087   2.483   8.297  0.1741  1.0302 -0.1635
  325MOL0     H43828  10.255   2.422   8.278 -0.8356 -0.1912  2.7733
  325MOL0     H43829  10.257   2.449   8.048 -1.0004  0.0242  0.1294
  325MOL0     H43830  10.080   2.497   8.044 -1.2634 -0.9001  0.2388
  325MOL0     H43831  10.172   2.686   8.213  0.4511  1.8956 -0.4140
  325MOL0     H43832  10.174   2.701   8.033  2.1270 -1.2326 -2.2731
  325MOL0     H43833  10.406   2.604   8.188  0.2744  0.3164  1.0031
  325MOL0     H43834  10.383   2.779   8.172  1.3462 -1.6603  2.3574
  325MOL0     H43835  10.497   2.656   7.760 -0.1480  0.3859 -0.7506
  325MOL0     H43836  10.711   2.751   7.689  0.8529 -0.3590  0.3195
  325MOL0     H43837  11.183   2.619   7.830 -0.7032  1.3899 -0.5430
  325MOL0     H43838  11.431   2.639   7.803  1.5099  0.7310  1.1995
  325MOL0     H43839  11.614   2.692   8.038 -1.1808  0.0159  0.2520
  325MOL0     H43840  11.617   2.610   7.884  0.8167 -0.0272 -0.6383
  325MOL0     H43841  11.833   2.815   7.960  3.3961 -1.7685  0.5789
  325MOL0     H43842  11.843   2.638   7.971  2.8271  0.1577 -2.2682
  325MOL0     H43843  11.798   2.650   7.716 -0.5470 -0.3460  0.2214
  325MOL0     H43844  11.864   2.819   7.747  1.7473 -0.1906 -0.0335
  325MOL0     H43845  12.005   2.557   7.798  2.4088 -0.2472  2.3747
  325MOL0     H43846  12.045   2.707   7.884 -2.6163  1.8230  0.8031
  325MOL0     H43847  12.103   2.826   7.679  0.9390 -0.5158 -2.2146
  325MOL0     H43848  11.996   2.731   7.591  1.3073  1.4508 -0.4989
  325MOL0     H43849  12.179   2.546   7.607 -1.6873  1.2491 -1.8160
  325MOL0     H43850  12.246   2.676   7.518 -0.0780  0.5420 -0.6561
  325MOL0     H43851  12.278   2.651   7.824 -2.7587  1.7673  0.3976
  325MOL0     H43852  12.344   2.782   7.727 -0.8075  0.5086 -0.7516
  325MOL0     H43853  12.521   2.615   7.782 -2.7272  0.7147  2.4582
  325MOL0     H43854  12.427   2.491   7.690 -0.9716  0.1120 -3.0437
  325MOL0     H43855  11.443   3.001   8.004  1.4735 -0.7232 -0.1246
  325MOL0     H43856  11.193   2.987   8.067  1.6019 -0.3288  1.0537
  325MOL0     H43857  10.827   2.769   8.105 -2.0120 -3.6682  2.4787
  325MOL0     H43858  10.608   2.724   8.180 -2.1666 -0.6291  0.8240
  325MOL0     H43859   9.026   1.749   8.186 -3.3757  0.1876  3.1491
  325MOL0     H43860   8.848   1.643   8.273 -0.2582  1.2026  1.0287
  325MOL0     H43861   8.761   1.231   8.576  0.6788 -1.1589 -1.2931
  325MOL0     H43862   8.585   1.122   8.684 -1.9511 -2.5159 -1.0195
  325MOL0     H43863   8.190   1.105   8.453 -0.7863 -0.2432 -0.4245
  325MOL0     H43864   8.161   1.256   8.552 -0.4984  0.2293 -0.5628
  325MOL0     H43865   7.982   1.098   8.578 -0.6392 -1.2272  0.8801
  325MOL0     H43866   8.055   1.146   8.725 -0.5039 -0.4266 -0.1247
  325MOL0     H43867   8.044   0.931   8.774 -1.1849  3.7383 -0.3239
  325MOL0     H43868   8.197   0.910   8.698  0.4421 -1.6346  0.4922
  325MOL0     H43869   7.936   0.873   8.529 -0.4070 -0.3833  2.0970
  325MOL0     H43870   8.104   0.824   8.487 -0.3038 -0.1902 -0.3635
  325MOL0     H43871   7.933   0.510   8.707 -0.6533 -0.4987 -2.4238
  325MOL0     H43872   8.306   1.309   8.411 -0.7432 -2.9240 -1.7427
  325MOL0     H43873   8.530   1.518   8.258  0.8004 -0.1043 -0.6474
  325MOL0     H43874   8.502   1.380   8.165  1.5149 -1.2628  0.5424
  325MOL0     H43875   8.368   1.460   8.252  1.2283  0.0969  0.1474
  326MOL0     O43876   1.356  10.899   1.089  0.2704  0.0419  0.2148
  326MOL0     C43877   1.312  10.899   1.205  0.4532 -0.0864 -0.0394
  326MOL0     O43878   1.387  10.896   1.321  0.1287 -0.2071  0.1318
  326MOL0     C43879   1.524  10.887   1.322  0.5346 -0.8730  0.0279
  326MOL0     C43880   1.582  10.812   1.420  0.6798  0.2127 -0.1482
  326MOL0     C43881   1.721  10.797   1.413 -0.4223  0.4760 -0.2279
  326MOL0     C43882   1.804  10.871   1.331  0.2234  0.3508  0.5063
  326MOL0     O43883   1.937  10.861   1.355 -0.2132  0.9591 -0.4432
  326MOL0     C43884   2.036  10.906   1.256  1.0295 -0.2845  0.2479
  326MOL0     C43885   2.186  10.875   1.293 -0.0975 -0.1847  0.1053
  326MOL0     C43886   2.289  10.938   1.195  0.3253 -0.6055 -0.5549
  326MOL0     C43887   2.419  10.973   1.261  0.0675 -0.3116  0.1061
  326MOL0     C43888   2.503  11.059   1.161  0.1067  0.0715  0.1482
  326MOL0     C43889   2.654  11.067   1.203  0.0911 -0.3807 -0.9982
  326MOL0     C43890   2.670  11.162   1.318 -0.1208 -0.8248 -0.3974
  326MOL0     C43891   2.815  11.220   1.335  0.0682 -0.3124  0.2768
  326MOL0     N43892   2.900  11.119   1.396 -0.7257  0.1505 -0.4845
  326MOL0     C43893   2.984  11.155   1.501 -0.2050  0.5179 -0.4126
  326MOL0     C43894   2.989  11.032   1.571  0.2494  0.1025  0.0953
  326MOL0     C43895   3.052  11.004   1.704 -0.5289 -0.4646 -0.5332
  326MOL0     C43896   3.064  10.859   1.743 -0.3862  0.3595 -0.2841
  326MOL0     C43897   3.204  10.800   1.724  0.6006  0.6787  0.3473
  326MOL0     C43898   3.211  10.708   1.597  0.4411  0.6029 -0.0818
  326MOL0     O43899   3.342  10.643   1.587  0.0689  0.3775  0.9148
  326MOL0     C43900   3.440  10.699   1.511  0.6688 -0.0029 -0.5587
  326MOL0     C43901   3.542  10.617   1.464  0.5044  1.1671 -0.3874
  326MOL0     C43902   3.630  10.664   1.371 -0.2069  0.2948 -0.4592
  326MOL0     C43903   3.623  10.797   1.322 -0.4242  0.0949 -0.0550
  326MOL0     C43904   3.722  10.839   1.215  0.6861 -0.1375  0.5431
  326MOL0     O43905   3.805  10.742   1.165  0.5740  0.0135  0.5207
  326MOL0     C43906   3.909  10.772   1.074  0.6947  0.5035 -0.6177
  326MOL0     C43907   3.892  10.856   0.956 -0.3576 -0.2668  0.4119
  326MOL0     C43908   3.998  10.891   0.868  0.5896  0.6428 -0.5804
  326MOL0     C43909   4.126  10.834   0.893 -0.1299 -0.5435 -0.0453
  326MOL0     O43910   4.233  10.886   0.828 -0.0836 -0.2200  0.1631
  326MOL0     C43911   4.347  10.806   0.819  0.0957  0.0352  0.0283
  326MOL0     C43912   4.443  10.840   0.710 -0.5012 -0.4050 -0.7857
  326MOL0     C43913   4.543  10.716   0.692 -0.8501 -0.3689  0.2667
  326MOL0     C43914   4.661  10.759   0.594  0.2646  0.4851  0.6375
  326MOL0     C43915   4.763  10.853   0.658 -0.5172 -1.2391  0.3794
  326MOL0     C43916   4.862  10.924   0.562  0.0251  0.8048 -0.5032
  326MOL0     C43917   4.950  10.830   0.470 -0.1299  0.0742 -0.7559
  326MOL0     C43918   5.028  10.906   0.355 -0.1993  0.1601  0.1009
  326MOL0    Cl43919   5.113  10.784   0.251 -0.2727 -0.2508  0.2053
  326MOL0     C43920   4.140  10.741   1.000  0.2753  1.0832 -1.3278
  326MOL0     C43921   4.030  10.717   1.090  0.2222  0.4994 -0.2863
  326MOL0     O43922   3.728  10.961   1.197 -0.1604  0.3820 -0.0065
  326MOL0     C43923   3.527  10.884   1.369  0.1799 -0.3027  0.1019
  326MOL0     C43924   3.437  10.838   1.468  1.0013  0.6008  1.1382
  326MOL0     N43925   2.942  10.927   1.484 -0.2612 -0.2424 -0.3599
  326MOL0     N43926   2.888  10.988   1.381 -0.0800  0.9420  0.3305
  326MOL0     C43927   1.744  10.969   1.253 -0.8686  0.7853 -0.1688
  326MOL0     C43928   1.605  10.976   1.254 -0.8755  0.7547  1.0767
  326MOL0     C43929   1.158  10.912   1.212 -0.5625  0.5179 -0.5012
  326MOL0     C43930   1.107  10.936   1.340 -0.1025 -1.0292 -0.5350
  326MOL0     C43931   0.969  10.954   1.370  0.0767  0.7448 -0.5221
  326MOL0     C43932   0.874  10.918   1.270  0.1683 -0.5409  0.4805
  326MOL0     O43933   0.738  10.905   1.279 -0.3006  0.1188 -0.7955
  326MOL0     C43934   0.690  10.935   1.415  0.4990  0.2390  0.1940
  326MOL0     C43935   0.539  10.911   1.424 -0.2451  0.5295 -0.1046
  326MOL0     C43936   0.513  10.761   1.404  0.6155  0.1281 -0.0130
  326MOL0     C43937   0.357  10.731   1.391  0.0237 -0.5258  1.1727
  326MOL0     C43938   0.286  10.796   1.504 -0.6486  0.4427 -0.6198
  326MOL0     C43939   0.231  10.846   1.597 -0.2673  0.5885 -0.2847
  326MOL0     C43940   0.924  10.894   1.140  0.4841 -0.7111  0.4269
  326MOL0     C43941   1.059  10.898   1.108 -0.0943  0.0494 -0.9265
  326MOL0     C43942   1.082  10.891   0.954 -0.0036  0.8484 -0.3102
  326MOL0     H43943   1.518  10.761   1.491  0.6627  1.0367  0.4334
  326MOL0     H43944   1.765  10.722   1.478  3.4884  1.8288 -1.0582
  326MOL0     H43945   2.020  10.862   1.157  1.6010 -2.1263  0.9179
  326MOL0     H43946   2.026  11.014   1.245 -1.5177  0.2174  5.1052
  326MOL0     H43947   2.216  10.773   1.318  0.4158 -0.3792 -1.2231
  326MOL0     H43948   2.187  10.933   1.386  0.3409  2.6912 -1.5926
  326MOL0     H43949   2.247  11.036   1.170  0.5349 -0.8539 -1.9977
  326MOL0     H43950   2.299  10.890   1.097 -1.3084 -0.3459 -0.8740
  326MOL0     H43951   2.401  11.028   1.354 -2.6909 -1.3157  0.2598
  326MOL0     H43952   2.461  10.873   1.276  0.4442 -0.0261  1.0477
  326MOL0     H43953   2.492  11.012   1.063  0.3019 -3.0674  1.5389
  326MOL0     H43954   2.460  11.158   1.142 -3.6166 -1.6819 -1.4498
  326MOL0     H43955   2.678  10.962   1.223 -2.0555 -0.5173  1.4600
  326MOL0     H43956   2.696  11.112   1.113 -1.6631 -1.3943 -2.3837
  326MOL0     H43957   2.648  11.115   1.415  1.2538  1.8766  1.3346
  326MOL0     H43958   2.600  11.241   1.291 -0.7361 -0.9718  0.6927
  326MOL0     H43959   2.855  11.249   1.237  2.1095 -2.6252  0.3401
  326MOL0     H43960   2.802  11.307   1.401 -1.0023 -1.2647  1.3750
  326MOL0     H43961   3.034  11.250   1.518  0.5894  0.5008 -2.3556
  326MOL0     H43962   3.154  11.039   1.719 -0.8019 -0.4539  1.6210
  326MOL0     H43963   2.996  11.064   1.777 -1.6899 -4.0497  1.7818
  326MOL0     H43964   3.061  10.862   1.852  1.1527 -0.4811 -0.1824
  326MOL0     H43965   2.985  10.796   1.701  1.4364 -1.1287 -1.6640
  326MOL0     H43966   3.224  10.736   1.811 -1.2188 -1.2801 -0.6082
  326MOL0     H43967   3.282  10.876   1.736 -0.9428  2.1671  1.3815
  326MOL0     H43968   3.179  10.754   1.503 -2.9648 -2.4130 -0.6240
  326MOL0     H43969   3.138  10.627   1.611  0.9828 -0.3411 -2.2853
  326MOL0     H43970   3.547  10.511   1.488 -0.5500  1.2707  0.3551
  326MOL0     H43971   3.697  10.591   1.326 -0.2135  1.5285 -2.6523
  326MOL0     H43972   3.798  10.905   0.935  0.8620  1.7028 -0.6605
  326MOL0     H43973   3.991  10.966   0.789  0.2801 -1.2031 -2.3884
  326MOL0     H43974   4.408  10.810   0.910  0.5029  1.6102 -0.2936
  326MOL0     H43975   4.327  10.698   0.811  2.4333 -0.5326  1.0084
  326MOL0     H43976   4.410  10.858   0.607 -1.6850 -1.1113 -0.5447
  326MOL0     H43977   4.498  10.928   0.746  0.1825 -2.1893  2.9281
  326MOL0     H43978   4.586  10.695   0.790 -3.2105  1.3243  1.7622
  326MOL0     H43979   4.490  10.628   0.655  1.0412 -0.6923 -1.9454
  326MOL0     H43980   4.608  10.804   0.509 -0.0004 -0.6988  0.1604
  326MOL0     H43981   4.713  10.672   0.553  1.4725  0.8570  1.3223
  326MOL0     H43982   4.825  10.803   0.733  0.0193  1.0768  1.5644
  326MOL0     H43983   4.709  10.935   0.706  0.9888  0.8239 -1.3003
  326MOL0     H43984   4.801  10.985   0.495 -1.8317 -0.9976 -0.5880
  326MOL0     H43985   4.922  10.988   0.627  1.3341 -0.9021  0.0307
  326MOL0     H43986   4.894  10.756   0.413  0.1265 -0.1413 -0.7275
  326MOL0     H43987   5.020  10.782   0.540  1.3396  0.7421 -1.7415
  326MOL0     H43988   4.959  10.960   0.290  3.1511 -0.7810 -4.7864
  326MOL0     H43989   5.094  10.978   0.404 -0.4009  0.5244 -0.1597
  326MOL0     H43990   4.234  10.690   1.016 -0.8599 -0.7365 -0.1309
  326MOL0     H43991   4.040  10.649   1.174  1.4096  0.2842 -0.5777
  326MOL0     H43992   3.535  10.982   1.323 -0.1199 -0.3040  0.0473
  326MOL0     H43993   3.358  10.906   1.498  0.5833 -0.2546  2.0326
  326MOL0     H43994   1.815  11.018   1.187 -0.9475 -3.7753 -4.2334
  326MOL0     H43995   1.571  11.052   1.185  0.4641  1.9080  1.6279
  326MOL0     H43996   1.174  10.945   1.425 -0.7175  0.2401 -0.1649
  326MOL0     H43997   0.922  10.979   1.465  0.7575 -1.4092  0.4294
  326MOL0     H43998   0.703  11.042   1.435 -3.5660  0.8107  0.5308
  326MOL0     H43999   0.729  10.872   1.496 -2.8858 -2.7125 -0.2668
  326MOL0     H44000   0.486  10.972   1.350 -0.1034  1.3993  0.4973
  326MOL0     H44001   0.504  10.952   1.519  2.1606  0.5526  0.8387
  326MOL0     H44002   0.548  10.703   1.490  0.1140 -0.5284 -0.2482
  326MOL0     H44003   0.565  10.715   1.320  0.3529 -0.0342 -0.0868
  326MOL0     H44004   0.320  10.778   1.300  1.2958  2.7185  2.1976
  326MOL0     H44005   0.331  10.624   1.387 -2.3538  0.0020 -2.6970
  326MOL0     H44006   0.180  10.883   1.683  0.4614 -1.1220  0.9383
  326MOL0     H44007   0.853  10.872   1.060 -1.3222 -0.9964  2.0273
  326MOL0     H44008   1.186  10.926   0.944 -0.4356  2.8866  1.6339
  326MOL0     H44009   1.068  10.790   0.914  1.8183  1.5404 -2.9724
  326MOL0     H44010   1.014  10.957   0.900 -1.4452 -0.3186  0.0245
  327MOL0     O44011   1.943   7.738   2.387  0.4630 -0.1221  0.3537
  327MOL0     C44012   1.910   7.635   2.449  0.2671  0.9000 -0.2140
  327MOL0     O44013   2.002   7.558   2.518  0.0899  0.1283  0.2113
  327MOL0     C44014   2.132   7.562   2.473  0.2165  0.0546 -0.3042
  327MOL0     C44015   2.159   7.510   2.348  0.1030 -0.2966 -0.2014
  327MOL0     C44016   2.292   7.499   2.304  0.2171  0.4646  0.3390
  327MOL0     C44017   2.395   7.532   2.393  0.3498 -0.6839 -0.0204
  327MOL0     O44018   2.531   7.518   2.386  0.1868 -0.2177  0.4762
  327MOL0     C44019   2.594   7.466   2.267 -0.2043  0.2920  0.1947
  327MOL0     C44020   2.742   7.504   2.263 -0.2792 -0.3067 -0.1905
  327MOL0     C44021   2.766   7.652   2.274 -0.8714 -0.3957  0.3475
  327MOL0     C44022   2.916   7.671   2.296  0.2106  0.6153 -0.3743
  327MOL0     C44023   2.994   7.677   2.161 -0.3552 -0.2535  0.2437
  327MOL0     C44024   3.141   7.728   2.186  0.1082  0.3776  0.5152
  327MOL0     C44025   3.227   7.623   2.260 -0.0498  0.0641  0.0272
  327MOL0     C44026   3.372   7.642   2.242  0.3291 -0.8912  0.4629
  327MOL0     N44027   3.430   7.763   2.313 -0.1902  0.1617 -0.4025
  327MOL0     C44028   3.542   7.828   2.259 -0.3745  0.7513 -0.7144
  327MOL0     C44029   3.571   7.928   2.349  0.1391 -0.6092 -0.6569
  327MOL0     C44030   3.692   8.015   2.343 -0.1992 -0.0799 -0.6841
  327MOL0     C44031   3.818   7.944   2.384 -0.1725 -0.5782 -0.4344
  327MOL0     C44032   3.887   7.839   2.281  0.8305  0.2067  0.5136
  327MOL0     C44033   4.031   7.793   2.326 -0.4980 -0.5352  0.0697
  327MOL0     O44034   4.066   7.689   2.231  0.0305  0.2692  0.1021
  327MOL0     C44035   4.195   7.702   2.181  0.2760 -0.2558  0.0308
  327MOL0     C44036   4.217   7.648   2.054  0.0575 -0.5197  0.8972
  327MOL0     C44037   4.343   7.641   1.997 -0.1298 -1.1546 -0.3439
  327MOL0     C44038   4.459   7.682   2.077  0.4614 -0.3759 -0.6298
  327MOL0     C44039   4.590   7.674   2.024 -0.3499  0.8201  0.5389
  327MOL0     O44040   4.695   7.669   2.118  0.4245  0.0748 -0.3396
  327MOL0     C44041   4.821   7.711   2.082 -0.0068 -0.3856 -0.2294
  327MOL0     C44042   4.857   7.815   1.995 -0.8192 -0.0028 -1.5244
  327MOL0     C44043   4.991   7.851   1.982 -0.2582  0.6396  0.3420
  327MOL0     C44044   5.093   7.792   2.054 -0.0972 -0.4912  0.8279
  327MOL0     O44045   5.224   7.837   2.028 -0.4613  0.5837  0.2675
  327MOL0     C44046   5.317   7.829   2.140 -0.0564  0.0535 -0.1833
  327MOL0     C44047   5.458   7.887   2.109  0.1423  0.1250  0.1638
  327MOL0     C44048   5.521   7.943   2.231 -0.8867  0.0711 -0.9696
  327MOL0     C44049   5.645   8.034   2.200  0.0786  0.6914  0.0264
  327MOL0     C44050   5.741   8.010   2.311  0.4225 -0.6023 -1.0891
  327MOL0     C44051   5.859   8.110   2.304  0.5647 -1.3157 -0.3339
  327MOL0     C44052   5.950   8.098   2.426 -0.0262  0.2934  0.1220
  327MOL0     C44053   6.062   7.999   2.417  0.1709  0.2914  0.4147
  327MOL0    Cl44054   6.169   8.059   2.561  0.3031  0.0140  0.2747
  327MOL0     C44055   5.061   7.684   2.147 -0.2331 -0.0310  1.1551
  327MOL0     C44056   4.925   7.644   2.150 -0.4883  0.3297 -0.7353
  327MOL0     O44057   4.603   7.682   1.905  0.4780 -0.7556  0.0609
  327MOL0     C44058   4.442   7.738   2.205 -0.2517 -0.1665 -0.4336
  327MOL0     C44059   4.310   7.740   2.264  0.7466 -1.1084  1.0536
  327MOL0     N44060   3.482   7.914   2.460 -0.7187 -0.0703  0.6182
  327MOL0     N44061   3.412   7.806   2.446  0.1298 -0.3855  0.1412
  327MOL0     C44062   2.365   7.593   2.515  0.2653  0.4103  0.1745
  327MOL0     C44063   2.234   7.602   2.555  0.6861  0.9347  0.0276
  327MOL0     C44064   1.768   7.605   2.475 -0.1433 -0.0400 -0.6145
  327MOL0     C44065   1.742   7.495   2.560 -0.1335  0.0059 -0.2805
  327MOL0     C44066   1.605   7.460   2.583  1.0491 -0.1053 -0.3688
  327MOL0     C44067   1.502   7.539   2.538 -0.4581  0.2407 -0.8913
  327MOL0     O44068   1.386   7.493   2.587  0.0794  0.1712  1.0887
  327MOL0     C44069   1.264   7.550   2.544  0.0951  0.3133 -0.3965
  327MOL0     C44070   1.151   7.498   2.644 -0.4135  0.3613 -1.1035
  327MOL0     C44071   1.010   7.557   2.622  0.7868 -0.3805  0.4197
  327MOL0     C44072   0.911   7.494   2.733  0.4405 -0.1011  0.9124
  327MOL0     C44073   0.770   7.541   2.718  1.5077  0.3214  0.1590
  327MOL0     C44074   0.650   7.565   2.700 -1.2743  0.3935 -0.3269
  327MOL0     C44075   1.523   7.653   2.467  0.2597  1.1576  0.4935
  327MOL0     C44076   1.657   7.682   2.417  0.1587  0.6345 -0.4318
  327MOL0     C44077   1.669   7.793   2.319  0.7118 -0.0435  0.5407
  327MOL0     H44078   2.081   7.498   2.273  1.1917 -1.5063 -1.1955
  327MOL0     H44079   2.331   7.449   2.216 -0.8674 -2.2486  1.2976
  327MOL0     H44080   2.583   7.361   2.237  1.1581  0.5024 -1.1562
  327MOL0     H44081   2.551   7.525   2.186 -0.2959 -0.3750 -0.2468
  327MOL0     H44082   2.778   7.466   2.167 -0.7943 -1.6167  0.1132
  327MOL0     H44083   2.799   7.448   2.338 -0.6704  1.1564  1.2876
  327MOL0     H44084   2.706   7.689   2.357 -1.3433  1.5119 -0.7804
  327MOL0     H44085   2.729   7.703   2.185 -1.2465  0.0195  0.7388
  327MOL0     H44086   2.934   7.762   2.354  0.0236 -0.5444  1.5684
  327MOL0     H44087   2.962   7.595   2.360  2.1448  2.2978  0.3553
  327MOL0     H44088   2.992   7.575   2.122 -0.4822 -1.4252  3.0737
  327MOL0     H44089   2.951   7.744   2.086  3.2832  0.9406 -1.0263
  327MOL0     H44090   3.192   7.743   2.090 -0.1819 -1.6173  0.0149
  327MOL0     H44091   3.149   7.827   2.232  0.0755  0.0193  1.2959
  327MOL0     H44092   3.201   7.518   2.243  3.9769 -0.9380 -0.9453
  327MOL0     H44093   3.212   7.621   2.368  1.0134 -2.9087  0.2145
  327MOL0     H44094   3.430   7.560   2.285  1.3928  0.6939  2.2176
  327MOL0     H44095   3.400   7.655   2.137  1.8641  1.3213  1.0653
  327MOL0     H44096   3.591   7.809   2.164  1.0467  1.8211 -0.2223
  327MOL0     H44097   3.707   8.051   2.241 -1.1202  0.6595 -0.5793
  327MOL0     H44098   3.676   8.099   2.412  2.7359 -0.3704  0.4672
  327MOL0     H44099   3.887   8.026   2.405 -1.3138 -0.4410  3.4783
  327MOL0     H44100   3.809   7.891   2.479  0.9887 -0.8036 -0.4307
  327MOL0     H44101   3.908   7.897   2.191 -1.5312 -1.0633 -0.9378
  327MOL0     H44102   3.822   7.755   2.255  3.5496 -1.3043 -1.9660
  327MOL0     H44103   4.038   7.759   2.430  3.0379  0.5430  0.3042
  327MOL0     H44104   4.097   7.879   2.323 -0.1987 -0.7326  0.7600
  327MOL0     H44105   4.122   7.628   2.004  0.2921 -0.8241  0.5702
  327MOL0     H44106   4.342   7.615   1.892 -0.6145  3.9584 -1.9273
  327MOL0     H44107   4.769   7.867   1.960 -3.7153 -2.3373  1.5470
  327MOL0     H44108   5.018   7.920   1.902 -0.3153  1.0212  0.6473
  327MOL0     H44109   5.273   7.896   2.214  1.2411  3.9166 -2.6641
  327MOL0     H44110   5.337   7.728   2.179 -0.0331  0.5333  1.0892
  327MOL0     H44111   5.510   7.809   2.052  1.6185  1.2778 -0.1285
  327MOL0     H44112   5.435   7.962   2.032  0.2628  0.3923  0.3863
  327MOL0     H44113   5.457   8.003   2.295 -0.3452 -1.4531  1.1069
  327MOL0     H44114   5.543   7.853   2.290  0.8431  1.0334 -0.0719
  327MOL0     H44115   5.609   8.137   2.204  2.4201  1.5473  1.7970
  327MOL0     H44116   5.696   8.011   2.106 -0.2066 -0.2083  0.0831
  327MOL0     H44117   5.775   7.906   2.323 -0.8048 -0.9071  0.0562
  327MOL0     H44118   5.699   8.014   2.412  3.1526 -0.6751  0.1420
  327MOL0     H44119   5.910   8.093   2.208 -2.0659  0.5079 -2.1837
  327MOL0     H44120   5.830   8.215   2.301 -2.7016 -2.0967  0.4005
  327MOL0     H44121   5.880   8.090   2.510 -2.9275  2.7872 -1.8014
  327MOL0     H44122   5.990   8.200   2.435  0.2642  0.2891 -0.9973
  327MOL0     H44123   6.022   7.897   2.419  0.1839  0.2829  0.2348
  327MOL0     H44124   6.100   8.009   2.315 -3.6347  0.8391 -1.1140
  327MOL0     H44125   5.139   7.632   2.200 -0.1306 -2.2023 -0.9530
  327MOL0     H44126   4.909   7.559   2.216  2.3279 -0.9314 -1.5446
  327MOL0     H44127   4.529   7.765   2.262 -0.5708 -1.5117  0.7446
  327MOL0     H44128   4.299   7.777   2.366  1.1706  0.9993  0.3886
  327MOL0     H44129   2.443   7.625   2.583 -1.1525  2.7221  0.8430
  327MOL0     H44130   2.212   7.649   2.651  0.0327  2.1381 -0.6948
  327MOL0     H44131   1.816   7.434   2.610  1.3668  1.2893 -0.8732
  327MOL0     H44132   1.590   7.377   2.651 -0.6550  1.9142  1.8836
  327MOL0     H44133   1.256   7.510   2.442  0.3905 -4.1543  1.1330
  327MOL0     H44134   1.263   7.659   2.545  0.3728  0.3518  2.4052
  327MOL0     H44135   1.164   7.543   2.742  0.5734 -2.0091 -0.0600
  327MOL0     H44136   1.152   7.388   2.648 -0.8375  0.3741 -0.6086
  327MOL0     H44137   0.977   7.521   2.525 -2.0056 -1.4202  1.6551
  327MOL0     H44138   1.005   7.667   2.618 -0.5663 -0.2269  3.2638
  327MOL0     H44139   0.900   7.387   2.711 -0.0784  0.0115  0.6200
  327MOL0     H44140   0.946   7.515   2.834 -0.3383  1.1996  0.9355
  327MOL0     H44141   0.544   7.577   2.705 -0.9423  3.2910  2.3140
  327MOL0     H44142   1.434   7.705   2.432  1.0337  3.3911  1.6781
  327MOL0     H44143   1.574   7.811   2.267  1.6476  2.4175 -0.4752
  327MOL0     H44144   1.684   7.889   2.370 -2.2598 -0.0659  1.6638
  327MOL0     H44145   1.742   7.772   2.241 -0.4160 -1.8632 -0.0832
  328MOL0     O44146   6.710  10.525   2.371  0.5842  0.6807  0.4995
  328MOL0     C44147   6.700  10.618   2.450  0.3809 -0.0756 -0.3839
  328MOL0     O44148   6.806  10.675   2.518 -0.1939  0.2676 -0.3377
  328MOL0     C44149   6.924  10.604   2.536 -0.4889  0.9411 -0.0559
  328MOL0     C44150   7.044  10.674   2.556  0.0723  0.7928  0.3173
  328MOL0     C44151   7.163  10.609   2.579 -0.0322 -0.1086 -0.2120
  328MOL0     C44152   7.173  10.468   2.583 -0.4137 -0.6786 -0.1977
  328MOL0     O44153   7.286  10.395   2.610  0.4868  0.4394 -0.0221
  328MOL0     C44154   7.418  10.440   2.575 -0.8738  0.7757  0.3446
  328MOL0     C44155   7.527  10.426   2.682  0.2760  0.0761 -0.3245
  328MOL0     C44156   7.494  10.538   2.790 -0.5372 -0.2273  0.7746
  328MOL0     C44157   7.567  10.505   2.919  0.0714  0.2636  0.3130
  328MOL0     C44158   7.719  10.544   2.916 -0.6194  0.3880 -0.6934
  328MOL0     C44159   7.799  10.492   3.038 -0.4323  0.0753 -0.0788
  328MOL0     C44160   7.947  10.531   3.024  0.3006  1.0115 -0.9719
  328MOL0     C44161   8.026  10.443   3.114  0.5863  1.1527 -0.3775
  328MOL0     N44162   8.168  10.479   3.123  0.0583  0.7040  0.1559
  328MOL0     C44163   8.267  10.398   3.176 -0.0792  0.0546 -1.1155
  328MOL0     C44164   8.386  10.467   3.159 -0.5777  0.8897  0.7094
  328MOL0     C44165   8.527  10.436   3.190 -1.0858 -0.7848  0.0673
  328MOL0     C44166   8.537  10.417   3.338  0.6657 -0.0678 -1.0412
  328MOL0     C44167   8.664  10.348   3.389 -0.4117  0.3465  0.5913
  328MOL0     C44168   8.801  10.402   3.341 -0.1549  0.0809  0.3189
  328MOL0     O44169   8.815  10.547   3.358  0.0611 -0.0338 -0.1397
  328MOL0     C44170   8.937  10.589   3.322 -0.8517 -0.2414 -0.0251
  328MOL0     C44171   9.031  10.638   3.427  0.6569  0.3622  0.2421
  328MOL0     C44172   9.155  10.693   3.396  0.6474 -0.3300  0.6113
  328MOL0     C44173   9.182  10.721   3.260 -0.1772 -0.5788  0.3205
  328MOL0     C44174   9.297  10.803   3.212 -0.0440 -0.0995 -0.3604
  328MOL0     O44175   9.323  10.799   3.079  0.2429 -0.0087 -0.4472
  328MOL0     C44176   9.429  10.868   3.022  0.1104  0.5342  0.2099
  328MOL0     C44177   9.403  10.929   2.903 -0.3273 -0.4631 -0.7092
  328MOL0     C44178   9.502  11.001   2.839 -0.3701  0.8835  0.9060
  328MOL0     C44179   9.625  11.018   2.893  0.4670 -0.7572 -0.2138
  328MOL0     O44180   9.724  11.098   2.844  0.1525 -0.3054 -0.2294
  328MOL0     C44181   9.723  11.119   2.702 -0.3687 -0.1520 -0.1180
  328MOL0     C44182   9.860  11.173   2.670 -0.1008 -0.1339  0.4475
  328MOL0     C44183   9.864  11.321   2.715 -0.0037  0.4851 -0.6672
  328MOL0     C44184  10.001  11.384   2.669  0.0442  0.1228  0.3073
  328MOL0     C44185  10.013  11.524   2.722 -0.0882 -0.1951  0.1713
  328MOL0     C44186   9.932  11.619   2.639  0.1805  0.1742  0.2057
  328MOL0     C44187  10.017  11.650   2.516  0.6548  0.6517 -0.0406
  328MOL0     C44188   9.934  11.732   2.417  0.6976 -0.1495  0.8868
  328MOL0    Cl44189   9.839  11.631   2.311  0.1197  0.1969  0.0433
  328MOL0     C44190   9.649  10.963   3.020 -1.0252  0.6645  0.0411
  328MOL0     C44191   9.554  10.886   3.087  0.5202 -0.5178 -0.3946
  328MOL0     O44192   9.347  10.880   3.291  0.6984  0.2226  0.3282
  328MOL0     C44193   9.087  10.682   3.165  0.8115 -0.1267 -0.1193
  328MOL0     C44194   8.970  10.609   3.192  0.3528 -0.1657 -0.0944
  328MOL0     N44195   8.361  10.590   3.112  1.1348  0.3022 -0.5264
  328MOL0     N44196   8.233  10.599   3.092 -0.1398 -0.0862  0.5153
  328MOL0     C44197   7.048  10.401   2.567  0.0730  0.1864 -0.0630
  328MOL0     C44198   6.921  10.467   2.546 -0.6813  0.2252 -0.7774
  328MOL0     C44199   6.567  10.684   2.467 -0.1869 -0.4543  0.8191
  328MOL0     C44200   6.546  10.770   2.579  0.2156 -0.7815 -0.1584
  328MOL0     C44201   6.424  10.835   2.602  0.2091 -0.3978 -0.2782
  328MOL0     C44202   6.319  10.820   2.512  0.0823 -0.4826  0.4913
  328MOL0     O44203   6.211  10.892   2.535  0.0014  0.1852  0.0545
  328MOL0     C44204   6.117  10.915   2.431  0.2777 -0.0819 -0.3849
  328MOL0     C44205   6.010  11.032   2.455  0.8639  0.7521  0.4325
  328MOL0     C44206   5.942  11.020   2.591 -0.4055  0.2446  1.2611
  328MOL0     C44207   5.865  10.881   2.606 -0.6917 -0.3731  0.3937
  328MOL0     C44208   5.739  10.890   2.687  0.1845 -0.0929 -0.6195
  328MOL0     C44209   5.645  10.899   2.762 -0.2540 -0.0321  0.2934
  328MOL0     C44210   6.337  10.731   2.406 -0.3759  0.2058  0.1582
  328MOL0     C44211   6.458  10.661   2.387  0.6037 -0.5426  0.7268
  328MOL0     C44212   6.447  10.554   2.276 -0.1959 -0.5340  0.0447
  328MOL0     H44213   7.035  10.783   2.553  0.3517  0.9300  2.8363
  328MOL0     H44214   7.255  10.665   2.584  0.3744 -0.8730  1.5711
  328MOL0     H44215   7.461  10.376   2.498  0.9680  0.3326  1.6540
  328MOL0     H44216   7.411  10.545   2.544 -0.9135  0.8491  0.5928
  328MOL0     H44217   7.627  10.435   2.639 -1.2683 -1.8580 -4.9305
  328MOL0     H44218   7.526  10.331   2.736  2.2790 -0.4096 -1.0662
  328MOL0     H44219   7.387  10.517   2.804  0.1333 -4.1663  1.1147
  328MOL0     H44220   7.519  10.639   2.757 -0.0528  0.2024  2.3837
  328MOL0     H44221   7.523  10.561   3.002  0.2915 -0.9679  1.2860
  328MOL0     H44222   7.556  10.399   2.943 -0.6640  0.6253  1.6938
  328MOL0     H44223   7.766  10.500   2.827 -1.6330 -1.5230 -0.3159
  328MOL0     H44224   7.723  10.654   2.908 -1.7228  0.5847  1.0509
  328MOL0     H44225   7.759  10.534   3.131 -0.7687 -0.3058 -0.0490
  328MOL0     H44226   7.793  10.384   3.050  2.5491  0.1192  3.5809
  328MOL0     H44227   7.948  10.638   3.047 -1.7708  0.8223  0.3179
  328MOL0     H44228   7.995  10.525   2.926 -0.5526  2.2783 -1.5001
  328MOL0     H44229   7.992  10.431   3.218  2.7177 -1.0362  0.1641
  328MOL0     H44230   8.021  10.343   3.069  0.3662  1.0374 -0.1040
  328MOL0     H44231   8.261  10.301   3.224  0.3691  1.1169  1.2877
  328MOL0     H44232   8.551  10.341   3.141  1.3781 -0.7571  1.0735
  328MOL0     H44233   8.603  10.509   3.162 -1.6612  0.7060  2.1391
  328MOL0     H44234   8.515  10.507   3.396  0.0548 -0.4279 -0.6916
  328MOL0     H44235   8.460  10.348   3.375  2.8475 -2.9201 -1.4875
  328MOL0     H44236   8.660  10.242   3.360  3.2273  0.3807 -0.5100
  328MOL0     H44237   8.668  10.362   3.497  4.7709  0.0770  0.6901
  328MOL0     H44238   8.817  10.383   3.235  0.2302  2.1124 -0.0276
  328MOL0     H44239   8.872  10.351   3.406 -0.4470 -0.5085  0.1807
  328MOL0     H44240   8.995  10.616   3.527 -3.4557 -2.7424 -1.5974
  328MOL0     H44241   9.223  10.707   3.480 -1.3618  1.7629  1.9966
  328MOL0     H44242   9.306  10.919   2.856 -1.2812 -0.7396  1.2055
  328MOL0     H44243   9.474  11.045   2.744 -4.3322  0.6908  1.8351
  328MOL0     H44244   9.716  11.026   2.645 -0.6253 -0.4622  0.4114
  328MOL0     H44245   9.639  11.186   2.680 -0.4249  0.0544  0.6821
  328MOL0     H44246   9.937  11.129   2.733 -0.8122  0.0348  1.4686
  328MOL0     H44247   9.865  11.159   2.562 -2.0025  1.3873  0.0929
  328MOL0     H44248   9.784  11.380   2.669 -1.2018 -1.0661 -0.6355
  328MOL0     H44249   9.866  11.325   2.824 -0.1855 -3.6130 -0.3693
  328MOL0     H44250  10.007  11.383   2.559  0.3330  1.6404  0.2840
  328MOL0     H44251  10.078  11.328   2.723 -0.6743  1.0216  2.3366
  328MOL0     H44252  10.117  11.550   2.746 -0.8108  2.0496  1.1372
  328MOL0     H44253   9.973  11.527   2.823  1.6221 -1.5957  0.9602
  328MOL0     H44254   9.834  11.579   2.612 -2.1018  4.8207  0.6065
  328MOL0     H44255   9.911  11.710   2.695 -1.7204 -0.3065  0.3345
  328MOL0     H44256  10.064  11.561   2.475  1.1005 -0.7248  3.2257
  328MOL0     H44257  10.108  11.708   2.531  1.7195 -0.9700 -0.0471
  328MOL0     H44258   9.864  11.792   2.475  2.3446 -0.6559  3.6054
  328MOL0     H44259   9.995  11.797   2.354  2.7378 -4.0702 -1.6071
  328MOL0     H44260   9.743  10.985   3.071  0.7275 -2.0293 -1.7691
  328MOL0     H44261   9.567  10.841   3.185 -0.0179  1.3085  0.5446
  328MOL0     H44262   9.115  10.689   3.061  3.7803 -0.7091  0.5408
  328MOL0     H44263   8.899  10.581   3.114 -0.8025 -2.6526  1.7166
  328MOL0     H44264   7.041  10.297   2.595 -0.6869 -0.0498 -1.0716
  328MOL0     H44265   6.823  10.421   2.559 -0.7204 -0.8086 -3.9156
  328MOL0     H44266   6.620  10.788   2.657 -2.4990 -2.4303  3.0379
  328MOL0     H44267   6.406  10.896   2.690  1.5599  0.1683 -0.3672
  328MOL0     H44268   6.071  10.823   2.395  0.6254 -1.0786  1.6187
  328MOL0     H44269   6.164  10.954   2.340 -0.0265 -1.2464 -1.0656
  328MOL0     H44270   5.933  11.017   2.378  0.0041  1.4178  1.1329
  328MOL0     H44271   6.061  11.129   2.450  2.8815 -0.2337  1.1118
  328MOL0     H44272   5.862  11.095   2.593  0.1511  0.8397  2.8453
  328MOL0     H44273   6.008  11.037   2.677  2.0226 -4.0806  0.5046
  328MOL0     H44274   5.841  10.849   2.505  4.2217 -1.7000 -0.5962
  328MOL0     H44275   5.940  10.817   2.654 -1.9475 -0.6646  2.0652
  328MOL0     H44276   5.547  10.912   2.803 -1.1410  0.6770 -1.8726
  328MOL0     H44277   6.252  10.716   2.340  2.0627 -0.8059 -3.0590
  328MOL0     H44278   6.528  10.559   2.202 -2.6066  1.3552 -2.7020
  328MOL0     H44279   6.453  10.455   2.322  2.7331  0.5151  2.2713
  328MOL0     H44280   6.355  10.560   2.218  1.1017  0.6571 -2.0203
  329MOL0     O44281   2.683   7.909   9.243  0.2390  0.3057  0.0568
  329MOL0     C44282   2.736   7.837   9.328  0.0803  0.0080 -0.2849
  329MOL0     O44283   2.669   7.737   9.395 -0.2224  0.1953  0.0551
  329MOL0     C44284   2.544   7.702   9.341 -0.4939 -0.8758 -0.1357
  329MOL0     C44285   2.441   7.683   9.428  0.5880 -1.4594  0.2154
  329MOL0     C44286   2.306   7.675   9.379  0.1238  0.4874 -0.4873
  329MOL0     C44287   2.282   7.664   9.238  0.1576  0.0419 -0.6005
  329MOL0     O44288   2.157   7.660   9.191  0.2335 -0.3274 -0.0810
  329MOL0     C44289   2.047   7.582   9.247  0.1759 -0.9584  0.5493
  329MOL0     C44290   1.924   7.666   9.205  0.9118  2.0149 -0.3387
  329MOL0     C44291   1.803   7.627   9.284  0.4456  0.1554 -0.5992
  329MOL0     C44292   1.674   7.697   9.259  0.3630  0.5354 -0.4931
  329MOL0     C44293   1.569   7.625   9.350 -0.4482 -0.5680 -0.4324
  329MOL0     C44294   1.432   7.667   9.311 -0.0458  0.1076  0.3054
  329MOL0     C44295   1.322   7.584   9.381  0.2564  0.6355  0.0638
  329MOL0     C44296   1.265   7.498   9.281  0.6809  0.3417 -0.0427
  329MOL0     N44297   1.157   7.412   9.334  0.1281 -0.5035 -0.1691
  329MOL0     C44298   1.057   7.458   9.415  0.3081  1.3273  0.0209
  329MOL0     C44299   0.962   7.362   9.409 -0.7855  0.2544  0.6064
  329MOL0     C44300   0.828   7.363   9.481 -0.0759  0.3406 -0.2852
  329MOL0     C44301   0.833   7.315   9.632  0.0277 -0.2642 -0.2651
  329MOL0     C44302   0.950   7.229   9.666  0.0050  0.9052  0.2805
  329MOL0     C44303   0.928   7.170   9.809 -0.2194 -0.4112  0.2437
  329MOL0     O44304   0.979   7.263   9.911  0.0782 -0.0031 -0.2208
  329MOL0     C44305   1.115   7.274   9.941  0.6193 -0.6230 -0.1011
  329MOL0     C44306   1.153   7.359  10.043 -0.5780  0.0719  0.4547
  329MOL0     C44307   1.286   7.377  10.078 -0.5893 -0.0101  0.1059
  329MOL0     C44308   1.391   7.315   9.998  0.0826 -0.3390  0.7323
  329MOL0     C44309   1.534   7.341  10.035 -0.1620 -0.6291  0.5629
  329MOL0     O44310   1.624   7.274   9.957  0.2036 -0.0178  0.1502
  329MOL0     C44311   1.752   7.297   9.993  0.7375  1.0370  0.3856
  329MOL0     C44312   1.823   7.239  10.101  0.2475 -0.7439 -0.2925
  329MOL0     C44313   1.963   7.272  10.118 -0.1969 -0.7397 -0.3559
  329MOL0     C44314   2.032   7.356  10.028  0.4354  0.6037  0.1140
  329MOL0     O44315   2.157   7.391  10.064 -0.3852 -0.0361 -0.1658
  329MOL0     C44316   2.187   7.537  10.047 -0.4516 -1.0437  0.0515
  329MOL0     C44317   2.291   7.581  10.158 -0.2656  0.1257 -0.3551
  329MOL0     C44318   2.331   7.726  10.120 -1.0262  0.5863 -0.2156
  329MOL0     C44319   2.427   7.787  10.215 -0.1664 -0.5965 -0.8360
  329MOL0     C44320   2.497   7.906  10.143  0.4588 -0.2166  0.0984
  329MOL0     C44321   2.588   7.992  10.237 -0.4339  0.3039 -0.7312
  329MOL0     C44322   2.722   7.923  10.257  0.1279  0.4423  0.4527
  329MOL0     C44323   2.823   8.032  10.298 -1.0239 -0.7262  0.0915
  329MOL0    Cl44324   2.982   7.965  10.320 -0.1908  0.3115  0.3040
  329MOL0     C44325   1.958   7.402   9.918  0.4550 -0.5502 -0.3555
  329MOL0     C44326   1.818   7.381   9.909 -0.3959 -0.1100 -0.3540
  329MOL0     O44327   1.560   7.427  10.116 -0.2692 -0.4962 -0.2323
  329MOL0     C44328   1.348   7.233   9.894 -0.2950  0.6136  0.1234
  329MOL0     C44329   1.214   7.211   9.872  0.6183  0.5349 -0.2121
  329MOL0     N44330   1.007   7.267   9.321  0.3543 -1.1642  0.4185
  329MOL0     N44331   1.126   7.287   9.285  0.1448  0.1251 -0.2530
  329MOL0     C44332   2.399   7.647   9.154 -0.9690 -0.0843  0.3767
  329MOL0     C44333   2.520   7.685   9.201 -0.1403  0.1838 -0.6504
  329MOL0     C44334   2.880   7.848   9.346 -0.9942 -0.3195 -0.2921
  329MOL0     C44335   2.964   7.903   9.243 -0.3762 -0.0401 -0.6609
  329MOL0     C44336   3.106   7.906   9.257  0.0257 -0.2474 -0.5712
  329MOL0     C44337   3.163   7.851   9.371 -1.4225  0.0220 -0.7743
  329MOL0     O44338   3.304   7.845   9.384 -0.0735 -0.6281 -0.1444
  329MOL0     C44339   3.366   7.834   9.511 -0.4831  1.0194 -0.8003
  329MOL0     C44340   3.512   7.893   9.513  1.1646 -0.6078 -0.6903
  329MOL0     C44341   3.614   7.836   9.415 -0.4132 -0.7247  0.1411
  329MOL0     C44342   3.754   7.859   9.460  0.0646 -0.3472 -0.5126
  329MOL0     C44343   3.791   7.746   9.539  0.0386  0.7897 -0.6919
  329MOL0     C44344   3.827   7.661   9.624 -0.0684  0.1438  0.4763
  329MOL0     C44345   3.087   7.792   9.471  0.3571  0.3847 -0.1654
  329MOL0     C44346   2.945   7.786   9.459  0.3635  0.2450 -0.1986
  329MOL0     C44347   2.875   7.726   9.581 -0.2791 -0.1411  0.1454
  329MOL0     H44348   2.465   7.695   9.533  0.7455  1.8108 -0.0914
  329MOL0     H44349   2.219   7.697   9.440  0.6616  3.0420 -0.4951
  329MOL0     H44350   2.037   7.485   9.198  0.1563 -0.8059  0.2508
  329MOL0     H44351   2.052   7.571   9.356  2.7758  1.9242  0.8724
  329MOL0     H44352   1.902   7.660   9.098  3.1580  0.2605 -0.7910
  329MOL0     H44353   1.951   7.771   9.222 -1.8848  2.3552  3.0348
  329MOL0     H44354   1.821   7.650   9.390 -0.5748  2.3321 -0.8316
  329MOL0     H44355   1.789   7.519   9.280  0.2613  0.1423  0.1499
  329MOL0     H44356   1.691   7.800   9.291 -0.3626  0.2786  0.7976
  329MOL0     H44357   1.638   7.685   9.157 -2.1390 -3.1553  0.6274
  329MOL0     H44358   1.584   7.517   9.343  4.0184 -0.3443  1.9070
  329MOL0     H44359   1.578   7.656   9.454  1.9034  1.8496 -1.2360
  329MOL0     H44360   1.416   7.772   9.339 -1.9928  0.7057 -2.6549
  329MOL0     H44361   1.423   7.679   9.203 -1.5492  1.2606  0.5233
  329MOL0     H44362   1.247   7.649   9.428 -0.3705  0.9956 -1.3665
  329MOL0     H44363   1.353   7.513   9.458 -1.0330  2.6033  2.5646
  329MOL0     H44364   1.223   7.559   9.200  0.8251  0.3008 -0.1495
  329MOL0     H44365   1.350   7.447   9.235  2.3989 -0.7079  3.8788
  329MOL0     H44366   1.037   7.546   9.475 -0.6910 -0.1899  2.0608
  329MOL0     H44367   0.797   7.467   9.470 -1.2166  0.0635  0.1942
  329MOL0     H44368   0.750   7.309   9.425 -0.1392 -1.3890  1.3702
  329MOL0     H44369   0.847   7.402   9.697 -1.9631  0.9771 -1.3988
  329MOL0     H44370   0.736   7.268   9.651 -0.9381  1.6912 -0.0584
  329MOL0     H44371   1.045   7.282   9.655  0.0270  0.5705 -1.4693
  329MOL0     H44372   0.954   7.149   9.592  3.4061  2.1015 -1.0168
  329MOL0     H44373   0.979   7.075   9.831  3.0131  1.3414  0.9067
  329MOL0     H44374   0.823   7.155   9.837  0.3385  1.6438  4.1581
  329MOL0     H44375   1.077   7.412  10.100 -0.0797 -1.9092  3.1751
  329MOL0     H44376   1.315   7.451  10.151 -1.0918  1.9284 -1.5524
  329MOL0     H44377   1.770   7.174  10.169 -0.1307 -1.8415 -1.5979
  329MOL0     H44378   2.012   7.240  10.209  2.2717  2.0535 -0.5334
  329MOL0     H44379   2.228   7.562   9.948  0.1993 -2.0733  0.0400
  329MOL0     H44380   2.092   7.589  10.058  0.4196  0.1890  2.3907
  329MOL0     H44381   2.248   7.563  10.257  0.4088  2.1232  0.3467
  329MOL0     H44382   2.383   7.522  10.154  0.1906  0.7607  0.4789
  329MOL0     H44383   2.364   7.725  10.016 -1.9727 -1.2923 -0.5470
  329MOL0     H44384   2.247   7.796  10.114 -1.4964  0.0061 -0.5352
  329MOL0     H44385   2.508   7.718  10.240  1.3074  1.4672  0.3316
  329MOL0     H44386   2.377   7.818  10.307 -2.2303  0.0917 -2.0940
  329MOL0     H44387   2.424   7.984  10.121  0.2544 -0.0193  1.3761
  329MOL0     H44388   2.548   7.883  10.049  1.0176 -1.2767  0.6405
  329MOL0     H44389   2.599   8.093  10.197 -0.6899 -0.2444 -2.2588
  329MOL0     H44390   2.540   8.004  10.334 -1.6113  1.2876 -1.4010
  329MOL0     H44391   2.752   7.880  10.161 -2.6566  2.0864 -1.2929
  329MOL0     H44392   2.709   7.846  10.333 -2.7266  1.1482  0.7891
  329MOL0     H44393   2.819   8.115  10.226 -3.9396 -1.7165 -1.0565
  329MOL0     H44394   2.787   8.074  10.392  0.0358 -1.8673  1.0401
  329MOL0     H44395   1.998   7.475   9.848 -0.6454  0.9448  0.4990
  329MOL0     H44396   1.768   7.431   9.827 -0.2806 -3.3473 -2.5642
  329MOL0     H44397   1.417   7.179   9.829 -0.1036 -0.1008  0.8990
  329MOL0     H44398   1.184   7.153   9.785 -2.4756 -0.5227  1.3911
  329MOL0     H44399   2.389   7.616   9.050 -0.8829  0.9400  0.0548
  329MOL0     H44400   2.607   7.683   9.137  0.7991  1.4603  0.5226
  329MOL0     H44401   2.915   7.932   9.151  0.7092 -2.3531 -2.0576
  329MOL0     H44402   3.160   7.939   9.168 -1.2046  0.0594 -1.2411
  329MOL0     H44403   3.377   7.728   9.532  3.3067  1.8104  2.3173
  329MOL0     H44404   3.316   7.883   9.595  0.9527  3.7059 -1.3710
  329MOL0     H44405   3.546   7.871   9.615  0.1639 -2.4189 -0.6990
  329MOL0     H44406   3.512   8.002   9.510  1.3055 -0.6156 -0.9846
  329MOL0     H44407   3.599   7.886   9.319  0.9991 -2.4546 -1.0351
  329MOL0     H44408   3.604   7.728   9.406  2.2123 -1.4075  3.3334
  329MOL0     H44409   3.820   7.872   9.375 -0.6849  5.0778 -0.5782
  329MOL0     H44410   3.760   7.957   9.508 -3.0053 -0.3314  0.0569
  329MOL0     H44411   3.853   7.584   9.694  2.1226  1.4977  1.2478
  329MOL0     H44412   3.131   7.747   9.559 -0.9079  2.6109  1.7223
  329MOL0     H44413   2.808   7.799   9.626  1.9915  1.5996  0.9081
  329MOL0     H44414   2.815   7.639   9.553  0.7534 -0.2205 -2.0620
  329MOL0     H44415   2.955   7.689   9.647  2.4748 -0.9653 -3.3421
  330MOL0     O44416   2.921   1.086   5.637  0.4439  0.2330  0.5344
  330MOL0     C44417   2.853   1.192   5.628 -0.0849  0.6665 -0.2694
  330MOL0     O44418   2.895   1.310   5.578 -0.1535  0.1858 -0.1912
  330MOL0     C44419   3.030   1.324   5.541  0.7229  1.0475 -0.5554
  330MOL0     C44420   3.093   1.237   5.452 -0.0268  0.6262  0.3082
  330MOL0     C44421   3.231   1.252   5.430  0.3490 -0.1147  0.7929
  330MOL0     C44422   3.309   1.341   5.500  1.1283 -0.6884  0.9650
  330MOL0     O44423   3.439   1.366   5.470  0.3442 -0.0901 -0.0681
  330MOL0     C44424   3.515   1.263   5.408 -0.5848  0.5727 -0.2351
  330MOL0     C44425   3.661   1.287   5.455 -0.6374  0.4053  0.2254
  330MOL0     C44426   3.770   1.198   5.392 -0.4246  0.0065  0.1044
  330MOL0     C44427   3.749   1.176   5.237  0.6030 -0.1938 -0.2692
  330MOL0     C44428   3.868   1.137   5.151 -0.2786 -0.2561 -0.9027
  330MOL0     C44429   3.970   1.049   5.225  0.8065  0.1859 -0.4886
  330MOL0     C44430   4.070   0.979   5.130  0.8616 -0.3492 -0.0131
  330MOL0     C44431   4.174   0.898   5.212  0.2463  0.2559 -0.3627
  330MOL0     N44432   4.129   0.774   5.278  0.3967 -0.0790  0.1461
  330MOL0     C44433   4.161   0.645   5.248  0.0151 -0.1738 -0.2443
  330MOL0     C44434   4.085   0.568   5.329  0.1785  0.6029 -0.0791
  330MOL0     C44435   4.063   0.422   5.325  0.2285  0.6079  1.0336
  330MOL0     C44436   4.129   0.344   5.442  0.2304 -1.4589 -0.1483
  330MOL0     C44437   4.103   0.192   5.441  0.0214  0.1227  0.1220
  330MOL0     C44438   4.151   0.136   5.302 -0.0476 -0.1362 -0.5219
  330MOL0     O44439   4.290   0.159   5.279 -0.4668 -0.0272 -0.2234
  330MOL0     C44440   4.343   0.074   5.185 -0.2493 -0.7288  0.5575
  330MOL0     C44441   4.479   0.037   5.212  0.0058  1.0096 -0.1094
  330MOL0     C44442   4.534  -0.075   5.149 -0.0612  1.0859  0.0106
  330MOL0     C44443   4.473  -0.133   5.039  0.1199 -0.0628 -0.6308
  330MOL0     C44444   4.542  -0.245   4.979 -0.1823  1.0169 -0.3533
  330MOL0     O44445   4.671  -0.278   5.023 -0.2262 -0.2658 -0.7189
  330MOL0     C44446   4.731  -0.385   4.970  0.1849  0.7328 -0.4646
  330MOL0     C44447   4.744  -0.419   4.837 -0.0677 -0.5524  0.6656
  330MOL0     C44448   4.823  -0.527   4.796 -0.3832  0.4847  0.7843
  330MOL0     C44449   4.889  -0.603   4.894  0.9424 -0.6696 -0.3533
  330MOL0     O44450   4.961  -0.717   4.863  0.8495  0.1898 -0.1225
  330MOL0     C44451   4.987  -0.748   4.728  0.1185 -1.0819  0.1990
  330MOL0     C44452   5.091  -0.865   4.743  0.1834  0.0212 -0.0139
  330MOL0     C44453   5.225  -0.819   4.807 -0.4295  0.8867 -0.7088
  330MOL0     C44454   5.242  -0.861   4.953  0.6011  0.5793 -0.3017
  330MOL0     C44455   5.360  -0.779   5.008 -0.7787 -0.4496  0.2779
  330MOL0     C44456   5.502  -0.816   4.950 -0.7754 -0.4569 -0.5037
  330MOL0     C44457   5.543  -0.961   4.953  0.3318  0.2959 -0.2792
  330MOL0     C44458   5.702  -0.983   4.926  1.0388  0.4227  0.3495
  330MOL0    Cl44459   5.803  -0.913   5.046 -0.1706 -0.3298  0.1902
  330MOL0     C44460   4.885  -0.564   5.029  0.5425  0.4859 -1.5014
  330MOL0     C44461   4.812  -0.457   5.064  0.2739  0.2269  0.4981
  330MOL0     O44462   4.476  -0.306   4.894  0.4532 -0.1664 -1.1586
  330MOL0     C44463   4.347  -0.091   5.003  0.5279 -0.1302  0.4708
  330MOL0     C44464   4.281   0.008   5.078  0.6754 -0.8303  0.4894
  330MOL0     N44465   4.021   0.648   5.421 -0.5840  0.2247  0.2236
  330MOL0     N44466   4.053   0.777   5.390  0.0395 -0.3652 -0.4093
  330MOL0     C44467   3.242   1.433   5.589 -0.5944  0.8424 -1.1500
  330MOL0     C44468   3.111   1.416   5.612 -0.1071 -0.5195 -0.8454
  330MOL0     C44469   2.721   1.196   5.682  1.2009  0.3510  0.2302
  330MOL0     C44470   2.640   1.085   5.659  0.5594 -0.9825  0.5863
  330MOL0     C44471   2.504   1.072   5.700  0.4822  0.9760  0.5509
  330MOL0     C44472   2.442   1.180   5.768 -0.1159  0.2167 -0.4919
  330MOL0     O44473   2.314   1.188   5.824  0.4470 -0.2874 -0.3361
  330MOL0     C44474   2.222   1.076   5.812  0.3505  0.5736 -0.1348
  330MOL0     C44475   2.075   1.119   5.834 -0.0625  0.5362 -0.6166
  330MOL0     C44476   1.978   1.000   5.814 -0.4364  0.3473 -0.5116
  330MOL0     C44477   1.953   0.960   5.663  0.5852  0.8359 -0.5357
  330MOL0     C44478   1.880   0.832   5.671 -0.3912  1.1342 -0.3373
  330MOL0     C44479   1.802   0.735   5.686 -0.8044  0.1963  0.6522
  330MOL0     C44480   2.524   1.296   5.785 -0.2966  0.1166 -0.5863
  330MOL0     C44481   2.657   1.312   5.737 -0.0033 -0.9291  0.4116
  330MOL0     C44482   2.723   1.442   5.769 -0.3517 -0.0286 -0.4089
  330MOL0     H44483   3.022   1.167   5.409 -2.8715  1.7389  2.8970
  330MOL0     H44484   3.270   1.194   5.347  0.3374  0.8835  0.0853
  330MOL0     H44485   3.484   1.162   5.437  0.0121  0.9689  1.9685
  330MOL0     H44486   3.503   1.264   5.300  0.6974  0.5701 -0.3889
  330MOL0     H44487   3.661   1.270   5.563 -0.8283  0.0143  0.1654
  330MOL0     H44488   3.675   1.395   5.443 -0.1048  0.2479 -0.6597
  330MOL0     H44489   3.764   1.095   5.427  0.7975 -0.1342 -0.0703
  330MOL0     H44490   3.871   1.233   5.416 -0.0605 -1.8084  1.4500
  330MOL0     H44491   3.678   1.094   5.222  1.4087 -1.2609  1.3981
  330MOL0     H44492   3.683   1.258   5.205 -1.4253 -1.8936 -0.6713
  330MOL0     H44493   3.841   1.091   5.056  0.5407  0.4989 -1.5219
  330MOL0     H44494   3.915   1.231   5.121 -2.0324  1.2387  0.7805
  330MOL0     H44495   4.009   1.122   5.297 -0.1998  1.6822 -1.4142
  330MOL0     H44496   3.909   0.976   5.278 -2.1318  1.6993 -1.5538
  330MOL0     H44497   4.109   1.054   5.062 -0.6574 -2.5736 -3.6348
  330MOL0     H44498   4.007   0.912   5.071 -2.9387  1.1526  1.9676
  330MOL0     H44499   4.235   0.857   5.132 -2.3886  1.0211 -2.9271
  330MOL0     H44500   4.228   0.962   5.282  3.7718 -0.9828 -1.7123
  330MOL0     H44501   4.236   0.622   5.173  0.0902  0.8150 -0.4808
  330MOL0     H44502   3.956   0.407   5.340  0.7729 -0.2753  5.2455
  330MOL0     H44503   4.092   0.389   5.225 -2.0718 -1.3211  0.9213
  330MOL0     H44504   4.237   0.362   5.434  0.1315 -0.3924  0.6534
  330MOL0     H44505   4.102   0.385   5.539 -0.7017  0.4250 -1.1336
  330MOL0     H44506   3.999   0.158   5.444 -0.2313  0.8492 -0.1861
  330MOL0     H44507   4.151   0.139   5.524 -1.8549  0.6089  1.5855
  330MOL0     H44508   4.089   0.181   5.224  0.6164  0.6083 -0.6352
  330MOL0     H44509   4.120   0.031   5.296 -1.1051  0.2330 -2.5994
  330MOL0     H44510   4.522   0.088   5.298  0.3077  0.2946  0.1723
  330MOL0     H44511   4.635  -0.105   5.176  1.0796  0.1003 -4.4166
  330MOL0     H44512   4.694  -0.366   4.756  0.3964 -1.5328 -0.2954
  330MOL0     H44513   4.828  -0.553   4.691  0.7660  0.3218  0.8646
  330MOL0     H44514   4.899  -0.789   4.678 -1.2487  1.7842  0.1107
  330MOL0     H44515   5.024  -0.665   4.667  2.0359 -1.4671  0.7714
  330MOL0     H44516   5.047  -0.954   4.788 -0.2195  0.5538  0.6602
  330MOL0     H44517   5.116  -0.898   4.642  1.3715  0.8013  0.0034
  330MOL0     H44518   5.306  -0.859   4.746 -1.9278 -0.0102 -2.2056
  330MOL0     H44519   5.223  -0.710   4.797  0.7374  0.8915 -0.9905
  330MOL0     H44520   5.258  -0.969   4.954  0.0425  0.4782  1.6237
  330MOL0     H44521   5.154  -0.840   5.014  0.3497  0.6877 -0.6981
  330MOL0     H44522   5.366  -0.795   5.116  2.0526 -0.9560  0.1286
  330MOL0     H44523   5.343  -0.671   4.998  0.5811 -0.3247 -1.0356
  330MOL0     H44524   5.516  -0.783   4.847  0.3775  2.2976  0.4288
  330MOL0     H44525   5.574  -0.759   5.010 -2.7492 -0.6705  2.2791
  330MOL0     H44526   5.480  -1.023   4.889 -0.3620 -1.1529  1.7050
  330MOL0     H44527   5.514  -1.008   5.048 -0.7657  0.8053 -0.3532
  330MOL0     H44528   5.731  -1.089   4.926  1.9620  0.6366 -1.6924
  330MOL0     H44529   5.716  -0.942   4.826  0.3127 -0.5138 -0.1506
  330MOL0     H44530   4.936  -0.622   5.105 -2.2151 -0.1513  0.0122
  330MOL0     H44531   4.802  -0.428   5.168  1.9778  2.0139  0.2122
  330MOL0     H44532   4.307  -0.127   4.909 -0.6697 -0.7219  1.1784
  330MOL0     H44533   4.187   0.055   5.051  1.3625  2.2168  2.8521
  330MOL0     H44534   3.304   1.503   5.644 -1.1365  0.5646 -0.1746
  330MOL0     H44535   3.073   1.478   5.693 -0.2508 -1.3413 -0.2609
  330MOL0     H44536   2.680   0.995   5.612 -0.7174 -1.1256 -0.2688
  330MOL0     H44537   2.446   0.983   5.678  0.1362  0.9508  1.5265
  330MOL0     H44538   2.258   0.995   5.876 -1.7612 -0.5323 -0.2663
  330MOL0     H44539   2.225   1.030   5.713  0.2993 -0.1197  0.1839
  330MOL0     H44540   2.048   1.209   5.777  0.9682  3.1666  2.7020
  330MOL0     H44541   2.071   1.156   5.936  1.2188  0.6853 -0.6069
  330MOL0     H44542   1.882   1.027   5.858  0.3417 -1.2294  2.4515
  330MOL0     H44543   2.021   0.914   5.867 -1.4285  1.6652  2.6998
  330MOL0     H44544   1.889   1.033   5.612  2.7447  3.1931 -0.1045
  330MOL0     H44545   2.039   0.937   5.600  1.5446 -2.8228  1.8158
  330MOL0     H44546   1.733   0.654   5.699 -1.1243  0.2702 -0.4268
  330MOL0     H44547   2.474   1.376   5.839  1.5654  0.8677  0.0820
  330MOL0     H44548   2.653   1.500   5.830  0.7626 -0.3969  1.2594
  330MOL0     H44549   2.812   1.423   5.830  0.6120  0.1261 -1.7174
  330MOL0     H44550   2.739   1.489   5.671  1.0888  4.2226  1.6263
  331MOL0     O44551   6.079   4.037   9.230 -0.6733 -0.6128 -0.2791
  331MOL0     C44552   5.972   4.092   9.240 -0.1667  0.0185 -0.4555
  331MOL0     O44553   5.953   4.220   9.282 -0.5353 -0.5299  0.0152
  331MOL0     C44554   6.069   4.292   9.311  0.3935  0.7001 -0.5261
  331MOL0     C44555   6.106   4.391   9.219  0.8344 -0.7114 -0.4739
  331MOL0     C44556   6.217   4.473   9.242 -0.3672  0.2445  0.6620
  331MOL0     C44557   6.293   4.463   9.357  0.0325  0.3403 -0.5292
  331MOL0     O44558   6.409   4.523   9.382 -0.4184  0.3570 -0.7465
  331MOL0     C44559   6.457   4.624   9.293 -0.6134 -1.1062  0.5924
  331MOL0     C44560   6.596   4.675   9.321 -0.2443 -0.4626  0.4381
  331MOL0     C44561   6.625   4.827   9.280 -0.2570 -0.4708 -0.7865
  331MOL0     C44562   6.607   4.843   9.130 -0.7388  0.0707 -0.4870
  331MOL0     C44563   6.699   4.945   9.068 -0.3770  0.1657  0.2584
  331MOL0     C44564   6.706   5.080   9.142 -0.6218  0.4405 -0.3060
  331MOL0     C44565   6.821   5.161   9.082 -0.2230 -0.3257  0.3040
  331MOL0     C44566   6.892   5.248   9.183  0.2842  0.6833 -0.2813
  331MOL0     N44567   7.006   5.321   9.120  0.7428 -0.0108 -0.1262
  331MOL0     C44568   7.001   5.460   9.086  0.0409 -0.3318  0.2972
  331MOL0     C44569   7.122   5.481   9.027 -0.7961 -0.3942  0.1541
  331MOL0     C44570   7.164   5.618   8.989  0.5523  0.5169  0.0088
  331MOL0     C44571   7.210   5.636   8.842 -0.3235 -0.3196 -0.1136
  331MOL0     C44572   7.091   5.645   8.751  0.2783 -0.6066  0.2562
  331MOL0     C44573   7.118   5.632   8.602  0.2696 -0.0156  0.3722
  331MOL0     O44574   7.200   5.739   8.568 -0.3053  0.3216 -0.3240
  331MOL0     C44575   7.333   5.725   8.533  0.2340  0.4516 -0.2864
  331MOL0     C44576   7.386   5.849   8.511 -0.3831 -0.1657 -1.2383
  331MOL0     C44577   7.518   5.862   8.470 -0.1247 -0.3960 -0.6380
  331MOL0     C44578   7.597   5.742   8.454 -0.6776  0.0140  0.1209
  331MOL0     C44579   7.741   5.754   8.405  0.1130  0.2869  0.6739
  331MOL0     O44580   7.786   5.651   8.329 -0.0586  0.4741 -0.2093
  331MOL0     C44581   7.895   5.685   8.256  0.5244  0.2863  0.1697
  331MOL0     C44582   8.022   5.716   8.305  0.4481  0.3839 -0.1446
  331MOL0     C44583   8.120   5.736   8.205  0.6869 -0.0982 -0.3976
  331MOL0     C44584   8.096   5.735   8.068 -0.0963 -0.1903 -0.4680
  331MOL0     O44585   8.184   5.767   7.967 -0.0478  0.9519 -0.8021
  331MOL0     C44586   8.302   5.836   8.003 -0.1255 -0.3509  0.2374
  331MOL0     C44587   8.382   5.838   7.867 -0.4317  0.0954 -1.0380
  331MOL0     C44588   8.412   5.702   7.811  0.2211  0.8338  0.0700
  331MOL0     C44589   8.459   5.725   7.664  0.6482 -0.3922 -0.3143
  331MOL0     C44590   8.531   5.601   7.608 -0.0196  0.4690  0.2138
  331MOL0     C44591   8.583   5.641   7.467  0.1162 -0.1191 -0.1602
  331MOL0     C44592   8.479   5.598   7.363  0.4105  0.4646  1.8153
  331MOL0     C44593   8.549   5.569   7.232  0.8416  0.4627  1.2199
  331MOL0    Cl44594   8.668   5.693   7.184  0.2896  0.5666 -0.2685
  331MOL0     C44595   7.973   5.703   8.033  0.4003  0.0965  1.0948
  331MOL0     C44596   7.866   5.676   8.118 -0.3509  0.6522 -0.1903
  331MOL0     O44597   7.800   5.865   8.414  0.4241 -0.3930 -0.1098
  331MOL0     C44598   7.534   5.612   8.465 -0.9882 -0.7120 -0.9481
  331MOL0     C44599   7.407   5.603   8.511 -0.2095  0.3879 -0.3896
  331MOL0     N44600   7.190   5.353   9.026  0.1494 -0.3013 -0.2674
  331MOL0     N44601   7.121   5.264   9.080 -0.4419  0.3743  0.1398
  331MOL0     C44602   6.253   4.368   9.452 -1.5380 -0.1434  0.0817
  331MOL0     C44603   6.148   4.277   9.426 -0.5498 -0.2828  0.4696
  331MOL0     C44604   5.850   4.022   9.207  0.5781 -0.4140 -0.6445
  331MOL0     C44605   5.721   4.072   9.242 -0.5371  0.1066 -0.1464
  331MOL0     C44606   5.607   4.010   9.212  0.7446 -0.8316 -0.6586
  331MOL0     C44607   5.604   3.907   9.127  0.6711  0.0447  0.0878
  331MOL0     O44608   5.493   3.848   9.089  0.1014 -0.2617  0.0645
  331MOL0     C44609   5.363   3.901   9.124 -0.3314 -0.0363 -0.0748
  331MOL0     C44610   5.241   3.817   9.071 -0.3563 -0.3812  0.0916
  331MOL0     C44611   5.224   3.680   9.134  0.1470 -0.1030 -0.2132
  331MOL0     C44612   5.318   3.578   9.077 -0.5491 -0.2553 -0.8295
  331MOL0     C44613   5.252   3.449   9.070  0.5545  0.2647  0.6499
  331MOL0     C44614   5.214   3.337   9.058 -0.2163  0.6940 -0.4253
  331MOL0     C44615   5.720   3.845   9.085 -0.4298 -0.1484 -1.4035
  331MOL0     C44616   5.842   3.891   9.143 -0.3618 -0.3110  0.1938
  331MOL0     C44617   5.965   3.814   9.099  0.6370  0.3486 -0.0517
  331MOL0     H44618   6.042   4.404   9.133  0.0644  2.2459  0.4234
  331MOL0     H44619   6.242   4.550   9.170 -2.4338 -1.1528 -1.7419
  331MOL0     H44620   6.468   4.586   9.191  0.8515 -1.0445  0.7032
  331MOL0     H44621   6.402   4.719   9.292  2.8201  1.0599  1.3665
  331MOL0     H44622   6.669   4.604   9.280 -1.8586 -2.7050  1.2410
  331MOL0     H44623   6.617   4.657   9.427  0.3278 -1.2234  0.2019
  331MOL0     H44624   6.728   4.852   9.306 -1.1220 -0.1155  2.7466
  331MOL0     H44625   6.564   4.902   9.331  2.4817  0.9115  0.7217
  331MOL0     H44626   6.616   4.749   9.074 -0.5337 -2.5873  3.5859
  331MOL0     H44627   6.508   4.889   9.123  0.3839  3.5687  3.2631
  331MOL0     H44628   6.800   4.909   9.050 -1.0253 -0.3118 -3.1503
  331MOL0     H44629   6.652   4.960   8.971 -0.5566  1.8495  0.5802
  331MOL0     H44630   6.610   5.132   9.141 -1.0372 -0.3015 -0.1196
  331MOL0     H44631   6.740   5.071   9.246 -0.3978  2.7441 -0.1366
  331MOL0     H44632   6.771   5.210   8.997 -2.1841 -4.4874 -1.1974
  331MOL0     H44633   6.901   5.097   9.042 -0.9310 -0.9564 -0.1231
  331MOL0     H44634   6.823   5.320   9.228 -0.9910 -1.7597  1.9571
  331MOL0     H44635   6.938   5.180   9.254  0.5497  1.3115  0.1551
  331MOL0     H44636   6.919   5.528   9.104 -1.1247 -1.5383 -0.3353
  331MOL0     H44637   7.077   5.683   9.001 -2.0656 -3.1001  2.4591
  331MOL0     H44638   7.243   5.658   9.054  1.2390  0.0734 -0.5279
  331MOL0     H44639   7.266   5.729   8.839  2.1707 -1.7581 -0.3722
  331MOL0     H44640   7.282   5.562   8.807 -0.6420  0.1645 -1.8541
  331MOL0     H44641   7.035   5.738   8.762  1.0746  0.2029 -1.9742
  331MOL0     H44642   7.025   5.562   8.780 -0.3701  0.7136  2.9041
  331MOL0     H44643   7.034   5.627   8.532  1.0446  0.2315 -0.5990
  331MOL0     H44644   7.166   5.535   8.586  0.8959  0.5402 -1.2246
  331MOL0     H44645   7.321   5.936   8.518 -3.1509 -2.0794 -1.6511
  331MOL0     H44646   7.552   5.962   8.448 -0.8356  0.6019  2.3215
  331MOL0     H44647   8.032   5.727   8.413 -2.0413 -0.1239  0.2084
  331MOL0     H44648   8.217   5.770   8.241 -0.7280  2.9294  0.9151
  331MOL0     H44649   8.274   5.933   8.043  3.8757  1.5750 -1.0503
  331MOL0     H44650   8.364   5.785   8.078  1.1038 -1.2014 -1.2852
  331MOL0     H44651   8.315   5.888   7.797  0.3337 -0.0636 -1.8922
  331MOL0     H44652   8.474   5.897   7.872 -0.5791  0.3393 -1.2080
  331MOL0     H44653   8.493   5.648   7.861 -0.0390 -1.3415 -1.6812
  331MOL0     H44654   8.326   5.634   7.805  0.0918  0.5483  3.5427
  331MOL0     H44655   8.525   5.812   7.660  1.0440 -0.7313 -1.2905
  331MOL0     H44656   8.373   5.728   7.597  1.1922  0.8518 -0.9874
  331MOL0     H44657   8.466   5.513   7.607  0.1830  0.2111 -3.4245
  331MOL0     H44658   8.615   5.577   7.674  0.3170 -3.4439 -1.3321
  331MOL0     H44659   8.601   5.749   7.460  0.4788 -0.1537  0.1674
  331MOL0     H44660   8.675   5.583   7.453 -1.1149 -1.8199 -1.8145
  331MOL0     H44661   8.410   5.682   7.349  0.3308 -0.0935 -2.0503
  331MOL0     H44662   8.428   5.507   7.393  0.7277 -0.0673  0.7805
  331MOL0     H44663   8.603   5.474   7.237  2.2960  1.0928 -0.9844
  331MOL0     H44664   8.477   5.571   7.150  3.5363  0.8391 -1.3099
  331MOL0     H44665   7.959   5.704   7.925 -2.3224  1.4264  1.3444
  331MOL0     H44666   7.768   5.644   8.083  0.2908 -2.0425  0.3003
  331MOL0     H44667   7.576   5.513   8.453 -1.0163 -1.2514  2.5792
  331MOL0     H44668   7.360   5.508   8.533 -2.2891  0.9992 -1.9470
  331MOL0     H44669   6.315   4.359   9.541  1.2340 -1.2235 -1.8154
  331MOL0     H44670   6.140   4.193   9.495 -0.3483  0.2515  1.1598
  331MOL0     H44671   5.713   4.169   9.288 -0.1415 -1.1555  2.8134
  331MOL0     H44672   5.512   4.053   9.243 -0.0582 -4.8087  3.4540
  331MOL0     H44673   5.358   3.996   9.070  1.5868  0.0416 -0.1627
  331MOL0     H44674   5.339   3.921   9.229  0.1831 -0.3458  0.1042
  331MOL0     H44675   5.259   3.796   8.966  1.9165  1.3902  0.0462
  331MOL0     H44676   5.151   3.879   9.068  0.6203  1.1479  0.5645
  331MOL0     H44677   5.122   3.642   9.127  0.5127 -0.7336 -3.3878
  331MOL0     H44678   5.246   3.705   9.238  0.2214  1.8313 -0.6501
  331MOL0     H44679   5.377   3.603   8.989  1.8700 -1.4706  0.3555
  331MOL0     H44680   5.395   3.556   9.151  0.2282 -0.6901 -1.7492
  331MOL0     H44681   5.172   3.239   9.062 -0.3835  0.7066 -1.4705
  331MOL0     H44682   5.725   3.758   9.020 -0.0424 -1.4989  0.3335
  331MOL0     H44683   5.937   3.730   9.034 -0.7038  1.2826 -0.7447
  331MOL0     H44684   6.025   3.880   9.036 -1.6093  1.1040 -1.5428
  331MOL0     H44685   6.038   3.778   9.172  1.5545  0.7843 -0.7384
  332MOL0     O44686   3.233   5.431   5.845  0.0594  0.2908 -0.3401
  332MOL0     C44687   3.312   5.518   5.809 -0.3835 -0.3252  0.0370
  332MOL0     O44688   3.277   5.643   5.765 -0.2606  0.2104  0.8261
  332MOL0     C44689   3.147   5.674   5.758 -0.5872 -0.4602  0.3553
  332MOL0     C44690   3.065   5.638   5.645  0.9034 -0.3125 -0.1625
  332MOL0     C44691   2.923   5.654   5.654 -0.0737 -0.0743  0.0890
  332MOL0     C44692   2.867   5.723   5.758  0.3240  0.2216 -0.7394
  332MOL0     O44693   2.731   5.742   5.765  0.4095  1.0240  0.3581
  332MOL0     C44694   2.668   5.660   5.872 -0.1278  0.6623  0.4330
  332MOL0     C44695   2.516   5.664   5.851  0.1172 -0.0036 -0.0006
  332MOL0     C44696   2.450   5.808   5.855 -0.2170  0.3883 -0.3032
  332MOL0     C44697   2.296   5.797   5.875 -0.2124  0.3330 -0.7629
  332MOL0     C44698   2.230   5.930   5.926  0.1418 -0.3033 -0.4842
  332MOL0     C44699   2.243   6.058   5.850  0.2515  0.2717  0.0435
  332MOL0     C44700   2.153   6.055   5.727 -0.4922 -0.1814 -0.4731
  332MOL0     C44701   2.127   6.190   5.667 -1.0902 -0.1395  1.1397
  332MOL0     N44702   2.253   6.257   5.636  0.1821  0.1201 -0.1941
  332MOL0     C44703   2.297   6.373   5.690 -0.0218 -0.5734 -0.3028
  332MOL0     C44704   2.390   6.427   5.610 -0.4901  0.0512  0.5022
  332MOL0     C44705   2.474   6.556   5.624 -1.2620 -0.6637 -0.5919
  332MOL0     C44706   2.628   6.526   5.617  0.5621 -0.0732 -0.6106
  332MOL0     C44707   2.697   6.660   5.620  0.8924 -0.2678  0.3741
  332MOL0     C44708   2.842   6.668   5.575 -0.3401 -0.0056 -0.8890
  332MOL0     O44709   2.893   6.803   5.587 -0.2468 -0.0842 -0.4975
  332MOL0     C44710   3.024   6.828   5.562  0.3888  0.7533 -0.6815
  332MOL0     C44711   3.055   6.963   5.574 -0.1063 -0.7908  0.0023
  332MOL0     C44712   3.195   7.013   5.541  0.2568 -0.2235 -0.3100
  332MOL0     C44713   3.295   6.913   5.527  0.5644 -0.4721 -0.2257
  332MOL0     C44714   3.438   6.952   5.526 -1.1421  0.0546 -0.0061
  332MOL0     O44715   3.526   6.864   5.468 -0.2163  0.4672 -0.0323
  332MOL0     C44716   3.656   6.866   5.512  0.1488  0.6762  0.0840
  332MOL0     C44717   3.750   6.945   5.440 -0.2786  0.6260 -0.4645
  332MOL0     C44718   3.886   6.936   5.484  0.3794 -0.1391 -0.5738
  332MOL0     C44719   3.922   6.861   5.595  0.1815 -0.0474  0.0149
  332MOL0     O44720   4.050   6.858   5.641 -0.1319 -0.4130  0.1400
  332MOL0     C44721   4.089   6.789   5.762 -0.6737  0.0506  0.2379
  332MOL0     C44722   4.222   6.842   5.807 -0.4024 -0.1545 -0.3192
  332MOL0     C44723   4.338   6.800   5.713  0.9733  0.1879 -0.3471
  332MOL0     C44724   4.365   6.649   5.696 -0.3087 -0.0907 -0.4534
  332MOL0     C44725   4.511   6.639   5.642  0.1228  0.1596 -0.3881
  332MOL0     C44726   4.563   6.495   5.615  0.0500 -0.5121 -0.9243
  332MOL0     C44727   4.550   6.411   5.744 -0.0332 -0.4546  0.4079
  332MOL0     C44728   4.623   6.469   5.869 -0.0870 -0.5333  0.3603
  332MOL0    Cl44729   4.789   6.497   5.814  0.4513  0.0126  0.0697
  332MOL0     C44730   3.829   6.777   5.657 -0.2936  0.2197 -0.6231
  332MOL0     C44731   3.698   6.778   5.615 -0.6382  0.6676  0.1168
  332MOL0     O44732   3.470   7.061   5.574  0.4039 -0.6611 -0.1328
  332MOL0     C44733   3.253   6.776   5.515 -0.2526 -0.1550 -0.4489
  332MOL0     C44734   3.124   6.731   5.537 -0.5852  0.8196  0.7116
  332MOL0     N44735   2.395   6.345   5.491 -0.3020  0.3114  0.0690
  332MOL0     N44736   2.315   6.247   5.518 -0.5540  0.1932  0.3569
  332MOL0     C44737   2.949   5.754   5.869 -0.0473 -0.7144  0.2059
  332MOL0     C44738   3.087   5.728   5.867  1.0313  0.1765  0.7696
  332MOL0     C44739   3.450   5.503   5.856  0.2811  0.7100  0.1247
  332MOL0     C44740   3.476   5.402   5.951  0.1742  0.8119  0.0877
  332MOL0     C44741   3.602   5.387   6.009  0.3399 -0.5352  0.2908
  332MOL0     C44742   3.701   5.480   5.988 -0.1401 -0.0389 -0.1502
  332MOL0     O44743   3.810   5.461   6.064 -0.1541  0.6104  0.5166
  332MOL0     C44744   3.920   5.560   6.065 -0.0905  0.5728 -0.0204
  332MOL0     C44745   4.045   5.487   6.118 -0.2232  0.1424  0.2368
  332MOL0     C44746   4.178   5.569   6.077  0.5499 -0.2796 -0.5218
  332MOL0     C44747   4.300   5.489   6.115 -0.3091  0.3250 -0.1018
  332MOL0     C44748   4.399   5.589   6.161 -0.2525  0.1444 -0.0889
  332MOL0     C44749   4.500   5.654   6.202  0.0895 -0.3343 -0.4262
  332MOL0     C44750   3.686   5.576   5.887  0.7849  0.4371  0.5864
  332MOL0     C44751   3.554   5.591   5.826  0.6467 -0.6423  0.7041
  332MOL0     C44752   3.534   5.706   5.721 -1.1053  0.1435  0.4923
  332MOL0     H44753   3.110   5.584   5.561 -0.5626 -2.6140  0.4352
  332MOL0     H44754   2.869   5.619   5.567  1.4549 -0.9478 -0.5409
  332MOL0     H44755   2.702   5.557   5.858  2.0802  0.9568  2.8088
  332MOL0     H44756   2.697   5.699   5.970  0.5231 -0.1830  0.5914
  332MOL0     H44757   2.462   5.589   5.910  0.9021 -2.0521 -1.7446
  332MOL0     H44758   2.499   5.619   5.753 -2.6865 -0.6754  0.6918
  332MOL0     H44759   2.468   5.854   5.757 -0.6216  0.5505 -0.3018
  332MOL0     H44760   2.501   5.877   5.923 -2.5635  2.0422 -0.1109
  332MOL0     H44761   2.243   5.760   5.786 -0.0464 -2.1357  0.0932
  332MOL0     H44762   2.275   5.726   5.955  0.9240 -0.0878 -0.8280
  332MOL0     H44763   2.123   5.905   5.931  0.0205  0.3498  0.4762
  332MOL0     H44764   2.270   5.934   6.027  1.0322 -1.7082 -0.7524
  332MOL0     H44765   2.220   6.142   5.917  0.5934  0.9997 -0.7383
  332MOL0     H44766   2.343   6.079   5.809 -0.0582  1.2061 -0.2554
  332MOL0     H44767   2.057   6.003   5.739  0.0025 -1.5621 -2.0929
  332MOL0     H44768   2.205   6.000   5.648 -0.0799  0.7923 -0.9010
  332MOL0     H44769   2.071   6.174   5.575  1.6031  2.2212 -1.0948
  332MOL0     H44770   2.082   6.259   5.739  1.1852  3.1092 -0.3153
  332MOL0     H44771   2.255   6.422   5.777  2.1786 -1.3324  1.2608
  332MOL0     H44772   2.445   6.632   5.550 -0.0407  3.0317  2.3867
  332MOL0     H44773   2.451   6.607   5.718  2.1505  2.6148 -1.2944
  332MOL0     H44774   2.657   6.458   5.697 -0.5967 -0.2638 -0.3327
  332MOL0     H44775   2.643   6.472   5.523 -0.9433  0.4999 -1.2096
  332MOL0     H44776   2.698   6.710   5.717 -0.5085  4.1041 -1.6024
  332MOL0     H44777   2.638   6.724   5.554  0.5383  2.7045  3.3061
  332MOL0     H44778   2.864   6.631   5.475  0.7262  1.7839 -1.3674
  332MOL0     H44779   2.903   6.604   5.639 -4.8145 -0.9528  3.0522
  332MOL0     H44780   2.986   7.042   5.603 -1.0884 -0.2572 -3.2533
  332MOL0     H44781   3.210   7.120   5.547 -3.2048  0.7093 -3.9124
  332MOL0     H44782   3.717   6.997   5.350 -0.4154 -1.0825 -1.4434
  332MOL0     H44783   3.965   6.993   5.435  1.0860 -0.2360  0.4331
  332MOL0     H44784   4.020   6.810   5.845  1.2102 -3.4225  2.9864
  332MOL0     H44785   4.108   6.682   5.750  3.2936  0.5241  0.8146
  332MOL0     H44786   4.215   6.951   5.814  2.4808  0.1631 -1.1807
  332MOL0     H44787   4.247   6.806   5.907 -1.9365  1.4246  0.6947
  332MOL0     H44788   4.318   6.839   5.612  1.9790 -0.0811 -0.6593
  332MOL0     H44789   4.425   6.847   5.759 -0.3348  1.5034  0.9097
  332MOL0     H44790   4.294   6.605   5.625 -2.0278  2.5380 -0.5078
  332MOL0     H44791   4.360   6.610   5.798  0.1401 -0.5757 -0.6142
  332MOL0     H44792   4.585   6.683   5.709  3.5584 -1.8283 -2.5664
  332MOL0     H44793   4.521   6.684   5.543  1.9074 -0.0074 -0.3077
  332MOL0     H44794   4.498   6.453   5.537  0.8859  1.0986 -2.5747
  332MOL0     H44795   4.665   6.491   5.574  0.7787  1.1437  0.6163
  332MOL0     H44796   4.577   6.310   5.712 -2.1986 -0.6383 -1.0656
  332MOL0     H44797   4.444   6.404   5.772 -0.4329 -1.0513 -1.1552
  332MOL0     H44798   4.577   6.559   5.912  2.4540  1.0428 -0.0180
  332MOL0     H44799   4.610   6.392   5.945 -0.1319 -0.8017  0.0851
  332MOL0     H44800   3.867   6.710   5.733  2.5536 -0.4105 -2.4285
  332MOL0     H44801   3.635   6.710   5.671 -2.8827  0.1270 -2.8191
  332MOL0     H44802   3.337   6.708   5.502 -0.3917 -0.5776  0.7636
  332MOL0     H44803   3.113   6.623   5.531 -0.4366  0.9108 -2.3280
  332MOL0     H44804   2.911   5.804   5.957  1.3618 -0.9779  0.9828
  332MOL0     H44805   3.133   5.755   5.962 -0.7972 -0.7615  1.9750
  332MOL0     H44806   3.400   5.329   5.974  0.3201 -0.9882 -4.0968
  332MOL0     H44807   3.623   5.315   6.088  2.1562 -0.5813 -0.1836
  332MOL0     H44808   3.904   5.643   6.134 -3.0911  0.1661 -0.1046
  332MOL0     H44809   3.934   5.602   5.965 -2.6380  2.1751  0.2150
  332MOL0     H44810   4.051   5.387   6.074  0.7296 -1.1423  3.0136
  332MOL0     H44811   4.032   5.467   6.225 -2.6873  1.3616  0.2371
  332MOL0     H44812   4.172   5.668   6.122 -1.9890 -0.3671 -0.5597
  332MOL0     H44813   4.178   5.586   5.969 -2.9765  3.4771 -0.1761
  332MOL0     H44814   4.279   5.412   6.189 -0.3717  1.4962  1.1506
  332MOL0     H44815   4.337   5.432   6.030 -0.2150 -1.9861  1.4063
  332MOL0     H44816   4.584   5.714   6.229 -1.8083  1.4928  1.8176
  332MOL0     H44817   3.754   5.654   5.857  0.4021  0.4915 -0.1802
  332MOL0     H44818   3.629   5.749   5.691 -0.8146 -0.1567  0.9694
  332MOL0     H44819   3.488   5.664   5.630  0.3416  0.2397 -0.3035
  332MOL0     H44820   3.479   5.786   5.771 -0.7617  0.2143  0.7591
  333MOL0     O44821   3.175   3.986  10.231  0.4270 -0.2218  0.4092
  333MOL0     C44822   3.083   3.988  10.310 -0.2298  0.7228  0.3091
  333MOL0     O44823   3.067   4.082  10.420  0.1948 -0.6168  0.0060
  333MOL0     C44824   3.163   4.168  10.462  1.5015  0.1720 -0.3230
  333MOL0     C44825   3.167   4.182  10.608  0.5660  0.0402  0.3923
  333MOL0     C44826   3.268   4.266  10.660 -0.0707  0.2645  0.4809
  333MOL0     C44827   3.344   4.350  10.572  0.0260  0.3063  0.0612
  333MOL0     O44828   3.430   4.447  10.609  0.3010 -0.5822 -0.5601
  333MOL0     C44829   3.450   4.472  10.748  0.0666 -0.8344  0.4620
  333MOL0     C44830   3.558   4.586  10.749  0.9223  0.6294  0.4686
  333MOL0     C44831   3.692   4.521  10.738  0.3404  0.3818 -0.3406
  333MOL0     C44832   3.795   4.630  10.750 -0.3664  0.9717  0.2965
  333MOL0     C44833   3.928   4.559  10.788  0.4215 -0.0424  0.7742
  333MOL0     C44834   4.039   4.655  10.824 -0.0044 -0.8577 -0.0451
  333MOL0     C44835   4.166   4.580  10.874 -0.6899  0.1177 -0.3168
  333MOL0     C44836   4.269   4.671  10.929  0.6477  0.4909 -0.3001
  333MOL0     N44837   4.396   4.611  10.983  0.8224 -0.7282  0.1653
  333MOL0     C44838   4.493   4.682  11.052 -0.0961  0.7096  0.3566
  333MOL0     C44839   4.583   4.591  11.085  0.1845 -0.5762 -1.0238
  333MOL0     C44840   4.720   4.628  11.144 -0.0386 -0.5865  0.2284
  333MOL0     C44841   4.823   4.623  11.032 -0.2252 -0.4989  0.7942
  333MOL0     C44842   4.885   4.489  11.005  0.5159  0.2536 -0.9614
  333MOL0     C44843   4.983   4.488  10.889  0.2599  0.3225  0.6614
  333MOL0     O44844   5.089   4.581  10.918 -0.0202 -0.8250 -0.3801
  333MOL0     C44845   5.193   4.594  10.827  0.7156  0.1041 -0.3878
  333MOL0     C44846   5.322   4.564  10.864  0.4459  0.2310 -0.8789
  333MOL0     C44847   5.428   4.577  10.782 -0.3423  0.3581  0.5886
  333MOL0     C44848   5.416   4.616  10.647  0.5189  0.7631  0.5078
  333MOL0     C44849   5.534   4.635  10.557  0.4600 -0.3630 -1.0751
  333MOL0     O44850   5.649   4.604  10.620 -0.2857 -0.7201  0.5897
  333MOL0     C44851   5.770   4.632  10.567 -0.0823  0.1522 -0.0747
  333MOL0     C44852   5.802   4.595  10.430 -0.4097 -0.3606 -0.3293
  333MOL0     C44853   5.927   4.610  10.373 -0.2038 -0.4659 -0.1740
  333MOL0     C44854   6.032   4.664  10.454  0.7228 -0.2814 -0.5787
  333MOL0     O44855   6.161   4.676  10.404 -0.2272  0.2215  0.6735
  333MOL0     C44856   6.267   4.699  10.490 -0.9181 -0.3002 -0.6018
  333MOL0     C44857   6.413   4.700  10.431  0.5799  1.2973 -0.0869
  333MOL0     C44858   6.445   4.806  10.325  0.5674 -0.1283 -0.6047
  333MOL0     C44859   6.597   4.818  10.291 -0.2322 -0.3912  1.2682
  333MOL0     C44860   6.681   4.869  10.406  0.5537  0.6700  0.4001
  333MOL0     C44861   6.819   4.905  10.358 -0.4445  0.1694 -0.2138
  333MOL0     C44862   6.918   4.930  10.477  0.1979 -0.5505 -0.8897
  333MOL0     C44863   6.931   5.069  10.524  0.1199 -0.1344 -1.1649
  333MOL0    Cl44864   7.009   5.179  10.397 -0.3360 -0.3056  0.1168
  333MOL0     C44865   6.005   4.692  10.588 -0.5156 -0.2196  0.0547
  333MOL0     C44866   5.874   4.683  10.646  0.1976  0.8639  0.5024
  333MOL0     O44867   5.517   4.678  10.444 -0.0841  0.1380  0.3908
  333MOL0     C44868   5.282   4.653  10.605  0.8650  0.4133  0.0939
  333MOL0     C44869   5.170   4.643  10.699 -0.0597  0.2966 -0.9415
  333MOL0     N44870   4.543   4.465  11.049 -0.2700  0.3328 -0.3688
  333MOL0     N44871   4.429   4.477  10.983 -0.2765  1.1249  0.0276
  333MOL0     C44872   3.326   4.341  10.433  0.0952 -0.3426 -0.2213
  333MOL0     C44873   3.240   4.248  10.381 -0.0710 -0.2011  0.1523
  333MOL0     C44874   2.975   3.876  10.307  0.0323  1.1309  0.9827
  333MOL0     C44875   2.985   3.793  10.192  0.1755 -0.5510 -0.8747
  333MOL0     C44876   2.905   3.681  10.179  0.2882 -0.3558 -0.1423
  333MOL0     C44877   2.804   3.659  10.272  0.6202  0.5313 -0.6846
  333MOL0     O44878   2.720   3.547  10.266  0.2106 -0.4468  0.4264
  333MOL0     C44879   2.583   3.584  10.260 -0.3714  0.1193 -0.2660
  333MOL0     C44880   2.491   3.492  10.186 -0.7710 -0.1041 -0.0154
  333MOL0     C44881   2.506   3.344  10.205  0.0450 -0.3994  0.2787
  333MOL0     C44882   2.398   3.274  10.103  0.0328 -0.2924  1.0765
  333MOL0     C44883   2.269   3.256  10.163  0.6690 -1.1359  1.1668
  333MOL0     C44884   2.155   3.254  10.207 -1.0322 -0.0170  0.6723
  333MOL0     C44885   2.791   3.745  10.380 -0.4974 -0.5581  0.7483
  333MOL0     C44886   2.876   3.857  10.407 -0.4531 -0.4369  0.8677
  333MOL0     C44887   2.845   3.928  10.526 -0.0110  0.9808 -0.2216
  333MOL0     H44888   3.110   4.119  10.675  0.7150 -0.9623 -0.3989
  333MOL0     H44889   3.269   4.276  10.768  2.8868 -2.3494  0.8232
  333MOL0     H44890   3.360   4.523  10.785 -0.5395 -0.3233 -1.5985
  333MOL0     H44891   3.472   4.393  10.821  0.2902  0.2834  1.6549
  333MOL0     H44892   3.554   4.637  10.846  0.8898 -2.1672  2.0828
  333MOL0     H44893   3.541   4.656  10.668  0.8918 -0.9024 -0.8976
  333MOL0     H44894   3.710   4.472  10.642  1.1346  3.5445 -1.9515
  333MOL0     H44895   3.704   4.443  10.814  0.1391  1.5898  0.9831
  333MOL0     H44896   3.809   4.683  10.656  1.0154 -0.2881 -0.2449
  333MOL0     H44897   3.765   4.706  10.823 -2.6483 -0.8421  1.3476
  333MOL0     H44898   3.901   4.496  10.873  1.7996  0.2481  1.4370
  333MOL0     H44899   3.965   4.493  10.709 -1.3142 -1.4362  1.0663
  333MOL0     H44900   4.070   4.722  10.743 -1.8608  0.1918  0.0356
  333MOL0     H44901   3.994   4.714  10.905  1.8558  1.5269 -0.6337
  333MOL0     H44902   4.216   4.523  10.794 -0.7790 -0.6261  0.1469
  333MOL0     H44903   4.134   4.506  10.949  3.0460 -0.9681  0.4105
  333MOL0     H44904   4.316   4.740  10.858  0.4690  0.7898 -0.1272
  333MOL0     H44905   4.218   4.733  11.003 -0.2679 -1.8474  1.1174
  333MOL0     H44906   4.507   4.789  11.067  0.9370  0.9034 -1.7287
  333MOL0     H44907   4.712   4.728  11.187 -1.2256  0.3264 -1.9373
  333MOL0     H44908   4.745   4.550  11.217  0.1175 -0.9951 -0.2526
  333MOL0     H44909   4.779   4.667  10.942  2.0302  4.6315  1.8568
  333MOL0     H44910   4.908   4.684  11.063  0.1736  0.5274 -2.0136
  333MOL0     H44911   4.809   4.413  10.987 -0.6986  0.9990  0.7073
  333MOL0     H44912   4.936   4.450  11.093 -1.1248  2.5494  1.1571
  333MOL0     H44913   4.934   4.523  10.799  0.9544  0.2543  0.2461
  333MOL0     H44914   5.025   4.387  10.884 -3.1423 -1.2850  1.3858
  333MOL0     H44915   5.345   4.520  10.961  1.2534 -0.5107 -1.3811
  333MOL0     H44916   5.527   4.549  10.819 -1.0637  0.2290  2.5209
  333MOL0     H44917   5.726   4.550  10.369 -1.7903 -0.5529  1.4529
  333MOL0     H44918   5.946   4.586  10.269 -0.1653  0.2710 -0.3441
  333MOL0     H44919   6.259   4.797  10.539 -1.5010 -0.4718 -0.3389
  333MOL0     H44920   6.265   4.622  10.568 -0.1777 -4.3573 -4.2117
  333MOL0     H44921   6.475   4.709  10.520 -2.4944  0.5879  2.3001
  333MOL0     H44922   6.446   4.604  10.392  2.5452  2.0546 -0.3875
  333MOL0     H44923   6.396   4.764  10.237 -0.4826  2.0349 -1.1246
  333MOL0     H44924   6.398   4.903  10.348  2.1477  1.0282 -1.9801
  333MOL0     H44925   6.601   4.879  10.201 -1.5245 -4.0446 -1.5254
  333MOL0     H44926   6.632   4.718  10.264 -1.3976 -0.7538  1.0183
  333MOL0     H44927   6.698   4.795  10.484  1.7081 -2.1493 -2.3290
  333MOL0     H44928   6.633   4.952  10.459  1.2964 -0.5595  3.2199
  333MOL0     H44929   6.852   4.831  10.284 -1.0182 -1.1807  0.8265
  333MOL0     H44930   6.801   4.995  10.300 -3.4329 -0.3212 -0.2128
  333MOL0     H44931   7.016   4.897  10.442  2.2663  1.7997  2.1067
  333MOL0     H44932   6.881   4.878  10.566 -3.0536  2.3360 -0.3288
  333MOL0     H44933   6.840   5.116  10.562 -1.0027 -2.1034 -1.2905
  333MOL0     H44934   6.995   5.063  10.613  1.2013 -2.0349 -2.0080
  333MOL0     H44935   6.089   4.733  10.645  0.3615  0.3201 -1.5647
  333MOL0     H44936   5.857   4.701  10.751  2.7221 -1.3196  1.3883
  333MOL0     H44937   5.257   4.691  10.507 -0.9320 -1.0033 -0.0541
  333MOL0     H44938   5.068   4.671  10.676 -0.3585  1.6185  1.6393
  333MOL0     H44939   3.376   4.408  10.364  0.0460 -1.2917 -1.2093
  333MOL0     H44940   3.224   4.248  10.274  0.0282 -1.6230  0.1186
  333MOL0     H44941   3.063   3.812  10.118  1.2149 -1.4345 -0.0458
  333MOL0     H44942   2.900   3.611  10.096  1.1338  0.6418 -1.0694
  333MOL0     H44943   2.565   3.685  10.223 -2.3046  0.5735  1.6748
  333MOL0     H44944   2.553   3.585  10.365  1.0695 -1.6605  0.2080
  333MOL0     H44945   2.509   3.504  10.078  0.1218 -1.6770 -0.0692
  333MOL0     H44946   2.385   3.507  10.211 -0.6998 -0.3947  0.4608
  333MOL0     H44947   2.482   3.315  10.308 -2.3198  1.7744  0.4512
  333MOL0     H44948   2.611   3.322  10.182  0.7596  0.5685  2.3653
  333MOL0     H44949   2.387   3.349  10.024 -1.5813  1.1043  2.5480
  333MOL0     H44950   2.434   3.180  10.059  0.6544 -0.0250  0.9950
  333MOL0     H44951   2.053   3.258  10.240 -0.9714 -0.4893  0.9347
  333MOL0     H44952   2.722   3.729  10.462  2.3133 -1.5893  3.0867
  333MOL0     H44953   2.754   3.904  10.582  1.3659 -0.1362  1.6565
  333MOL0     H44954   2.928   3.930  10.597 -0.4490  3.4400  0.3276
  333MOL0     H44955   2.829   4.032  10.495 -0.1430  1.7776  2.2738
  334MOL0     O44956   4.753   3.065   8.952  0.0806  0.5496 -0.0094
  334MOL0     C44957   4.745   3.183   8.986  0.3675  1.0891 -0.2907
  334MOL0     O44958   4.818   3.286   8.936 -0.0258  0.1910 -0.3046
  334MOL0     C44959   4.898   3.267   8.829 -0.2713 -0.4518  0.1137
  334MOL0     C44960   4.849   3.326   8.710  0.0504 -0.7875 -0.1543
  334MOL0     C44961   4.906   3.299   8.589  0.2182 -0.1413 -0.1593
  334MOL0     C44962   5.026   3.220   8.586  0.1569  0.6095  0.4840
  334MOL0     O44963   5.084   3.191   8.469 -0.5126  0.0407 -0.1064
  334MOL0     C44964   5.216   3.233   8.463  0.2076 -0.2491  0.4945
  334MOL0     C44965   5.289   3.183   8.327 -0.2596 -0.5577 -0.4337
  334MOL0     C44966   5.439   3.221   8.314  0.2059  0.3649 -0.1081
  334MOL0     C44967   5.462   3.326   8.200  0.9853  0.1898 -0.6853
  334MOL0     C44968   5.599   3.386   8.217 -0.1185  0.5226 -1.4715
  334MOL0     C44969   5.616   3.520   8.135  0.2959 -0.5729 -0.3324
  334MOL0     C44970   5.754   3.587   8.174  0.2678  0.2453  0.8134
  334MOL0     C44971   5.871   3.526   8.091  0.7589 -0.0128 -0.7590
  334MOL0     N44972   6.001   3.591   8.117 -0.3154 -0.5269  0.5552
  334MOL0     C44973   6.037   3.721   8.082 -0.2824  0.1670  0.1678
  334MOL0     C44974   6.176   3.723   8.103  0.7021  0.3223  0.7775
  334MOL0     C44975   6.250   3.852   8.085  0.1291  1.0903  0.1519
  334MOL0     C44976   6.340   3.838   7.960 -0.3996  0.2419 -0.4331
  334MOL0     C44977   6.415   3.971   7.934  0.2516  0.3127 -0.6048
  334MOL0     C44978   6.531   4.002   8.031 -0.7650  0.3344 -0.7450
  334MOL0     O44979   6.655   3.933   7.998  0.0004 -0.8498  0.3442
  334MOL0     C44980   6.765   3.969   8.068 -0.0289  0.8651  0.8280
  334MOL0     C44981   6.880   3.894   8.050  0.4293 -0.7382  0.4991
  334MOL0     C44982   7.001   3.934   8.103  0.8829 -0.0748 -0.5157
  334MOL0     C44983   7.007   4.059   8.164 -0.4677 -0.4559  0.7082
  334MOL0     C44984   7.141   4.106   8.219  0.5383  0.2898 -0.1524
  334MOL0     O44985   7.249   4.053   8.154 -1.0321 -0.6650  0.4215
  334MOL0     C44986   7.380   4.094   8.166 -0.2294  0.6269 -0.0779
  334MOL0     C44987   7.423   4.227   8.148  0.4384 -0.4629 -0.1466
  334MOL0     C44988   7.560   4.268   8.142  0.4722  0.3881  0.2348
  334MOL0     C44989   7.660   4.166   8.163 -0.5822 -0.8335 -0.3131
  334MOL0     O44990   7.793   4.194   8.175 -0.0996 -0.5007 -0.0117
  334MOL0     C44991   7.834   4.328   8.168  0.7130  0.1917 -0.3786
  334MOL0     C44992   7.990   4.352   8.173 -0.5424  0.4571  0.2075
  334MOL0     C44993   8.056   4.326   8.310  0.4617  0.0038 -1.0245
  334MOL0     C44994   8.208   4.367   8.322 -0.0397  0.0870 -0.3255
  334MOL0     C44995   8.202   4.509   8.382 -0.3273 -1.1811 -0.0105
  334MOL0     C44996   8.329   4.583   8.385  0.0621  0.0395  0.1400
  334MOL0     C44997   8.412   4.591   8.253  0.4603  0.1411 -0.7645
  334MOL0     C44998   8.349   4.669   8.134  0.5424  0.4630  0.8761
  334MOL0    Cl44999   8.264   4.812   8.192  0.0390  0.3085 -0.2366
  334MOL0     C45000   7.620   4.034   8.187  0.2923  0.0518 -0.3272
  334MOL0     C45001   7.484   3.996   8.179 -1.1540 -0.4049  0.4078
  334MOL0     O45002   7.145   4.191   8.305 -0.2663  0.1677  0.6427
  334MOL0     C45003   6.893   4.133   8.191 -0.6784 -0.7090 -0.0170
  334MOL0     C45004   6.769   4.085   8.148 -0.9789 -0.3259 -0.0195
  334MOL0     N45005   6.209   3.602   8.166  0.4546  0.1797  0.4601
  334MOL0     N45006   6.108   3.527   8.171  0.7039 -0.2372  0.9354
  334MOL0     C45007   5.071   3.167   8.698 -1.1623 -0.1492 -0.4957
  334MOL0     C45008   5.014   3.190   8.818  0.0205  0.0883 -0.0987
  334MOL0     C45009   4.649   3.222   9.091 -0.0372 -0.2190  0.6350
  334MOL0     C45010   4.636   3.355   9.147  0.0128  0.3411  0.5768
  334MOL0     C45011   4.557   3.379   9.262  0.4472  0.9272 -0.5145
  334MOL0     C45012   4.478   3.278   9.320  0.3643  0.2008 -0.1041
  334MOL0     O45013   4.405   3.312   9.432  0.1794 -0.2304  1.2052
  334MOL0     C45014   4.272   3.266   9.429  0.8324  0.4581 -0.1972
  334MOL0     C45015   4.191   3.348   9.537 -0.6433  0.1759  0.0358
  334MOL0     C45016   4.036   3.341   9.507  0.0450  1.1877  0.0554
  334MOL0     C45017   3.959   3.418   9.612  0.6417 -0.7282 -0.8444
  334MOL0     C45018   3.943   3.335   9.728  0.0530  0.2669 -0.6320
  334MOL0     C45019   3.929   3.261   9.824  0.3361 -0.0762  0.0433
  334MOL0     C45020   4.474   3.159   9.254 -0.1473 -0.2623 -0.0449
  334MOL0     C45021   4.554   3.125   9.145 -0.7353 -0.4648 -1.0088
  334MOL0     C45022   4.537   2.978   9.104 -0.0438 -0.3127 -0.1732
  334MOL0     H45023   4.760   3.388   8.715  1.9942  2.3780 -1.9879
  334MOL0     H45024   4.871   3.350   8.500 -0.8433  0.2572  0.4616
  334MOL0     H45025   5.220   3.342   8.463  1.7206 -0.2775  1.1735
  334MOL0     H45026   5.278   3.194   8.544 -0.6123 -2.9685 -0.0957
  334MOL0     H45027   5.237   3.237   8.248  2.6025  1.8256 -0.8865
  334MOL0     H45028   5.273   3.075   8.320  1.6145 -1.0064  1.2485
  334MOL0     H45029   5.498   3.131   8.293  1.1007  1.0373 -0.5250
  334MOL0     H45030   5.469   3.258   8.412 -1.0826  0.4796  0.2634
  334MOL0     H45031   5.453   3.281   8.101  1.6112  1.5543 -1.4031
  334MOL0     H45032   5.384   3.402   8.210 -0.3453 -1.0359 -1.5235
  334MOL0     H45033   5.609   3.413   8.322 -0.3524  2.0445 -1.8253
  334MOL0     H45034   5.671   3.310   8.183 -0.9991 -0.6820 -0.7014
  334MOL0     H45035   5.615   3.499   8.028 -1.9634 -0.7747 -0.3239
  334MOL0     H45036   5.528   3.582   8.154  0.5311  0.3534 -2.0913
  334MOL0     H45037   5.776   3.566   8.279 -0.9063  2.2564  1.5258
  334MOL0     H45038   5.748   3.694   8.154  0.4936  0.2697  0.8790
  334MOL0     H45039   5.894   3.422   8.116 -4.1181 -1.4848 -1.3394
  334MOL0     H45040   5.850   3.530   7.984 -0.7596  0.0533 -0.4857
  334MOL0     H45041   5.975   3.801   8.042 -1.1904 -1.6540 -2.3456
  334MOL0     H45042   6.177   3.932   8.077  0.0298  0.9879  0.0090
  334MOL0     H45043   6.309   3.885   8.171  1.1432  1.5792 -0.6962
  334MOL0     H45044   6.416   3.759   7.964  1.1643  1.7234  0.1972
  334MOL0     H45045   6.285   3.802   7.872  1.9084 -1.3345 -1.3245
  334MOL0     H45046   6.340   4.050   7.931  2.0351  2.0496 -2.4564
  334MOL0     H45047   6.453   3.960   7.832  0.1014  1.8927 -0.8487
  334MOL0     H45048   6.507   3.989   8.137  0.5218 -0.6300 -0.5426
  334MOL0     H45049   6.553   4.109   8.022  1.9624 -0.2867 -2.7187
  334MOL0     H45050   6.869   3.807   7.986  2.5805 -1.8474  1.5280
  334MOL0     H45051   7.079   3.866   8.071  1.1406  0.8226 -1.8874
  334MOL0     H45052   7.345   4.303   8.143  0.1710 -0.7991 -1.3687
  334MOL0     H45053   7.585   4.372   8.125  0.7225  0.1936 -0.6709
  334MOL0     H45054   7.801   4.366   8.071  2.3987 -2.1401 -1.9759
  334MOL0     H45055   7.785   4.385   8.247 -0.7613 -2.7637  1.0273
  334MOL0     H45056   8.030   4.280   8.101 -4.1423  1.3764 -2.9928
  334MOL0     H45057   8.017   4.452   8.141 -1.9414  1.2417  1.3492
  334MOL0     H45058   7.993   4.362   8.391  0.1122  4.1743 -2.8986
  334MOL0     H45059   8.040   4.219   8.327 -0.7924  0.3908  0.4176
  334MOL0     H45060   8.264   4.353   8.229 -1.3495  0.1583 -1.1511
  334MOL0     H45061   8.261   4.303   8.393  3.1708 -0.0231 -2.5879
  334MOL0     H45062   8.163   4.490   8.483  1.9429 -0.7456  1.0133
  334MOL0     H45063   8.128   4.569   8.329  0.8136 -1.0914 -1.5786
  334MOL0     H45064   8.313   4.684   8.425  0.0498 -0.5711  1.7568
  334MOL0     H45065   8.388   4.519   8.451 -2.3289 -0.3059  2.0902
  334MOL0     H45066   8.440   4.488   8.228 -0.7031 -0.2295 -0.6284
  334MOL0     H45067   8.505   4.640   8.279  1.2100 -1.4537 -0.3125
  334MOL0     H45068   8.427   4.702   8.065  0.7493  0.0277  0.8981
  334MOL0     H45069   8.273   4.606   8.089  1.4104  0.5265 -0.7533
  334MOL0     H45070   7.697   3.958   8.199 -0.9110 -1.4153 -1.4399
  334MOL0     H45071   7.451   3.894   8.195  0.1611 -0.4968  3.1544
  334MOL0     H45072   6.907   4.226   8.246 -1.6817 -1.3747  1.4410
  334MOL0     H45073   6.694   4.164   8.149 -0.4569  0.4825 -4.3410
  334MOL0     H45074   5.164   3.112   8.694 -2.1197 -1.9010  0.2633
  334MOL0     H45075   5.051   3.150   8.912  2.3156 -0.1024 -1.0138
  334MOL0     H45076   4.693   3.432   9.095  0.6056 -1.4932 -1.6293
  334MOL0     H45077   4.565   3.482   9.293  0.3343  0.5476  0.8777
  334MOL0     H45078   4.277   3.162   9.462 -1.6506 -0.4486 -2.3131
  334MOL0     H45079   4.233   3.278   9.327  2.2271 -0.4091 -0.8492
  334MOL0     H45080   4.225   3.452   9.534  2.8037 -0.8694 -1.6526
  334MOL0     H45081   4.209   3.312   9.638 -2.1936  3.9074  1.8469
  334MOL0     H45082   4.002   3.238   9.490  0.1120  1.3201 -0.9243
  334MOL0     H45083   4.014   3.402   9.419  0.9922  0.8321 -0.4402
  334MOL0     H45084   4.009   3.513   9.633  1.4835 -0.5794 -3.2076
  334MOL0     H45085   3.858   3.437   9.576  0.5121 -2.7986 -1.7259
  334MOL0     H45086   3.922   3.199   9.912  0.5431  1.3026  1.0636
  334MOL0     H45087   4.407   3.087   9.299 -0.3293 -1.4212 -2.0174
  334MOL0     H45088   4.542   2.968   8.995  3.7651 -0.4313 -0.1134
  334MOL0     H45089   4.626   2.926   9.141 -0.7914 -1.5900 -0.1167
  334MOL0     H45090   4.452   2.923   9.147  0.2671 -1.6858 -1.2327
  335MOL0     O45091  10.976   5.628   4.896  0.1432  0.3160  0.7729
  335MOL0     C45092  10.903   5.682   4.983 -0.3100 -0.8716 -0.2712
  335MOL0     O45093  10.957   5.755   5.094  0.4700  0.4755 -0.0525
  335MOL0     C45094  11.095   5.784   5.094  0.0215 -0.5220  0.0885
  335MOL0     C45095  11.152   5.910   5.100  0.4754  0.9916 -0.0145
  335MOL0     C45096  11.294   5.930   5.095 -0.1429 -0.9970  0.5076
  335MOL0     C45097  11.381   5.816   5.073 -0.9799  0.0126 -0.3812
  335MOL0     O45098  11.519   5.817   5.083  0.6801  0.6752  0.7291
  335MOL0     C45099  11.583   5.945   5.122 -0.6277 -1.1188 -0.2432
  335MOL0     C45100  11.735   5.925   5.142 -0.3925  0.7060 -1.0912
  335MOL0     C45101  11.789   6.076   5.137  0.7363  0.0816 -0.9871
  335MOL0     C45102  11.934   6.087   5.201 -0.1259 -0.3334  0.4318
  335MOL0     C45103  11.977   6.229   5.219  0.8375  0.5660  0.4753
  335MOL0     C45104  12.127   6.254   5.244 -1.0068  0.3946 -0.1434
  335MOL0     C45105  12.141   6.395   5.313 -0.7052  0.1050 -0.3050
  335MOL0     C45106  12.294   6.416   5.358 -0.3816  0.2556 -0.4455
  335MOL0     N45107  12.308   6.335   5.478 -0.0496 -0.5876  0.1392
  335MOL0     C45108  12.267   6.372   5.603 -0.3783 -0.7301 -1.8588
  335MOL0     C45109  12.324   6.281   5.685 -1.1544 -0.5394 -0.2287
  335MOL0     C45110  12.308   6.260   5.833 -0.1739  0.2761 -0.5424
  335MOL0     C45111  12.185   6.183   5.873  0.7958 -0.0823  0.8026
  335MOL0     C45112  12.045   6.254   5.870  0.1930  0.2640  0.7121
  335MOL0     C45113  11.930   6.157   5.849 -0.0139 -0.1105 -0.2079
  335MOL0     O45114  11.951   6.053   5.946 -0.1369  0.4539  0.4037
  335MOL0     C45115  11.898   5.933   5.904  0.3884 -0.0538 -0.5431
  335MOL0     C45116  11.795   5.909   5.813 -0.5850  0.3683  0.8650
  335MOL0     C45117  11.750   5.770   5.792 -0.4686 -1.1151  0.4356
  335MOL0     C45118  11.805   5.667   5.867 -0.0590 -0.1389  0.7978
  335MOL0     C45119  11.753   5.526   5.868  0.6510  0.2847 -0.9008
  335MOL0     O45120  11.649   5.508   5.783 -0.2343 -0.0585  0.0228
  335MOL0     C45121  11.577   5.390   5.770 -0.1669  0.7324 -0.4222
  335MOL0     C45122  11.511   5.371   5.647  0.1038 -0.4278 -0.2526
  335MOL0     C45123  11.422   5.266   5.627  0.8571  0.3465  1.0352
  335MOL0     C45124  11.392   5.174   5.726  0.6294  0.5584 -0.0248
  335MOL0     O45125  11.302   5.067   5.711 -0.8628  0.3871  0.5452
  335MOL0     C45126  11.275   5.032   5.580 -0.1609  0.2752  0.4038
  335MOL0     C45127  11.228   4.881   5.576 -0.3138 -0.8780  0.5661
  335MOL0     C45128  11.260   4.820   5.434 -0.1533 -0.1183  0.1300
  335MOL0     C45129  11.306   4.676   5.445 -0.2308 -0.3463  0.6665
  335MOL0     C45130  11.373   4.625   5.312  0.4248 -0.2905 -0.0723
  335MOL0     C45131  11.531   4.646   5.310 -0.0529 -0.5650 -0.5735
  335MOL0     C45132  11.595   4.622   5.171 -0.6564 -0.2239  0.4867
  335MOL0     C45133  11.751   4.634   5.171 -0.2561  0.3066 -0.2502
  335MOL0    Cl45134  11.839   4.587   5.020  0.2320 -0.3869 -0.1318
  335MOL0     C45135  11.455   5.189   5.848 -0.0169  1.3169 -0.4481
  335MOL0     C45136  11.550   5.297   5.865 -0.1484  0.0069  1.1849
  335MOL0     O45137  11.816   5.433   5.925  0.6373 -0.1257 -0.3384
  335MOL0     C45138  11.910   5.691   5.954 -0.1743  1.0091 -0.3348
  335MOL0     C45139  11.955   5.827   5.972  0.1235  0.7423  1.5060
  335MOL0     N45140  12.399   6.190   5.607 -0.6145  0.0175 -0.1242
  335MOL0     N45141  12.394   6.225   5.493  0.0229  0.0801 -0.2425
  335MOL0     C45142  11.322   5.690   5.070 -0.2188 -0.1383 -0.7896
  335MOL0     C45143  11.183   5.675   5.077 -0.5950 -0.1718 -0.5799
  335MOL0     C45144  10.760   5.670   4.981  0.0781  0.1289  0.4595
  335MOL0     C45145  10.684   5.723   5.091  0.3976  0.0244 -0.7934
  335MOL0     C45146  10.549   5.716   5.095 -0.0462 -0.4818 -0.4713
  335MOL0     C45147  10.472   5.657   4.992  0.0559  0.7946  0.2061
  335MOL0     O45148  10.337   5.652   4.973 -0.1632  0.2075  0.1898
  335MOL0     C45149  10.273   5.741   5.066  0.1241  0.1817 -0.7989
  335MOL0     C45150  10.122   5.743   5.051  0.3114 -0.4857 -0.5511
  335MOL0     C45151  10.067   5.849   5.145  0.2219 -0.2671  0.5214
  335MOL0     C45152  10.023   5.969   5.067 -0.9798 -0.4346  0.7836
  335MOL0     C45153   9.897   5.948   4.992  0.1204 -0.3297 -0.0825
  335MOL0     C45154   9.799   5.923   4.924 -0.2018  0.0921 -0.1006
  335MOL0     C45155  10.544   5.594   4.890 -0.2754 -0.4287 -0.3089
  335MOL0     C45156  10.689   5.600   4.882 -0.3961  0.2007 -0.0178
  335MOL0     C45157  10.753   5.515   4.769  1.1122  0.1446 -0.7501
  335MOL0     H45158  11.082   5.992   5.108  1.1341  1.6415 -0.7416
  335MOL0     H45159  11.326   6.031   5.118 -0.6373 -0.7042 -0.0615
  335MOL0     H45160  11.567   6.029   5.054  0.7297  1.9938  2.9511
  335MOL0     H45161  11.548   5.970   5.223  0.4735 -0.1974 -0.0732
  335MOL0     H45162  11.779   5.867   5.060  0.7095 -0.2814  0.1598
  335MOL0     H45163  11.753   5.876   5.238 -0.9703 -0.0580 -1.3641
  335MOL0     H45164  11.720   6.140   5.194 -0.0441  2.5744 -4.4265
  335MOL0     H45165  11.791   6.118   5.036  1.7218 -2.5255 -2.1273
  335MOL0     H45166  11.918   6.034   5.295  0.4741  0.8070  1.1968
  335MOL0     H45167  12.007   6.035   5.138  0.3721 -0.7879  1.3658
  335MOL0     H45168  11.946   6.293   5.137 -0.0844  1.1401  1.2579
  335MOL0     H45169  11.917   6.258   5.305 -1.5447 -1.4387 -0.3686
  335MOL0     H45170  12.187   6.179   5.298  4.5354  2.0301 -3.2892
  335MOL0     H45171  12.175   6.256   5.146 -0.0136 -3.0845  0.1225
  335MOL0     H45172  12.070   6.390   5.396  1.9527 -0.5784  2.1264
  335MOL0     H45173  12.113   6.478   5.248 -0.4773 -1.0415 -1.9165
  335MOL0     H45174  12.366   6.398   5.277  0.2264  4.5173 -1.0627
  335MOL0     H45175  12.322   6.519   5.380  2.9526 -0.1417 -2.1037
  335MOL0     H45176  12.218   6.459   5.643  1.2814 -0.5274 -0.1080
  335MOL0     H45177  12.400   6.211   5.867 -2.0842 -2.4148  1.1028
  335MOL0     H45178  12.304   6.362   5.873 -1.5704  0.1563 -0.3237
  335MOL0     H45179  12.192   6.088   5.819  2.8354  0.7548 -0.5154
  335MOL0     H45180  12.205   6.162   5.979 -1.0571  1.5484  1.5467
  335MOL0     H45181  12.037   6.318   5.782  2.1557 -0.7189 -0.2588
  335MOL0     H45182  12.027   6.309   5.962 -2.4473 -0.7966  0.9173
  335MOL0     H45183  11.929   6.126   5.745 -0.4316  0.9279 -0.5243
  335MOL0     H45184  11.833   6.204   5.869 -0.0090  0.4026 -1.3210
  335MOL0     H45185  11.757   5.995   5.760 -1.4589 -0.7160 -0.3104
  335MOL0     H45186  11.661   5.764   5.730 -1.2490 -0.2045  1.4384
  335MOL0     H45187  11.530   5.444   5.569  2.9577 -1.0994 -0.2681
  335MOL0     H45188  11.359   5.263   5.539 -0.3769 -0.1118  1.8916
  335MOL0     H45189  11.196   5.090   5.530  1.6937  0.1607 -2.9425
  335MOL0     H45190  11.370   5.039   5.526  0.5475 -1.1403  1.4124
  335MOL0     H45191  11.281   4.817   5.647 -3.6739 -4.6268  0.0665
  335MOL0     H45192  11.124   4.873   5.609 -1.7278 -0.6206 -3.3336
  335MOL0     H45193  11.168   4.823   5.374 -1.0521  4.5653  1.3720
  335MOL0     H45194  11.338   4.873   5.380 -0.4729  0.3969  0.1676
  335MOL0     H45195  11.220   4.620   5.483  1.4879 -2.5783  1.5316
  335MOL0     H45196  11.377   4.675   5.529 -3.7828 -0.4117  3.9758
  335MOL0     H45197  11.329   4.670   5.222 -2.0426  0.4425  1.4137
  335MOL0     H45198  11.346   4.521   5.293 -1.0544  0.2852 -1.3781
  335MOL0     H45199  11.559   4.741   5.355 -2.1591 -0.9703  1.7462
  335MOL0     H45200  11.567   4.574   5.384 -3.2209 -0.6727  0.9801
  335MOL0     H45201  11.551   4.702   5.110  2.6550  1.5126  0.1706
  335MOL0     H45202  11.552   4.532   5.126 -0.8499  1.1342 -2.2660
  335MOL0     H45203  11.782   4.734   5.201  0.0766 -0.3567  1.7787
  335MOL0     H45204  11.796   4.561   5.239 -0.6590  1.0812  0.8664
  335MOL0     H45205  11.432   5.114   5.924  2.7603 -0.3673 -1.1254
  335MOL0     H45206  11.600   5.310   5.960  2.0413 -0.2472  0.1429
  335MOL0     H45207  11.957   5.612   6.012 -1.2694  0.9899  0.5812
  335MOL0     H45208  12.031   5.845   6.046 -0.3463 -0.2403  2.2383
  335MOL0     H45209  11.386   5.602   5.069  0.1939  0.0361  1.9176
  335MOL0     H45210  11.136   5.579   5.060 -0.6323 -0.8301  2.6183
  335MOL0     H45211  10.725   5.782   5.172  1.9036 -2.1179  0.0994
  335MOL0     H45212  10.500   5.768   5.177 -0.7138 -3.9362  1.5391
  335MOL0     H45213  10.306   5.844   5.048 -0.9792  0.6997 -0.0382
  335MOL0     H45214  10.294   5.703   5.167  1.5679 -2.0374 -1.8627
  335MOL0     H45215  10.106   5.636   5.067  1.5100 -0.6150 -0.0995
  335MOL0     H45216  10.088   5.763   4.949 -0.4687 -1.4138 -0.4917
  335MOL0     H45217  10.140   5.876   5.222 -0.9578  2.3278  0.8455
  335MOL0     H45218   9.979   5.818   5.204  0.4299  1.3235  1.7269
  335MOL0     H45219  10.007   6.053   5.135 -0.6951  0.8181 -0.6266
  335MOL0     H45220  10.099   6.006   4.997  0.0094  1.3978  2.7127
  335MOL0     H45221   9.703   5.915   4.877 -0.4064 -0.6597  0.4276
  335MOL0     H45222  10.487   5.534   4.819 -1.2181 -1.0855  0.9690
  335MOL0     H45223  10.782   5.418   4.810 -0.6405 -0.8453 -1.7086
  335MOL0     H45224  10.676   5.501   4.693  0.3710 -0.6864  0.1282
  335MOL0     H45225  10.836   5.567   4.719  2.3535 -1.0750 -0.0072
  336MOL0     O45226   5.658   0.372   1.802 -0.3106  0.1238 -0.1617
  336MOL0     C45227   5.617   0.295   1.884  0.1424  1.2494 -0.0463
  336MOL0     O45228   5.691   0.239   1.986 -0.2190 -0.4539 -0.0168
  336MOL0     C45229   5.822   0.271   1.982  0.1869  0.6551 -1.5318
  336MOL0     C45230   5.858   0.396   2.035  0.7758 -0.4186  0.2506
  336MOL0     C45231   5.993   0.422   2.041  0.7572 -0.2777 -0.1759
  336MOL0     C45232   6.093   0.328   2.014 -0.7514  0.0865  0.3702
  336MOL0     O45233   6.234   0.327   2.022  0.2448 -0.1159  0.4156
  336MOL0     C45234   6.295   0.446   2.078 -0.5899  0.1120  0.7987
  336MOL0     C45235   6.447   0.441   2.065  0.8878 -1.2231 -0.7517
  336MOL0     C45236   6.518   0.566   2.120 -0.3155  0.4349 -0.6572
  336MOL0     C45237   6.470   0.617   2.251 -0.4879  0.0297 -0.7292
  336MOL0     C45238   6.562   0.722   2.320 -0.0144  0.5498  0.0704
  336MOL0     C45239   6.708   0.675   2.347  0.2752  0.3577  0.4771
  336MOL0     C45240   6.791   0.762   2.439  0.1858 -0.1077 -0.8536
  336MOL0     C45241   6.770   0.738   2.586 -0.1789 -0.4818 -0.5869
  336MOL0     N45242   6.872   0.790   2.675 -0.2452 -0.7926 -0.1856
  336MOL0     C45243   6.986   0.719   2.715  0.1919 -0.2912  0.9132
  336MOL0     C45244   7.023   0.783   2.825 -0.3775  0.4590  0.1535
  336MOL0     C45245   7.142   0.755   2.911 -0.4165 -0.0172  1.2009
  336MOL0     C45246   7.254   0.854   2.928 -0.0636  0.4623  0.8962
  336MOL0     C45247   7.332   0.840   3.067  0.1013 -0.5618  0.5092
  336MOL0     C45248   7.405   0.714   3.098 -0.1399  0.5835  0.5735
  336MOL0     O45249   7.489   0.733   3.218  0.0592  0.0358 -0.1468
  336MOL0     C45250   7.624   0.717   3.213  0.2189 -0.2724 -0.0044
  336MOL0     C45251   7.688   0.642   3.114 -0.1254  0.4839  0.0042
  336MOL0     C45252   7.828   0.636   3.120 -0.2175 -0.5526  0.2108
  336MOL0     C45253   7.901   0.698   3.219 -0.8373 -0.3484  0.3199
  336MOL0     C45254   8.047   0.679   3.215  0.4069 -0.2903 -0.3391
  336MOL0     O45255   8.105   0.665   3.086 -0.4912 -0.0778  0.2928
  336MOL0     C45256   8.237   0.643   3.053  0.1288  0.1529  0.0984
  336MOL0     C45257   8.260   0.618   2.921 -0.7921  0.5085 -0.0590
  336MOL0     C45258   8.393   0.607   2.868 -0.9809 -0.7651  0.0164
  336MOL0     C45259   8.506   0.625   2.955  0.1581 -0.3551 -0.7336
  336MOL0     O45260   8.638   0.626   2.935  0.0176  0.7119 -0.3743
  336MOL0     C45261   8.684   0.605   2.795 -0.3063  0.4225 -1.3023
  336MOL0     C45262   8.834   0.579   2.807  0.2729 -0.0573 -0.5117
  336MOL0     C45263   8.907   0.536   2.667 -0.1007 -0.8815  0.2610
  336MOL0     C45264   9.060   0.511   2.675 -0.0777  0.2276  0.3991
  336MOL0     C45265   9.106   0.459   2.537 -0.2295 -0.2668  0.3823
  336MOL0     C45266   9.261   0.483   2.530 -0.3460  1.2863  1.1038
  336MOL0     C45267   9.331   0.394   2.418  0.1878 -0.0513 -0.2514
  336MOL0     C45268   9.477   0.427   2.390 -0.0479  0.2039 -0.4079
  336MOL0    Cl45269   9.563   0.359   2.533  0.1745 -0.0133  0.2158
  336MOL0     C45270   8.477   0.663   3.092 -0.9550 -0.6088 -0.6634
  336MOL0     C45271   8.350   0.678   3.136  0.3173 -0.5338 -0.5222
  336MOL0     O45272   8.105   0.676   3.326  0.6357 -0.5090 -0.1511
  336MOL0     C45273   7.837   0.763   3.316  0.1728  0.0637 -0.6294
  336MOL0     C45274   7.696   0.774   3.316  0.0272  0.2660 -0.2627
  336MOL0     N45275   6.952   0.904   2.832  0.2133 -0.0084 -0.7298
  336MOL0     N45276   6.859   0.913   2.744 -0.5211  0.2169  0.6358
  336MOL0     C45277   6.054   0.213   1.941  0.6645  0.0092  0.0842
  336MOL0     C45278   5.920   0.184   1.935  0.2552  0.6815 -0.1565
  336MOL0     C45279   5.475   0.268   1.897 -0.0678  0.5396 -0.2260
  336MOL0     C45280   5.442   0.180   1.997  0.7301  0.0035 -0.5675
  336MOL0     C45281   5.308   0.159   2.036 -0.0525 -0.6472  0.8177
  336MOL0     C45282   5.212   0.210   1.957 -0.4056 -0.7431  0.0205
  336MOL0     O45283   5.089   0.195   2.005 -0.5725 -0.4560 -0.2549
  336MOL0     C45284   5.001   0.312   2.008 -0.0374 -0.6083  1.0883
  336MOL0     C45285   4.857   0.273   1.977  0.4217 -1.1086 -1.7140
  336MOL0     C45286   4.831   0.131   2.025  0.6226 -0.1298  0.2815
  336MOL0     C45287   4.685   0.095   1.997 -0.0164  0.0048  0.6158
  336MOL0     C45288   4.594   0.193   1.938 -0.0529 -0.2469 -0.3232
  336MOL0     C45289   4.513   0.271   1.891 -0.9993 -0.2150  0.2179
  336MOL0     C45290   5.241   0.293   1.848 -0.2392 -0.0572 -0.0521
  336MOL0     C45291   5.373   0.326   1.818  0.3867  0.2668 -0.4277
  336MOL0     C45292   5.395   0.418   1.700  0.3929  0.8063  0.8724
  336MOL0     H45293   5.780   0.471   2.050  1.3019  1.2939 -3.9869
  336MOL0     H45294   6.015   0.520   2.084  2.5533 -1.1158  0.9102
  336MOL0     H45295   6.272   0.534   2.017  1.6380 -0.6291 -1.2544
  336MOL0     H45296   6.270   0.463   2.183 -1.0656  1.4217  0.4996
  336MOL0     H45297   6.454   0.432   1.957  1.5943  1.4854 -0.9848
  336MOL0     H45298   6.486   0.348   2.109  0.8954 -0.6228  0.5779
  336MOL0     H45299   6.495   0.654   2.059  1.3637  1.6371  0.3316
  336MOL0     H45300   6.626   0.549   2.124 -0.2771  0.8257  0.3715
  336MOL0     H45301   6.368   0.656   2.251 -0.8917 -0.9909 -1.1850
  336MOL0     H45302   6.458   0.531   2.317  1.0266  1.7720  1.9986
  336MOL0     H45303   6.571   0.813   2.259 -0.8851  0.9305  0.4943
  336MOL0     H45304   6.529   0.753   2.419  2.1982  0.5043  0.8922
  336MOL0     H45305   6.695   0.575   2.391  2.4793 -1.0180 -1.7438
  336MOL0     H45306   6.751   0.671   2.247 -4.5146 -0.0655 -1.8203
  336MOL0     H45307   6.771   0.868   2.422 -1.0932 -0.1643  0.1378
  336MOL0     H45308   6.893   0.737   2.407  0.6440 -1.1596  1.2388
  336MOL0     H45309   6.677   0.780   2.626  1.0373  1.0490  0.7959
  336MOL0     H45310   6.762   0.631   2.608 -1.2408 -0.1583  0.7402
  336MOL0     H45311   7.038   0.634   2.673  3.1391  0.6509  2.3342
  336MOL0     H45312   7.103   0.740   3.013 -2.3840 -1.0642  0.3603
  336MOL0     H45313   7.183   0.657   2.886 -0.4646 -0.3219  2.2538
  336MOL0     H45314   7.320   0.840   2.841 -0.3458 -0.5057  0.8369
  336MOL0     H45315   7.208   0.953   2.918 -0.1449  0.2900 -0.7418
  336MOL0     H45316   7.271   0.857   3.156  0.9717  1.0405  0.8471
  336MOL0     H45317   7.398   0.926   3.078 -0.1576 -0.1788 -0.7180
  336MOL0     H45318   7.454   0.685   3.004 -1.0717  1.4862 -0.2033
  336MOL0     H45319   7.326   0.645   3.129 -1.5689  2.4139  1.1434
  336MOL0     H45320   7.650   0.601   3.020  2.3655  0.6978 -1.1810
  336MOL0     H45321   7.878   0.582   3.040  0.8594 -0.7104  0.9740
  336MOL0     H45322   8.171   0.605   2.860  0.8601 -0.6891 -2.3696
  336MOL0     H45323   8.413   0.570   2.768 -0.1370 -2.7310  0.8718
  336MOL0     H45324   8.623   0.518   2.767 -0.1635 -0.3311  0.5807
  336MOL0     H45325   8.658   0.686   2.726 -0.2068 -0.6246 -2.6099
  336MOL0     H45326   8.885   0.659   2.860 -0.6696 -0.5807  1.2537
  336MOL0     H45327   8.831   0.496   2.879 -1.0640 -0.0251 -0.4986
  336MOL0     H45328   8.866   0.436   2.649 -3.2404  0.1816  0.9257
  336MOL0     H45329   8.889   0.599   2.580 -1.5872 -2.5588 -0.7042
  336MOL0     H45330   9.078   0.436   2.753  2.0763  1.6246  1.3289
  336MOL0     H45331   9.104   0.609   2.694 -1.1063  0.6246  0.7797
  336MOL0     H45332   9.051   0.514   2.460 -0.4007 -1.3885 -0.3187
  336MOL0     H45333   9.082   0.355   2.515 -2.8141  1.0111 -4.3838
  336MOL0     H45334   9.295   0.585   2.513  0.4398  0.6794 -1.5371
  336MOL0     H45335   9.308   0.455   2.624  4.7146  0.9093 -1.1843
  336MOL0     H45336   9.272   0.380   2.327 -1.4025 -3.3142  1.1409
  336MOL0     H45337   9.338   0.288   2.445  2.2864 -0.0018 -0.4519
  336MOL0     H45338   9.515   0.383   2.297  0.6288  0.3044 -0.1853
  336MOL0     H45339   9.491   0.535   2.380  1.5279 -0.0585 -1.3774
  336MOL0     H45340   8.566   0.687   3.149 -1.9453  0.2235  0.5710
  336MOL0     H45341   8.333   0.714   3.237 -0.0929 -0.2155 -0.6986
  336MOL0     H45342   7.880   0.803   3.407 -3.0427  0.8585  0.6895
  336MOL0     H45343   7.661   0.829   3.403  2.1692 -0.3074  1.0109
  336MOL0     H45344   6.118   0.142   1.890  0.1346 -3.1219  3.3966
  336MOL0     H45345   5.888   0.101   1.872 -1.1856  1.3656 -0.3873
  336MOL0     H45346   5.516   0.141   2.067 -0.3988 -0.8385  0.2004
  336MOL0     H45347   5.273   0.095   2.117 -2.6191  0.8438  1.0105
  336MOL0     H45348   5.011   0.386   1.928 -0.2310 -0.4237  1.2341
  336MOL0     H45349   5.018   0.350   2.110 -0.1530 -1.6813  1.5218
  336MOL0     H45350   4.853   0.266   1.868  1.7961 -2.1213 -1.7111
  336MOL0     H45351   4.788   0.343   2.026  2.9532 -0.9217  1.9883
  336MOL0     H45352   4.863   0.130   2.129  3.1483  2.0848 -0.3457
  336MOL0     H45353   4.895   0.071   1.959  1.4039  0.2186  0.7084
  336MOL0     H45354   4.683   0.004   1.937 -3.5039 -1.8377  3.2065
  336MOL0     H45355   4.641   0.059   2.091 -1.5775 -1.5991 -0.6621
  336MOL0     H45356   4.445   0.343   1.851 -2.8937  0.3221  3.9742
  336MOL0     H45357   5.162   0.333   1.785  0.1902  0.2382 -0.4079
  336MOL0     H45358   5.300   0.460   1.664  0.1193 -1.3405 -1.1444
  336MOL0     H45359   5.472   0.493   1.719  0.4471  1.1265 -0.4851
  336MOL0     H45360   5.420   0.343   1.624 -2.2722 -0.7633  1.4026
  337MOL0     O45361   5.607   9.019   7.264  0.0212  0.5647  0.0482
  337MOL0     C45362   5.533   8.919   7.255  0.3728  0.7964 -0.4025
  337MOL0     O45363   5.559   8.795   7.303  0.0702  1.4139 -0.4575
  337MOL0     C45364   5.671   8.778   7.382 -0.3322  0.5009 -0.5245
  337MOL0     C45365   5.660   8.704   7.498 -0.3520  0.2571  0.3223
  337MOL0     C45366   5.776   8.673   7.572 -0.0937 -0.6660  0.5602
  337MOL0     C45367   5.901   8.718   7.536 -1.0392 -0.7316  0.8962
  337MOL0     O45368   6.004   8.706   7.623  0.3197  0.4627  0.2972
  337MOL0     C45369   6.138   8.758   7.622  0.0840  0.0039  0.9205
  337MOL0     C45370   6.231   8.676   7.703 -0.5511  1.1689  0.1985
  337MOL0     C45371   6.201   8.678   7.852 -0.2242 -0.0546  0.6744
  337MOL0     C45372   6.289   8.579   7.936  0.1641 -0.4233  0.2823
  337MOL0     C45373   6.219   8.546   8.072 -1.0200  0.0588 -0.0133
  337MOL0     C45374   6.317   8.543   8.192  0.4441 -0.5461  0.1244
  337MOL0     C45375   6.256   8.489   8.323  0.1866 -0.9313  0.1120
  337MOL0     C45376   6.134   8.556   8.377 -0.4680 -0.1932  0.4000
  337MOL0     N45377   6.160   8.697   8.405  0.1644 -0.1318  0.0388
  337MOL0     C45378   6.248   8.750   8.498 -0.1950  0.5984  0.4490
  337MOL0     C45379   6.248   8.879   8.477  0.2209  0.3772 -0.6991
  337MOL0     C45380   6.335   8.968   8.556 -0.2517 -0.3257 -0.1572
  337MOL0     C45381   6.300   8.983   8.698  0.2148 -0.3087  0.2500
  337MOL0     C45382   6.360   9.117   8.766  0.0960  0.7833  0.4125
  337MOL0     C45383   6.503   9.147   8.734 -1.4030 -0.0623 -0.4373
  337MOL0     O45384   6.578   9.067   8.829 -0.8140  0.0958  0.1200
  337MOL0     C45385   6.716   9.064   8.819  0.0569  0.8506 -0.6394
  337MOL0     C45386   6.778   8.982   8.923  0.6262 -0.2713  0.3401
  337MOL0     C45387   6.910   8.982   8.939  0.2805 -0.1247 -0.3158
  337MOL0     C45388   6.998   9.035   8.841  1.1830 -0.1118 -0.4735
  337MOL0     C45389   7.143   9.021   8.863 -0.3008 -0.1602 -0.3966
  337MOL0     O45390   7.217   9.089   8.772 -0.3622  0.3804 -0.4573
  337MOL0     C45391   7.355   9.089   8.794  0.6431 -0.3953 -0.0373
  337MOL0     C45392   7.430   9.121   8.906  0.3378  0.3439 -0.4362
  337MOL0     C45393   7.566   9.087   8.915  0.0153  0.1425 -0.5996
  337MOL0     C45394   7.638   9.043   8.799  0.3671  0.3935 -0.4225
  337MOL0     O45395   7.763   8.996   8.821 -0.5476  0.2345  0.4815
  337MOL0     C45396   7.858   8.974   8.709 -1.3377  0.2295  0.0435
  337MOL0     C45397   7.876   8.843   8.651  0.3316  1.1924  0.7579
  337MOL0     C45398   8.011   8.829   8.580 -1.0185 -0.7381  0.0263
  337MOL0     C45399   8.038   8.689   8.521  0.3058  0.5742  0.0170
  337MOL0     C45400   8.180   8.694   8.445 -0.1369 -0.5338  0.9091
  337MOL0     C45401   8.196   8.784   8.318  0.7743 -0.1914  0.1213
  337MOL0     C45402   8.305   8.728   8.221  0.3736 -0.5519  0.3762
  337MOL0     C45403   8.400   8.832   8.169 -0.7385 -0.6185 -0.3326
  337MOL0    Cl45404   8.498   8.927   8.289 -0.3029 -0.1404  0.4775
  337MOL0     C45405   7.570   9.044   8.682 -0.1874 -0.9275  0.6471
  337MOL0     C45406   7.426   9.061   8.674 -0.6062 -0.2863  0.3147
  337MOL0     O45407   7.181   8.972   8.969  0.3225  0.4071  0.1732
  337MOL0     C45408   6.943   9.113   8.738 -0.2278 -0.5572  0.2265
  337MOL0     C45409   6.799   9.130   8.725 -0.5388 -0.1401  0.1996
  337MOL0     N45410   6.150   8.917   8.381 -0.0929  1.1172 -0.3169
  337MOL0     N45411   6.106   8.806   8.339 -0.4199 -0.4551 -0.6337
  337MOL0     C45412   5.908   8.791   7.418 -0.4130  0.8644  0.1479
  337MOL0     C45413   5.797   8.821   7.342 -0.4192 -0.4015 -0.3613
  337MOL0     C45414   5.392   8.940   7.212 -0.0781  0.6720 -0.5403
  337MOL0     C45415   5.323   8.831   7.161 -1.2157  0.3427 -0.3292
  337MOL0     C45416   5.183   8.822   7.141 -1.1749  0.0233 -0.3602
  337MOL0     C45417   5.117   8.953   7.151 -0.8223  0.9379  0.2421
  337MOL0     O45418   4.982   8.962   7.119 -0.6034  0.1802 -0.2345
  337MOL0     C45419   4.903   8.848   7.107  0.8025 -0.1105 -0.3546
  337MOL0     C45420   4.836   8.836   7.245  0.0980  0.0401  0.5241
  337MOL0     C45421   4.682   8.821   7.242  0.1510 -0.9261  0.5406
  337MOL0     C45422   4.633   8.687   7.179 -0.5661 -0.3577 -0.3879
  337MOL0     C45423   4.531   8.693   7.078 -0.6008  0.2394 -0.8837
  337MOL0     C45424   4.438   8.685   6.998  0.3542  0.3153 -0.1304
  337MOL0     C45425   5.187   9.068   7.165 -0.1573  0.1689 -0.2311
  337MOL0     C45426   5.320   9.067   7.214 -0.7591 -0.0090 -0.5300
  337MOL0     C45427   5.377   9.198   7.275 -0.1987  0.6610  0.5060
  337MOL0     H45428   5.564   8.681   7.543 -2.0489  2.4702 -1.8904
  337MOL0     H45429   5.770   8.612   7.662  1.2257 -0.4934  0.7772
  337MOL0     H45430   6.167   8.747   7.517  0.6273 -1.2530  1.1799
  337MOL0     H45431   6.144   8.865   7.642  0.2880  0.7292 -2.3909
  337MOL0     H45432   6.332   8.710   7.676 -1.6031  2.7109 -2.1232
  337MOL0     H45433   6.223   8.572   7.671 -2.4997  1.5984 -0.8923
  337MOL0     H45434   6.094   8.658   7.861 -0.0297 -0.7492  1.7666
  337MOL0     H45435   6.223   8.777   7.892 -2.6010  2.0206 -2.7103
  337MOL0     H45436   6.308   8.488   7.878  0.5679  1.0570 -2.0906
  337MOL0     H45437   6.377   8.636   7.967 -0.2895  2.1943 -2.6082
  337MOL0     H45438   6.150   8.628   8.096 -0.8213  1.4925 -3.7336
  337MOL0     H45439   6.164   8.452   8.062  0.2798 -0.6357 -0.9627
  337MOL0     H45440   6.406   8.487   8.162 -0.2623 -1.3353 -0.5192
  337MOL0     H45441   6.343   8.649   8.200  1.8854 -0.5946 -2.7916
  337MOL0     H45442   6.339   8.494   8.394  2.2239  0.8933 -2.2355
  337MOL0     H45443   6.227   8.386   8.302  2.8589 -2.3515  2.6138
  337MOL0     H45444   6.045   8.540   8.316  0.5370  1.8930 -1.7974
  337MOL0     H45445   6.134   8.517   8.479  2.3417 -0.5006  0.3693
  337MOL0     H45446   6.301   8.694   8.574  0.2236  1.3205  0.6962
  337MOL0     H45447   6.438   8.936   8.540 -0.5636 -2.0937  1.0543
  337MOL0     H45448   6.335   9.071   8.520 -0.9272 -0.4845 -0.6272
  337MOL0     H45449   6.191   8.979   8.696  0.2526 -2.3076 -0.9211
  337MOL0     H45450   6.343   8.905   8.762  0.8536  1.0882  1.5906
  337MOL0     H45451   6.353   9.106   8.875 -1.3640  1.9976  0.4657
  337MOL0     H45452   6.300   9.205   8.744 -0.9343 -0.0819 -0.3016
  337MOL0     H45453   6.529   9.248   8.766  0.8464 -1.2137  1.7120
  337MOL0     H45454   6.534   9.119   8.634  3.9010  0.5699  0.7464
  337MOL0     H45455   6.714   8.937   8.998 -0.2961 -1.9486 -1.3686
  337MOL0     H45456   6.947   8.939   9.031  0.6977 -0.8736 -0.8146
  337MOL0     H45457   7.389   9.153   9.001  2.1058  0.1243  0.4445
  337MOL0     H45458   7.625   9.095   9.005  0.9323 -2.4698 -0.8831
  337MOL0     H45459   7.842   9.047   8.629 -3.5382  0.3667  0.5409
  337MOL0     H45460   7.953   8.988   8.761 -1.7626 -2.3632  1.7339
  337MOL0     H45461   7.880   8.770   8.732  0.4266  0.3421 -0.0065
  337MOL0     H45462   7.796   8.802   8.589  0.7377  0.8419  0.4619
  337MOL0     H45463   8.017   8.904   8.501  1.7822 -1.5514 -0.6234
  337MOL0     H45464   8.091   8.848   8.652  0.3662 -0.3311 -1.5468
  337MOL0     H45465   7.953   8.665   8.458  1.3392 -1.1924 -0.7763
  337MOL0     H45466   8.037   8.612   8.599 -3.4439 -0.3657 -0.7945
  337MOL0     H45467   8.199   8.589   8.421  0.6570 -0.4520  1.1407
  337MOL0     H45468   8.257   8.726   8.516 -1.7260  1.7929  1.6971
  337MOL0     H45469   8.094   8.790   8.280  1.2420  3.2563 -0.9435
  337MOL0     H45470   8.217   8.887   8.347 -0.8721 -0.3232  1.9847
  337MOL0     H45471   8.253   8.675   8.141  0.5009 -0.8971  0.5199
  337MOL0     H45472   8.356   8.639   8.258  0.0908 -0.6236  0.5940
  337MOL0     H45473   8.480   8.779   8.118  0.7015 -3.4707  4.2376
  337MOL0     H45474   8.358   8.896   8.091  2.1245  1.9012  0.0081
  337MOL0     H45475   7.624   9.021   8.590 -0.8057 -1.7969  0.4852
  337MOL0     H45476   7.357   9.057   8.590 -3.9001  0.5216  2.7812
  337MOL0     H45477   7.007   9.169   8.670  0.9747 -2.4837 -0.3042
  337MOL0     H45478   6.752   9.182   8.642 -0.2797  1.8461  1.2369
  337MOL0     H45479   6.001   8.837   7.385 -0.4452 -0.7082 -2.3679
  337MOL0     H45480   5.814   8.889   7.259 -3.4491 -1.4929 -2.0440
  337MOL0     H45481   5.388   8.745   7.149 -1.4547 -0.1143  1.3776
  337MOL0     H45482   5.146   8.722   7.118 -0.3765 -0.5557  0.7505
  337MOL0     H45483   4.950   8.753   7.082  0.7216 -0.0879 -0.5914
  337MOL0     H45484   4.821   8.868   7.037 -0.7909  2.6746  2.0751
  337MOL0     H45485   4.857   8.921   7.310  0.0612  0.2756  0.2287
  337MOL0     H45486   4.878   8.749   7.297 -0.7231 -1.4754 -1.2334
  337MOL0     H45487   4.632   8.901   7.187  0.3605  0.3138  2.0918
  337MOL0     H45488   4.647   8.827   7.346 -0.3852 -1.5742  0.4039
  337MOL0     H45489   4.714   8.637   7.124 -0.5092 -0.5887 -0.0958
  337MOL0     H45490   4.612   8.609   7.253  0.8590  0.6526  1.1634
  337MOL0     H45491   4.365   8.685   6.919  0.9167  1.7599 -0.6908
  337MOL0     H45492   5.135   9.163   7.174  0.9271  0.6878  0.9239
  337MOL0     H45493   5.308   9.283   7.267 -0.1569  0.5520 -1.8507
  337MOL0     H45494   5.387   9.181   7.382 -0.5485  1.9605  0.7715
  337MOL0     H45495   5.476   9.222   7.236  0.3762 -1.3257  0.6427
  338MOL0     O45496   0.295   3.225   1.357 -0.7720 -0.7617 -0.8701
  338MOL0     C45497   0.226   3.124   1.386 -0.0921 -1.0664 -1.4347
  338MOL0     O45498   0.281   3.006   1.424 -0.1200  0.3072 -0.1562
  338MOL0     C45499   0.419   2.997   1.447  0.0912  0.0655  0.0355
  338MOL0     C45500   0.459   2.938   1.565 -0.2827  1.4156  0.2481
  338MOL0     C45501   0.596   2.927   1.591 -0.2015  0.3588  0.1705
  338MOL0     C45502   0.694   2.984   1.509  0.2507  0.2485  0.1676
  338MOL0     O45503   0.823   2.969   1.537 -0.1721  0.2680 -0.5561
  338MOL0     C45504   0.857   3.082   1.615 -0.2140 -0.3615  0.4640
  338MOL0     C45505   1.005   3.110   1.607 -0.4698 -0.8011 -0.6409
  338MOL0     C45506   1.047   3.249   1.662  0.8332  0.1636 -0.0462
  338MOL0     C45507   1.202   3.276   1.658  0.1401 -0.5396 -0.7449
  338MOL0     C45508   1.224   3.412   1.722 -0.4397  0.4155  0.0460
  338MOL0     C45509   1.376   3.454   1.722 -0.8286  0.7634 -0.7352
  338MOL0     C45510   1.465   3.391   1.823  0.3216  0.0750 -1.0042
  338MOL0     C45511   1.591   3.472   1.826 -0.2786  0.1107 -0.4668
  338MOL0     N45512   1.694   3.404   1.908  0.4009  0.6909  0.9666
  338MOL0     C45513   1.723   3.423   2.040 -0.6694  0.5468  0.2658
  338MOL0     C45514   1.835   3.346   2.056  0.4606 -0.7899  0.2082
  338MOL0     C45515   1.924   3.311   2.176 -0.1114  0.2097  0.1507
  338MOL0     C45516   2.068   3.353   2.144 -0.4160  0.2486 -0.1308
  338MOL0     C45517   2.164   3.369   2.263 -0.2663  0.0505 -1.0003
  338MOL0     C45518   2.303   3.401   2.207 -0.7011  0.3398 -1.1815
  338MOL0     O45519   2.387   3.430   2.326  0.3579 -0.1707 -0.1506
  338MOL0     C45520   2.524   3.440   2.317 -0.1977  0.6137  0.6565
  338MOL0     C45521   2.592   3.373   2.413 -0.0242  0.0762  0.1772
  338MOL0     C45522   2.731   3.376   2.410  0.6741 -0.0776 -0.7919
  338MOL0     C45523   2.804   3.457   2.318 -0.2298 -0.0832 -0.3428
  338MOL0     C45524   2.954   3.474   2.318 -0.0188 -0.4918  0.4103
  338MOL0     O45525   2.999   3.540   2.206  0.3741 -0.4937 -0.2540
  338MOL0     C45526   3.139   3.548   2.195  0.0110 -0.1796 -0.3734
  338MOL0     C45527   3.217   3.462   2.109  1.4102 -0.0239 -0.2646
  338MOL0     C45528   3.356   3.467   2.112 -0.2297 -0.2399  0.6802
  338MOL0     C45529   3.426   3.576   2.170  0.0697 -0.9453 -0.2438
  338MOL0     O45530   3.559   3.610   2.162  0.5092 -0.2623  0.1488
  338MOL0     C45531   3.621   3.549   2.046 -0.7276  0.5550 -0.0397
  338MOL0     C45532   3.759   3.620   2.037  0.7499  0.5428  0.7770
  338MOL0     C45533   3.850   3.562   1.920 -0.6221 -0.5515 -0.2200
  338MOL0     C45534   3.994   3.605   1.949 -0.3720  0.1175 -0.2949
  338MOL0     C45535   4.078   3.536   1.837  0.8182 -0.3356 -0.4273
  338MOL0     C45536   4.223   3.574   1.856  0.1235 -0.3371 -0.7524
  338MOL0     C45537   4.297   3.555   1.720  0.2464 -0.0329  0.0623
  338MOL0     C45538   4.407   3.655   1.718  0.6008 -0.1017  0.3491
  338MOL0    Cl45539   4.533   3.627   1.833  0.2078 -0.4431 -0.2738
  338MOL0     C45540   3.337   3.668   2.237  0.8587 -0.0569 -0.0380
  338MOL0     C45541   3.195   3.657   2.257 -0.7787 -0.2866  0.0070
  338MOL0     O45542   3.023   3.440   2.409  0.1831 -0.0707 -0.2078
  338MOL0     C45543   2.725   3.532   2.228  0.2423 -0.3022 -0.8417
  338MOL0     C45544   2.585   3.518   2.228 -0.8024 -0.4733  0.0794
  338MOL0     N45545   1.857   3.277   1.937  0.1542 -0.4344 -0.0526
  338MOL0     N45546   1.782   3.314   1.840 -0.4184  0.1503 -0.5609
  338MOL0     C45547   0.651   3.022   1.384  0.5340 -0.0950  0.5579
  338MOL0     C45548   0.515   3.033   1.346 -0.6667 -0.6415  0.5702
  338MOL0     C45549   0.077   3.124   1.372 -0.2910 -0.5244 -0.4814
  338MOL0     C45550  -0.000   3.003   1.385  0.4599  0.3845 -0.4764
  338MOL0     C45551  -0.144   3.001   1.381 -0.5105  0.2386 -0.9318
  338MOL0     C45552  -0.217   3.120   1.373  0.2415 -0.0789  0.4452
  338MOL0     O45553  -0.353   3.129   1.359  0.0128 -0.5723 -0.0084
  338MOL0     C45554  -0.432   3.019   1.416  0.0696 -0.4602  0.5833
  338MOL0     C45555  -0.568   3.077   1.432  0.0757  0.2789 -0.5729
  338MOL0     C45556  -0.658   3.007   1.531  0.1038  0.1872  0.4295
  338MOL0     C45557  -0.798   3.062   1.535 -0.5762  0.0970 -0.5239
  338MOL0     C45558  -0.885   2.976   1.616  0.1308  0.3943 -0.2640
  338MOL0     C45559  -0.955   2.893   1.663  0.9731  0.0638 -0.6939
  338MOL0     C45560  -0.142   3.232   1.350  0.1948 -1.1909 -0.1784
  338MOL0     C45561  -0.001   3.241   1.352 -0.7328 -0.0154 -0.2251
  338MOL0     C45562   0.055   3.378   1.323  0.1637  0.3774 -0.2912
  338MOL0     H45563   0.394   2.885   1.634  1.7239  0.0509  1.2154
  338MOL0     H45564   0.628   2.874   1.680  2.1090  2.2134  0.5624
  338MOL0     H45565   0.812   3.176   1.582  3.4975  1.9240  1.2383
  338MOL0     H45566   0.829   3.072   1.720  1.4628 -0.2583  0.9523
  338MOL0     H45567   1.039   3.111   1.504 -1.7331  2.0584 -1.1242
  338MOL0     H45568   1.056   3.032   1.664 -0.6106  0.9708  2.1062
  338MOL0     H45569   1.030   3.242   1.770  1.3729  0.3971  0.0539
  338MOL0     H45570   0.994   3.337   1.622  2.4154 -0.1306 -3.0590
  338MOL0     H45571   1.250   3.196   1.716  0.6513 -2.2692 -3.3783
  338MOL0     H45572   1.242   3.262   1.558  0.1308 -2.3602 -0.5272
  338MOL0     H45573   1.160   3.482   1.668  0.4050  0.3795 -1.0270
  338MOL0     H45574   1.190   3.415   1.826 -0.5000 -0.2859  0.0524
  338MOL0     H45575   1.417   3.419   1.626 -0.8613  0.9557 -0.8193
  338MOL0     H45576   1.391   3.562   1.733  1.9890  0.1685  2.6887
  338MOL0     H45577   1.471   3.284   1.803 -0.0377  0.0595 -1.0416
  338MOL0     H45578   1.417   3.403   1.921  2.7717  0.9048  0.1818
  338MOL0     H45579   1.621   3.472   1.721 -0.1463 -0.6674 -0.4315
  338MOL0     H45580   1.575   3.568   1.877  2.8631  0.7201 -0.4101
  338MOL0     H45581   1.670   3.483   2.113 -2.2547 -0.4734  0.0103
  338MOL0     H45582   1.887   3.353   2.270  0.4546  0.9006  0.0757
  338MOL0     H45583   1.919   3.202   2.187  0.1990  0.2525  0.7633
  338MOL0     H45584   2.116   3.272   2.088  0.7726 -0.5007  1.8704
  338MOL0     H45585   2.069   3.449   2.093  2.6372 -0.6921 -2.1407
  338MOL0     H45586   2.161   3.285   2.334  0.5341  2.6093  2.2964
  338MOL0     H45587   2.140   3.453   2.328  2.6275 -0.7016  1.2794
  338MOL0     H45588   2.302   3.493   2.149 -1.2020  1.3939  0.4185
  338MOL0     H45589   2.345   3.318   2.149 -0.1320  0.1030 -0.4455
  338MOL0     H45590   2.541   3.319   2.492 -0.5781 -0.9862 -0.8735
  338MOL0     H45591   2.781   3.316   2.485 -1.9560  0.6515  1.7447
  338MOL0     H45592   3.159   3.381   2.068 -1.8324  0.9371  2.0634
  338MOL0     H45593   3.404   3.396   2.045  1.1692 -0.1488  1.5467
  338MOL0     H45594   3.627   3.445   2.079  0.3126  1.1104  1.6637
  338MOL0     H45595   3.572   3.559   1.949  0.8394  1.5159 -0.7676
  338MOL0     H45596   3.736   3.723   2.008 -1.6025 -0.7741 -2.6653
  338MOL0     H45597   3.804   3.624   2.136 -2.5577 -1.9117  2.5463
  338MOL0     H45598   3.845   3.453   1.912  2.4918 -0.7186 -1.1046
  338MOL0     H45599   3.830   3.599   1.819  1.8282 -1.1863 -0.9908
  338MOL0     H45600   4.041   3.575   2.043 -0.1423  0.2438 -0.3699
  338MOL0     H45601   3.996   3.714   1.945 -1.7750  0.1838  0.0379
  338MOL0     H45602   4.046   3.584   1.744  0.7720  1.4367  0.4709
  338MOL0     H45603   4.064   3.427   1.834 -0.5409 -0.2164  1.0066
  338MOL0     H45604   4.218   3.678   1.888 -0.8781 -0.7679  0.5513
  338MOL0     H45605   4.265   3.514   1.937 -1.2910  1.7568  1.6742
  338MOL0     H45606   4.236   3.587   1.635  1.4698 -1.6507 -1.4806
  338MOL0     H45607   4.334   3.454   1.703  0.6687  0.1469 -0.0940
  338MOL0     H45608   4.444   3.658   1.615  2.9339  0.1638  1.1491
  338MOL0     H45609   4.372   3.755   1.743 -0.5317 -0.5588  0.6430
  338MOL0     H45610   3.380   3.752   2.289 -1.8550  1.0426  0.6290
  338MOL0     H45611   3.125   3.719   2.312 -0.8163  0.3243 -0.7021
  338MOL0     H45612   2.773   3.591   2.151  0.8720 -2.7136 -2.3783
  338MOL0     H45613   2.526   3.572   2.154 -1.6496 -1.7630 -0.2173
  338MOL0     H45614   0.727   3.048   1.311  1.5820 -0.7836  1.3871
  338MOL0     H45615   0.478   3.068   1.251 -1.0747  3.3526  2.0098
  338MOL0     H45616   0.060   2.914   1.401 -1.6490 -1.0151  0.1422
  338MOL0     H45617  -0.181   2.899   1.389  2.2572 -0.7926 -0.3506
  338MOL0     H45618  -0.389   2.987   1.511 -0.5567 -2.0824  0.3389
  338MOL0     H45619  -0.436   2.933   1.348 -3.0921  1.3473 -1.7963
  338MOL0     H45620  -0.618   3.061   1.336  0.3494 -0.7993 -0.5524
  338MOL0     H45621  -0.573   3.185   1.448 -0.1121  0.5606 -2.3250
  338MOL0     H45622  -0.626   3.008   1.636 -0.9176 -4.1115  0.9646
  338MOL0     H45623  -0.662   2.903   1.500  0.4099  0.1844  0.3991
  338MOL0     H45624  -0.804   3.164   1.574 -0.8141 -0.5215  1.1388
  338MOL0     H45625  -0.850   3.081   1.440  0.2386  2.2732 -0.5966
  338MOL0     H45626  -1.020   2.820   1.705  1.4741  1.5503  3.0452
  338MOL0     H45627  -0.200   3.320   1.325  0.3854 -0.9082  0.3646
  338MOL0     H45628   0.095   3.430   1.410 -0.4754 -0.2405  0.3912
  338MOL0     H45629   0.135   3.373   1.248  0.0956 -1.2819 -0.2930
  338MOL0     H45630  -0.020   3.450   1.289  0.8584  0.4486 -1.7592
  339MOL0     O45631   1.633   4.232   2.129  0.2572 -1.2495  0.5930
  339MOL0     C45632   1.624   4.345   2.076  0.5559 -0.4299  0.2394
  339MOL0     O45633   1.701   4.457   2.114  0.0257  0.0439 -0.0299
  339MOL0     C45634   1.815   4.422   2.180 -0.1612  0.3670 -0.8805
  339MOL0     C45635   1.832   4.479   2.305 -0.1857 -0.4948 -0.1149
  339MOL0     C45636   1.955   4.451   2.377  0.3596 -0.2429  0.0082
  339MOL0     C45637   2.055   4.363   2.326  1.2783  0.4426  1.6541
  339MOL0     O45638   2.172   4.325   2.390 -0.0268  0.2748 -0.2571
  339MOL0     C45639   2.225   4.417   2.478 -0.4538 -0.5587  0.9269
  339MOL0     C45640   2.376   4.392   2.503  0.0814 -0.3626 -0.0402
  339MOL0     C45641   2.390   4.263   2.590 -0.9489  0.0379 -0.6558
  339MOL0     C45642   2.534   4.214   2.618  0.7719 -0.4131  0.1616
  339MOL0     C45643   2.551   4.137   2.752  0.2339  0.0568 -0.6032
  339MOL0     C45644   2.685   4.161   2.812  0.1933  0.1084  0.2188
  339MOL0     C45645   2.805   4.126   2.728  1.4061 -0.6503 -0.4739
  339MOL0     C45646   2.934   4.165   2.811  0.4836 -1.2696  0.9289
  339MOL0     N45647   3.065   4.157   2.731 -0.1036  0.3134  0.3401
  339MOL0     C45648   3.154   4.051   2.727 -0.6409  0.3589  0.1600
  339MOL0     C45649   3.243   4.085   2.635  0.2947 -0.0688 -0.2904
  339MOL0     C45650   3.351   3.991   2.580  0.2469 -0.4404  1.0858
  339MOL0     C45651   3.465   4.081   2.513  0.3304  0.2354 -0.1406
  339MOL0     C45652   3.605   4.026   2.548 -0.5031 -0.7918  0.4844
  339MOL0     C45653   3.617   3.880   2.511 -0.2560  0.0805  0.4859
  339MOL0     O45654   3.665   3.880   2.374  0.7040 -0.0504 -1.1868
  339MOL0     C45655   3.799   3.851   2.371 -0.0401 -0.4768  0.4242
  339MOL0     C45656   3.899   3.951   2.374  0.3300 -0.9485  0.1052
  339MOL0     C45657   4.029   3.911   2.341 -0.8092  0.3900  0.4550
  339MOL0     C45658   4.068   3.776   2.326 -0.3602  0.3715 -0.0420
  339MOL0     C45659   4.208   3.743   2.299 -0.3860 -0.4382 -0.8779
  339MOL0     O45660   4.238   3.606   2.292  0.6156 -0.3757  1.0582
  339MOL0     C45661   4.360   3.562   2.293 -1.3396  0.1239 -0.1629
  339MOL0     C45662   4.373   3.430   2.251 -0.9487  0.4646  0.0748
  339MOL0     C45663   4.495   3.357   2.255 -0.1160  1.1956 -1.0496
  339MOL0     C45664   4.608   3.420   2.298  0.1658 -1.1032 -0.1992
  339MOL0     O45665   4.719   3.340   2.285  0.9095  0.0740 -0.0667
  339MOL0     C45666   4.801   3.361   2.401 -0.0188 -0.2147  0.3340
  339MOL0     C45667   4.906   3.243   2.414 -0.3260  0.1282 -0.0873
  339MOL0     C45668   4.916   3.177   2.551 -0.0389 -0.3838 -0.4685
  339MOL0     C45669   4.972   3.269   2.654  0.1088 -0.3795  0.0207
  339MOL0     C45670   5.007   3.211   2.798  0.8644 -0.1844  0.4810
  339MOL0     C45671   4.890   3.129   2.866 -0.1292  0.4076 -0.0228
  339MOL0     C45672   4.749   3.190   2.875 -0.4270  0.2182 -0.4871
  339MOL0     C45673   4.738   3.310   2.971 -1.3777  0.8541 -0.2248
  339MOL0    Cl45674   4.813   3.452   2.917 -0.1310 -0.1325 -0.1754
  339MOL0     C45675   4.599   3.550   2.343  0.1853 -0.1468 -0.1688
  339MOL0     C45676   4.481   3.621   2.342 -0.3105 -0.6028  0.4346
  339MOL0     O45677   4.291   3.835   2.304  0.0943  0.2567 -0.4120
  339MOL0     C45678   3.970   3.672   2.344 -0.3195  0.4711 -0.0547
  339MOL0     C45679   3.841   3.714   2.371 -0.2258  0.4662 -0.0036
  339MOL0     N45680   3.210   4.211   2.580 -1.0876  0.0861  0.4768
  339MOL0     N45681   3.100   4.251   2.646 -0.6927 -0.0658  1.3444
  339MOL0     C45682   2.026   4.313   2.202  0.0483 -0.4883  0.0245
  339MOL0     C45683   1.912   4.338   2.133  0.4944 -0.4129 -0.1338
  339MOL0     C45684   1.518   4.376   1.978 -0.4050 -0.3316  0.4936
  339MOL0     C45685   1.557   4.462   1.878  0.1372 -2.0044  0.4447
  339MOL0     C45686   1.470   4.524   1.786  0.7103  1.0146  0.3017
  339MOL0     C45687   1.338   4.474   1.780 -0.2235  0.4306 -0.0193
  339MOL0     O45688   1.268   4.520   1.675  0.4813  0.2041  0.4337
  339MOL0     C45689   1.124   4.512   1.677  0.2215  0.9641 -0.8984
  339MOL0     C45690   1.087   4.565   1.539  0.6408  0.6968  0.3268
  339MOL0     C45691   0.943   4.538   1.491 -0.3397  0.0037  0.1202
  339MOL0     C45692   0.889   4.630   1.375  0.7956  1.0793 -0.8003
  339MOL0     C45693   0.893   4.775   1.393 -0.5180  0.3487 -0.0294
  339MOL0     C45694   0.904   4.898   1.409 -0.5888 -0.3719 -0.6325
  339MOL0     C45695   1.298   4.376   1.873  0.1211 -0.0910  0.5145
  339MOL0     C45696   1.383   4.328   1.980 -0.2882 -0.4438  1.0081
  339MOL0     C45697   1.343   4.229   2.081 -0.3665  1.3673  0.2854
  339MOL0     H45698   1.764   4.557   2.339  1.4881  1.6971 -1.4966
  339MOL0     H45699   1.959   4.490   2.478  1.1386 -1.8077  0.6158
  339MOL0     H45700   2.203   4.520   2.449  0.9729 -0.4153  0.3160
  339MOL0     H45701   2.179   4.409   2.578 -0.1630  0.6888  1.1749
  339MOL0     H45702   2.410   4.475   2.566 -0.6921 -1.4123  1.8479
  339MOL0     H45703   2.436   4.392   2.412  1.8531 -2.9336  1.0093
  339MOL0     H45704   2.337   4.185   2.535  0.0149 -1.1902  0.1301
  339MOL0     H45705   2.346   4.282   2.688 -0.7251 -0.8734 -0.3749
  339MOL0     H45706   2.580   4.149   2.543  0.8422 -1.0820  0.7772
  339MOL0     H45707   2.596   4.303   2.629 -0.3700  0.5645 -0.8659
  339MOL0     H45708   2.481   4.171   2.829  1.7192 -3.5768  2.6729
  339MOL0     H45709   2.536   4.031   2.728 -0.5880 -0.2420  1.0645
  339MOL0     H45710   2.690   4.271   2.816 -1.7082  0.2573 -0.3589
  339MOL0     H45711   2.681   4.122   2.914  0.6131  0.0490  0.2118
  339MOL0     H45712   2.804   4.189   2.639  4.1200 -1.0426 -0.8517
  339MOL0     H45713   2.816   4.019   2.711  2.3942 -0.4746 -0.9780
  339MOL0     H45714   2.917   4.266   2.847 -4.5616 -1.4356 -0.3030
  339MOL0     H45715   2.941   4.095   2.895  2.2291 -1.6028  0.5481
  339MOL0     H45716   3.167   3.956   2.778  1.7917  0.7895  0.4624
  339MOL0     H45717   3.391   3.943   2.669  3.9618  1.3685  0.5653
  339MOL0     H45718   3.307   3.917   2.512  0.1379 -1.0684  1.8355
  339MOL0     H45719   3.455   4.101   2.406  0.1127 -1.3388 -0.4406
  339MOL0     H45720   3.469   4.178   2.563  0.8278 -0.6019  1.5586
  339MOL0     H45721   3.617   4.027   2.657 -2.9280 -1.3184  0.8090
  339MOL0     H45722   3.674   4.092   2.493 -1.5351 -0.6104 -0.6330
  339MOL0     H45723   3.526   3.820   2.513 -1.3787  1.6944 -0.0085
  339MOL0     H45724   3.689   3.823   2.571  1.0668 -0.0746 -1.1613
  339MOL0     H45725   3.868   4.055   2.379  1.1661 -0.4973 -2.5068
  339MOL0     H45726   4.113   3.979   2.342 -0.8036  0.4540 -1.2982
  339MOL0     H45727   4.286   3.372   2.222 -1.9743  2.4574 -1.0838
  339MOL0     H45728   4.485   3.254   2.221 -2.5470 -1.1698  5.3065
  339MOL0     H45729   4.850   3.452   2.366  2.2191 -2.1096 -1.8205
  339MOL0     H45730   4.754   3.367   2.500 -0.9405 -1.0726 -0.0271
  339MOL0     H45731   4.895   3.165   2.338  1.9322 -0.7717  0.4228
  339MOL0     H45732   5.001   3.295   2.403 -0.9753  1.8165  1.7194
  339MOL0     H45733   4.817   3.143   2.584 -0.5395  1.3409 -0.1286
  339MOL0     H45734   4.981   3.089   2.558 -0.9125 -1.1944 -1.7890
  339MOL0     H45735   4.890   3.337   2.679 -0.3522 -1.2212  0.9076
  339MOL0     H45736   5.058   3.326   2.620  2.4612  0.1476  5.7278
  339MOL0     H45737   5.038   3.296   2.860  2.8404 -0.2231 -0.3928
  339MOL0     H45738   5.096   3.150   2.780  0.8237  0.2593 -1.4437
  339MOL0     H45739   4.894   3.036   2.809 -1.2867  1.7170 -2.4149
  339MOL0     H45740   4.925   3.104   2.966  1.4780  0.5884 -0.5050
  339MOL0     H45741   4.683   3.109   2.906 -3.1438  2.5959  0.3684
  339MOL0     H45742   4.722   3.222   2.774  0.3329 -0.9737 -1.0884
  339MOL0     H45743   4.629   3.327   2.976 -1.2124  1.7705  3.2244
  339MOL0     H45744   4.774   3.289   3.072  0.2656 -2.0832 -1.3092
  339MOL0     H45745   4.698   3.590   2.359  0.1183 -1.0548  3.3959
  339MOL0     H45746   4.501   3.720   2.381 -2.9906 -0.6003  2.0765
  339MOL0     H45747   3.991   3.566   2.349  1.0879  0.7504  4.8044
  339MOL0     H45748   3.770   3.633   2.378  0.3826 -0.4416 -2.9679
  339MOL0     H45749   2.094   4.245   2.152 -1.1184 -1.5579 -0.1757
  339MOL0     H45750   1.888   4.294   2.036 -0.1877  0.5608 -0.4260
  339MOL0     H45751   1.658   4.499   1.869 -0.2964 -0.6102  1.0258
  339MOL0     H45752   1.492   4.599   1.710  0.9893 -0.4588 -1.1112
  339MOL0     H45753   1.086   4.562   1.767  2.3272 -1.2289  1.3816
  339MOL0     H45754   1.098   4.407   1.694 -1.0729  1.2256 -1.1626
  339MOL0     H45755   1.163   4.522   1.474  0.3425  1.9351 -0.8873
  339MOL0     H45756   1.106   4.672   1.552 -1.4829  1.1269  0.2177
  339MOL0     H45757   0.882   4.553   1.580 -0.8849  0.1280 -0.2692
  339MOL0     H45758   0.943   4.433   1.462 -0.1244  0.3190 -1.0608
  339MOL0     H45759   0.948   4.600   1.288 -1.0291 -0.4518 -1.5894
  339MOL0     H45760   0.788   4.597   1.349  0.6231 -2.0617  2.8378
  339MOL0     H45761   0.912   5.004   1.417 -1.0969 -0.4534  1.9938
  339MOL0     H45762   1.195   4.343   1.875  0.3284 -0.8068  0.0380
  339MOL0     H45763   1.237   4.204   2.082  0.4729 -3.0068  0.1728
  339MOL0     H45764   1.393   4.136   2.051 -0.3542  1.0901  1.1251
  339MOL0     H45765   1.372   4.265   2.180 -1.6953  2.0979  0.4283
  340MOL0     O45766   0.525   2.173   2.259 -0.7176 -0.3110 -0.2236
  340MOL0     C45767   0.519   2.272   2.187 -0.0925 -0.3319  0.5427
  340MOL0     O45768   0.403   2.325   2.141 -0.0836  0.6184 -0.0925
  340MOL0     C45769   0.282   2.319   2.199 -0.1468 -0.4398 -0.7775
  340MOL0     C45770   0.168   2.336   2.122  0.2391 -0.1534 -0.0877
  340MOL0     C45771   0.044   2.334   2.178  0.6334 -0.2109 -0.0859
  340MOL0     C45772   0.023   2.312   2.314 -0.6248  0.1238  0.5865
  340MOL0     O45773  -0.114   2.303   2.351 -0.2558 -0.0673  0.0098
  340MOL0     C45774  -0.153   2.273   2.485 -0.1151  0.3657  0.1326
  340MOL0     C45775  -0.308   2.259   2.501  0.0020  0.6307 -0.3630
  340MOL0     C45776  -0.363   2.124   2.431 -0.2556 -0.0665 -0.5907
  340MOL0     C45777  -0.355   2.000   2.527  0.1419  0.7525  0.1336
  340MOL0     C45778  -0.395   1.859   2.475  0.0347 -0.7658  0.0817
  340MOL0     C45779  -0.264   1.799   2.415 -0.0208 -0.5619  0.0011
  340MOL0     C45780  -0.304   1.659   2.371  0.2244  0.5954 -0.7603
  340MOL0     C45781  -0.181   1.579   2.321 -0.0690  0.3672  0.0027
  340MOL0     N45782  -0.167   1.441   2.373 -0.6828 -0.0849  0.2900
  340MOL0     C45783  -0.148   1.336   2.292  0.0190 -0.5090 -0.0964
  340MOL0     C45784  -0.114   1.237   2.377 -0.3486 -0.4953  0.4505
  340MOL0     C45785  -0.061   1.105   2.333  0.0044 -0.7035  1.2220
  340MOL0     C45786   0.097   1.123   2.335  0.0017  0.4362  0.6458
  340MOL0     C45787   0.154   0.991   2.270 -0.3617  0.9840 -0.2802
  340MOL0     C45788   0.116   0.860   2.340  0.2489  0.0244  0.2783
  340MOL0     O45789   0.204   0.751   2.301 -0.5072  0.8871  0.7270
  340MOL0     C45790   0.340   0.752   2.338 -0.7392 -0.1942  0.4237
  340MOL0     C45791   0.397   0.834   2.439 -0.7026  0.4175  0.1860
  340MOL0     C45792   0.530   0.822   2.482  1.2524 -1.0731  0.0689
  340MOL0     C45793   0.617   0.729   2.425  0.5313 -1.4350 -0.9073
  340MOL0     C45794   0.762   0.730   2.450  0.2437  0.3478 -0.0536
  340MOL0     O45795   0.842   0.659   2.359  0.6837  0.1366  1.0869
  340MOL0     C45796   0.979   0.625   2.378 -0.8741 -0.6612 -0.2186
  340MOL0     C45797   1.042   0.550   2.278 -0.2865  0.5775 -0.0760
  340MOL0     C45798   1.184   0.523   2.276  0.4320 -0.1525 -1.1428
  340MOL0     C45799   1.266   0.554   2.380  1.3270 -0.7324  0.3467
  340MOL0     O45800   1.387   0.524   2.397  0.1212  0.2944  0.7592
  340MOL0     C45801   1.444   0.441   2.285 -1.1334 -0.5083 -0.1312
  340MOL0     C45802   1.583   0.383   2.326  0.5916 -0.1854  0.3043
  340MOL0     C45803   1.673   0.507   2.360 -0.1391  0.3183  0.3362
  340MOL0     C45804   1.821   0.455   2.379 -0.2789  0.7175 -0.1707
  340MOL0     C45805   1.917   0.552   2.445  0.1439 -0.1888  0.5986
  340MOL0     C45806   2.063   0.508   2.440 -0.0545  0.0770  0.3880
  340MOL0     C45807   2.143   0.629   2.506 -0.5725 -0.7259  0.4899
  340MOL0     C45808   2.289   0.611   2.478 -0.1581  0.9875 -0.5951
  340MOL0    Cl45809   2.360   0.755   2.546  0.0658 -0.0964 -0.2350
  340MOL0     C45810   1.203   0.633   2.477 -0.0763  0.3848  0.2182
  340MOL0     C45811   1.070   0.677   2.478  0.3057 -0.5970  1.0168
  340MOL0     O45812   0.806   0.793   2.547  0.0591 -0.4855  0.1894
  340MOL0     C45813   0.562   0.645   2.326 -0.4120 -0.0136  0.2713
  340MOL0     C45814   0.428   0.661   2.284  0.3840  0.0586  0.5358
  340MOL0     N45815  -0.114   1.280   2.503  0.5638 -0.1281 -0.1563
  340MOL0     N45816  -0.151   1.396   2.503 -0.7765 -0.1674 -0.0180
  340MOL0     C45817   0.135   2.296   2.391  0.1844 -0.1889  0.2133
  340MOL0     C45818   0.263   2.309   2.338 -0.0363 -0.3472  1.0304
  340MOL0     C45819   0.638   2.322   2.118  0.0748 -0.2766  0.5721
  340MOL0     C45820   0.624   2.402   2.001  0.0081 -1.1375  0.3429
  340MOL0     C45821   0.729   2.443   1.920  0.4237 -0.5370 -0.4906
  340MOL0     C45822   0.854   2.415   1.958  1.1271 -0.3549 -0.6547
  340MOL0     O45823   0.956   2.465   1.864 -0.0794  0.0982 -0.3544
  340MOL0     C45824   1.093   2.439   1.896 -0.4975  0.2545  0.3096
  340MOL0     C45825   1.172   2.530   1.796 -0.2915 -0.4366  0.8070
  340MOL0     C45826   1.144   2.674   1.815 -0.7106 -1.0448 -0.8420
  340MOL0     C45827   1.057   2.729   1.710 -0.5716 -0.2401 -0.0489
  340MOL0     C45828   1.129   2.725   1.580  0.4434 -0.0283  0.0045
  340MOL0     C45829   1.197   2.714   1.477  0.2322 -0.6579  0.3080
  340MOL0     C45830   0.875   2.329   2.070 -0.3130 -0.4067  0.2104
  340MOL0     C45831   0.767   2.276   2.147 -0.9181  0.2137 -0.1393
  340MOL0     C45832   0.808   2.192   2.267 -0.8084 -0.5132  0.1410
  340MOL0     H45833   0.174   2.354   2.016  1.3260  1.2460  0.1843
  340MOL0     H45834  -0.044   2.339   2.115 -2.9497 -0.8160  4.3644
  340MOL0     H45835  -0.106   2.179   2.515  0.2416  0.2635 -0.7185
  340MOL0     H45836  -0.111   2.355   2.545 -0.9150  0.7897  0.1291
  340MOL0     H45837  -0.351   2.344   2.448  0.1420 -0.5772 -2.5487
  340MOL0     H45838  -0.322   2.254   2.609  3.0210  2.6895  0.2572
  340MOL0     H45839  -0.311   2.105   2.337  2.3915 -2.4776  1.1821
  340MOL0     H45840  -0.468   2.148   2.414 -0.5710  2.0470  3.1587
  340MOL0     H45841  -0.251   1.991   2.562  0.6642 -1.7381 -1.7393
  340MOL0     H45842  -0.414   2.023   2.616 -1.0739  0.7441 -0.6571
  340MOL0     H45843  -0.409   1.799   2.566  2.9905 -1.2431  0.3470
  340MOL0     H45844  -0.486   1.868   2.416  0.0791  2.7044  0.3428
  340MOL0     H45845  -0.235   1.866   2.333 -1.6590 -3.2377 -3.0385
  340MOL0     H45846  -0.187   1.787   2.491  0.0715 -0.7643 -0.1239
  340MOL0     H45847  -0.385   1.653   2.299  2.6968 -1.7786 -3.5913
  340MOL0     H45848  -0.346   1.607   2.458 -2.9371  2.2403 -1.1585
  340MOL0     H45849  -0.197   1.574   2.213 -0.6821 -0.0599  0.1070
  340MOL0     H45850  -0.097   1.642   2.351  0.2053  0.5230 -1.0544
  340MOL0     H45851  -0.159   1.335   2.185 -0.1829  1.7326 -0.1439
  340MOL0     H45852  -0.090   1.025   2.402 -2.5838 -0.4274  0.5762
  340MOL0     H45853  -0.109   1.078   2.238  0.7462  0.7932  0.3901
  340MOL0     H45854   0.142   1.218   2.303  2.0000  1.8118  6.2962
  340MOL0     H45855   0.127   1.120   2.440  0.0084 -1.2043  0.6100
  340MOL0     H45856   0.263   0.999   2.268 -0.0106 -2.2004  0.7691
  340MOL0     H45857   0.125   0.992   2.165 -0.8286  1.1202 -0.1503
  340MOL0     H45858   0.015   0.831   2.312  0.6400  0.1226 -1.3421
  340MOL0     H45859   0.126   0.872   2.448  1.9193  0.5225  0.1058
  340MOL0     H45860   0.343   0.918   2.482 -1.3391  0.3500 -0.4644
  340MOL0     H45861   0.561   0.886   2.563  1.2388 -3.1990  1.8365
  340MOL0     H45862   0.976   0.523   2.196 -3.4255  2.5482  1.6005
  340MOL0     H45863   1.227   0.473   2.189  3.5527  2.2286 -1.1550
  340MOL0     H45864   1.377   0.358   2.264 -1.2100 -0.7624  1.0607
  340MOL0     H45865   1.456   0.499   2.193 -0.3077  0.2460  0.4283
  340MOL0     H45866   1.573   0.302   2.399 -3.8060 -2.4527 -2.3743
  340MOL0     H45867   1.625   0.329   2.240 -2.6677 -2.6784  0.0893
  340MOL0     H45868   1.663   0.585   2.284 -0.9386  0.6824  0.7933
  340MOL0     H45869   1.636   0.557   2.451  0.9584  0.6436  0.6188
  340MOL0     H45870   1.858   0.420   2.282 -0.2477 -0.2493  0.1769
  340MOL0     H45871   1.817   0.369   2.447 -0.7494 -1.0288 -2.2823
  340MOL0     H45872   1.883   0.571   2.547 -3.5715 -0.3522 -0.4698
  340MOL0     H45873   1.898   0.643   2.387 -1.6224 -0.1050  1.2586
  340MOL0     H45874   2.072   0.411   2.491  1.8703  0.9096  1.7383
  340MOL0     H45875   2.087   0.492   2.334 -2.8519  1.6165 -0.5749
  340MOL0     H45876   2.131   0.625   2.615  0.4714  1.2095  0.7203
  340MOL0     H45877   2.124   0.731   2.473 -0.7718 -0.6210  0.9181
  340MOL0     H45878   2.324   0.519   2.525 -0.9323  2.0238  2.2003
  340MOL0     H45879   2.314   0.626   2.372 -0.6151  3.1782 -0.4539
  340MOL0     H45880   1.258   0.685   2.555  0.3883 -0.3553  0.3944
  340MOL0     H45881   1.047   0.752   2.554  1.6854  0.3359  0.5438
  340MOL0     H45882   0.619   0.567   2.277  1.4602  0.8713  0.9411
  340MOL0     H45883   0.390   0.597   2.205  3.7203 -2.1639  0.5323
  340MOL0     H45884   0.124   2.282   2.498  0.5034  1.7237  0.5332
  340MOL0     H45885   0.354   2.309   2.399  0.4083 -0.7860  0.3771
  340MOL0     H45886   0.526   2.419   1.957 -0.0229 -0.5424  0.6230
  340MOL0     H45887   0.703   2.505   1.835 -1.8661 -0.8265 -0.0707
  340MOL0     H45888   1.130   2.336   1.900 -1.8552 -0.2342  1.0730
  340MOL0     H45889   1.116   2.473   1.998  4.8840 -1.9627  0.1772
  340MOL0     H45890   1.160   2.486   1.697  1.3666 -2.3871  1.3989
  340MOL0     H45891   1.275   2.512   1.829 -0.7415 -0.9433  2.0009
  340MOL0     H45892   1.240   2.725   1.823 -1.1495 -0.4992  1.7499
  340MOL0     H45893   1.105   2.686   1.916  3.0335 -0.8248  0.7478
  340MOL0     H45894   0.961   2.678   1.695 -3.0261  3.6226  1.1852
  340MOL0     H45895   1.029   2.831   1.738  2.1475  0.8783 -1.0846
  340MOL0     H45896   1.248   2.682   1.388 -2.7706 -0.2465 -1.7142
  340MOL0     H45897   0.973   2.289   2.094 -0.5112  0.1621  2.1624
  340MOL0     H45898   0.912   2.210   2.294 -1.4612  0.7708  2.0009
  340MOL0     H45899   0.756   2.223   2.357  0.5167  0.0703  0.7331
  340MOL0     H45900   0.795   2.086   2.244  1.0221 -1.0418  1.3431
  341MOL0     O45901   5.959   9.720  10.593  0.2477  0.0607  0.3312
  341MOL0     C45902   5.853   9.764  10.544 -0.5408 -0.0820  1.1925
  341MOL0     O45903   5.824   9.745  10.407 -0.3012 -1.2429 -0.2132
  341MOL0     C45904   5.926   9.695  10.328  0.4733  0.4956 -0.0591
  341MOL0     C45905   5.997   9.780  10.244 -1.1663  0.3192  0.3334
  341MOL0     C45906   6.093   9.715  10.163  0.1684 -0.3245  0.3613
  341MOL0     C45907   6.119   9.572  10.166  0.9848 -0.8976  0.3180
  341MOL0     O45908   6.218   9.521  10.098 -0.8396 -0.1503 -0.2971
  341MOL0     C45909   6.221   9.373  10.085  0.2171 -0.0606 -0.1438
  341MOL0     C45910   6.304   9.330   9.969 -0.3008 -1.7070 -0.5941
  341MOL0     C45911   6.277   9.183   9.943 -0.1741  0.2284 -0.2054
  341MOL0     C45912   6.353   9.136   9.816 -0.0501  0.7186 -0.3706
  341MOL0     C45913   6.294   9.000   9.769 -0.5195 -0.3883 -0.5915
  341MOL0     C45914   6.344   8.893   9.865  0.4130 -0.3146 -0.6139
  341MOL0     C45915   6.267   8.766   9.829  0.5907 -0.3310  0.2099
  341MOL0     C45916   6.327   8.651   9.916 -0.1617 -0.3308 -0.5056
  341MOL0     N45917   6.470   8.626   9.918  0.3109 -0.2699  0.2606
  341MOL0     C45918   6.537   8.613  10.035  0.5379  0.2196 -0.1886
  341MOL0     C45919   6.652   8.558  10.003 -0.1454  0.5058  0.3366
  341MOL0     C45920   6.741   8.515  10.110 -0.4802  0.0420 -0.5895
  341MOL0     C45921   6.863   8.614  10.118 -0.9209 -0.4045 -0.1004
  341MOL0     C45922   6.967   8.562  10.222 -0.7269 -0.7216  0.0406
  341MOL0     C45923   7.089   8.647  10.246 -0.1933  0.2695 -0.9823
  341MOL0     O45924   7.161   8.672  10.123  0.2564 -0.7401  0.3043
  341MOL0     C45925   7.278   8.738  10.132 -0.2185  0.1371  0.5881
  341MOL0     C45926   7.367   8.732  10.030 -0.3829  0.0111  0.2103
  341MOL0     C45927   7.493   8.790  10.034  0.1662  0.9546 -0.3870
  341MOL0     C45928   7.532   8.875  10.144  0.2625  0.8877  0.6641
  341MOL0     C45929   7.663   8.939  10.144 -0.7637 -0.4536  0.6728
  341MOL0     O45930   7.746   8.938  10.030  0.4719 -0.2037  0.0748
  341MOL0     C45931   7.879   8.982  10.019 -0.6414  0.4874  0.8475
  341MOL0     C45932   7.943   8.933   9.910 -0.3574  0.1094 -0.1286
  341MOL0     C45933   8.081   8.963   9.884  0.1375  1.0978 -0.6915
  341MOL0     C45934   8.160   9.031   9.979  0.3561 -0.1328  0.8281
  341MOL0     O45935   8.292   9.068   9.962  0.3574 -0.2491  0.2363
  341MOL0     C45936   8.343   9.098   9.829 -0.4840 -0.1815  0.2182
  341MOL0     C45937   8.420   8.980   9.768  0.0157  0.3568 -0.3368
  341MOL0     C45938   8.500   8.900   9.872 -1.1125 -0.2174  0.8782
  341MOL0     C45939   8.612   8.977   9.943 -0.0593  0.0917  0.1347
  341MOL0     C45940   8.682   8.892  10.050  0.1252 -0.1387  0.8103
  341MOL0     C45941   8.740   8.768   9.991  0.1689 -0.6595  0.3003
  341MOL0     C45942   8.831   8.698  10.096  0.4329  0.6585  0.4638
  341MOL0     C45943   8.838   8.545  10.078 -0.4371 -0.1912  0.1050
  341MOL0    Cl45944   8.669   8.480  10.083  0.2179  0.2645  0.1725
  341MOL0     C45945   8.090   9.072  10.099 -0.2289 -0.0537 -0.4960
  341MOL0     C45946   7.953   9.052  10.107  0.5262  0.6074 -0.1851
  341MOL0     O45947   7.701   8.987  10.251 -0.3875 -0.2622 -0.0049
  341MOL0     C45948   7.437   8.877  10.248 -0.1817 -0.1356  0.0111
  341MOL0     C45949   7.313   8.811  10.245 -0.7861  0.0680 -0.0392
  341MOL0     N45950   6.668   8.541   9.863  0.5639  0.2766 -0.0594
  341MOL0     N45951   6.558   8.594   9.813 -0.1975 -0.3866 -0.4274
  341MOL0     C45952   6.038   9.498  10.251  0.3651 -0.0601  0.3431
  341MOL0     C45953   5.937   9.554  10.327  0.4793 -0.1727 -0.1582
  341MOL0     C45954   5.750   9.831  10.632  0.2045  0.0520  0.3661
  341MOL0     C45955   5.779   9.839  10.768 -0.2922 -0.0868 -0.8815
  341MOL0     C45956   5.686   9.888  10.863  0.3289  0.6166  0.0507
  341MOL0     C45957   5.575   9.945  10.815  0.5113 -0.4070 -0.9431
  341MOL0     O45958   5.495   9.981  10.919 -0.4357 -0.8668  0.0115
  341MOL0     C45959   5.372  10.044  10.886  0.1345  0.4811  0.1296
  341MOL0     C45960   5.287  10.050  11.014  0.4362  0.9254  0.1473
  341MOL0     C45961   5.133  10.031  10.994 -0.3490  1.3039 -0.6299
  341MOL0     C45962   5.074  10.099  10.875  0.0623  0.1107 -0.5918
  341MOL0     C45963   5.086  10.246  10.888  0.1197  0.4096  0.6631
  341MOL0     C45964   5.096  10.367  10.907 -0.0677  0.0011 -0.1186
  341MOL0     C45965   5.552   9.970  10.678 -0.2048  0.5368  0.1904
  341MOL0     C45966   5.638   9.904  10.589 -0.0920  0.1966  0.2757
  341MOL0     C45967   5.596   9.920  10.442  0.8402 -0.0309  0.3078
  341MOL0     H45968   5.967   9.885  10.240 -0.0209  0.8480  3.2857
  341MOL0     H45969   6.153   9.790  10.114  0.3588 -1.5682 -1.3984
  341MOL0     H45970   6.261   9.328  10.176  2.5871  2.2324  0.0769
  341MOL0     H45971   6.118   9.342  10.067 -0.6615  3.2804 -1.7354
  341MOL0     H45972   6.408   9.335  10.002 -0.6763 -2.0738  0.6984
  341MOL0     H45973   6.290   9.385   9.875 -1.3657 -1.9517 -0.5929
  341MOL0     H45974   6.170   9.168   9.929 -0.2960 -0.1936  1.0319
  341MOL0     H45975   6.305   9.124  10.031 -1.7280  0.3359  0.3911
  341MOL0     H45976   6.331   9.208   9.736 -1.2241  1.8436  0.9248
  341MOL0     H45977   6.460   9.121   9.832 -0.2789 -1.1716 -0.4096
  341MOL0     H45978   6.185   9.009   9.780 -0.2327  2.7929  0.9541
  341MOL0     H45979   6.326   8.985   9.666  2.5506  1.1191  0.0075
  341MOL0     H45980   6.451   8.878   9.849  0.6738  1.8200 -1.1765
  341MOL0     H45981   6.330   8.922   9.969 -1.6777  2.8608 -1.6289
  341MOL0     H45982   6.281   8.746   9.722 -1.9783 -0.7163 -0.1129
  341MOL0     H45983   6.159   8.776   9.835  0.3674  0.5702 -3.2212
  341MOL0     H45984   6.302   8.669  10.021  0.4778  2.7160 -0.7815
  341MOL0     H45985   6.277   8.565   9.872  1.0208 -1.6785  0.6746
  341MOL0     H45986   6.500   8.631  10.135 -0.0905  3.1349 -0.8504
  341MOL0     H45987   6.687   8.506  10.205  3.7635 -1.2317  1.9905
  341MOL0     H45988   6.782   8.415  10.094  1.4756  0.0377  3.1355
  341MOL0     H45989   6.912   8.625  10.020  0.0493  2.2815  0.6110
  341MOL0     H45990   6.828   8.708  10.162  2.6232  1.1220 -0.1919
  341MOL0     H45991   6.996   8.462  10.187 -1.5368 -0.9976  0.1419
  341MOL0     H45992   6.915   8.563  10.319 -0.2215  3.2340  0.4424
  341MOL0     H45993   7.150   8.604  10.326  1.1757 -1.2147 -2.7304
  341MOL0     H45994   7.048   8.737  10.291  0.9462 -0.5228  1.8708
  341MOL0     H45995   7.351   8.659   9.952  2.9974  1.3682 -1.9482
  341MOL0     H45996   7.565   8.775   9.954  0.1601 -0.1254 -0.2120
  341MOL0     H45997   7.877   8.877   9.844 -2.4588 -1.5988  3.0854
  341MOL0     H45998   8.124   8.912   9.798 -0.8607 -1.6001  0.2733
  341MOL0     H45999   8.265   9.132   9.761 -1.8305  0.6948  2.1186
  341MOL0     H46000   8.416   9.178   9.845 -0.8564  0.3075 -0.5116
  341MOL0     H46001   8.342   8.919   9.722 -1.6662  3.0636 -1.3297
  341MOL0     H46002   8.484   9.017   9.687  0.7582 -1.9357 -0.8563
  341MOL0     H46003   8.432   8.848   9.940 -0.4936 -1.3049  0.6861
  341MOL0     H46004   8.554   8.826   9.812  0.3656  1.3076  0.2661
  341MOL0     H46005   8.578   9.064  10.000 -1.0550  0.0046 -0.3007
  341MOL0     H46006   8.684   9.014   9.870  2.1846  0.2485  2.3181
  341MOL0     H46007   8.615   8.869  10.133  0.0527  0.8485  1.0479
  341MOL0     H46008   8.754   8.965  10.091 -0.1853  1.1497 -0.8240
  341MOL0     H46009   8.668   8.698   9.948  1.8521 -0.4615 -3.2715
  341MOL0     H46010   8.797   8.818   9.912 -1.0105  0.9710  0.4325
  341MOL0     H46011   8.813   8.720  10.202  2.2678 -1.3032  1.2834
  341MOL0     H46012   8.930   8.737  10.069  0.0420  1.0847 -0.3849
  341MOL0     H46013   8.895   8.516   9.990  1.0103  0.2665  0.8605
  341MOL0     H46014   8.888   8.503  10.165 -2.6406 -2.5083  0.3851
  341MOL0     H46015   8.147   9.112  10.182  0.4372 -2.0944  0.0766
  341MOL0     H46016   7.904   9.091  10.196 -0.0658  1.4081 -0.8476
  341MOL0     H46017   7.472   8.937  10.332  1.5844  1.7036 -1.9155
  341MOL0     H46018   7.244   8.817  10.328  0.5595  0.0200  1.1081
  341MOL0     H46019   6.066   9.394  10.268  0.2846 -0.2806 -0.8006
  341MOL0     H46020   5.875   9.503  10.400  0.1357 -0.6951 -0.8061
  341MOL0     H46021   5.873   9.795  10.799 -0.2953  0.6255  0.2082
  341MOL0     H46022   5.718   9.875  10.966 -0.5958  0.4572  0.3236
  341MOL0     H46023   5.326   9.985  10.807  2.2031  1.5745 -2.0332
  341MOL0     H46024   5.404  10.141  10.847  3.6796 -0.9383 -0.8531
  341MOL0     H46025   5.307  10.147  11.061  0.0385  0.8339  0.5146
  341MOL0     H46026   5.324   9.978  11.088 -1.3377 -3.3587 -2.7056
  341MOL0     H46027   5.087  10.075  11.083 -1.9234 -0.9891 -0.2327
  341MOL0     H46028   5.107   9.926  10.986 -0.7767  1.4103 -0.6512
  341MOL0     H46029   5.099  10.063  10.775 -1.6162 -0.1267 -0.9578
  341MOL0     H46030   4.967  10.076  10.874 -0.0150  0.2684 -3.0691
  341MOL0     H46031   5.120  10.468  10.934  3.3483 -0.2418 -1.7981
  341MOL0     H46032   5.471  10.038  10.654 -1.4465 -0.9699 -0.1204
  341MOL0     H46033   5.683   9.961  10.390  0.9698 -1.0525 -0.3010
  341MOL0     H46034   5.558   9.831  10.392  0.9238 -1.1709  2.1819
  341MOL0     H46035   5.515   9.991  10.419  2.4981  1.6211 -0.7023
  342MOL0     O46036   5.127   3.808   7.039  0.3763 -0.5216  0.3351
  342MOL0     C46037   5.053   3.907   7.007 -0.6982 -0.1668 -0.5136
  342MOL0     O46038   5.093   4.032   6.997  0.5569  0.2811 -0.9348
  342MOL0     C46039   5.230   4.054   6.982  1.4600  0.5259 -0.7647
  342MOL0     C46040   5.282   4.073   6.859  0.3798  0.2405  0.4489
  342MOL0     C46041   5.419   4.109   6.838 -0.6410 -0.0076  0.7002
  342MOL0     C46042   5.509   4.131   6.944  0.6484  0.5007  0.9520
  342MOL0     O46043   5.643   4.172   6.928  0.2521 -0.2200  0.9602
  342MOL0     C46044   5.669   4.267   6.818 -0.1175 -0.1638 -0.6442
  342MOL0     C46045   5.801   4.346   6.855  0.4396  0.3377  0.3346
  342MOL0     C46046   5.814   4.481   6.782  0.4481 -0.1564 -0.4518
  342MOL0     C46047   5.963   4.531   6.791  0.2105  0.7474 -0.4023
  342MOL0     C46048   5.994   4.641   6.689 -0.1324  0.5274 -0.2663
  342MOL0     C46049   6.134   4.693   6.706  0.0084  0.0854  0.0145
  342MOL0     C46050   6.162   4.801   6.599  0.2201 -0.1889 -0.4099
  342MOL0     C46051   6.231   4.741   6.471 -0.4540 -0.4971 -0.8954
  342MOL0     N46052   6.353   4.667   6.513 -0.0950 -0.4736  0.1038
  342MOL0     C46053   6.469   4.716   6.558  0.7479  0.6243 -0.3538
  342MOL0     C46054   6.549   4.613   6.584 -1.0387 -0.1300 -0.2144
  342MOL0     C46055   6.683   4.629   6.649  1.2318  0.0418 -0.5539
  342MOL0     C46056   6.793   4.580   6.555 -0.2426  0.6033 -0.8286
  342MOL0     C46057   6.926   4.557   6.639 -0.3240 -0.6411  0.4652
  342MOL0     C46058   7.038   4.524   6.548  0.1650 -0.0609 -0.1611
  342MOL0     O46059   7.152   4.610   6.560  0.4339 -0.0387 -0.4136
  342MOL0     C46060   7.266   4.575   6.490  0.0810 -0.3197 -0.1199
  342MOL0     C46061   7.277   4.477   6.387  0.9802 -0.3597 -0.0855
  342MOL0     C46062   7.402   4.454   6.328  0.4141 -0.6974  0.2775
  342MOL0     C46063   7.516   4.525   6.368  0.1806  0.1930 -0.2715
  342MOL0     C46064   7.637   4.517   6.286 -0.2108 -0.2809  0.3476
  342MOL0     O46065   7.631   4.458   6.157  0.0469 -0.0570 -0.0717
  342MOL0     C46066   7.748   4.465   6.084 -1.1517  0.2464 -0.3656
  342MOL0     C46067   7.798   4.579   6.033  0.2606  0.4824  0.0728
  342MOL0     C46068   7.929   4.572   5.980  0.1375  1.1428 -0.4260
  342MOL0     C46069   7.994   4.451   5.956 -0.0603 -0.5864 -0.2530
  342MOL0     O46070   8.115   4.448   5.896  0.8621 -0.7632 -0.1138
  342MOL0     C46071   8.162   4.555   5.809 -0.3141 -0.6595  0.1565
  342MOL0     C46072   8.273   4.502   5.721  0.3187  0.0432 -0.4815
  342MOL0     C46073   8.369   4.618   5.689 -1.1784 -0.0594  0.5960
  342MOL0     C46074   8.455   4.587   5.563 -0.6072 -0.1463  0.2311
  342MOL0     C46075   8.564   4.695   5.540  0.3258 -0.1235 -0.3058
  342MOL0     C46076   8.620   4.693   5.399 -0.1396 -0.6983  0.2618
  342MOL0     C46077   8.762   4.737   5.385 -0.7095 -0.1462  0.1136
  342MOL0     C46078   8.795   4.882   5.418  0.3590 -0.1389 -0.4986
  342MOL0    Cl46079   8.963   4.901   5.359  0.0031  0.0793  0.4255
  342MOL0     C46080   7.931   4.329   5.990 -0.2070 -0.3270  0.5507
  342MOL0     C46081   7.809   4.341   6.059 -0.8787  0.6158 -0.1857
  342MOL0     O46082   7.741   4.550   6.339  0.1255 -0.2363 -0.3006
  342MOL0     C46083   7.509   4.626   6.464  0.4873 -0.3637 -0.1351
  342MOL0     C46084   7.381   4.651   6.519  0.6781  0.4826 -1.3085
  342MOL0     N46085   6.477   4.493   6.561  0.1526 -0.0212  0.3251
  342MOL0     N46086   6.366   4.528   6.516 -0.1098  0.4755  0.3274
  342MOL0     C46087   5.449   4.118   7.072  0.5905  0.2089  0.1222
  342MOL0     C46088   5.314   4.080   7.098  0.4455 -0.8540  0.2346
  342MOL0     C46089   4.910   3.869   6.973 -0.6751 -0.2184  0.6422
  342MOL0     C46090   4.890   3.758   6.889 -0.2298 -0.5873  0.0024
  342MOL0     C46091   4.760   3.725   6.851  0.2532 -0.5819  0.2866
  342MOL0     C46092   4.647   3.807   6.887 -0.0745 -0.3179  0.7483
  342MOL0     O46093   4.524   3.790   6.837  0.7432 -0.4218  0.3781
  342MOL0     C46094   4.465   3.660   6.862  0.8045  0.2067 -0.8781
  342MOL0     C46095   4.437   3.624   7.011 -0.3616  0.2724  0.0085
  342MOL0     C46096   4.401   3.475   7.028  0.1973 -0.3426  0.2571
  342MOL0     C46097   4.351   3.455   7.167 -0.0942  0.0238 -0.3120
  342MOL0     C46098   4.228   3.527   7.197 -0.6746  0.2464 -0.7264
  342MOL0     C46099   4.130   3.578   7.237  0.3584 -0.6600  0.4053
  342MOL0     C46100   4.674   3.919   6.970 -0.5219  0.3680 -0.0801
  342MOL0     C46101   4.806   3.947   7.015 -0.4434  0.2788  0.6580
  342MOL0     C46102   4.814   4.066   7.106  0.6862 -0.0393  0.1136
  342MOL0     H46103   5.220   4.045   6.775  2.6840 -2.4290 -0.5100
  342MOL0     H46104   5.466   4.113   6.740  1.4019  0.1601  1.6191
  342MOL0     H46105   5.679   4.214   6.722 -1.6222  4.0158 -3.3894
  342MOL0     H46106   5.580   4.329   6.811  1.1632  1.7232 -0.8628
  342MOL0     H46107   5.885   4.278   6.837  1.4065  2.1065 -2.3235
  342MOL0     H46108   5.790   4.369   6.962  1.7001 -3.2453  1.3991
  342MOL0     H46109   5.749   4.562   6.817  0.5190  0.2185 -1.1797
  342MOL0     H46110   5.799   4.464   6.675  3.1315  1.5962 -1.2094
  342MOL0     H46111   5.988   4.571   6.890  0.3174  1.9391 -0.8955
  342MOL0     H46112   6.037   4.453   6.772 -0.5642  0.2029 -1.2762
  342MOL0     H46113   5.989   4.604   6.586  0.6306  0.8243 -0.4158
  342MOL0     H46114   5.921   4.722   6.699  0.9046  1.3742  0.5707
  342MOL0     H46115   6.130   4.734   6.808  0.1946  1.6884 -0.5896
  342MOL0     H46116   6.210   4.615   6.695  0.8552  0.9932 -0.8285
  342MOL0     H46117   6.229   4.875   6.645  0.0140 -1.5854  2.3523
  342MOL0     H46118   6.073   4.862   6.578  1.9543  2.1024 -1.6260
  342MOL0     H46119   6.159   4.682   6.414 -1.1571 -1.5097  0.9409
  342MOL0     H46120   6.264   4.828   6.414  1.2648  2.4195  3.8755
  342MOL0     H46121   6.489   4.821   6.578  2.1333 -0.2017  3.3994
  342MOL0     H46122   6.705   4.733   6.675 -0.4136  0.2482  0.1174
  342MOL0     H46123   6.668   4.566   6.737 -1.0445 -0.3743 -1.1700
  342MOL0     H46124   6.765   4.486   6.506  0.4589  0.8875 -1.8119
  342MOL0     H46125   6.804   4.646   6.469 -0.4795 -0.1128 -1.4201
  342MOL0     H46126   6.913   4.464   6.696  0.4285 -0.7472  0.4812
  342MOL0     H46127   6.950   4.630   6.717 -1.0764 -2.3569  2.3931
  342MOL0     H46128   7.007   4.516   6.443 -0.6268  0.6832  0.0006
  342MOL0     H46129   7.068   4.425   6.583  0.9176  0.7767  1.7033
  342MOL0     H46130   7.190   4.428   6.345 -1.4409  2.5840  1.2025
  342MOL0     H46131   7.408   4.405   6.231  3.2542 -2.7939  1.3811
  342MOL0     H46132   7.757   4.676   6.060  0.5180  0.5078  0.3857
  342MOL0     H46133   7.982   4.665   5.961  0.4149  1.5786  2.0229
  342MOL0     H46134   8.083   4.607   5.753 -0.4219  0.8411  1.6127
  342MOL0     H46135   8.191   4.634   5.879  2.3118 -1.9740  0.6714
  342MOL0     H46136   8.325   4.425   5.779 -0.2709 -0.6351 -0.8318
  342MOL0     H46137   8.232   4.454   5.632 -1.4569 -0.4689  0.5630
  342MOL0     H46138   8.306   4.706   5.675  1.3950  1.6530 -1.2293
  342MOL0     H46139   8.432   4.640   5.776 -2.1219 -0.8052  1.4869
  342MOL0     H46140   8.398   4.590   5.469  0.1742  2.1275 -0.2170
  342MOL0     H46141   8.498   4.486   5.568  1.9784  0.8146 -0.9666
  342MOL0     H46142   8.642   4.680   5.614  0.0939 -0.8176 -0.1994
  342MOL0     H46143   8.513   4.792   5.544 -2.7314 -1.5749 -0.8326
  342MOL0     H46144   8.613   4.590   5.361  0.1932 -0.3198 -0.8602
  342MOL0     H46145   8.553   4.755   5.339  0.8272 -0.4029 -0.5215
  342MOL0     H46146   8.768   4.736   5.276 -1.1158  0.9503  0.0586
  342MOL0     H46147   8.825   4.664   5.437  0.2459  0.4388 -0.1964
  342MOL0     H46148   8.732   4.959   5.371  1.3918  0.6984 -0.5448
  342MOL0     H46149   8.798   4.903   5.526  0.3345 -0.4613 -0.4347
  342MOL0     H46150   7.967   4.231   5.959  1.7349  1.6807 -4.6753
  342MOL0     H46151   7.764   4.247   6.089 -2.1082  1.5574  1.0421
  342MOL0     H46152   7.598   4.682   6.492 -1.1150  2.7078 -0.8176
  342MOL0     H46153   7.372   4.737   6.583  2.1758  0.2072 -0.6857
  342MOL0     H46154   5.503   4.153   7.159 -0.7421  1.0073  0.6625
  342MOL0     H46155   5.264   4.077   7.194 -0.7734 -1.2551 -0.3844
  342MOL0     H46156   4.969   3.702   6.840 -0.6935 -0.9015 -0.4040
  342MOL0     H46157   4.744   3.641   6.784  0.6184 -0.1182 -0.3977
  342MOL0     H46158   4.540   3.588   6.831 -0.0700 -1.0209 -0.2327
  342MOL0     H46159   4.371   3.653   6.806 -0.1941  1.2777  0.5499
  342MOL0     H46160   4.360   3.686   7.057 -1.5944 -1.0413 -0.2009
  342MOL0     H46161   4.527   3.629   7.073 -1.1394 -0.9870  1.2800
  342MOL0     H46162   4.489   3.414   7.007 -0.4969 -1.3845  0.2884
  342MOL0     H46163   4.318   3.444   6.963  0.6316 -2.3820  0.6056
  342MOL0     H46164   4.342   3.347   7.182  2.0473 -0.0900  0.5700
  342MOL0     H46165   4.427   3.481   7.242  1.5556  0.7981 -2.1398
  342MOL0     H46166   4.050   3.637   7.277  1.8940  0.6782  1.6340
  342MOL0     H46167   4.592   3.977   7.012  0.0785  0.9077  0.3638
  342MOL0     H46168   4.886   4.053   7.188 -2.6553 -0.7977  3.1701
  342MOL0     H46169   4.839   4.150   7.041  2.7276 -0.0099  0.8438
  342MOL0     H46170   4.716   4.088   7.148  0.6100 -0.1233 -0.0213
  343MOL0     O46171   5.049   1.986   1.747 -1.2248 -0.3896  0.4859
  343MOL0     C46172   5.018   2.015   1.860 -0.4144 -0.3793  0.7437
  343MOL0     O46173   4.887   2.023   1.905 -0.3060  0.2550  0.5502
  343MOL0     C46174   4.779   1.995   1.819  0.6724 -0.7097 -0.3873
  343MOL0     C46175   4.725   2.100   1.736  0.0908 -0.2962  0.8486
  343MOL0     C46176   4.616   2.073   1.649 -0.8082  0.6092  0.4421
  343MOL0     C46177   4.546   1.951   1.654 -0.6085  0.2845 -0.1745
  343MOL0     O46178   4.431   1.941   1.576 -0.7147 -0.3987  0.0530
  343MOL0     C46179   4.376   1.809   1.561  0.5002  0.1185  0.7592
  343MOL0     C46180   4.221   1.826   1.563 -0.7355  0.2143  0.4991
  343MOL0     C46181   4.177   1.917   1.449  0.5661 -0.4644 -0.0351
  343MOL0     C46182   4.021   1.898   1.445 -0.1732  0.5804  0.3256
  343MOL0     C46183   3.962   1.905   1.298  0.5047  0.5825  0.1333
  343MOL0     C46184   3.991   1.766   1.228 -0.2760  0.1991  0.4308
  343MOL0     C46185   4.037   1.776   1.082  0.9882 -0.1573 -0.2343
  343MOL0     C46186   3.938   1.869   1.011 -0.0477 -0.1047 -0.2722
  343MOL0     N46187   3.810   1.799   0.985 -0.0875  0.2582 -0.4907
  343MOL0     C46188   3.781   1.698   0.896  0.1018  0.9386 -0.2530
  343MOL0     C46189   3.656   1.654   0.924  0.4294 -0.3716 -0.1555
  343MOL0     C46190   3.580   1.554   0.845  0.2158  0.5940  0.6371
  343MOL0     C46191   3.579   1.413   0.909  0.1674  0.0400 -0.4003
  343MOL0     C46192   3.710   1.339   0.915 -0.2123  0.0411  0.6666
  343MOL0     C46193   3.731   1.247   1.033  0.5391  0.1826  0.2371
  343MOL0     O46194   3.851   1.187   0.988 -0.6619  0.3161  0.0184
  343MOL0     C46195   3.975   1.237   1.019  0.6250  0.9747  0.0399
  343MOL0     C46196   4.076   1.152   1.002  0.3748 -0.7279  0.0401
  343MOL0     C46197   4.212   1.184   1.040  0.9037  0.0937  0.5771
  343MOL0     C46198   4.242   1.304   1.095  0.5096 -0.5294  0.8292
  343MOL0     C46199   4.388   1.343   1.128  0.1120 -0.2825  0.7483
  343MOL0     O46200   4.479   1.243   1.127  0.0250  0.2467  0.3003
  343MOL0     C46201   4.609   1.281   1.141  0.7306 -0.8908  1.4013
  343MOL0     C46202   4.683   1.354   1.044 -0.2474  0.8603  0.4706
  343MOL0     C46203   4.812   1.385   1.051 -1.1707  0.8118 -0.4293
  343MOL0     C46204   4.882   1.328   1.156 -0.1329  0.4994 -0.1076
  343MOL0     O46205   5.012   1.345   1.172 -0.1126  0.5512 -1.0038
  343MOL0     C46206   5.098   1.331   1.061 -0.4981 -0.5117  0.3386
  343MOL0     C46207   5.111   1.186   1.009  0.0788 -0.1437 -0.5652
  343MOL0     C46208   5.149   1.093   1.127  0.0309 -0.0243  0.4555
  343MOL0     C46209   5.187   0.954   1.083  0.1293 -0.4655 -0.3344
  343MOL0     C46210   5.205   0.840   1.183  1.6157 -0.4293 -0.7834
  343MOL0     C46211   5.345   0.825   1.239 -0.3771  0.9272  0.5667
  343MOL0     C46212   5.352   0.712   1.343 -0.7133 -0.3473  0.1929
  343MOL0     C46213   5.494   0.644   1.360  0.7736  0.5501 -0.1746
  343MOL0    Cl46214   5.586   0.764   1.454  0.0236  0.1723 -0.0676
  343MOL0     C46215   4.816   1.243   1.258  0.1238 -0.0893  1.0462
  343MOL0     C46216   4.679   1.228   1.242 -0.4402  0.0312  0.2285
  343MOL0     O46217   4.409   1.464   1.157 -0.8116 -0.4136  0.8765
  343MOL0     C46218   4.134   1.401   1.105 -0.4910  1.0564 -0.6020
  343MOL0     C46219   4.006   1.361   1.075  0.1607  0.1306 -0.0722
  343MOL0     N46220   3.610   1.729   1.026 -0.6807 -0.4203 -0.1230
  343MOL0     N46221   3.699   1.805   1.070 -0.0292 -0.4149 -0.1589
  343MOL0     C46222   4.597   1.855   1.741  0.4545 -0.2945 -1.1866
  343MOL0     C46223   4.707   1.874   1.823  1.1852 -0.5202 -0.2281
  343MOL0     C46224   5.140   2.066   1.950 -0.0363  0.8697 -0.2691
  343MOL0     C46225   5.270   2.026   1.907  0.3056  0.0666  0.3137
  343MOL0     C46226   5.383   2.051   1.987 -0.3074  0.0506 -0.4025
  343MOL0     C46227   5.366   2.120   2.101 -0.7729  0.0584  0.2601
  343MOL0     O46228   5.484   2.165   2.173  0.7215  0.4242 -0.8014
  343MOL0     C46229   5.469   2.277   2.273 -0.1808 -0.2052  0.7326
  343MOL0     C46230   5.601   2.317   2.348  0.3295 -0.1599  0.1908
  343MOL0     C46231   5.721   2.362   2.246 -0.3867 -0.5408  0.5597
  343MOL0     C46232   5.849   2.389   2.321 -0.3545 -0.1362  0.2544
  343MOL0     C46233   5.960   2.386   2.233 -0.2083 -0.2681 -0.2358
  343MOL0     C46234   6.056   2.391   2.162 -0.8651  0.2482 -0.7852
  343MOL0     C46235   5.238   2.165   2.138 -0.0716 -0.3886 -0.0098
  343MOL0     C46236   5.118   2.136   2.069 -0.1060 -0.1159  0.0564
  343MOL0     C46237   4.988   2.188   2.128  0.1943  0.1160 -0.2644
  343MOL0     H46238   4.774   2.197   1.732  1.3042 -0.9260 -0.3289
  343MOL0     H46239   4.586   2.154   1.583  0.8039 -0.6067 -1.9237
  343MOL0     H46240   4.409   1.771   1.464  0.6489 -1.7862  1.5019
  343MOL0     H46241   4.399   1.730   1.633  2.8635  0.5196  0.5379
  343MOL0     H46242   4.197   1.873   1.658 -0.2127 -1.8695  1.7146
  343MOL0     H46243   4.161   1.735   1.555 -2.0650  1.1376 -0.5447
  343MOL0     H46244   4.231   1.887   1.359  0.3888  1.7503 -0.9291
  343MOL0     H46245   4.209   2.021   1.461  1.0452 -0.1782 -3.0934
  343MOL0     H46246   3.986   1.798   1.473 -1.7792  1.0119 -0.0638
  343MOL0     H46247   3.966   1.968   1.509 -5.4480 -2.8059  0.1516
  343MOL0     H46248   3.853   1.909   1.295  0.5025  0.6036  0.2357
  343MOL0     H46249   4.010   1.996   1.260 -0.2564  1.1725  0.5522
  343MOL0     H46250   4.085   1.728   1.271 -0.3385  1.7793  2.0687
  343MOL0     H46251   3.905   1.699   1.229 -0.5128  0.4654 -0.8817
  343MOL0     H46252   4.048   1.676   1.039  2.7275 -0.4544  0.8161
  343MOL0     H46253   4.139   1.811   1.065  1.2028 -0.0638  1.1356
  343MOL0     H46254   3.932   1.963   1.066 -4.7665  0.6135 -1.5789
  343MOL0     H46255   3.972   1.891   0.910 -1.8743 -0.4514 -1.0141
  343MOL0     H46256   3.832   1.664   0.807  3.0221 -1.5749  2.1649
  343MOL0     H46257   3.473   1.573   0.854  0.4962  1.3178  3.3002
  343MOL0     H46258   3.616   1.549   0.742  0.7863  1.0807  0.8065
  343MOL0     H46259   3.557   1.411   1.016 -1.3073 -1.9205 -0.6737
  343MOL0     H46260   3.492   1.366   0.861  0.0273  4.8133 -5.8212
  343MOL0     H46261   3.783   1.420   0.920 -1.2104  1.0965 -1.0063
  343MOL0     H46262   3.712   1.284   0.821  0.0284  0.7229  0.2682
  343MOL0     H46263   3.641   1.184   1.031 -0.1169  1.1152 -0.8308
  343MOL0     H46264   3.736   1.309   1.123  0.2498  2.8679 -1.4841
  343MOL0     H46265   4.039   1.057   0.962 -1.5424  0.1389 -0.3455
  343MOL0     H46266   4.290   1.108   1.038  1.7755  0.8230  2.9219
  343MOL0     H46267   4.654   1.393   0.947  2.8850 -2.1034 -1.9059
  343MOL0     H46268   4.866   1.453   0.986  0.3034 -2.9896 -3.6019
  343MOL0     H46269   5.061   1.387   0.975 -1.7207 -1.8425 -0.0280
  343MOL0     H46270   5.200   1.369   1.070  0.2385 -1.8135 -1.7443
  343MOL0     H46271   5.017   1.154   0.963  0.5370  0.7340 -2.2068
  343MOL0     H46272   5.171   1.177   0.918 -1.3900 -0.4122 -1.5342
  343MOL0     H46273   5.225   1.109   1.204  0.1890 -3.7543  1.2464
  343MOL0     H46274   5.053   1.093   1.179 -0.7488  0.5962 -0.9125
  343MOL0     H46275   5.272   0.951   1.014  0.2807 -0.2704 -0.1571
  343MOL0     H46276   5.104   0.915   1.023  1.9637 -0.9925 -2.6642
  343MOL0     H46277   5.181   0.746   1.133  1.5126 -2.1417  2.2456
  343MOL0     H46278   5.132   0.853   1.264  1.1406 -0.6271 -1.1792
  343MOL0     H46279   5.419   0.801   1.162 -1.9306 -2.4894 -0.0383
  343MOL0     H46280   5.363   0.923   1.285  0.9808  0.9631  0.0079
  343MOL0     H46281   5.282   0.640   1.300  0.9550 -1.1676 -1.2678
  343MOL0     H46282   5.313   0.753   1.437  0.1432  1.5875 -0.2401
  343MOL0     H46283   5.489   0.551   1.417 -1.1609 -0.0347 -1.2295
  343MOL0     H46284   5.538   0.625   1.262 -1.7635 -0.4881 -1.2005
  343MOL0     H46285   4.868   1.194   1.339  0.9269 -1.9616 -0.5500
  343MOL0     H46286   4.621   1.162   1.305  1.5404 -0.2669  1.8658
  343MOL0     H46287   4.136   1.497   1.155  1.9921  0.0034  1.5665
  343MOL0     H46288   3.927   1.433   1.093  1.3532  0.5971  4.4046
  343MOL0     H46289   4.545   1.763   1.766 -1.4744  0.5447 -1.9841
  343MOL0     H46290   4.733   1.791   1.888  0.3089 -0.6566 -0.0332
  343MOL0     H46291   5.291   1.979   1.811  0.0376  1.8362 -0.6428
  343MOL0     H46292   5.479   2.027   1.944  0.1556 -0.2730  0.7528
  343MOL0     H46293   5.397   2.244   2.348 -0.7037 -0.9730 -0.0789
  343MOL0     H46294   5.434   2.372   2.230  0.0622 -0.3228  0.2692
  343MOL0     H46295   5.630   2.236   2.415  3.0707  1.5427  1.2242
  343MOL0     H46296   5.572   2.401   2.411 -0.0064 -0.0244 -0.1381
  343MOL0     H46297   5.692   2.447   2.184  1.1576 -0.9153 -0.7264
  343MOL0     H46298   5.756   2.283   2.178  1.5278  1.0857 -0.4282
  343MOL0     H46299   5.829   2.481   2.377 -1.5283  0.2888 -0.8194
  343MOL0     H46300   5.858   2.304   2.390 -1.3609 -0.0870  0.4685
  343MOL0     H46301   6.137   2.402   2.093 -0.2958 -1.4235 -0.4380
  343MOL0     H46302   5.232   2.232   2.224 -1.8800  0.2915 -0.6330
  343MOL0     H46303   4.938   2.262   2.065  0.2864 -0.3069 -0.8465
  343MOL0     H46304   4.914   2.108   2.145  0.7666 -0.1846  0.9005
  343MOL0     H46305   5.007   2.244   2.220 -1.3213 -0.2944  0.3420
  344MOL0     O46306   8.770   6.239   6.479  0.4075  0.3198 -0.2865
  344MOL0     C46307   8.752   6.249   6.359  0.5084 -0.2564  0.4117
  344MOL0     O46308   8.844   6.258   6.263  0.6102 -0.9073 -0.3968
  344MOL0     C46309   8.975   6.251   6.321 -0.0478  0.6860 -0.4891
  344MOL0     C46310   9.035   6.131   6.337 -0.1618 -0.3044 -0.0132
  344MOL0     C46311   9.158   6.124   6.410  0.9936  0.1332  0.3697
  344MOL0     C46312   9.232   6.244   6.431 -0.0792 -0.3610  0.2917
  344MOL0     O46313   9.340   6.243   6.510 -0.0974 -0.2677 -0.2162
  344MOL0     C46314   9.432   6.132   6.516  0.4802  0.3174  0.1776
  344MOL0     C46315   9.561   6.187   6.450 -0.2751  0.0739  0.1883
  344MOL0     C46316   9.656   6.068   6.444  0.5128 -0.3315  0.3640
  344MOL0     C46317   9.788   6.109   6.371 -0.7603  0.0082 -0.0911
  344MOL0     C46318   9.875   5.995   6.308 -0.1910  0.1057  0.6644
  344MOL0     C46319   9.935   5.900   6.415 -0.4569  0.1314  0.0499
  344MOL0     C46320  10.081   5.878   6.415 -0.0339  0.9617 -0.3738
  344MOL0     C46321  10.135   5.805   6.540 -0.0840 -0.4683 -0.1700
  344MOL0     N46322  10.282   5.789   6.542  0.6533 -0.4111 -0.0544
  344MOL0     C46323  10.367   5.886   6.585 -0.6266 -0.0931  1.0618
  344MOL0     C46324  10.486   5.830   6.584 -0.0243 -0.0800  0.6407
  344MOL0     C46325  10.611   5.890   6.636 -0.0781  0.0216 -0.5349
  344MOL0     C46326  10.642   5.864   6.788  0.4841 -0.2111  0.0772
  344MOL0     C46327  10.732   5.972   6.849  0.1062 -0.5646  0.3351
  344MOL0     C46328  10.876   5.921   6.867  0.3072  0.9105 -0.3307
  344MOL0     O46329  10.928   5.979   6.990 -0.1761 -0.0717  0.5210
  344MOL0     C46330  11.047   5.934   7.034 -0.5808 -0.4165  0.1034
  344MOL0     C46331  11.158   5.960   6.956 -0.9299 -0.6126 -0.2216
  344MOL0     C46332  11.286   5.938   7.008  0.4576 -0.6877 -0.5035
  344MOL0     C46333  11.308   5.893   7.143  0.1537  0.3807 -0.9831
  344MOL0     C46334  11.431   5.895   7.222 -0.4599 -0.1125 -0.3136
  344MOL0     O46335  11.447   5.821   7.331  1.7622 -0.6859 -0.5090
  344MOL0     C46336  11.581   5.806   7.376  0.9364 -0.1945  0.6426
  344MOL0     C46337  11.610   5.813   7.512 -0.0015 -0.3907 -0.3803
  344MOL0     C46338  11.740   5.795   7.561  0.4264  0.7088  0.2459
  344MOL0     C46339  11.849   5.751   7.478  0.6614 -0.6741  0.0106
  344MOL0     O46340  11.976   5.721   7.513  0.5522 -0.0586  0.7891
  344MOL0     C46341  12.023   5.784   7.628 -0.7842  0.2890 -0.4036
  344MOL0     C46342  12.174   5.805   7.616 -0.2784  0.0395  0.0083
  344MOL0     C46343  12.227   5.827   7.753  0.2876 -0.1324 -1.0529
  344MOL0     C46344  12.373   5.880   7.754  0.0960  1.3372 -0.0686
  344MOL0     C46345  12.435   5.882   7.893  0.0906 -1.0150 -0.8933
  344MOL0     C46346  12.575   5.940   7.880 -0.5022  0.3978 -0.6175
  344MOL0     C46347  12.638   5.957   8.014 -0.0118  0.2979  0.1825
  344MOL0     C46348  12.780   6.009   7.999  0.7549  0.6584 -0.2029
  344MOL0    Cl46349  12.898   5.904   8.080 -0.2260 -0.0008  0.6610
  344MOL0     C46350  11.813   5.729   7.346 -0.3037  0.3906  0.1931
  344MOL0     C46351  11.682   5.748   7.295 -0.0438 -0.8444  0.5622
  344MOL0     O46352  11.519   5.964   7.174  0.4067  0.6805 -0.1440
  344MOL0     C46353  11.193   5.864   7.217 -0.4988 -0.2880 -0.4383
  344MOL0     C46354  11.063   5.887   7.158 -0.7013  0.1445  0.3436
  344MOL0     N46355  10.470   5.697   6.544 -0.2738 -0.4270 -0.0522
  344MOL0     N46356  10.344   5.677   6.524  0.0048 -0.1333  0.0579
  344MOL0     C46357   9.175   6.368   6.400  0.2333 -0.3116 -0.1772
  344MOL0     C46358   9.048   6.370   6.345  0.3734  0.6832 -0.2131
  344MOL0     C46359   8.604   6.239   6.320  0.0083 -0.2886  0.2788
  344MOL0     C46360   8.579   6.217   6.182  0.1025  0.2560  0.4999
  344MOL0     C46361   8.448   6.222   6.133  0.2843 -0.3953  0.0925
  344MOL0     C46362   8.337   6.235   6.215 -0.0412 -0.2298  0.6145
  344MOL0     O46363   8.201   6.236   6.184  0.1082 -0.0571  0.2931
  344MOL0     C46364   8.160   6.257   6.057  0.2560 -0.3383  0.4059
  344MOL0     C46365   8.112   6.406   6.037  0.4600  0.9085 -0.5983
  344MOL0     C46366   8.007   6.435   6.151 -0.7334 -0.9312  0.1732
  344MOL0     C46367   7.918   6.561   6.114  0.0997  0.6418  0.1024
  344MOL0     C46368   7.988   6.689   6.088  0.4132 -0.9232  0.9355
  344MOL0     C46369   8.037   6.803   6.070 -0.2420  0.2399  0.3260
  344MOL0     C46370   8.362   6.235   6.349 -0.1906 -0.0843  0.1463
  344MOL0     C46371   8.492   6.254   6.403 -0.0646  0.4512  0.6621
  344MOL0     C46372   8.498   6.271   6.551  0.7912  0.2893  0.7565
  344MOL0     H46373   8.976   6.046   6.304 -2.4759  0.3482  2.1521
  344MOL0     H46374   9.193   6.021   6.414  1.7584  0.3322 -0.8421
  344MOL0     H46375   9.452   6.098   6.618 -1.1407  0.4740  0.5761
  344MOL0     H46376   9.391   6.046   6.463  1.4311  0.6933 -1.2364
  344MOL0     H46377   9.604   6.269   6.508  1.9433 -1.6972  1.1992
  344MOL0     H46378   9.539   6.217   6.347  2.3010  2.9093  0.3249
  344MOL0     H46379   9.607   6.004   6.370 -0.2491  2.2210 -1.5073
  344MOL0     H46380   9.667   6.024   6.543 -0.9727  1.9412  1.6309
  344MOL0     H46381   9.765   6.178   6.289 -1.8827  2.8911  2.4626
  344MOL0     H46382   9.846   6.173   6.439  1.5518 -1.3587 -0.6688
  344MOL0     H46383   9.812   5.944   6.235  0.4051  1.7426 -1.0671
  344MOL0     H46384   9.963   6.041   6.262  2.4847 -1.7169  3.5052
  344MOL0     H46385   9.912   5.936   6.515  2.5854  1.9837  0.2101
  344MOL0     H46386   9.884   5.803   6.417  1.3465 -0.8810  2.3116
  344MOL0     H46387  10.135   5.974   6.409  0.4337  0.9017  2.0983
  344MOL0     H46388  10.097   5.812   6.329 -3.3769  0.7025 -0.9294
  344MOL0     H46389  10.108   5.857   6.632  0.9911 -2.4380  1.3218
  344MOL0     H46390  10.076   5.713   6.541 -1.0122  0.0470 -2.0794
  344MOL0     H46391  10.342   5.988   6.611 -0.2101  0.3847 -0.3383
  344MOL0     H46392  10.704   5.860   6.587  0.8552  0.8532  0.6561
  344MOL0     H46393  10.603   5.999   6.622 -0.1304 -0.0238 -0.8773
  344MOL0     H46394  10.541   5.859   6.830  0.5823 -1.4554  0.1885
  344MOL0     H46395  10.689   5.766   6.797 -1.1551 -1.0488 -0.0302
  344MOL0     H46396  10.683   5.993   6.945 -0.0366  0.9281 -0.0350
  344MOL0     H46397  10.730   6.068   6.797 -0.8592 -0.3819  0.6729
  344MOL0     H46398  10.941   5.951   6.784 -0.9217  3.0687 -0.5960
  344MOL0     H46399  10.872   5.812   6.875  1.1485  1.0041  2.8242
  344MOL0     H46400  11.148   6.011   6.861 -0.6892  1.5101  0.8348
  344MOL0     H46401  11.376   5.955   6.950  1.1716  0.0270  0.7632
  344MOL0     H46402  11.526   5.851   7.570 -1.1530 -2.3931 -0.6567
  344MOL0     H46403  11.768   5.814   7.664 -2.7963  0.5132  1.2700
  344MOL0     H46404  11.977   5.881   7.650  1.0140  1.4011 -1.3164
  344MOL0     H46405  11.984   5.717   7.705 -0.9220  1.6810  0.7861
  344MOL0     H46406  12.223   5.723   7.563  0.9057  0.4427  0.4444
  344MOL0     H46407  12.191   5.895   7.556 -3.5239 -1.1677 -3.1107
  344MOL0     H46408  12.162   5.900   7.802 -2.3597  0.1843 -4.5884
  344MOL0     H46409  12.237   5.732   7.806  1.6185  0.3097 -0.4877
  344MOL0     H46410  12.368   5.982   7.714 -0.7103  1.9375  1.4878
  344MOL0     H46411  12.440   5.813   7.699 -0.2618  1.8733 -1.1875
  344MOL0     H46412  12.436   5.784   7.942 -0.4582 -0.2579  0.6827
  344MOL0     H46413  12.369   5.947   7.952  0.3963 -1.3746 -0.1416
  344MOL0     H46414  12.637   5.871   7.822  0.1957  0.3427  0.1826
  344MOL0     H46415  12.568   6.034   7.824 -0.3077 -0.2452 -1.7442
  344MOL0     H46416  12.636   5.858   8.061  0.6297 -0.9577 -2.2666
  344MOL0     H46417  12.586   6.036   8.068 -1.6888 -0.0879 -0.8115
  344MOL0     H46418  12.792   6.020   7.891 -0.1924 -0.8721 -0.4978
  344MOL0     H46419  12.798   6.109   8.040  0.0572  0.9258 -0.5331
  344MOL0     H46420  11.902   5.694   7.294  1.3818  1.4801  2.2224
  344MOL0     H46421  11.663   5.729   7.190 -0.3937 -0.6765  0.5912
  344MOL0     H46422  11.193   5.830   7.320  3.2524  0.4746 -0.0593
  344MOL0     H46423  10.974   5.875   7.219  0.9532 -3.9508  2.3678
  344MOL0     H46424   9.242   6.452   6.416  1.2540 -1.2244  0.5293
  344MOL0     H46425   8.995   6.462   6.325  3.1960  2.0828 -2.0573
  344MOL0     H46426   8.663   6.197   6.116 -0.1113 -1.0678  0.6005
  344MOL0     H46427   8.438   6.209   6.026 -3.5258  0.8957  0.1780
  344MOL0     H46428   8.065   6.207   6.036  0.2201  0.2126 -0.8465
  344MOL0     H46429   8.232   6.226   5.981 -1.1785 -1.5575 -0.5003
  344MOL0     H46430   8.057   6.406   5.942  0.8046 -2.2542 -0.9045
  344MOL0     H46431   8.202   6.467   6.050 -0.6337  2.7390 -1.2835
  344MOL0     H46432   8.078   6.472   6.225 -0.5022  4.0331 -2.1018
  344MOL0     H46433   7.951   6.346   6.182 -0.0083 -1.5820 -0.3658
  344MOL0     H46434   7.863   6.546   6.020 -0.4415 -2.1724  0.7808
  344MOL0     H46435   7.850   6.566   6.199  1.6119 -1.0338  1.4917
  344MOL0     H46436   8.074   6.903   6.067 -2.5435  1.3345  3.2645
  344MOL0     H46437   8.277   6.232   6.416  1.7665 -0.6215  2.7547
  344MOL0     H46438   8.556   6.360   6.576 -1.5963  1.9030  0.8287
  344MOL0     H46439   8.397   6.285   6.591 -0.4260  1.5207 -2.3632
  344MOL0     H46440   8.536   6.179   6.597  1.8678  2.3794  4.3888
  345MOL0     O46441   3.334   1.819   8.153  0.1388 -0.3905  0.0737
  345MOL0     C46442   3.241   1.752   8.124  0.3183  0.6945 -0.0874
  345MOL0     O46443   3.110   1.770   8.154 -0.8369  0.3918 -0.5809
  345MOL0     C46444   3.096   1.837   8.276 -0.2300 -0.2898  0.5679
  345MOL0     C46445   3.094   1.978   8.281  0.1224  0.2379 -0.4916
  345MOL0     C46446   3.060   2.039   8.402  0.3144 -0.7530 -0.1570
  345MOL0     C46447   3.043   1.963   8.516 -0.5897 -0.0921 -0.8188
  345MOL0     O46448   3.004   2.023   8.629  0.6010 -0.6461 -0.3140
  345MOL0     C46449   3.024   2.164   8.646  0.3858  0.4845 -0.9765
  345MOL0     C46450   3.015   2.197   8.801  0.6198  0.7671  0.1371
  345MOL0     C46451   2.868   2.185   8.838 -0.8498 -1.1782 -0.2824
  345MOL0     C46452   2.829   2.276   8.957 -0.6862  0.3537  0.5832
  345MOL0     C46453   2.676   2.279   8.970  0.3675  0.3117 -0.8633
  345MOL0     C46454   2.615   2.383   9.071  0.5590  0.2174 -0.2755
  345MOL0     C46455   2.458   2.390   9.072 -0.7460  0.6759 -0.3573
  345MOL0     C46456   2.389   2.500   9.163  0.3253 -0.6093 -0.1005
  345MOL0     N46457   2.429   2.645   9.133 -0.1808 -0.3326 -0.1338
  345MOL0     C46458   2.354   2.754   9.168  0.7524 -0.2764 -1.1618
  345MOL0     C46459   2.426   2.858   9.108  0.4410 -0.2034  0.5442
  345MOL0     C46460   2.379   2.998   9.096 -0.0156  1.2019  0.0997
  345MOL0     C46461   2.414   3.065   8.964  0.3582 -1.1424 -0.2846
  345MOL0     C46462   2.407   3.215   8.985 -0.5551 -0.1239  0.3255
  345MOL0     C46463   2.465   3.318   8.873  0.4924 -0.2272  0.4606
  345MOL0     O46464   2.429   3.282   8.734 -0.0627 -0.2210 -0.4073
  345MOL0     C46465   2.297   3.306   8.692  0.4409 -0.7430  0.0520
  345MOL0     C46466   2.198   3.370   8.769  0.3119 -0.1369 -0.0836
  345MOL0     C46467   2.073   3.390   8.722  0.4582 -0.1363 -0.5212
  345MOL0     C46468   2.030   3.347   8.597 -0.0468  1.0394  0.7085
  345MOL0     C46469   1.889   3.370   8.556 -0.3038  0.1063 -0.5377
  345MOL0     O46470   1.799   3.394   8.663  0.0833  0.4517  0.5450
  345MOL0     C46471   1.673   3.438   8.626  0.5027  0.5334 -0.1840
  345MOL0     C46472   1.587   3.346   8.571  0.5286  0.0664 -0.2340
  345MOL0     C46473   1.450   3.395   8.540 -0.3019  0.4419  0.5673
  345MOL0     C46474   1.417   3.526   8.562  0.5657  0.2400 -0.3555
  345MOL0     O46475   1.296   3.568   8.534  0.6491  0.7794  0.2302
  345MOL0     C46476   1.246   3.538   8.399  0.4797  0.6323 -0.0478
  345MOL0     C46477   1.121   3.617   8.367  0.4982 -0.3860 -0.3955
  345MOL0     C46478   0.998   3.549   8.418 -0.5704 -0.1162 -0.0234
  345MOL0     C46479   0.878   3.647   8.405  0.3033 -0.7390  0.5799
  345MOL0     C46480   0.747   3.571   8.420  0.5703 -0.3166 -0.2074
  345MOL0     C46481   0.624   3.660   8.390  0.1494 -0.5562 -1.2366
  345MOL0     C46482   0.493   3.609   8.458  0.2729  0.4504  0.0085
  345MOL0     C46483   0.375   3.701   8.417  0.6614  0.7168  0.1007
  345MOL0    Cl46484   0.221   3.640   8.488 -0.0161  0.3324  0.0086
  345MOL0     C46485   1.510   3.611   8.612  0.5881  0.3912  0.2171
  345MOL0     C46486   1.633   3.567   8.648 -0.6019  0.5923 -0.2263
  345MOL0     O46487   1.867   3.347   8.436 -0.5987  0.3101 -0.7430
  345MOL0     C46488   2.128   3.287   8.515 -0.5058 -0.0555 -0.0505
  345MOL0     C46489   2.263   3.266   8.562 -0.5087 -0.3271 -0.3945
  345MOL0     N46490   2.536   2.811   9.049 -0.5181 -0.0519  0.0715
  345MOL0     N46491   2.539   2.684   9.069 -1.1149  0.1435  0.5209
  345MOL0     C46492   3.065   1.826   8.505  0.5485  0.2461 -0.2340
  345MOL0     C46493   3.081   1.764   8.385 -0.0355  0.0366 -0.0424
  345MOL0     C46494   3.267   1.659   8.010  0.1042 -0.4513 -0.5922
  345MOL0     C46495   3.161   1.636   7.918  0.2886 -0.7840  0.2091
  345MOL0     C46496   3.176   1.554   7.808 -0.8369 -0.1277  0.1935
  345MOL0     C46497   3.289   1.478   7.795 -0.5617  0.3692 -0.2405
  345MOL0     O46498   3.296   1.383   7.697  0.5652 -0.2861 -0.2226
  345MOL0     C46499   3.416   1.315   7.664 -0.0101  0.2734  0.9851
  345MOL0     C46500   3.509   1.416   7.594 -0.3051 -0.3169 -0.2204
  345MOL0     C46501   3.433   1.489   7.481  0.4455 -0.2901 -1.3554
  345MOL0     C46502   3.528   1.560   7.387  0.2731  0.0239 -0.4866
  345MOL0     C46503   3.560   1.466   7.276  0.0912  0.2095 -0.2943
  345MOL0     C46504   3.600   1.396   7.184  0.0093  0.1566 -0.1908
  345MOL0     C46505   3.385   1.481   7.894  0.0921  0.1125 -0.0716
  345MOL0     C46506   3.380   1.575   7.998  0.3050  0.4004 -0.9849
  345MOL0     C46507   3.487   1.558   8.100 -0.4044 -0.8419  0.5189
  345MOL0     H46508   3.098   2.041   8.193 -0.1001 -0.8052 -1.2594
  345MOL0     H46509   3.033   2.144   8.399  0.2922 -0.7812 -2.4716
  345MOL0     H46510   3.120   2.193   8.603  0.2150  1.1557 -0.9092
  345MOL0     H46511   2.950   2.219   8.588 -1.9030 -1.4100 -0.0317
  345MOL0     H46512   3.052   2.296   8.829 -0.7443  1.5757 -0.7841
  345MOL0     H46513   3.084   2.131   8.854 -0.1539 -0.3612 -0.2108
  345MOL0     H46514   2.845   2.080   8.856  2.4999 -1.9878 -0.0736
  345MOL0     H46515   2.813   2.218   8.749  1.2292 -0.8863 -1.5373
  345MOL0     H46516   2.884   2.252   9.049  1.9326  2.3889 -0.3159
  345MOL0     H46517   2.842   2.383   8.935 -0.5228  0.4686  1.2229
  345MOL0     H46518   2.634   2.302   8.871  0.2246 -1.3615 -1.2203
  345MOL0     H46519   2.638   2.178   8.987 -0.8715  0.3910 -2.8556
  345MOL0     H46520   2.654   2.368   9.172  1.2702 -0.1489 -0.5929
  345MOL0     H46521   2.667   2.475   9.044 -1.2951  1.1099 -0.9418
  345MOL0     H46522   2.426   2.289   9.102  2.3343 -0.6912 -1.3414
  345MOL0     H46523   2.413   2.414   8.975 -3.7611 -0.5768  0.6126
  345MOL0     H46524   2.281   2.494   9.145  0.2433 -1.2293  0.5595
  345MOL0     H46525   2.407   2.485   9.270 -1.9712 -2.9681  0.0486
  345MOL0     H46526   2.259   2.757   9.220  0.3922 -3.6411 -1.4109
  345MOL0     H46527   2.271   3.006   9.110 -0.5512 -0.4982 -2.3575
  345MOL0     H46528   2.436   3.050   9.174  0.0976  1.3009 -0.0498
  345MOL0     H46529   2.512   3.035   8.926  0.4262  0.6513 -1.6536
  345MOL0     H46530   2.337   3.039   8.891 -0.5790  1.0249 -0.1517
  345MOL0     H46531   2.462   3.250   9.074  2.3281  0.4021 -1.5313
  345MOL0     H46532   2.301   3.240   8.990 -0.7346 -0.6762 -0.5903
  345MOL0     H46533   2.574   3.325   8.872  0.5975 -0.8096 -2.4232
  345MOL0     H46534   2.432   3.415   8.911  0.9248  0.3223 -0.5124
  345MOL0     H46535   2.226   3.407   8.867  0.4393 -0.4369 -0.0044
  345MOL0     H46536   2.003   3.444   8.785 -2.8176 -0.4488 -3.5106
  345MOL0     H46537   1.620   3.249   8.536  1.4164  1.0231 -2.2028
  345MOL0     H46538   1.381   3.323   8.496 -0.2045 -0.5879  1.9986
  345MOL0     H46539   1.324   3.561   8.326  2.3597 -0.2460  1.5862
  345MOL0     H46540   1.206   3.437   8.386 -3.1701  1.6576  1.8671
  345MOL0     H46541   1.115   3.723   8.396 -0.2185 -0.5107 -0.0660
  345MOL0     H46542   1.095   3.619   8.261 -0.6114 -1.5995 -0.1649
  345MOL0     H46543   0.986   3.452   8.369  1.4056 -0.5621  0.3223
  345MOL0     H46544   1.026   3.529   8.521  1.5862  0.9494 -0.3404
  345MOL0     H46545   0.884   3.703   8.312 -0.7249  1.6215  1.8458
  345MOL0     H46546   0.875   3.725   8.481 -1.1472  0.7462 -0.9412
  345MOL0     H46547   0.749   3.537   8.524  3.6080 -0.4897 -0.2413
  345MOL0     H46548   0.752   3.491   8.346  2.5297 -3.1302  2.6973
  345MOL0     H46549   0.628   3.763   8.427 -0.7562 -0.7317 -0.6305
  345MOL0     H46550   0.625   3.657   8.281  0.4342 -2.8229 -1.2109
  345MOL0     H46551   0.505   3.618   8.566  0.6990 -1.8710  0.1899
  345MOL0     H46552   0.470   3.507   8.428 -0.9220  0.2906  1.4023
  345MOL0     H46553   0.396   3.796   8.468 -0.7478  0.6275  0.9163
  345MOL0     H46554   0.366   3.708   8.308  0.3456 -2.4210 -0.1672
  345MOL0     H46555   1.493   3.718   8.623  0.1400  0.5037 -1.3375
  345MOL0     H46556   1.699   3.635   8.701  2.3281 -1.0199 -1.5275
  345MOL0     H46557   2.101   3.236   8.423  0.5098  2.6492 -1.9479
  345MOL0     H46558   2.332   3.215   8.495 -3.1469 -2.4185 -1.6906
  345MOL0     H46559   3.043   1.762   8.590 -3.9670  0.6469 -0.8183
  345MOL0     H46560   3.101   1.657   8.391 -0.0018  0.1011  1.1562
  345MOL0     H46561   3.068   1.692   7.924  1.6706  1.6099  0.2585
  345MOL0     H46562   3.099   1.537   7.734 -0.7487  0.1277  0.0417
  345MOL0     H46563   3.388   1.243   7.587  2.4736  0.5421 -0.2945
  345MOL0     H46564   3.466   1.271   7.750  2.7652  3.2051  1.0638
  345MOL0     H46565   3.600   1.379   7.546  0.0201  1.9245 -1.4590
  345MOL0     H46566   3.551   1.487   7.666 -0.4771 -1.8536  1.4671
  345MOL0     H46567   3.363   1.562   7.521  0.6749 -1.7515  2.0291
  345MOL0     H46568   3.378   1.406   7.434  0.5631 -1.0561 -0.1750
  345MOL0     H46569   3.474   1.647   7.351 -0.2822 -0.3988 -0.6871
  345MOL0     H46570   3.616   1.599   7.440 -1.2259  1.6692  0.9361
  345MOL0     H46571   3.631   1.356   7.090 -4.1444 -0.1976 -1.6295
  345MOL0     H46572   3.469   1.412   7.893 -0.7817 -0.9832 -0.3077
  345MOL0     H46573   3.561   1.477   8.096  0.7590 -0.1620  4.1589
  345MOL0     H46574   3.538   1.655   8.106 -3.1708  0.7573 -0.2117
  345MOL0     H46575   3.435   1.552   8.195 -3.2410 -2.4666 -1.0052
  346MOL0     O46576   6.857  11.275   0.747 -1.1994  0.7849  0.0836
  346MOL0     C46577   6.806  11.319   0.652 -0.4460 -0.0959  0.8511
  346MOL0     O46578   6.867  11.372   0.549 -0.0637  0.5291  0.7487
  346MOL0     C46579   7.003  11.375   0.538 -0.7035  0.2435 -0.3379
  346MOL0     C46580   7.081  11.446   0.640 -0.7101 -0.2739  0.1608
  346MOL0     C46581   7.217  11.470   0.623  0.2440 -0.5916  0.5046
  346MOL0     C46582   7.283  11.421   0.513  0.3023 -0.1684 -0.0799
  346MOL0     O46583   7.414  11.449   0.477  0.4297 -0.4999 -0.7470
  346MOL0     C46584   7.495  11.498   0.577 -0.0402  0.2955  0.0170
  346MOL0     C46585   7.641  11.462   0.541  0.9794 -0.0358 -0.1057
  346MOL0     C46586   7.708  11.540   0.417  0.2618 -0.6397 -1.2104
  346MOL0     C46587   7.832  11.465   0.360  0.3853  0.3709 -0.5126
  346MOL0     C46588   7.862  11.494   0.220 -0.6597 -0.4776 -0.3354
  346MOL0     C46589   7.979  11.411   0.164  0.0460  0.4172 -0.0761
  346MOL0     C46590   8.033  11.466   0.035  1.0057 -0.0217  0.0359
  346MOL0     C46591   8.125  11.359  -0.044  0.8190  0.4833  0.0998
  346MOL0     N46592   8.212  11.430  -0.139 -0.2592 -0.5923  0.2344
  346MOL0     C46593   8.326  11.501  -0.100 -1.1242 -1.0311  0.0535
  346MOL0     C46594   8.357  11.585  -0.200 -0.5547 -0.8778 -0.5321
  346MOL0     C46595   8.479  11.670  -0.186  0.5656 -0.1038 -0.8452
  346MOL0     C46596   8.452  11.829  -0.193  0.1327  0.1020  0.4052
  346MOL0     C46597   8.377  11.866  -0.058  0.3152  0.9452  0.4711
  346MOL0     C46598   8.315  12.006  -0.084 -1.4373 -0.0553 -0.4258
  346MOL0     O46599   8.420  12.095  -0.117  0.5336 -0.9037  0.4094
  346MOL0     C46600   8.499  12.152  -0.017 -0.1198  0.0454 -0.5297
  346MOL0     C46601   8.508  12.111   0.117  0.1419  0.0575  0.2467
  346MOL0     C46602   8.593  12.169   0.210 -0.7274 -0.2753  0.8636
  346MOL0     C46603   8.673  12.281   0.171  0.2128 -0.9151  0.2065
  346MOL0     C46604   8.752  12.356   0.268  0.8075  0.0822  0.0753
  346MOL0     O46605   8.824  12.456   0.222  0.8475 -0.0013  0.1832
  346MOL0     C46606   8.910  12.522   0.306 -1.0232  0.5515 -0.2524
  346MOL0     C46607   8.881  12.646   0.358 -0.9895  0.1885 -0.1263
  346MOL0     C46608   8.981  12.710   0.435 -0.0959 -0.3249  0.2664
  346MOL0     C46609   9.105  12.643   0.463 -0.2258 -0.4049  0.6108
  346MOL0     O46610   9.212  12.690   0.531 -0.3644  0.0264  0.3141
  346MOL0     C46611   9.190  12.793   0.625  0.4034 -0.4477 -0.2780
  346MOL0     C46612   9.323  12.820   0.701 -0.2164 -0.5202 -0.2237
  346MOL0     C46613   9.329  12.719   0.811 -0.3135  0.0696 -0.5890
  346MOL0     C46614   9.446  12.763   0.904  0.0813  1.2539 -0.9504
  346MOL0     C46615   9.440  12.671   1.029  0.7660 -0.4617 -0.5583
  346MOL0     C46616   9.580  12.681   1.085  1.0078 -0.7185  0.3186
  346MOL0     C46617   9.584  12.635   1.224 -0.5523 -0.0312 -0.3350
  346MOL0     C46618   9.563  12.492   1.233  0.4023  0.4652  0.0480
  346MOL0    Cl46619   9.601  12.415   1.387 -0.0780 -0.2363 -0.1766
  346MOL0     C46620   9.129  12.528   0.405  0.2267  0.6700  0.8484
  346MOL0     C46621   9.032  12.454   0.331 -0.0644 -0.0021  0.6067
  346MOL0     O46622   8.752  12.319   0.389  0.3139  0.5262 -0.6149
  346MOL0     C46623   8.663  12.334   0.037  1.1735  0.8265 -0.7252
  346MOL0     C46624   8.577  12.266  -0.051 -0.6202  0.0223  0.3818
  346MOL0     N46625   8.269  11.563  -0.305 -1.1948 -0.0613  0.8878
  346MOL0     N46626   8.186  11.474  -0.263 -0.4690  0.4740 -0.6648
  346MOL0     C46627   7.209  11.353   0.412  0.4535 -0.3982 -0.0464
  346MOL0     C46628   7.071  11.326   0.427  0.9566 -0.0013 -0.3258
  346MOL0     C46629   6.656  11.338   0.649  0.2809  0.1074 -0.2165
  346MOL0     C46630   6.611  11.440   0.561  0.3001 -0.4795  0.0260
  346MOL0     C46631   6.470  11.472   0.555 -0.3325  0.4337  0.1403
  346MOL0     C46632   6.377  11.417   0.638  0.2607 -0.6825 -0.6239
  346MOL0     O46633   6.253  11.472   0.641 -0.0237  0.1692  0.6338
  346MOL0     C46634   6.143  11.397   0.693 -0.5615  0.1946  0.2261
  346MOL0     C46635   6.015  11.457   0.647  0.7753 -0.3796  0.1027
  346MOL0     C46636   5.893  11.364   0.657  0.3738 -0.1780  0.2262
  346MOL0     C46637   5.774  11.426   0.593 -0.4164 -0.5483 -0.2220
  346MOL0     C46638   5.662  11.330   0.571 -0.1497 -0.5925 -0.3601
  346MOL0     C46639   5.572  11.250   0.558  0.8287 -0.1890  0.3354
  346MOL0     C46640   6.425  11.320   0.730  0.0737  0.7734  0.1831
  346MOL0     C46641   6.562  11.295   0.749 -0.5256 -0.0013  0.6500
  346MOL0     C46642   6.588  11.229   0.881 -0.2585 -0.0832 -0.1828
  346MOL0     H46643   7.041  11.485   0.733  3.0452  0.4488  1.6572
  346MOL0     H46644   7.281  11.520   0.695  0.0830  0.6846 -0.2022
  346MOL0     H46645   7.475  11.604   0.592 -1.2218  0.0499  0.2159
  346MOL0     H46646   7.480  11.448   0.673  0.2567 -2.2213 -1.1502
  346MOL0     H46647   7.650  11.354   0.528 -3.4537 -0.6480  0.4463
  346MOL0     H46648   7.702  11.489   0.627  0.9431  4.4115 -1.2303
  346MOL0     H46649   7.751  11.632   0.458 -1.3613  0.0221 -0.9184
  346MOL0     H46650   7.634  11.561   0.340  0.1095  0.0193 -0.8921
  346MOL0     H46651   7.914  11.485   0.430  0.0064 -3.0958  1.1652
  346MOL0     H46652   7.821  11.356   0.363  0.7666  0.1902 -3.1785
  346MOL0     H46653   7.774  11.484   0.156 -1.1236 -2.2172  0.5203
  346MOL0     H46654   7.890  11.600   0.227 -0.6347 -0.3915 -1.4757
  346MOL0     H46655   8.057  11.396   0.239 -0.9923 -3.9045  0.4308
  346MOL0     H46656   7.935  11.312   0.146  0.8393 -0.1288  0.8777
  346MOL0     H46657   8.085  11.562   0.048 -0.3232  0.6226  0.8703
  346MOL0     H46658   7.949  11.493  -0.030  0.5967 -1.3871 -0.0207
  346MOL0     H46659   8.186  11.297   0.023  0.5478  0.3527  0.2231
  346MOL0     H46660   8.077  11.288  -0.112  3.0785  0.3895 -1.5211
  346MOL0     H46661   8.383  11.483  -0.010  0.6775 -0.6785 -0.9640
  346MOL0     H46662   8.546  11.646  -0.103  1.9407  2.5479 -1.0686
  346MOL0     H46663   8.541  11.649  -0.274  1.4024  1.7745 -0.7593
  346MOL0     H46664   8.541  11.889  -0.209  0.5738  0.4325  3.5149
  346MOL0     H46665   8.385  11.853  -0.277  0.9951  0.5689 -0.1653
  346MOL0     H46666   8.443  11.872   0.029 -1.4740 -0.8329  2.0433
  346MOL0     H46667   8.298  11.791  -0.047  0.6792  0.0029 -2.3470
  346MOL0     H46668   8.249  12.040  -0.003 -1.2727 -0.2467 -0.2096
  346MOL0     H46669   8.253  12.002  -0.174  0.2074 -1.9394 -1.5629
  346MOL0     H46670   8.451  12.028   0.158 -0.5856 -0.0111 -0.8808
  346MOL0     H46671   8.599  12.120   0.307  2.0797 -3.8363 -0.8789
  346MOL0     H46672   8.787  12.693   0.332  0.1283  1.6351 -1.8459
  346MOL0     H46673   8.964  12.805   0.483 -3.4596 -0.1847 -0.9504
  346MOL0     H46674   9.166  12.883   0.568  2.9329  0.3697 -0.1952
  346MOL0     H46675   9.111  12.764   0.694  1.7101  0.3360  1.6355
  346MOL0     H46676   9.413  12.808   0.640  0.6909  1.2190  0.6923
  346MOL0     H46677   9.329  12.922   0.740  2.0926 -0.7977  0.3081
  346MOL0     H46678   9.239  12.717   0.874 -0.1063  5.1865  0.3341
  346MOL0     H46679   9.349  12.622   0.764 -2.1380 -1.1758  1.0162
  346MOL0     H46680   9.442  12.871   0.916 -1.0440  1.2991 -1.6540
  346MOL0     H46681   9.537  12.740   0.846  0.8803 -2.3363  1.3525
  346MOL0     H46682   9.409  12.568   1.010  0.6256 -0.7134  0.9340
  346MOL0     H46683   9.369  12.716   1.098 -1.3912 -0.5905 -2.5832
  346MOL0     H46684   9.655  12.632   1.023 -2.5842 -3.1589 -2.4591
  346MOL0     H46685   9.614  12.785   1.088  1.7306 -0.9118 -0.5793
  346MOL0     H46686   9.515  12.690   1.289  0.0248 -2.1979  2.3047
  346MOL0     H46687   9.688  12.651   1.255 -0.8368 -0.6964  1.0279
  346MOL0     H46688   9.456  12.476   1.213  0.6506  0.1552 -1.1292
  346MOL0     H46689   9.609  12.429   1.156 -3.7929 -2.5835 -0.3128
  346MOL0     H46690   9.225  12.480   0.422 -0.6880 -1.4098  0.4935
  346MOL0     H46691   9.047  12.363   0.274  3.6312  0.7695  0.0845
  346MOL0     H46692   8.717  12.423   0.009 -0.5084  1.7066 -1.3242
  346MOL0     H46693   8.562  12.293  -0.155 -6.5840  3.2513  1.6666
  346MOL0     H46694   7.271  11.305   0.337  3.1878  2.1305  0.4137
  346MOL0     H46695   7.026  11.267   0.348  0.6296  0.6428 -0.6241
  346MOL0     H46696   6.677  11.495   0.494  0.8731 -1.0355  0.1277
  346MOL0     H46697   6.443  11.553   0.488 -0.3789 -0.5828 -1.0961
  346MOL0     H46698   6.144  11.401   0.803  3.9767 -0.9759  0.4509
  346MOL0     H46699   6.141  11.292   0.664  2.3106  0.3555 -0.9506
  346MOL0     H46700   6.020  11.489   0.542  1.5346 -1.4968 -0.2296
  346MOL0     H46701   5.999  11.546   0.707  1.2385 -1.0799  1.3075
  346MOL0     H46702   5.872  11.345   0.763  0.1194  1.2574  0.4496
  346MOL0     H46703   5.912  11.267   0.610 -2.4374 -1.6565  1.8861
  346MOL0     H46704   5.734  11.502   0.661  0.7654  3.0467 -3.2099
  346MOL0     H46705   5.806  11.477   0.502  3.2001 -2.4776 -0.2167
  346MOL0     H46706   5.483  11.191   0.554  1.6276 -1.4075  0.3047
  346MOL0     H46707   6.352  11.288   0.804  1.4826 -1.1048  0.8515
  346MOL0     H46708   6.599  11.288   0.972 -0.6304 -1.3688  0.7304
  346MOL0     H46709   6.504  11.166   0.912 -0.1525 -1.6383 -2.8010
  346MOL0     H46710   6.683  11.175   0.872 -1.5315 -2.4550 -0.0547
  347MOL0     O46711   0.101   6.649   5.770  0.0646  0.0722  0.1396
  347MOL0     C46712   0.020   6.728   5.815 -0.2734 -0.0853  0.0822
  347MOL0     O46713   0.046   6.864   5.835 -0.0545  0.1538  0.3775
  347MOL0     C46714   0.163   6.911   5.787 -0.0315 -0.1830 -1.3270
  347MOL0     C46715   0.275   6.923   5.873 -0.2293  0.1120 -0.1287
  347MOL0     C46716   0.386   6.999   5.842  0.2697  0.3220  0.7786
  347MOL0     C46717   0.376   7.078   5.727 -0.2389 -0.8477  0.1264
  347MOL0     O46718   0.453   7.184   5.707 -0.3984  0.4501 -0.5964
  347MOL0     C46719   0.525   7.242   5.816 -0.4011  0.9767 -0.2637
  347MOL0     C46720   0.594   7.350   5.742 -0.0386 -1.0354  0.0815
  347MOL0     C46721   0.631   7.464   5.837 -0.0923 -0.0620 -0.1321
  347MOL0     C46722   0.719   7.417   5.958  0.0838  0.9218 -1.1056
  347MOL0     C46723   0.805   7.521   6.034  0.2516  0.7273  0.3635
  347MOL0     C46724   0.900   7.454   6.133 -0.1946 -1.0240  0.1641
  347MOL0     C46725   1.004   7.366   6.077 -1.4355  0.1228  1.0096
  347MOL0     C46726   1.101   7.327   6.187  0.3144  0.0668 -0.6000
  347MOL0     N46727   1.196   7.229   6.145  0.5458  1.1988  0.6013
  347MOL0     C46728   1.199   7.102   6.198 -0.5443 -0.2507 -1.0294
  347MOL0     C46729   1.307   7.038   6.135  0.5853  0.1731 -0.2007
  347MOL0     C46730   1.349   6.899   6.149  0.4773  0.0767  0.7820
  347MOL0     C46731   1.234   6.811   6.090 -0.1401  0.1056 -0.2757
  347MOL0     C46732   1.257   6.661   6.081 -0.1492 -0.0684  0.4615
  347MOL0     C46733   1.282   6.601   6.215  0.6093 -0.4864  0.5162
  347MOL0     O46734   1.411   6.632   6.268 -0.3060 -0.2888  1.6998
  347MOL0     C46735   1.517   6.554   6.238 -0.6818  0.5214  0.1304
  347MOL0     C46736   1.628   6.611   6.298 -0.5284 -1.0332 -0.1773
  347MOL0     C46737   1.751   6.548   6.277 -0.9891  0.2537 -0.7876
  347MOL0     C46738   1.776   6.426   6.204 -0.6177 -0.8282 -0.2283
  347MOL0     C46739   1.911   6.360   6.188 -0.4958  0.7800  0.6793
  347MOL0     O46740   2.012   6.395   6.268 -0.5970 -0.1151  1.0377
  347MOL0     C46741   2.139   6.364   6.218 -0.0639  1.0641 -0.6251
  347MOL0     C46742   2.233   6.455   6.169  0.0949  0.2985  0.5356
  347MOL0     C46743   2.354   6.426   6.118 -0.9490  0.2285  0.2438
  347MOL0     C46744   2.401   6.288   6.124  0.0808 -1.6295  0.9684
  347MOL0     O46745   2.527   6.276   6.078  0.2162  0.0486  0.1179
  347MOL0     C46746   2.596   6.153   6.097 -0.3364  0.9898 -0.8050
  347MOL0     C46747   2.716   6.134   6.003 -0.1313  0.3246  0.1125
  347MOL0     C46748   2.665   6.161   5.858 -0.1938  0.2513 -0.2940
  347MOL0     C46749   2.787   6.165   5.767  0.0927 -0.6235 -0.6038
  347MOL0     C46750   2.771   6.104   5.630  0.2348 -0.5613 -1.1883
  347MOL0     C46751   2.652   6.165   5.559  0.3455 -0.5670  1.0054
  347MOL0     C46752   2.620   6.082   5.434 -0.6356 -0.1730  0.5837
  347MOL0     C46753   2.564   5.942   5.464 -0.9302  0.2069  0.7203
  347MOL0    Cl46754   2.649   5.816   5.400 -0.2237 -0.0977 -0.0202
  347MOL0     C46755   2.312   6.189   6.173  0.3738 -0.4187  0.2504
  347MOL0     C46756   2.185   6.230   6.223 -0.3453 -0.3224  0.3031
  347MOL0     O46757   1.922   6.285   6.083 -0.2788 -0.7875 -0.7077
  347MOL0     C46758   1.660   6.375   6.151  0.1364  0.5022  0.1728
  347MOL0     C46759   1.533   6.436   6.178  0.4882 -0.1444 -0.4596
  347MOL0     N46760   1.376   7.131   6.062  0.0421 -0.1741  0.4368
  347MOL0     N46761   1.308   7.244   6.066 -0.4104  1.1676 -0.1589
  347MOL0     C46762   0.266   7.066   5.633 -0.6027  0.1011  0.1899
  347MOL0     C46763   0.158   6.979   5.665  0.1055 -0.0218 -0.5255
  347MOL0     C46764  -0.102   6.680   5.876  1.2842  0.2480  0.4052
  347MOL0     C46765  -0.188   6.765   5.945 -0.4013 -0.3099  1.2178
  347MOL0     C46766  -0.318   6.718   5.987 -0.6708  0.0317  0.2750
  347MOL0     C46767  -0.363   6.587   5.950 -0.8336 -0.4182  0.2576
  347MOL0     O46768  -0.490   6.537   5.981  0.7394  0.2979  0.1934
  347MOL0     C46769  -0.584   6.618   6.055 -0.7271  0.6478  0.6336
  347MOL0     C46770  -0.685   6.522   6.125  0.5546  0.1714 -0.9202
  347MOL0     C46771  -0.810   6.465   6.042 -0.2052  0.4908  0.4095
  347MOL0     C46772  -0.925   6.561   6.018 -0.5020  0.3596  0.4778
  347MOL0     C46773  -1.036   6.498   5.946  0.3048 -0.0650 -0.2072
  347MOL0     C46774  -1.131   6.436   5.893 -0.7396  0.3488 -1.3124
  347MOL0     C46775  -0.273   6.504   5.887  1.1658 -0.3943  0.7483
  347MOL0     C46776  -0.150   6.544   5.852  0.3448 -0.2792  0.6685
  347MOL0     C46777  -0.066   6.446   5.781  0.2562  1.6539 -0.6155
  347MOL0     H46778   0.268   6.866   5.965 -3.2591  0.4911  0.0075
  347MOL0     H46779   0.466   6.995   5.916  1.6988  1.2551 -0.6571
  347MOL0     H46780   0.457   7.285   5.890  0.5317 -0.8839  1.7768
  347MOL0     H46781   0.592   7.171   5.865 -1.4632 -0.1636 -0.3978
  347MOL0     H46782   0.524   7.386   5.666 -1.9716 -3.3550  0.6617
  347MOL0     H46783   0.679   7.312   5.685 -2.1830 -1.3168 -3.1487
  347MOL0     H46784   0.539   7.505   5.879  1.1757  1.2346  1.5487
  347MOL0     H46785   0.683   7.547   5.787 -1.2736  2.2600  2.2179
  347MOL0     H46786   0.660   7.368   6.035 -0.1715 -0.5316 -2.1817
  347MOL0     H46787   0.784   7.341   5.915 -2.0631 -0.9345 -1.2342
  347MOL0     H46788   0.866   7.571   5.958  0.1610 -0.9716 -0.8808
  347MOL0     H46789   0.751   7.598   6.090  0.2252  1.5589 -0.7838
  347MOL0     H46790   0.949   7.534   6.190 -2.0293  1.2995 -1.3056
  347MOL0     H46791   0.833   7.403   6.203 -1.5269  1.8250  1.1573
  347MOL0     H46792   1.050   7.412   5.990  1.8713 -3.1114  0.7899
  347MOL0     H46793   0.955   7.274   6.043  0.7000 -2.1775  3.6440
  347MOL0     H46794   1.155   7.410   6.233  1.2844 -0.3811 -0.9028
  347MOL0     H46795   1.038   7.293   6.270 -0.8786 -0.0860 -1.5547
  347MOL0     H46796   1.130   7.054   6.266 -2.1818 -0.9473 -3.0681
  347MOL0     H46797   1.444   6.886   6.097  0.0060  2.7251 -0.9407
  347MOL0     H46798   1.346   6.878   6.256 -0.5896 -0.8679  0.5891
  347MOL0     H46799   1.141   6.821   6.146 -0.9925 -3.0631 -0.8869
  347MOL0     H46800   1.216   6.855   5.991 -0.2619  1.9060  0.5079
  347MOL0     H46801   1.335   6.637   6.009 -1.0340 -1.1034 -0.1856
  347MOL0     H46802   1.161   6.625   6.042  0.1879  0.2570 -0.6952
  347MOL0     H46803   1.260   6.494   6.215 -1.7940 -0.0498  1.1117
  347MOL0     H46804   1.224   6.657   6.289  1.9594 -1.5333  2.4635
  347MOL0     H46805   1.622   6.709   6.346 -3.1782 -0.9997 -0.4164
  347MOL0     H46806   1.827   6.604   6.331 -0.0656 -1.3920 -0.3231
  347MOL0     H46807   2.195   6.554   6.148  1.6760  0.6418 -0.9460
  347MOL0     H46808   2.406   6.512   6.077 -2.2070  1.7154  1.6310
  347MOL0     H46809   2.644   6.163   6.195  1.2116  2.4818 -1.6430
  347MOL0     H46810   2.533   6.065   6.088  0.5832  0.0562  1.3740
  347MOL0     H46811   2.780   6.220   6.026  1.7095 -0.2908 -2.2257
  347MOL0     H46812   2.769   6.041   6.025  0.7609  1.4232  3.1950
  347MOL0     H46813   2.601   6.074   5.836  0.6312 -1.5020  3.3734
  347MOL0     H46814   2.624   6.262   5.861  1.9249  1.1761 -1.2095
  347MOL0     H46815   2.885   6.139   5.808  1.6313  0.5055 -3.2610
  347MOL0     H46816   2.793   6.272   5.749 -0.0635 -1.0420 -3.8142
  347MOL0     H46817   2.774   5.995   5.622 -1.5288 -0.5935 -1.9831
  347MOL0     H46818   2.859   6.132   5.571  1.4118  0.3070  0.8644
  347MOL0     H46819   2.560   6.169   5.619  1.2998 -1.3128  2.5797
  347MOL0     H46820   2.685   6.267   5.538  1.0712 -1.3311 -2.1269
  347MOL0     H46821   2.710   6.075   5.372 -0.1831  2.5018  0.8163
  347MOL0     H46822   2.552   6.141   5.371 -2.9320 -2.8431  0.3651
  347MOL0     H46823   2.552   5.934   5.572  0.1677  0.0791  0.8412
  347MOL0     H46824   2.467   5.940   5.414 -1.4141 -2.3601  1.6048
  347MOL0     H46825   2.330   6.082   6.167  1.7696 -0.2175  0.4844
  347MOL0     H46826   2.133   6.142   6.259 -2.1406  0.1983 -0.8764
  347MOL0     H46827   1.663   6.279   6.102 -2.8063  1.1217 -1.4645
  347MOL0     H46828   1.443   6.384   6.147 -0.0053  2.2808 -3.5819
  347MOL0     H46829   0.248   7.139   5.554 -0.6524  0.4406  0.5150
  347MOL0     H46830   0.072   6.985   5.599 -0.4636 -2.0245 -0.0187
  347MOL0     H46831  -0.157   6.863   5.978 -0.0388 -0.6770  1.9739
  347MOL0     H46832  -0.380   6.789   6.040 -2.0999 -1.3640  0.5499
  347MOL0     H46833  -0.644   6.673   5.981 -0.7735  1.1947  1.0698
  347MOL0     H46834  -0.540   6.684   6.130  0.2291  1.0961 -0.2929
  347MOL0     H46835  -0.725   6.573   6.213  0.5373  4.4534 -3.1479
  347MOL0     H46836  -0.631   6.438   6.170 -2.5957 -2.0023 -0.8468
  347MOL0     H46837  -0.838   6.381   6.105  3.1412 -0.6743  0.5403
  347MOL0     H46838  -0.772   6.419   5.950 -1.4767 -0.1509  0.1966
  347MOL0     H46839  -0.948   6.614   6.111  0.0639  2.2865 -0.4143
  347MOL0     H46840  -0.889   6.635   5.945 -0.1090  0.6556  0.9658
  347MOL0     H46841  -1.199   6.370   5.844 -1.5924 -0.8771  1.3184
  347MOL0     H46842  -0.313   6.409   5.853 -1.8712  2.3273 -4.7060
  347MOL0     H46843  -0.111   6.347   5.776  2.1676  0.7635 -1.2239
  347MOL0     H46844  -0.053   6.479   5.678 -0.0656  1.5256 -0.6948
  347MOL0     H46845   0.030   6.428   5.831  0.3429  0.4081 -1.1913
  348MOL0     O46846   4.784   1.902   6.978  0.0620 -0.0653  0.1401
  348MOL0     C46847   4.799   1.781   6.974  0.4169 -0.2708  0.0618
  348MOL0     O46848   4.916   1.712   6.967 -0.3285 -0.0644  1.0529
  348MOL0     C46849   5.041   1.768   6.938  0.5229  1.0235 -0.2186
  348MOL0     C46850   5.076   1.895   6.926  0.5477 -0.9652  0.3354
  348MOL0     C46851   5.214   1.931   6.903  0.0417  0.4691 -0.5994
  348MOL0     C46852   5.308   1.833   6.893  0.1371 -0.0667  0.5103
  348MOL0     O46853   5.441   1.872   6.868 -0.1939 -0.5803  0.0237
  348MOL0     C46854   5.506   1.794   6.766 -0.3050 -0.5526 -1.3186
  348MOL0     C46855   5.621   1.892   6.716  0.3998  0.6731 -0.5627
  348MOL0     C46856   5.688   1.821   6.595 -0.5069 -0.1714 -0.4582
  348MOL0     C46857   5.803   1.902   6.524  0.0164 -0.5162 -0.0390
  348MOL0     C46858   5.822   1.879   6.377  0.7159  0.1186 -0.6598
  348MOL0     C46859   5.899   1.745   6.357  0.4622  0.4706  0.1212
  348MOL0     C46860   5.924   1.732   6.204  0.8867  0.4368 -0.0016
  348MOL0     C46861   6.025   1.611   6.179  0.5355  0.0148 -0.0891
  348MOL0     N46862   6.029   1.577   6.036 -0.6630  0.2883 -0.0407
  348MOL0     C46863   6.122   1.628   5.939 -0.4778 -0.3835  0.1740
  348MOL0     C46864   6.092   1.560   5.822 -0.8114 -0.1561  0.1383
  348MOL0     C46865   6.143   1.586   5.689 -0.0257  0.1106  0.7750
  348MOL0     C46866   6.281   1.517   5.657 -0.4035  0.1041 -0.0404
  348MOL0     C46867   6.397   1.613   5.714  0.4448 -0.1717 -0.0082
  348MOL0     C46868   6.527   1.554   5.678 -0.3598  0.2667  0.3385
  348MOL0     O46869   6.554   1.563   5.546 -0.4794  0.0225  0.5133
  348MOL0     C46870   6.668   1.496   5.507  0.5102  0.1059 -0.5928
  348MOL0     C46871   6.676   1.454   5.378 -0.0602 -0.3633 -0.6221
  348MOL0     C46872   6.795   1.392   5.325  0.3225 -0.8086  0.3607
  348MOL0     C46873   6.918   1.396   5.413  0.0592  0.1512  0.1450
  348MOL0     C46874   7.043   1.334   5.363 -0.4426 -0.2748 -0.3455
  348MOL0     O46875   7.143   1.353   5.441 -0.4804  0.0826  0.0274
  348MOL0     C46876   7.270   1.315   5.389  0.3197  0.0756 -0.3564
  348MOL0     C46877   7.332   1.197   5.419 -0.0790 -0.4619 -0.2399
  348MOL0     C46878   7.469   1.180   5.397  0.4969  0.1789  0.0965
  348MOL0     C46879   7.538   1.274   5.324  0.0106  0.1935  0.1048
  348MOL0     O46880   7.657   1.255   5.261  0.2415 -0.4046  0.3842
  348MOL0     C46881   7.735   1.139   5.304 -0.3569 -0.2558 -0.1977
  348MOL0     C46882   7.873   1.136   5.238 -0.9816 -0.6956 -0.0465
  348MOL0     C46883   7.924   0.988   5.228  0.4764  0.3793 -0.3882
  348MOL0     C46884   8.073   0.971   5.164 -0.0079 -0.4520 -0.5877
  348MOL0     C46885   8.099   0.826   5.134  0.8971  0.5845 -0.0102
  348MOL0     C46886   8.106   0.733   5.256  0.0907 -0.4319 -0.0505
  348MOL0     C46887   8.179   0.606   5.214  0.2433 -0.3515 -0.4291
  348MOL0     C46888   8.310   0.587   5.306 -0.2487  0.5067 -0.1367
  348MOL0    Cl46889   8.404   0.429   5.288 -0.2368  0.3973  0.3000
  348MOL0     C46890   7.475   1.391   5.286 -1.1092  0.5277 -0.7724
  348MOL0     C46891   7.342   1.417   5.316 -0.2224  0.2039  0.3375
  348MOL0     O46892   7.052   1.294   5.252 -0.9208 -0.1084  0.0912
  348MOL0     C46893   6.911   1.447   5.537 -0.4470 -0.3925  0.6822
  348MOL0     C46894   6.791   1.497   5.587  0.1659  0.2876  0.0435
  348MOL0     N46895   5.982   1.485   5.843  0.0488  0.7920 -0.2803
  348MOL0     N46896   5.947   1.487   5.970 -0.3446  0.5520  0.5501
  348MOL0     C46897   5.278   1.698   6.911  0.5468 -0.1102  0.4813
  348MOL0     C46898   5.140   1.667   6.923  0.5681  0.1087 -0.4745
  348MOL0     C46899   4.674   1.696   6.956 -0.6346  0.5292  0.8984
  348MOL0     C46900   4.686   1.573   6.881  0.0085 -0.3305 -0.1902
  348MOL0     C46901   4.572   1.501   6.855 -0.3713  0.2870  0.6556
  348MOL0     C46902   4.458   1.524   6.925  0.2831 -0.2060  0.1438
  348MOL0     O46903   4.332   1.466   6.900 -0.8492 -1.0250  0.1134
  348MOL0     C46904   4.316   1.374   6.801  0.2605 -0.1490 -0.1385
  348MOL0     C46905   4.297   1.446   6.660  0.1008  0.7214 -0.2989
  348MOL0     C46906   4.176   1.538   6.638  0.4865  0.0302 -0.5437
  348MOL0     C46907   4.038   1.468   6.675 -0.9125 -0.3699 -0.2555
  348MOL0     C46908   3.934   1.539   6.596 -0.3590  0.7784  0.7563
  348MOL0     C46909   3.856   1.605   6.543  0.5217  0.1375  0.5987
  348MOL0     C46910   4.447   1.637   7.004 -0.0779 -0.8742  1.0658
  348MOL0     C46911   4.560   1.721   7.029  1.2257  0.3228 -0.4718
  348MOL0     C46912   4.543   1.836   7.135  0.7314  0.3547 -0.1861
  348MOL0     H46913   5.002   1.974   6.929 -1.4443 -2.7804  1.2125
  348MOL0     H46914   5.252   2.032   6.903  0.0736  0.4674 -1.6469
  348MOL0     H46915   5.566   1.717   6.815  2.7226  1.9423 -0.7558
  348MOL0     H46916   5.437   1.765   6.687  0.5750  0.6657 -2.5799
  348MOL0     H46917   5.696   1.904   6.795 -1.6294 -1.5448  1.9033
  348MOL0     H46918   5.560   1.980   6.696 -2.3727 -0.6217  1.6492
  348MOL0     H46919   5.609   1.803   6.522 -1.1837 -1.6410  0.5959
  348MOL0     H46920   5.734   1.728   6.630  0.6730  0.9252  1.0964
  348MOL0     H46921   5.800   2.009   6.545 -2.1980 -0.4326 -0.5524
  348MOL0     H46922   5.905   1.891   6.562  0.7937 -0.3441 -1.9697
  348MOL0     H46923   5.724   1.889   6.329  0.0358  1.2680  0.8988
  348MOL0     H46924   5.881   1.957   6.328 -2.8205  1.9439 -2.4200
  348MOL0     H46925   5.999   1.751   6.401  0.9699 -1.0667 -0.7440
  348MOL0     H46926   5.833   1.663   6.388  0.9810  0.2035  0.5313
  348MOL0     H46927   5.967   1.824   6.164  1.0650 -0.3490 -1.7331
  348MOL0     H46928   5.831   1.726   6.147  0.3212  4.1064  0.3263
  348MOL0     H46929   6.117   1.657   6.215  1.5243 -1.7992 -0.2174
  348MOL0     H46930   6.000   1.521   6.236 -0.6892 -0.3342 -1.1463
  348MOL0     H46931   6.199   1.703   5.954 -1.0041  0.1286  0.3265
  348MOL0     H46932   6.060   1.554   5.625  1.4462  0.5457 -1.4682
  348MOL0     H46933   6.155   1.692   5.663 -1.6630  0.7286  2.3376
  348MOL0     H46934   6.284   1.414   5.692  2.2941 -0.9391 -2.8602
  348MOL0     H46935   6.292   1.515   5.548  0.6049  2.2971 -0.0364
  348MOL0     H46936   6.377   1.620   5.821  0.7395  0.5856  0.0023
  348MOL0     H46937   6.382   1.715   5.676 -1.9995 -0.5899 -0.3759
  348MOL0     H46938   6.539   1.454   5.721  0.9728 -0.3141 -1.2676
  348MOL0     H46939   6.605   1.612   5.728 -1.0661  0.4629  1.2402
  348MOL0     H46940   6.582   1.469   5.325  0.2955 -2.6539 -1.9944
  348MOL0     H46941   6.795   1.349   5.226 -0.5743 -0.8243  0.3541
  348MOL0     H46942   7.259   1.124   5.454 -1.6693  1.0900 -0.1807
  348MOL0     H46943   7.517   1.085   5.416 -0.3896  0.1104  2.2574
  348MOL0     H46944   7.746   1.149   5.412 -1.7344  0.8138 -0.1255
  348MOL0     H46945   7.690   1.043   5.280  0.2989 -0.4539 -0.6417
  348MOL0     H46946   7.850   1.168   5.136  0.0163  0.6393  0.1200
  348MOL0     H46947   7.950   1.199   5.284  0.4208  1.1932 -4.4221
  348MOL0     H46948   7.916   0.940   5.325  1.7934 -1.4138 -1.1163
  348MOL0     H46949   7.855   0.937   5.159 -0.2937  0.7817  0.0725
  348MOL0     H46950   8.147   1.018   5.230 -1.6395 -2.0538  2.6000
  348MOL0     H46951   8.079   1.034   5.075 -0.8191  0.9687  0.3307
  348MOL0     H46952   8.186   0.811   5.069  0.9757 -0.7016  0.3745
  348MOL0     H46953   8.014   0.788   5.075 -1.4874  1.5758  2.5620
  348MOL0     H46954   8.160   0.781   5.338  1.2083 -2.2651  0.3321
  348MOL0     H46955   8.002   0.708   5.279  0.0497 -2.6289 -2.1544
  348MOL0     H46956   8.222   0.610   5.114 -3.0053  2.2577 -1.8961
  348MOL0     H46957   8.119   0.516   5.233 -1.4792  0.9775  0.8560
  348MOL0     H46958   8.387   0.665   5.305  0.3280 -0.0374  0.5037
  348MOL0     H46959   8.280   0.596   5.411  0.0597  2.1539 -0.1557
  348MOL0     H46960   7.533   1.470   5.239  0.3770  0.6104  1.1053
  348MOL0     H46961   7.300   1.509   5.277 -0.3664 -0.2556 -0.6021
  348MOL0     H46962   6.985   1.436   5.616  0.4900 -0.9512 -0.2457
  348MOL0     H46963   6.808   1.539   5.686  0.9176  0.8828 -0.3242
  348MOL0     H46964   5.358   1.625   6.914  0.5379 -0.1120  0.6934
  348MOL0     H46965   5.095   1.569   6.935  0.0043  0.2029 -1.6499
  348MOL0     H46966   4.772   1.554   6.817  0.7131 -0.4393  0.7680
  348MOL0     H46967   4.583   1.414   6.791 -1.6683 -0.3424  1.2608
  348MOL0     H46968   4.234   1.310   6.835  1.6468 -1.3238  1.1289
  348MOL0     H46969   4.396   1.299   6.791  2.5911  2.2628 -0.6476
  348MOL0     H46970   4.281   1.362   6.591  1.0569  0.1771  0.1255
  348MOL0     H46971   4.392   1.488   6.625 -0.9879  1.5639 -2.4794
  348MOL0     H46972   4.164   1.578   6.537  2.3221  3.3272  0.3992
  348MOL0     H46973   4.192   1.625   6.702 -0.2809  0.8815 -1.4727
  348MOL0     H46974   4.051   1.364   6.645  2.4182  0.3170 -1.6447
  348MOL0     H46975   4.029   1.470   6.784  5.5982 -1.3318  0.7114
  348MOL0     H46976   3.785   1.667   6.492 -0.6678 -0.3829  1.5734
  348MOL0     H46977   4.353   1.672   7.046 -1.7066 -2.7631 -0.8353
  348MOL0     H46978   4.444   1.834   7.180 -1.3969 -1.6775 -4.3800
  348MOL0     H46979   4.618   1.814   7.212  1.0639 -0.0215 -0.6103
  348MOL0     H46980   4.557   1.933   7.087 -1.2122  0.1841 -1.1786
  349MOL0     O46981   8.197   5.090   8.841  0.3260 -0.0253 -0.2657
  349MOL0     C46982   8.193   5.010   8.753  0.7104 -0.2141  0.2112
  349MOL0     O46983   8.286   4.994   8.665 -0.6655 -0.2434  0.1565
  349MOL0     C46984   8.381   5.092   8.649  0.8906  0.7673 -0.6094
  349MOL0     C46985   8.368   5.177   8.539  1.1250 -0.1842  0.3460
  349MOL0     C46986   8.443   5.287   8.522  0.4431 -0.4471  1.0745
  349MOL0     C46987   8.537   5.318   8.609 -0.5975  0.4751 -0.3166
  349MOL0     O46988   8.629   5.420   8.586  0.0027  0.1092  0.5096
  349MOL0     C46989   8.569   5.547   8.564 -0.9161  0.0575 -0.1596
  349MOL0     C46990   8.671   5.648   8.547 -0.4592 -0.8237 -0.1075
  349MOL0     C46991   8.633   5.778   8.464 -0.2339  0.0526 -0.7107
  349MOL0     C46992   8.485   5.813   8.447 -0.4825 -0.6278  0.1803
  349MOL0     C46993   8.455   5.957   8.397  0.4912 -0.2109  0.1762
  349MOL0     C46994   8.494   6.068   8.488 -0.0444 -0.2151  0.4043
  349MOL0     C46995   8.477   6.205   8.422  0.4449  0.2059 -0.7327
  349MOL0     C46996   8.611   6.282   8.431  0.4526  0.3852 -1.1502
  349MOL0     N46997   8.676   6.304   8.566  0.4153  0.1587  0.6759
  349MOL0     C46998   8.617   6.342   8.680 -0.7430  0.2620  0.1019
  349MOL0     C46999   8.716   6.336   8.773 -0.2526  0.1641  0.0165
  349MOL0     C47000   8.708   6.371   8.917  1.5721  0.0577  0.2498
  349MOL0     C47001   8.782   6.281   9.004 -0.0841  0.1182 -0.2703
  349MOL0     C47002   8.708   6.261   9.141 -0.5350  0.2137 -0.1770
  349MOL0     C47003   8.765   6.144   9.221 -0.1294  0.3527  1.2245
  349MOL0     O47004   8.717   6.142   9.359 -0.1160  0.7898  0.7168
  349MOL0     C47005   8.603   6.083   9.395  0.1834 -0.0983 -0.2300
  349MOL0     C47006   8.552   6.094   9.531 -0.2175 -0.0087  0.7236
  349MOL0     C47007   8.432   6.042   9.563 -1.0204 -0.4994  0.8962
  349MOL0     C47008   8.359   5.959   9.462  0.8245  0.1139 -0.5076
  349MOL0     C47009   8.229   5.912   9.497  0.9458 -0.7478  0.5929
  349MOL0     O47010   8.156   5.856   9.393  0.0225 -0.1624 -0.9805
  349MOL0     C47011   8.024   5.807   9.391  0.1673 -0.2141  0.5466
  349MOL0     C47012   7.968   5.793   9.258  0.3267 -0.0353  0.1945
  349MOL0     C47013   7.841   5.743   9.245  0.0889  1.0614  0.3813
  349MOL0     C47014   7.758   5.712   9.357 -0.5236  0.2505 -0.2595
  349MOL0     O47015   7.625   5.682   9.360 -0.0335  0.5460  0.7583
  349MOL0     C47016   7.555   5.620   9.248  0.4018 -0.3887 -0.5326
  349MOL0     C47017   7.406   5.592   9.291  0.2627  0.8789  0.6248
  349MOL0     C47018   7.399   5.581   9.447  0.0533  0.3386 -0.5491
  349MOL0     C47019   7.256   5.519   9.475  0.4416 -1.1540 -1.0737
  349MOL0     C47020   7.258   5.369   9.502  0.8791  0.5045  0.0618
  349MOL0     C47021   7.117   5.314   9.504 -0.0037  0.5062  0.1224
  349MOL0     C47022   7.117   5.158   9.488 -0.3535 -0.0112 -0.0421
  349MOL0     C47023   6.987   5.111   9.543 -0.0024 -0.4124 -0.1369
  349MOL0    Cl47024   6.941   4.949   9.486  0.1890 -0.4100 -0.2580
  349MOL0     C47025   7.811   5.747   9.481  0.3288 -0.4841  0.3266
  349MOL0     C47026   7.943   5.787   9.504 -0.3724 -0.2744 -0.1889
  349MOL0     O47027   8.181   5.947   9.603  0.4398 -0.3776  0.9515
  349MOL0     C47028   8.408   5.932   9.338 -0.0259  0.7631  0.8686
  349MOL0     C47029   8.532   5.990   9.312  0.4466  0.2299 -0.4250
  349MOL0     N47030   8.832   6.297   8.709  0.2973  0.7359  0.8143
  349MOL0     N47031   8.799   6.264   8.591  0.7424 -0.1515 -0.2198
  349MOL0     C47032   8.559   5.232   8.726  0.3634 -0.6724 -0.4973
  349MOL0     C47033   8.479   5.116   8.744 -0.9461  0.3268  0.3561
  349MOL0     C47034   8.069   4.929   8.734 -0.7744  0.3241 -0.2625
  349MOL0     C47035   8.065   4.844   8.619  0.3835  0.3240  0.1193
  349MOL0     C47036   7.965   4.758   8.580 -0.9818  1.5123  0.0359
  349MOL0     C47037   7.866   4.744   8.672 -0.2603  0.1115 -0.2458
  349MOL0     O47038   7.777   4.645   8.676 -0.1608  0.0437  0.1444
  349MOL0     C47039   7.697   4.607   8.559 -0.2868 -0.1891 -1.2899
  349MOL0     C47040   7.562   4.548   8.603 -0.5551 -0.0757  0.2006
  349MOL0     C47041   7.445   4.639   8.624  0.1689 -0.9210  1.4594
  349MOL0     C47042   7.472   4.764   8.716  0.6655 -0.5990  0.0068
  349MOL0     C47043   7.358   4.854   8.716 -0.3345 -0.5909  0.3340
  349MOL0     C47044   7.255   4.919   8.710  0.4411  0.2696 -0.5130
  349MOL0     C47045   7.860   4.814   8.792  0.2472 -0.7874  0.4292
  349MOL0     C47046   7.950   4.920   8.818 -0.4255 -0.3153 -0.1958
  349MOL0     C47047   7.918   5.026   8.926 -0.2864 -0.2171  0.6760
  349MOL0     H47048   8.301   5.146   8.459 -0.4673  0.9432  1.1735
  349MOL0     H47049   8.450   5.352   8.435 -1.8850 -2.6786 -0.9487
  349MOL0     H47050   8.510   5.540   8.472 -1.4175 -1.0144  0.2305
  349MOL0     H47051   8.502   5.575   8.646 -1.6394 -1.2494 -0.2829
  349MOL0     H47052   8.771   5.614   8.518  0.9708  2.1931  0.8060
  349MOL0     H47053   8.683   5.683   8.650  1.2527  0.5376 -0.7126
  349MOL0     H47054   8.680   5.779   8.365 -1.5600  1.5345 -1.3740
  349MOL0     H47055   8.683   5.859   8.520 -1.1079  0.2861 -0.2447
  349MOL0     H47056   8.442   5.743   8.375 -2.9362 -0.7786  1.6749
  349MOL0     H47057   8.429   5.778   8.534 -2.0690 -1.3031 -1.0511
  349MOL0     H47058   8.521   5.971   8.311  0.5253 -1.6335 -0.0593
  349MOL0     H47059   8.349   5.964   8.374  0.3551 -1.1881  0.4744
  349MOL0     H47060   8.431   6.066   8.578  0.6920  3.5253  1.1775
  349MOL0     H47061   8.600   6.062   8.515 -0.7754  2.6131  5.0476
  349MOL0     H47062   8.411   6.275   8.473  0.7426  0.1457 -0.2532
  349MOL0     H47063   8.447   6.187   8.319 -0.8867 -3.7045  0.1901
  349MOL0     H47064   8.686   6.230   8.371 -1.6879 -0.0386 -3.6024
  349MOL0     H47065   8.590   6.379   8.386  2.5673  1.8606  0.7859
  349MOL0     H47066   8.513   6.370   8.699 -1.0134  0.4668 -1.5751
  349MOL0     H47067   8.742   6.475   8.914  0.3512  0.4416 -1.5206
  349MOL0     H47068   8.602   6.368   8.942  1.7422 -2.9017  0.9393
  349MOL0     H47069   8.784   6.187   8.948 -1.5729 -2.8941  4.1439
  349MOL0     H47070   8.884   6.319   9.017 -0.3215  0.2703  1.3183
  349MOL0     H47071   8.601   6.243   9.127 -0.8758  1.5959  0.4005
  349MOL0     H47072   8.710   6.353   9.201  0.6321  0.1632 -0.1163
  349MOL0     H47073   8.872   6.157   9.235  0.1463 -1.3423  0.8395
  349MOL0     H47074   8.763   6.049   9.168  2.7559  0.8921  0.0103
  349MOL0     H47075   8.618   6.150   9.597  0.6750  1.9226 -1.6435
  349MOL0     H47076   8.396   6.066   9.662  1.1155  2.7865  1.0512
  349MOL0     H47077   8.012   5.811   9.161 -1.4095  0.3678 -0.5505
  349MOL0     H47078   7.804   5.717   9.146 -1.3401  0.5380  1.0296
  349MOL0     H47079   7.566   5.685   9.161  0.4620  0.4438  0.0915
  349MOL0     H47080   7.600   5.524   9.221 -2.2423 -1.0758 -3.0202
  349MOL0     H47081   7.350   5.679   9.257  0.2803  1.1622  1.3091
  349MOL0     H47082   7.369   5.505   9.236 -0.0445  1.5379 -0.2264
  349MOL0     H47083   7.480   5.521   9.490  2.0029  4.0778  1.4869
  349MOL0     H47084   7.412   5.677   9.497  1.6046  0.5264 -1.2729
  349MOL0     H47085   7.182   5.538   9.397  1.1107 -0.5641 -1.5757
  349MOL0     H47086   7.220   5.574   9.562 -0.5542  0.1944 -2.3001
  349MOL0     H47087   7.313   5.344   9.592  2.0676 -0.3579 -0.8676
  349MOL0     H47088   7.306   5.325   9.414 -0.1603  0.5311 -0.5383
  349MOL0     H47089   7.076   5.352   9.598 -0.3136  3.2353 -1.0408
  349MOL0     H47090   7.061   5.357   9.421 -1.3635  2.1230  1.7998
  349MOL0     H47091   7.206   5.122   9.540  1.1205  1.7098 -1.2360
  349MOL0     H47092   7.119   5.127   9.383 -2.9193 -1.0808  0.1539
  349MOL0     H47093   6.981   5.111   9.652 -0.3179  1.6772 -0.1256
  349MOL0     H47094   6.903   5.178   9.521 -3.0971 -2.7595  3.2491
  349MOL0     H47095   7.740   5.730   9.561 -0.4110 -3.3041 -0.8317
  349MOL0     H47096   7.995   5.793   9.599 -0.1961 -0.8084 -0.2475
  349MOL0     H47097   8.355   5.876   9.261 -1.5206  1.0437  1.6454
  349MOL0     H47098   8.566   5.972   9.210  0.2172 -0.8058 -0.3306
  349MOL0     H47099   8.629   5.269   8.801 -0.5022  1.2562 -0.5806
  349MOL0     H47100   8.477   5.071   8.843  0.9943  3.0288  1.7746
  349MOL0     H47101   8.143   4.856   8.544 -0.8154 -1.4087 -1.4904
  349MOL0     H47102   7.968   4.699   8.489  0.7534  0.5347  0.6624
  349MOL0     H47103   7.750   4.549   8.483  0.4066 -0.4293 -0.6341
  349MOL0     H47104   7.679   4.706   8.515  4.0543  1.0683 -0.6734
  349MOL0     H47105   7.582   4.490   8.695  0.8309 -0.0639 -0.0666
  349MOL0     H47106   7.535   4.482   8.520 -0.7734  1.3929 -0.9124
  349MOL0     H47107   7.360   4.576   8.653 -2.2638  1.1602 -0.6158
  349MOL0     H47108   7.405   4.684   8.533 -0.1667 -2.7021  0.6696
  349MOL0     H47109   7.484   4.712   8.812 -1.6407 -1.2562  0.0042
  349MOL0     H47110   7.566   4.818   8.704 -0.2734  1.1276  0.2026
  349MOL0     H47111   7.172   4.986   8.699  1.8448  2.5264  1.5714
  349MOL0     H47112   7.786   4.786   8.866 -0.2441 -0.5892  0.0140
  349MOL0     H47113   7.815   5.019   8.962 -0.0627  1.3482  1.7515
  349MOL0     H47114   7.977   5.027   9.019 -0.4200  0.8111  0.7644
  349MOL0     H47115   7.927   5.125   8.881 -0.6797  0.6542  2.4085
  350MOL0     O47116  10.540   7.883   0.670  0.0773  0.6433 -0.4649
  350MOL0     C47117  10.639   7.814   0.653 -0.3723 -0.0031  0.0132
  350MOL0     O47118  10.624   7.682   0.609  0.2579 -0.5827  0.3506
  350MOL0     C47119  10.505   7.621   0.615  0.4373 -0.2941 -0.3018
  350MOL0     C47120  10.480   7.500   0.681 -1.0463 -0.0560  0.5761
  350MOL0     C47121  10.360   7.432   0.677  0.1337  0.1237  0.5359
  350MOL0     C47122  10.248   7.487   0.609 -0.4414 -0.4627  0.9080
  350MOL0     O47123  10.128   7.425   0.591  0.8076  0.0478 -0.3817
  350MOL0     C47124  10.104   7.283   0.620 -0.2567 -0.1453 -0.0483
  350MOL0     C47125   9.956   7.259   0.628  0.0955 -0.0094  0.1913
  350MOL0     C47126   9.923   7.144   0.547  0.0187  0.4467  0.0064
  350MOL0     C47127   9.953   7.164   0.396 -0.2933 -0.7883  0.8941
  350MOL0     C47128   9.860   7.106   0.292  0.2810 -0.4582  1.1142
  350MOL0     C47129   9.917   7.118   0.150 -0.2968 -0.7135  0.3361
  350MOL0     C47130   9.970   7.257   0.103 -0.3886 -0.8991 -1.0348
  350MOL0     C47131   9.913   7.295  -0.042 -0.9385  0.3363 -0.2493
  350MOL0     N47132   9.995   7.413  -0.095  0.2566  0.3564 -0.0863
  350MOL0     C47133   9.997   7.545  -0.056  0.0822 -0.2225 -0.6665
  350MOL0     C47134  10.076   7.611  -0.147 -0.2208 -0.5380 -0.0516
  350MOL0     C47135  10.074   7.760  -0.160 -0.1094 -0.2742  0.8720
  350MOL0     C47136  10.182   7.813  -0.067 -0.7667 -0.3943 -0.5312
  350MOL0     C47137  10.143   7.817   0.078 -0.6892  0.6199 -0.2594
  350MOL0     C47138  10.222   7.931   0.158 -0.3305  0.5706  0.3555
  350MOL0     O47139  10.365   7.907   0.149  0.2785  0.5869 -0.1856
  350MOL0     C47140  10.446   8.018   0.180  0.2964  0.1402 -0.0927
  350MOL0     C47141  10.456   8.121   0.083 -0.0499  0.3016 -0.7040
  350MOL0     C47142  10.555   8.218   0.087  0.2343 -0.9974  0.7457
  350MOL0     C47143  10.652   8.206   0.195  1.0240  0.6332 -0.5463
  350MOL0     C47144  10.774   8.293   0.202  0.0041  0.2258 -0.4810
  350MOL0     O47145  10.841   8.330   0.090 -0.1097  0.0963 -0.0394
  350MOL0     C47146  10.960   8.409   0.105  0.8594  0.2095  0.3663
  350MOL0     C47147  11.039   8.433   0.225  0.1102  0.4743 -0.2844
  350MOL0     C47148  11.159   8.505   0.216  0.6786 -0.3814  0.4399
  350MOL0     C47149  11.199   8.560   0.092 -0.3878  0.4718  0.6877
  350MOL0     O47150  11.318   8.634   0.071  0.4101  0.4943 -0.4048
  350MOL0     C47151  11.397   8.677   0.177 -0.4480  0.1269 -0.8263
  350MOL0     C47152  11.532   8.728   0.131 -0.1304 -0.0869 -0.2069
  350MOL0     C47153  11.584   8.800   0.246 -0.2597  0.3073  0.1468
  350MOL0     C47154  11.726   8.863   0.221  0.4174  0.0300  0.6463
  350MOL0     C47155  11.774   8.956   0.335 -1.0724  0.5604  0.0870
  350MOL0     C47156  11.843   8.874   0.440 -0.0548 -0.4558 -0.3475
  350MOL0     C47157  11.902   8.937   0.569  0.7048 -0.3128  0.3263
  350MOL0     C47158  12.015   9.026   0.522  0.3347 -0.1025  0.6803
  350MOL0    Cl47159  12.055   9.131   0.649  0.2395  0.1459 -0.2791
  350MOL0     C47160  11.117   8.532  -0.017 -0.2177 -0.1945  0.1460
  350MOL0     C47161  11.010   8.453  -0.016  0.1370  0.2068  0.0257
  350MOL0     O47162  10.803   8.319   0.323 -0.2840  0.0331  0.6756
  350MOL0     C47163  10.629   8.114   0.293 -0.0535 -0.0392 -0.8698
  350MOL0     C47164  10.527   8.027   0.296  0.3507  0.0015 -0.1753
  350MOL0     N47165  10.123   7.515  -0.238  0.4118  0.6739  0.9825
  350MOL0     N47166  10.072   7.404  -0.209 -0.1502 -0.0206 -1.3687
  350MOL0     C47167  10.275   7.601   0.531  0.5917 -0.2795  0.7324
  350MOL0     C47168  10.402   7.664   0.535  0.3472  0.3237 -0.6980
  350MOL0     C47169  10.767   7.879   0.626  0.3392  0.6894  0.5111
  350MOL0     C47170  10.876   7.801   0.606 -0.5835  0.4661  0.7210
  350MOL0     C47171  11.013   7.846   0.579 -0.1234 -0.2966 -0.3870
  350MOL0     C47172  11.028   7.986   0.575 -0.3256  0.1619  0.7106
  350MOL0     O47173  11.147   8.050   0.556  0.0575  0.4100  0.5310
  350MOL0     C47174  11.265   7.973   0.521  0.7988  0.6058  0.4833
  350MOL0     C47175  11.380   8.062   0.478 -0.0239  0.1441  0.8011
  350MOL0     C47176  11.326   8.157   0.373 -0.5840  0.2691  0.6439
  350MOL0     C47177  11.429   8.241   0.300 -0.3550 -0.5695 -0.6123
  350MOL0     C47178  11.486   8.340   0.387  0.2167  0.7477  0.0391
  350MOL0     C47179  11.517   8.422   0.470  0.2553  0.2623  0.0043
  350MOL0     C47180  10.920   8.076   0.600 -0.1916  0.6877  0.7333
  350MOL0     C47181  10.785   8.025   0.621 -1.0818 -0.0927  0.7454
  350MOL0     C47182  10.672   8.128   0.625 -0.0808 -0.6611  0.0095
  350MOL0     H47183  10.565   7.453   0.729 -1.5897  0.8206  2.4782
  350MOL0     H47184  10.336   7.340   0.728 -1.0324  0.4763  0.6659
  350MOL0     H47185  10.157   7.235   0.537 -2.3005 -3.1390  0.2176
  350MOL0     H47186  10.145   7.254   0.717 -1.8267  1.4973  1.1591
  350MOL0     H47187   9.901   7.348   0.594 -1.3434 -0.7913  0.3777
  350MOL0     H47188   9.924   7.236   0.730 -0.8720  0.5136  0.0168
  350MOL0     H47189   9.817   7.123   0.564 -0.4706  3.1216  0.7557
  350MOL0     H47190   9.984   7.063   0.588  0.0948  0.3599 -0.2754
  350MOL0     H47191   9.976   7.270   0.381  0.6349 -1.2147 -1.0920
  350MOL0     H47192  10.044   7.112   0.365 -0.1773  1.3106 -2.8983
  350MOL0     H47193   9.840   6.999   0.308  0.1638 -0.9218 -1.6773
  350MOL0     H47194   9.765   7.159   0.284  0.8262  0.1938 -2.3844
  350MOL0     H47195  10.004   7.052   0.145  1.3148  1.3225  0.3115
  350MOL0     H47196   9.839   7.072   0.090 -2.4044  0.6566  1.8723
  350MOL0     H47197  10.077   7.265   0.120 -0.3175 -0.8348 -1.5088
  350MOL0     H47198   9.929   7.335   0.168 -1.9352 -2.6546  0.2142
  350MOL0     H47199   9.949   7.213  -0.105  0.6383 -0.9725  2.1901
  350MOL0     H47200   9.805   7.309  -0.052 -0.6714  2.2337 -0.8439
  350MOL0     H47201   9.932   7.590   0.019 -1.0207  1.4309 -2.5038
  350MOL0     H47202  10.104   7.790  -0.261 -1.3456  0.8068  0.7942
  350MOL0     H47203   9.976   7.803  -0.139  0.3388  2.0506 -1.2914
  350MOL0     H47204  10.269   7.747  -0.066 -0.1452  0.3912  0.8145
  350MOL0     H47205  10.204   7.917  -0.093 -1.8346 -0.1815 -0.6228
  350MOL0     H47206  10.176   7.722   0.123  1.4671  0.2805 -2.2981
  350MOL0     H47207  10.037   7.841   0.080 -1.2354 -1.5152 -0.8799
  350MOL0     H47208  10.186   7.920   0.260 -1.1610 -0.6146 -0.0404
  350MOL0     H47209  10.203   8.032   0.120  3.2771  1.4760  0.5710
  350MOL0     H47210  10.393   8.129  -0.005 -2.7014  2.3042  1.1902
  350MOL0     H47211  10.573   8.295   0.013 -2.6981 -0.9159 -0.0111
  350MOL0     H47212  11.019   8.389   0.322 -0.4178 -3.3051 -1.9036
  350MOL0     H47213  11.212   8.535   0.306 -1.1476  2.8352  0.5758
  350MOL0     H47214  11.343   8.758   0.227  0.8972 -0.2690  1.4391
  350MOL0     H47215  11.409   8.601   0.255  0.7242 -0.6555 -1.7302
  350MOL0     H47216  11.597   8.647   0.098 -0.2183 -1.0270  1.7484
  350MOL0     H47217  11.517   8.797   0.048 -0.2163  1.0081  0.6926
  350MOL0     H47218  11.509   8.875   0.273 -1.3320 -1.2704  1.7601
  350MOL0     H47219  11.601   8.745   0.339  2.8688  1.9608  0.7004
  350MOL0     H47220  11.711   8.923   0.131 -3.9082 -0.0882  1.0857
  350MOL0     H47221  11.801   8.786   0.200 -0.8746 -1.4457  1.2467
  350MOL0     H47222  11.689   9.004   0.385 -1.4779 -0.5587  0.5028
  350MOL0     H47223  11.839   9.035   0.298 -0.2592 -1.2374 -2.5790
  350MOL0     H47224  11.769   8.802   0.476 -0.6351 -0.9170 -2.3289
  350MOL0     H47225  11.932   8.821   0.406 -0.0861 -0.1902 -0.8591
  350MOL0     H47226  11.937   8.860   0.639 -2.5970  1.0405  3.8475
  350MOL0     H47227  11.835   9.000   0.628  1.8681 -0.5065  1.9486
  350MOL0     H47228  12.103   8.973   0.485 -1.0080 -0.2853 -2.6707
  350MOL0     H47229  11.986   9.086   0.435  1.5206 -2.1932 -1.2804
  350MOL0     H47230  11.151   8.557  -0.117 -2.6727  0.7899 -0.5215
  350MOL0     H47231  10.955   8.434  -0.107 -1.1356  0.5290  0.6923
  350MOL0     H47232  10.696   8.119   0.379 -0.2529 -4.3147 -0.2494
  350MOL0     H47233  10.518   7.954   0.376  1.0949  0.4240  0.3043
  350MOL0     H47234  10.202   7.640   0.461 -2.2937 -2.0039  2.5705
  350MOL0     H47235  10.422   7.750   0.473  3.1688  0.2160 -0.0663
  350MOL0     H47236  10.866   7.693   0.604  0.6119  0.1314  4.6645
  350MOL0     H47237  11.092   7.772   0.563  0.1438  0.0194 -0.5427
  350MOL0     H47238  11.232   7.914   0.434 -0.8965 -0.7833  1.9918
  350MOL0     H47239  11.302   7.906   0.599 -0.6998 -2.1590 -1.0056
  350MOL0     H47240  11.460   8.003   0.433  0.0356  0.7802  0.0422
  350MOL0     H47241  11.430   8.114   0.559  0.4278  0.8334  0.0921
  350MOL0     H47242  11.248   8.227   0.406 -3.4739 -1.9680 -0.9339
  350MOL0     H47243  11.276   8.102   0.293  2.1056 -2.0155  0.3889
  350MOL0     H47244  11.508   8.182   0.253  0.9846 -0.4294  1.3425
  350MOL0     H47245  11.370   8.288   0.220 -0.9401  1.7203  1.0704
  350MOL0     H47246  11.540   8.504   0.536  0.5657 -1.7695  2.6030
  350MOL0     H47247  10.939   8.183   0.601  0.3564  0.6202 -0.6113
  350MOL0     H47248  10.600   8.098   0.549  0.1001  0.5470 -0.6521
  350MOL0     H47249  10.631   8.124   0.727  2.2146 -0.3317  1.0191
  350MOL0     H47250  10.707   8.230   0.610 -1.4144  0.2059  2.3300
  351MOL0     O47251   3.150   0.045   3.128 -0.2359  0.3184 -0.3079
  351MOL0     C47252   3.216  -0.063   3.128 -0.0222 -0.0114 -1.0833
  351MOL0     O47253   3.173  -0.190   3.154 -0.6873 -0.5508 -0.0382
  351MOL0     C47254   3.031  -0.185   3.153  0.6780  0.7510 -1.1569
  351MOL0     C47255   2.959  -0.239   3.042  0.8005  0.2889 -0.8807
  351MOL0     C47256   2.820  -0.265   3.045  1.5394  0.0548 -0.0536
  351MOL0     C47257   2.747  -0.219   3.156 -0.1352  0.6355  0.4290
  351MOL0     O47258   2.611  -0.236   3.180  0.1355  0.1350 -0.6226
  351MOL0     C47259   2.535  -0.308   3.082  0.1997 -0.0700 -0.3852
  351MOL0     C47260   2.551  -0.468   3.096  0.0687  0.7811  0.5295
  351MOL0     C47261   2.432  -0.537   3.036  0.7194  0.4903  0.2607
  351MOL0     C47262   2.444  -0.558   2.881 -0.5449  0.8586 -0.3469
  351MOL0     C47263   2.571  -0.644   2.842  0.5168 -0.2240  1.0614
  351MOL0     C47264   2.534  -0.679   2.695 -0.1091 -0.7844 -0.4187
  351MOL0     C47265   2.625  -0.803   2.656  0.1473 -0.6504 -0.4487
  351MOL0     C47266   2.603  -0.842   2.517  0.2270  0.6712 -0.0877
  351MOL0     N47267   2.669  -0.963   2.461 -0.5366 -0.8580 -0.1622
  351MOL0     C47268   2.774  -1.033   2.509  0.9888  0.0631 -0.0125
  351MOL0     C47269   2.796  -1.141   2.426 -0.1850  0.2366  0.5032
  351MOL0     C47270   2.901  -1.245   2.422  0.3041  0.0659  0.5255
  351MOL0     C47271   3.034  -1.198   2.385 -0.3905 -0.8613 -0.4187
  351MOL0     C47272   3.043  -1.162   2.239  0.1250 -0.1541 -0.1551
  351MOL0     C47273   3.189  -1.133   2.222  0.4187 -0.1103  1.0339
  351MOL0     O47274   3.196  -1.099   2.085 -0.3629 -0.3631  0.1905
  351MOL0     C47275   3.321  -1.074   2.031  0.5301 -0.0732  0.1402
  351MOL0     C47276   3.440  -1.069   2.106 -0.0214 -0.6933 -0.6794
  351MOL0     C47277   3.559  -1.032   2.043 -0.5899 -0.2439  0.2474
  351MOL0     C47278   3.569  -1.012   1.901 -0.9360  0.5596 -1.1629
  351MOL0     C47279   3.700  -0.989   1.840  0.1280 -0.1368  0.7612
  351MOL0     O47280   3.693  -0.993   1.700  0.5552  0.2365 -0.1609
  351MOL0     C47281   3.806  -1.007   1.618  0.5161  0.5789 -0.2933
  351MOL0     C47282   3.783  -1.053   1.488  0.4349  0.7871 -0.7677
  351MOL0     C47283   3.892  -1.060   1.397  1.0458 -0.4771  0.3005
  351MOL0     C47284   4.017  -1.016   1.435  0.5967 -0.3079 -0.5132
  351MOL0     O47285   4.111  -1.037   1.340  0.7179  0.5775  0.5193
  351MOL0     C47286   4.241  -0.983   1.358 -0.0268 -0.8916  0.3130
  351MOL0     C47287   4.329  -1.052   1.258 -0.6614  0.2828 -0.3366
  351MOL0     C47288   4.469  -1.015   1.256  0.0532 -0.5331 -0.4164
  351MOL0     C47289   4.539  -1.114   1.164  0.5005 -0.3747 -0.1126
  351MOL0     C47290   4.679  -1.063   1.118  0.3529  0.0526 -0.5100
  351MOL0     C47291   4.803  -1.089   1.210  0.0325 -1.1190  0.3570
  351MOL0     C47292   4.928  -1.044   1.136 -0.0958 -0.6404 -0.1176
  351MOL0     C47293   4.950  -1.118   1.002 -0.1810 -0.0755 -0.5218
  351MOL0    Cl47294   5.116  -1.097   0.958 -0.4188 -0.0572 -0.1375
  351MOL0     C47295   4.044  -0.972   1.563  0.9496  0.1912 -0.3327
  351MOL0     C47296   3.943  -0.968   1.658  0.0795  0.9573 -0.3242
  351MOL0     O47297   3.806  -0.975   1.904  1.0158  0.6967 -0.0935
  351MOL0     C47298   3.457  -1.025   1.829  0.2911 -0.2315 -0.0034
  351MOL0     C47299   3.329  -1.057   1.897 -0.5325 -0.1364 -0.3914
  351MOL0     N47300   2.709  -1.121   2.320  0.0229 -0.5618  0.1130
  351MOL0     N47301   2.640  -1.009   2.341 -0.8818 -0.6464 -0.3884
  351MOL0     C47302   2.814  -0.160   3.259 -0.3179  0.6350 -0.6393
  351MOL0     C47303   2.954  -0.144   3.264  1.2068  0.8962 -0.2062
  351MOL0     C47304   3.365  -0.066   3.113  0.4169  0.3589  1.1018
  351MOL0     C47305   3.439  -0.184   3.062  0.2254 -1.1296  1.1534
  351MOL0     C47306   3.579  -0.197   3.058 -0.8628 -0.0985  0.3699
  351MOL0     C47307   3.654  -0.093   3.108  0.4423 -0.4984 -0.2760
  351MOL0     O47308   3.788  -0.079   3.103  0.5130 -0.0978  0.1304
  351MOL0     C47309   3.867  -0.167   3.020 -0.5996 -0.7233 -0.4827
  351MOL0     C47310   4.016  -0.152   3.071  0.0181 -0.1751  0.8737
  351MOL0     C47311   4.082  -0.003   3.051  1.2274  0.1749  0.0074
  351MOL0     C47312   4.185   0.039   3.163 -0.0091  0.5768 -0.1971
  351MOL0     C47313   4.306  -0.049   3.164  0.7026 -0.1288  0.4838
  351MOL0     C47314   4.406  -0.108   3.131  0.3337 -0.6245  0.3290
  351MOL0     C47315   3.590   0.016   3.168 -0.4788  1.1595  0.9167
  351MOL0     C47316   3.447   0.038   3.165  1.0397  0.0924  0.0276
  351MOL0     C47317   3.402   0.161   3.234  0.6082 -0.9551 -0.3138
  351MOL0     H47318   3.020  -0.271   2.958  0.1865  1.3046 -1.7357
  351MOL0     H47319   2.769  -0.311   2.962 -0.2520  0.7035  0.6428
  351MOL0     H47320   2.433  -0.278   3.107  0.0313 -2.7379  2.7769
  351MOL0     H47321   2.553  -0.263   2.984  1.0846 -0.2622 -0.3169
  351MOL0     H47322   2.550  -0.500   3.200 -2.1584 -2.2677 -0.3016
  351MOL0     H47323   2.640  -0.510   3.047 -2.1941 -3.6894 -0.2167
  351MOL0     H47324   2.336  -0.492   3.058 -0.2349 -1.4760  0.3206
  351MOL0     H47325   2.434  -0.633   3.088 -1.7318 -0.1479 -0.7207
  351MOL0     H47326   2.358  -0.611   2.841 -0.4411  2.2765 -2.6091
  351MOL0     H47327   2.436  -0.465   2.824 -5.4292  1.6897  1.1971
  351MOL0     H47328   2.654  -0.572   2.842  0.2750  0.0976 -0.4527
  351MOL0     H47329   2.588  -0.731   2.906  2.2844 -0.3069  0.5294
  351MOL0     H47330   2.430  -0.711   2.688 -0.4018  0.3093 -1.4353
  351MOL0     H47331   2.550  -0.601   2.619  2.5893 -0.3624  0.4855
  351MOL0     H47332   2.599  -0.883   2.727  0.4627 -1.0824 -0.8103
  351MOL0     H47333   2.730  -0.785   2.682  1.0176 -4.8317 -0.3098
  351MOL0     H47334   2.499  -0.866   2.493  0.3859  0.5311 -0.6545
  351MOL0     H47335   2.636  -0.761   2.450  0.0620 -0.7192 -1.9244
  351MOL0     H47336   2.827  -1.011   2.602  2.9249 -0.7363 -0.8568
  351MOL0     H47337   2.896  -1.291   2.521 -0.9759 -0.5433  0.1964
  351MOL0     H47338   2.875  -1.319   2.345 -0.3944  0.1239  0.6952
  351MOL0     H47339   3.063  -1.121   2.458  1.6061 -1.0142 -0.9721
  351MOL0     H47340   3.109  -1.276   2.398  1.5440  0.7720 -1.1336
  351MOL0     H47341   2.991  -1.067   2.223  3.3249  1.7526 -0.1334
  351MOL0     H47342   3.000  -1.239   2.174 -0.5571  0.5824 -0.5918
  351MOL0     H47343   3.246  -1.225   2.236  1.5437  0.4471  0.2777
  351MOL0     H47344   3.218  -1.054   2.292 -2.0757  3.1548 -1.2938
  351MOL0     H47345   3.447  -1.066   2.214  0.6658  0.9347 -0.7378
  351MOL0     H47346   3.650  -1.025   2.103  0.6966  0.1038 -1.6615
  351MOL0     H47347   3.684  -1.084   1.458 -0.0741 -0.4018  1.9584
  351MOL0     H47348   3.877  -1.082   1.292  3.2425 -1.0980  0.0753
  351MOL0     H47349   4.247  -0.879   1.325  2.6482 -0.9646  0.3402
  351MOL0     H47350   4.285  -0.990   1.458  1.1532  2.3815  0.1336
  351MOL0     H47351   4.324  -1.161   1.263 -0.9399  0.2019 -2.0021
  351MOL0     H47352   4.284  -1.032   1.160  2.8619  1.5065 -1.8701
  351MOL0     H47353   4.482  -0.914   1.214  3.6134 -0.6393  0.1079
  351MOL0     H47354   4.518  -1.019   1.354 -1.8532 -0.6262  0.5840
  351MOL0     H47355   4.481  -1.130   1.073 -0.6252 -5.3180  1.1732
  351MOL0     H47356   4.546  -1.209   1.218  0.3171 -0.5958 -0.4773
  351MOL0     H47357   4.679  -0.958   1.086 -0.4698 -0.5082 -2.4745
  351MOL0     H47358   4.698  -1.125   1.030  0.7312 -1.2779  0.4727
  351MOL0     H47359   4.788  -1.034   1.304  1.6666  1.1878 -0.6503
  351MOL0     H47360   4.811  -1.197   1.219 -0.7680 -1.2404 -0.3181
  351MOL0     H47361   5.012  -1.065   1.203 -0.2558  0.9704  0.6330
  351MOL0     H47362   4.914  -0.940   1.108 -2.8693 -0.7097  0.6784
  351MOL0     H47363   4.926  -1.224   1.011 -0.0574 -0.1087 -0.5763
  351MOL0     H47364   4.895  -1.080   0.915 -1.7364 -0.5360  0.2327
  351MOL0     H47365   4.132  -0.925   1.605 -0.5065 -0.2890  3.6764
  351MOL0     H47366   3.970  -0.932   1.756  1.2833  1.2887 -0.7615
  351MOL0     H47367   3.449  -1.019   1.721 -0.0738 -0.1288  0.0268
  351MOL0     H47368   3.232  -1.067   1.848 -1.8305 -2.1592  2.3323
  351MOL0     H47369   2.755  -0.129   3.344  0.2776  2.2577 -0.7803
  351MOL0     H47370   2.994  -0.092   3.351  3.1261 -2.8020  1.3629
  351MOL0     H47371   3.397  -0.261   2.998  0.0850 -0.1590  0.0326
  351MOL0     H47372   3.628  -0.285   3.016 -2.7617 -0.9643 -0.1588
  351MOL0     H47373   3.862  -0.133   2.916  0.7746  2.7524  0.4630
  351MOL0     H47374   3.840  -0.273   3.029 -0.7552 -0.6385  0.0547
  351MOL0     H47375   4.084  -0.221   3.021  1.1614  0.7272  1.1464
  351MOL0     H47376   4.026  -0.178   3.177 -0.2728 -0.9626  0.7161
  351MOL0     H47377   3.999   0.069   3.052  1.0240 -0.0342 -0.9410
  351MOL0     H47378   4.133   0.003   2.955  2.6465  1.1742  0.7853
  351MOL0     H47379   4.208   0.142   3.131 -2.2458  0.5736 -2.0703
  351MOL0     H47380   4.144   0.050   3.264  1.0095  0.6933  0.2128
  351MOL0     H47381   4.503  -0.150   3.116  1.8671  3.0539 -1.3794
  351MOL0     H47382   3.646   0.096   3.215  0.3032  0.3674  1.3536
  351MOL0     H47383   3.483   0.232   3.254 -0.5617 -0.0181  1.4614
  351MOL0     H47384   3.341   0.225   3.170  0.1086  0.6290  1.6385
  351MOL0     H47385   3.365   0.149   3.337  2.7170 -0.8244  0.5000
  352MOL0     O47386   6.968   0.680   0.706  0.2388 -0.7534 -0.1908
  352MOL0     C47387   6.855   0.704   0.740 -0.1671  0.5587  1.0919
  352MOL0     O47388   6.809   0.730   0.860  0.1997  0.1782 -0.4699
  352MOL0     C47389   6.871   0.695   0.976 -1.1135 -0.0661 -0.4622
  352MOL0     C47390   6.783   0.668   1.079  0.0143  0.5595 -1.0029
  352MOL0     C47391   6.836   0.616   1.201 -0.5315 -0.0282  0.0030
  352MOL0     C47392   6.971   0.584   1.223  0.3178  0.0254  0.5127
  352MOL0     O47393   7.000   0.522   1.345  0.1691  1.0031  0.1976
  352MOL0     C47394   7.141   0.491   1.375  0.2421  0.3389  0.6638
  352MOL0     C47395   7.217   0.617   1.403 -0.2178 -0.0085 -0.6954
  352MOL0     C47396   7.359   0.592   1.450 -0.0098  0.2913  0.9026
  352MOL0     C47397   7.457   0.563   1.342 -0.6971  0.7785 -0.7943
  352MOL0     C47398   7.575   0.489   1.413 -0.9734  0.2124 -0.1175
  352MOL0     C47399   7.674   0.434   1.305 -0.5593 -0.4044 -0.3307
  352MOL0     C47400   7.805   0.370   1.367  0.2552  0.1554 -0.2220
  352MOL0     C47401   7.935   0.429   1.302  0.0697 -0.3836  0.1578
  352MOL0     N47402   8.060   0.379   1.366 -0.2381  0.1608  0.1511
  352MOL0     C47403   8.191   0.399   1.335 -1.1668 -0.6688  0.0821
  352MOL0     C47404   8.264   0.344   1.432 -1.3385 -0.2369 -0.2201
  352MOL0     C47405   8.415   0.345   1.446 -1.0824 -0.2352 -0.2714
  352MOL0     C47406   8.449   0.200   1.428 -0.9332  0.4585 -0.4030
  352MOL0     C47407   8.580   0.148   1.462 -0.2170 -0.3456 -0.3293
  352MOL0     C47408   8.705   0.222   1.395 -0.0971 -0.3725 -0.0305
  352MOL0     O47409   8.743   0.335   1.478  0.2307  0.6515 -0.1205
  352MOL0     C47410   8.874   0.383   1.455  0.1352 -0.6622  0.0604
  352MOL0     C47411   8.911   0.496   1.526 -0.6278  0.0844 -0.2902
  352MOL0     C47412   9.040   0.552   1.513 -0.4281 -0.1036 -0.0841
  352MOL0     C47413   9.144   0.491   1.433  0.5860  0.8105 -0.3376
  352MOL0     C47414   9.283   0.535   1.432  0.4685  0.1765  0.3197
  352MOL0     O47415   9.314   0.625   1.529 -0.1080 -0.0151 -0.0461
  352MOL0     C47416   9.446   0.664   1.555 -0.1611  1.1942  0.3159
  352MOL0     C47417   9.559   0.581   1.542  0.5136 -0.2678  0.1796
  352MOL0     C47418   9.683   0.640   1.555 -0.2457  0.0287 -0.4827
  352MOL0     C47419   9.709   0.766   1.605  0.3430 -0.5595 -0.7194
  352MOL0     O47420   9.835   0.824   1.636  0.0514  0.3695  0.1526
  352MOL0     C47421   9.941   0.802   1.540  0.0131 -0.9620 -0.7999
  352MOL0     C47422  10.070   0.839   1.615  0.3858  0.5198 -0.6367
  352MOL0     C47423  10.171   0.882   1.512 -0.2840 -0.2611 -0.8155
  352MOL0     C47424  10.266   0.980   1.570  0.1619 -0.7977  0.0888
  352MOL0     C47425  10.363   1.033   1.462  0.9886  0.9021  0.3826
  352MOL0     C47426  10.313   1.173   1.408  1.0424 -0.1847 -0.3589
  352MOL0     C47427  10.407   1.230   1.295  0.3826  0.5982  0.6163
  352MOL0     C47428  10.352   1.355   1.228  1.0873 -0.4061 -0.6773
  352MOL0    Cl47429  10.442   1.427   1.086  0.1994  0.2013  0.1007
  352MOL0     C47430   9.603   0.843   1.638 -0.2352  0.8503  0.0037
  352MOL0     C47431   9.474   0.795   1.615  0.0403  1.6169  0.5186
  352MOL0     O47432   9.359   0.493   1.345 -0.6621  0.3315 -0.0870
  352MOL0     C47433   9.100   0.377   1.353  0.3685 -0.4485 -0.2970
  352MOL0     C47434   8.963   0.331   1.358  0.3122 -0.4187  0.2527
  352MOL0     N47435   8.181   0.296   1.531  0.7976  0.7206  0.1194
  352MOL0     N47436   8.064   0.310   1.487  0.1895 -0.0887 -0.0841
  352MOL0     C47437   7.056   0.610   1.117  0.0356 -0.3600  0.3926
  352MOL0     C47438   7.007   0.666   0.995  0.5036 -1.0091 -0.9108
  352MOL0     C47439   6.752   0.685   0.644  0.2245  0.0623 -0.0321
  352MOL0     C47440   6.647   0.787   0.642 -0.0258 -0.1546 -0.1948
  352MOL0     C47441   6.542   0.775   0.554 -0.3040 -0.4785 -0.3819
  352MOL0     C47442   6.528   0.668   0.468 -0.5510 -0.5058  0.1228
  352MOL0     O47443   6.435   0.650   0.369  0.0638 -0.1875 -0.5114
  352MOL0     C47444   6.324   0.738   0.366 -0.2810 -0.4802 -0.2334
  352MOL0     C47445   6.219   0.689   0.270 -0.3939  0.1709 -1.1219
  352MOL0     C47446   6.107   0.791   0.282  0.0384  0.7088  0.0119
  352MOL0     C47447   6.005   0.768   0.166 -0.3293  0.5172  0.1933
  352MOL0     C47448   5.908   0.879   0.182 -0.2644  0.2924  0.3845
  352MOL0     C47449   5.824   0.969   0.195 -1.0651  0.0435 -0.2074
  352MOL0     C47450   6.619   0.566   0.476  0.1488  0.0356  0.7833
  352MOL0     C47451   6.735   0.571   0.560  0.8104 -0.0601 -0.9589
  352MOL0     C47452   6.835   0.457   0.546  1.0190  0.3385  0.3190
  352MOL0     H47453   6.676   0.674   1.067 -0.3768 -2.1309  0.3560
  352MOL0     H47454   6.753   0.586   1.264 -0.9700  0.0861 -0.5147
  352MOL0     H47455   7.143   0.420   1.458  0.4160 -0.6157 -0.1411
  352MOL0     H47456   7.182   0.434   1.291 -2.5091  1.1800 -1.3869
  352MOL0     H47457   7.160   0.665   1.482 -1.0148 -1.1226 -0.5631
  352MOL0     H47458   7.230   0.680   1.314 -0.0568 -1.0543 -1.4386
  352MOL0     H47459   7.358   0.510   1.522 -1.2852 -1.8989 -1.4276
  352MOL0     H47460   7.385   0.685   1.502 -2.9762  0.3181  2.5429
  352MOL0     H47461   7.417   0.495   1.266 -0.5425 -0.2216  0.0061
  352MOL0     H47462   7.502   0.653   1.299 -0.4078  0.0956 -1.9727
  352MOL0     H47463   7.620   0.553   1.490  0.5638 -0.7648 -0.1524
  352MOL0     H47464   7.545   0.404   1.476  2.1332 -0.3510  0.7861
  352MOL0     H47465   7.619   0.364   1.242  0.1941  1.4031 -3.1922
  352MOL0     H47466   7.710   0.517   1.245  1.2863  1.2286  2.7592
  352MOL0     H47467   7.816   0.263   1.347  0.9487 -0.2052  1.8452
  352MOL0     H47468   7.814   0.386   1.475  2.7834 -1.4785 -0.1174
  352MOL0     H47469   7.923   0.398   1.198 -2.2895 -0.4488  0.3882
  352MOL0     H47470   7.930   0.538   1.297 -0.6117 -0.2749  2.2565
  352MOL0     H47471   8.228   0.446   1.245  0.0669  1.1747  1.4651
  352MOL0     H47472   8.463   0.411   1.373  0.5508 -0.2943  0.6976
  352MOL0     H47473   8.439   0.357   1.552 -1.3112 -2.7774  0.1470
  352MOL0     H47474   8.388   0.138   1.494  0.1030  1.0666  1.2052
  352MOL0     H47475   8.431   0.179   1.322 -2.3042  2.2599 -0.5764
  352MOL0     H47476   8.581   0.043   1.432  1.7135  0.0648 -1.8797
  352MOL0     H47477   8.587   0.145   1.571 -1.4873 -0.8616 -0.2479
  352MOL0     H47478   8.694   0.244   1.288  0.8225  3.0877  0.4680
  352MOL0     H47479   8.785   0.148   1.408  0.3938 -0.0996 -1.3341
  352MOL0     H47480   8.841   0.544   1.594 -1.0407  1.2492 -1.4974
  352MOL0     H47481   9.068   0.635   1.576 -1.0576  1.2402 -1.5117
  352MOL0     H47482   9.555   0.486   1.490  2.4328  0.3112 -1.1484
  352MOL0     H47483   9.764   0.571   1.535  1.6521  2.1510 -0.5751
  352MOL0     H47484   9.942   0.700   1.501  1.4474 -2.0430  1.7509
  352MOL0     H47485   9.918   0.875   1.463  0.4356  0.7965  0.6744
  352MOL0     H47486  10.033   0.921   1.676 -2.2834  1.3471 -3.0988
  352MOL0     H47487  10.109   0.758   1.678 -2.3904  0.4482  1.1589
  352MOL0     H47488  10.227   0.791   1.485  1.3280 -0.0973  1.6721
  352MOL0     H47489  10.130   0.927   1.421 -4.2256 -2.3638 -0.3170
  352MOL0     H47490  10.325   0.939   1.653  1.6758 -0.6497 -0.8675
  352MOL0     H47491  10.210   1.066   1.610 -0.8477 -1.0074 -0.8475
  352MOL0     H47492  10.376   0.959   1.383 -0.0719  2.8753 -1.7689
  352MOL0     H47493  10.463   1.032   1.505  0.4255 -0.7983  1.7905
  352MOL0     H47494  10.207   1.177   1.381  1.3139  0.0077 -1.4499
  352MOL0     H47495  10.317   1.240   1.494  1.1551  0.4090 -0.8151
  352MOL0     H47496  10.430   1.153   1.221 -2.2700  2.2317 -2.1538
  352MOL0     H47497  10.502   1.264   1.336 -0.6174 -0.1351  3.7887
  352MOL0     H47498  10.243   1.352   1.214  0.6402  1.1748  1.7429
  352MOL0     H47499  10.351   1.432   1.306  1.3598  0.2111 -1.2763
  352MOL0     H47500   9.612   0.940   1.687 -1.4329  0.8950  0.1582
  352MOL0     H47501   9.385   0.847   1.647 -2.2557 -0.3593 -2.1694
  352MOL0     H47502   9.172   0.320   1.296 -2.1437 -1.3415 -2.8147
  352MOL0     H47503   8.930   0.249   1.295 -0.5411  0.9088 -1.0878
  352MOL0     H47504   7.160   0.583   1.134  0.3126 -0.2705 -0.9972
  352MOL0     H47505   7.090   0.679   0.926  0.1257  2.7974 -0.8398
  352MOL0     H47506   6.643   0.867   0.715  0.9338 -0.4536  0.2098
  352MOL0     H47507   6.471   0.857   0.549  1.0557  0.7036 -0.9072
  352MOL0     H47508   6.356   0.839   0.338 -1.8242  0.2567  0.5281
  352MOL0     H47509   6.278   0.742   0.466  1.0816 -2.0548  0.5166
  352MOL0     H47510   6.195   0.583   0.286 -2.3050  0.1285 -3.5574
  352MOL0     H47511   6.248   0.698   0.165 -0.7798  0.7413 -1.1853
  352MOL0     H47512   6.150   0.890   0.297  1.6797  0.2157 -1.2138
  352MOL0     H47513   6.056   0.768   0.376 -0.5945  1.4043 -0.1534
  352MOL0     H47514   6.064   0.780   0.075  1.1573  0.0443  1.0679
  352MOL0     H47515   5.961   0.668   0.170  0.8544  0.0168  2.5766
  352MOL0     H47516   5.755   1.050   0.212  0.2116  0.7900  1.6515
  352MOL0     H47517   6.600   0.485   0.407  0.1980  1.9804 -1.6294
  352MOL0     H47518   6.806   0.376   0.480  1.7816 -1.2423  1.8367
  352MOL0     H47519   6.926   0.502   0.505  0.6167  1.4418  0.5975
  352MOL0     H47520   6.857   0.408   0.641  0.3143  1.0314  0.8550
  353MOL0     O47521   4.003   7.236  11.314 -0.1531 -0.1418  0.0414
  353MOL0     C47522   3.945   7.251  11.419 -0.3428  0.2705 -0.2528
  353MOL0     O47523   4.002   7.248  11.544  0.1847  0.6633 -0.6313
  353MOL0     C47524   4.135   7.245  11.574  0.5979  0.5285  0.4697
  353MOL0     C47525   4.175   7.174  11.686  0.2449 -0.7075 -0.0328
  353MOL0     C47526   4.304   7.150  11.707  0.3932  0.4626  0.2444
  353MOL0     C47527   4.409   7.196  11.624 -0.3281  0.4531  0.7983
  353MOL0     O47528   4.541   7.156  11.656 -0.5024 -0.4085 -0.2036
  353MOL0     C47529   4.641   7.159  11.554 -0.3954 -0.0544 -0.0009
  353MOL0     C47530   4.771   7.080  11.588  0.4885 -0.5893  0.3016
  353MOL0     C47531   4.858   7.132  11.699  0.5023 -0.3383 -0.4714
  353MOL0     C47532   4.996   7.065  11.713 -0.3786 -0.0400 -0.8449
  353MOL0     C47533   5.067   7.104  11.851  0.3727  0.3046 -0.0485
  353MOL0     C47534   5.137   7.234  11.839  0.1193  0.1750  1.0736
  353MOL0     C47535   5.167   7.293  11.978  0.1496 -0.5280  0.6762
  353MOL0     C47536   5.230   7.203  12.082 -0.3703 -0.3465 -0.0660
  353MOL0     N47537   5.258   7.265  12.218 -0.0538  0.1805 -0.0838
  353MOL0     C47538   5.167   7.329  12.298 -0.0193  0.5377 -0.1777
  353MOL0     C47539   5.229   7.328  12.416  0.4202 -0.7594 -0.1332
  353MOL0     C47540   5.154   7.361  12.548  0.5882  0.2128  0.1585
  353MOL0     C47541   5.144   7.230  12.627  0.4434  0.4919  0.2110
  353MOL0     C47542   5.268   7.197  12.711  0.0160  0.3507 -1.1961
  353MOL0     C47543   5.332   7.288  12.820  0.0299 -0.4090  0.0555
  353MOL0     O47544   5.417   7.390  12.762 -0.6041  0.3745  0.5130
  353MOL0     C47545   5.479   7.485  12.843  0.0526  0.5185  1.1166
  353MOL0     C47546   5.495   7.607  12.782  0.1792  0.3108 -0.7447
  353MOL0     C47547   5.554   7.711  12.857 -0.5505 -0.1092  0.3553
  353MOL0     C47548   5.603   7.692  12.989 -0.4065  0.6580 -0.1466
  353MOL0     C47549   5.662   7.799  13.071 -0.2643 -1.0185 -0.3971
  353MOL0     O47550   5.699   7.918  13.013 -0.2425  0.7042  0.6531
  353MOL0     C47551   5.763   8.006  13.103  0.4533  0.8925 -0.4688
  353MOL0     C47552   5.688   8.084  13.198 -1.3204  0.2409  0.6172
  353MOL0     C47553   5.760   8.174  13.266 -0.0640 -0.6088  0.1313
  353MOL0     C47554   5.900   8.187  13.256  0.1187 -0.0961 -0.4656
  353MOL0     O47555   5.976   8.283  13.313 -0.2432  0.4621  0.6646
  353MOL0     C47556   5.907   8.398  13.359  0.1825  0.2694 -1.0739
  353MOL0     C47557   6.010   8.494  13.419  0.3439  0.0262 -0.0567
  353MOL0     C47558   6.112   8.447  13.540  0.0177 -0.2951  0.6576
  353MOL0     C47559   6.253   8.409  13.484 -0.3050  0.9305 -0.0213
  353MOL0     C47560   6.323   8.324  13.589 -0.3791 -0.3151  0.1310
  353MOL0     C47561   6.465   8.278  13.544 -0.3979  0.4489  0.0976
  353MOL0     C47562   6.545   8.219  13.659  0.3190 -0.0537  0.7297
  353MOL0     C47563   6.682   8.178  13.608 -0.1345 -0.0402  0.0343
  353MOL0    Cl47564   6.672   8.055  13.471  0.1886 -0.0751 -0.0744
  353MOL0     C47565   5.976   8.102  13.172  0.3164 -0.7285 -0.8560
  353MOL0     C47566   5.902   8.006  13.102  0.6190 -0.0048  0.1820
  353MOL0     O47567   5.676   7.775  13.192  0.0597 -0.7893  0.5678
  353MOL0     C47568   5.602   7.563  13.040  0.0875  0.0087 -0.2068
  353MOL0     C47569   5.538   7.460  12.966  0.7558  1.2484 -0.0254
  353MOL0     N47570   5.352   7.280  12.407  0.1732  0.3773  0.3038
  353MOL0     N47571   5.374   7.243  12.294  0.6421 -0.1516  0.0390
  353MOL0     C47572   4.369   7.283  11.518 -0.5348  0.4827 -0.3520
  353MOL0     C47573   4.230   7.309  11.495 -0.8889  0.5846 -0.3510
  353MOL0     C47574   3.795   7.249  11.422 -0.1147 -0.1174 -0.8654
  353MOL0     C47575   3.734   7.188  11.530  0.3063 -0.7132  0.1590
  353MOL0     C47576   3.600   7.198  11.559 -0.0359 -0.1732 -0.1281
  353MOL0     C47577   3.508   7.252  11.467 -0.1878 -0.4836 -0.5705
  353MOL0     O47578   3.372   7.242  11.499  0.1563  0.0602  0.2271
  353MOL0     C47579   3.273   7.290  11.405 -0.7678 -0.0770  0.1634
  353MOL0     C47580   3.132   7.271  11.460  0.0230  0.3019 -0.3825
  353MOL0     C47581   3.026   7.299  11.344  0.0843  0.0816  0.2977
  353MOL0     C47582   2.899   7.365  11.402 -0.1292  0.7422 -0.0160
  353MOL0     C47583   2.837   7.272  11.493 -0.6169 -0.9059 -1.0184
  353MOL0     C47584   2.796   7.189  11.576  0.5147  0.3161 -0.1211
  353MOL0     C47585   3.567   7.318  11.359 -0.2130 -0.5549  0.3878
  353MOL0     C47586   3.706   7.319  11.334 -0.2191 -0.4233  0.4966
  353MOL0     C47587   3.756   7.395  11.217  0.3580  1.2634 -0.6030
  353MOL0     H47588   4.086   7.146  11.741 -1.6677 -0.4749 -2.7890
  353MOL0     H47589   4.327   7.077  11.784 -2.3926 -0.2651  0.4904
  353MOL0     H47590   4.597   7.132  11.458 -3.5645 -1.0462  1.6130
  353MOL0     H47591   4.676   7.261  11.534  0.9137 -0.3063  0.9042
  353MOL0     H47592   4.838   7.087  11.502  0.4456  0.5888  0.3569
  353MOL0     H47593   4.741   6.975  11.597 -0.2567 -0.4231 -0.1670
  353MOL0     H47594   4.807   7.109  11.793  0.4384 -1.6606 -0.8085
  353MOL0     H47595   4.865   7.240  11.686 -2.7000 -0.1114 -1.0872
  353MOL0     H47596   4.972   6.960  11.695 -5.0071  0.3989  1.3695
  353MOL0     H47597   5.057   7.094  11.626 -1.6011 -0.7673 -1.9885
  353MOL0     H47598   4.991   7.107  11.930  0.3016 -1.0495 -0.0432
  353MOL0     H47599   5.145   7.035  11.887  0.7210  2.5794  4.1962
  353MOL0     H47600   5.222   7.217  11.773 -0.4563  1.9171 -0.1785
  353MOL0     H47601   5.076   7.312  11.792  1.0674  0.0204 -0.4923
  353MOL0     H47602   5.068   7.326  12.011 -1.5232 -0.9222 -3.4218
  353MOL0     H47603   5.231   7.380  11.965 -0.3305  0.0021  1.7078
  353MOL0     H47604   5.166   7.116  12.100 -0.4303 -0.5815 -1.2783
  353MOL0     H47605   5.326   7.162  12.050  0.7753  2.9914 -1.4491
  353MOL0     H47606   5.066   7.356  12.271 -0.4354 -0.7661 -0.0126
  353MOL0     H47607   5.206   7.445  12.595  1.6137 -0.6741  0.6503
  353MOL0     H47608   5.050   7.386  12.526  0.2995  0.2087  1.4351
  353MOL0     H47609   5.067   7.247  12.703  2.1551  1.6627  1.7678
  353MOL0     H47610   5.114   7.148  12.561 -1.2128  2.2469 -1.3904
  353MOL0     H47611   5.350   7.159  12.649 -0.7103  1.8087 -3.1428
  353MOL0     H47612   5.239   7.105  12.763  2.7376  0.0473 -0.0642
  353MOL0     H47613   5.396   7.218  12.875  1.5525 -0.3706 -1.5873
  353MOL0     H47614   5.267   7.328  12.898  2.7382 -3.5754  4.4253
  353MOL0     H47615   5.461   7.614  12.679  0.9030 -0.2082 -1.0228
  353MOL0     H47616   5.544   7.795  12.788  0.0675 -0.6267 -0.3880
  353MOL0     H47617   5.579   8.090  13.199 -1.2456  1.9363  0.8298
  353MOL0     H47618   5.688   8.239  13.312  3.1573  3.3962  0.0857
  353MOL0     H47619   5.852   8.441  13.275 -1.8726  2.1807  1.0786
  353MOL0     H47620   5.834   8.361  13.432  0.2632  1.2688 -0.4618
  353MOL0     H47621   6.071   8.513  13.331 -1.6605  0.9066 -1.3349
  353MOL0     H47622   5.968   8.590  13.449  0.1715  0.1867 -0.8011
  353MOL0     H47623   6.128   8.526  13.615  1.0358  0.4364 -0.3008
  353MOL0     H47624   6.062   8.372  13.601  0.4234  0.6583  2.2405
  353MOL0     H47625   6.303   8.502  13.456 -1.1667  1.4338  0.0645
  353MOL0     H47626   6.249   8.353  13.390  2.3155  2.2705 -1.0347
  353MOL0     H47627   6.259   8.235  13.602 -2.0761  0.9857  1.1176
  353MOL0     H47628   6.324   8.386  13.679  0.6565  1.3354 -0.9662
  353MOL0     H47629   6.467   8.199  13.468  1.1919 -0.6236  1.1861
  353MOL0     H47630   6.515   8.361  13.493 -3.3151  1.5322 -1.2158
  353MOL0     H47631   6.496   8.131  13.703 -1.0879 -0.2018 -1.0327
  353MOL0     H47632   6.557   8.295  13.737  2.1655 -0.1505  0.5917
  353MOL0     H47633   6.735   8.261  13.560  1.6303 -0.9866  0.2693
  353MOL0     H47634   6.737   8.131  13.690  1.5674 -0.7385 -1.4233
  353MOL0     H47635   6.084   8.116  13.166  0.2683  0.3080  0.2174
  353MOL0     H47636   5.950   7.950  13.022 -0.2083  1.1851 -1.2106
  353MOL0     H47637   5.659   7.540  13.130 -0.2177  1.6244  0.4391
  353MOL0     H47638   5.538   7.360  13.009 -1.3808  0.5256 -1.5279
  353MOL0     H47639   4.451   7.330  11.465  0.8835  1.3890  2.4327
  353MOL0     H47640   4.205   7.377  11.415 -3.6536  0.3183  0.2025
  353MOL0     H47641   3.792   7.135  11.604 -0.2388 -1.5942 -0.0263
  353MOL0     H47642   3.559   7.142  11.642 -0.2738 -0.5632 -0.4988
  353MOL0     H47643   3.290   7.220  11.322  0.4175 -2.0359  1.9447
  353MOL0     H47644   3.282   7.389  11.359 -2.1654 -0.3749 -0.8178
  353MOL0     H47645   3.118   7.340  11.544  0.5443 -3.0299  2.6476
  353MOL0     H47646   3.109   7.174  11.504  0.2012  1.0618  1.4570
  353MOL0     H47647   3.007   7.204  11.294 -2.7562  0.4290  0.5505
  353MOL0     H47648   3.081   7.362  11.273 -1.0349  0.1398 -0.5352
  353MOL0     H47649   2.923   7.456  11.457  1.5785  0.6516 -0.5644
  353MOL0     H47650   2.825   7.377  11.322 -0.5727  1.7041  0.5196
  353MOL0     H47651   2.767   7.103  11.632  1.6342  0.8428  1.3294
  353MOL0     H47652   3.507   7.379  11.292 -1.6957 -0.8804  1.3656
  353MOL0     H47653   3.850   7.358  11.174 -0.7625 -2.0412 -0.4763
  353MOL0     H47654   3.681   7.386  11.138 -2.8277 -0.6698  2.3833
  353MOL0     H47655   3.769   7.496  11.257 -4.1092  2.3764 -1.4175
  354MOL0     O47656   5.861   6.270  11.039  0.1077 -0.0192 -0.3089
  354MOL0     C47657   5.772   6.263  11.126  0.3156  0.1707  0.1207
  354MOL0     O47658   5.697   6.369  11.172  0.1566 -0.0574  0.2222
  354MOL0     C47659   5.751   6.489  11.140  0.1775  0.1060  1.1408
  354MOL0     C47660   5.849   6.547  11.226  0.4851 -0.3253  0.4149
  354MOL0     C47661   5.914   6.667  11.198 -0.7530 -0.1944  0.5539
  354MOL0     C47662   5.890   6.727  11.072  0.1940  0.1559  0.7424
  354MOL0     O47663   5.959   6.836  11.039  0.0233  0.3164  1.3049
  354MOL0     C47664   5.984   6.878  10.897  0.4872 -0.3524 -0.4799
  354MOL0     C47665   6.066   7.008  10.893  0.2897 -0.6689  0.0200
  354MOL0     C47666   6.095   7.066  10.749  0.7294  0.3944 -1.7644
  354MOL0     C47667   6.136   7.204  10.750  0.2467 -0.6638 -0.8449
  354MOL0     C47668   6.175   7.263  10.612  0.7663  0.3142 -0.1076
  354MOL0     C47669   6.231   7.405  10.616 -0.0261 -0.2022 -0.3751
  354MOL0     C47670   6.315   7.414  10.490  0.1348  0.2256 -0.1536
  354MOL0     C47671   6.396   7.544  10.504  0.8879  0.1168 -0.4021
  354MOL0     N47672   6.318   7.669  10.492 -0.1278  0.1015  0.6465
  354MOL0     C47673   6.301   7.760  10.588  0.0297  0.1747 -0.5754
  354MOL0     C47674   6.237   7.865  10.535  0.4225  0.7509 -0.4208
  354MOL0     C47675   6.174   7.988  10.605 -0.0530 -0.5805  0.6878
  354MOL0     C47676   6.145   8.103  10.504  0.1701 -0.0308 -0.0126
  354MOL0     C47677   6.103   8.231  10.590 -1.0588  0.3540  0.4305
  354MOL0     C47678   6.068   8.347  10.503 -0.4620 -0.9611  0.2951
  354MOL0     O47679   6.100   8.473  10.557 -0.6820  0.3568 -0.2016
  354MOL0     C47680   6.231   8.521  10.544  0.3325  0.3644 -0.2773
  354MOL0     C47681   6.336   8.455  10.479  0.2611  0.1184  1.3519
  354MOL0     C47682   6.462   8.493  10.490 -0.7317 -0.5469  0.8417
  354MOL0     C47683   6.502   8.617  10.542 -0.4682 -0.0214  0.1648
  354MOL0     C47684   6.647   8.660  10.548  0.2554  0.1821  0.9490
  354MOL0     O47685   6.688   8.744  10.649  0.5894  0.7285 -0.0932
  354MOL0     C47686   6.820   8.783  10.641 -0.0361  0.7598  1.0619
  354MOL0     C47687   6.860   8.895  10.577  0.2817  0.7929 -0.2965
  354MOL0     C47688   6.989   8.927  10.556 -0.1121  0.5537 -0.3578
  354MOL0     C47689   7.094   8.847  10.606 -0.1274 -0.0183  0.2347
  354MOL0     O47690   7.223   8.881  10.582 -0.4400  0.3376 -0.5040
  354MOL0     C47691   7.317   8.891  10.686  0.2862  0.1815  0.0103
  354MOL0     C47692   7.458   8.838  10.647 -0.6568  0.4324  0.0247
  354MOL0     C47693   7.565   8.947  10.647  0.1682  0.6467 -0.0733
  354MOL0     C47694   7.689   8.891  10.576  0.6899 -0.3124 -0.3683
  354MOL0     C47695   7.795   9.000  10.588 -0.5355 -0.3049  0.1828
  354MOL0     C47696   7.918   8.962  10.515 -0.3239 -0.1578 -1.0694
  354MOL0     C47697   8.023   9.080  10.521 -0.2407 -0.2452 -0.5138
  354MOL0     C47698   8.016   9.165  10.652  0.1234 -0.0930  0.5596
  354MOL0    Cl47699   8.127   9.312  10.615 -0.1792 -0.6761 -0.6821
  354MOL0     C47700   7.056   8.732  10.673  0.6481 -0.0717  0.3407
  354MOL0     C47701   6.914   8.697  10.693  0.2193  0.1291 -0.1911
  354MOL0     O47702   6.723   8.598  10.469  0.2694  0.2516  0.0397
  354MOL0     C47703   6.399   8.697  10.585  0.2534 -0.0559  0.2748
  354MOL0     C47704   6.268   8.644  10.598  0.1892 -0.1689  1.1952
  354MOL0     N47705   6.221   7.841  10.400  0.2372  0.0042 -0.0469
  354MOL0     N47706   6.266   7.721  10.375 -0.2550  0.1623  0.9617
  354MOL0     C47707   5.790   6.668  10.985  0.0524  0.1501 -0.6945
  354MOL0     C47708   5.719   6.552  11.019 -0.2183 -0.9506  0.5197
  354MOL0     C47709   5.726   6.131  11.184 -0.3567 -0.0906 -0.7608
  354MOL0     C47710   5.612   6.136  11.274 -0.4320  0.4509 -0.0917
  354MOL0     C47711   5.558   6.028  11.336  1.0021 -0.0421 -0.0251
  354MOL0     C47712   5.613   5.903  11.316  0.3182  0.3377  0.4892
  354MOL0     O47713   5.558   5.784  11.359 -0.1353  0.3567  0.0908
  354MOL0     C47714   5.421   5.792  11.408 -0.3732 -0.1133  0.6343
  354MOL0     C47715   5.319   5.791  11.285 -0.5189 -0.1070  0.5484
  354MOL0     C47716   5.173   5.786  11.325 -1.2266 -0.4289  0.7468
  354MOL0     C47717   5.141   5.669  11.427 -0.0773 -0.2919  0.3656
  354MOL0     C47718   4.995   5.687  11.468 -0.1970 -0.3657  0.2614
  354MOL0     C47719   4.885   5.701  11.508 -0.8096 -0.6284  0.9041
  354MOL0     C47720   5.730   5.896  11.239  0.1024  0.6652  0.8457
  354MOL0     C47721   5.791   6.006  11.169  0.6938  0.9231  0.1863
  354MOL0     C47722   5.912   5.979  11.094 -0.0146 -0.5301 -0.1072
  354MOL0     H47723   5.864   6.504  11.324  0.6985  1.7492  1.3268
  354MOL0     H47724   5.977   6.725  11.264 -2.7071  0.5028  1.9271
  354MOL0     H47725   6.047   6.797  10.859  2.0806  0.0648  1.1114
  354MOL0     H47726   5.891   6.888  10.840  1.6356  0.1901 -2.3285
  354MOL0     H47727   6.161   6.995  10.945  0.5813  3.6327  0.9455
  354MOL0     H47728   6.009   7.086  10.944  2.5764 -0.4007  2.3793
  354MOL0     H47729   6.002   7.077  10.694 -1.6979 -1.7025  1.5444
  354MOL0     H47730   6.172   7.012  10.692  0.6207 -1.7402 -0.0172
  354MOL0     H47731   6.059   7.270  10.793  1.6648  0.9593 -0.6818
  354MOL0     H47732   6.228   7.204  10.809  1.1159 -2.4706 -2.1058
  354MOL0     H47733   6.245   7.195  10.563 -1.3801 -1.8842 -0.3110
  354MOL0     H47734   6.082   7.262  10.553  0.6927 -1.5471 -0.0413
  354MOL0     H47735   6.146   7.473  10.624  0.1638 -0.1800  2.0726
  354MOL0     H47736   6.292   7.415  10.706 -2.5384  0.1688  1.4087
  354MOL0     H47737   6.245   7.399  10.407  0.8647 -2.0954 -0.4085
  354MOL0     H47738   6.391   7.336  10.490 -0.2741 -0.1992  0.9500
  354MOL0     H47739   6.455   7.549  10.596 -0.3968 -0.0693  0.4512
  354MOL0     H47740   6.464   7.540  10.418 -1.5486 -1.9862 -2.3812
  354MOL0     H47741   6.307   7.748  10.696 -2.2737  0.0206 -0.4290
  354MOL0     H47742   6.072   7.961  10.633  0.2855 -0.8665  1.6811
  354MOL0     H47743   6.234   8.020  10.690  2.1839 -1.3738 -0.4913
  354MOL0     H47744   6.228   8.129  10.438 -0.0945 -0.2476 -0.4363
  354MOL0     H47745   6.058   8.082  10.441 -1.6836  1.7152  1.7848
  354MOL0     H47746   6.188   8.257  10.654 -1.9938  0.1875  1.7830
  354MOL0     H47747   6.016   8.208  10.652  0.2411 -0.3905  2.0714
  354MOL0     H47748   5.959   8.343  10.496 -0.5061 -5.4001  0.8283
  354MOL0     H47749   6.115   8.348  10.404 -1.5752 -0.5835 -0.2480
  354MOL0     H47750   6.327   8.361  10.425  2.3009 -0.3883  1.7988
  354MOL0     H47751   6.537   8.430  10.444  0.5166  2.8456 -2.2712
  354MOL0     H47752   6.781   8.960  10.540 -0.1756 -0.4165 -1.5101
  354MOL0     H47753   7.021   9.026  10.524  4.0528  0.5515  2.8614
  354MOL0     H47754   7.327   8.991  10.729 -1.5645  0.1638  0.5632
  354MOL0     H47755   7.288   8.820  10.765 -1.7503 -0.1846 -1.0006
  354MOL0     H47756   7.485   8.760  10.720 -0.1978 -1.5822 -2.1801
  354MOL0     H47757   7.450   8.789  10.550 -0.4464 -0.1207  0.2802
  354MOL0     H47758   7.535   9.038  10.595  0.1757  0.3027 -0.6874
  354MOL0     H47759   7.582   8.965  10.753 -1.1372 -4.3936  1.2637
  354MOL0     H47760   7.668   8.863  10.472 -0.1827 -0.4060 -0.1745
  354MOL0     H47761   7.719   8.807  10.640 -0.0772  0.8253  1.5770
  354MOL0     H47762   7.807   9.003  10.696  3.2495  0.7932 -0.1130
  354MOL0     H47763   7.764   9.099  10.553 -0.2412 -0.6928 -1.2624
  354MOL0     H47764   7.957   8.868  10.554 -2.4478 -0.9871 -0.8136
  354MOL0     H47765   7.909   8.936  10.409 -1.2558 -1.9149 -0.5951
  354MOL0     H47766   8.005   9.147  10.437  1.8807  2.0681  0.7425
  354MOL0     H47767   8.123   9.037  10.514 -0.2675 -0.6442  1.0192
  354MOL0     H47768   7.917   9.209  10.668 -0.8083 -1.7561 -0.2891
  354MOL0     H47769   8.057   9.109  10.736  4.3696  1.1983 -0.4333
  354MOL0     H47770   7.124   8.654  10.707 -2.1347 -2.8671 -0.0057
  354MOL0     H47771   6.878   8.608  10.744 -1.6928  0.0756 -1.5219
  354MOL0     H47772   6.426   8.795  10.623 -0.8918  0.1891  0.5049
  354MOL0     H47773   6.196   8.711  10.646  2.2485  1.9111  1.5696
  354MOL0     H47774   5.780   6.710  10.885  0.6351 -1.3969 -1.4435
  354MOL0     H47775   5.647   6.514  10.947 -0.3910  1.4145 -0.6696
  354MOL0     H47776   5.551   6.226  11.273  0.2418  0.9141 -1.7782
  354MOL0     H47777   5.475   6.055  11.401  1.2710  2.5965 -0.6377
  354MOL0     H47778   5.407   5.875  11.477 -0.6915  1.1293 -0.8519
  354MOL0     H47779   5.420   5.700  11.467  3.2960  0.0408  1.1823
  354MOL0     H47780   5.341   5.703  11.224  1.0585  0.3330  0.4450
  354MOL0     H47781   5.343   5.878  11.223 -0.8620 -0.9194 -0.7574
  354MOL0     H47782   5.106   5.775  11.240 -2.4137  0.9468  1.4520
  354MOL0     H47783   5.147   5.884  11.367 -2.4533  1.0473 -3.0495
  354MOL0     H47784   5.168   5.573  11.383  2.8360  0.2965  0.6364
  354MOL0     H47785   5.202   5.683  11.517  1.4506 -2.0254 -0.3514
  354MOL0     H47786   4.780   5.710  11.529 -0.7869 -1.0248  1.1973
  354MOL0     H47787   5.765   5.793  11.242 -4.7596 -1.2993  0.5287
  354MOL0     H47788   5.895   6.011  10.991  1.3466  0.5535 -0.0303
  354MOL0     H47789   5.997   6.031  11.139 -0.3817  0.7217 -0.8092
  354MOL0     H47790   5.937   5.874  11.080 -0.2498 -0.6703  0.5148
  355MOL0     O47791   4.146   5.950   7.014 -0.1152  0.1027  0.8945
  355MOL0     C47792   4.175   5.834   7.050  0.6454  0.1766  0.5755
  355MOL0     O47793   4.287   5.801   7.124  0.3921  1.0102 -0.2743
  355MOL0     C47794   4.376   5.906   7.135  0.1483 -0.9765 -0.9086
  355MOL0     C47795   4.358   6.017   7.217 -0.6049  0.6507 -0.2597
  355MOL0     C47796   4.453   6.118   7.229 -0.0623  0.4582  0.2457
  355MOL0     C47797   4.572   6.105   7.163 -0.0635 -0.5509 -1.5002
  355MOL0     O47798   4.675   6.187   7.179 -0.2493  0.2414 -0.1667
  355MOL0     C47799   4.648   6.315   7.246  0.0697  0.4546  0.1633
  355MOL0     C47800   4.776   6.406   7.233 -0.8833  0.3801  0.6295
  355MOL0     C47801   4.795   6.463   7.089 -0.2441 -0.9689  0.7694
  355MOL0     C47802   4.700   6.582   7.055 -0.3095 -0.6900  0.2019
  355MOL0     C47803   4.718   6.635   6.916  0.7593  0.9190  0.7495
  355MOL0     C47804   4.848   6.721   6.906  0.0786  0.5251 -0.2848
  355MOL0     C47805   4.877   6.784   6.761  0.1997 -0.1488 -0.0981
  355MOL0     C47806   4.774   6.891   6.715 -0.3107  0.1994 -0.4131
  355MOL0     N47807   4.805   6.963   6.594  0.2518  1.0351 -0.3713
  355MOL0     C47808   4.925   7.029   6.573 -0.5533  0.2332  0.7227
  355MOL0     C47809   4.911   7.081   6.450  0.0433  0.4214 -0.8149
  355MOL0     C47810   5.009   7.171   6.389  0.2010  0.1725  0.9063
  355MOL0     C47811   4.969   7.214   6.245 -0.0444 -1.1516 -0.6553
  355MOL0     C47812   5.066   7.330   6.193  0.3677 -0.3172  0.0220
  355MOL0     C47813   5.120   7.300   6.051  0.3100  0.1045 -0.0166
  355MOL0     O47814   5.206   7.186   6.056 -1.0752  0.6542  0.2713
  355MOL0     C47815   5.343   7.207   6.070  1.0016 -0.1951 -0.3055
  355MOL0     C47816   5.398   7.319   6.120  0.0855 -0.7595  0.3320
  355MOL0     C47817   5.532   7.338   6.137  0.9867 -0.3204 -0.4887
  355MOL0     C47818   5.627   7.244   6.090 -0.3941  0.0485 -0.2131
  355MOL0     C47819   5.769   7.262   6.091 -0.2556 -0.2549  0.3916
  355MOL0     O47820   5.849   7.188   5.998  0.5234  1.1892 -0.4053
  355MOL0     C47821   5.978   7.221   5.980  0.4004 -0.3764 -0.6463
  355MOL0     C47822   6.072   7.255   6.079  0.1000  0.1303  0.2539
  355MOL0     C47823   6.203   7.295   6.054  0.7836  0.4459 -0.0945
  355MOL0     C47824   6.252   7.281   5.924 -1.0985 -0.0265  0.4969
  355MOL0     O47825   6.392   7.298   5.907  0.3154 -0.2815  0.1573
  355MOL0     C47826   6.433   7.366   5.786  0.2528 -0.3465 -0.2364
  355MOL0     C47827   6.556   7.439   5.818  0.2031 -0.8621  0.2132
  355MOL0     C47828   6.674   7.370   5.893 -0.3716 -0.7211 -0.4098
  355MOL0     C47829   6.709   7.220   5.854  0.5412 -0.4908 -1.4485
  355MOL0     C47830   6.859   7.188   5.851 -0.3579 -0.7516  0.2152
  355MOL0     C47831   6.876   7.070   5.761  0.1063 -0.6168  0.7625
  355MOL0     C47832   7.021   7.018   5.736 -0.1152  0.7409 -0.6222
  355MOL0     C47833   7.127   7.130   5.713 -0.2236  0.3612  0.7224
  355MOL0    Cl47834   7.084   7.237   5.570 -0.2888  0.7448  0.0373
  355MOL0     C47835   6.159   7.253   5.817 -0.1661 -0.5122 -0.8653
  355MOL0     C47836   6.029   7.209   5.850  0.2199 -0.5840  0.0655
  355MOL0     O47837   5.810   7.350   6.148 -0.0406 -0.3152 -0.5608
  355MOL0     C47838   5.575   7.134   6.030 -0.1921  0.6922  0.2331
  355MOL0     C47839   5.437   7.111   6.032  0.1743 -0.0418 -0.1918
  355MOL0     N47840   4.782   7.064   6.406  0.5631 -0.5664 -0.1129
  355MOL0     N47841   4.717   6.992   6.493 -1.3441  0.2073 -0.0420
  355MOL0     C47842   4.599   5.983   7.093  0.3326 -0.5094  0.6428
  355MOL0     C47843   4.499   5.890   7.085  0.6157  0.5762  0.2569
  355MOL0     C47844   4.066   5.734   7.010  0.1191 -0.0482 -0.2992
  355MOL0     C47845   3.937   5.784   6.981 -0.3218  0.3891 -0.3753
  355MOL0     C47846   3.827   5.695   6.972  0.0734 -0.0032 -0.2127
  355MOL0     C47847   3.848   5.557   6.978  0.0342  0.7347 -0.6679
  355MOL0     O47848   3.734   5.486   6.965  0.3006  0.0419 -0.1518
  355MOL0     C47849   3.741   5.356   6.899  0.3425 -1.1527 -0.0342
  355MOL0     C47850   3.662   5.351   6.772  0.4861  0.3658  0.5747
  355MOL0     C47851   3.705   5.228   6.699 -0.7469  0.2537  0.2135
  355MOL0     C47852   3.635   5.208   6.562  0.0815  1.0614 -0.4115
  355MOL0     C47853   3.678   5.319   6.473  0.2468  0.4735 -0.1216
  355MOL0     C47854   3.715   5.406   6.392  0.2226  0.4195 -0.4239
  355MOL0     C47855   3.976   5.502   6.993 -0.1192  0.0828  1.5451
  355MOL0     C47856   4.086   5.588   7.014 -0.4726 -0.1198  0.0322
  355MOL0     C47857   4.221   5.532   7.043  0.3473  0.3718 -0.1367
  355MOL0     H47858   4.260   6.027   7.261 -0.2621  2.3875  0.1772
  355MOL0     H47859   4.428   6.213   7.277  1.8028  1.3996 -0.5675
  355MOL0     H47860   4.556   6.368   7.218 -0.3534  0.8478  2.1549
  355MOL0     H47861   4.635   6.295   7.353 -0.3523  4.0701  0.9291
  355MOL0     H47862   4.866   6.347   7.251 -0.6381  0.0896 -1.3443
  355MOL0     H47863   4.772   6.489   7.305 -2.8590  0.3822  0.5760
  355MOL0     H47864   4.761   6.383   7.022 -1.9898 -0.0091  0.4529
  355MOL0     H47865   4.896   6.495   7.064 -0.6742 -0.1412  0.0119
  355MOL0     H47866   4.599   6.540   7.056  0.4755 -2.6320  1.0105
  355MOL0     H47867   4.707   6.662   7.130 -0.9898 -2.5349  2.3403
  355MOL0     H47868   4.728   6.544   6.855  1.0649  1.0482  0.6070
  355MOL0     H47869   4.631   6.695   6.888 -0.6261 -1.2950 -0.0262
  355MOL0     H47870   4.840   6.794   6.987 -1.1606 -1.0453  1.0783
  355MOL0     H47871   4.937   6.665   6.935 -0.9328 -1.1690 -0.2881
  355MOL0     H47872   4.863   6.707   6.684 -3.5545 -0.0504  0.3002
  355MOL0     H47873   4.976   6.828   6.772 -0.9762  2.2664  1.8013
  355MOL0     H47874   4.676   6.844   6.705 -1.3535  1.7806  1.7215
  355MOL0     H47875   4.754   6.959   6.797 -2.4434  1.6666 -2.0431
  355MOL0     H47876   5.012   7.045   6.637  0.6648 -2.7624  0.0115
  355MOL0     H47877   5.042   7.258   6.446 -1.8779  0.4077  1.8514
  355MOL0     H47878   5.097   7.108   6.372 -0.8079 -1.0901  0.1855
  355MOL0     H47879   4.960   7.134   6.171 -0.2919  0.5018 -2.5199
  355MOL0     H47880   4.870   7.260   6.251 -0.2692 -1.3586 -2.2499
  355MOL0     H47881   5.151   7.352   6.258  2.2909 -3.4920 -1.1488
  355MOL0     H47882   5.005   7.421   6.186 -1.0680 -1.1249  1.4321
  355MOL0     H47883   5.177   7.388   6.019  0.5611  1.1228  2.9809
  355MOL0     H47884   5.036   7.298   5.981  0.1611 -1.5261  0.1817
  355MOL0     H47885   5.335   7.403   6.145 -1.2380 -0.4897 -3.3200
  355MOL0     H47886   5.562   7.425   6.195  0.3022 -1.1383  1.1719
  355MOL0     H47887   6.027   7.254   6.178 -4.3505 -1.4156 -1.5332
  355MOL0     H47888   6.257   7.338   6.138 -2.0483 -0.7075  2.5049
  355MOL0     H47889   6.440   7.290   5.707  2.0083  0.8914 -1.3526
  355MOL0     H47890   6.357   7.437   5.754  1.6917  0.1752 -2.7351
  355MOL0     H47891   6.599   7.485   5.729  1.8505  0.5151  1.6271
  355MOL0     H47892   6.531   7.519   5.889 -0.3704  2.2097 -3.1899
  355MOL0     H47893   6.759   7.438   5.885 -1.1444  0.1340 -1.7179
  355MOL0     H47894   6.655   7.382   6.001  2.1346  0.8634 -0.0538
  355MOL0     H47895   6.671   7.212   5.751 -0.0054  1.5481 -1.4607
  355MOL0     H47896   6.650   7.155   5.918  1.8984  1.2646  1.7918
  355MOL0     H47897   6.896   7.170   5.953  1.5683 -1.5540 -0.5810
  355MOL0     H47898   6.924   7.269   5.816  1.7776 -0.9676  3.2070
  355MOL0     H47899   6.812   6.995   5.809 -1.3630 -0.9570 -1.5537
  355MOL0     H47900   6.832   7.084   5.662 -1.3045 -1.7731  1.1841
  355MOL0     H47901   7.010   6.937   5.663 -2.2668 -0.2310  0.6920
  355MOL0     H47902   7.055   6.962   5.823 -1.1915 -0.3949 -0.8985
  355MOL0     H47903   7.148   7.205   5.790 -1.1682  1.9876 -0.5472
  355MOL0     H47904   7.225   7.084   5.694 -0.6806  0.0813 -1.1761
  355MOL0     H47905   6.205   7.245   5.719  1.4022  1.4424 -0.3526
  355MOL0     H47906   5.968   7.181   5.765  2.2102 -2.4586 -0.8455
  355MOL0     H47907   5.647   7.057   6.003  0.6505  1.0965  1.2243
  355MOL0     H47908   5.390   7.016   6.006 -2.2889 -0.1580  3.7814
  355MOL0     H47909   4.688   5.962   7.035 -1.5083  1.9927 -3.5258
  355MOL0     H47910   4.516   5.805   7.019  1.4863  1.5801 -0.8387
  355MOL0     H47911   3.919   5.891   6.982  0.4101  0.5151 -0.1079
  355MOL0     H47912   3.729   5.736   6.947  0.6184 -0.0148 -2.5622
  355MOL0     H47913   3.705   5.275   6.963  3.5055 -3.0789 -0.5185
  355MOL0     H47914   3.845   5.332   6.877  0.7895  2.5617 -2.9627
  355MOL0     H47915   3.674   5.439   6.708 -4.8106  0.2585 -1.0456
  355MOL0     H47916   3.556   5.338   6.794  0.6486  1.6389  2.4043
  355MOL0     H47917   3.686   5.139   6.759 -0.8203  0.8857  1.1535
  355MOL0     H47918   3.813   5.214   6.689 -1.2412 -2.6786 -2.8267
  355MOL0     H47919   3.658   5.109   6.523 -1.2618  0.6503 -0.2123
  355MOL0     H47920   3.526   5.213   6.574 -0.0030 -1.7693  0.6649
  355MOL0     H47921   3.750   5.482   6.324  2.4508 -1.4229 -1.4612
  355MOL0     H47922   3.996   5.396   6.993  1.1474  0.3053  0.7516
  355MOL0     H47923   4.223   5.424   7.026  1.6908  0.1128  1.3720
  355MOL0     H47924   4.293   5.582   6.978  1.8221  1.9100  2.4892
  355MOL0     H47925   4.240   5.556   7.148  0.6242 -1.5841  0.2917
  356MOL0     O47926   2.300   5.968   2.082  0.3550  0.0642  0.1178
  356MOL0     C47927   2.290   6.080   2.028 -0.4108 -0.2812 -0.1486
  356MOL0     O47928   2.395   6.157   1.989  0.8503  0.6903 -0.4316
  356MOL0     C47929   2.519   6.105   2.020 -0.3810  0.1190  0.2361
  356MOL0     C47930   2.606   6.091   1.917  0.2934 -0.7808  0.5739
  356MOL0     C47931   2.742   6.051   1.938 -0.2231  0.0213 -0.0272
  356MOL0     C47932   2.790   6.021   2.071  0.3036 -0.2135  0.1353
  356MOL0     O47933   2.925   5.984   2.086  0.5341 -0.1187  0.4785
  356MOL0     C47934   2.937   5.856   2.144  0.0874  0.5239 -0.6033
  356MOL0     C47935   3.073   5.788   2.106  0.4267  0.0299  0.2158
  356MOL0     C47936   3.200   5.835   2.189  0.4496 -0.1168 -0.0738
  356MOL0     C47937   3.327   5.812   2.105 -0.2118 -0.1373  0.3789
  356MOL0     C47938   3.446   5.847   2.191 -0.8158  0.2232 -0.9764
  356MOL0     C47939   3.585   5.843   2.118  1.0896 -1.2644  0.2812
  356MOL0     C47940   3.691   5.884   2.228  0.4068 -0.6570 -0.0901
  356MOL0     C47941   3.772   6.003   2.195 -0.3453  1.0999 -0.3532
  356MOL0     N47942   3.857   6.022   2.319  0.1735 -0.7830 -0.4552
  356MOL0     C47943   3.836   6.109   2.421  0.5035 -0.4216  0.5329
  356MOL0     C47944   3.913   6.070   2.526  0.5628 -0.4870  0.2574
  356MOL0     C47945   3.902   6.137   2.659 -0.0620 -0.1871 -1.2557
  356MOL0     C47946   4.038   6.161   2.729  0.1709 -1.0122  0.0311
  356MOL0     C47947   4.112   6.286   2.669 -0.5638  0.3272 -0.5145
  356MOL0     C47948   4.256   6.284   2.717 -0.0644  0.4178 -0.4695
  356MOL0     O47949   4.316   6.417   2.682 -0.2641 -0.2026  0.4345
  356MOL0     C47950   4.455   6.429   2.702 -0.5119 -0.3373 -0.7873
  356MOL0     C47951   4.545   6.329   2.747  0.0863  0.3927  0.4822
  356MOL0     C47952   4.685   6.346   2.772 -0.0128  0.3524  0.2361
  356MOL0     C47953   4.734   6.478   2.765  0.0108  0.1280  0.7657
  356MOL0     C47954   4.874   6.509   2.801 -0.5860 -0.4116 -0.1082
  356MOL0     O47955   4.938   6.623   2.747  0.0522  0.0497  0.8540
  356MOL0     C47956   5.067   6.624   2.788 -0.3766 -0.7682  0.0184
  356MOL0     C47957   5.106   6.638   2.923 -0.2534 -0.3281  0.1918
  356MOL0     C47958   5.244   6.659   2.950 -0.3160  0.7701  0.8997
  356MOL0     C47959   5.335   6.668   2.847  0.4349 -0.4143  0.4206
  356MOL0     O47960   5.474   6.675   2.880  0.2756 -0.0603 -0.1216
  356MOL0     C47961   5.540   6.789   2.822 -0.3232  0.0479 -0.2496
  356MOL0     C47962   5.657   6.825   2.917 -1.2258  0.1100  0.1677
  356MOL0     C47963   5.748   6.929   2.864 -0.5827 -0.1162 -0.2332
  356MOL0     C47964   5.830   7.010   2.974 -0.0020  0.0825 -0.2526
  356MOL0     C47965   5.947   6.929   3.033  0.8127  0.3498 -1.0248
  356MOL0     C47966   6.052   7.023   3.099 -0.7530 -0.5301 -0.2062
  356MOL0     C47967   6.144   6.930   3.176  0.0148  0.1809 -0.7005
  356MOL0     C47968   6.259   6.996   3.240  0.0113 -0.5815  0.0120
  356MOL0    Cl47969   6.204   7.116   3.366  0.1699 -0.2323  0.1352
  356MOL0     C47970   5.294   6.659   2.719  0.2216 -0.0936 -0.4965
  356MOL0     C47971   5.165   6.631   2.693  0.2448  0.2391  0.3883
  356MOL0     O47972   4.929   6.421   2.873  0.6688  0.0270  0.6580
  356MOL0     C47973   4.652   6.573   2.701  0.1378  0.0591  0.4580
  356MOL0     C47974   4.517   6.555   2.674 -0.0119 -0.4734  1.0725
  356MOL0     N47975   3.988   5.959   2.487  0.1911 -0.1591  0.5219
  356MOL0     N47976   3.951   5.939   2.360  0.4413  0.3292 -0.4627
  356MOL0     C47977   2.689   6.038   2.176  0.8778 -0.0675 -0.5759
  356MOL0     C47978   2.560   6.089   2.152 -0.8261  0.1452  0.6965
  356MOL0     C47979   2.152   6.145   1.993 -1.1619 -0.1540  0.3456
  356MOL0     C47980   2.040   6.087   2.050  0.7085  0.5655  0.4003
  356MOL0     C47981   1.908   6.137   2.029  0.0779  0.1639  0.9793
  356MOL0     C47982   1.899   6.255   1.946 -0.0700  0.4977 -0.2111
  356MOL0     O47983   1.771   6.308   1.937  0.0372 -0.0995 -0.1807
  356MOL0     C47984   1.747   6.437   1.885 -0.4090  0.2211 -0.1482
  356MOL0     C47985   1.638   6.504   1.969  0.9734  0.0147 -0.0106
  356MOL0     C47986   1.508   6.416   1.984  1.5444  0.2120 -0.1731
  356MOL0     C47987   1.384   6.495   2.039  1.0330  0.6461  0.2035
  356MOL0     C47988   1.261   6.398   2.044  0.0550 -0.8054 -0.4961
  356MOL0     C47989   1.162   6.322   2.049  0.3946 -0.7264 -0.5090
  356MOL0     C47990   2.008   6.312   1.890  0.4228 -0.9602 -0.7408
  356MOL0     C47991   2.137   6.253   1.905  0.4962 -0.2055 -0.0336
  356MOL0     C47992   2.247   6.315   1.813  0.2579  0.2299  0.5453
  356MOL0     H47993   2.581   6.126   1.818  2.4597 -1.2386 -0.1891
  356MOL0     H47994   2.810   6.044   1.855  0.0024 -0.1665  0.1713
  356MOL0     H47995   2.933   5.874   2.252  1.5106  2.5630 -0.8443
  356MOL0     H47996   2.854   5.789   2.117  0.6694 -0.8636  0.8774
  356MOL0     H47997   3.098   5.790   2.000 -0.2896 -1.9384 -0.0452
  356MOL0     H47998   3.063   5.681   2.128  0.1396  0.2004  0.9580
  356MOL0     H47999   3.200   5.795   2.291 -1.0656  0.1161  0.0363
  356MOL0     H48000   3.182   5.941   2.211 -2.6170 -0.8230  1.3472
  356MOL0     H48001   3.332   5.708   2.072  0.7380  0.6432 -2.2349
  356MOL0     H48002   3.325   5.879   2.018 -0.8268 -0.3448  0.2251
  356MOL0     H48003   3.429   5.946   2.234  2.5113  1.0503 -1.3440
  356MOL0     H48004   3.450   5.778   2.276 -3.3752 -0.3411 -1.2251
  356MOL0     H48005   3.611   5.746   2.075  0.4353 -1.5351  0.4849
  356MOL0     H48006   3.574   5.917   2.038  0.8860 -0.0851  1.3659
  356MOL0     H48007   3.757   5.798   2.245 -0.7577 -1.8815 -1.4848
  356MOL0     H48008   3.647   5.903   2.326  0.3842 -0.6107 -0.1089
  356MOL0     H48009   3.835   5.975   2.111 -0.9088  2.9990 -1.4905
  356MOL0     H48010   3.708   6.090   2.172 -0.7232  0.5220 -1.5830
  356MOL0     H48011   3.767   6.192   2.430  0.2455 -0.5662 -0.0292
  356MOL0     H48012   3.850   6.233   2.667  1.3198  0.4060  2.2247
  356MOL0     H48013   3.863   6.055   2.720  2.4156 -0.8810 -0.4847
  356MOL0     H48014   4.031   6.176   2.837  0.7764  1.2638 -0.2085
  356MOL0     H48015   4.099   6.072   2.708  0.4138 -1.5979  2.8034
  356MOL0     H48016   4.069   6.384   2.693  2.5810  1.7715 -0.1865
  356MOL0     H48017   4.121   6.279   2.560  2.6199 -0.8465 -0.2670
  356MOL0     H48018   4.314   6.197   2.684  0.6798  0.2849  1.0951
  356MOL0     H48019   4.251   6.281   2.826 -2.0112  0.4192 -0.5162
  356MOL0     H48020   4.502   6.238   2.787  2.2663 -0.2508  1.5099
  356MOL0     H48021   4.754   6.271   2.808  1.2163  2.1335  1.7810
  356MOL0     H48022   5.042   6.636   3.010  1.1536 -1.8961  1.2492
  356MOL0     H48023   5.262   6.683   3.055  0.0833  0.6723  0.8538
  356MOL0     H48024   5.580   6.765   2.723  2.2372  0.4505  0.6162
  356MOL0     H48025   5.477   6.879   2.812  1.7139  1.2701 -3.4374
  356MOL0     H48026   5.624   6.848   3.018 -0.4741 -1.3819  0.7967
  356MOL0     H48027   5.718   6.735   2.932 -1.4046  0.1096  0.9439
  356MOL0     H48028   5.819   6.882   2.795  0.8761  1.1728  0.3161
  356MOL0     H48029   5.682   6.996   2.809  1.9068  0.4197 -2.8263
  356MOL0     H48030   5.766   7.041   3.057  0.7040 -1.7147  1.0194
  356MOL0     H48031   5.865   7.105   2.932  2.6879 -1.3059 -1.4268
  356MOL0     H48032   5.981   6.851   2.965 -1.1815 -2.9807  1.4890
  356MOL0     H48033   5.901   6.870   3.112 -1.9374  3.5079 -0.0267
  356MOL0     H48034   6.116   7.075   3.027 -0.1486 -1.4780 -0.3725
  356MOL0     H48035   6.012   7.101   3.165 -0.7010  0.1720 -0.9900
  356MOL0     H48036   6.200   6.868   3.105  0.4803  1.6547 -1.6572
  356MOL0     H48037   6.087   6.865   3.244 -0.1632  1.1307  0.0777
  356MOL0     H48038   6.319   6.916   3.284  1.7165 -1.0569 -2.9392
  356MOL0     H48039   6.328   7.038   3.166 -0.1168  1.8486  1.1702
  356MOL0     H48040   5.365   6.639   2.639 -0.1851 -0.3958 -0.7858
  356MOL0     H48041   5.133   6.615   2.591 -0.8005 -0.2336  0.7728
  356MOL0     H48042   4.698   6.671   2.693 -2.0247  1.1184  0.3496
  356MOL0     H48043   4.457   6.635   2.631  2.4383 -0.8491 -3.6858
  356MOL0     H48044   2.715   6.019   2.280 -0.5114  0.6085 -0.0861
  356MOL0     H48045   2.493   6.111   2.234  0.6877  1.3995  1.6552
  356MOL0     H48046   2.050   5.999   2.112 -1.4038 -0.3019 -0.3705
  356MOL0     H48047   1.823   6.078   2.062  0.5469 -0.5376  0.9382
  356MOL0     H48048   1.723   6.439   1.778 -0.5013 -0.7918 -0.1514
  356MOL0     H48049   1.829   6.507   1.901 -2.2144  2.0407  1.7344
  356MOL0     H48050   1.604   6.602   1.935 -0.2562  0.1029  1.3976
  356MOL0     H48051   1.683   6.525   2.066 -0.1435  2.2533  0.0717
  356MOL0     H48052   1.520   6.332   2.053  2.3296 -1.7040 -2.4935
  356MOL0     H48053   1.476   6.377   1.887  0.8531  1.9310 -0.6603
  356MOL0     H48054   1.412   6.529   2.139  2.0159  0.4112  0.0245
  356MOL0     H48055   1.357   6.575   1.969  1.2389  0.3337 -0.2399
  356MOL0     H48056   1.086   6.248   2.035  1.8989 -2.5190  0.3114
  356MOL0     H48057   1.992   6.391   1.817  1.4751  0.0116  0.0452
  356MOL0     H48058   2.291   6.242   1.744 -1.3355 -1.7348  1.4906
  356MOL0     H48059   2.200   6.382   1.740 -2.6083 -1.2823  0.8476
  356MOL0     H48060   2.321   6.375   1.866 -0.6194  2.4832 -0.6683
  357MOL0     O48061   8.888  11.361   0.100 -0.3277 -0.0907 -0.1737
  357MOL0     C48062   8.889  11.484   0.105  0.3154 -0.3373  0.9662
  357MOL0     O48063   8.988  11.563   0.046 -0.0824 -0.0996  0.0741
  357MOL0     C48064   9.089  11.513  -0.029 -0.0966  1.1046 -0.2743
  357MOL0     C48065   9.210  11.575  -0.005 -1.2870 -0.0515  0.1330
  357MOL0     C48066   9.335  11.525  -0.058 -0.6121  0.1283  0.6131
  357MOL0     C48067   9.335  11.411  -0.150 -0.2276 -0.6015 -0.5226
  357MOL0     O48068   9.444  11.337  -0.206 -0.5179 -0.1393 -0.0594
  357MOL0     C48069   9.533  11.417  -0.283  0.3417  0.0033 -0.1746
  357MOL0     C48070   9.614  11.339  -0.393  0.5952  0.2460  0.2547
  357MOL0     C48071   9.762  11.390  -0.419 -0.1369  0.1109  0.2054
  357MOL0     C48072   9.769  11.531  -0.484 -0.2012  0.5108 -0.5748
  357MOL0     C48073   9.706  11.530  -0.628  0.7156  0.5204  0.3037
  357MOL0     C48074   9.746  11.656  -0.699 -0.7869  0.9395 -0.0861
  357MOL0     C48075   9.726  11.677  -0.849  0.5003  0.6803 -0.0804
  357MOL0     C48076   9.755  11.818  -0.902  0.4160 -0.2543  0.3275
  357MOL0     N48077   9.804  11.820  -1.037 -0.1545  0.2492  0.1974
  357MOL0     C48078   9.795  11.723  -1.139  0.5268  0.0159 -0.3053
  357MOL0     C48079   9.884  11.750  -1.232 -0.2535 -0.0180 -0.8343
  357MOL0     C48080   9.906  11.696  -1.368  0.2019  1.2415 -0.2259
  357MOL0     C48081  10.049  11.657  -1.395 -0.2175  0.1699 -0.0380
  357MOL0     C48082  10.073  11.613  -1.541  0.6933  0.8551  0.0028
  357MOL0     C48083  10.209  11.557  -1.576 -0.5176  0.1250 -0.1199
  357MOL0     O48084  10.302  11.660  -1.589  0.4018  0.1908  0.7016
  357MOL0     C48085  10.425  11.619  -1.637 -0.0673  0.9809  0.3776
  357MOL0     C48086  10.455  11.499  -1.698  0.9873  0.1340  0.5519
  357MOL0     C48087  10.581  11.483  -1.760  0.5757 -0.7886  0.4218
  357MOL0     C48088  10.684  11.577  -1.749 -0.5433  0.1724  0.4396
  357MOL0     C48089  10.822  11.548  -1.807  1.2799 -0.4130  0.9019
  357MOL0     O48090  10.925  11.638  -1.770 -0.0357 -0.0088  0.3198
  357MOL0     C48091  11.053  11.610  -1.807 -0.0496  0.4386 -0.4143
  357MOL0     C48092  11.146  11.563  -1.718 -0.6029  0.1427  0.1760
  357MOL0     C48093  11.283  11.552  -1.748 -0.7854  0.3553 -0.5277
  357MOL0     C48094  11.319  11.592  -1.870 -0.0138 -0.3822  0.0035
  357MOL0     O48095  11.453  11.565  -1.896  0.1442  0.0786 -0.2581
  357MOL0     C48096  11.499  11.548  -2.036  0.0510 -0.1228 -0.1997
  357MOL0     C48097  11.635  11.470  -2.032 -0.1460 -1.0194 -1.2583
  357MOL0     C48098  11.690  11.442  -2.167 -0.0708 -0.1779  0.2403
  357MOL0     C48099  11.777  11.310  -2.156  0.4036 -0.0160 -0.3340
  357MOL0     C48100  11.806  11.260  -2.298  0.4990  0.4675  0.2086
  357MOL0     C48101  11.684  11.231  -2.390 -0.1438 -0.1120 -1.0791
  357MOL0     C48102  11.736  11.161  -2.523  0.7002  0.3418  0.1314
  357MOL0     C48103  11.626  11.152  -2.628  0.3389  0.8318 -0.2844
  357MOL0    Cl48104  11.696  11.041  -2.750 -0.2089  0.1121 -0.4170
  357MOL0     C48105  11.234  11.656  -1.964  0.3036  0.2724  0.1308
  357MOL0     C48106  11.100  11.652  -1.932  0.8408  0.7671 -0.0702
  357MOL0     O48107  10.828  11.457  -1.891 -0.5048 -1.0651 -0.4222
  357MOL0     C48108  10.651  11.696  -1.685 -0.6770  0.3345 -1.7059
  357MOL0     C48109  10.521  11.722  -1.645 -0.1827  0.2511 -0.2676
  357MOL0     N48110   9.956  11.861  -1.194  0.5432  0.5034  0.0246
  357MOL0     N48111   9.909  11.905  -1.083  0.5019 -0.5239 -0.8511
  357MOL0     C48112   9.212  11.354  -0.166  1.0378 -0.2435 -0.5117
  357MOL0     C48113   9.090  11.400  -0.116  0.2050  0.1801 -0.3599
  357MOL0     C48114   8.761  11.553   0.150 -0.9989  0.1571 -0.4846
  357MOL0     C48115   8.782  11.692   0.182  0.3889  0.1215  0.3427
  357MOL0     C48116   8.676  11.764   0.232 -0.2255 -0.0921  0.0397
  357MOL0     C48117   8.551  11.699   0.262  0.3309  0.2798 -0.0975
  357MOL0     O48118   8.461  11.776   0.332 -0.4457 -0.1454 -0.1239
  357MOL0     C48119   8.325  11.748   0.302 -0.3452  0.2405 -0.1645
  357MOL0     C48120   8.236  11.866   0.351 -0.0798 -0.4828  0.1108
  357MOL0     C48121   8.235  11.889   0.503  0.1419 -0.3205  0.0219
  357MOL0     C48122   8.174  12.019   0.535 -0.5872  0.0421  0.1862
  357MOL0     C48123   8.027  12.012   0.517 -0.1522  0.3437 -0.5169
  357MOL0     C48124   7.905  12.012   0.536  0.6734 -0.0328 -0.4970
  357MOL0     C48125   8.531  11.563   0.226  0.3045 -0.4067  0.5065
  357MOL0     C48126   8.636  11.495   0.166  0.5572 -0.2533 -0.2601
  357MOL0     C48127   8.610  11.352   0.148 -0.0255  0.0756 -0.2957
  357MOL0     H48128   9.223  11.657   0.065 -0.3275 -1.3340  1.5148
  357MOL0     H48129   9.428  11.572  -0.028 -0.3369  0.0303 -0.0803
  357MOL0     H48130   9.472  11.484  -0.346  1.1226  1.0025  0.0964
  357MOL0     H48131   9.592  11.479  -0.214 -0.1119  0.5314 -0.2540
  357MOL0     H48132   9.557  11.343  -0.486  0.6093  1.6782  0.2859
  357MOL0     H48133   9.625  11.235  -0.359  1.2308  0.8205  1.9207
  357MOL0     H48134   9.801  11.314  -0.486 -2.5737 -1.4136  0.4122
  357MOL0     H48135   9.821  11.392  -0.327  0.1837 -2.5436  0.1186
  357MOL0     H48136   9.728  11.607  -0.417  2.6292 -0.3381  2.3849
  357MOL0     H48137   9.876  11.552  -0.491 -0.5373  2.6803  0.0706
  357MOL0     H48138   9.730  11.437  -0.679  0.6941 -0.4026  1.8863
  357MOL0     H48139   9.598  11.511  -0.631  0.8885 -0.3895 -2.8346
  357MOL0     H48140   9.692  11.733  -0.643 -2.1262 -0.4012  0.5382
  357MOL0     H48141   9.850  11.663  -0.666 -0.9298 -2.0169  1.3332
  357MOL0     H48142   9.624  11.648  -0.879  0.1753  0.5881  1.0605
  357MOL0     H48143   9.790  11.596  -0.886  0.3600 -1.0864  3.0827
  357MOL0     H48144   9.658  11.869  -0.908  0.8271  0.8025  2.0451
  357MOL0     H48145   9.830  11.867  -0.839  1.0241 -0.4390 -0.2466
  357MOL0     H48146   9.714  11.650  -1.141  1.1170 -0.7173  1.2886
  357MOL0     H48147   9.833  11.613  -1.365  0.0373  1.3892  2.1470
  357MOL0     H48148   9.865  11.758  -1.448  0.6011  1.1083 -0.5354
  357MOL0     H48149  10.113  11.744  -1.376 -0.1125 -0.0690  0.7157
  357MOL0     H48150  10.078  11.579  -1.324 -0.6637 -2.2208 -2.2981
  357MOL0     H48151  10.062  11.690  -1.618 -0.1315 -1.7600 -2.6950
  357MOL0     H48152  10.003  11.531  -1.560 -0.7166  2.0942 -0.4114
  357MOL0     H48153  10.196  11.495  -1.665  0.7868  1.8850 -1.6248
  357MOL0     H48154  10.241  11.486  -1.499  1.3125  0.8611 -0.1620
  357MOL0     H48155  10.379  11.424  -1.717 -0.7508  1.9706 -0.1843
  357MOL0     H48156  10.593  11.403  -1.832  1.4007  1.9408 -2.7028
  357MOL0     H48157  11.104  11.518  -1.628  0.9744  0.9937  1.3848
  357MOL0     H48158  11.357  11.506  -1.683 -0.6565 -0.2090 -1.0622
  357MOL0     H48159  11.424  11.494  -2.094  0.5345 -0.3169 -0.6509
  357MOL0     H48160  11.523  11.643  -2.085 -0.8332  0.5618  0.6484
  357MOL0     H48161  11.696  11.542  -1.977 -1.4910  0.4828 -1.6734
  357MOL0     H48162  11.626  11.379  -1.972  2.0146 -1.3589 -1.3714
  357MOL0     H48163  11.611  11.437  -2.243  0.9069 -0.2535 -0.7876
  357MOL0     H48164  11.736  11.533  -2.208 -1.6968  0.5022 -0.1786
  357MOL0     H48165  11.721  11.235  -2.101  0.4394  1.0006  1.1439
  357MOL0     H48166  11.864  11.325  -2.091  0.5948 -1.0250 -0.3514
  357MOL0     H48167  11.854  11.162  -2.292 -0.9652 -0.3025 -0.1515
  357MOL0     H48168  11.877  11.328  -2.345  0.6121  0.2160  0.0171
  357MOL0     H48169  11.604  11.183  -2.333 -1.0886  3.3241  0.7886
  357MOL0     H48170  11.632  11.323  -2.420 -0.2868  0.5303  0.9305
  357MOL0     H48171  11.777  11.065  -2.490 -2.1882 -0.7113  0.9506
  357MOL0     H48172  11.820  11.209  -2.575  1.6554 -3.0457 -1.7990
  357MOL0     H48173  11.540  11.102  -2.582  1.3286  0.3374  1.0793
  357MOL0     H48174  11.581  11.245  -2.663 -2.3856 -0.4958 -0.5805
  357MOL0     H48175  11.260  11.697  -2.061 -0.6662  0.9508  0.1391
  357MOL0     H48176  11.028  11.674  -2.011 -0.3320 -0.4032  0.6328
  357MOL0     H48177  10.722  11.777  -1.672  0.4097 -0.3773 -2.9436
  357MOL0     H48178  10.497  11.819  -1.602  1.7795  2.3331 -3.4585
  357MOL0     H48179   9.214  11.263  -0.226 -0.2386 -1.3147  0.9679
  357MOL0     H48180   8.997  11.356  -0.151  1.4691 -0.2943 -3.5061
  357MOL0     H48181   8.883  11.731   0.174  0.4101  0.2784  1.2757
  357MOL0     H48182   8.703  11.861   0.273 -0.3520  0.3204 -0.8232
  357MOL0     H48183   8.295  11.654   0.348 -1.7701 -0.0102 -1.5378
  357MOL0     H48184   8.299  11.752   0.196  0.7575  3.5782 -0.4223
  357MOL0     H48185   8.130  11.851   0.331  0.0279  0.6586 -1.4395
  357MOL0     H48186   8.269  11.957   0.300 -0.6116 -0.9113 -1.0066
  357MOL0     H48187   8.337  11.892   0.541 -0.0461 -0.1238  0.5171
  357MOL0     H48188   8.189  11.803   0.553  1.7732 -0.2405  1.7706
  357MOL0     H48189   8.197  12.031   0.641  0.2439  1.3141 -0.1048
  357MOL0     H48190   8.216  12.106   0.483  1.5156 -0.8422  0.2914
  357MOL0     H48191   7.800  12.010   0.556  0.1354  2.7832 -2.4815
  357MOL0     H48192   8.452  11.503   0.270  0.8191 -0.5384  1.2698
  357MOL0     H48193   8.509  11.314   0.170 -0.1256  0.1472 -0.6235
  357MOL0     H48194   8.619  11.342   0.040  0.5108  3.0329 -0.5939
  357MOL0     H48195   8.682  11.292   0.206 -0.2939 -0.1599 -0.2008
  358MOL0     O48196   6.864   2.055   3.914  0.3983  0.1946 -0.0856
  358MOL0     C48197   6.914   2.167   3.910 -0.2501 -0.4095 -0.1794
  358MOL0     O48198   6.875   2.268   3.831  0.7007  0.3548 -0.2173
  358MOL0     C48199   6.780   2.237   3.733  0.5381  0.0034 -0.2535
  358MOL0     C48200   6.657   2.196   3.761  0.1354 -0.9919 -0.5540
  358MOL0     C48201   6.569   2.170   3.656  0.2228 -0.3230 -0.6501
  358MOL0     C48202   6.604   2.177   3.519 -0.1730  0.0247 -0.0451
  358MOL0     O48203   6.509   2.154   3.421 -0.5254 -0.1070 -0.3143
  358MOL0     C48204   6.555   2.078   3.306 -0.0068 -0.0283 -0.0857
  358MOL0     C48205   6.604   1.935   3.335 -0.2746 -0.1047 -0.2504
  358MOL0     C48206   6.488   1.844   3.357  0.9404  0.1726 -0.0116
  358MOL0     C48207   6.535   1.701   3.389  0.3433 -0.0963  0.2584
  358MOL0     C48208   6.464   1.596   3.304  0.2636  0.4126  0.0681
  358MOL0     C48209   6.548   1.473   3.308  0.1105 -1.4078 -0.1279
  358MOL0     C48210   6.471   1.361   3.252 -0.4089  0.1201  0.2490
  358MOL0     C48211   6.557   1.242   3.201 -0.4956 -0.1253  0.2114
  358MOL0     N48212   6.644   1.199   3.315  0.1821  0.3438 -0.3973
  358MOL0     C48213   6.615   1.083   3.380 -0.6567 -0.9253 -0.4844
  358MOL0     C48214   6.709   1.076   3.477  0.1064  0.1651 -0.2274
  358MOL0     C48215   6.720   0.956   3.566 -0.6756  0.7070 -0.6091
  358MOL0     C48216   6.859   0.885   3.524  0.3612  0.3595 -0.0839
  358MOL0     C48217   6.892   0.778   3.624  0.5218 -0.4003 -0.9627
  358MOL0     C48218   7.039   0.757   3.605 -0.6437  0.6801  0.6243
  358MOL0     O48219   7.089   0.642   3.675 -0.2668  0.3802 -0.0786
  358MOL0     C48220   7.217   0.600   3.659  0.7097 -0.3082 -0.0491
  358MOL0     C48221   7.251   0.475   3.719  0.4957 -0.6427  0.2246
  358MOL0     C48222   7.374   0.419   3.714  0.2481  0.1317  0.6057
  358MOL0     C48223   7.470   0.486   3.633 -0.4324 -0.5558 -0.0589
  358MOL0     C48224   7.606   0.421   3.609  1.0790 -0.4153 -0.3538
  358MOL0     O48225   7.674   0.468   3.498 -0.1755 -0.2748 -0.0590
  358MOL0     C48226   7.803   0.423   3.464 -0.5738  0.9119 -0.1739
  358MOL0     C48227   7.817   0.347   3.341 -0.2829 -0.7982 -0.3247
  358MOL0     C48228   7.949   0.319   3.299  0.2359 -0.0164  0.3311
  358MOL0     C48229   8.055   0.346   3.386  0.9700 -0.5527 -0.1658
  358MOL0     O48230   8.187   0.321   3.355 -0.1932  0.1906  0.6703
  358MOL0     C48231   8.224   0.269   3.230 -1.3562  0.3777  0.0711
  358MOL0     C48232   8.379   0.258   3.248  0.6281 -0.5104 -0.1287
  358MOL0     C48233   8.428   0.176   3.127 -0.9864  0.2388  0.6225
  358MOL0     C48234   8.581   0.147   3.160 -0.0302 -0.7409  0.5135
  358MOL0     C48235   8.660   0.060   3.068  0.0957 -0.3584  0.0962
  358MOL0     C48236   8.816   0.087   3.091  0.8533  0.7550 -1.1093
  358MOL0     C48237   8.882  -0.011   2.990  0.1078  0.5711 -0.0063
  358MOL0     C48238   9.032   0.021   2.990 -0.2638  0.1944  0.8833
  358MOL0    Cl48239   9.060   0.155   2.875 -0.1499  0.3591 -0.0407
  358MOL0     C48240   8.038   0.402   3.516  0.2160  0.5625  0.0357
  358MOL0     C48241   7.914   0.441   3.551  0.0722 -0.1221 -0.0378
  358MOL0     O48242   7.642   0.332   3.672 -0.2306 -0.6718  0.3245
  358MOL0     C48243   7.438   0.611   3.572  0.0896  0.2895 -0.3742
  358MOL0     C48244   7.307   0.668   3.584 -0.6516  0.5815  0.3779
  358MOL0     N48245   6.800   1.181   3.452 -0.5638  0.6220  0.0065
  358MOL0     N48246   6.751   1.257   3.360 -1.4105  0.1439 -0.0858
  358MOL0     C48247   6.737   2.210   3.491 -0.1693  0.9105 -0.1157
  358MOL0     C48248   6.825   2.236   3.601 -0.2542  0.2904  1.3022
  358MOL0     C48249   7.037   2.194   3.988  0.2958 -0.2326  0.1680
  358MOL0     C48250   7.118   2.297   3.945 -0.4719  0.1510 -0.1166
  358MOL0     C48251   7.209   2.356   4.028 -1.3660 -0.0877  0.6003
  358MOL0     C48252   7.242   2.313   4.155 -0.3108  1.1983 -0.5042
  358MOL0     O48253   7.338   2.385   4.226  0.5655  1.0696 -0.0750
  358MOL0     C48254   7.343   2.355   4.364 -0.4000 -0.2822  0.1396
  358MOL0     C48255   7.429   2.463   4.438  0.3540  0.3486  0.1519
  358MOL0     C48256   7.568   2.457   4.386 -0.0321 -0.5242  0.1059
  358MOL0     C48257   7.667   2.562   4.450  0.5843 -0.2484  0.2439
  358MOL0     C48258   7.806   2.521   4.422  0.3127  0.9955 -0.0648
  358MOL0     C48259   7.923   2.499   4.408 -1.0749 -0.0245  0.5325
  358MOL0     C48260   7.161   2.203   4.194  0.2517  0.0414 -0.2184
  358MOL0     C48261   7.066   2.136   4.119 -0.0050  0.3275  0.5626
  358MOL0     C48262   6.979   2.033   4.193  0.4261  0.3488  0.0090
  358MOL0     H48263   6.619   2.197   3.863 -0.5892  2.1544 -0.7677
  358MOL0     H48264   6.465   2.155   3.684 -0.1750  2.1589 -0.6103
  358MOL0     H48265   6.467   2.075   3.240  0.3642  0.9472 -0.6482
  358MOL0     H48266   6.632   2.142   3.263  0.0614  1.4789  2.1010
  358MOL0     H48267   6.683   1.927   3.411 -0.5132  2.5361  0.3752
  358MOL0     H48268   6.653   1.908   3.241  1.1082  1.2775  0.0461
  358MOL0     H48269   6.427   1.849   3.266  1.0416  0.4546 -0.0661
  358MOL0     H48270   6.429   1.883   3.440  1.3466 -3.3034  2.0811
  358MOL0     H48271   6.643   1.698   3.377  0.4435  1.7917  0.4858
  358MOL0     H48272   6.518   1.676   3.494  1.6274 -1.1150  0.2499
  358MOL0     H48273   6.362   1.576   3.339  0.4520 -0.6086  0.0564
  358MOL0     H48274   6.452   1.634   3.202  0.1617  0.3988  0.0744
  358MOL0     H48275   6.632   1.499   3.243  1.2771  1.8525  2.3984
  358MOL0     H48276   6.588   1.452   3.408 -2.3217 -1.8757  0.8059
  358MOL0     H48277   6.413   1.379   3.162  0.3813 -1.1300 -0.5372
  358MOL0     H48278   6.391   1.329   3.320 -1.9460  1.4579 -0.8687
  358MOL0     H48279   6.499   1.160   3.157 -1.0014 -0.9416  2.2777
  358MOL0     H48280   6.616   1.278   3.117  0.4298  0.8704  1.2448
  358MOL0     H48281   6.538   1.012   3.354 -2.4864  1.6479 -2.6803
  358MOL0     H48282   6.705   0.993   3.668 -0.9474 -1.8507  0.3618
  358MOL0     H48283   6.640   0.882   3.562  0.3887 -0.5208 -0.0505
  358MOL0     H48284   6.847   0.835   3.428  0.4915 -0.2829  0.2286
  358MOL0     H48285   6.935   0.964   3.518 -1.2886  2.5203  3.8180
  358MOL0     H48286   6.834   0.688   3.601  1.1174 -1.7211  2.2034
  358MOL0     H48287   6.876   0.808   3.728 -1.1018  2.1154 -1.8281
  358MOL0     H48288   7.102   0.836   3.645 -0.6351  2.6852 -2.9524
  358MOL0     H48289   7.063   0.750   3.498 -1.9347  2.9647  0.1331
  358MOL0     H48290   7.159   0.435   3.760  0.4844  1.4550  2.4793
  358MOL0     H48291   7.400   0.324   3.759 -1.2449  0.1228  1.5156
  358MOL0     H48292   7.733   0.335   3.274 -0.4313 -0.1428 -0.2681
  358MOL0     H48293   7.964   0.267   3.205 -0.1356 -2.4072  1.5200
  358MOL0     H48294   8.186   0.170   3.207 -1.0827  0.9053 -3.0549
  358MOL0     H48295   8.201   0.338   3.149  1.7275 -0.1568 -1.4091
  358MOL0     H48296   8.426   0.357   3.245  0.5918 -0.4680  0.4997
  358MOL0     H48297   8.398   0.199   3.339  1.3510 -1.0522 -0.6229
  358MOL0     H48298   8.364   0.089   3.112 -4.2657  2.6434 -0.3025
  358MOL0     H48299   8.420   0.232   3.033 -1.8558  1.4230  1.3793
  358MOL0     H48300   8.585   0.109   3.262 -1.0986 -0.4388  0.6850
  358MOL0     H48301   8.636   0.241   3.175  1.1975 -1.4474  0.5543
  358MOL0     H48302   8.627   0.074   2.965 -0.8115 -0.8763  0.3044
  358MOL0     H48303   8.629  -0.043   3.089 -1.6930  0.3349  1.0348
  358MOL0     H48304   8.832   0.193   3.069 -5.0016  2.3928  0.6059
  358MOL0     H48305   8.845   0.065   3.194 -0.2632  2.6884 -0.3250
  358MOL0     H48306   8.842  -0.011   2.888  2.3267 -1.4653 -0.9608
  358MOL0     H48307   8.869  -0.112   3.028  0.7008  0.7121  0.6023
  358MOL0     H48308   9.064   0.052   3.090 -0.0805  1.2189  0.5136
  358MOL0     H48309   9.086  -0.068   2.956 -0.4821  0.6557 -0.7406
  358MOL0     H48310   8.124   0.429   3.577  0.1999  1.5697 -0.3797
  358MOL0     H48311   7.904   0.498   3.642  1.4096  0.5984 -0.3054
  358MOL0     H48312   7.521   0.669   3.533  0.9316 -1.0602 -0.6760
  358MOL0     H48313   7.286   0.763   3.536 -0.8948  0.3383  0.0018
  358MOL0     H48314   6.784   2.211   3.393 -0.2209 -0.2484 -0.1710
  358MOL0     H48315   6.932   2.242   3.581 -0.1293  1.0458  2.1477
  358MOL0     H48316   7.097   2.341   3.849 -1.7909  0.9568  0.5176
  358MOL0     H48317   7.264   2.441   3.989 -0.9763 -1.7803 -2.9809
  358MOL0     H48318   7.392   2.257   4.372  1.2142  0.3181 -1.7661
  358MOL0     H48319   7.246   2.346   4.415  0.0406 -1.0176  0.8768
  358MOL0     H48320   7.437   2.443   4.546  0.8353 -0.1258  0.0322
  358MOL0     H48321   7.381   2.559   4.419  0.6815  0.3580 -0.6532
  358MOL0     H48322   7.571   2.462   4.277  0.8484  3.3579  0.1460
  358MOL0     H48323   7.600   2.356   4.411  1.8010  0.0517  0.2593
  358MOL0     H48324   7.650   2.661   4.406 -1.1838  0.2367  1.9020
  358MOL0     H48325   7.659   2.570   4.558 -0.9437  0.4886  0.1049
  358MOL0     H48326   8.029   2.483   4.408 -0.8754  0.2282 -3.3381
  358MOL0     H48327   7.191   2.162   4.290 -0.8652  2.0300  1.0666
  358MOL0     H48328   7.007   2.011   4.296 -0.8511  0.6943  0.4527
  358MOL0     H48329   6.874   2.060   4.208 -0.2024 -2.8050  2.3232
  358MOL0     H48330   6.990   1.936   4.143  0.8206 -0.9027  2.3964
  359MOL0     O48331   1.320  10.774   6.434  0.5387  0.0093 -0.5444
  359MOL0     C48332   1.417  10.709   6.388  0.1171  0.1574 -0.3458
  359MOL0     O48333   1.432  10.573   6.393  0.0234 -0.1444  0.5101
  359MOL0     C48334   1.332  10.501   6.447  0.4418  0.0152 -0.3218
  359MOL0     C48335   1.276  10.411   6.353  0.3202 -1.1124 -0.1863
  359MOL0     C48336   1.167  10.341   6.398 -0.5791  0.1915  0.1496
  359MOL0     C48337   1.099  10.361   6.519  0.6741 -0.5673  1.4398
  359MOL0     O48338   0.979  10.288   6.542  0.1993  0.0477 -0.4379
  359MOL0     C48339   0.998  10.179   6.636  1.3415  0.8889  0.2808
  359MOL0     C48340   0.848  10.139   6.673 -0.4733  0.0218 -0.8558
  359MOL0     C48341   0.768  10.080   6.553  0.3694  0.3689  0.1237
  359MOL0     C48342   0.793   9.934   6.513 -0.5765 -0.2358  0.4294
  359MOL0     C48343   0.669   9.839   6.528 -0.3221 -0.5395 -0.4598
  359MOL0     C48344   0.615   9.849   6.671  0.5111 -0.0003 -0.7053
  359MOL0     C48345   0.463   9.815   6.687  0.6375 -0.2813  0.9540
  359MOL0     C48346   0.374   9.933   6.640  0.4685 -0.1940 -0.9274
  359MOL0     N48347   0.350  10.045   6.736 -1.0604  0.3596  0.5001
  359MOL0     C48348   0.434  10.150   6.740 -0.6607 -0.5709  0.2549
  359MOL0     C48349   0.381  10.221   6.844  0.5643 -0.8793  0.1850
  359MOL0     C48350   0.427  10.363   6.886 -0.3049  0.3016 -0.6197
  359MOL0     C48351   0.561  10.375   6.962 -0.3189  0.2294  0.2929
  359MOL0     C48352   0.561  10.285   7.079 -0.8047  0.3090  0.4656
  359MOL0     C48353   0.673  10.315   7.180 -0.2765 -0.2038 -0.3162
  359MOL0     O48354   0.793  10.293   7.099  0.8129  0.0071 -0.2471
  359MOL0     C48355   0.914  10.344   7.129 -0.7163 -0.5730  0.7687
  359MOL0     C48356   1.019  10.270   7.075 -0.1753 -0.4154  0.0291
  359MOL0     C48357   1.148  10.308   7.112 -0.2116 -0.1256 -0.0109
  359MOL0     C48358   1.171  10.398   7.213 -0.2750 -0.1962  0.1328
  359MOL0     C48359   1.305  10.426   7.253 -0.1039 -0.5721  0.4624
  359MOL0     O48360   1.404  10.353   7.203  0.1888 -0.2263  0.0255
  359MOL0     C48361   1.532  10.363   7.257  0.4910 -0.4711  0.3306
  359MOL0     C48362   1.604  10.245   7.267  0.3052  0.2568  0.0799
  359MOL0     C48363   1.738  10.242   7.315 -0.2304  0.6572  0.2725
  359MOL0     C48364   1.802  10.359   7.359  0.0326  0.2774  0.1660
  359MOL0     O48365   1.927  10.370   7.413 -0.7587 -0.2555  0.0248
  359MOL0     C48366   2.002  10.259   7.455  1.0478  0.9014  0.4587
  359MOL0     C48367   2.142  10.296   7.513 -0.0929 -0.8257 -0.0762
  359MOL0     C48368   2.229  10.177   7.560 -0.3540 -1.0342 -0.5027
  359MOL0     C48369   2.370  10.227   7.616  0.7128 -0.3747  0.2059
  359MOL0     C48370   2.432  10.113   7.708  0.0601  0.1847  0.1660
  359MOL0     C48371   2.551  10.161   7.781 -0.4427 -0.2902 -0.9555
  359MOL0     C48372   2.675  10.161   7.695 -0.2672  0.1572 -0.4671
  359MOL0     C48373   2.795  10.225   7.772 -0.0051  0.3015  0.2504
  359MOL0    Cl48374   2.807  10.171   7.934  0.5786  0.0103 -0.1762
  359MOL0     C48375   1.728  10.478   7.361 -0.0518 -0.2087  0.3913
  359MOL0     C48376   1.589  10.474   7.324 -0.5381 -0.6221  1.3425
  359MOL0     O48377   1.320  10.510   7.336  0.4958 -0.3832 -0.6222
  359MOL0     C48378   1.069  10.463   7.278  0.2781 -0.4558  0.3046
  359MOL0     C48379   0.936  10.443   7.228 -0.7156  0.1803  0.1521
  359MOL0     N48380   0.286  10.148   6.914 -0.2635  0.0079  0.6271
  359MOL0     N48381   0.269  10.042   6.840  0.2704 -0.4505 -0.8900
  359MOL0     C48382   1.138  10.460   6.601 -1.2582  0.3466 -1.0863
  359MOL0     C48383   1.264  10.525   6.572 -0.4035  0.0997 -0.6407
  359MOL0     C48384   1.520  10.779   6.320 -0.2601 -0.0066 -1.1957
  359MOL0     C48385   1.631  10.703   6.252  0.0898  0.0061 -0.2595
  359MOL0     C48386   1.742  10.763   6.196  0.7118  0.2715 -0.0845
  359MOL0     C48387   1.745  10.901   6.193  0.4952  0.1860  0.8574
  359MOL0     O48388   1.858  10.957   6.139  0.1422 -0.7859  0.5744
  359MOL0     C48389   1.926  11.055   6.216  0.0271 -0.0026  0.1177
  359MOL0     C48390   2.029  11.127   6.131 -0.3194 -0.4984  0.9557
  359MOL0     C48391   1.986  11.153   5.984  1.1278  0.5109 -0.7998
  359MOL0     C48392   2.065  11.258   5.907  0.1046 -0.2069  0.3115
  359MOL0     C48393   2.027  11.395   5.945  0.6384 -0.8452  0.9794
  359MOL0     C48394   1.991  11.506   5.983 -0.2491 -0.6380 -0.3578
  359MOL0     C48395   1.638  10.975   6.239  0.7311 -0.0282  0.0722
  359MOL0     C48396   1.527  10.923   6.302 -0.4104  0.1744  0.2318
  359MOL0     C48397   1.436  11.026   6.361  0.4615 -0.6890 -0.2260
  359MOL0     H48398   1.301  10.404   6.248  2.2685 -0.3017  0.1676
  359MOL0     H48399   1.134  10.263   6.330  1.6653  0.7208 -1.6443
  359MOL0     H48400   1.055  10.095   6.596 -1.3447 -1.0773  0.3598
  359MOL0     H48401   1.055  10.215   6.723  2.2327 -1.1142  0.5897
  359MOL0     H48402   0.801  10.234   6.702 -1.8415 -0.8621 -0.0940
  359MOL0     H48403   0.850  10.062   6.750 -2.7750 -2.2854 -2.9051
  359MOL0     H48404   0.797  10.140   6.467 -1.4227  5.2637  2.5318
  359MOL0     H48405   0.659  10.089   6.555  0.3320 -0.0488  0.1097
  359MOL0     H48406   0.817   9.922   6.407  0.1834  2.8820  0.1367
  359MOL0     H48407   0.878   9.900   6.573  0.3249 -0.6359 -1.0477
  359MOL0     H48408   0.594   9.865   6.452  0.6750  0.3537 -1.1615
  359MOL0     H48409   0.707   9.737   6.514 -1.0150 -0.9115  0.2892
  359MOL0     H48410   0.662   9.768   6.728 -0.9253  0.0278  0.5833
  359MOL0     H48411   0.629   9.948   6.717 -2.9054 -0.3264  1.3581
  359MOL0     H48412   0.440   9.774   6.786  0.6971 -1.8982  0.3231
  359MOL0     H48413   0.444   9.726   6.626 -1.5406  0.5205  0.3726
  359MOL0     H48414   0.407   9.975   6.545 -2.2452 -0.3991 -2.0364
  359MOL0     H48415   0.279   9.883   6.621  1.3761 -2.2361 -0.4361
  359MOL0     H48416   0.517  10.180   6.676  0.8570  2.7465  3.4335
  359MOL0     H48417   0.455  10.407   6.790  1.8112  0.2499 -0.0748
  359MOL0     H48418   0.346  10.423   6.929 -0.8414  0.9602 -2.4803
  359MOL0     H48419   0.642  10.346   6.894 -1.7273  1.5863 -2.1200
  359MOL0     H48420   0.575  10.477   6.997 -0.9494 -0.1549  1.7431
  359MOL0     H48421   0.579  10.183   7.045 -0.7967  0.5756 -0.3637
  359MOL0     H48422   0.459  10.278   7.117 -1.0061  0.9041  0.0507
  359MOL0     H48423   0.674  10.241   7.261 -2.5478 -0.4847 -0.4841
  359MOL0     H48424   0.664  10.416   7.221 -1.1339 -0.6530  0.6405
  359MOL0     H48425   1.004  10.179   7.017 -3.0245  0.4769 -0.7983
  359MOL0     H48426   1.240  10.276   7.064 -2.0113  0.3894 -4.2593
  359MOL0     H48427   1.563  10.152   7.228  1.3237 -0.2159  0.1157
  359MOL0     H48428   1.779  10.143   7.336 -3.3823 -1.6849 -3.2368
  359MOL0     H48429   1.943  10.200   7.525  3.3454 -2.0540  0.0920
  359MOL0     H48430   2.011  10.181   7.379 -0.1903  1.4851 -0.3074
  359MOL0     H48431   2.197  10.360   7.443 -0.9633  0.6707  0.5522
  359MOL0     H48432   2.125  10.356   7.603  0.3190 -0.4264 -0.2608
  359MOL0     H48433   2.174  10.129   7.641 -1.2516  0.7660  0.0022
  359MOL0     H48434   2.235  10.101   7.481 -3.2245  0.1773 -2.0450
  359MOL0     H48435   2.365  10.316   7.678  1.0748  1.6094 -2.4367
  359MOL0     H48436   2.435  10.250   7.531  2.1291 -2.5343  0.6123
  359MOL0     H48437   2.469  10.033   7.643 -1.0816  1.3801 -2.0349
  359MOL0     H48438   2.353  10.067   7.768  0.6419 -1.4009 -0.2439
  359MOL0     H48439   2.528  10.257   7.828 -3.2714 -1.6170  0.6402
  359MOL0     H48440   2.563  10.098   7.869  1.1940 -0.2402 -1.1090
  359MOL0     H48441   2.656  10.198   7.594  1.7839  0.7373 -0.6802
  359MOL0     H48442   2.705  10.056   7.685 -1.0203 -0.2442  1.1304
  359MOL0     H48443   2.891  10.206   7.723 -0.3842 -2.9657  0.6067
  359MOL0     H48444   2.774  10.333   7.775  2.0905  0.8181 -1.4408
  359MOL0     H48445   1.753  10.575   7.402 -1.6601  0.4974 -0.2359
  359MOL0     H48446   1.542  10.572   7.325  3.7739  1.7183  3.2878
  359MOL0     H48447   1.087  10.532   7.360 -1.8809 -0.7107  1.0458
  359MOL0     H48448   0.853  10.482   7.285 -2.7365  0.5977 -2.8637
  359MOL0     H48449   1.080  10.484   6.690  0.1724  1.1234 -0.3323
  359MOL0     H48450   1.305  10.601   6.637  2.1453 -1.2791 -0.5427
  359MOL0     H48451   1.631  10.595   6.255  2.2251 -0.0605 -0.8542
  359MOL0     H48452   1.823  10.711   6.146 -0.4993 -0.6251 -1.1689
  359MOL0     H48453   1.971  11.007   6.303  2.6996 -3.5174 -2.8913
  359MOL0     H48454   1.855  11.124   6.263  0.0020  0.7638 -1.0160
  359MOL0     H48455   2.124  11.074   6.122 -0.3645 -0.2832 -1.4412
  359MOL0     H48456   2.066  11.220   6.176 -0.5026 -1.0170  2.2206
  359MOL0     H48457   1.888  11.199   5.989  1.9670  2.2301  1.3666
  359MOL0     H48458   1.980  11.058   5.930 -1.9652  1.3952 -2.2158
  359MOL0     H48459   2.173  11.242   5.913  0.5699  1.3461 -2.5688
  359MOL0     H48460   2.038  11.253   5.801  0.4349  1.1021  0.1502
  359MOL0     H48461   1.965  11.601   6.027 -2.6938 -1.0259 -0.8175
  359MOL0     H48462   1.641  11.084   6.239 -1.4503  0.0866  0.9404
  359MOL0     H48463   1.442  11.009   6.469 -0.9691  2.4613  0.4600
  359MOL0     H48464   1.471  11.130   6.357 -3.6113  0.8741  0.1385
  359MOL0     H48465   1.332  11.022   6.327  0.0461 -0.8432  0.9989
  360MOL0     O48466   2.156   5.417   3.936 -0.5695 -0.2588 -0.7717
  360MOL0     C48467   2.147   5.321   3.859 -0.5865 -0.4843 -0.6401
  360MOL0     O48468   2.031   5.274   3.808  0.5357  1.1014  0.1065
  360MOL0     C48469   1.920   5.357   3.821 -0.4749  0.1395  0.3616
  360MOL0     C48470   1.797   5.302   3.863  0.4768 -0.0893  0.6228
  360MOL0     C48471   1.683   5.383   3.866  0.0915 -0.7593 -0.3276
  360MOL0     C48472   1.686   5.520   3.831  1.1893 -0.4532  0.1551
  360MOL0     O48473   1.580   5.603   3.842  0.1688  0.4486 -0.2086
  360MOL0     C48474   1.449   5.547   3.806 -0.5696 -0.3411 -0.0145
  360MOL0     C48475   1.380   5.656   3.728 -0.4533  0.1367 -0.1525
  360MOL0     C48476   1.419   5.658   3.579 -0.6873  0.2376  0.0849
  360MOL0     C48477   1.431   5.526   3.496 -0.0922 -0.1275  0.5621
  360MOL0     C48478   1.301   5.448   3.498 -0.4458  0.5218 -0.3911
  360MOL0     C48479   1.201   5.477   3.381 -0.2961  0.1539  0.6426
  360MOL0     C48480   1.072   5.399   3.387 -0.0676 -0.7259  0.1015
  360MOL0     C48481   0.971   5.446   3.286 -0.1988  0.4370  0.4884
  360MOL0     N48482   0.834   5.392   3.303 -0.0383  0.2000  0.5860
  360MOL0     C48483   0.762   5.378   3.425  0.4581  0.6118 -0.3660
  360MOL0     C48484   0.637   5.338   3.396 -0.1466 -0.4975 -0.2916
  360MOL0     C48485   0.527   5.306   3.496 -0.0257  0.2376  1.0679
  360MOL0     C48486   0.494   5.155   3.512 -0.6382 -1.1256  0.6241
  360MOL0     C48487   0.615   5.076   3.563  0.0825  0.2898  0.8223
  360MOL0     C48488   0.654   5.130   3.701  0.0177  0.1970 -0.6593
  360MOL0     O48489   0.759   5.227   3.690  0.2932 -0.4685 -0.1980
  360MOL0     C48490   0.885   5.186   3.713 -0.1945  0.9089  1.2075
  360MOL0     C48491   0.960   5.135   3.611  0.0281  0.7008  1.3314
  360MOL0     C48492   1.099   5.135   3.615 -0.1275  0.5800 -0.6079
  360MOL0     C48493   1.169   5.181   3.723 -0.5607  0.2961  0.3164
  360MOL0     C48494   1.316   5.188   3.719 -0.2676 -0.3399 -0.8210
  360MOL0     O48495   1.376   5.123   3.617 -0.6093 -0.5985  0.1089
  360MOL0     C48496   1.513   5.132   3.595  0.6158 -0.8099 -0.8172
  360MOL0     C48497   1.563   5.175   3.476 -0.2524 -0.4158  0.1886
  360MOL0     C48498   1.688   5.166   3.442 -0.2870  0.4117 -0.8516
  360MOL0     C48499   1.782   5.110   3.529  0.4911 -0.2731  0.7449
  360MOL0     O48500   1.912   5.086   3.502 -0.6890 -0.2331  0.7371
  360MOL0     C48501   1.969   5.179   3.410 -0.5167 -0.1407 -0.3502
  360MOL0     C48502   2.116   5.138   3.402  0.1893  0.3259 -0.0664
  360MOL0     C48503   2.130   5.009   3.328  0.0441 -0.0482  1.1511
  360MOL0     C48504   2.265   4.989   3.266  0.2120  0.0781  0.6765
  360MOL0     C48505   2.382   5.004   3.361  0.9663  0.2822 -0.8267
  360MOL0     C48506   2.512   5.001   3.283 -0.7592 -0.2189  0.9920
  360MOL0     C48507   2.644   5.007   3.367 -0.1555  0.5992 -1.1192
  360MOL0     C48508   2.654   4.884   3.458  0.9746  0.6524 -0.1572
  360MOL0    Cl48509   2.815   4.883   3.538 -0.6446 -0.0248  0.2311
  360MOL0     C48510   1.737   5.067   3.654 -0.0358 -0.0540  0.0695
  360MOL0     C48511   1.604   5.081   3.689  0.4748 -0.0404 -0.0743
  360MOL0     O48512   1.383   5.248   3.811  0.3011 -0.7119  0.1755
  360MOL0     C48513   1.091   5.234   3.828 -0.0898  0.0187 -0.7836
  360MOL0     C48514   0.948   5.240   3.824 -0.4374 -0.9377  0.6887
  360MOL0     N48515   0.627   5.336   3.260 -0.0230 -0.5602  0.4071
  360MOL0     N48516   0.750   5.361   3.204 -0.7570 -0.4943  0.5125
  360MOL0     C48517   1.806   5.576   3.798 -0.3725 -0.0971 -0.9185
  360MOL0     C48518   1.918   5.495   3.785  0.2567  0.9612 -0.6397
  360MOL0     C48519   2.269   5.259   3.819  0.3744  0.0181  0.2979
  360MOL0     C48520   2.330   5.171   3.907  0.3437  0.5244  0.7126
  360MOL0     C48521   2.453   5.107   3.884  0.5139  0.8594 -0.1664
  360MOL0     C48522   2.521   5.152   3.770 -0.1531 -0.5439 -1.1480
  360MOL0     O48523   2.645   5.112   3.733 -0.8336  0.2004  0.2671
  360MOL0     C48524   2.725   5.030   3.822 -0.5069 -0.9072  0.2681
  360MOL0     C48525   2.876   5.085   3.809  0.0348 -0.2462 -0.8990
  360MOL0     C48526   2.864   5.244   3.824 -0.6046 -0.1435 -0.2200
  360MOL0     C48527   3.006   5.296   3.862 -0.1324  0.1413  0.4566
  360MOL0     C48528   3.116   5.274   3.768  0.8312  0.3572 -0.7909
  360MOL0     C48529   3.195   5.233   3.689 -0.3611 -1.0374 -0.0407
  360MOL0     C48530   2.464   5.247   3.682 -0.1591 -0.1310  0.6277
  360MOL0     C48531   2.341   5.303   3.703  0.3553 -0.0216 -0.8404
  360MOL0     C48532   2.288   5.393   3.602  0.3753 -0.2596  0.0209
  360MOL0     H48533   1.785   5.201   3.899 -3.9822 -0.9062 -2.4316
  360MOL0     H48534   1.591   5.337   3.899  0.1541  1.0616  2.7881
  360MOL0     H48535   1.463   5.458   3.743 -0.0696 -0.2114 -0.0940
  360MOL0     H48536   1.401   5.517   3.899 -0.5587  3.8179  1.5252
  360MOL0     H48537   1.424   5.747   3.768  3.1993 -0.3468 -2.5343
  360MOL0     H48538   1.272   5.646   3.746 -0.6251  0.4841 -0.8998
  360MOL0     H48539   1.518   5.702   3.566  1.6859 -3.7260  2.6659
  360MOL0     H48540   1.354   5.732   3.531  3.2127  3.1000 -1.2687
  360MOL0     H48541   1.459   5.536   3.391 -3.3371  1.5101 -0.2775
  360MOL0     H48542   1.510   5.464   3.538  0.0977  0.6769  1.4482
  360MOL0     H48543   1.333   5.343   3.493  2.1626  1.1676  1.1090
  360MOL0     H48544   1.251   5.464   3.594 -0.3540  0.3461 -0.3130
  360MOL0     H48545   1.192   5.585   3.368 -1.0534  0.3326  2.4461
  360MOL0     H48546   1.248   5.430   3.294 -1.9178 -1.0514  0.3646
  360MOL0     H48547   1.024   5.413   3.484 -2.1400 -0.0455 -0.9743
  360MOL0     H48548   1.094   5.292   3.374 -1.5699 -1.3519  2.1613
  360MOL0     H48549   0.961   5.555   3.285  0.0680  0.5092  2.3892
  360MOL0     H48550   1.009   5.418   3.187  0.2550 -1.2418  1.1001
  360MOL0     H48551   0.807   5.386   3.524  0.4680  2.2841 -0.4843
  360MOL0     H48552   0.554   5.361   3.587 -0.7629  2.1859  0.1405
  360MOL0     H48553   0.431   5.351   3.471 -0.1383  0.0251  1.1160
  360MOL0     H48554   0.411   5.138   3.581 -0.9859  1.1899  0.8423
  360MOL0     H48555   0.465   5.117   3.414  0.0411 -1.2613  0.4671
  360MOL0     H48556   0.697   5.078   3.491  1.1797 -2.0342  1.9161
  360MOL0     H48557   0.587   4.970   3.564 -1.8452  0.7503  0.0560
  360MOL0     H48558   0.679   5.055   3.777 -1.2618  0.9339  0.5351
  360MOL0     H48559   0.569   5.178   3.750  1.4862  0.2772  2.0106
  360MOL0     H48560   0.907   5.089   3.528  0.7475 -1.1959  1.8713
  360MOL0     H48561   1.142   5.086   3.528 -1.7687 -1.4103 -0.3697
  360MOL0     H48562   1.502   5.216   3.395  1.0429 -2.6599 -2.0395
  360MOL0     H48563   1.723   5.190   3.342  0.0330 -3.0094 -1.6961
  360MOL0     H48564   1.932   5.170   3.308 -0.1245  1.1520 -0.6317
  360MOL0     H48565   1.949   5.283   3.441 -1.1768 -0.3019 -0.2133
  360MOL0     H48566   2.181   5.216   3.361  1.0146 -0.3463 -0.0531
  360MOL0     H48567   2.144   5.115   3.505  2.2677 -0.7643 -0.8217
  360MOL0     H48568   2.116   4.940   3.412  0.0255  1.2625  2.2490
  360MOL0     H48569   2.054   4.999   3.250  0.1004  0.0594  1.0816
  360MOL0     H48570   2.275   5.054   3.178 -0.5860 -1.3191 -0.4846
  360MOL0     H48571   2.262   4.890   3.221 -0.0773 -0.7230  2.3839
  360MOL0     H48572   2.385   4.928   3.440 -1.0185 -1.7827 -2.5824
  360MOL0     H48573   2.391   5.103   3.407 -1.0999 -0.1139  0.6059
  360MOL0     H48574   2.517   4.911   3.220 -2.0832 -1.6611  2.8530
  360MOL0     H48575   2.516   5.090   3.218  1.5552 -1.0452 -0.1197
  360MOL0     H48576   2.649   5.096   3.429  0.9376 -1.9233  2.7397
  360MOL0     H48577   2.732   5.008   3.302  0.5540 -2.3715 -0.3557
  360MOL0     H48578   2.572   4.890   3.531  0.0001 -1.7532 -0.9484
  360MOL0     H48579   2.642   4.785   3.413  2.2801 -0.5866  2.0368
  360MOL0     H48580   1.805   5.028   3.729  3.2693  1.9797 -1.6082
  360MOL0     H48581   1.566   5.051   3.787  1.3968 -0.5975  0.1326
  360MOL0     H48582   1.145   5.280   3.911  1.0377  1.7327 -2.3858
  360MOL0     H48583   0.890   5.286   3.903  0.3991 -2.1373  2.0617
  360MOL0     H48584   1.814   5.680   3.767  2.5330  0.2684  0.6961
  360MOL0     H48585   2.013   5.540   3.760  2.1980 -0.7585  3.0160
  360MOL0     H48586   2.306   5.162   4.013  1.0951  0.8966  0.9190
  360MOL0     H48587   2.497   5.031   3.948 -0.3110 -0.8283 -1.4919
  360MOL0     H48588   2.721   4.924   3.796 -0.5858 -0.6683 -0.7455
  360MOL0     H48589   2.691   5.046   3.924 -1.8922  2.6440 -0.5786
  360MOL0     H48590   2.923   5.060   3.713  1.2728 -2.3322  0.1832
  360MOL0     H48591   2.949   5.044   3.879  1.6250  1.3938 -1.5167
  360MOL0     H48592   2.795   5.276   3.901  0.9575  0.4661  0.9836
  360MOL0     H48593   2.821   5.289   3.734 -1.7528  0.7107  0.7333
  360MOL0     H48594   3.010   5.403   3.884 -0.8186 -0.0356  1.4990
  360MOL0     H48595   3.045   5.247   3.951  2.5316 -0.2109 -0.8189
  360MOL0     H48596   3.244   5.197   3.601  0.4698 -1.9640  0.7794
  360MOL0     H48597   2.514   5.275   3.590 -2.3682 -0.0515 -0.6141
  360MOL0     H48598   2.194   5.357   3.560 -0.9762 -0.1448  2.7580
  360MOL0     H48599   2.269   5.497   3.629 -3.6581 -1.0283  0.6841
  360MOL0     H48600   2.357   5.403   3.517  1.3690  1.3689  0.9748
  361MOL0     O48601   7.354   0.197   5.359  0.8672  0.3634 -0.4848
  361MOL0     C48602   7.306   0.249   5.256 -0.4873  0.0916 -0.3013
  361MOL0     O48603   7.388   0.299   5.151  0.1181  0.5830 -0.5018
  361MOL0     C48604   7.525   0.268   5.152  0.0817 -0.8419  0.6912
  361MOL0     C48605   7.616   0.376   5.148  0.9622  0.2903 -0.0066
  361MOL0     C48606   7.751   0.352   5.142  0.0850 -0.8207 -0.4035
  361MOL0     C48607   7.801   0.230   5.168 -0.9171  1.0015  0.3100
  361MOL0     O48608   7.938   0.212   5.160  1.0134 -0.1768 -0.3832
  361MOL0     C48609   8.004   0.241   5.038 -0.5503  0.2171  0.8059
  361MOL0     C48610   8.111   0.128   5.018 -0.6943  0.4977  0.8532
  361MOL0     C48611   8.208   0.104   5.142  0.5657  0.1718 -0.1891
  361MOL0     C48612   8.320  -0.001   5.101  0.5760  0.4375 -0.2942
  361MOL0     C48613   8.455   0.032   5.159 -0.4074 -0.0240  0.0145
  361MOL0     C48614   8.530  -0.104   5.173  0.3615 -0.6544  0.4254
  361MOL0     C48615   8.668  -0.072   5.246 -0.1444 -0.2748  0.7820
  361MOL0     C48616   8.733  -0.212   5.285 -0.6179 -0.8238 -0.2357
  361MOL0     N48617   8.863  -0.206   5.357  0.2283  0.2306 -0.0026
  361MOL0     C48618   8.984  -0.151   5.328 -0.1757 -0.8953  0.9879
  361MOL0     C48619   9.066  -0.187   5.428  0.0244 -0.0216 -0.6083
  361MOL0     C48620   9.208  -0.133   5.428 -0.0129 -1.0543 -0.3862
  361MOL0     C48621   9.220  -0.016   5.519 -0.1769  0.5455 -0.1137
  361MOL0     C48622   9.365   0.043   5.522  0.3039 -1.0123  0.4057
  361MOL0     C48623   9.407   0.104   5.382 -1.3486  0.5124  0.0517
  361MOL0     O48624   9.386   0.245   5.382 -0.1303 -0.2480 -0.1717
  361MOL0     C48625   9.486   0.321   5.439 -0.6117  0.1752  0.4457
  361MOL0     C48626   9.617   0.284   5.476 -0.0420  0.6037  1.3186
  361MOL0     C48627   9.704   0.376   5.527 -0.1028  0.6187  0.8905
  361MOL0     C48628   9.668   0.515   5.533  0.3616 -0.8202  0.6455
  361MOL0     C48629   9.758   0.617   5.587  0.0114 -0.7925 -0.9248
  361MOL0     O48630   9.889   0.574   5.592 -0.3749  0.0307 -0.1204
  361MOL0     C48631   9.977   0.669   5.639  0.5734 -0.2421 -0.5653
  361MOL0     C48632   9.961   0.733   5.764 -0.1786 -0.7757  0.3495
  361MOL0     C48633  10.063   0.812   5.816 -0.3702  0.4255 -0.8250
  361MOL0     C48634  10.182   0.836   5.741  0.1808 -0.0776  0.8580
  361MOL0     O48635  10.293   0.904   5.792  0.2769  0.1325  0.2548
  361MOL0     C48636  10.320   0.895   5.935  0.1688  0.6900  0.1973
  361MOL0     C48637  10.449   0.957   5.974  0.1354  0.5960 -0.1991
  361MOL0     C48638  10.568   0.868   5.952 -0.1821  0.3761 -0.6988
  361MOL0     C48639  10.680   0.914   6.047  0.1036  0.3140 -0.4532
  361MOL0     C48640  10.807   0.821   6.041  0.0623  0.0649 -0.2076
  361MOL0     C48641  10.909   0.854   6.153 -1.0087  0.6559  0.2149
  361MOL0     C48642  11.010   0.743   6.166  0.1761  0.1632 -0.2447
  361MOL0     C48643  11.087   0.738   6.035 -0.8066  0.5970 -0.0244
  361MOL0    Cl48644  11.209   0.612   6.054 -0.1995  0.0644 -0.2162
  361MOL0     C48645  10.194   0.763   5.621 -0.0781 -0.1227 -0.6965
  361MOL0     C48646  10.096   0.676   5.573  0.5401  0.2468 -0.4337
  361MOL0     O48647   9.711   0.729   5.623 -0.5094 -0.3840 -0.4360
  361MOL0     C48648   9.534   0.548   5.493 -0.1874  0.0984  0.5548
  361MOL0     C48649   9.440   0.455   5.445 -0.2344  0.7065  1.0903
  361MOL0     N48650   9.000  -0.255   5.530 -0.5282  0.4450 -0.4315
  361MOL0     N48651   8.876  -0.273   5.483  0.3559  0.2268  0.0940
  361MOL0     C48652   7.716   0.121   5.184 -0.7228 -0.4662  1.1815
  361MOL0     C48653   7.583   0.142   5.171 -0.4068  0.4097  0.7391
  361MOL0     C48654   7.154   0.276   5.224 -0.4513 -0.5823  0.4787
  361MOL0     C48655   7.120   0.344   5.106 -0.3864  0.1699  0.2457
  361MOL0     C48656   6.989   0.388   5.081 -0.3743  0.7183  0.5428
  361MOL0     C48657   6.886   0.357   5.172 -0.7890  0.5095 -0.2437
  361MOL0     O48658   6.764   0.402   5.124 -1.0801 -0.4898  0.0608
  361MOL0     C48659   6.652   0.328   5.179 -0.2330 -0.7732  1.1819
  361MOL0     C48660   6.528   0.355   5.101 -0.4273 -0.2975 -0.0354
  361MOL0     C48661   6.536   0.312   4.957  0.3324  1.2964  0.0319
  361MOL0     C48662   6.394   0.306   4.900  0.3674  0.2323  0.2987
  361MOL0     C48663   6.389   0.262   4.756  0.2456  0.4983 -0.0413
  361MOL0     C48664   6.383   0.208   4.641 -0.5537 -0.4408 -0.1147
  361MOL0     C48665   6.919   0.279   5.286 -0.7122 -0.4314  0.6712
  361MOL0     C48666   7.053   0.239   5.314 -0.6348 -0.5962  0.4736
  361MOL0     C48667   7.072   0.150   5.424 -0.6734  0.3163 -0.1117
  361MOL0     H48668   7.582   0.479   5.154  1.2027  0.4587 -1.3416
  361MOL0     H48669   7.824   0.431   5.131  1.6432 -2.1699 -0.2470
  361MOL0     H48670   7.936   0.242   4.952  0.2351  0.0820  0.1756
  361MOL0     H48671   8.044   0.343   5.035  0.5161 -0.2216 -0.5707
  361MOL0     H48672   8.178   0.151   4.934 -1.3821 -1.2793 -0.2400
  361MOL0     H48673   8.067   0.030   4.997 -0.2023  0.0157  1.9795
  361MOL0     H48674   8.150   0.083   5.233  2.6402 -0.3174  1.0745
  361MOL0     H48675   8.253   0.200   5.167  0.8903  0.5041 -1.9603
  361MOL0     H48676   8.280  -0.089   5.151  1.9857  0.2882  0.6502
  361MOL0     H48677   8.329  -0.018   4.994  2.4860 -1.1482  0.0646
  361MOL0     H48678   8.510   0.100   5.093  0.9639 -0.3180  0.8018
  361MOL0     H48679   8.448   0.081   5.256  1.6191  0.9724 -0.3038
  361MOL0     H48680   8.469  -0.177   5.228 -1.0521 -0.0527 -0.3151
  361MOL0     H48681   8.549  -0.149   5.075 -1.2500  0.9960 -0.6981
  361MOL0     H48682   8.661  -0.005   5.333 -1.3217 -1.2531  1.4652
  361MOL0     H48683   8.741  -0.024   5.180  0.0145 -0.1869  1.0159
  361MOL0     H48684   8.660  -0.262   5.349 -0.6906 -0.0672  0.2906
  361MOL0     H48685   8.763  -0.261   5.192 -0.5942 -1.6622  0.2054
  361MOL0     H48686   9.019  -0.089   5.246  1.6758 -0.2259  2.2238
  361MOL0     H48687   9.286  -0.207   5.447  0.2214 -0.5109  0.9015
  361MOL0     H48688   9.227  -0.115   5.321  0.3395 -2.6655 -0.6162
  361MOL0     H48689   9.152   0.069   5.502  2.4388  3.1260  1.4079
  361MOL0     H48690   9.203  -0.051   5.621  0.4159  2.6712  0.7846
  361MOL0     H48691   9.429  -0.044   5.537  2.6302  0.3305 -1.1971
  361MOL0     H48692   9.374   0.119   5.600 -0.0481  0.0434 -0.5470
  361MOL0     H48693   9.340   0.061   5.306 -1.1700 -0.6817  0.5356
  361MOL0     H48694   9.509   0.069   5.362 -1.1535 -0.4998  2.4666
  361MOL0     H48695   9.652   0.181   5.478 -1.3290  0.1386  1.2001
  361MOL0     H48696   9.800   0.344   5.566 -1.3673 -1.2352  2.6424
  361MOL0     H48697   9.882   0.708   5.834 -0.1965 -0.2279  0.5325
  361MOL0     H48698  10.059   0.860   5.913  3.0088 -1.2287  0.3133
  361MOL0     H48699  10.238   0.949   5.985  3.1555  3.8495  2.1286
  361MOL0     H48700  10.328   0.790   5.966  0.7499  0.6397 -0.1301
  361MOL0     H48701  10.460   1.059   5.936 -1.0784  1.5999  1.9099
  361MOL0     H48702  10.437   0.966   6.083  0.6822 -1.9515  0.1176
  361MOL0     H48703  10.552   0.760   5.957 -1.4899  0.5014 -1.6372
  361MOL0     H48704  10.601   0.870   5.848  1.1012 -1.9478 -0.4132
  361MOL0     H48705  10.644   0.908   6.151  1.8679  0.6268  0.2075
  361MOL0     H48706  10.708   1.019   6.035  0.9054  0.3230  1.2022
  361MOL0     H48707  10.846   0.843   5.940  0.2101  0.4845 -0.0637
  361MOL0     H48708  10.762   0.722   6.048  0.0683  0.0585 -0.2539
  361MOL0     H48709  10.961   0.950   6.142  2.9261 -1.2432  0.6368
  361MOL0     H48710  10.846   0.854   6.243 -3.6120 -0.5505 -1.5034
  361MOL0     H48711  10.951   0.653   6.184  0.2696  0.4420  1.6512
  361MOL0     H48712  11.082   0.757   6.248 -1.2622 -3.1286  1.7586
  361MOL0     H48713  11.029   0.716   5.945 -1.6933 -2.2369  1.1235
  361MOL0     H48714  11.128   0.838   6.023  2.0455 -0.2127  1.7907
  361MOL0     H48715  10.289   0.778   5.571  0.4931 -0.8614  0.1238
  361MOL0     H48716  10.108   0.633   5.474  2.6519 -0.0222 -0.1191
  361MOL0     H48717   9.503   0.651   5.507  0.3153  0.3221  0.0498
  361MOL0     H48718   9.340   0.481   5.413  0.0937  0.8914  0.1822
  361MOL0     H48719   7.752   0.019   5.196  0.6375 -0.3004 -1.0605
  361MOL0     H48720   7.503   0.070   5.181  0.7764 -0.7184  2.8098
  361MOL0     H48721   7.196   0.386   5.041 -0.9704 -0.6807 -1.0377
  361MOL0     H48722   6.954   0.433   4.988  0.3583 -0.1942 -0.1905
  361MOL0     H48723   6.629   0.360   5.281 -0.1930  0.8631  0.7124
  361MOL0     H48724   6.681   0.223   5.173  2.6829  0.0306 -1.2525
  361MOL0     H48725   6.507   0.462   5.111  0.7187 -0.0840  0.1733
  361MOL0     H48726   6.447   0.296   5.147 -1.9633 -0.5669 -2.8704
  361MOL0     H48727   6.605   0.228   4.944  1.4420  1.9739  1.4414
  361MOL0     H48728   6.585   0.390   4.899  0.1947 -0.8454 -3.2503
  361MOL0     H48729   6.344   0.232   4.963 -2.1026 -0.7315 -2.5753
  361MOL0     H48730   6.341   0.401   4.910 -1.2019 -0.7055  1.2587
  361MOL0     H48731   6.347   0.169   4.547 -0.0250  0.5238 -0.7296
  361MOL0     H48732   6.836   0.264   5.353 -1.5652 -0.8038 -0.4382
  361MOL0     H48733   7.100   0.051   5.386 -1.0432  0.7552 -1.5804
  361MOL0     H48734   7.134   0.184   5.508 -0.5019  1.2595 -0.6133
  361MOL0     H48735   6.973   0.129   5.464  0.5847 -4.3955  1.2460
  362MOL0     O48736   3.383   0.583   7.544 -0.1808  0.1013 -1.0221
  362MOL0     C48737   3.397   0.538   7.429 -0.6090  0.0597  0.2707
  362MOL0     O48738   3.303   0.532   7.334 -0.0146 -0.3969  0.3664
  362MOL0     C48739   3.166   0.546   7.359 -0.1416  0.0846 -0.0051
  362MOL0     C48740   3.110   0.630   7.467 -0.1918  0.3259 -0.3483
  362MOL0     C48741   2.973   0.641   7.486  0.0649 -0.2150 -0.0123
  362MOL0     C48742   2.877   0.565   7.407 -0.0757 -1.1875 -0.4470
  362MOL0     O48743   2.746   0.567   7.432  0.9450  1.0052 -0.3503
  362MOL0     C48744   2.678   0.693   7.450 -0.4277 -0.5559  0.8947
  362MOL0     C48745   2.664   0.774   7.309 -0.4749  0.4737 -0.3063
  362MOL0     C48746   2.793   0.858   7.275 -0.1101 -0.1835  0.5905
  362MOL0     C48747   2.779   1.002   7.224 -0.3322 -1.0524  0.4522
  362MOL0     C48748   2.730   1.096   7.334 -0.5755  0.7094 -0.1131
  362MOL0     C48749   2.733   1.249   7.304 -0.1424  0.0385  0.1129
  362MOL0     C48750   2.674   1.288   7.168  0.7682 -0.2045  0.0151
  362MOL0     C48751   2.667   1.440   7.145 -0.3509 -0.0552 -0.4277
  362MOL0     N48752   2.623   1.483   7.010  0.3917 -0.5500 -0.3979
  362MOL0     C48753   2.713   1.495   6.913  0.5976 -0.4758  0.4550
  362MOL0     C48754   2.649   1.531   6.798  0.2609  0.4599 -0.4941
  362MOL0     C48755   2.712   1.564   6.670  0.7401  0.2534  0.2118
  362MOL0     C48756   2.868   1.546   6.679 -0.6058  0.3652  0.9014
  362MOL0     C48757   2.937   1.538   6.542  0.0289  0.1821  0.3341
  362MOL0     C48758   3.087   1.532   6.540  0.2148 -0.1396 -0.4503
  362MOL0     O48759   3.135   1.407   6.592  0.1142  0.4346 -0.3558
  362MOL0     C48760   3.266   1.390   6.635  1.2523 -0.3089  0.5719
  362MOL0     C48761   3.295   1.260   6.677  0.4739  0.7121  0.3132
  362MOL0     C48762   3.423   1.231   6.724 -0.5226 -0.8650  0.5844
  362MOL0     C48763   3.526   1.327   6.716  0.5865 -0.6152  0.3985
  362MOL0     C48764   3.662   1.286   6.746  0.7664 -1.0545  0.9496
  362MOL0     O48765   3.695   1.162   6.696 -0.1319 -0.5491  0.6293
  362MOL0     C48766   3.821   1.114   6.710  0.1788  0.0950 -0.1671
  362MOL0     C48767   3.857   1.030   6.821 -0.1884  0.6842 -0.0836
  362MOL0     C48768   3.987   0.977   6.824  0.6099 -0.5051 -1.0243
  362MOL0     C48769   4.092   1.011   6.737  0.0948  0.1033  0.4552
  362MOL0     O48770   4.223   0.965   6.730 -0.0673  0.6267  0.3928
  362MOL0     C48771   4.266   0.904   6.852  0.2305  0.0465  0.2119
  362MOL0     C48772   4.400   0.844   6.831 -0.9310 -0.1601 -0.8551
  362MOL0     C48773   4.442   0.787   6.963  0.9638  0.0591 -0.3667
  362MOL0     C48774   4.582   0.727   6.955 -0.7419  0.7477 -0.3831
  362MOL0     C48775   4.617   0.660   7.093 -0.4093  0.1377 -0.0978
  362MOL0     C48776   4.769   0.624   7.097 -0.5301  0.0813 -0.0880
  362MOL0     C48777   4.835   0.633   7.230  0.2524 -0.2258 -0.3906
  362MOL0     C48778   4.765   0.548   7.335 -0.3852  0.1886  0.5418
  362MOL0    Cl48779   4.808   0.610   7.505  0.2673 -0.0121  0.0284
  362MOL0     C48780   4.058   1.091   6.639  0.9733 -0.7644  1.1468
  362MOL0     C48781   3.928   1.153   6.621 -0.1849  0.1517 -0.1584
  362MOL0     O48782   3.724   1.357   6.821  0.6060 -0.1785  0.5790
  362MOL0     C48783   3.492   1.456   6.662  0.3927  0.7771 -0.1307
  362MOL0     C48784   3.362   1.488   6.625 -0.5413 -0.0021  0.3599
  362MOL0     N48785   2.512   1.527   6.835 -0.4884 -0.0548 -0.8388
  362MOL0     N48786   2.493   1.499   6.967 -0.7101  0.2267 -0.0171
  362MOL0     C48787   2.934   0.487   7.306  0.1392 -0.1378  0.5229
  362MOL0     C48788   3.071   0.486   7.277 -0.2375  0.4112  0.6654
  362MOL0     C48789   3.538   0.515   7.389  0.1920  0.0250 -0.1620
  362MOL0     C48790   3.643   0.600   7.438 -0.0389  0.2636  0.7429
  362MOL0     C48791   3.777   0.579   7.402  0.8553 -0.5968  0.3354
  362MOL0     C48792   3.808   0.475   7.316 -0.2687 -0.3405  0.0961
  362MOL0     O48793   3.937   0.442   7.274  0.2642 -0.6412  0.9209
  362MOL0     C48794   4.047   0.521   7.332  0.2627 -0.4384 -0.7418
  362MOL0     C48795   4.166   0.463   7.262  0.0659 -0.3164 -1.0435
  362MOL0     C48796   4.298   0.501   7.315  0.4677  0.2043 -0.4775
  362MOL0     C48797   4.329   0.651   7.331  0.0786 -0.0761 -0.5974
  362MOL0     C48798   4.419   0.685   7.442 -0.4581  0.9819  0.2487
  362MOL0     C48799   4.489   0.715   7.535 -0.2065  0.5363 -0.6887
  362MOL0     C48800   3.706   0.397   7.265  0.3115  0.1649  0.5143
  362MOL0     C48801   3.570   0.409   7.305  0.0143 -0.7824 -0.0589
  362MOL0     C48802   3.474   0.310   7.237  0.8227  0.5598  0.3124
  362MOL0     H48803   3.169   0.684   7.540 -1.9215  2.0500 -0.1365
  362MOL0     H48804   2.946   0.699   7.573 -0.7529  0.2559 -0.5724
  362MOL0     H48805   2.585   0.656   7.494 -0.0450 -2.4463  0.2397
  362MOL0     H48806   2.729   0.757   7.522 -0.4271  0.9367 -0.3931
  362MOL0     H48807   2.578   0.840   7.297  0.1333  0.9606 -2.3069
  362MOL0     H48808   2.642   0.695   7.237  1.5760 -0.9476  0.5209
  362MOL0     H48809   2.865   0.800   7.217  0.8023 -2.6374  3.8511
  362MOL0     H48810   2.840   0.873   7.373  1.2742 -1.3279  0.1241
  362MOL0     H48811   2.879   1.043   7.206 -0.5342  0.1473  1.8593
  362MOL0     H48812   2.713   1.009   7.137 -1.6575 -0.9824  1.4203
  362MOL0     H48813   2.629   1.061   7.357  0.2201 -1.6008  0.1232
  362MOL0     H48814   2.786   1.085   7.427  0.5661 -3.4231 -1.0805
  362MOL0     H48815   2.687   1.311   7.381  2.6132  3.3730 -0.7176
  362MOL0     H48816   2.839   1.277   7.302 -0.1414  0.1186  0.9203
  362MOL0     H48817   2.571   1.251   7.157  0.5267  0.1946  0.8358
  362MOL0     H48818   2.735   1.243   7.090 -0.8556 -2.0100 -0.2891
  362MOL0     H48819   2.606   1.493   7.220  2.4304  1.9309  0.6145
  362MOL0     H48820   2.771   1.473   7.148  0.3122 -1.3231 -4.2213
  362MOL0     H48821   2.820   1.504   6.931  0.5466  0.0955  0.5070
  362MOL0     H48822   2.672   1.505   6.587 -2.7950  3.4194 -0.6069
  362MOL0     H48823   2.692   1.666   6.639  0.7682 -0.2529 -1.5999
  362MOL0     H48824   2.905   1.632   6.736 -1.3632  1.4986 -0.2718
  362MOL0     H48825   2.897   1.454   6.730 -1.1782 -0.2320  0.1716
  362MOL0     H48826   2.903   1.620   6.478 -1.5790  0.4648  1.5147
  362MOL0     H48827   2.902   1.455   6.480  5.4843 -1.4078 -1.2226
  362MOL0     H48828   3.125   1.617   6.598  2.2599 -0.4788 -1.2079
  362MOL0     H48829   3.114   1.540   6.435  1.5646  0.4163 -0.0910
  362MOL0     H48830   3.226   1.177   6.685  0.8685  0.4337  0.9122
  362MOL0     H48831   3.464   1.136   6.758  0.6674 -0.5650  0.0509
  362MOL0     H48832   3.783   0.999   6.894  1.0548  0.1987  1.0119
  362MOL0     H48833   4.010   0.903   6.900  2.9030  0.6022 -0.5303
  362MOL0     H48834   4.265   0.976   6.935 -1.8243  1.3596 -0.8656
  362MOL0     H48835   4.196   0.823   6.873 -0.1141 -0.5277 -2.7620
  362MOL0     H48836   4.393   0.762   6.759  0.9210 -0.6173 -0.5711
  362MOL0     H48837   4.468   0.923   6.797 -0.0258 -0.2147  0.7326
  362MOL0     H48838   4.433   0.866   7.038 -5.8567  0.4084 -0.9025
  362MOL0     H48839   4.372   0.712   7.000  1.3854  0.0996  0.5603
  362MOL0     H48840   4.668   0.788   6.927 -0.3491  0.2515 -0.2909
  362MOL0     H48841   4.585   0.656   6.871 -0.7531  0.7814 -0.4119
  362MOL0     H48842   4.561   0.570   7.119  1.0795  0.1544  3.9774
  362MOL0     H48843   4.599   0.740   7.166 -0.4072  1.0343 -1.0605
  362MOL0     H48844   4.777   0.524   7.054  4.0271  0.0704  0.2699
  362MOL0     H48845   4.821   0.691   7.028 -1.1550  1.1670  0.4640
  362MOL0     H48846   4.827   0.738   7.258  3.3245 -0.4732  2.0027
  362MOL0     H48847   4.937   0.600   7.208  0.3182  0.0442 -0.4863
  362MOL0     H48848   4.658   0.569   7.328 -0.5903 -0.8711  0.3476
  362MOL0     H48849   4.786   0.442   7.315  3.4502  0.4832  2.1311
  362MOL0     H48850   4.122   1.111   6.553 -0.4751 -0.1029  0.1873
  362MOL0     H48851   3.910   1.220   6.538 -2.2701  0.7449  0.7153
  362MOL0     H48852   3.564   1.536   6.649  0.2453  0.9325  0.0034
  362MOL0     H48853   3.341   1.592   6.599 -2.2285 -0.4321 -0.1393
  362MOL0     H48854   2.870   0.424   7.245  0.9869 -0.7239  0.2269
  362MOL0     H48855   3.108   0.433   7.190  2.6475  0.4978  1.7306
  362MOL0     H48856   3.618   0.682   7.505  0.6402  2.3476 -1.4011
  362MOL0     H48857   3.854   0.635   7.454  1.2990  0.1546 -1.0784
  362MOL0     H48858   4.054   0.501   7.440 -0.2501  0.0405 -0.6077
  362MOL0     H48859   4.046   0.629   7.311  3.5907 -0.4368 -1.3225
  362MOL0     H48860   4.141   0.493   7.160  1.2593  1.2301 -0.9245
  362MOL0     H48861   4.165   0.354   7.259  0.1757 -0.5216  2.2454
  362MOL0     H48862   4.371   0.463   7.243  0.7988 -0.4985  0.2222
  362MOL0     H48863   4.324   0.449   7.408 -0.2829  2.0513  0.8250
  362MOL0     H48864   4.388   0.679   7.244  1.4574 -0.6704  0.1093
  362MOL0     H48865   4.240   0.715   7.324 -0.1448 -0.5554 -2.6172
  362MOL0     H48866   4.534   0.744   7.628 -0.6567 -0.0862 -0.2722
  362MOL0     H48867   3.728   0.309   7.207 -1.8169 -0.0398 -0.0823
  362MOL0     H48868   3.421   0.252   7.313  2.4996  0.0892  1.1716
  362MOL0     H48869   3.399   0.367   7.181 -1.8231 -1.3442  1.7334
  362MOL0     H48870   3.523   0.242   7.166  0.8619  1.1981 -0.2849
  363MOL0     O48871   3.816   1.336   9.639  0.1603  0.4584 -0.9890
  363MOL0     C48872   3.819   1.441   9.577 -0.0511  0.5226  0.3918
  363MOL0     O48873   3.816   1.563   9.634 -0.0171 -0.0919 -0.5109
  363MOL0     C48874   3.802   1.565   9.770 -0.2197 -0.5164  0.8335
  363MOL0     C48875   3.908   1.601   9.847  0.6432  0.2504  0.4899
  363MOL0     C48876   3.901   1.629   9.980  0.9910 -1.0904 -0.4221
  363MOL0     C48877   3.781   1.610  10.045  0.1377 -0.0057 -0.1569
  363MOL0     O48878   3.771   1.645  10.176  0.2560 -0.2284 -0.4887
  363MOL0     C48879   3.868   1.601  10.267  0.4535 -0.0272 -0.3683
  363MOL0     C48880   3.795   1.488  10.341  0.0637  0.4541  0.2095
  363MOL0     C48881   3.883   1.440  10.456 -0.2669  0.2671 -0.3962
  363MOL0     C48882   3.838   1.516  10.595  0.5502 -0.5158  0.9739
  363MOL0     C48883   3.935   1.493  10.713  0.0462 -0.1769 -0.0934
  363MOL0     C48884   3.931   1.350  10.765  0.2031  0.1632 -0.0053
  363MOL0     C48885   3.963   1.368  10.914  0.0251  1.5367 -0.6957
  363MOL0     C48886   3.994   1.228  10.972 -0.9706 -0.6456  0.0300
  363MOL0     N48887   4.064   1.242  11.106  0.2256  0.6942  0.5144
  363MOL0     C48888   3.985   1.254  11.221 -0.2507 -1.0467 -0.0827
  363MOL0     C48889   4.068   1.205  11.330 -0.0090 -0.4017  0.5742
  363MOL0     C48890   4.031   1.200  11.480  0.4372 -0.1597  0.2370
  363MOL0     C48891   4.072   1.331  11.562  0.3099 -0.1391  0.1610
  363MOL0     C48892   4.211   1.321  11.632 -1.0983  0.5897 -0.2828
  363MOL0     C48893   4.321   1.329  11.532 -0.2863 -0.1361 -0.2979
  363MOL0     O48894   4.450   1.287  11.586 -0.0036  0.6623 -0.0899
  363MOL0     C48895   4.519   1.371  11.665 -0.3356  0.7429 -0.4664
  363MOL0     C48896   4.488   1.506  11.681  0.1978 -0.4477 -0.7224
  363MOL0     C48897   4.588   1.594  11.730 -0.2376 -0.1425  0.3921
  363MOL0     C48898   4.719   1.545  11.773  1.1120 -0.0074  0.6964
  363MOL0     C48899   4.822   1.645  11.821 -0.3664 -0.9074 -0.7621
  363MOL0     O48900   4.810   1.779  11.792 -0.0832 -0.2045  0.7816
  363MOL0     C48901   4.904   1.863  11.833 -0.9251 -0.3184  0.5906
  363MOL0     C48902   5.039   1.833  11.825 -0.4818  0.4312  0.8176
  363MOL0     C48903   5.139   1.928  11.861 -0.5280  0.3243  0.0278
  363MOL0     C48904   5.099   2.047  11.908  0.1225  0.6552 -0.2146
  363MOL0     O48905   5.209   2.123  11.941 -0.4598 -0.0214  0.0489
  363MOL0     C48906   5.220   2.218  11.836 -1.9163 -1.0806 -0.2022
  363MOL0     C48907   5.372   2.263  11.838  0.8718 -0.2034  0.0806
  363MOL0     C48908   5.390   2.380  11.749  0.1283 -0.2697  0.1053
  363MOL0     C48909   5.534   2.429  11.743 -0.4027 -0.3666 -0.6780
  363MOL0     C48910   5.537   2.573  11.693  0.7657  0.1490  0.3005
  363MOL0     C48911   5.672   2.643  11.678 -0.6546 -0.3748 -0.2550
  363MOL0     C48912   5.660   2.784  11.614 -0.6355 -0.2798  0.4997
  363MOL0     C48913   5.799   2.814  11.551 -0.7505 -0.0360  0.6164
  363MOL0    Cl48914   5.842   2.691  11.416  0.1445  0.3773  0.2189
  363MOL0     C48915   4.966   2.092  11.918 -0.3119 -0.3439 -0.9653
  363MOL0     C48916   4.864   1.994  11.879  0.2721  0.3278 -0.0208
  363MOL0     O48917   4.912   1.596  11.885 -0.4758  0.2021 -0.7278
  363MOL0     C48918   4.737   1.405  11.767 -0.8952 -0.5289  1.1710
  363MOL0     C48919   4.640   1.324  11.714  0.1953 -0.3544  0.2208
  363MOL0     N48920   4.183   1.154  11.266  0.6500 -1.3117  0.5927
  363MOL0     N48921   4.174   1.175  11.145  0.9397 -0.3387 -0.6156
  363MOL0     C48922   3.671   1.558   9.969 -0.3335 -0.3097 -1.4450
  363MOL0     C48923   3.676   1.547   9.832 -0.2402 -0.0609  0.4179
  363MOL0     C48924   3.856   1.443   9.432 -0.6999 -0.1553  0.2243
  363MOL0     C48925   3.944   1.543   9.383 -0.3327  1.1639 -0.2585
  363MOL0     C48926   3.993   1.533   9.253 -0.2497  0.2274  0.2401
  363MOL0     C48927   3.930   1.451   9.155 -0.7757 -0.2624 -0.6512
  363MOL0     O48928   3.991   1.465   9.036  0.1480 -0.5390  0.5588
  363MOL0     C48929   3.926   1.388   8.936 -1.2391 -0.4760 -0.2021
  363MOL0     C48930   4.015   1.393   8.817 -0.1887 -0.0626  1.1280
  363MOL0     C48931   3.966   1.312   8.696 -0.1443 -0.2042  0.3267
  363MOL0     C48932   4.035   1.375   8.568  0.2466  0.0808 -0.0860
  363MOL0     C48933   4.183   1.339   8.579  0.5063 -0.4233  0.4125
  363MOL0     C48934   4.301   1.321   8.584  0.2460 -1.1114  1.0940
  363MOL0     C48935   3.835   1.362   9.201  0.6693 -0.3372 -0.0472
  363MOL0     C48936   3.805   1.353   9.337  0.2360  1.0119 -0.2927
  363MOL0     C48937   3.701   1.249   9.378 -1.1257 -0.7041  0.2261
  363MOL0     H48938   3.996   1.615   9.784 -0.9184 -1.3983 -2.2906
  363MOL0     H48939   3.987   1.672  10.031  0.7270 -0.8963 -0.1366
  363MOL0     H48940   3.963   1.563  10.230  2.6679  2.5037  2.3095
  363MOL0     H48941   3.886   1.679  10.341  0.3098 -0.4538  0.1241
  363MOL0     H48942   3.779   1.402  10.276  0.6472 -1.0081  1.9263
  363MOL0     H48943   3.699   1.520  10.383 -0.7750 -0.7021 -0.7756
  363MOL0     H48944   3.986   1.465  10.430  0.4042  1.4888  2.9090
  363MOL0     H48945   3.869   1.332  10.456 -1.5976  0.4165  0.6524
  363MOL0     H48946   3.837   1.623  10.575  0.4508 -0.3458  1.8561
  363MOL0     H48947   3.741   1.479  10.630  1.3479 -1.9539  1.7471
  363MOL0     H48948   4.036   1.523  10.684  0.6096 -1.2597  0.7092
  363MOL0     H48949   3.897   1.560  10.790  0.2151 -1.2809  0.9754
  363MOL0     H48950   3.834   1.300  10.748 -1.5259  3.5070 -0.8455
  363MOL0     H48951   4.012   1.294  10.716  0.0182  0.4047 -0.5983
  363MOL0     H48952   3.875   1.398  10.972  0.6508  0.1359  1.0701
  363MOL0     H48953   4.046   1.438  10.927  0.6499  1.3996 -3.2898
  363MOL0     H48954   3.901   1.170  10.977 -0.2195 -1.7965  4.0158
  363MOL0     H48955   4.045   1.169  10.895 -2.4489 -2.2023  0.1635
  363MOL0     H48956   3.881   1.283  11.227  0.3699  1.1107  3.2612
  363MOL0     H48957   3.922   1.198  11.471  0.5246  1.4990 -2.0859
  363MOL0     H48958   4.064   1.111  11.535  2.3412  0.9988  1.0955
  363MOL0     H48959   4.082   1.408  11.485 -0.4238 -1.2242 -1.0719
  363MOL0     H48960   3.998   1.351  11.640 -0.5209 -1.4723 -0.2430
  363MOL0     H48961   4.211   1.232  11.697 -1.3291  0.6068 -0.2552
  363MOL0     H48962   4.217   1.413  11.692 -0.1183  1.1734 -1.2480
  363MOL0     H48963   4.311   1.428  11.488  0.1606  0.0109 -0.0672
  363MOL0     H48964   4.307   1.255  11.452 -3.0795  2.3992 -2.3772
  363MOL0     H48965   4.399   1.552  11.639  0.1071 -0.2381 -0.3155
  363MOL0     H48966   4.560   1.699  11.726  0.5066  0.1707  2.1126
  363MOL0     H48967   5.080   1.744  11.780 -2.4701  0.5994 -1.5115
  363MOL0     H48968   5.245   1.907  11.853 -0.0580  2.3019  0.5550
  363MOL0     H48969   5.183   2.190  11.737 -2.3765  0.8491 -0.6161
  363MOL0     H48970   5.159   2.304  11.864 -1.5301 -1.1938  1.0468
  363MOL0     H48971   5.396   2.283  11.943 -2.6914 -2.2636  1.4808
  363MOL0     H48972   5.431   2.176  11.808  5.0205  2.2168  0.4743
  363MOL0     H48973   5.372   2.354  11.644  1.1179  2.2432 -0.7634
  363MOL0     H48974   5.324   2.464  11.774  2.0417  1.3129  0.0776
  363MOL0     H48975   5.593   2.360  11.682 -1.6181 -1.7886 -0.3008
  363MOL0     H48976   5.572   2.429  11.845  0.7307  0.8863 -1.0711
  363MOL0     H48977   5.464   2.631  11.751 -0.6952 -3.7469  2.7848
  363MOL0     H48978   5.497   2.563  11.592 -1.4986 -2.4679  1.3174
  363MOL0     H48979   5.706   2.661  11.780 -3.4394  2.9724  0.2892
  363MOL0     H48980   5.737   2.581  11.616 -0.5146  1.7979 -2.4254
  363MOL0     H48981   5.624   2.859  11.685  2.3629  3.3743 -1.5442
  363MOL0     H48982   5.588   2.781  11.531 -1.8369 -0.2193  1.5122
  363MOL0     H48983   5.795   2.917  11.513  2.2166 -0.3428 -0.8142
  363MOL0     H48984   5.878   2.807  11.625 -1.2687  1.2324  1.3199
  363MOL0     H48985   4.952   2.185  11.971  2.4735 -1.7728  2.7040
  363MOL0     H48986   4.756   2.007  11.881 -0.4953 -4.2555  1.7227
  363MOL0     H48987   4.841   1.386  11.792 -0.4927  0.2457  0.1523
  363MOL0     H48988   4.669   1.221  11.693  1.3778  0.0575 -0.2608
  363MOL0     H48989   3.576   1.539  10.017  0.1636  1.9377  0.6039
  363MOL0     H48990   3.589   1.544   9.767 -0.1464  1.6428  0.1666
  363MOL0     H48991   3.992   1.612   9.452  1.8801 -0.3930 -0.1413
  363MOL0     H48992   4.082   1.588   9.224 -0.2565 -0.5051 -1.2969
  363MOL0     H48993   3.832   1.438   8.913 -0.5741  0.3553 -1.1587
  363MOL0     H48994   3.899   1.285   8.961 -1.4607 -0.3749 -0.0276
  363MOL0     H48995   4.112   1.346   8.837  0.1699 -0.4060 -1.1639
  363MOL0     H48996   4.034   1.496   8.785  0.3123 -0.6555 -0.6252
  363MOL0     H48997   3.857   1.322   8.702 -0.1787 -0.6103  0.4475
  363MOL0     H48998   3.987   1.205   8.685  0.7432  0.0859 -1.0672
  363MOL0     H48999   4.004   1.318   8.480  1.8125  1.4016 -1.5625
  363MOL0     H49000   4.011   1.476   8.535 -0.8168 -0.7524 -2.0547
  363MOL0     H49001   4.406   1.301   8.594  0.9212  0.3223 -1.8700
  363MOL0     H49002   3.787   1.296   9.130  1.4311 -1.3601  0.3497
  363MOL0     H49003   3.653   1.270   9.474 -0.5522  1.9200 -0.0022
  363MOL0     H49004   3.609   1.250   9.319 -0.9789 -0.2386  0.0061
  363MOL0     H49005   3.732   1.144   9.373  3.2550  0.4762 -1.2725
  364MOL0     O49006  11.298   6.943  11.102  0.3333 -0.2829 -0.6032
  364MOL0     C49007  11.254   6.876  11.010  0.3698 -0.0958 -0.1050
  364MOL0     O49008  11.257   6.739  11.017 -0.1463  0.5803  0.2764
  364MOL0     C49009  11.363   6.673  11.073  0.3248  0.1758 -0.2383
  364MOL0     C49010  11.428   6.702  11.193 -0.3252  0.2925 -0.0340
  364MOL0     C49011  11.535   6.615  11.230  0.4826 -0.0481  0.1318
  364MOL0     C49012  11.566   6.501  11.152 -0.7302  0.4686 -0.0960
  364MOL0     O49013  11.655   6.408  11.184  0.6812 -0.0227  0.2366
  364MOL0     C49014  11.701   6.386  11.320  0.3245 -0.7853  0.0607
  364MOL0     C49015  11.820   6.293  11.330  0.4462  0.5821 -0.0208
  364MOL0     C49016  11.834   6.243  11.474 -0.0886  1.0292  1.4019
  364MOL0     C49017  11.948   6.142  11.473 -0.0382 -0.5759  0.1280
  364MOL0     C49018  11.985   6.102  11.613  0.3922  0.3545 -0.2331
  364MOL0     C49019  12.110   6.024  11.632 -0.2501 -0.3082 -0.2158
  364MOL0     C49020  12.082   5.872  11.646  0.0178  0.1549 -0.3577
  364MOL0     C49021  12.220   5.788  11.649  0.5883 -0.0697 -0.3485
  364MOL0     N49022  12.304   5.797  11.770 -0.1080  0.3343 -0.5497
  364MOL0     C49023  12.440   5.833  11.762  0.7536  0.3185  0.8556
  364MOL0     C49024  12.505   5.778  11.867  0.3288  0.1890 -0.3194
  364MOL0     C49025  12.652   5.810  11.887  0.5601  0.2802  0.4043
  364MOL0     C49026  12.677   5.823  12.039 -0.2031 -0.0546  0.2560
  364MOL0     C49027  12.647   5.683  12.112  0.7755 -0.1144 -0.5693
  364MOL0     C49028  12.732   5.684  12.241  0.7546  0.2073  0.3165
  364MOL0     O49029  12.746   5.812  12.306  0.3746 -0.1455  0.5343
  364MOL0     C49030  12.834   5.813  12.411  0.0937  0.4823 -0.0410
  364MOL0     C49031  12.943   5.895  12.389  0.9532  0.3538  0.4554
  364MOL0     C49032  13.035   5.898  12.487 -0.7603  0.4284 -0.1939
  364MOL0     C49033  13.024   5.821  12.605  0.2872  0.0869  1.2618
  364MOL0     C49034  13.133   5.813  12.701  0.3320 -0.1312 -0.9526
  364MOL0     O49035  13.260   5.840  12.671 -0.0917 -0.4044  0.9990
  364MOL0     C49036  13.359   5.833  12.767 -0.0881 -0.0182  0.7039
  364MOL0     C49037  13.340   5.864  12.907 -0.4132 -0.0724  0.5884
  364MOL0     C49038  13.459   5.842  12.986 -0.2035  0.9054 -0.3248
  364MOL0     C49039  13.586   5.814  12.929 -0.1402 -0.1595  0.3234
  364MOL0     O49040  13.696   5.788  12.995 -0.2598 -0.5293 -0.4806
  364MOL0     C49041  13.695   5.814  13.137 -0.4886 -0.6750 -0.7173
  364MOL0     C49042  13.831   5.803  13.202 -0.1021 -0.0489  0.6219
  364MOL0     C49043  13.891   5.659  13.180 -0.2783  0.1657 -0.0970
  364MOL0     C49044  14.008   5.656  13.282 -0.7696 -0.2019 -0.0207
  364MOL0     C49045  14.089   5.524  13.259  0.3326 -0.1701  0.1411
  364MOL0     C49046  14.223   5.499  13.316  0.2928 -0.6883  0.8726
  364MOL0     C49047  14.282   5.357  13.293  0.1634 -1.1086 -0.3092
  364MOL0     C49048  14.399   5.331  13.388  0.6656 -0.6847  0.2051
  364MOL0    Cl49049  14.572   5.355  13.321 -0.0786  0.1557  0.2939
  364MOL0     C49050  13.591   5.803  12.795  0.0021 -0.0767 -0.7515
  364MOL0     C49051  13.484   5.816  12.709 -0.8061  0.0131  0.1497
  364MOL0     O49052  13.103   5.763  12.807 -0.4820  0.3278  0.2790
  364MOL0     C49053  12.908   5.737  12.621 -0.5391 -0.4526 -0.6251
  364MOL0     C49054  12.811   5.738  12.524  0.0031  0.2803  0.8248
  364MOL0     N49055  12.414   5.698  11.935  0.4535  0.1401 -0.3066
  364MOL0     N49056  12.290   5.720  11.887  0.8653  0.3844 -0.5914
  364MOL0     C49057  11.495   6.474  11.039  0.7721 -0.7269  0.4157
  364MOL0     C49058  11.396   6.562  10.994 -0.2009  0.4305  0.6656
  364MOL0     C49059  11.167   6.954  10.907  1.0257  0.4777 -0.3062
  364MOL0     C49060  11.068   6.884  10.846 -0.8839  0.2761 -0.4247
  364MOL0     C49061  11.005   6.936  10.732  0.0655  0.0233  0.7395
  364MOL0     C49062  11.046   7.057  10.668  0.7420 -0.7188  0.0703
  364MOL0     O49063  10.973   7.106  10.566  0.5633  0.4705  0.2445
  364MOL0     C49064  11.022   7.222  10.494 -0.4269  0.0879 -0.3176
  364MOL0     C49065  11.166   7.199  10.444  0.8822 -0.2935 -0.7105
  364MOL0     C49066  11.206   7.306  10.340 -0.4518  0.1178  0.0043
  364MOL0     C49067  11.196   7.444  10.392  1.3989  0.0659 -0.7255
  364MOL0     C49068  11.277   7.469  10.503  0.4570 -0.6871  0.0151
  364MOL0     C49069  11.357   7.494  10.584 -0.0506 -0.8949  0.2554
  364MOL0     C49070  11.134   7.137  10.747  0.1023  0.1362  0.4948
  364MOL0     C49071  11.193   7.085  10.863  0.5302 -0.0494 -0.2331
  364MOL0     C49072  11.299   7.176  10.932  0.0339  0.0209  0.4717
  364MOL0     H49073  11.393   6.780  11.260 -2.6798 -0.5295 -0.2334
  364MOL0     H49074  11.590   6.640  11.320  0.1058  5.1456 -0.7652
  364MOL0     H49075  11.726   6.482  11.368  0.3957 -0.7454 -0.0561
  364MOL0     H49076  11.623   6.344  11.383 -1.4391  0.9533 -0.8441
  364MOL0     H49077  11.906   6.343  11.285 -0.5950  2.4729 -0.0362
  364MOL0     H49078  11.796   6.213  11.259 -1.2273  1.0397 -0.0171
  364MOL0     H49079  11.747   6.188  11.510 -1.2071 -0.5418 -2.9530
  364MOL0     H49080  11.852   6.329  11.539  1.3249 -0.8869  3.7115
  364MOL0     H49081  11.931   6.050  11.416 -1.0670 -0.8392  0.8328
  364MOL0     H49082  12.038   6.196  11.440 -0.6446 -0.5604 -1.6268
  364MOL0     H49083  11.985   6.192  11.676  2.1599 -0.8883  1.6732
  364MOL0     H49084  11.895   6.045  11.639 -0.8966  2.6233  0.5867
  364MOL0     H49085  12.184   6.048  11.556 -0.8262 -0.3959 -0.8119
  364MOL0     H49086  12.152   6.065  11.724 -0.9111  2.5417 -1.0803
  364MOL0     H49087  12.024   5.842  11.558 -0.0632  0.5251 -0.4341
  364MOL0     H49088  12.024   5.856  11.737  0.8994  2.2935  0.6603
  364MOL0     H49089  12.204   5.680  11.642  3.7769 -0.8623  2.2974
  364MOL0     H49090  12.274   5.817  11.558  1.9585  1.5722  0.9226
  364MOL0     H49091  12.480   5.900  11.687 -2.6161  1.6477  0.0191
  364MOL0     H49092  12.717   5.727  11.859  1.5191  0.1185  2.8231
  364MOL0     H49093  12.676   5.904  11.836  2.9888 -1.1769 -1.3171
  364MOL0     H49094  12.784   5.831  12.059 -0.2180 -0.4315  0.4965
  364MOL0     H49095  12.620   5.911  12.071  1.3401  0.1924  2.5566
  364MOL0     H49096  12.676   5.596  12.053 -0.1271 -1.7006  1.1966
  364MOL0     H49097  12.546   5.682  12.154  1.5038 -1.6775  1.2621
  364MOL0     H49098  12.836   5.653  12.225  0.6066 -1.0088  1.5459
  364MOL0     H49099  12.690   5.619  12.318 -2.4810  2.9756  1.1217
  364MOL0     H49100  12.953   5.954  12.298 -1.2487  2.1138  1.2668
  364MOL0     H49101  13.122   5.960  12.473 -0.8488  0.5717 -0.1140
  364MOL0     H49102  13.250   5.905  12.952 -1.9857 -1.0438 -1.4896
  364MOL0     H49103  13.458   5.857  13.093 -0.4517 -2.0010  0.1762
  364MOL0     H49104  13.667   5.919  13.153  3.4052  0.0226  3.7688
  364MOL0     H49105  13.629   5.748  13.194  0.0147  0.8428  1.7672
  364MOL0     H49106  13.899   5.878  13.160 -0.7207 -1.3837 -3.1495
  364MOL0     H49107  13.833   5.825  13.309 -0.5362  1.2424  0.3817
  364MOL0     H49108  13.822   5.575  13.190  0.1464 -0.3425 -1.2382
  364MOL0     H49109  13.936   5.654  13.080  3.0457  0.3569  1.2726
  364MOL0     H49110  13.965   5.653  13.382 -0.7710  0.1814 -0.0062
  364MOL0     H49111  14.079   5.739  13.268  0.5800 -1.0440  1.5436
  364MOL0     H49112  14.094   5.499  13.153  2.2518 -1.9864  0.6031
  364MOL0     H49113  14.015   5.457  13.304 -0.4698  2.0027  2.2643
  364MOL0     H49114  14.297   5.557  13.261 -1.0350 -0.2119 -0.4464
  364MOL0     H49115  14.219   5.522  13.423 -1.9539  0.0003  0.6919
  364MOL0     H49116  14.311   5.327  13.192  0.0898  0.9739 -1.0118
  364MOL0     H49117  14.206   5.286  13.325 -1.0511  0.9770  1.7767
  364MOL0     H49118  14.391   5.395  13.476  2.4801 -1.2150  0.7865
  364MOL0     H49119  14.385   5.233  13.435 -4.1391  0.3799  1.5062
  364MOL0     H49120  13.683   5.779  12.742  2.6550 -2.1251  4.1446
  364MOL0     H49121  13.494   5.818  12.601 -2.7009 -0.4812 -0.0688
  364MOL0     H49122  12.894   5.693  12.719  0.3362  1.2383  0.2891
  364MOL0     H49123  12.717   5.687  12.542  0.1330 -0.0650  0.5373
  364MOL0     H49124  11.512   6.381  10.985 -0.4762  1.0055 -3.3417
  364MOL0     H49125  11.348   6.537  10.900  0.9778  0.4251  0.0474
  364MOL0     H49126  11.033   6.787  10.881  0.5221 -0.2058 -0.2976
  364MOL0     H49127  10.925   6.878  10.687  1.6034 -1.0617 -0.7860
  364MOL0     H49128  11.029   7.305  10.566  0.7254  0.8875 -1.3142
  364MOL0     H49129  10.953   7.254  10.415  0.0095  0.8762 -0.3845
  364MOL0     H49130  11.158   7.103  10.393 -0.5485 -0.1089 -0.8710
  364MOL0     H49131  11.230   7.195  10.533  1.6650 -0.9702 -1.2943
  364MOL0     H49132  11.142   7.298  10.251 -0.5479  0.6656  0.0182
  364MOL0     H49133  11.308   7.293  10.302 -1.0091 -0.8159 -1.2479
  364MOL0     H49134  11.211   7.516  10.311  0.6128  3.1401  1.6848
  364MOL0     H49135  11.099   7.467  10.438  1.7222  2.5717 -1.1864
  364MOL0     H49136  11.433   7.519  10.656 -0.2579 -2.8129  1.2211
  364MOL0     H49137  11.163   7.237  10.715 -1.3499 -0.0133 -1.4271
  364MOL0     H49138  11.278   7.192  11.038  3.8325  1.2455  1.2050
  364MOL0     H49139  11.397   7.127  10.931 -0.2495 -0.5612  0.0257
  364MOL0     H49140  11.313   7.273  10.884 -2.4072  1.6637  2.7972
  365MOL0     O49141  10.555  10.166   8.923 -0.0791 -0.7055 -0.1761
  365MOL0     C49142  10.477  10.177   8.836  0.1949  0.6710 -0.3438
  365MOL0     O49143  10.486  10.254   8.719  0.1045 -0.5628  0.1812
  365MOL0     C49144  10.590  10.339   8.702 -1.0926 -0.9325 -0.6990
  365MOL0     C49145  10.566  10.473   8.681  0.0492 -0.0745  0.3527
  365MOL0     C49146  10.676  10.561   8.671  0.1671 -0.0313 -1.8869
  365MOL0     C49147  10.811  10.521   8.679  0.7521  0.7414  0.1422
  365MOL0     O49148  10.915  10.612   8.648  0.2901  0.1042 -0.6604
  365MOL0     C49149  11.055  10.565   8.667  0.2769 -0.1223  0.7071
  365MOL0     C49150  11.133  10.656   8.766  1.0654  0.0544  0.4064
  365MOL0     C49151  11.277  10.611   8.770  0.9540  0.0959 -0.8036
  365MOL0     C49152  11.371  10.713   8.835  0.7070 -0.3299 -0.1210
  365MOL0     C49153  11.518  10.663   8.846  0.0088  0.0477 -0.3493
  365MOL0     C49154  11.612  10.748   8.933  0.0396 -0.6872  0.3251
  365MOL0     C49155  11.754  10.683   8.951 -0.5007 -0.0074  0.6558
  365MOL0     C49156  11.858  10.779   9.016 -0.0539  0.2269  1.1113
  365MOL0     N49157  11.992  10.727   9.009 -0.4457  0.9394 -0.6546
  365MOL0     C49158  12.081  10.721   9.117 -0.2212  0.1818 -0.4262
  365MOL0     C49159  12.188  10.661   9.065  0.1418 -0.1514 -0.5590
  365MOL0     C49160  12.327  10.658   9.129 -0.1981 -0.7871  0.1688
  365MOL0     C49161  12.431  10.726   9.036 -0.3030 -0.5646 -0.0573
  365MOL0     C49162  12.478  10.618   8.940 -1.2261  0.0612  0.2232
  365MOL0     C49163  12.585  10.666   8.842  0.2382 -0.2216  0.3040
  365MOL0     O49164  12.690  10.723   8.915 -0.4996 -0.0054  0.2829
  365MOL0     C49165  12.821  10.700   8.875 -0.1363 -0.5916  0.0964
  365MOL0     C49166  12.877  10.574   8.865  0.2031  0.3146  0.1368
  365MOL0     C49167  13.013  10.559   8.845 -0.5000  0.5624  0.1556
  365MOL0     C49168  13.098  10.672   8.845  0.9105 -0.1794  0.3146
  365MOL0     C49169  13.248  10.667   8.828  0.3256 -0.5939  0.2584
  365MOL0     O49170  13.296  10.555   8.775 -0.0921  0.7963 -0.2547
  365MOL0     C49171  13.434  10.526   8.773 -0.7622  0.1179  0.0446
  365MOL0     C49172  13.505  10.524   8.891 -0.0537 -0.0978 -0.0690
  365MOL0     C49173  13.637  10.494   8.906  0.1597  0.1268  0.3646
  365MOL0     C49174  13.712  10.470   8.784  0.3314 -0.2912  1.2911
  365MOL0     O49175  13.844  10.455   8.797 -0.5724 -0.2782  0.5988
  365MOL0     C49176  13.932  10.437   8.689  1.2856 -0.3478 -0.2935
  365MOL0     C49177  14.054  10.360   8.735 -0.6956  0.6450  0.4589
  365MOL0     C49178  14.154  10.334   8.621  0.4452  0.0518  0.4264
  365MOL0     C49179  14.296  10.316   8.686  0.4152 -0.6938 -0.1225
  365MOL0     C49180  14.401  10.287   8.576  0.0685 -0.7902  0.3556
  365MOL0     C49181  14.539  10.248   8.648 -1.0316  0.1943 -0.2234
  365MOL0     C49182  14.591  10.328   8.770 -1.0820  0.2300 -0.6342
  365MOL0     C49183  14.728  10.303   8.823 -0.3146 -0.0523 -0.5035
  365MOL0    Cl49184  14.744  10.159   8.916 -0.3984 -0.0852 -0.2379
  365MOL0     C49185  13.637  10.478   8.657  0.7248  0.1672 -0.3075
  365MOL0     C49186  13.502  10.500   8.656 -0.0951  0.9833  0.3762
  365MOL0     O49187  13.310  10.774   8.841 -0.7067  0.5218  0.6251
  365MOL0     C49188  13.044  10.800   8.869 -0.8618  0.2091 -0.8325
  365MOL0     C49189  12.900  10.815   8.885  0.2681 -0.6184  0.2554
  365MOL0     N49190  12.158  10.631   8.931  0.3594  0.5567  0.2350
  365MOL0     N49191  12.043  10.683   8.895 -0.3235  0.5189  0.5064
  365MOL0     C49192  10.830  10.383   8.693  0.2975  0.7646 -0.7686
  365MOL0     C49193  10.720  10.300   8.709  0.7694  0.6503  0.3382
  365MOL0     C49194  10.370  10.068   8.817 -0.7616 -0.1554 -0.7668
  365MOL0     C49195  10.239  10.112   8.808  0.0771 -0.5133  0.2184
  365MOL0     C49196  10.133  10.027   8.777 -0.0173  0.2282  0.4523
  365MOL0     C49197  10.150   9.891   8.759 -1.0426 -0.7181 -0.5529
  365MOL0     O49198  10.044   9.820   8.716  0.8090 -0.5280  0.4583
  365MOL0     C49199   9.974   9.750   8.816 -0.8194 -0.8562 -0.1396
  365MOL0     C49200   9.836   9.813   8.827 -1.8056 -0.1084 -0.2723
  365MOL0     C49201   9.755   9.739   8.925 -0.4772  0.6109 -0.0297
  365MOL0     C49202   9.691   9.614   8.854  0.3678  0.0398 -0.5458
  365MOL0     C49203   9.586   9.565   8.946 -0.5447 -0.2669  0.3720
  365MOL0     C49204   9.488   9.516   9.001 -0.8840 -0.0859 -0.2842
  365MOL0     C49205  10.280   9.848   8.790 -0.9092  0.6708  0.1111
  365MOL0     C49206  10.390   9.931   8.824  0.0288 -0.3566  0.1050
  365MOL0     C49207  10.525   9.876   8.854 -0.3175 -0.3203 -0.1252
  365MOL0     H49208  10.467  10.518   8.686 -0.4786 -1.3155  1.9437
  365MOL0     H49209  10.664  10.669   8.680  0.5038 -0.1476  0.6116
  365MOL0     H49210  11.068  10.465   8.709 -0.7514 -0.2651  0.7161
  365MOL0     H49211  11.097  10.561   8.566 -2.7295  3.5767 -0.9433
  365MOL0     H49212  11.092  10.634   8.864  0.9528  0.7618  0.5198
  365MOL0     H49213  11.126  10.762   8.739  3.0319  0.8027  2.5063
  365MOL0     H49214  11.315  10.591   8.669 -0.8730  1.1632 -1.7658
  365MOL0     H49215  11.289  10.524   8.834  0.3748  0.4199 -0.2342
  365MOL0     H49216  11.376  10.802   8.772  2.9793 -0.0876  0.3130
  365MOL0     H49217  11.316  10.729   8.929 -0.7817 -0.8628 -0.8791
  365MOL0     H49218  11.516  10.559   8.879  0.4401 -0.1213 -0.8483
  365MOL0     H49219  11.550  10.669   8.741 -1.4809 -1.2369 -0.9186
  365MOL0     H49220  11.618  10.844   8.881 -2.4402 -1.0837 -0.8377
  365MOL0     H49221  11.563  10.761   9.030  0.1166  0.3813  0.2310
  365MOL0     H49222  11.784  10.644   8.854  0.5766 -2.5000  1.8953
  365MOL0     H49223  11.732  10.588   9.001 -0.5933 -1.9785 -2.8702
  365MOL0     H49224  11.857  10.869   8.954  1.1888  0.1798  0.9917
  365MOL0     H49225  11.837  10.809   9.120 -2.3664  0.8307  0.5232
  365MOL0     H49226  12.079  10.772   9.213 -1.5939 -0.2063 -0.2293
  365MOL0     H49227  12.322  10.716   9.221 -3.0410 -1.7102  0.7232
  365MOL0     H49228  12.365  10.556   9.143  2.6689 -0.4669 -3.7558
  365MOL0     H49229  12.398  10.822   8.995  0.0676  1.5745  4.1202
  365MOL0     H49230  12.512  10.757   9.102 -1.3281 -0.3767  1.1542
  365MOL0     H49231  12.398  10.582   8.874  0.3325 -1.0133 -1.1727
  365MOL0     H49232  12.518  10.534   8.997 -1.0844 -1.3124 -1.7984
  365MOL0     H49233  12.556  10.741   8.768  0.8373  0.1162  0.4044
  365MOL0     H49234  12.619  10.578   8.787 -4.0581 -1.2622 -1.0271
  365MOL0     H49235  12.823  10.483   8.890  2.9350 -1.9918 -1.6942
  365MOL0     H49236  13.051  10.460   8.824 -1.8158 -0.6509  2.9372
  365MOL0     H49237  13.455  10.548   8.984 -0.9173  1.9604 -1.0228
  365MOL0     H49238  13.690  10.490   9.001  0.5371 -0.1965  0.1465
  365MOL0     H49239  13.888  10.398   8.597  0.6364  0.0764 -0.1706
  365MOL0     H49240  13.966  10.538   8.664  1.0245 -0.9518 -3.4215
  365MOL0     H49241  14.098  10.423   8.813 -0.1542  1.8874 -0.8046
  365MOL0     H49242  14.035  10.263   8.782 -1.0864  1.2281  1.5406
  365MOL0     H49243  14.115  10.251   8.561 -1.7837 -0.2625  2.1835
  365MOL0     H49244  14.165  10.421   8.556  0.6746  2.1676  3.1347
  365MOL0     H49245  14.287  10.236   8.760 -1.6177 -0.7497 -0.3989
  365MOL0     H49246  14.333  10.404   8.741 -2.7687  0.1730  0.8303
  365MOL0     H49247  14.417  10.367   8.503  0.7507 -2.4120 -1.3621
  365MOL0     H49248  14.373  10.201   8.514 -2.6760 -0.2448  0.6819
  365MOL0     H49249  14.538  10.143   8.679 -0.7673  0.3911  0.4732
  365MOL0     H49250  14.621  10.269   8.579  1.4964 -0.3921  2.4128
  365MOL0     H49251  14.526  10.316   8.858  1.5818 -3.1071  1.1686
  365MOL0     H49252  14.583  10.433   8.742 -5.0299 -0.7653 -4.5059
  365MOL0     H49253  14.794  10.303   8.736  0.1680  2.8508 -0.2489
  365MOL0     H49254  14.771  10.379   8.889  0.1174 -0.3787 -0.4117
  365MOL0     H49255  13.686  10.460   8.561  0.3182  1.7663 -0.8478
  365MOL0     H49256  13.451  10.521   8.562 -1.0217  1.0024  0.8760
  365MOL0     H49257  13.102  10.892   8.865  0.1354 -0.2293  1.6465
  365MOL0     H49258  12.850  10.908   8.911 -2.6785 -1.4595 -1.8619
  365MOL0     H49259  10.923  10.329   8.708 -0.0945  0.5924  1.4869
  365MOL0     H49260  10.742  10.199   8.741  0.1645  0.6450  0.7589
  365MOL0     H49261  10.216  10.218   8.808  0.7433 -0.3240 -1.4883
  365MOL0     H49262  10.031  10.060   8.762  0.2964  0.0545 -2.8985
  365MOL0     H49263  10.031   9.757   8.909 -0.5368  0.6781 -0.3952
  365MOL0     H49264   9.975   9.647   8.778  0.7620  0.0987 -3.0370
  365MOL0     H49265   9.781   9.810   8.732 -0.7213 -2.6190 -0.9169
  365MOL0     H49266   9.851   9.915   8.863  2.0214 -0.5607 -0.1549
  365MOL0     H49267   9.674   9.807   8.949  0.0760  0.2659  3.1875
  365MOL0     H49268   9.810   9.710   9.015  0.5830  1.5267 -0.3654
  365MOL0     H49269   9.680   9.625   8.746  2.7638 -2.6964 -1.1917
  365MOL0     H49270   9.768   9.536   8.851  0.1967 -0.1901  0.5373
  365MOL0     H49271   9.414   9.478   9.069 -1.1690 -0.5964 -0.8688
  365MOL0     H49272  10.298   9.741   8.794  1.6045  1.0525  0.3032
  365MOL0     H49273  10.600   9.911   8.783  0.0373  0.3532  0.5660
  365MOL0     H49274  10.562   9.910   8.951 -0.6680  5.0597 -1.5666
  365MOL0     H49275  10.520   9.767   8.844 -0.5244 -0.3778  0.5771
  366MOL0     O49276   7.451   1.427   8.305  0.5946  0.3636 -0.4122
  366MOL0     C49277   7.499   1.491   8.219 -0.1798 -0.1442  0.9710
  366MOL0     O49278   7.589   1.591   8.229  0.0433  0.1752 -0.4578
  366MOL0     C49279   7.624   1.659   8.344  0.1832  0.1262  0.5688
  366MOL0     C49280   7.535   1.688   8.455  0.2509  0.6826  0.6594
  366MOL0     C49281   7.588   1.772   8.549  0.2333  0.4364 -0.1433
  366MOL0     C49282   7.718   1.821   8.546 -1.3488 -0.4781 -0.0029
  366MOL0     O49283   7.775   1.898   8.641  0.2452 -0.0312 -0.0490
  366MOL0     C49284   7.682   1.965   8.729 -0.8560 -0.5533 -0.8327
  366MOL0     C49285   7.755   2.082   8.795  1.1673 -0.7599  0.0292
  366MOL0     C49286   7.679   2.142   8.919 -0.1400  0.4890  0.3837
  366MOL0     C49287   7.677   2.038   9.027  0.4452  0.3991 -0.5028
  366MOL0     C49288   7.648   2.091   9.163 -0.9745 -0.9475 -0.4624
  366MOL0     C49289   7.663   1.990   9.285  0.3281  1.1100 -0.4240
  366MOL0     C49290   7.791   1.900   9.285  0.0180 -1.6291 -0.5977
  366MOL0     C49291   7.816   1.806   9.400 -1.1298  0.0689 -0.3043
  366MOL0     N49292   7.737   1.687   9.404  0.1365  0.4513  0.3843
  366MOL0     C49293   7.598   1.693   9.418 -0.3892  0.8615  0.2217
  366MOL0     C49294   7.571   1.560   9.424  0.9681 -0.3919 -0.4507
  366MOL0     C49295   7.438   1.505   9.463  1.0145  0.5648  0.1630
  366MOL0     C49296   7.436   1.464   9.607 -0.3398 -0.2365  0.3428
  366MOL0     C49297   7.406   1.596   9.689 -0.2059  0.7510 -0.1458
  366MOL0     C49298   7.372   1.570   9.831 -1.1480  0.0110 -0.6094
  366MOL0     O49299   7.445   1.460   9.886 -0.5975 -0.0612 -0.3398
  366MOL0     C49300   7.564   1.494   9.958  0.0110  0.0257 -0.1988
  366MOL0     C49301   7.614   1.403  10.049  0.0509 -0.1027 -0.8564
  366MOL0     C49302   7.725   1.429  10.120 -0.1200 -0.7169 -0.0516
  366MOL0     C49303   7.805   1.544  10.096  0.4516 -0.0084 -0.8435
  366MOL0     C49304   7.937   1.558  10.161  0.3932  0.2052  0.2848
  366MOL0     O49305   8.005   1.671  10.117 -0.0675 -0.0851  0.2320
  366MOL0     C49306   8.146   1.693  10.121  0.4993 -0.3167 -0.1610
  366MOL0     C49307   8.188   1.823  10.094 -0.4569  0.6741 -0.4722
  366MOL0     C49308   8.329   1.837  10.078  0.1826 -0.2870 -0.1027
  366MOL0     C49309   8.423   1.731  10.075  0.3325  0.7505 -0.8052
  366MOL0     O49310   8.555   1.743  10.047  0.1545  0.0005  0.1054
  366MOL0     C49311   8.595   1.843   9.958 -0.2768  0.1228 -0.3109
  366MOL0     C49312   8.720   1.811   9.889 -0.1885  0.1358  0.9267
  366MOL0     C49313   8.831   1.748   9.957 -1.2145 -0.7508 -0.7726
  366MOL0     C49314   8.875   1.819  10.077  0.5677  0.1197 -0.4021
  366MOL0     C49315   9.028   1.813  10.110  0.6373 -0.0026 -0.4550
  366MOL0     C49316   9.092   1.675  10.124 -0.1022 -0.0387 -0.1954
  366MOL0     C49317   9.228   1.706  10.180  0.4757  0.6768 -0.2387
  366MOL0     C49318   9.275   1.572  10.240 -0.5210  1.1805 -0.2268
  366MOL0    Cl49319   9.200   1.539  10.397  0.3840  0.0556 -0.0296
  366MOL0     C49320   8.379   1.602  10.107  0.6669  0.5752  0.3306
  366MOL0     C49321   8.240   1.584  10.138  0.5015  0.3335  0.3394
  366MOL0     O49322   7.972   1.467  10.233 -0.6812 -0.5411 -0.0989
  366MOL0     C49323   7.763   1.632  10.002 -0.3220  0.2600  0.7256
  366MOL0     C49324   7.644   1.613   9.928 -0.0669 -0.4193  0.3692
  366MOL0     N49325   7.680   1.477   9.406 -0.6688 -0.5028 -0.1492
  366MOL0     N49326   7.784   1.557   9.397 -0.0472  0.6035  0.2910
  366MOL0     C49327   7.807   1.779   8.438  1.1264  0.1748 -1.0267
  366MOL0     C49328   7.749   1.713   8.327  0.2963  0.1307 -0.2251
  366MOL0     C49329   7.467   1.464   8.069  0.1668 -1.5782 -0.5167
  366MOL0     C49330   7.526   1.546   7.967 -0.5282  0.2825 -0.5540
  366MOL0     C49331   7.488   1.535   7.835  0.1161  0.9488  0.1683
  366MOL0     C49332   7.385   1.444   7.798  1.2442  0.0920  0.1432
  366MOL0     O49333   7.366   1.451   7.666  0.1652  0.9940  0.1107
  366MOL0     C49334   7.238   1.390   7.614 -0.8056  0.5586 -0.8899
  366MOL0     C49335   7.213   1.429   7.474 -1.5516 -0.0489  0.0358
  366MOL0     C49336   7.078   1.383   7.432 -0.8948  0.8597 -0.6768
  366MOL0     C49337   7.067   1.346   7.274 -0.4708 -0.4607 -0.8321
  366MOL0     C49338   7.080   1.463   7.188  0.4002 -0.3555  0.4768
  366MOL0     C49339   7.089   1.551   7.109 -0.5432  0.0102 -0.1284
  366MOL0     C49340   7.329   1.363   7.890 -0.8739  0.5466 -0.4215
  366MOL0     C49341   7.373   1.362   8.018  0.0960 -0.7799 -0.3039
  366MOL0     C49342   7.335   1.249   8.106  0.2377  0.2581 -0.0555
  366MOL0     H49343   7.428   1.671   8.458 -0.0193  1.9029 -0.8463
  366MOL0     H49344   7.518   1.795   8.630 -1.3973 -2.0781 -0.7175
  366MOL0     H49345   7.603   2.005   8.665 -1.9402  0.1090  0.8384
  366MOL0     H49346   7.645   1.902   8.810 -3.5660  0.6042 -1.0574
  366MOL0     H49347   7.785   2.165   8.731  0.2928 -1.4224 -1.2662
  366MOL0     H49348   7.848   2.043   8.837  0.3786 -3.1478 -0.3233
  366MOL0     H49349   7.578   2.181   8.900  0.6810  3.0343  0.8106
  366MOL0     H49350   7.731   2.233   8.950 -1.5816  2.3911 -2.3200
  366MOL0     H49351   7.610   1.954   9.005  2.4453 -1.6045  0.6469
  366MOL0     H49352   7.768   1.979   9.039  1.2910  2.2321  3.7726
  366MOL0     H49353   7.719   2.172   9.182  0.4139 -2.6147  2.1558
  366MOL0     H49354   7.551   2.137   9.184  0.8083  2.0907  2.0388
  366MOL0     H49355   7.665   2.035   9.384  2.1313 -0.4962  0.3477
  366MOL0     H49356   7.574   1.928   9.301  3.0258 -2.6433  1.9578
  366MOL0     H49357   7.867   1.978   9.282 -0.7808 -0.8665 -1.9003
  366MOL0     H49358   7.789   1.837   9.196  0.7260 -2.4226 -0.0610
  366MOL0     H49359   7.920   1.775   9.392 -0.6232  2.0057 -2.2463
  366MOL0     H49360   7.793   1.858   9.494 -5.2311 -2.0668  0.0899
  366MOL0     H49361   7.531   1.778   9.430 -1.9423  0.1085 -2.3625
  366MOL0     H49362   7.363   1.580   9.438  1.1502  0.4769 -0.5315
  366MOL0     H49363   7.417   1.416   9.402  0.2494  1.1228 -0.4050
  366MOL0     H49364   7.350   1.399   9.626 -1.1897 -0.3783 -3.2515
  366MOL0     H49365   7.535   1.427   9.633  0.1925 -2.8936 -4.4170
  366MOL0     H49366   7.321   1.646   9.642  1.2348  3.3303 -0.1680
  366MOL0     H49367   7.483   1.672   9.674 -0.5477  0.8636 -1.5529
  366MOL0     H49368   7.264   1.556   9.842 -0.7671 -1.4379  2.1909
  366MOL0     H49369   7.386   1.672   9.870  1.4653 -0.0300 -1.2950
  366MOL0     H49370   7.562   1.309  10.060 -1.2781  0.6413 -0.5610
  366MOL0     H49371   7.751   1.349  10.189  0.8849  0.6461  1.2199
  366MOL0     H49372   8.113   1.897  10.066 -2.2810 -0.9560 -0.0877
  366MOL0     H49373   8.367   1.937  10.060 -1.1116  0.4775  1.2264
  366MOL0     H49374   8.526   1.876   9.880 -1.1127 -1.1116 -0.1105
  366MOL0     H49375   8.628   1.931  10.015  1.4399 -0.9853  0.4996
  366MOL0     H49376   8.697   1.742   9.807  1.3706 -0.9990  1.3968
  366MOL0     H49377   8.762   1.900   9.842 -0.9987  0.4026  0.6821
  366MOL0     H49378   8.803   1.647   9.989  0.7476 -0.7476  1.1528
  366MOL0     H49379   8.922   1.742   9.897 -2.4122 -1.2476 -2.6328
  366MOL0     H49380   8.824   1.788  10.169 -0.1830  0.9351 -0.5205
  366MOL0     H49381   8.850   1.926  10.073  2.7016  0.7179  0.7566
  366MOL0     H49382   9.041   1.866  10.205  1.3138  0.5630 -0.8563
  366MOL0     H49383   9.086   1.868  10.036  0.0778 -0.6154 -1.3801
  366MOL0     H49384   9.035   1.612  10.194 -0.4326  2.9462  2.4228
  366MOL0     H49385   9.095   1.623  10.027 -0.2444 -1.5538  0.5817
  366MOL0     H49386   9.237   1.789  10.250  1.3838  0.6964 -0.3659
  366MOL0     H49387   9.290   1.735  10.094  3.9193 -1.7209  1.2199
  366MOL0     H49388   9.246   1.497  10.166 -2.5320  1.9192 -0.2392
  366MOL0     H49389   9.382   1.588  10.258 -0.6213  0.6197  1.0012
  366MOL0     H49390   8.459   1.532  10.126 -1.5931 -2.3434 -0.2542
  366MOL0     H49391   8.201   1.486  10.165  1.6656 -0.4040 -0.5959
  366MOL0     H49392   7.822   1.721   9.979 -1.3722  0.5425 -1.0442
  366MOL0     H49393   7.603   1.686   9.860 -2.0239 -0.7908  1.0965
  366MOL0     H49394   7.907   1.819   8.445  1.3852 -0.7035  0.9030
  366MOL0     H49395   7.794   1.687   8.231 -2.3738 -1.7258 -1.0896
  366MOL0     H49396   7.616   1.605   7.972 -1.2078  1.4168 -1.3106
  366MOL0     H49397   7.533   1.591   7.753 -1.2292  0.9610 -0.5893
  366MOL0     H49398   7.152   1.433   7.666 -1.2650  0.1042 -1.2753
  366MOL0     H49399   7.226   1.282   7.622 -0.0258  0.5235  0.0136
  366MOL0     H49400   7.291   1.392   7.406 -2.5361  0.8575 -1.6499
  366MOL0     H49401   7.209   1.538   7.461 -0.4075 -0.2016 -1.9427
  366MOL0     H49402   7.006   1.459   7.462 -1.1493  0.5453 -0.4862
  366MOL0     H49403   7.065   1.286   7.480  2.3867  0.2118 -0.8395
  366MOL0     H49404   7.148   1.278   7.247  1.7120  0.7362  2.0729
  366MOL0     H49405   6.976   1.287   7.258 -0.5069 -0.5752 -0.2191
  366MOL0     H49406   7.100   1.620   7.028  0.1699 -1.1564 -1.0580
  366MOL0     H49407   7.249   1.297   7.858 -1.5675  1.2371 -0.1761
  366MOL0     H49408   7.274   1.283   8.190  0.0647  1.4874 -0.6722
  366MOL0     H49409   7.279   1.170   8.055  0.1597 -0.5694  1.2385
  366MOL0     H49410   7.421   1.192   8.142  0.3956 -0.7227 -1.8737
  367MOL0     O49411   4.476   6.320   4.804  0.5881 -0.1240 -0.0241
  367MOL0     C49412   4.466   6.378   4.701 -0.4343 -0.6718  0.1980
  367MOL0     O49413   4.512   6.506   4.679 -0.3616 -0.4211 -1.2185
  367MOL0     C49414   4.573   6.569   4.792  0.7928 -0.7159 -0.7887
  367MOL0     C49415   4.699   6.533   4.825 -0.4928  0.2741 -0.3625
  367MOL0     C49416   4.757   6.592   4.939 -1.0887  0.1201  0.0805
  367MOL0     C49417   4.689   6.685   5.014  0.4050 -1.1204 -0.9308
  367MOL0     O49418   4.751   6.745   5.127 -0.5101 -0.0382  0.9767
  367MOL0     C49419   4.682   6.792   5.245  0.6775 -0.2131 -0.0526
  367MOL0     C49420   4.781   6.858   5.340 -0.2042  0.0373  0.4398
  367MOL0     C49421   4.862   6.981   5.282 -0.4298 -0.1379 -0.3250
  367MOL0     C49422   4.914   7.066   5.395  0.2042 -0.8325  0.8695
  367MOL0     C49423   4.967   7.206   5.349 -0.1645  0.2050 -0.5403
  367MOL0     C49424   5.032   7.288   5.468  0.5906 -0.1406  0.8221
  367MOL0     C49425   5.085   7.426   5.408  0.7647  1.2637  0.0295
  367MOL0     C49426   5.232   7.430   5.389  0.3401  0.6148  0.5601
  367MOL0     N49427   5.312   7.418   5.514  0.3979  0.4200  0.0279
  367MOL0     C49428   5.423   7.346   5.550  0.3268  0.9139 -0.0839
  367MOL0     C49429   5.452   7.389   5.677  0.2458  0.0886  1.0370
  367MOL0     C49430   5.568   7.349   5.762  0.5234  1.2715 -0.3378
  367MOL0     C49431   5.687   7.423   5.722  0.3173  0.8760  0.7870
  367MOL0     C49432   5.774   7.356   5.609  0.5129  0.4805 -0.4312
  367MOL0     C49433   5.910   7.421   5.588  0.2740 -0.3327  0.6041
  367MOL0     O49434   5.883   7.553   5.547 -0.4589  0.3235  0.4930
  367MOL0     C49435   6.000   7.597   5.482 -1.1375 -0.0193  0.5908
  367MOL0     C49436   5.993   7.651   5.355  0.7165  0.9662 -0.1681
  367MOL0     C49437   6.111   7.691   5.290  0.6093 -0.5316 -0.6487
  367MOL0     C49438   6.229   7.701   5.357 -1.0348  0.0461  0.1244
  367MOL0     C49439   6.358   7.745   5.291  0.2090 -0.3575 -0.2885
  367MOL0     O49440   6.351   7.785   5.166  0.7619 -0.5483  0.6800
  367MOL0     C49441   6.485   7.819   5.126 -0.0091 -0.7522 -0.5711
  367MOL0     C49442   6.506   7.956   5.109 -0.4562 -0.2147  1.4992
  367MOL0     C49443   6.637   7.996   5.055  0.4406 -0.7456  0.4155
  367MOL0     C49444   6.732   7.896   5.025  1.0372 -0.2740  0.5241
  367MOL0     O49445   6.857   7.918   4.965  0.3254 -0.1742 -0.1362
  367MOL0     C49446   6.932   8.035   5.019  1.0046  0.4477  0.1102
  367MOL0     C49447   7.007   7.996   5.148 -0.1786 -0.1689  0.2171
  367MOL0     C49448   7.102   7.880   5.145 -0.6948  0.4256 -0.2077
  367MOL0     C49449   7.190   7.896   5.270 -0.0372  1.1742 -0.2435
  367MOL0     C49450   7.287   7.770   5.285 -0.6477  0.1111  0.3323
  367MOL0     C49451   7.430   7.808   5.328  0.2335  0.2228 -0.4413
  367MOL0     C49452   7.433   7.895   5.457  0.2555 -0.4441 -0.3905
  367MOL0     C49453   7.586   7.919   5.506 -0.4444 -0.9890 -0.3839
  367MOL0    Cl49454   7.682   8.032   5.401  0.7030 -0.3505  0.2636
  367MOL0     C49455   6.696   7.762   5.051 -0.2888 -0.5787  0.1568
  367MOL0     C49456   6.576   7.730   5.105  0.4066  0.1746 -0.2308
  367MOL0     O49457   6.455   7.742   5.370 -0.6511 -0.6905 -0.3511
  367MOL0     C49458   6.231   7.657   5.496 -0.3275 -0.1557 -0.1481
  367MOL0     C49459   6.124   7.596   5.555  0.5843 -0.4604 -0.1943
  367MOL0     N49460   5.356   7.481   5.715  0.1086 -0.1791 -0.5290
  367MOL0     N49461   5.276   7.500   5.615  0.3124  0.1575  0.5224
  367MOL0     C49462   4.565   6.731   4.973  0.2171 -0.4687 -0.8167
  367MOL0     C49463   4.500   6.674   4.863 -0.8572 -0.1268 -0.3131
  367MOL0     C49464   4.399   6.309   4.584 -0.7156 -0.1244  0.2805
  367MOL0     C49465   4.309   6.383   4.509 -0.2157 -0.1942  0.0690
  367MOL0     C49466   4.238   6.321   4.396  0.0772 -0.6388 -0.3022
  367MOL0     C49467   4.248   6.184   4.378  0.2013  0.2768  0.7159
  367MOL0     O49468   4.168   6.140   4.280 -0.0144  0.1621 -0.2536
  367MOL0     C49469   4.118   6.011   4.293 -0.5476  0.1727  1.5282
  367MOL0     C49470   4.028   5.994   4.170  0.0598 -0.3723  0.2926
  367MOL0     C49471   4.088   5.973   4.024 -0.0904  0.0224 -0.1109
  367MOL0     C49472   4.120   6.108   3.959 -0.9099  0.3207  0.2344
  367MOL0     C49473   4.008   6.162   3.887  0.1065  0.0668  0.7264
  367MOL0     C49474   3.917   6.210   3.828 -0.3966 -0.1491  0.3856
  367MOL0     C49475   4.342   6.109   4.448  0.9197  0.7199  0.0522
  367MOL0     C49476   4.407   6.170   4.555 -1.4259 -0.5189 -0.0616
  367MOL0     C49477   4.488   6.079   4.648 -0.4514 -0.2254  0.2490
  367MOL0     H49478   4.752   6.458   4.767 -0.0904  1.0065 -0.9557
  367MOL0     H49479   4.854   6.559   4.975 -0.0941  1.1520 -1.5194
  367MOL0     H49480   4.601   6.858   5.212  0.4171 -1.0901 -1.2502
  367MOL0     H49481   4.633   6.707   5.294 -0.4923  1.1541  1.2337
  367MOL0     H49482   4.853   6.782   5.372  0.7748  0.0896 -1.4948
  367MOL0     H49483   4.734   6.900   5.430 -1.0850  1.4263 -0.6133
  367MOL0     H49484   4.795   7.046   5.227  3.1971  3.3252 -1.1072
  367MOL0     H49485   4.951   6.961   5.221  1.6769  1.1096  2.1412
  367MOL0     H49486   4.846   7.084   5.479 -0.6888 -0.5033  0.0802
  367MOL0     H49487   5.005   7.019   5.433  2.0767  2.8027  1.3710
  367MOL0     H49488   5.037   7.194   5.266  0.4495  1.3413 -0.2009
  367MOL0     H49489   4.883   7.260   5.303  0.0322  1.9775  1.0895
  367MOL0     H49490   4.944   7.318   5.526 -0.6936  1.0338 -1.5628
  367MOL0     H49491   5.109   7.236   5.524  0.9132 -1.6568 -0.9209
  367MOL0     H49492   5.064   7.511   5.473  0.0176 -0.1515  1.7318
  367MOL0     H49493   5.032   7.453   5.317 -0.4441  0.0338  0.3344
  367MOL0     H49494   5.261   7.348   5.322 -2.4718  0.4471 -0.6095
  367MOL0     H49495   5.254   7.528   5.345 -1.2557  1.2808  1.1769
  367MOL0     H49496   5.468   7.267   5.492 -1.3336  2.0639 -3.2367
  367MOL0     H49497   5.546   7.369   5.868  0.8713 -2.3960  0.5473
  367MOL0     H49498   5.577   7.240   5.767 -2.0082  1.0401  2.3541
  367MOL0     H49499   5.667   7.526   5.690  2.6354  1.3381  0.6675
  367MOL0     H49500   5.754   7.442   5.806 -0.8159 -1.1846  2.2494
  367MOL0     H49501   5.719   7.356   5.515  0.3108 -2.0876 -0.3792
  367MOL0     H49502   5.787   7.252   5.641 -0.9198  0.5586  0.5013
  367MOL0     H49503   5.972   7.366   5.517  2.6461  2.1537  0.5731
  367MOL0     H49504   5.957   7.421   5.687 -0.2585  1.1454  0.8788
  367MOL0     H49505   5.894   7.646   5.311  0.7496 -0.9405 -0.1050
  367MOL0     H49506   6.093   7.727   5.189  1.7327  0.1779 -0.6093
  367MOL0     H49507   6.439   8.040   5.125  0.3874  0.8523 -0.2739
  367MOL0     H49508   6.667   8.100   5.041 -1.6225 -0.1081  0.4289
  367MOL0     H49509   6.988   8.083   4.939 -0.6030  2.9428  0.3631
  367MOL0     H49510   6.873   8.126   5.033  1.5108  0.6017  1.4192
  367MOL0     H49511   7.068   8.081   5.178 -0.2154 -0.1564  0.2580
  367MOL0     H49512   6.933   7.969   5.225  0.0539 -0.7670  0.2378
  367MOL0     H49513   7.046   7.786   5.148 -1.8980  1.1304  2.4429
  367MOL0     H49514   7.169   7.874   5.059  0.7623 -0.3660  0.9437
  367MOL0     H49515   7.128   7.900   5.360  1.9594  3.2923  1.1531
  367MOL0     H49516   7.232   7.997   5.273  1.7261  0.5096  3.7819
  367MOL0     H49517   7.292   7.708   5.195  0.3413 -3.9179  2.8815
  367MOL0     H49518   7.248   7.699   5.359 -0.3198 -0.9450 -0.4771
  367MOL0     H49519   7.481   7.713   5.342 -1.3248 -0.5301  0.3672
  367MOL0     H49520   7.487   7.865   5.253  4.3825  0.4825  2.5266
  367MOL0     H49521   7.376   7.849   5.538 -1.3128  3.0494  0.6743
  367MOL0     H49522   7.396   7.996   5.439  1.0154 -0.3403 -1.5037
  367MOL0     H49523   7.587   7.972   5.602  0.0322 -1.7127  0.0260
  367MOL0     H49524   7.641   7.826   5.527  1.6111  0.7834  2.9277
  367MOL0     H49525   6.769   7.686   5.024  1.2031  0.9904 -0.3527
  367MOL0     H49526   6.563   7.626   5.131 -1.3578  0.6211  0.8327
  367MOL0     H49527   6.322   7.651   5.554 -0.8124 -1.7422  0.4907
  367MOL0     H49528   6.138   7.557   5.655  3.8058 -1.9611 -1.1161
  367MOL0     H49529   4.510   6.810   5.024  2.7673  1.5991 -1.0279
  367MOL0     H49530   4.407   6.711   4.823 -0.9707  1.4710  1.3458
  367MOL0     H49531   4.293   6.486   4.540  1.4910 -0.5633  2.5104
  367MOL0     H49532   4.165   6.379   4.339 -0.5999 -1.4327 -0.2606
  367MOL0     H49533   4.065   5.996   4.387 -1.5249 -0.0339  0.9506
  367MOL0     H49534   4.200   5.938   4.291  0.3544  1.1538 -0.5026
  367MOL0     H49535   3.967   6.084   4.181  1.0867  0.1827  1.6761
  367MOL0     H49536   3.952   5.917   4.191 -2.3705  1.9836  0.6612
  367MOL0     H49537   4.011   5.926   3.963 -2.2493  0.6714  1.9644
  367MOL0     H49538   4.180   5.915   4.010 -0.5816 -0.7438 -0.1777
  367MOL0     H49539   4.158   6.189   4.023  4.9911  0.6722 -3.0229
  367MOL0     H49540   4.207   6.084   3.897 -2.1469  0.8446 -1.8101
  367MOL0     H49541   3.836   6.266   3.788 -0.1517 -0.0974 -0.0467
  367MOL0     H49542   4.354   6.003   4.427 -1.7128  0.4585 -0.5162
  367MOL0     H49543   4.593   6.110   4.652  0.2057 -1.9543 -1.6330
  367MOL0     H49544   4.455   6.078   4.752 -0.2572 -0.9228  0.3101
  367MOL0     H49545   4.492   5.976   4.612 -0.4213 -0.2695  0.3755
  368MOL0     O49546   1.475  10.007   3.577 -0.2832 -0.6465  1.1851
  368MOL0     C49547   1.531  10.020   3.464  0.2001  0.9570 -0.1015
  368MOL0     O49548   1.670  10.024   3.454  0.2699 -0.4786 -0.3784
  368MOL0     C49549   1.737   9.962   3.558  0.0401 -0.0939 -0.2263
  368MOL0     C49550   1.781   9.835   3.548  0.9958  0.3900 -0.0368
  368MOL0     C49551   1.845   9.772   3.652  0.1196  0.2169  0.3318
  368MOL0     C49552   1.874   9.844   3.772 -0.4209  0.3438 -0.7810
  368MOL0     O49553   1.934   9.771   3.876 -0.0150  0.3425  0.2100
  368MOL0     C49554   1.973   9.839   4.000 -0.7160  0.6897  0.0147
  368MOL0     C49555   2.016   9.725   4.090 -0.0907 -0.0881  0.5424
  368MOL0     C49556   2.165   9.697   4.061  0.4632  0.5970  0.4754
  368MOL0     C49557   2.206   9.565   4.111  0.3224  0.0512  0.3390
  368MOL0     C49558   2.354   9.547   4.103  0.1078 -0.3965  0.2833
  368MOL0     C49559   2.396   9.403   4.102  0.2566 -0.2066  0.3594
  368MOL0     C49560   2.549   9.379   4.067 -0.1381 -1.2212  0.4622
  368MOL0     C49561   2.564   9.375   3.922 -0.0261 -0.1759  0.9454
  368MOL0     N49562   2.707   9.369   3.887  0.6999 -0.2988 -0.4686
  368MOL0     C49563   2.778   9.470   3.824 -0.6559 -0.8396  0.6365
  368MOL0     C49564   2.906   9.426   3.835  0.3728  0.6223 -0.2531
  368MOL0     C49565   3.024   9.513   3.810  0.3092 -0.0273  0.1423
  368MOL0     C49566   3.096   9.531   3.947  0.1282  0.3546  0.3652
  368MOL0     C49567   3.206   9.630   3.936 -0.6548 -0.6620  0.3351
  368MOL0     C49568   3.314   9.628   3.833 -0.4946 -0.1967 -0.0241
  368MOL0     O49569   3.345   9.485   3.820  0.6862 -0.1182  0.2218
  368MOL0     C49570   3.470   9.458   3.769  0.2538  0.1493 -0.1953
  368MOL0     C49571   3.532   9.332   3.790 -0.2361 -0.5567 -0.0327
  368MOL0     C49572   3.652   9.303   3.731  0.4992  0.6970  0.6524
  368MOL0     C49573   3.711   9.384   3.639 -1.2825 -0.1112  0.3204
  368MOL0     C49574   3.843   9.354   3.568  0.0148  1.1623 -0.5107
  368MOL0     O49575   3.893   9.456   3.483  0.2202  0.7431  0.0059
  368MOL0     C49576   4.011   9.450   3.422 -0.2342  0.6896 -0.2109
  368MOL0     C49577   4.069   9.572   3.388  0.2080 -0.0070 -0.4270
  368MOL0     C49578   4.171   9.581   3.299  0.9081  1.2052  1.2341
  368MOL0     C49579   4.232   9.462   3.256  0.1638 -0.1632 -0.0178
  368MOL0     O49580   4.333   9.475   3.170 -0.1088  0.2882 -0.0087
  368MOL0     C49581   4.372   9.369   3.078 -0.1223  0.2690  0.4538
  368MOL0     C49582   4.523   9.343   3.107  0.3377 -0.8133 -0.2707
  368MOL0     C49583   4.594   9.239   3.009  0.5659  0.7866  0.6959
  368MOL0     C49584   4.617   9.306   2.874 -0.4197 -0.2786  0.0254
  368MOL0     C49585   4.714   9.231   2.778  0.8887  0.3808  0.2379
  368MOL0     C49586   4.678   9.078   2.785 -0.2387  0.2261  1.0409
  368MOL0     C49587   4.794   8.987   2.733  0.4635 -0.0314 -0.0224
  368MOL0     C49588   4.777   8.957   2.584 -0.1031 -0.2594 -0.1201
  368MOL0    Cl49589   4.830   9.091   2.483  0.2362 -0.0432 -0.1049
  368MOL0     C49590   4.188   9.337   3.300  0.8185  0.5578  0.4666
  368MOL0     C49591   4.077   9.332   3.383  0.6123 -0.5033 -0.6190
  368MOL0     O49592   3.892   9.242   3.593  0.6633 -0.5140  0.0967
  368MOL0     C49593   3.657   9.520   3.616 -1.0263  1.0887  0.0233
  368MOL0     C49594   3.538   9.551   3.688 -0.0086 -0.8574  0.5935
  368MOL0     N49595   2.908   9.291   3.875 -0.0695 -0.6549  0.3152
  368MOL0     N49596   2.784   9.258   3.899  0.1027 -0.4638 -0.0464
  368MOL0     C49597   1.843   9.985   3.783 -0.2336  1.0738 -0.4841
  368MOL0     C49598   1.773  10.038   3.663  0.1155 -0.4610  0.5971
  368MOL0     C49599   1.456  10.049   3.342  0.3687  0.2379 -0.6765
  368MOL0     C49600   1.519  10.087   3.221 -0.3196 -0.8332 -0.2241
  368MOL0     C49601   1.458  10.138   3.112  0.6304 -0.2890  0.4687
  368MOL0     C49602   1.318  10.149   3.108  0.4708 -0.1473  1.1062
  368MOL0     O49603   1.237  10.193   3.009 -0.6644 -0.4108 -0.2420
  368MOL0     C49604   1.299  10.261   2.898 -0.6242  0.2496  0.6860
  368MOL0     C49605   1.189  10.308   2.805  0.4139  0.0741  0.6847
  368MOL0     C49606   1.245  10.386   2.684 -0.6268  0.4383 -0.2004
  368MOL0     C49607   1.306  10.522   2.721 -0.0436  0.7333 -0.1439
  368MOL0     C49608   1.225  10.589   2.828 -0.2567 -0.1195 -0.7509
  368MOL0     C49609   1.164  10.657   2.906  0.3975 -0.7479 -0.1012
  368MOL0     C49610   1.245  10.101   3.215 -0.1244  1.0725 -0.0134
  368MOL0     C49611   1.309  10.056   3.337 -0.2933 -0.0937  0.5452
  368MOL0     C49612   1.226  10.002   3.449 -0.0791  0.2992  0.2720
  368MOL0     H49613   1.758   9.782   3.457 -0.7762  2.2019 -0.7293
  368MOL0     H49614   1.878   9.669   3.659 -2.2294 -0.5067  4.0030
  368MOL0     H49615   2.059   9.906   3.987  1.1562 -1.0939  2.3303
  368MOL0     H49616   1.888   9.885   4.050  0.7054  0.3799  2.9138
  368MOL0     H49617   1.955   9.635   4.076 -1.0472  0.7466 -0.9606
  368MOL0     H49618   2.010   9.764   4.192 -0.4044 -2.4130  1.4621
  368MOL0     H49619   2.227   9.774   4.108 -0.0946  0.4098  1.5246
  368MOL0     H49620   2.179   9.695   3.952 -4.2918  0.6988 -0.3295
  368MOL0     H49621   2.185   9.538   4.215  0.4407 -1.0326  0.0854
  368MOL0     H49622   2.159   9.497   4.039  1.2144 -1.3213  1.0221
  368MOL0     H49623   2.398   9.600   4.018 -0.7146 -1.2847 -0.7179
  368MOL0     H49624   2.402   9.596   4.189  2.1286 -0.2760 -0.8388
  368MOL0     H49625   2.377   9.371   4.205  1.0732  3.6987  1.9105
  368MOL0     H49626   2.337   9.344   4.032  1.6209 -1.8172  0.5045
  368MOL0     H49627   2.575   9.284   4.114  2.1325 -0.5720  0.6470
  368MOL0     H49628   2.614   9.458   4.107 -0.9804 -0.6855  0.7944
  368MOL0     H49629   2.517   9.281   3.891 -1.1182  0.3470  0.9536
  368MOL0     H49630   2.511   9.461   3.879  2.1836  0.7693 -0.0249
  368MOL0     H49631   2.741   9.566   3.789 -0.1330 -1.3351 -1.4444
  368MOL0     H49632   3.083   9.461   3.735 -2.4206 -0.7985 -1.6471
  368MOL0     H49633   2.990   9.614   3.782 -2.7996 -0.7525  0.9026
  368MOL0     H49634   3.026   9.566   4.023  2.8327 -1.7841  4.1895
  368MOL0     H49635   3.129   9.434   3.986 -0.7196 -0.2725 -0.4102
  368MOL0     H49636   3.253   9.628   4.035  0.9457 -1.7057 -0.4007
  368MOL0     H49637   3.156   9.727   3.940  0.2648 -0.2078  1.6724
  368MOL0     H49638   3.395   9.700   3.850 -1.5921  0.7571  1.3710
  368MOL0     H49639   3.280   9.669   3.737  1.0753  2.4431  0.4373
  368MOL0     H49640   3.498   9.249   3.852  0.5640 -1.3804 -0.6752
  368MOL0     H49641   3.675   9.200   3.755 -2.4857  0.3130  2.3226
  368MOL0     H49642   4.014   9.662   3.415 -2.0813 -1.1028 -1.1316
  368MOL0     H49643   4.195   9.677   3.254  0.6067  0.8572  0.3077
  368MOL0     H49644   4.304   9.285   3.088  0.4816 -0.1412  1.2607
  368MOL0     H49645   4.364   9.412   2.978 -1.2971 -0.4404  0.2245
  368MOL0     H49646   4.582   9.435   3.099  1.7535 -1.3000  2.8717
  368MOL0     H49647   4.521   9.316   3.213 -4.2843  0.9089  0.2964
  368MOL0     H49648   4.688   9.208   3.055  1.3438  0.0545 -1.2826
  368MOL0     H49649   4.529   9.153   2.994  0.3165  0.8500  1.3936
  368MOL0     H49650   4.653   9.408   2.895 -2.8082  0.3300  1.5228
  368MOL0     H49651   4.516   9.307   2.832 -1.1560 -0.0295  1.7303
  368MOL0     H49652   4.814   9.252   2.818  1.8693 -1.6479 -0.9939
  368MOL0     H49653   4.721   9.262   2.673  1.1546  0.4033  0.2621
  368MOL0     H49654   4.672   9.030   2.883 -0.2472  0.4845  1.1689
  368MOL0     H49655   4.586   9.062   2.727  0.4620 -0.5991  0.1241
  368MOL0     H49656   4.784   8.897   2.793  0.2975  1.4455  2.3130
  368MOL0     H49657   4.891   9.037   2.745  1.3912 -1.9545  0.7990
  368MOL0     H49658   4.820   8.862   2.550 -1.6572 -0.3269 -2.1218
  368MOL0     H49659   4.669   8.940   2.575 -0.1688 -2.1504  2.8125
  368MOL0     H49660   4.243   9.250   3.264  2.1678  1.3122  0.6234
  368MOL0     H49661   4.034   9.233   3.397  0.0829 -0.3511 -1.1501
  368MOL0     H49662   3.712   9.594   3.558  0.1933  0.3871  0.2536
  368MOL0     H49663   3.513   9.657   3.690  0.2880 -0.5746 -3.3396
  368MOL0     H49664   1.851  10.036   3.878  0.4145  1.7318 -0.8879
  368MOL0     H49665   1.730  10.137   3.655  1.6154  0.0765 -1.9536
  368MOL0     H49666   1.626  10.093   3.203 -0.6164  0.0455 -1.8961
  368MOL0     H49667   1.515  10.166   3.024  1.3324  1.8458  1.5246
  368MOL0     H49668   1.373  10.197   2.848  0.3957  2.0607 -0.2077
  368MOL0     H49669   1.351  10.355   2.918  0.4626 -0.1528 -0.1125
  368MOL0     H49670   1.109  10.365   2.852  0.7304  2.0358 -0.9993
  368MOL0     H49671   1.137  10.218   2.771  1.3265 -0.3450  0.3462
  368MOL0     H49672   1.179  10.393   2.598  1.2879 -0.1006 -1.7900
  368MOL0     H49673   1.328  10.323   2.651 -1.8567 -0.8843 -0.8546
  368MOL0     H49674   1.405  10.518   2.767 -0.5959 -1.4559  1.0182
  368MOL0     H49675   1.325  10.587   2.635 -1.4987  3.2080  1.2459
  368MOL0     H49676   1.110  10.723   2.971  0.4814 -1.6292  0.9000
  368MOL0     H49677   1.137  10.100   3.204  0.1615  1.1123 -5.3340
  368MOL0     H49678   1.120   9.990   3.426 -0.4868 -0.7286  2.4650
  368MOL0     H49679   1.275   9.910   3.481 -0.4375 -0.6729 -1.7912
  368MOL0     H49680   1.227  10.056   3.544  0.2158 -0.0898  0.4913
  369MOL0     O49681   5.969   7.687   0.030  0.4857  0.2640 -0.3849
  369MOL0     C49682   5.853   7.694   0.075 -1.1046  0.1056 -0.4483
  369MOL0     O49683   5.816   7.667   0.206 -0.1003  0.0309 -0.2073
  369MOL0     C49684   5.903   7.635   0.305 -0.5312  0.5842 -0.4099
  369MOL0     C49685   5.880   7.685   0.433 -0.0033 -0.4825  0.3991
  369MOL0     C49686   5.978   7.669   0.532  0.7222  0.4493 -0.7546
  369MOL0     C49687   6.092   7.594   0.507 -0.3577 -0.0809 -0.6202
  369MOL0     O49688   6.186   7.562   0.600  0.1545 -0.3181  1.2612
  369MOL0     C49689   6.151   7.559   0.742  0.1166 -0.2406  0.9324
  369MOL0     C49690   6.093   7.429   0.780  0.6175  0.0944  0.4594
  369MOL0     C49691   6.176   7.306   0.759  0.2375  0.8269  0.5670
  369MOL0     C49692   6.250   7.274   0.886  0.2698  0.8417  0.1348
  369MOL0     C49693   6.354   7.161   0.851  0.1709 -0.2664  1.2298
  369MOL0     C49694   6.447   7.135   0.966 -0.8816 -0.3452 -0.2899
  369MOL0     C49695   6.376   7.106   1.100  0.5037  0.5302  0.0750
  369MOL0     C49696   6.272   7.000   1.094  1.1462  1.3072  0.3769
  369MOL0     N49697   6.210   6.962   1.223  0.4141  0.0965 -1.0860
  369MOL0     C49698   6.249   6.996   1.350 -0.0183  0.4568 -0.1569
  369MOL0     C49699   6.135   6.964   1.433  0.3014  0.3360  0.4194
  369MOL0     C49700   6.127   6.967   1.583 -0.4561 -0.1041  0.6827
  369MOL0     C49701   6.218   7.067   1.655  0.5894  0.3596  0.2817
  369MOL0     C49702   6.183   7.097   1.800  0.4665  0.2728 -0.1896
  369MOL0     C49703   6.308   7.156   1.861  0.5041  0.7582 -0.2072
  369MOL0     O49704   6.396   7.045   1.884  0.3877  0.5832 -0.1119
  369MOL0     C49705   6.514   7.063   1.934  0.1194 -1.0965  0.0073
  369MOL0     C49706   6.617   6.973   1.922  0.9362  0.3459  0.0441
  369MOL0     C49707   6.752   6.986   1.964  0.1605  0.2389 -1.2980
  369MOL0     C49708   6.790   7.112   2.028  1.0645  0.3747  0.0260
  369MOL0     C49709   6.929   7.155   2.068 -0.0364  0.6423 -0.2652
  369MOL0     O49710   6.944   7.255   2.159  0.4081  0.5184 -0.0080
  369MOL0     C49711   7.071   7.291   2.191 -0.0367 -0.1814 -0.2738
  369MOL0     C49712   7.113   7.423   2.170  1.0426  0.5693 -0.1452
  369MOL0     C49713   7.244   7.459   2.191  0.5945 -1.0242  0.1766
  369MOL0     C49714   7.332   7.372   2.265  0.7026 -0.0425  0.4357
  369MOL0     O49715   7.455   7.406   2.302 -0.3918  0.2642  0.4024
  369MOL0     C49716   7.484   7.550   2.305 -0.0981 -0.2842 -0.0745
  369MOL0     C49717   7.551   7.584   2.175  0.8999 -0.9226 -0.6840
  369MOL0     C49718   7.611   7.718   2.183  0.8561  0.0678 -0.5849
  369MOL0     C49719   7.516   7.835   2.195  0.0209  0.1628  0.0204
  369MOL0     C49720   7.565   7.975   2.167  0.2320 -0.1721  0.5607
  369MOL0     C49721   7.638   8.034   2.287 -0.4872 -0.2073 -1.0769
  369MOL0     C49722   7.726   8.155   2.242 -0.8045  0.3223 -0.0564
  369MOL0     C49723   7.826   8.197   2.355 -0.4196  0.6074 -0.1974
  369MOL0    Cl49724   7.982   8.119   2.315 -0.6279  0.1587 -0.1538
  369MOL0     C49725   7.284   7.240   2.290 -0.7462 -0.2704 -0.4169
  369MOL0     C49726   7.157   7.199   2.250  0.5846 -0.6388  0.0096
  369MOL0     O49727   7.023   7.091   2.016 -0.1252  0.7019 -0.3989
  369MOL0     C49728   6.688   7.205   2.038  0.1560 -0.6172  0.0358
  369MOL0     C49729   6.552   7.183   2.001  0.3658  0.5994  0.3151
  369MOL0     N49730   6.044   6.893   1.354  0.5420  0.1471  0.6211
  369MOL0     N49731   6.099   6.892   1.233  0.4954 -0.2646  0.5397
  369MOL0     C49732   6.121   7.547   0.384  0.3006  0.0727  0.8204
  369MOL0     C49733   6.019   7.564   0.286  0.2720  0.0383  0.0542
  369MOL0     C49734   5.748   7.702  -0.026  0.3813  0.8456  0.2846
  369MOL0     C49735   5.623   7.692   0.025  0.3183 -0.0845 -0.2836
  369MOL0     C49736   5.519   7.689  -0.072  0.8537 -0.2494  0.0135
  369MOL0     C49737   5.534   7.694  -0.208  0.2247 -0.7419  0.3170
  369MOL0     O49738   5.428   7.685  -0.301 -0.5653 -0.3258  0.4774
  369MOL0     C49739   5.292   7.667  -0.254 -0.1061  0.2086 -0.5851
  369MOL0     C49740   5.203   7.781  -0.282 -0.2788  0.1549 -0.3400
  369MOL0     C49741   5.066   7.750  -0.250  0.4566 -0.7757  0.6973
  369MOL0     C49742   4.977   7.841  -0.332 -0.0773 -0.5811  0.7970
  369MOL0     C49743   4.838   7.816  -0.298 -0.3491 -0.2565  0.0740
  369MOL0     C49744   4.727   7.799  -0.266  0.4242  0.2583 -0.5389
  369MOL0     C49745   5.657   7.713  -0.255  0.2067 -0.0549 -0.1528
  369MOL0     C49746   5.759   7.724  -0.162  0.1189  0.0734  1.4435
  369MOL0     C49747   5.886   7.765  -0.231 -0.3484  0.9712  1.0067
  369MOL0     H49748   5.793   7.747   0.451  0.7602 -0.0248  2.8882
  369MOL0     H49749   5.945   7.721   0.622 -0.4938  1.0951 -1.5449
  369MOL0     H49750   6.241   7.569   0.802  0.6318 -0.1084  0.1568
  369MOL0     H49751   6.077   7.637   0.761 -0.6056 -0.2038 -1.5687
  369MOL0     H49752   6.005   7.417   0.715  0.9743 -2.0973  0.2838
  369MOL0     H49753   6.059   7.437   0.884 -1.3839 -0.2850 -0.1134
  369MOL0     H49754   6.247   7.327   0.679 -0.2700  1.5160  0.2865
  369MOL0     H49755   6.105   7.229   0.730  0.4842 -0.6614  3.5148
  369MOL0     H49756   6.294   7.366   0.926  1.7451  0.3356 -0.2892
  369MOL0     H49757   6.174   7.247   0.960 -1.6843  0.9635 -1.7451
  369MOL0     H49758   6.292   7.072   0.837  0.5580 -0.6903  2.0811
  369MOL0     H49759   6.415   7.173   0.761  1.5621 -2.6051  1.7651
  369MOL0     H49760   6.512   7.056   0.928 -0.0005 -0.3503  1.1643
  369MOL0     H49761   6.514   7.220   0.982  0.7441 -1.6208 -0.0389
  369MOL0     H49762   6.323   7.193   1.139  0.9531  1.0092 -0.3793
  369MOL0     H49763   6.456   7.080   1.170  2.3591  1.9592 -1.4316
  369MOL0     H49764   6.189   7.029   1.030  1.6451 -1.4809 -1.7215
  369MOL0     H49765   6.321   6.915   1.046 -2.6543 -0.1499 -1.3391
  369MOL0     H49766   6.338   7.050   1.382 -1.4194  2.0567  1.2732
  369MOL0     H49767   6.022   6.988   1.605 -1.5452 -2.5443 -1.6973
  369MOL0     H49768   6.156   6.870   1.623  0.5220  0.6405  1.8550
  369MOL0     H49769   6.322   7.034   1.645  1.1222  1.6730  1.2147
  369MOL0     H49770   6.205   7.165   1.607  0.5840  0.3579  0.2794
  369MOL0     H49771   6.147   7.001   1.838  0.8817 -0.1919 -0.9448
  369MOL0     H49772   6.098   7.166   1.801 -0.5193 -0.8919  1.9316
  369MOL0     H49773   6.290   7.203   1.958 -0.5193  0.3765 -0.2073
  369MOL0     H49774   6.356   7.237   1.804 -1.7412  1.4488 -1.2555
  369MOL0     H49775   6.599   6.871   1.889 -1.5566  0.5422  0.5709
  369MOL0     H49776   6.831   6.925   1.921  1.2697  0.3717  0.4301
  369MOL0     H49777   7.051   7.499   2.124 -0.2541  0.1484  0.8297
  369MOL0     H49778   7.274   7.562   2.174 -0.9616 -0.0372  2.9081
  369MOL0     H49779   7.394   7.610   2.321 -0.1909  0.4781 -2.8896
  369MOL0     H49780   7.552   7.568   2.388 -0.8025  0.7665  0.2836
  369MOL0     H49781   7.625   7.506   2.161  5.1146  2.1518  2.0623
  369MOL0     H49782   7.482   7.580   2.090 -0.4812  0.0424  0.3484
  369MOL0     H49783   7.681   7.727   2.267  1.4695  0.9123 -1.1725
  369MOL0     H49784   7.665   7.729   2.088  1.1718  0.7783 -0.3272
  369MOL0     H49785   7.481   7.830   2.298  0.4850 -1.0728  0.1349
  369MOL0     H49786   7.434   7.806   2.128 -0.2434  0.0738  0.3780
  369MOL0     H49787   7.483   8.041   2.137  1.5225  0.3041 -2.2574
  369MOL0     H49788   7.631   7.964   2.081  2.0053 -0.6513  1.9197
  369MOL0     H49789   7.566   8.070   2.361  0.8259 -0.7579  0.5281
  369MOL0     H49790   7.704   7.957   2.327  1.1057 -0.0692 -3.2221
  369MOL0     H49791   7.667   8.246   2.230 -2.4187 -0.1427  3.2792
  369MOL0     H49792   7.790   8.131   2.156  3.1024 -0.9480  2.9418
  369MOL0     H49793   7.840   8.305   2.366 -2.6333  0.7985  1.4843
  369MOL0     H49794   7.797   8.150   2.450 -0.8923 -2.8797 -1.9286
  369MOL0     H49795   7.352   7.174   2.343  1.0864  1.4477 -0.4734
  369MOL0     H49796   7.115   7.103   2.278 -5.2403  0.7853 -2.3763
  369MOL0     H49797   6.716   7.306   2.067 -0.8412 -0.2287 -0.3179
  369MOL0     H49798   6.482   7.265   2.011  2.0127  2.1305 -0.2458
  369MOL0     H49799   6.204   7.485   0.351  0.7365  1.0712 -0.0128
  369MOL0     H49800   6.034   7.524   0.187 -1.0635  0.6966 -0.4274
  369MOL0     H49801   5.606   7.693   0.132 -2.6588  1.3722 -0.6622
  369MOL0     H49802   5.420   7.680  -0.027 -0.3903 -2.2126 -2.8297
  369MOL0     H49803   5.287   7.633  -0.150  3.7732  4.2767  1.2715
  369MOL0     H49804   5.265   7.575  -0.307  1.4228 -1.9847  2.1567
  369MOL0     H49805   5.204   7.784  -0.392 -3.2360 -1.1949 -0.4930
  369MOL0     H49806   5.237   7.879  -0.246 -0.1362  0.3511 -0.9842
  369MOL0     H49807   5.039   7.777  -0.147 -0.2057  1.2378  0.0280
  369MOL0     H49808   5.043   7.644  -0.266 -0.6667 -0.2065 -1.8206
  369MOL0     H49809   5.003   7.943  -0.303  0.3252 -0.8524  1.4005
  369MOL0     H49810   4.990   7.815  -0.437 -2.0249  1.4457 -0.0340
  369MOL0     H49811   4.628   7.766  -0.244  0.1426  0.5872 -1.2780
  369MOL0     H49812   5.674   7.726  -0.362 -1.6822 -0.1995 -0.5097
  369MOL0     H49813   5.930   7.859  -0.197  1.6496  0.0212  1.1565
  369MOL0     H49814   5.959   7.685  -0.219 -1.3823 -0.3346 -0.9097
  369MOL0     H49815   5.868   7.769  -0.339  0.3242 -0.6398  0.8183
  370MOL0     O49816   1.582   8.718   1.900 -0.1489 -0.3045  1.0362
  370MOL0     C49817   1.608   8.836   1.892 -0.1719  0.3661  0.5638
  370MOL0     O49818   1.732   8.886   1.919 -0.1558  0.0937  0.2717
  370MOL0     C49819   1.830   8.797   1.957  0.1286  0.2115  0.3514
  370MOL0     C49820   1.928   8.781   1.864  0.0647  0.2197 -0.3382
  370MOL0     C49821   2.051   8.719   1.891  0.0216  0.1030  0.0928
  370MOL0     C49822   2.075   8.670   2.019  0.1963 -0.6470  0.2953
  370MOL0     O49823   2.183   8.597   2.049 -0.5512  0.1836  0.1455
  370MOL0     C49824   2.299   8.633   1.974 -0.3751  0.5650 -0.7618
  370MOL0     C49825   2.412   8.542   2.029 -0.2127 -0.2921 -0.0245
  370MOL0     C49826   2.547   8.569   1.961  0.9596 -0.2941  0.2521
  370MOL0     C49827   2.664   8.496   2.033  0.3095  0.1744 -0.5517
  370MOL0     C49828   2.652   8.349   2.006  0.7638  0.0488 -0.3785
  370MOL0     C49829   2.754   8.259   2.075 -0.1918 -0.9525  0.1188
  370MOL0     C49830   2.768   8.122   2.005 -0.5212  0.5140 -0.5207
  370MOL0     C49831   2.882   8.040   2.076  0.3008  0.8342 -0.1762
  370MOL0     N49832   3.008   8.089   2.049  0.5700 -0.0770 -0.4000
  370MOL0     C49833   3.106   8.111   2.144 -1.0499  0.2733 -0.0600
  370MOL0     C49834   3.220   8.110   2.081  0.1178 -0.5032  0.4172
  370MOL0     C49835   3.365   8.090   2.145  0.1254  0.6844  0.1733
  370MOL0     C49836   3.410   8.204   2.239  0.0651  0.8025  0.3181
  370MOL0     C49837   3.423   8.328   2.157 -0.4169  0.0016 -0.7082
  370MOL0     C49838   3.520   8.429   2.215 -0.6764  0.3798  0.2602
  370MOL0     O49839   3.648   8.372   2.217 -0.9674  0.4612 -0.0883
  370MOL0     C49840   3.758   8.441   2.257  0.2655  0.3122 -0.3447
  370MOL0     C49841   3.876   8.367   2.265  0.4237 -0.2231 -0.0847
  370MOL0     C49842   3.994   8.422   2.311 -0.4579  0.9665 -0.2696
  370MOL0     C49843   4.001   8.562   2.331  0.6323 -1.3280  0.0697
  370MOL0     C49844   4.137   8.624   2.358  0.0223  0.2115 -0.2327
  370MOL0     O49845   4.254   8.547   2.343 -0.1504  0.1470  0.3762
  370MOL0     C49846   4.378   8.606   2.318  0.3726 -0.5622  0.0574
  370MOL0     C49847   4.402   8.735   2.281 -1.4332  0.4869 -0.0938
  370MOL0     C49848   4.532   8.794   2.267 -0.2638 -0.2385 -0.3719
  370MOL0     C49849   4.641   8.707   2.289  0.3329 -0.3351  0.7558
  370MOL0     O49850   4.766   8.730   2.253 -0.4078 -0.3368 -0.7839
  370MOL0     C49851   4.782   8.807   2.133  0.1870 -0.1275 -0.0455
  370MOL0     C49852   4.933   8.834   2.117  0.1310 -0.3602 -0.2858
  370MOL0     C49853   4.976   8.935   2.223 -0.2678  0.1710  0.5085
  370MOL0     C49854   5.100   9.013   2.185  0.0531 -0.7568 -1.2520
  370MOL0     C49855   5.136   9.121   2.289  0.5709  0.3920 -0.4153
  370MOL0     C49856   5.245   9.080   2.385 -0.1324 -0.4651  0.1800
  370MOL0     C49857   5.205   8.963   2.477 -0.0928 -0.5796 -0.0281
  370MOL0     C49858   5.272   8.959   2.616  0.6198 -0.8548 -0.8012
  370MOL0    Cl49859   5.211   9.068   2.739  0.3131 -0.5804 -0.1103
  370MOL0     C49860   4.616   8.576   2.328  0.7792 -0.1092  0.0221
  370MOL0     C49861   4.484   8.524   2.345  0.0424  0.6500  0.6996
  370MOL0     O49862   4.132   8.741   2.384 -0.4228 -0.7085 -0.1604
  370MOL0     C49863   3.884   8.638   2.321  0.1916  0.6340 -0.2257
  370MOL0     C49864   3.762   8.577   2.285  0.1098  0.3117 -0.1005
  370MOL0     N49865   3.185   8.106   1.946  0.0448  0.4341 -0.3794
  370MOL0     N49866   3.060   8.110   1.929  0.2992  0.6283  0.7130
  370MOL0     C49867   1.978   8.685   2.117  0.1937  0.2060 -0.2981
  370MOL0     C49868   1.860   8.744   2.083  0.2474 -0.2419 -0.4379
  370MOL0     C49869   1.484   8.910   1.872 -0.7337 -0.2519  0.8985
  370MOL0     C49870   1.493   9.047   1.895  0.0552  0.9278 -0.5602
  370MOL0     C49871   1.390   9.133   1.871 -0.2857 -0.0230 -0.2233
  370MOL0     C49872   1.267   9.078   1.816 -0.2826 -0.2938  0.7389
  370MOL0     O49873   1.147   9.143   1.796 -0.3652 -0.3099  0.5494
  370MOL0     C49874   1.145   9.274   1.731 -0.4434  0.0314  0.4385
  370MOL0     C49875   1.148   9.388   1.835 -0.3543  0.1077 -0.4884
  370MOL0     C49876   1.199   9.521   1.783 -0.1786 -0.6319  0.0591
  370MOL0     C49877   1.232   9.629   1.883 -0.6795  0.3107 -0.4158
  370MOL0     C49878   1.353   9.589   1.962 -0.3402 -0.7942  0.1898
  370MOL0     C49879   1.461   9.562   2.010 -0.4049  0.3538  0.0355
  370MOL0     C49880   1.270   8.944   1.776  0.1904  0.2173 -0.0009
  370MOL0     C49881   1.370   8.860   1.811  0.7217  0.1346  0.4266
  370MOL0     C49882   1.348   8.709   1.770 -0.2785 -0.9304 -0.0635
  370MOL0     H49883   1.909   8.826   1.767 -1.6796  0.1155 -0.0816
  370MOL0     H49884   2.108   8.708   1.800 -0.5708  1.2294 -0.4392
  370MOL0     H49885   2.284   8.621   1.867  2.2043  0.6073 -1.1969
  370MOL0     H49886   2.325   8.736   1.998  0.9142  0.1687 -0.3429
  370MOL0     H49887   2.386   8.437   2.013  1.2970 -0.4714 -1.5762
  370MOL0     H49888   2.419   8.561   2.137 -2.2095 -1.9364  0.4546
  370MOL0     H49889   2.567   8.677   1.965  1.5672 -0.4135  0.6184
  370MOL0     H49890   2.541   8.536   1.856  0.9092 -2.2346  0.8238
  370MOL0     H49891   2.757   8.525   1.984  0.9031 -1.9536 -0.7887
  370MOL0     H49892   2.666   8.516   2.140  1.7398  0.9584 -0.6987
  370MOL0     H49893   2.550   8.321   2.036  0.5463 -0.8875 -1.9057
  370MOL0     H49894   2.656   8.337   1.898 -2.0224  2.5318 -0.8939
  370MOL0     H49895   2.849   8.312   2.090 -1.0794  1.1301 -1.2339
  370MOL0     H49896   2.715   8.245   2.177 -1.2714  3.4971  0.5019
  370MOL0     H49897   2.784   8.121   1.897 -0.2703  2.0446 -0.5200
  370MOL0     H49898   2.677   8.063   2.021  0.7039 -1.5061 -0.6012
  370MOL0     H49899   2.869   8.043   2.184  3.1396  3.4950  0.2175
  370MOL0     H49900   2.859   7.941   2.034 -1.3687  0.4837  1.4315
  370MOL0     H49901   3.095   8.104   2.252  0.7379 -2.5932  0.0263
  370MOL0     H49902   3.349   8.001   2.205 -0.4836 -0.9533 -2.2821
  370MOL0     H49903   3.438   8.058   2.069 -0.3855 -0.5654  0.1970
  370MOL0     H49904   3.328   8.201   2.313  1.2510 -5.2955  1.9371
  370MOL0     H49905   3.497   8.168   2.295  0.7440  0.8233 -0.7114
  370MOL0     H49906   3.318   8.358   2.163 -0.1279  0.7106  1.3029
  370MOL0     H49907   3.455   8.301   2.055  0.9698 -0.3550 -0.2095
  370MOL0     H49908   3.500   8.463   2.317 -0.0816  0.0522  0.4873
  370MOL0     H49909   3.523   8.513   2.146 -1.3156  0.1373 -0.0728
  370MOL0     H49910   3.866   8.259   2.253  2.4696 -0.6185  1.3204
  370MOL0     H49911   4.084   8.361   2.309 -1.3569 -0.4055  0.1091
  370MOL0     H49912   4.319   8.802   2.260 -0.8253  1.1854 -0.3113
  370MOL0     H49913   4.549   8.894   2.227  0.6706  0.2083  1.0708
  370MOL0     H49914   4.742   8.753   2.046  1.0658 -3.1470  1.2730
  370MOL0     H49915   4.727   8.900   2.146 -0.4496 -0.8881  4.3969
  370MOL0     H49916   4.997   8.747   2.134 -1.3036 -0.8787  3.1618
  370MOL0     H49917   4.962   8.879   2.021 -0.3950 -1.0875 -0.7999
  370MOL0     H49918   4.900   9.013   2.234 -1.6195 -0.9029 -0.8749
  370MOL0     H49919   4.988   8.882   2.318  2.6117  1.0194  0.7344
  370MOL0     H49920   5.081   9.064   2.090 -2.2284  2.4892  0.7318
  370MOL0     H49921   5.189   8.950   2.182  1.2420  0.8718 -2.5890
  370MOL0     H49922   5.051   9.153   2.350  1.8487  1.2404  0.9846
  370MOL0     H49923   5.171   9.202   2.225  3.2172 -1.5032 -1.5684
  370MOL0     H49924   5.336   9.053   2.331  0.0551  0.4611  0.0212
  370MOL0     H49925   5.273   9.168   2.445 -1.4256  0.6774 -0.8492
  370MOL0     H49926   5.235   8.870   2.426 -0.0649 -1.6856  1.8866
  370MOL0     H49927   5.096   8.957   2.482 -0.1144 -1.0757 -0.8341
  370MOL0     H49928   5.246   8.864   2.665 -0.1312 -1.2486 -1.9361
  370MOL0     H49929   5.377   8.977   2.595  0.1062  3.2031 -0.6478
  370MOL0     H49930   4.695   8.502   2.342  0.0372 -1.1994 -1.3512
  370MOL0     H49931   4.473   8.426   2.392 -2.6983 -0.5460 -2.1360
  370MOL0     H49932   3.882   8.744   2.344 -0.6227  0.6501 -0.3257
  370MOL0     H49933   3.680   8.648   2.276  0.8613  1.3861  1.1566
  370MOL0     H49934   2.005   8.645   2.214  0.8045  0.9248 -0.1603
  370MOL0     H49935   1.783   8.764   2.158 -2.4961  2.6131 -3.6508
  370MOL0     H49936   1.578   9.094   1.943  0.1382 -0.2281  0.4772
  370MOL0     H49937   1.404   9.240   1.874  1.2987 -0.2137  0.3976
  370MOL0     H49938   1.053   9.269   1.671  0.7206 -0.1224 -1.4149
  370MOL0     H49939   1.224   9.278   1.655 -2.7850  1.4844 -2.1316
  370MOL0     H49940   1.198   9.353   1.926  0.8192  0.8201 -0.8439
  370MOL0     H49941   1.042   9.400   1.858  0.3711  1.8295  2.3854
  370MOL0     H49942   1.132   9.566   1.709  1.5833  0.4396 -0.9783
  370MOL0     H49943   1.291   9.493   1.731  0.0059  2.2654 -1.3942
  370MOL0     H49944   1.251   9.722   1.830  0.9887  0.5965  0.5832
  370MOL0     H49945   1.149   9.655   1.949  1.8209  2.3408  2.1832
  370MOL0     H49946   1.555   9.548   2.059 -1.3474  0.2048  1.8830
  370MOL0     H49947   1.177   8.894   1.749 -0.3582  1.0488  0.3056
  370MOL0     H49948   1.377   8.635   1.845 -2.5624 -1.2443  0.5901
  370MOL0     H49949   1.242   8.685   1.762 -0.4187 -1.3016  2.1564
  370MOL0     H49950   1.405   8.696   1.678  0.4474 -0.0139  0.2317
  371MOL0     O49951   7.833   8.701   9.457  0.3683 -0.1531  0.1625
  371MOL0     C49952   7.858   8.683   9.571 -0.1111 -0.3689 -0.8378
  371MOL0     O49953   7.979   8.702   9.628 -0.2772  0.0216 -0.1814
  371MOL0     C49954   8.065   8.789   9.568  0.7411  0.1596 -0.1360
  371MOL0     C49955   8.024   8.920   9.544  1.6748 -1.0338 -0.1572
  371MOL0     C49956   8.114   9.022   9.499 -0.1080  0.9550 -0.8108
  371MOL0     C49957   8.245   8.975   9.460 -0.0972 -0.6563 -0.2940
  371MOL0     O49958   8.350   9.047   9.416 -0.4810 -0.1970 -0.4355
  371MOL0     C49959   8.309   9.172   9.359 -0.5366  0.0846  0.3482
  371MOL0     C49960   8.419   9.187   9.262 -1.0482 -0.1621  0.6093
  371MOL0     C49961   8.402   9.315   9.178  0.1167 -1.0993 -0.1819
  371MOL0     C49962   8.537   9.342   9.108 -0.6346 -1.2272  0.2413
  371MOL0     C49963   8.532   9.481   9.044  0.6350 -1.5422 -0.0771
  371MOL0     C49964   8.635   9.503   8.933  0.3143 -0.4298  0.1007
  371MOL0     C49965   8.625   9.648   8.885 -0.1736  0.6629  0.1305
  371MOL0     C49966   8.723   9.666   8.771  0.4798  1.0684  0.2015
  371MOL0     N49967   8.864   9.642   8.796  0.4335 -0.5592  0.2833
  371MOL0     C49968   8.942   9.702   8.890  0.0662 -0.4044  1.2938
  371MOL0     C49969   9.070   9.655   8.879  0.0746 -0.3294  0.6173
  371MOL0     C49970   9.183   9.694   8.964 -0.0994 -0.2941  0.4309
  371MOL0     C49971   9.294   9.765   8.883 -0.6057  0.5073 -0.6795
  371MOL0     C49972   9.242   9.884   8.796  0.3465 -0.3003  0.2567
  371MOL0     C49973   9.352   9.961   8.714 -0.3686 -0.4678 -0.3969
  371MOL0     O49974   9.442  10.013   8.811  0.6775 -0.4752  0.1847
  371MOL0     C49975   9.543  10.077   8.749 -0.5410 -0.3832 -0.9164
  371MOL0     C49976   9.641  10.124   8.837  0.3743  0.4511 -0.3359
  371MOL0     C49977   9.753  10.187   8.790 -0.5474  0.1053 -0.0163
  371MOL0     C49978   9.772  10.214   8.651 -0.3171 -0.4666  0.6340
  371MOL0     C49979   9.896  10.275   8.604  0.5765 -0.2891 -0.6932
  371MOL0     O49980   9.917  10.279   8.470 -0.4416  0.2825  0.3443
  371MOL0     C49981  10.043  10.312   8.424 -0.6305  0.5617 -0.7654
  371MOL0     C49982  10.051  10.358   8.289  0.3529  0.2341 -0.5064
  371MOL0     C49983  10.166  10.403   8.222 -1.1016 -0.0150  0.1502
  371MOL0     C49984  10.288  10.385   8.286 -0.1448  0.6063 -0.2311
  371MOL0     O49985  10.412  10.384   8.237 -0.0511  0.3175  0.0062
  371MOL0     C49986  10.453  10.505   8.169 -0.5185  0.6558  0.2401
  371MOL0     C49987  10.579  10.463   8.087  0.1481  0.1257  0.1910
  371MOL0     C49988  10.636  10.586   8.010 -0.2490  0.7324  0.2715
  371MOL0     C49989  10.755  10.537   7.924  0.9731  0.4350  0.8547
  371MOL0     C49990  10.830  10.646   7.845  0.8989  0.3186  0.1612
  371MOL0     C49991  10.966  10.606   7.782  0.1767  0.0200 -0.5909
  371MOL0     C49992  10.953  10.495   7.679  1.0516 -0.4373 -0.4525
  371MOL0     C49993  11.078  10.473   7.602  0.1156  0.0867 -0.0625
  371MOL0    Cl49994  11.211  10.428   7.717  0.2473  0.3068  0.0358
  371MOL0     C49995  10.281  10.330   8.416 -0.2873  0.9860 -0.3243
  371MOL0     C49996  10.169  10.282   8.487 -0.0565  0.4174 -0.4081
  371MOL0     O49997   9.964  10.329   8.687 -0.6453 -0.3578 -0.7571
  371MOL0     C49998   9.671  10.176   8.561 -1.5529 -0.6560  0.1072
  371MOL0     C49999   9.559  10.109   8.607  0.4704 -0.3151 -0.1699
  371MOL0     N50000   9.070   9.558   8.774 -0.5237 -0.7456 -1.0668
  371MOL0     N50001   8.949   9.550   8.733  0.0958  0.5644 -0.4353
  371MOL0     C50002   8.287   8.845   9.485  0.4097  0.2268  1.1956
  371MOL0     C50003   8.192   8.753   9.530  0.0900 -0.4474 -0.6313
  371MOL0     C50004   7.749   8.628   9.651 -0.7611 -0.0237  0.1206
  371MOL0     C50005   7.788   8.581   9.782  0.0660 -0.5173  0.4597
  371MOL0     C50006   7.694   8.519   9.866 -0.7206  0.1223  1.1349
  371MOL0     C50007   7.564   8.500   9.829  0.1786 -0.5633 -0.5739
  371MOL0     O50008   7.470   8.430   9.899 -0.2186  0.3351  0.1452
  371MOL0     C50009   7.497   8.417  10.041  0.6934  0.1185  0.2822
  371MOL0     C50010   7.358   8.368  10.094 -0.7510  0.2201 -0.4403
  371MOL0     C50011   7.349   8.224  10.057  0.4769  0.7124  0.3153
  371MOL0     C50012   7.227   8.163  10.133  0.0744 -0.4088  1.0142
  371MOL0     C50013   7.192   8.019  10.120 -0.5687 -0.5847  0.0130
  371MOL0     C50014   7.138   7.919  10.093 -0.2189  0.2560  0.4108
  371MOL0     C50015   7.526   8.542   9.702 -0.8871  0.3108 -0.2983
  371MOL0     C50016   7.613   8.614   9.611 -1.1430 -0.1572 -0.0567
  371MOL0     C50017   7.557   8.667   9.482 -0.0972 -0.4324 -0.4295
  371MOL0     H50018   7.918   8.939   9.553  1.5384 -1.6192 -0.4401
  371MOL0     H50019   8.063   9.115   9.478  0.3976  1.0650 -1.5833
  371MOL0     H50020   8.213   9.179   9.307  0.7356  1.4977 -1.9624
  371MOL0     H50021   8.312   9.251   9.435  0.8247  1.1106 -0.7257
  371MOL0     H50022   8.410   9.102   9.193  1.7235  0.4347 -0.6620
  371MOL0     H50023   8.519   9.168   9.302  0.4544  3.8587 -0.7290
  371MOL0     H50024   8.394   9.406   9.238 -0.9395 -0.6597 -0.9750
  371MOL0     H50025   8.329   9.309   9.097 -1.4532 -0.3748  1.1253
  371MOL0     H50026   8.616   9.347   9.184 -1.6849  3.7597  1.3608
  371MOL0     H50027   8.566   9.270   9.031  2.7080 -0.0890  0.2878
  371MOL0     H50028   8.436   9.499   8.994  1.2054  1.5993 -0.2005
  371MOL0     H50029   8.533   9.553   9.126 -0.7571 -2.4684  0.8105
  371MOL0     H50030   8.735   9.473   8.966  1.1753 -0.0750 -2.0512
  371MOL0     H50031   8.611   9.442   8.845 -0.1986 -0.0626 -0.0166
  371MOL0     H50032   8.646   9.711   8.972  2.8692  1.4723 -1.0473
  371MOL0     H50033   8.524   9.676   8.855  0.9325  1.3150 -3.6140
  371MOL0     H50034   8.694   9.609   8.683  1.2035  0.8035  0.1282
  371MOL0     H50035   8.716   9.772   8.745  2.2294  1.5107  1.3594
  371MOL0     H50036   8.905   9.783   8.952 -2.9020 -1.2732  0.8048
  371MOL0     H50037   9.145   9.752   9.049 -3.7339 -1.1980 -0.3952
  371MOL0     H50038   9.223   9.603   9.009 -0.9264 -0.9958 -0.1959
  371MOL0     H50039   9.368   9.796   8.958 -0.1157 -2.3931  0.1859
  371MOL0     H50040   9.348   9.695   8.818 -2.2242 -2.1648  0.7044
  371MOL0     H50041   9.182   9.960   8.846  1.5368  0.6540  0.3027
  371MOL0     H50042   9.180   9.837   8.720  0.0417  1.0944 -0.3894
  371MOL0     H50043   9.290  10.037   8.665 -1.8059 -1.5698 -0.3801
  371MOL0     H50044   9.403   9.899   8.640 -2.1062 -3.1235  0.4580
  371MOL0     H50045   9.627  10.127   8.945  0.0054 -1.6629 -0.2752
  371MOL0     H50046   9.831  10.215   8.860 -0.3407  2.0603 -0.9576
  371MOL0     H50047   9.961  10.355   8.229 -1.0141 -0.9514  1.5015
  371MOL0     H50048  10.142  10.433   8.120 -1.8042 -1.9509 -0.2975
  371MOL0     H50049  10.370  10.527   8.101 -2.1681 -3.9216  0.4115
  371MOL0     H50050  10.467  10.582   8.246 -0.7911 -0.2915  1.2602
  371MOL0     H50051  10.652  10.419   8.156 -0.3387 -2.6536 -0.9316
  371MOL0     H50052  10.552  10.384   8.017  2.1535  1.1947 -1.9180
  371MOL0     H50053  10.561  10.613   7.936 -1.2207 -1.4739  0.3711
  371MOL0     H50054  10.664  10.675   8.067  0.8272  0.3930  0.3033
  371MOL0     H50055  10.735  10.458   7.852 -1.3513  0.9982  0.8050
  371MOL0     H50056  10.828  10.490   7.991 -0.3829 -1.1971  1.2503
  371MOL0     H50057  10.858  10.728   7.911  2.1883  0.1047 -0.0879
  371MOL0     H50058  10.768  10.687   7.765  0.5930 -0.5440 -0.0571
  371MOL0     H50059  11.012  10.691   7.731 -0.0692 -0.6977 -2.0342
  371MOL0     H50060  11.030  10.575   7.866  0.2523 -1.0294 -1.0268
  371MOL0     H50061  10.867  10.521   7.617 -0.5181 -1.2221  1.2922
  371MOL0     H50062  10.936  10.404   7.737 -0.2520  0.2678  0.3119
  371MOL0     H50063  11.061  10.394   7.529  2.2029  0.0464 -0.5483
  371MOL0     H50064  11.101  10.569   7.554  1.8863 -0.7918 -1.0650
  371MOL0     H50065  10.380  10.314   8.459  0.6863  4.1034 -1.1296
  371MOL0     H50066  10.187  10.247   8.588  0.5187 -1.2474 -1.0491
  371MOL0     H50067   9.691  10.188   8.455 -1.6070  0.4646  0.2099
  371MOL0     H50068   9.482  10.074   8.539 -1.1617 -0.0453  1.4771
  371MOL0     H50069   8.380   8.805   9.445 -1.7772 -3.0849 -1.1123
  371MOL0     H50070   8.206   8.647   9.547  1.7410 -0.1015  0.4510
  371MOL0     H50071   7.890   8.574   9.819  0.3993  2.0237  0.2326
  371MOL0     H50072   7.741   8.488   9.959  3.7676 -1.8277 -1.4094
  371MOL0     H50073   7.529   8.512  10.083 -0.3449 -0.1104  1.6806
  371MOL0     H50074   7.571   8.340  10.064  1.8180  1.7640  2.4718
  371MOL0     H50075   7.278   8.431  10.053  0.9207  0.6586 -3.2871
  371MOL0     H50076   7.360   8.382  10.202 -1.3801 -0.5920 -0.3128
  371MOL0     H50077   7.433   8.160  10.087 -1.5134 -2.2612 -0.0247
  371MOL0     H50078   7.320   8.208   9.953 -1.1638 -2.0605  1.0957
  371MOL0     H50079   7.228   8.191  10.238  1.5919  2.8061  0.2851
  371MOL0     H50080   7.134   8.218  10.112  1.2882  2.4761  2.6707
  371MOL0     H50081   7.106   7.817  10.082 -0.8522  0.2279  2.2205
  371MOL0     H50082   7.421   8.543   9.676 -1.2243 -0.2403  0.9556
  371MOL0     H50083   7.455   8.630   9.469 -0.9761  1.4730  0.6856
  371MOL0     H50084   7.550   8.776   9.487  0.0901 -0.4420  3.6496
  371MOL0     H50085   7.619   8.633   9.398  1.8334  0.4668  0.5588
  372MOL0     O50086   2.724   5.442   1.146 -0.2189 -0.2765 -0.9935
  372MOL0     C50087   2.780   5.430   1.254 -0.2210 -0.3528 -0.1899
  372MOL0     O50088   2.914   5.434   1.269 -0.3946  0.1992 -0.1235
  372MOL0     C50089   3.003   5.412   1.163 -0.6253 -0.8966  0.2759
  372MOL0     C50090   3.056   5.290   1.138  0.1662 -0.0661 -0.0952
  372MOL0     C50091   3.141   5.267   1.023  0.2396 -0.5636 -0.7682
  372MOL0     C50092   3.164   5.376   0.936 -0.0916 -0.4447 -0.1916
  372MOL0     O50093   3.234   5.342   0.827  1.3980  0.7511  0.3407
  372MOL0     C50094   3.229   5.435   0.717 -0.1949  0.3501  0.0722
  372MOL0     C50095   3.314   5.409   0.589  0.4335  0.2987  0.3322
  372MOL0     C50096   3.280   5.278   0.507 -0.5826 -0.0205 -0.5524
  372MOL0     C50097   3.415   5.217   0.455  0.2550 -0.6641 -0.4281
  372MOL0     C50098   3.397   5.062   0.439 -0.4269  0.0764  0.2128
  372MOL0     C50099   3.541   5.003   0.460 -0.7082 -0.0645  0.0020
  372MOL0     C50100   3.554   4.849   0.436 -0.1067  0.8176 -0.2222
  372MOL0     C50101   3.700   4.797   0.462 -0.6929  0.2247 -0.3729
  372MOL0     N50102   3.809   4.898   0.452  0.3204 -0.0749 -0.3774
  372MOL0     C50103   3.859   4.967   0.555 -0.0962 -0.8595  0.6279
  372MOL0     C50104   3.950   5.044   0.502 -0.2517  0.3351 -0.2443
  372MOL0     C50105   4.034   5.153   0.569 -0.2666  0.1706  0.2546
  372MOL0     C50106   4.139   5.095   0.653  0.7404 -0.0907 -1.1283
  372MOL0     C50107   4.225   5.210   0.725 -0.1533 -0.9669  0.3292
  372MOL0     C50108   4.372   5.164   0.758  0.1176  0.4956 -0.3082
  372MOL0     O50109   4.430   5.263   0.846  0.8928 -0.0261  0.5320
  372MOL0     C50110   4.563   5.269   0.868  0.3315  0.4520 -0.4591
  372MOL0     C50111   4.616   5.390   0.914 -0.6518  0.4448 -0.8356
  372MOL0     C50112   4.754   5.416   0.906  0.4065  0.2699 -0.5684
  372MOL0     C50113   4.843   5.318   0.853  0.2682  0.0580  0.5135
  372MOL0     C50114   4.980   5.341   0.820 -0.1753 -0.8323  0.0106
  372MOL0     O50115   5.016   5.472   0.833  0.0471  0.1968 -0.8343
  372MOL0     C50116   5.141   5.523   0.832  0.0823 -0.3708 -0.1679
  372MOL0     C50117   5.256   5.475   0.775 -0.3513 -0.2569  1.0231
  372MOL0     C50118   5.376   5.545   0.787  0.3481  0.6235  0.2241
  372MOL0     C50119   5.391   5.665   0.860  0.3269 -0.1706 -0.0810
  372MOL0     O50120   5.497   5.741   0.850  0.8270  0.1659 -0.4536
  372MOL0     C50121   5.615   5.698   0.778 -0.0880 -0.0585  0.9921
  372MOL0     C50122   5.715   5.823   0.769 -0.0554 -0.4731 -0.4286
  372MOL0     C50123   5.761   5.865   0.913  0.2877  1.0333  0.1712
  372MOL0     C50124   5.878   5.962   0.897 -0.0500  0.6443 -0.0005
  372MOL0     C50125   5.932   5.998   1.041 -0.4511  0.4862  0.3621
  372MOL0     C50126   6.080   6.037   1.029 -0.0982 -0.2476 -0.2297
  372MOL0     C50127   6.156   6.047   1.159 -0.8471  0.6233 -1.4494
  372MOL0     C50128   6.294   6.108   1.139  0.0199  0.2179 -0.2028
  372MOL0    Cl50129   6.371   6.084   1.304  0.2007 -0.1882 -0.3414
  372MOL0     C50130   5.269   5.713   0.916  0.2329 -1.0902  0.0055
  372MOL0     C50131   5.151   5.646   0.903  0.6776 -0.3363  0.3648
  372MOL0     O50132   5.054   5.247   0.808 -0.9995  0.5149 -0.4556
  372MOL0     C50133   4.789   5.196   0.837  0.2223  0.2776  0.3982
  372MOL0     C50134   4.653   5.169   0.838 -0.9097  0.0919  0.5225
  372MOL0     N50135   3.960   5.009   0.364 -0.5335  0.2010 -0.5672
  372MOL0     N50136   3.884   4.922   0.332  0.9922  0.3034 -0.0563
  372MOL0     C50137   3.102   5.497   0.957 -0.1031  0.0037  0.4477
  372MOL0     C50138   3.035   5.526   1.084  0.4971  1.2698 -0.0416
  372MOL0     C50139   2.705   5.406   1.387  0.4779 -0.3808 -0.1835
  372MOL0     C50140   2.750   5.311   1.483 -0.4229 -0.4116  0.1941
  372MOL0     C50141   2.672   5.274   1.592  0.6923  0.1327  0.7566
  372MOL0     C50142   2.550   5.329   1.625 -0.2349 -0.0841  0.0271
  372MOL0     O50143   2.474   5.318   1.741 -0.3049  0.3549  0.0930
  372MOL0     C50144   2.509   5.204   1.817  0.3349 -1.0926  0.5224
  372MOL0     C50145   2.402   5.178   1.908 -0.0135  0.5579 -0.0876
  372MOL0     C50146   2.376   5.282   2.024 -0.3527 -1.0945  0.5143
  372MOL0     C50147   2.327   5.231   2.158 -0.3838  0.5284 -0.2889
  372MOL0     C50148   2.186   5.202   2.122 -0.2366 -0.0213  0.2292
  372MOL0     C50149   2.075   5.164   2.123 -0.1345  0.3739  0.6436
  372MOL0     C50150   2.498   5.411   1.535 -0.4808 -1.8225  0.1323
  372MOL0     C50151   2.575   5.457   1.416 -0.2980  1.1683 -0.0179
  372MOL0     C50152   2.497   5.552   1.319  0.6939  0.7373  0.0411
  372MOL0     H50153   3.023   5.212   1.206  2.2552 -0.9889 -0.0424
  372MOL0     H50154   3.186   5.170   1.007 -1.2412 -1.5560  0.6970
  372MOL0     H50155   3.123   5.439   0.691 -0.4559  1.3286  1.1955
  372MOL0     H50156   3.257   5.537   0.746 -0.5318  0.7512 -0.9480
  372MOL0     H50157   3.418   5.414   0.625  2.3209  0.3295 -4.3350
  372MOL0     H50158   3.312   5.496   0.523  2.1941 -0.0544 -0.2700
  372MOL0     H50159   3.228   5.280   0.410  0.6226 -3.9089 -1.4867
  372MOL0     H50160   3.222   5.204   0.562 -0.2537  0.6232  0.6789
  372MOL0     H50161   3.446   5.270   0.364  0.1708  1.0187  0.4854
  372MOL0     H50162   3.493   5.231   0.530  0.3451 -0.4008 -0.5703
  372MOL0     H50163   3.326   5.033   0.517  0.0795  0.1877  0.7273
  372MOL0     H50164   3.338   5.029   0.353 -0.3383 -1.3380  0.6654
  372MOL0     H50165   3.623   5.056   0.410  0.3614 -1.8284 -0.1808
  372MOL0     H50166   3.560   5.018   0.566  0.4729 -1.9201  0.0806
  372MOL0     H50167   3.517   4.824   0.336 -0.5708 -0.3203  0.2156
  372MOL0     H50168   3.487   4.797   0.505 -1.7960  1.9872 -0.9202
  372MOL0     H50169   3.694   4.764   0.566  0.0610 -2.3012 -1.0718
  372MOL0     H50170   3.717   4.712   0.396 -2.5274  1.1260 -2.1318
  372MOL0     H50171   3.825   4.976   0.658  0.3983  2.2432  0.6115
  372MOL0     H50172   4.079   5.222   0.497 -1.9624  0.1231 -0.9000
  372MOL0     H50173   3.959   5.217   0.616 -0.2579 -0.8304  1.7026
  372MOL0     H50174   4.096   5.030   0.731  2.2704 -1.4704 -1.3729
  372MOL0     H50175   4.196   5.028   0.588  1.4644  0.4412 -1.0523
  372MOL0     H50176   4.179   5.240   0.820  0.0045  0.9887 -0.1821
  372MOL0     H50177   4.234   5.292   0.654 -0.4903  0.4124  1.8162
  372MOL0     H50178   4.428   5.150   0.665  0.1821 -1.9729  0.0425
  372MOL0     H50179   4.381   5.063   0.799 -0.1238  0.1492 -1.0801
  372MOL0     H50180   4.545   5.467   0.942 -1.3386  1.1439 -4.0887
  372MOL0     H50181   4.784   5.519   0.928  0.3425  0.6330 -2.1106
  372MOL0     H50182   5.262   5.375   0.732  0.1108 -0.1473  0.8366
  372MOL0     H50183   5.465   5.503   0.741  0.4607 -0.8033  1.6816
  372MOL0     H50184   5.662   5.616   0.833 -0.4445 -0.2649  0.9904
  372MOL0     H50185   5.594   5.657   0.679 -0.2705 -1.9625  1.7869
  372MOL0     H50186   5.806   5.798   0.715  0.4982 -0.2915  0.4134
  372MOL0     H50187   5.688   5.909   0.707 -4.3284  1.4886  3.5473
  372MOL0     H50188   5.674   5.907   0.965 -1.2544  3.0740 -3.6601
  372MOL0     H50189   5.809   5.779   0.961 -0.7460  0.2837 -0.1043
  372MOL0     H50190   5.858   6.056   0.844 -1.9408 -0.1948 -0.8676
  372MOL0     H50191   5.955   5.912   0.837 -1.1000 -0.6903 -0.2708
  372MOL0     H50192   5.925   5.911   1.106  2.1133 -1.2666 -1.4837
  372MOL0     H50193   5.872   6.082   1.076 -0.4558  0.0410  1.4385
  372MOL0     H50194   6.131   5.962   0.968  0.9419  1.0260 -0.9612
  372MOL0     H50195   6.086   6.128   0.970 -1.1868  0.2380  0.3759
  372MOL0     H50196   6.171   5.946   1.198 -1.9340  1.0471  0.1531
  372MOL0     H50197   6.097   6.108   1.228  1.0734  0.9349 -0.0350
  372MOL0     H50198   6.349   6.055   1.062  1.9420  0.6677  0.8057
  372MOL0     H50199   6.291   6.214   1.110  2.0386  0.5108  0.5006
  372MOL0     H50200   5.295   5.795   0.982 -0.9909  0.6400 -1.5755
  372MOL0     H50201   5.067   5.693   0.953 -0.5926  0.9754 -2.7456
  372MOL0     H50202   4.844   5.115   0.792 -0.3580  1.6879 -3.2248
  372MOL0     H50203   4.615   5.068   0.824  0.4419 -0.4428  0.6075
  372MOL0     H50204   3.108   5.570   0.877 -1.8049 -3.5802 -3.3214
  372MOL0     H50205   2.992   5.622   1.111  2.5520  1.4973  2.9380
  372MOL0     H50206   2.845   5.262   1.470 -0.5690 -0.7311  0.3138
  372MOL0     H50207   2.711   5.190   1.649  0.5271 -1.3191 -1.1553
  372MOL0     H50208   2.600   5.223   1.873  0.4942 -1.2363  0.3139
  372MOL0     H50209   2.513   5.116   1.752  0.2374 -0.8897  0.2395
  372MOL0     H50210   2.431   5.091   1.968 -1.7117  0.2306  0.3182
  372MOL0     H50211   2.308   5.141   1.866  0.6479 -0.9687 -0.3168
  372MOL0     H50212   2.308   5.355   1.978 -0.8914 -0.6036  2.0180
  372MOL0     H50213   2.471   5.337   2.033  1.2240 -3.1482 -2.0556
  372MOL0     H50214   2.374   5.142   2.201 -1.1806  1.8413  3.6948
  372MOL0     H50215   2.342   5.299   2.242  0.1898 -0.3400  0.3277
  372MOL0     H50216   1.978   5.120   2.137  0.9691 -2.1352  0.9223
  372MOL0     H50217   2.398   5.447   1.554  0.1292  0.1640 -0.1675
  372MOL0     H50218   2.562   5.633   1.284  0.5370 -0.0505 -2.2377
  372MOL0     H50219   2.466   5.493   1.233  2.0928 -0.7256  0.4768
  372MOL0     H50220   2.414   5.597   1.374 -0.8073  1.9714 -3.0310
  373MOL0     O50221   4.260   3.731   0.612  0.1164 -0.2370  0.2125
  373MOL0     C50222   4.360   3.800   0.593 -0.1808  0.0998 -0.2225
  373MOL0     O50223   4.417   3.837   0.473  0.1140  0.4117 -0.3004
  373MOL0     C50224   4.355   3.811   0.350 -0.6903  0.6600  0.3955
  373MOL0     C50225   4.244   3.730   0.317  0.7193 -0.2828  0.4471
  373MOL0     C50226   4.218   3.692   0.185  1.0296  0.0524  0.5567
  373MOL0     C50227   4.296   3.738   0.077  0.5163  0.6139  0.1766
  373MOL0     O50228   4.286   3.695  -0.059  0.0052  0.0563 -0.6209
  373MOL0     C50229   4.159   3.646  -0.115 -0.0985 -0.5523 -0.7259
  373MOL0     C50230   4.162   3.492  -0.105  0.0419 -0.5263  0.0671
  373MOL0     C50231   4.029   3.428  -0.099 -0.1629 -0.1510 -0.5170
  373MOL0     C50232   3.957   3.450   0.040 -1.1897  0.2411  0.3300
  373MOL0     C50233   3.846   3.353   0.086 -0.0937 -0.1444 -0.1354
  373MOL0     C50234   3.727   3.364  -0.009 -0.3223  0.1773  0.6536
  373MOL0     C50235   3.621   3.268   0.034 -0.1099 -0.3644  0.5706
  373MOL0     C50236   3.657   3.119   0.031 -0.7758 -0.7659 -0.4804
  373MOL0     N50237   3.714   3.079  -0.100 -0.3380 -1.1506 -0.1503
  373MOL0     C50238   3.647   3.024  -0.202  0.4107  0.4679  0.4444
  373MOL0     C50239   3.746   2.981  -0.284 -0.1723  0.4591 -0.0538
  373MOL0     C50240   3.736   2.902  -0.406 -0.7191  0.8790  0.6459
  373MOL0     C50241   3.707   2.752  -0.377  0.0779 -0.3276  0.1327
  373MOL0     C50242   3.565   2.712  -0.313  0.0623 -0.2457 -0.0163
  373MOL0     C50243   3.459   2.692  -0.422 -0.9029 -0.5388  1.3817
  373MOL0     O50244   3.337   2.657  -0.352 -0.1795  0.1551 -0.3018
  373MOL0     C50245   3.239   2.591  -0.416  0.3049  0.8631  0.6495
  373MOL0     C50246   3.239   2.566  -0.553  0.0369  0.5394 -0.5302
  373MOL0     C50247   3.150   2.469  -0.608 -0.0401 -0.1508 -0.1368
  373MOL0     C50248   3.063   2.401  -0.523 -0.2514 -0.1719  0.1768
  373MOL0     C50249   2.986   2.282  -0.576 -0.1543  0.7831 -0.4272
  373MOL0     O50250   2.887   2.231  -0.483 -0.2169 -0.2262  0.8397
  373MOL0     C50251   2.786   2.165  -0.549  0.7816  0.5195  0.6061
  373MOL0     C50252   2.683   2.223  -0.632 -0.7828 -0.2671 -0.2390
  373MOL0     C50253   2.588   2.136  -0.686 -0.2229 -0.0284 -0.1954
  373MOL0     C50254   2.591   2.002  -0.658  0.1394 -0.3286 -0.4256
  373MOL0     O50255   2.486   1.927  -0.710  0.8484 -0.0357  0.5323
  373MOL0     C50256   2.463   1.792  -0.669  0.0175  0.5841  0.6304
  373MOL0     C50257   2.313   1.747  -0.676 -0.3849  0.9330 -1.0390
  373MOL0     C50258   2.245   1.762  -0.532 -0.0789 -0.6417  0.5874
  373MOL0     C50259   2.097   1.726  -0.531 -0.4271  0.9318  0.0262
  373MOL0     C50260   2.008   1.836  -0.586 -0.4858  0.0691 -0.4413
  373MOL0     C50261   1.859   1.810  -0.540  0.8990 -0.7047 -0.1501
  373MOL0     C50262   1.764   1.896  -0.615 -0.4018 -0.0739  0.2248
  373MOL0     C50263   1.618   1.872  -0.554 -0.0848 -0.1424  0.3982
  373MOL0    Cl50264   1.596   1.974  -0.417  0.5935  0.4301 -0.3984
  373MOL0     C50265   2.684   1.947  -0.579 -0.2007  0.1148  0.1506
  373MOL0     C50266   2.786   2.025  -0.534  0.5147  0.2749 -0.6936
  373MOL0     O50267   3.010   2.233  -0.688  0.4239  0.4413 -0.7069
  373MOL0     C50268   3.056   2.437  -0.383 -0.5775  0.9502  0.1177
  373MOL0     C50269   3.141   2.531  -0.341 -0.3768 -0.3158 -0.3588
  373MOL0     N50270   3.866   3.017  -0.242 -0.1304  0.2974 -0.1029
  373MOL0     N50271   3.845   3.077  -0.132 -0.0527 -0.2628 -0.0335
  373MOL0     C50272   4.390   3.842   0.105  0.8726 -0.1065  0.3974
  373MOL0     C50273   4.420   3.868   0.244 -1.0500 -0.0139  0.8488
  373MOL0     C50274   4.425   3.856   0.712  0.9846  0.1997 -0.1775
  373MOL0     C50275   4.499   3.974   0.692  0.2026  0.3418 -1.2170
  373MOL0     C50276   4.553   4.037   0.804 -0.8270  0.1908 -0.2293
  373MOL0     C50277   4.529   3.993   0.929 -0.1014 -0.0282 -0.5424
  373MOL0     O50278   4.589   4.042   1.046  0.1234  0.1175 -0.4173
  373MOL0     C50279   4.678   4.152   1.034 -0.2850  0.2791  0.0020
  373MOL0     C50280   4.747   4.190   1.166 -0.5493  0.2034  0.4069
  373MOL0     C50281   4.808   4.336   1.152 -0.6234  0.9223  0.4497
  373MOL0     C50282   4.910   4.376   1.260  0.4399  0.6955  0.5976
  373MOL0     C50283   5.055   4.366   1.219  0.3163  0.3842  0.5079
  373MOL0     C50284   5.168   4.361   1.177  0.4976  0.2785 -0.2470
  373MOL0     C50285   4.454   3.882   0.940 -0.3378 -0.1199  0.1134
  373MOL0     C50286   4.400   3.809   0.841 -0.0515 -0.8723 -0.2602
  373MOL0     C50287   4.305   3.690   0.872 -0.0112 -0.1083  0.7210
  373MOL0     H50288   4.187   3.697   0.403  1.3129  1.4785  1.5712
  373MOL0     H50289   4.139   3.623   0.160  2.3709 -0.9624 -1.1032
  373MOL0     H50290   4.073   3.686  -0.060 -0.1482 -0.9962 -0.4737
  373MOL0     H50291   4.150   3.688  -0.216  1.0577  0.1133 -0.5740
  373MOL0     H50292   4.216   3.469  -0.013 -1.0812 -4.8610 -0.1410
  373MOL0     H50293   4.217   3.451  -0.190  0.5269  1.9505 -0.9107
  373MOL0     H50294   4.038   3.323  -0.125 -1.4046  0.0872 -2.0683
  373MOL0     H50295   3.967   3.460  -0.183  3.6965  0.7847 -3.2366
  373MOL0     H50296   4.034   3.446   0.118 -1.6774 -0.1427  0.8038
  373MOL0     H50297   3.914   3.551   0.042  0.5402  1.0277 -0.3424
  373MOL0     H50298   3.886   3.252   0.076  0.7739 -0.0847  2.1769
  373MOL0     H50299   3.820   3.381   0.189 -3.1906 -1.0639 -0.5563
  373MOL0     H50300   3.680   3.462  -0.007  0.4191  0.5893 -0.6828
  373MOL0     H50301   3.765   3.364  -0.112  1.1514  1.8694  1.1488
  373MOL0     H50302   3.542   3.290  -0.038  2.8449  2.7133 -2.0282
  373MOL0     H50303   3.581   3.293   0.133 -0.7903  1.5073 -0.1254
  373MOL0     H50304   3.731   3.117   0.113 -1.3486  2.7167  0.3041
  373MOL0     H50305   3.571   3.063   0.067 -1.4930  2.6518  4.1610
  373MOL0     H50306   3.543   3.004  -0.222  0.7778 -0.0492 -1.0411
  373MOL0     H50307   3.663   2.945  -0.475 -0.1187  4.0253  1.7790
  373MOL0     H50308   3.830   2.917  -0.461 -0.0133  1.8840  2.0509
  373MOL0     H50309   3.713   2.698  -0.473 -1.6539 -0.5337  0.1005
  373MOL0     H50310   3.787   2.714  -0.313  0.5793 -0.5707 -0.6178
  373MOL0     H50311   3.537   2.785  -0.237 -0.7595 -1.8123  1.2340
  373MOL0     H50312   3.589   2.614  -0.270 -0.0299 -0.3570 -0.2156
  373MOL0     H50313   3.499   2.619  -0.493  1.3744  2.4537 -0.6585
  373MOL0     H50314   3.438   2.779  -0.484 -0.5285 -2.8183 -2.1917
  373MOL0     H50315   3.316   2.614  -0.613  0.4493 -0.7550 -1.0724
  373MOL0     H50316   3.163   2.454  -0.715 -0.4222 -0.1022 -0.1930
  373MOL0     H50317   2.686   2.330  -0.653  0.3998 -0.1356  0.4962
  373MOL0     H50318   2.501   2.172  -0.739 -1.5349 -0.8867  1.2873
  373MOL0     H50319   2.518   1.723  -0.733  0.0696  1.1724  0.0181
  373MOL0     H50320   2.506   1.775  -0.570 -1.3115  1.1429  1.3306
  373MOL0     H50321   2.254   1.794  -0.755 -1.7465  2.5975  0.8861
  373MOL0     H50322   2.304   1.641  -0.700  0.2621  0.8806 -1.0827
  373MOL0     H50323   2.309   1.700  -0.468  1.8814 -0.5730 -1.2204
  373MOL0     H50324   2.254   1.869  -0.511 -0.5614 -0.4324 -0.2434
  373MOL0     H50325   2.069   1.702  -0.428  0.1052  0.0893 -0.0107
  373MOL0     H50326   2.076   1.635  -0.589 -0.9872  0.7061  0.5661
  373MOL0     H50327   2.016   1.844  -0.694  2.2393 -1.1207 -0.3933
  373MOL0     H50328   2.033   1.929  -0.533 -0.4561 -0.0769 -0.1955
  373MOL0     H50329   1.830   1.705  -0.554 -0.6050 -0.1995 -1.1281
  373MOL0     H50330   1.851   1.836  -0.434  0.3286  0.5965 -0.4942
  373MOL0     H50331   1.766   1.874  -0.722  3.3951  0.6612  0.0297
  373MOL0     H50332   1.794   2.000  -0.603 -1.2708  0.0855  1.1848
  373MOL0     H50333   1.537   1.885  -0.628  0.6681  2.1118 -0.0967
  373MOL0     H50334   1.604   1.771  -0.515 -1.5671  0.0860  0.5436
  373MOL0     H50335   2.693   1.841  -0.559 -2.5003 -0.7361 -2.5311
  373MOL0     H50336   2.874   1.996  -0.478 -1.8398 -0.1351  3.1109
  373MOL0     H50337   2.994   2.383  -0.312 -0.7108  2.0339  0.8642
  373MOL0     H50338   3.146   2.553  -0.235 -3.1706 -1.1800  0.0292
  373MOL0     H50339   4.449   3.882   0.023  0.9099  1.8512  1.3292
  373MOL0     H50340   4.491   3.946   0.268  0.6828 -0.9710 -0.8770
  373MOL0     H50341   4.522   4.012   0.593 -0.6450 -2.4147 -2.5723
  373MOL0     H50342   4.601   4.133   0.786 -0.4534 -0.1048 -0.8175
  373MOL0     H50343   4.619   4.238   1.001 -0.3915  0.6670  1.1432
  373MOL0     H50344   4.758   4.141   0.960 -0.3314  0.5747 -0.0919
  373MOL0     H50345   4.816   4.112   1.200 -1.5059 -1.5084 -1.3666
  373MOL0     H50346   4.664   4.198   1.237  1.7823  0.5705  3.2836
  373MOL0     H50347   4.721   4.401   1.136 -0.8883  0.5446  0.3615
  373MOL0     H50348   4.870   4.337   1.062 -0.9985  0.4185  0.1821
  373MOL0     H50349   4.884   4.479   1.288  0.7479  0.5307  1.5343
  373MOL0     H50350   4.891   4.305   1.341  0.1864 -0.0189 -0.0764
  373MOL0     H50351   5.268   4.358   1.140  0.1384 -0.4423 -1.1943
  373MOL0     H50352   4.438   3.836   1.036  0.3700 -1.1831 -0.2628
  373MOL0     H50353   4.330   3.601   0.813  0.1502  0.0364  0.5691
  373MOL0     H50354   4.305   3.662   0.977  1.3564 -3.6019 -0.0818
  373MOL0     H50355   4.199   3.715   0.857 -0.7595 -3.0883  0.4387
  374MOL0     O50356   7.504  11.134   7.526  0.0719  0.6543  0.0199
  374MOL0     C50357   7.448  11.188   7.429 -0.6590 -0.2577 -0.2726
  374MOL0     O50358   7.511  11.212   7.312  0.2345  0.8904  0.3147
  374MOL0     C50359   7.640  11.169   7.301 -0.1161  0.2523 -0.2576
  374MOL0     C50360   7.742  11.244   7.366 -0.0046  0.3113 -0.1586
  374MOL0     C50361   7.875  11.197   7.358  0.4681 -0.4224  0.5556
  374MOL0     C50362   7.909  11.080   7.280 -0.3841 -0.9157  0.3307
  374MOL0     O50363   8.036  11.042   7.291  0.3939  0.3100  0.1261
  374MOL0     C50364   8.074  10.907   7.277  1.1477 -0.2459  0.0311
  374MOL0     C50365   8.218  10.879   7.324  1.0196 -0.2364 -0.0986
  374MOL0     C50366   8.320  10.965   7.266 -1.3602  0.3437  0.2388
  374MOL0     C50367   8.465  10.907   7.295  0.6908  0.0646  0.0980
  374MOL0     C50368   8.518  10.942   7.436 -0.0441  0.6890 -1.0137
  374MOL0     C50369   8.676  10.906   7.453  0.1328  0.5946  0.0497
  374MOL0     C50370   8.725  10.966   7.586  0.2837  0.2297  1.5067
  374MOL0     C50371   8.868  11.000   7.566  0.6716  0.6411 -0.1905
  374MOL0     N50372   8.905  11.126   7.520 -0.2429  0.1054 -0.3680
  374MOL0     C50373   8.852  11.250   7.563  0.1700 -0.0419  0.2915
  374MOL0     C50374   8.947  11.338   7.523 -0.1688  0.0088  0.2161
  374MOL0     C50375   8.975  11.491   7.535  0.8400 -0.3004 -0.4886
  374MOL0     C50376   8.971  11.539   7.689 -0.5937  0.4112 -0.4231
  374MOL0     C50377   8.959  11.687   7.694 -0.0073  0.1164  0.4771
  374MOL0     C50378   8.944  11.744   7.834  0.1183 -0.9778 -0.0499
  374MOL0     O50379   9.042  11.705   7.929 -0.2232 -0.3650 -0.1019
  374MOL0     C50380   9.169  11.753   7.922  0.9522 -0.5881  0.3376
  374MOL0     C50381   9.261  11.674   7.991  0.2593 -0.2539 -0.1167
  374MOL0     C50382   9.398  11.706   7.989 -0.4188 -0.3657 -0.3748
  374MOL0     C50383   9.447  11.820   7.912  0.2255 -0.9177  0.1895
  374MOL0     C50384   9.589  11.858   7.911 -1.1090  0.2404  0.3127
  374MOL0     O50385   9.615  11.978   7.857 -0.1534  0.3636  0.2428
  374MOL0     C50386   9.746  12.020   7.867 -0.3923 -0.2098 -0.5309
  374MOL0     C50387   9.842  11.983   7.767  0.3842  0.3369 -0.7614
  374MOL0     C50388   9.965  12.050   7.768  0.2760  0.6001  0.5720
  374MOL0     C50389   9.997  12.147   7.861 -0.2341 -0.4587  0.4824
  374MOL0     O50390  10.123  12.191   7.846 -1.0176 -0.4148  0.6710
  374MOL0     C50391  10.184  12.271   7.954  0.7673  0.4674  0.7600
  374MOL0     C50392  10.338  12.278   7.949  0.3267 -0.0220  0.2560
  374MOL0     C50393  10.387  12.409   7.888  0.9724  0.8056 -0.4213
  374MOL0     C50394  10.541  12.403   7.903  0.1286  1.8740  0.0830
  374MOL0     C50395  10.607  12.535   7.865 -1.2591 -0.5705  0.3865
  374MOL0     C50396  10.764  12.522   7.869  0.6282 -0.2946  0.2677
  374MOL0     C50397  10.835  12.655   7.850 -0.6927  0.0113  0.1931
  374MOL0     C50398  10.971  12.636   7.777 -0.5103 -0.3037 -0.0150
  374MOL0    Cl50399  11.075  12.780   7.801 -0.0240 -0.0611  0.0346
  374MOL0     C50400   9.904  12.180   7.960 -1.3002  0.4549 -0.1419
  374MOL0     C50401   9.779  12.116   7.963 -1.2060  0.4623  0.4969
  374MOL0     O50402   9.674  11.777   7.958 -0.5751  0.7107 -0.3053
  374MOL0     C50403   9.354  11.889   7.829 -0.1070  0.2177 -0.0810
  374MOL0     C50404   9.218  11.862   7.835 -0.0174 -0.0729 -0.7728
  374MOL0     N50405   9.045  11.270   7.458  0.2366 -0.3034  0.0158
  374MOL0     N50406   9.026  11.146   7.455  0.6179 -0.6945  0.3569
  374MOL0     C50407   7.808  11.015   7.214  0.1399  0.0559  0.6286
  374MOL0     C50408   7.669  11.052   7.231  1.0769  0.6005  0.3241
  374MOL0     C50409   7.311  11.235   7.438 -0.3232 -0.7043  0.5081
  374MOL0     C50410   7.254  11.281   7.318  0.3806 -0.9029 -0.3184
  374MOL0     C50411   7.121  11.325   7.314 -0.9328  0.5102 -0.1922
  374MOL0     C50412   7.043  11.312   7.427  0.9553  0.2546 -0.7570
  374MOL0     O50413   6.909  11.325   7.435 -0.1269  0.0831 -0.0081
  374MOL0     C50414   6.823  11.317   7.319 -0.0300  0.7438 -0.2122
  374MOL0     C50415   6.690  11.335   7.371  0.6073 -0.2701  0.1573
  374MOL0     C50416   6.584  11.305   7.268  0.5426  0.6148  0.6331
  374MOL0     C50417   6.444  11.282   7.331  0.3900 -0.2590  0.3951
  374MOL0     C50418   6.400  11.418   7.376  0.1217  0.4937  0.0657
  374MOL0     C50419   6.378  11.533   7.408  1.0810 -0.4447  0.2563
  374MOL0     C50420   7.098  11.258   7.548 -0.7754 -0.8173 -0.4380
  374MOL0     C50421   7.235  11.230   7.556  0.0953 -0.4180  0.0793
  374MOL0     C50422   7.272  11.174   7.695 -0.5982 -0.0086 -0.0305
  374MOL0     H50423   7.719  11.322   7.438  0.2422  0.7790 -0.5796
  374MOL0     H50424   7.948  11.244   7.423  0.2753  2.0471 -0.9029
  374MOL0     H50425   8.006  10.837   7.325  1.2080 -1.3152 -1.3886
  374MOL0     H50426   8.058  10.891   7.171  0.2156 -1.5688  0.3532
  374MOL0     H50427   8.227  10.776   7.287 -3.3387 -0.1767 -1.8734
  374MOL0     H50428   8.224  10.895   7.432 -1.0966  2.1989 -0.2743
  374MOL0     H50429   8.326  11.069   7.301 -1.3564  0.1373  0.8677
  374MOL0     H50430   8.309  10.956   7.158 -1.3666 -1.4871  0.3665
  374MOL0     H50431   8.469  10.800   7.270  2.3999  0.7104 -2.8147
  374MOL0     H50432   8.524  10.964   7.223 -0.5634  0.4804 -0.6262
  374MOL0     H50433   8.498  11.046   7.460  2.2025  1.5586 -2.5812
  374MOL0     H50434   8.470  10.885   7.517  0.4152  1.0935 -0.4437
  374MOL0     H50435   8.675  10.797   7.454 -2.2614  0.5514  1.0253
  374MOL0     H50436   8.727  10.958   7.371 -1.2596 -0.5046 -1.5797
  374MOL0     H50437   8.705  10.891   7.663 -2.3833 -1.7844 -0.9228
  374MOL0     H50438   8.677  11.061   7.609  1.4398  0.5579  2.6666
  374MOL0     H50439   8.908  10.976   7.665  2.0379 -2.3227 -1.3586
  374MOL0     H50440   8.905  10.924   7.497 -1.3803 -0.9066  0.3056
  374MOL0     H50441   8.765  11.269   7.625 -1.7442 -1.5252 -1.7794
  374MOL0     H50442   9.074  11.501   7.489  1.2189 -2.8637 -0.3893
  374MOL0     H50443   8.904  11.541   7.469  1.5571 -0.4171 -1.3711
  374MOL0     H50444   8.896  11.480   7.743  1.4237 -2.4355 -0.4883
  374MOL0     H50445   9.063  11.508   7.740  0.2676 -0.5841 -2.4967
  374MOL0     H50446   8.884  11.720   7.622  0.8809  0.1744 -0.4488
  374MOL0     H50447   9.051  11.732   7.654  0.2461  1.1513  2.1481
  374MOL0     H50448   8.845  11.710   7.866 -0.9116  1.0292 -0.9088
  374MOL0     H50449   8.934  11.853   7.832  0.0769 -0.9536  0.8158
  374MOL0     H50450   9.236  11.604   8.070  0.6837 -1.2608 -0.8531
  374MOL0     H50451   9.463  11.652   8.057 -0.5874 -0.4111 -0.2487
  374MOL0     H50452   9.810  11.911   7.693  1.6056 -0.8205 -0.2178
  374MOL0     H50453  10.027  12.017   7.686 -0.4286 -2.5596  1.1727
  374MOL0     H50454  10.153  12.373   7.931 -0.4819 -0.6311 -3.2289
  374MOL0     H50455  10.160  12.222   8.049  4.2740 -2.0217  0.5748
  374MOL0     H50456  10.380  12.278   8.050 -1.2131  3.1993  1.0348
  374MOL0     H50457  10.376  12.196   7.887 -0.4447  1.0432 -1.7350
  374MOL0     H50458  10.358  12.437   7.786 -1.0126 -0.7239 -0.3311
  374MOL0     H50459  10.339  12.485   7.950 -2.3636 -1.6943  0.3337
  374MOL0     H50460  10.571  12.321   7.838 -0.3006 -0.0869  2.2432
  374MOL0     H50461  10.577  12.372   8.002  0.0895  0.2978 -0.3709
  374MOL0     H50462  10.586  12.620   7.930  2.9558  0.2434  0.9814
  374MOL0     H50463  10.575  12.561   7.764 -2.7455  1.8851  1.4178
  374MOL0     H50464  10.796  12.468   7.959 -1.6859 -2.7135 -0.2281
  374MOL0     H50465  10.784  12.459   7.782 -0.4241 -1.5535  0.9042
  374MOL0     H50466  10.853  12.696   7.950  1.9566 -3.0041  1.1390
  374MOL0     H50467  10.767  12.711   7.786 -1.2995 -1.3610 -0.4178
  374MOL0     H50468  11.024  12.552   7.824 -0.7744  0.9663  2.7174
  374MOL0     H50469  10.966  12.615   7.670  1.3469 -0.6421 -0.0786
  374MOL0     H50470   9.937  12.258   8.028  0.9190  0.8868 -1.6217
  374MOL0     H50471   9.703  12.142   8.036 -0.4536  2.0827  0.7507
  374MOL0     H50472   9.391  11.956   7.752 -0.8441 -0.4023 -1.0081
  374MOL0     H50473   9.156  11.918   7.766  0.4860  1.1343 -0.2685
  374MOL0     H50474   7.831  10.928   7.153  1.2754 -0.1957  1.3854
  374MOL0     H50475   7.591  10.999   7.177  0.7944  2.0200 -0.7439
  374MOL0     H50476   7.322  11.290   7.234  1.6356 -3.0107  0.3861
  374MOL0     H50477   7.082  11.369   7.222 -2.7004 -2.2674 -0.8876
  374MOL0     H50478   6.831  11.221   7.268 -0.8931  1.0612 -0.9712
  374MOL0     H50479   6.859  11.391   7.246 -0.0219  0.8981 -0.0519
  374MOL0     H50480   6.679  11.442   7.392  4.1110  0.6879 -2.1040
  374MOL0     H50481   6.681  11.271   7.460  0.9610  0.5594  0.8049
  374MOL0     H50482   6.608  11.212   7.217 -1.3748  0.8079 -0.7033
  374MOL0     H50483   6.578  11.376   7.185  0.4130 -0.5854 -0.4110
  374MOL0     H50484   6.368  11.242   7.263 -0.4532  1.8074  0.0525
  374MOL0     H50485   6.450  11.209   7.412 -0.2134 -1.0678 -0.2573
  374MOL0     H50486   6.362  11.637   7.430  1.3300 -0.3733  0.1057
  374MOL0     H50487   7.038  11.253   7.638  1.2480 -1.3499  0.9420
  374MOL0     H50488   7.345  11.235   7.748 -2.3194  2.3522 -0.2097
  374MOL0     H50489   7.183  11.172   7.759 -1.9188  0.4548 -1.7738
  374MOL0     H50490   7.305  11.069   7.689 -3.4031 -0.9910  0.3174
  375MOL0     O50491   2.432   2.746   8.477 -0.2056  0.2660  0.4655
  375MOL0     C50492   2.374   2.696   8.572 -1.1763 -0.7688 -0.5988
  375MOL0     O50493   2.429   2.588   8.650  0.6149  0.1115 -0.0780
  375MOL0     C50494   2.564   2.561   8.627 -0.0801  0.4039 -0.3827
  375MOL0     C50495   2.616   2.485   8.514  0.2913  0.1981 -0.2523
  375MOL0     C50496   2.750   2.458   8.503  0.1029  0.2878 -0.4051
  375MOL0     C50497   2.837   2.505   8.596 -1.0283 -0.1362 -0.0644
  375MOL0     O50498   2.974   2.478   8.573  0.5558  0.7218  0.1441
  375MOL0     C50499   3.074   2.557   8.642  0.6980 -0.4027  0.4901
  375MOL0     C50500   3.211   2.505   8.629 -0.5819 -0.3911  0.0605
  375MOL0     C50501   3.267   2.505   8.488 -0.8836  0.4290 -0.5666
  375MOL0     C50502   3.386   2.407   8.476  0.5121  0.2168  0.3205
  375MOL0     C50503   3.500   2.457   8.564  0.9307 -0.2803  1.2501
  375MOL0     C50504   3.633   2.377   8.532 -0.1673  0.2034 -0.4119
  375MOL0     C50505   3.702   2.423   8.410 -0.9268  0.8008  0.2020
  375MOL0     C50506   3.775   2.559   8.417 -0.6142 -0.9663  0.6057
  375MOL0     N50507   3.900   2.554   8.497 -0.9672  0.0600 -0.3020
  375MOL0     C50508   4.025   2.494   8.471  0.5817 -0.6486  0.4136
  375MOL0     C50509   4.119   2.538   8.557  0.0410 -0.8230 -0.2545
  375MOL0     C50510   4.257   2.497   8.587 -0.7496  0.5378  0.3479
  375MOL0     C50511   4.346   2.609   8.634  0.1293 -0.6708 -0.0234
  375MOL0     C50512   4.484   2.570   8.685 -0.0438 -0.3417 -0.8422
  375MOL0     C50513   4.480   2.553   8.843 -0.0258  0.3262  0.0627
  375MOL0     O50514   4.606   2.500   8.880 -0.7308  0.3246  0.1271
  375MOL0     C50515   4.725   2.568   8.913  0.2239 -0.3794 -1.2773
  375MOL0     C50516   4.742   2.711   8.928  0.3882  0.4149 -0.4643
  375MOL0     C50517   4.864   2.763   8.975  0.0453  0.7133 -0.6336
  375MOL0     C50518   4.972   2.678   9.001 -0.1014  0.2340  0.4149
  375MOL0     C50519   5.094   2.740   9.043 -0.1899  0.5666  0.1788
  375MOL0     O50520   5.103   2.875   9.028 -0.0747 -0.3517 -0.4676
  375MOL0     C50521   5.216   2.938   9.086  0.2902 -0.2627 -0.6791
  375MOL0     C50522   5.340   2.945   9.020 -0.3603  0.2462  0.1527
  375MOL0     C50523   5.450   3.010   9.073 -0.2312 -0.3782 -0.4455
  375MOL0     C50524   5.437   3.067   9.206  0.0244  0.8886  0.2576
  375MOL0     O50525   5.534   3.131   9.277 -0.7424  0.0933 -0.5080
  375MOL0     C50526   5.639   3.206   9.204  0.3250 -0.2827  0.6025
  375MOL0     C50527   5.689   3.308   9.298 -0.1228 -0.4149  0.2332
  375MOL0     C50528   5.770   3.417   9.225  0.2769  0.0829  2.0391
  375MOL0     C50529   5.841   3.499   9.329  0.0331  0.5302  0.4534
  375MOL0     C50530   5.988   3.461   9.341 -0.1064  0.3283 -0.3906
  375MOL0     C50531   6.082   3.527   9.236 -0.4359 -0.6600 -0.1340
  375MOL0     C50532   6.203   3.438   9.235 -0.6329 -0.4242 -0.4454
  375MOL0     C50533   6.305   3.479   9.126 -0.6865  0.0566  0.0306
  375MOL0    Cl50534   6.309   3.653   9.093  0.5850 -0.2509 -0.1131
  375MOL0     C50535   5.310   3.053   9.270 -0.2181  0.2018 -0.2760
  375MOL0     C50536   5.203   2.990   9.213  0.3152 -0.0383 -0.4969
  375MOL0     O50537   5.178   2.672   9.100 -0.2443  0.6390  0.4371
  375MOL0     C50538   4.962   2.538   8.976 -0.7102 -0.6897 -0.4899
  375MOL0     C50539   4.834   2.493   8.940 -1.0624 -0.2890 -0.9703
  375MOL0     N50540   4.048   2.633   8.634 -0.5678 -0.3688 -0.3329
  375MOL0     N50541   3.925   2.647   8.597 -0.3000  0.3419 -0.1359
  375MOL0     C50542   2.788   2.585   8.697 -0.0949 -0.4897 -0.1305
  375MOL0     C50543   2.652   2.620   8.713  0.2337  0.1483  0.3225
  375MOL0     C50544   2.262   2.761   8.630 -0.9565 -0.1912 -0.2313
  375MOL0     C50545   2.247   2.765   8.771 -0.5259 -0.9167 -0.1064
  375MOL0     C50546   2.152   2.854   8.828  0.7610  0.3222  0.2758
  375MOL0     C50547   2.074   2.934   8.749  0.1600 -0.5240 -0.1397
  375MOL0     O50548   1.992   3.030   8.797  0.2072 -0.0406 -0.0765
  375MOL0     C50549   1.961   3.026   8.935 -0.2492  0.0505  0.4223
  375MOL0     C50550   1.857   3.127   8.979  1.4933  0.9393 -1.1587
  375MOL0     C50551   1.743   3.128   8.868  0.0869  0.2689  0.1629
  375MOL0     C50552   1.607   3.203   8.906  0.8302  0.6033 -1.2937
  375MOL0     C50553   1.563   3.163   9.044  0.6789 -0.2830  0.6067
  375MOL0     C50554   1.524   3.126   9.155 -0.3993 -0.1876 -0.1506
  375MOL0     C50555   2.091   2.929   8.616 -0.1329 -1.0846  1.2526
  375MOL0     C50556   2.183   2.842   8.544  0.2160 -0.3458  0.4424
  375MOL0     C50557   2.173   2.825   8.393 -0.1913 -0.2610  0.6605
  375MOL0     H50558   2.540   2.449   8.446 -1.6146  1.9723  0.8303
  375MOL0     H50559   2.782   2.393   8.422 -2.0549 -2.1879  0.5947
  375MOL0     H50560   3.069   2.656   8.595  0.8349 -1.2624 -1.4127
  375MOL0     H50561   3.044   2.555   8.748 -1.4504 -2.0317 -0.0867
  375MOL0     H50562   3.209   2.402   8.664  2.3460 -0.6529 -0.3419
  375MOL0     H50563   3.283   2.546   8.700 -0.8615 -3.5909  2.3652
  375MOL0     H50564   3.293   2.603   8.447 -0.9896  0.5018 -0.4612
  375MOL0     H50565   3.189   2.468   8.422  0.2859  2.5231 -3.3124
  375MOL0     H50566   3.369   2.302   8.501  0.4924  0.6249  2.1130
  375MOL0     H50567   3.411   2.413   8.370  2.5011  1.5637  0.8089
  375MOL0     H50568   3.509   2.566   8.555 -0.4800 -0.2225  0.2127
  375MOL0     H50569   3.466   2.431   8.665 -1.9311 -2.8286 -0.2146
  375MOL0     H50570   3.698   2.394   8.618 -0.5830 -1.5973  0.3238
  375MOL0     H50571   3.603   2.272   8.528  1.0334 -0.2619  1.5266
  375MOL0     H50572   3.638   2.412   8.322 -0.2739 -1.2817 -0.0718
  375MOL0     H50573   3.784   2.353   8.390 -2.0166 -1.1462  2.0796
  375MOL0     H50574   3.798   2.582   8.312 -1.1168 -1.4709  0.3822
  375MOL0     H50575   3.700   2.632   8.450 -1.9400 -0.9828 -2.0687
  375MOL0     H50576   4.041   2.423   8.390 -0.8594  2.1387 -2.5322
  375MOL0     H50577   4.262   2.426   8.670 -0.1945 -0.6402 -0.6655
  375MOL0     H50578   4.303   2.446   8.502  1.6822  1.8204  0.7883
  375MOL0     H50579   4.365   2.679   8.552 -0.0780  1.2351  1.4724
  375MOL0     H50580   4.297   2.667   8.713 -0.0619 -0.2270 -0.4633
  375MOL0     H50581   4.547   2.657   8.662 -1.1061  0.3183 -1.3190
  375MOL0     H50582   4.535   2.491   8.630  1.4168 -0.3328  0.4371
  375MOL0     H50583   4.403   2.482   8.874 -0.0715  0.7384  0.9260
  375MOL0     H50584   4.471   2.649   8.894  2.5579  0.2782  0.7569
  375MOL0     H50585   4.662   2.781   8.906 -0.0890 -0.6051 -2.0748
  375MOL0     H50586   4.872   2.868   9.003 -0.0339 -0.2189  3.7290
  375MOL0     H50587   5.342   2.894   8.924  1.7452  2.2440 -0.9493
  375MOL0     H50588   5.548   3.014   9.026  0.2409 -1.6858  0.3604
  375MOL0     H50589   5.717   3.143   9.160  2.2205  3.6860 -2.3108
  375MOL0     H50590   5.598   3.269   9.125 -0.9362 -1.9772 -0.1613
  375MOL0     H50591   5.603   3.366   9.333  0.2294 -1.5270  3.2257
  375MOL0     H50592   5.730   3.257   9.386  1.5250  0.7977  0.2176
  375MOL0     H50593   5.837   3.362   9.157 -1.9190 -1.8800  1.3532
  375MOL0     H50594   5.704   3.475   9.159 -0.4399 -3.1153 -0.3348
  375MOL0     H50595   5.794   3.485   9.427 -2.1786 -0.2809 -0.6466
  375MOL0     H50596   5.849   3.603   9.299  1.6740  0.3733  0.3062
  375MOL0     H50597   5.994   3.352   9.346  0.2387  0.3378 -0.5378
  375MOL0     H50598   6.030   3.498   9.435  1.2034 -1.9711  0.0120
  375MOL0     H50599   6.028   3.547   9.143 -0.2996  0.0024 -0.0701
  375MOL0     H50600   6.109   3.624   9.278  0.3287 -0.1117 -1.8079
  375MOL0     H50601   6.180   3.334   9.211  2.4825 -0.8613 -2.0680
  375MOL0     H50602   6.249   3.445   9.334 -2.6015  2.3681  0.4077
  375MOL0     H50603   6.406   3.438   9.134 -0.0838  1.2015 -1.3350
  375MOL0     H50604   6.271   3.432   9.033 -3.2346  0.8357  0.4902
  375MOL0     H50605   5.313   3.103   9.367 -2.7978  0.6337 -0.3323
  375MOL0     H50606   5.112   2.978   9.270  0.5340  0.4744 -0.0319
  375MOL0     H50607   5.047   2.478   9.006 -0.4675  0.8437  2.2088
  375MOL0     H50608   4.833   2.385   8.935 -1.2330 -0.3140 -0.4618
  375MOL0     H50609   2.853   2.625   8.774 -0.0039 -0.8885  0.0019
  375MOL0     H50610   2.612   2.680   8.794 -2.2468 -0.6305 -0.2511
  375MOL0     H50611   2.311   2.708   8.837  0.2822 -0.3865 -0.4090
  375MOL0     H50612   2.153   2.855   8.937 -1.4208  1.4511  0.3363
  375MOL0     H50613   2.050   3.048   8.995 -1.3118  0.1436  2.0098
  375MOL0     H50614   1.926   2.928   8.967  0.7420 -0.3881  0.2108
  375MOL0     H50615   1.895   3.229   8.990 -2.1762  2.2595  1.3095
  375MOL0     H50616   1.816   3.100   9.076 -1.6582  0.4292 -2.5050
  375MOL0     H50617   1.715   3.026   8.843 -0.2369  1.0994 -3.3151
  375MOL0     H50618   1.800   3.164   8.783  1.9516 -1.3225  0.6739
  375MOL0     H50619   1.618   3.311   8.911 -1.3628  0.8100  2.3092
  375MOL0     H50620   1.517   3.173   8.851 -1.8724  1.5137  2.2702
  375MOL0     H50621   1.504   3.088   9.253 -1.9857  1.0916  0.0732
  375MOL0     H50622   2.030   3.003   8.566  1.9626  0.9549  1.4935
  375MOL0     H50623   2.076   2.852   8.350 -1.3688 -2.5859  1.6933
  375MOL0     H50624   2.253   2.867   8.331  1.0225 -1.8216  1.1202
  375MOL0     H50625   2.167   2.719   8.364 -0.8137 -0.4549  1.4574
  376MOL0     O50626   2.996   0.555   8.410 -0.4021 -0.2982  0.7585
  376MOL0     C50627   2.973   0.434   8.389  1.3784 -0.3896  0.1625
  376MOL0     O50628   2.846   0.385   8.368  0.2760 -0.1528 -0.1633
  376MOL0     C50629   2.730   0.459   8.377  0.4105 -0.4865  0.1046
  376MOL0     C50630   2.707   0.528   8.490  0.5327 -0.0169  0.0675
  376MOL0     C50631   2.582   0.592   8.512  0.0460  0.0618  0.6092
  376MOL0     C50632   2.480   0.596   8.412  0.4886  0.7778  0.0273
  376MOL0     O50633   2.355   0.665   8.418 -0.4039  0.0635 -0.1279
  376MOL0     C50634   2.274   0.633   8.536  0.3587 -0.1945 -0.3540
  376MOL0     C50635   2.146   0.698   8.496  0.1228 -0.2059  0.0552
  376MOL0     C50636   2.033   0.653   8.597 -0.3954  0.1807 -0.1204
  376MOL0     C50637   1.890   0.690   8.559 -0.1617 -0.3513 -1.2449
  376MOL0     C50638   1.799   0.709   8.681  0.5900 -0.9035  0.2130
  376MOL0     C50639   1.666   0.783   8.623  0.4096 -0.7605 -1.2190
  376MOL0     C50640   1.568   0.812   8.742  0.0206 -0.1102 -1.0747
  376MOL0     C50641   1.482   0.692   8.786 -0.3733 -0.2639 -0.0770
  376MOL0     N50642   1.380   0.676   8.681  0.0988 -0.2239 -0.0071
  376MOL0     C50643   1.264   0.750   8.668 -0.1237 -0.0978  0.5275
  376MOL0     C50644   1.185   0.698   8.576  0.2595 -0.3284  0.0127
  376MOL0     C50645   1.034   0.736   8.555  0.4448 -0.4997  1.0266
  376MOL0     C50646   0.933   0.640   8.617 -0.1131  0.4209  0.5612
  376MOL0     C50647   0.926   0.506   8.545  0.5500  0.8112 -0.0715
  376MOL0     C50648   0.890   0.385   8.629  0.2431  0.6953  0.2919
  376MOL0     O50649   0.879   0.265   8.549  0.4148 -0.0984 -0.5250
  376MOL0     C50650   0.991   0.192   8.518 -0.2808 -0.3015  0.5147
  376MOL0     C50651   0.981   0.076   8.452 -0.9557  0.6994 -0.3243
  376MOL0     C50652   1.098  -0.001   8.414  0.2483 -0.8890 -0.2481
  376MOL0     C50653   1.230   0.046   8.445 -0.2171  0.9001 -0.0043
  376MOL0     C50654   1.344  -0.043   8.414  0.3260  0.0512 -0.1646
  376MOL0     O50655   1.468   0.008   8.449  0.5564  0.4034 -0.0732
  376MOL0     C50656   1.579  -0.078   8.449  0.0026  0.4772  0.6593
  376MOL0     C50657   1.578  -0.189   8.526  0.6044 -0.2278 -0.6627
  376MOL0     C50658   1.692  -0.270   8.544 -0.5549  0.9301  0.5651
  376MOL0     C50659   1.807  -0.241   8.455  0.1411  0.1884 -0.4019
  376MOL0     O50660   1.917  -0.314   8.466 -0.7020  0.0145 -0.1399
  376MOL0     C50661   1.920  -0.447   8.525 -0.0839  0.5591 -0.1861
  376MOL0     C50662   2.051  -0.516   8.483 -0.3110 -0.2305  0.0569
  376MOL0     C50663   2.167  -0.483   8.574 -0.3924  0.3169 -0.2489
  376MOL0     C50664   2.299  -0.532   8.526  0.2131  0.9596 -0.7261
  376MOL0     C50665   2.411  -0.517   8.636 -0.9132  1.0772  1.1574
  376MOL0     C50666   2.553  -0.573   8.577  0.2300  0.9366 -0.2705
  376MOL0     C50667   2.662  -0.533   8.686  1.6096 -0.3659 -0.2079
  376MOL0     C50668   2.792  -0.600   8.655  0.2189 -0.8364 -0.1333
  376MOL0    Cl50669   2.938  -0.510   8.710 -0.0341  0.1328 -0.3348
  376MOL0     C50670   1.797  -0.136   8.365 -0.7132 -0.5307 -0.3857
  376MOL0     C50671   1.698  -0.043   8.376 -0.3493  0.4394 -0.2228
  376MOL0     O50672   1.324  -0.157   8.372 -0.1298  1.0711 -0.4540
  376MOL0     C50673   1.239   0.180   8.497  0.5729 -0.3566 -0.1825
  376MOL0     C50674   1.127   0.242   8.537  0.1535  0.6080  1.1946
  376MOL0     N50675   1.261   0.592   8.519 -0.1976 -0.5892 -0.5370
  376MOL0     N50676   1.373   0.585   8.584 -0.2605  0.5417 -0.3255
  376MOL0     C50677   2.518   0.539   8.288 -0.2279 -0.2035  0.1904
  376MOL0     C50678   2.641   0.470   8.270 -0.8148 -0.2823  0.8636
  376MOL0     C50679   3.088   0.353   8.367 -0.1412  0.1845  0.7393
  376MOL0     C50680   3.067   0.226   8.322 -0.1093  0.5917 -0.4215
  376MOL0     C50681   3.171   0.136   8.296  0.9588  0.0518  0.2345
  376MOL0     C50682   3.306   0.174   8.315 -0.1074  0.1717 -1.0203
  376MOL0     O50683   3.407   0.087   8.320  0.2064 -0.1598  0.0847
  376MOL0     C50684   3.403  -0.044   8.265  0.2884  0.7817  0.5376
  376MOL0     C50685   3.469  -0.141   8.363 -0.2151 -0.0661  0.3323
  376MOL0     C50686   3.388  -0.163   8.492  0.8262  0.2390 -0.4427
  376MOL0     C50687   3.426  -0.295   8.571  0.3498 -0.3379 -0.5127
  376MOL0     C50688   3.568  -0.324   8.589  0.1484 -0.7694 -0.2821
  376MOL0     C50689   3.678  -0.341   8.629  0.4859  0.2285  0.2586
  376MOL0     C50690   3.325   0.305   8.363  0.7416 -0.0837  0.6710
  376MOL0     C50691   3.222   0.389   8.386 -0.9191  0.2579 -1.3565
  376MOL0     C50692   3.270   0.529   8.430  0.7270  1.0973  0.3676
  376MOL0     H50693   2.783   0.528   8.567 -0.0300 -1.2881  0.6450
  376MOL0     H50694   2.556   0.645   8.603  0.8142  2.6470 -0.5784
  376MOL0     H50695   2.253   0.526   8.533 -0.3432 -0.0420 -1.4719
  376MOL0     H50696   2.311   0.672   8.632  1.2795  0.0116 -0.7835
  376MOL0     H50697   2.119   0.647   8.403  0.5689 -1.0929  0.4020
  376MOL0     H50698   2.156   0.806   8.482 -0.2442 -0.0208  1.0799
  376MOL0     H50699   2.069   0.692   8.692  2.6668  1.5951 -1.6947
  376MOL0     H50700   2.030   0.543   8.601  3.3126 -0.1206 -1.1038
  376MOL0     H50701   1.899   0.789   8.511  3.1664  0.0585 -0.0651
  376MOL0     H50702   1.837   0.617   8.497  0.3208 -2.1948  0.4254
  376MOL0     H50703   1.780   0.609   8.721 -1.0362 -1.4591 -1.7755
  376MOL0     H50704   1.851   0.770   8.756  1.3312  1.4866 -2.0860
  376MOL0     H50705   1.698   0.881   8.585  0.8338  0.0396  1.0650
  376MOL0     H50706   1.619   0.723   8.545 -1.3425 -0.2466 -0.5904
  376MOL0     H50707   1.508   0.900   8.716 -2.2420 -1.0960  0.5918
  376MOL0     H50708   1.627   0.843   8.829  0.4317  0.8660 -1.6799
  376MOL0     H50709   1.542   0.604   8.807 -1.9076 -1.3254  0.0168
  376MOL0     H50710   1.435   0.712   8.884 -0.1114 -1.4583  0.3074
  376MOL0     H50711   1.224   0.825   8.735  0.5450 -0.1457  0.9947
  376MOL0     H50712   1.027   0.832   8.608  0.0218 -0.0540  0.1775
  376MOL0     H50713   1.010   0.753   8.450 -0.9905  0.0454  1.4181
  376MOL0     H50714   0.953   0.623   8.723 -1.1244  3.4633  1.3497
  376MOL0     H50715   0.831   0.682   8.613 -0.3611 -0.1983  0.3329
  376MOL0     H50716   1.013   0.487   8.481  0.4284 -1.2468  0.3068
  376MOL0     H50717   0.846   0.515   8.470  0.0512  0.2462  0.3892
  376MOL0     H50718   0.796   0.406   8.682 -0.0237  2.7792 -0.9278
  376MOL0     H50719   0.965   0.363   8.705  0.7725 -2.7035 -1.0456
  376MOL0     H50720   0.881   0.035   8.443 -0.8268  0.7288 -2.2536
  376MOL0     H50721   1.078  -0.094   8.363 -2.2249  0.8858 -2.8882
  376MOL0     H50722   1.492  -0.214   8.586  1.1667 -3.2913 -0.9718
  376MOL0     H50723   1.692  -0.347   8.621 -3.5799  1.0610  0.8452
  376MOL0     H50724   1.916  -0.437   8.634  1.8228 -2.6980  0.3369
  376MOL0     H50725   1.833  -0.504   8.493  0.1012  0.3123 -0.2622
  376MOL0     H50726   2.034  -0.624   8.491 -1.7241 -0.4649 -3.7309
  376MOL0     H50727   2.067  -0.495   8.377 -0.6024 -1.9573 -0.3614
  376MOL0     H50728   2.175  -0.377   8.596 -3.3710  0.5300  0.2208
  376MOL0     H50729   2.145  -0.533   8.669  1.6391  0.9451  0.6041
  376MOL0     H50730   2.319  -0.473   8.436 -1.9087 -2.1462 -3.4470
  376MOL0     H50731   2.294  -0.636   8.493  0.4282  0.2852  1.2170
  376MOL0     H50732   2.375  -0.580   8.718 -1.7840  1.6013  1.1845
  376MOL0     H50733   2.437  -0.415   8.666  1.7799  1.1430 -1.0695
  376MOL0     H50734   2.553  -0.678   8.548  1.0646  0.8850 -0.1064
  376MOL0     H50735   2.567  -0.511   8.488 -0.5814 -0.4693 -1.4237
  376MOL0     H50736   2.604  -0.562   8.774  1.9026  0.9915  0.4547
  376MOL0     H50737   2.692  -0.428   8.692 -0.8231  0.3413  0.9959
  376MOL0     H50738   2.793  -0.692   8.714  0.0979 -0.7526 -0.0020
  376MOL0     H50739   2.801  -0.624   8.548  1.3784 -1.3876  0.0716
  376MOL0     H50740   1.887  -0.107   8.311 -0.6529  2.3326  1.0517
  376MOL0     H50741   1.698   0.046   8.313 -1.2504  0.0031 -0.8699
  376MOL0     H50742   1.330   0.232   8.525 -0.6822  1.1210  1.4265
  376MOL0     H50743   1.150   0.341   8.573  1.0892  0.3248  1.3965
  376MOL0     H50744   2.470   0.551   8.192  3.1804  0.1120 -1.6287
  376MOL0     H50745   2.661   0.407   8.184 -1.2231 -1.5467  1.6690
  376MOL0     H50746   2.970   0.177   8.324  1.3117 -2.5224 -2.0049
  376MOL0     H50747   3.129   0.036   8.283 -1.0121  1.1442 -2.8595
  376MOL0     H50748   3.468  -0.062   8.179  0.3575 -1.2551  0.9534
  376MOL0     H50749   3.301  -0.080   8.250  0.5152  0.2832  0.1577
  376MOL0     H50750   3.563  -0.097   8.398  0.1864 -1.6582  1.3407
  376MOL0     H50751   3.495  -0.236   8.315 -0.5720  1.2260 -2.6683
  376MOL0     H50752   3.280  -0.166   8.475  1.2171 -1.9284 -3.3058
  376MOL0     H50753   3.415  -0.083   8.562  2.1083 -1.1128  0.6887
  376MOL0     H50754   3.387  -0.295   8.673 -2.6136  4.2689 -1.3386
  376MOL0     H50755   3.388  -0.378   8.510 -2.5042 -2.0622  3.1595
  376MOL0     H50756   3.782  -0.362   8.646  0.9839 -0.2359 -2.7215
  376MOL0     H50757   3.429   0.322   8.392  1.5633 -1.8703 -1.0206
  376MOL0     H50758   3.379   0.534   8.427  0.9399 -1.5497  1.0645
  376MOL0     H50759   3.227   0.606   8.365  2.3980  1.4304 -0.3866
  376MOL0     H50760   3.228   0.561   8.526 -2.0786  1.4437 -0.8519
  377MOL0     O50761   7.970   3.853   6.461 -1.2960 -0.1736  0.0563
  377MOL0     C50762   7.946   3.730   6.446  0.0099 -0.0433  0.3158
  377MOL0     O50763   8.026   3.632   6.500 -0.0692  0.1168  0.0611
  377MOL0     C50764   8.124   3.663   6.590 -0.6163  0.3717  0.8578
  377MOL0     C50765   8.185   3.544   6.635 -0.3818 -0.4594  0.4418
  377MOL0     C50766   8.307   3.550   6.705  0.8164 -0.0441 -0.5296
  377MOL0     C50767   8.359   3.678   6.740  0.1468 -0.3756  0.1835
  377MOL0     O50768   8.477   3.694   6.803 -0.9008  0.4449 -0.3030
  377MOL0     C50769   8.583   3.596   6.791 -0.4870  0.2993 -0.8957
  377MOL0     C50770   8.692   3.595   6.896 -0.5607  0.1110  0.0000
  377MOL0     C50771   8.795   3.707   6.875 -0.0484  0.2404 -0.1211
  377MOL0     C50772   8.733   3.840   6.899  0.2196  0.4078  0.4916
  377MOL0     C50773   8.831   3.958   6.939  0.3058 -0.4112 -0.3992
  377MOL0     C50774   8.776   4.101   6.926  0.0409 -0.7545  0.3686
  377MOL0     C50775   8.653   4.135   7.010 -0.8264  0.6852 -0.0686
  377MOL0     C50776   8.570   4.257   6.977 -0.1351  0.6770  0.2896
  377MOL0     N50777   8.650   4.376   6.955  0.2298 -0.0483 -0.4675
  377MOL0     C50778   8.717   4.412   6.836  0.6940 -0.9096 -0.4010
  377MOL0     C50779   8.776   4.531   6.863 -0.3189 -0.7890 -0.2063
  377MOL0     C50780   8.853   4.616   6.772  0.4042  0.3108 -0.7101
  377MOL0     C50781   9.002   4.547   6.759  0.7354 -0.4696 -0.4348
  377MOL0     C50782   9.094   4.591   6.874  0.4770 -0.6406  0.2322
  377MOL0     C50783   9.082   4.498   7.003 -0.0047 -0.9980 -0.9811
  377MOL0     O50784   9.157   4.378   6.981 -0.4394  0.0692 -0.5262
  377MOL0     C50785   9.135   4.265   7.063 -0.5056 -1.0122  0.5882
  377MOL0     C50786   9.188   4.145   7.019  0.1075  0.3937  0.4881
  377MOL0     C50787   9.181   4.028   7.099 -0.9615 -0.1186 -0.3239
  377MOL0     C50788   9.127   4.032   7.234 -0.4921 -0.4383  0.1680
  377MOL0     C50789   9.141   3.903   7.318 -0.8076 -0.6963  0.8485
  377MOL0     O50790   9.203   3.799   7.265  0.0717  0.5601  0.6118
  377MOL0     C50791   9.254   3.691   7.340  0.1207 -0.8230 -0.4592
  377MOL0     C50792   9.266   3.568   7.281  0.1206 -0.0389  0.3898
  377MOL0     C50793   9.318   3.462   7.352 -0.0477 -0.0570  0.1632
  377MOL0     C50794   9.366   3.479   7.485 -0.1022  0.3099  0.0226
  377MOL0     O50795   9.430   3.381   7.558  0.1071  0.4890 -0.2722
  377MOL0     C50796   9.535   3.405   7.654  0.6352 -0.2124  0.0604
  377MOL0     C50797   9.659   3.312   7.641  0.1912 -0.4543 -0.8681
  377MOL0     C50798   9.722   3.316   7.500 -0.1304 -0.3799  0.1397
  377MOL0     C50799   9.870   3.262   7.497 -0.7702 -0.1901 -0.3248
  377MOL0     C50800   9.887   3.128   7.586 -0.3298  0.1166  0.0143
  377MOL0     C50801  10.034   3.070   7.575 -0.0385  0.4709 -0.3255
  377MOL0     C50802  10.060   2.948   7.664 -0.2268 -0.7279 -0.1798
  377MOL0     C50803  10.215   2.902   7.671 -0.0784  0.0694 -0.1540
  377MOL0    Cl50804  10.218   2.737   7.738 -0.3830 -0.3534 -0.0669
  377MOL0     C50805   9.331   3.597   7.548  0.6665  0.9608 -0.0174
  377MOL0     C50806   9.283   3.699   7.472 -0.9712 -0.8848  0.0742
  377MOL0     O50807   9.104   3.910   7.431 -0.7670  0.3398 -0.1430
  377MOL0     C50808   9.074   4.157   7.274  0.5915  0.0501 -0.1546
  377MOL0     C50809   9.067   4.270   7.190 -1.1766  0.4488  0.0018
  377MOL0     N50810   8.744   4.566   6.992 -0.2761  0.2777 -0.1583
  377MOL0     N50811   8.671   4.481   7.047  0.0029  0.8613  0.2150
  377MOL0     C50812   8.285   3.792   6.719 -1.2949 -0.3761 -0.1130
  377MOL0     C50813   8.173   3.790   6.637 -0.3148 -0.6823  0.8432
  377MOL0     C50814   7.834   3.687   6.371  0.3225  0.3904 -0.1277
  377MOL0     C50815   7.781   3.562   6.398  0.5624  0.5367 -0.6435
  377MOL0     C50816   7.657   3.517   6.339  0.6548 -0.3391 -0.4205
  377MOL0     C50817   7.593   3.598   6.249  0.3917  0.1169 -0.2737
  377MOL0     O50818   7.475   3.552   6.191  0.1290 -0.0686  0.2422
  377MOL0     C50819   7.364   3.647   6.196  0.9348  0.2645  0.5138
  377MOL0     C50820   7.227   3.569   6.205 -0.0986 -0.4706  0.3835
  377MOL0     C50821   7.207   3.476   6.322 -0.5171  0.1107 -0.4012
  377MOL0     C50822   7.192   3.535   6.467  0.5293  0.3075  0.5397
  377MOL0     C50823   7.098   3.645   6.472  0.2366  0.2537  0.7912
  377MOL0     C50824   7.010   3.735   6.461 -1.0178  0.4673  0.2473
  377MOL0     C50825   7.653   3.717   6.201  0.0612 -0.4079 -0.0105
  377MOL0     C50826   7.777   3.762   6.265  0.7845  0.9034 -0.5180
  377MOL0     C50827   7.857   3.877   6.208  0.5651 -0.4323  0.1521
  377MOL0     H50828   8.145   3.449   6.599  0.2840 -1.6807  2.7256
  377MOL0     H50829   8.332   3.454   6.750 -3.3851 -0.4934  1.2638
  377MOL0     H50830   8.537   3.498   6.809 -2.4140  1.5103  1.3979
  377MOL0     H50831   8.636   3.608   6.696  2.8433 -0.1778  0.7595
  377MOL0     H50832   8.737   3.495   6.894 -2.6805 -0.9009 -1.6927
  377MOL0     H50833   8.646   3.595   6.996 -0.1443  1.2698  0.2042
  377MOL0     H50834   8.849   3.699   6.781 -0.4388  1.4168 -0.4697
  377MOL0     H50835   8.878   3.691   6.945  0.5685 -2.8304 -1.3954
  377MOL0     H50836   8.683   3.873   6.808  0.7754 -2.2426 -0.8899
  377MOL0     H50837   8.657   3.826   6.977 -1.6474 -0.7589 -1.4342
  377MOL0     H50838   8.869   3.931   7.038  2.0491 -1.0523 -1.1897
  377MOL0     H50839   8.927   3.947   6.887 -0.2919  0.4107 -1.7206
  377MOL0     H50840   8.847   4.179   6.957 -1.8756  0.9560  0.6946
  377MOL0     H50841   8.750   4.125   6.822  1.0951  1.4670  0.5386
  377MOL0     H50842   8.686   4.161   7.111  0.1809  2.0198 -0.7064
  377MOL0     H50843   8.582   4.052   7.012 -0.7222  0.3840 -3.4865
  377MOL0     H50844   8.522   4.228   6.883  1.1668 -0.8535  0.0600
  377MOL0     H50845   8.496   4.272   7.056 -0.6131 -0.0934  0.0078
  377MOL0     H50846   8.698   4.353   6.747 -0.4091 -3.2626  1.2843
  377MOL0     H50847   8.801   4.612   6.676 -0.1827  0.1234 -0.3879
  377MOL0     H50848   8.860   4.719   6.809 -1.2344  1.4449 -3.2872
  377MOL0     H50849   8.997   4.440   6.736 -3.6852 -1.2909  2.8205
  377MOL0     H50850   9.047   4.593   6.671  0.0945 -1.9381 -1.5649
  377MOL0     H50851   9.082   4.698   6.889 -0.6107 -0.0205 -3.8620
  377MOL0     H50852   9.197   4.589   6.837  0.8444  1.8149  0.9306
  377MOL0     H50853   8.978   4.480   7.030  0.8219 -3.4433  0.8708
  377MOL0     H50854   9.127   4.552   7.087 -2.5709 -3.3032  2.1189
  377MOL0     H50855   9.229   4.132   6.920  0.8033  0.9656  0.6863
  377MOL0     H50856   9.227   3.943   7.049  1.1528  0.0301  1.2449
  377MOL0     H50857   9.259   3.530   7.179  1.4066 -0.4127  0.4230
  377MOL0     H50858   9.324   3.362   7.311 -0.1705  0.8192 -2.1072
  377MOL0     H50859   9.570   3.507   7.636 -1.4712  0.2126 -2.1937
  377MOL0     H50860   9.500   3.401   7.758  2.3673  1.3145  0.7674
  377MOL0     H50861   9.729   3.352   7.715 -1.9440  2.0046 -0.0440
  377MOL0     H50862   9.636   3.212   7.680 -1.4163  0.3470  0.3512
  377MOL0     H50863   9.659   3.250   7.439 -0.7380 -1.5302  1.9460
  377MOL0     H50864   9.726   3.413   7.448  2.2414 -1.7745 -2.5816
  377MOL0     H50865   9.943   3.341   7.519  3.5084 -2.7201 -3.8378
  377MOL0     H50866   9.904   3.224   7.400  0.1916  1.2070 -0.5661
  377MOL0     H50867   9.820   3.054   7.542  0.5029 -0.3996 -0.4136
  377MOL0     H50868   9.858   3.143   7.691  0.5306  1.8774  0.0387
  377MOL0     H50869  10.040   3.038   7.471 -1.0211 -2.0121  0.3201
  377MOL0     H50870  10.110   3.145   7.599 -0.8978  1.3985 -0.4280
  377MOL0     H50871  10.004   2.866   7.618  1.3090 -1.2377 -1.2350
  377MOL0     H50872  10.015   2.960   7.763  0.0077 -1.1934 -0.0126
  377MOL0     H50873  10.282   2.903   7.584  1.5053 -1.0517  1.0011
  377MOL0     H50874  10.263   2.973   7.739 -1.8503  0.9812  0.2177
  377MOL0     H50875   9.356   3.615   7.652  1.0425 -0.0324  0.0777
  377MOL0     H50876   9.275   3.789   7.532 -0.9940 -2.9735  3.4599
  377MOL0     H50877   9.038   4.169   7.375 -0.2309  0.4617 -0.4842
  377MOL0     H50878   9.027   4.364   7.226  0.5178  0.9348  0.7246
  377MOL0     H50879   8.329   3.880   6.764 -1.5693 -1.3876  2.2618
  377MOL0     H50880   8.119   3.884   6.624 -1.3287 -0.7959  3.6029
  377MOL0     H50881   7.832   3.500   6.471  0.5940  2.1990  0.8106
  377MOL0     H50882   7.612   3.421   6.364  0.1610 -0.0090 -0.0089
  377MOL0     H50883   7.368   3.713   6.109 -1.0337  1.8757  1.5578
  377MOL0     H50884   7.370   3.713   6.282 -1.5842  0.0303  0.9656
  377MOL0     H50885   7.221   3.503   6.118  0.9789  0.2327 -0.2598
  377MOL0     H50886   7.144   3.640   6.204  0.2652 -0.0308  0.7418
  377MOL0     H50887   7.289   3.404   6.325  0.2179  0.9016 -0.8042
  377MOL0     H50888   7.124   3.408   6.300 -1.1283  0.1755  1.5408
  377MOL0     H50889   7.151   3.467   6.542  1.7406 -0.4863  0.5139
  377MOL0     H50890   7.291   3.571   6.498 -0.3880  2.0343  1.5885
  377MOL0     H50891   6.948   3.822   6.467  0.2019  1.2892  1.3845
  377MOL0     H50892   7.621   3.763   6.108 -1.6712 -0.6224  0.4396
  377MOL0     H50893   7.872   3.959   6.279  2.2557  0.8623 -1.5790
  377MOL0     H50894   7.956   3.847   6.172  0.7838 -0.6157  0.9051
  377MOL0     H50895   7.806   3.914   6.118 -2.1683 -4.3418 -0.1599
  378MOL0     O50896   7.063   5.328   6.530  0.2052 -0.8772 -0.3039
  378MOL0     C50897   7.045   5.423   6.607  0.8994 -0.1633 -0.1244
  378MOL0     O50898   7.139   5.483   6.681 -0.1327  0.0618 -0.6954
  378MOL0     C50899   7.265   5.433   6.672  0.7471 -0.2217  0.1724
  378MOL0     C50900   7.355   5.486   6.583 -0.5414 -1.0187  0.6025
  378MOL0     C50901   7.481   5.419   6.560 -0.0232 -0.4598 -0.0391
  378MOL0     C50902   7.511   5.306   6.638 -0.1580  1.1746 -0.4950
  378MOL0     O50903   7.630   5.231   6.618 -0.4504  0.3387  0.5869
  378MOL0     C50904   7.748   5.301   6.667 -0.7007  0.1583  0.0543
  378MOL0     C50905   7.858   5.203   6.695  0.0033 -0.3444  0.6816
  378MOL0     C50906   7.992   5.280   6.703  0.3894 -0.3002 -0.2069
  378MOL0     C50907   8.108   5.188   6.703 -0.1593 -0.3969 -0.2145
  378MOL0     C50908   8.240   5.260   6.713  1.2369 -0.4004 -0.2908
  378MOL0     C50909   8.283   5.318   6.572  0.0093  0.5132 -0.1936
  378MOL0     C50910   8.423   5.373   6.580 -0.3303  0.2926 -0.0580
  378MOL0     C50911   8.531   5.263   6.595  0.6849  0.1485 -0.7118
  378MOL0     N50912   8.650   5.307   6.670 -0.1153 -0.6521 -0.3335
  378MOL0     C50913   8.656   5.344   6.799 -0.5117  0.2041 -0.4313
  378MOL0     C50914   8.770   5.408   6.822  0.2253  0.4100  0.7677
  378MOL0     C50915   8.799   5.486   6.949  0.0979  0.4901 -0.0204
  378MOL0     C50916   8.875   5.408   7.060  0.6724  0.1215  0.1374
  378MOL0     C50917   8.938   5.278   7.018 -0.1864  0.5359  0.3904
  378MOL0     C50918   9.014   5.206   7.135  0.6749  0.5234 -0.6409
  378MOL0     O50919   9.011   5.060   7.096 -0.2318 -0.7261  0.0160
  378MOL0     C50920   9.019   4.968   7.201  0.1165 -0.4865  0.7268
  378MOL0     C50921   8.975   4.844   7.179  0.1897  0.4980 -0.6730
  378MOL0     C50922   8.989   4.743   7.273  0.6768 -1.2974  0.3301
  378MOL0     C50923   9.059   4.761   7.389 -0.8218  0.1391 -0.7825
  378MOL0     C50924   9.082   4.647   7.487  0.5096  0.8326 -0.5878
  378MOL0     O50925   9.137   4.690   7.605  0.3085 -0.7328  0.0248
  378MOL0     C50926   9.161   4.615   7.719 -0.2878 -0.2589 -1.2970
  378MOL0     C50927   9.253   4.672   7.812 -0.0768  0.0796 -0.1683
  378MOL0     C50928   9.277   4.614   7.936  0.1833  0.3962 -0.1429
  378MOL0     C50929   9.218   4.492   7.971  0.0503  0.8290  0.6366
  378MOL0     O50930   9.254   4.428   8.082  0.1046 -0.7323  0.5822
  378MOL0     C50931   9.382   4.362   8.070 -0.0769  0.4458 -0.0545
  378MOL0     C50932   9.449   4.334   8.204  0.3307 -0.9902  0.3252
  378MOL0     C50933   9.501   4.455   8.288 -0.2176 -0.2182 -0.0817
  378MOL0     C50934   9.577   4.552   8.200 -1.0075  0.1945 -0.4027
  378MOL0     C50935   9.679   4.640   8.280  0.0269  0.7403  0.4862
  378MOL0     C50936   9.798   4.679   8.192 -0.0927  0.6103 -0.2091
  378MOL0     C50937   9.738   4.758   8.076 -0.1351 -0.6976 -0.4303
  378MOL0     C50938   9.834   4.842   7.986 -0.3529  0.0384  0.0964
  378MOL0    Cl50939   9.899   4.994   8.054 -0.3347 -0.2568  0.5121
  378MOL0     C50940   9.143   4.427   7.864 -1.1790  0.5468  0.5864
  378MOL0     C50941   9.121   4.492   7.739 -0.4037 -0.2223  0.4133
  378MOL0     O50942   9.062   4.532   7.450  0.6263 -0.6008  0.1917
  378MOL0     C50943   9.109   4.888   7.415  0.7744  0.3225 -1.0933
  378MOL0     C50944   9.092   4.997   7.320 -0.0743  0.5678  0.4725
  378MOL0     N50945   8.845   5.405   6.704  0.4284  0.2430 -0.8432
  378MOL0     N50946   8.768   5.351   6.615  0.4681  0.5130 -0.5340
  378MOL0     C50947   7.412   5.255   6.721 -0.1679  0.5380 -0.3332
  378MOL0     C50948   7.285   5.312   6.726  0.3467 -0.1420 -0.6253
  378MOL0     C50949   6.904   5.471   6.615 -0.2500  0.4297  0.6705
  378MOL0     C50950   6.854   5.527   6.731  0.5316 -1.4562  0.0187
  378MOL0     C50951   6.719   5.563   6.752 -0.2476 -0.3456  0.0871
  378MOL0     C50952   6.631   5.546   6.653  0.1163  0.4075  0.1756
  378MOL0     O50953   6.494   5.565   6.662 -0.2367  0.2222  0.3911
  378MOL0     C50954   6.437   5.615   6.784 -0.0153 -0.8110 -0.6009
  378MOL0     C50955   6.279   5.611   6.790 -0.6085 -0.5794  0.3798
  378MOL0     C50956   6.225   5.738   6.720 -0.0760 -0.1174 -0.7834
  378MOL0     C50957   6.084   5.785   6.760  0.0644  0.1982  0.8076
  378MOL0     C50958   6.002   5.675   6.719  0.1548 -0.6227  0.8126
  378MOL0     C50959   5.932   5.575   6.707 -0.8670  0.2317 -0.7431
  378MOL0     C50960   6.669   5.501   6.532 -1.4630 -0.0062  0.7845
  378MOL0     C50961   6.804   5.465   6.507  0.0187 -0.3642  0.2376
  378MOL0     C50962   6.827   5.434   6.367 -1.1403  0.3602 -0.0470
  378MOL0     H50963   7.313   5.574   6.535  0.5066 -0.9021 -0.1234
  378MOL0     H50964   7.555   5.454   6.489  1.5649  1.6695  2.4841
  378MOL0     H50965   7.773   5.380   6.595 -1.2119  0.8721  0.6390
  378MOL0     H50966   7.726   5.350   6.762 -3.0506 -0.8355  0.0900
  378MOL0     H50967   7.861   5.132   6.612 -0.2856 -1.9024  1.9712
  378MOL0     H50968   7.839   5.150   6.788 -2.9424  1.3064  1.1392
  378MOL0     H50969   7.994   5.334   6.798  0.8609  2.9247 -1.8948
  378MOL0     H50970   7.997   5.363   6.633 -1.9277  2.9558  3.0995
  378MOL0     H50971   8.102   5.118   6.787  1.3520  1.9230  1.9648
  378MOL0     H50972   8.096   5.134   6.608 -2.3889  2.3278 -1.6195
  378MOL0     H50973   8.222   5.344   6.781  1.8391  1.2217 -2.0364
  378MOL0     H50974   8.316   5.201   6.764 -1.6188 -1.6116  2.9399
  378MOL0     H50975   8.265   5.244   6.494 -0.4679  0.8980 -0.4516
  378MOL0     H50976   8.223   5.407   6.550  0.6763  0.9979 -0.0798
  378MOL0     H50977   8.428   5.438   6.668 -0.7212  1.4336 -0.8456
  378MOL0     H50978   8.444   5.426   6.486 -0.3815 -0.8974 -0.7532
  378MOL0     H50979   8.489   5.170   6.633 -2.3578  1.0231 -1.6399
  378MOL0     H50980   8.569   5.236   6.496  6.1765 -0.3924  1.2172
  378MOL0     H50981   8.586   5.320   6.879  0.6872  0.4471  0.7260
  378MOL0     H50982   8.848   5.581   6.928  0.8858  0.1638  0.3182
  378MOL0     H50983   8.702   5.523   6.986 -0.1110 -0.2224  0.1605
  378MOL0     H50984   8.952   5.472   7.104  0.7090  1.0262 -1.1800
  378MOL0     H50985   8.800   5.389   7.138 -0.4025  1.1945 -0.5983
  378MOL0     H50986   8.994   5.306   6.928 -3.3086 -0.0548 -1.9309
  378MOL0     H50987   8.863   5.217   6.967 -2.4683  3.9486 -0.6963
  378MOL0     H50988   8.948   5.214   7.221  1.4148 -0.8106  0.0824
  378MOL0     H50989   9.114   5.235   7.168  0.3151  3.8304 -2.0589
  378MOL0     H50990   8.908   4.822   7.096 -0.5316 -0.8403  0.2275
  378MOL0     H50991   8.956   4.646   7.236 -2.6946 -0.4857  0.8593
  378MOL0     H50992   9.290   4.773   7.798 -0.6786  0.2165 -0.8661
  378MOL0     H50993   9.334   4.663   8.015  2.5346  3.2284 -3.3115
  378MOL0     H50994   9.364   4.270   8.014 -1.2977 -1.9200  3.8026
  378MOL0     H50995   9.447   4.421   8.005 -2.2115 -0.0170 -2.7940
  378MOL0     H50996   9.386   4.263   8.259  1.2630 -1.5642  0.6825
  378MOL0     H50997   9.537   4.271   8.189  1.3383  0.5538 -0.5061
  378MOL0     H50998   9.408   4.495   8.328 -1.3299 -5.3876  3.5617
  378MOL0     H50999   9.554   4.419   8.376  0.7052  0.2959 -0.4050
  378MOL0     H51000   9.499   4.607   8.147 -0.4056  1.3579 -0.1136
  378MOL0     H51001   9.623   4.494   8.120 -1.6552 -1.6422  0.4910
  378MOL0     H51002   9.714   4.578   8.363  0.5150  0.5757  0.1674
  378MOL0     H51003   9.626   4.726   8.321 -2.3191 -0.2483 -0.3068
  378MOL0     H51004   9.874   4.737   8.247 -0.9820  2.1029 -0.4925
  378MOL0     H51005   9.855   4.594   8.153  0.1195 -0.7132  2.6954
  378MOL0     H51006   9.665   4.829   8.117 -0.0570  0.7879 -2.6853
  378MOL0     H51007   9.698   4.693   7.997  1.6247  0.4028 -2.3061
  378MOL0     H51008   9.916   4.774   7.964 -1.7081 -1.3379 -0.8442
  378MOL0     H51009   9.784   4.862   7.892 -1.4426 -0.5139  0.5488
  378MOL0     H51010   9.092   4.334   7.890 -0.1951  0.4931  2.5520
  378MOL0     H51011   9.068   4.435   7.663 -0.9872 -1.6944  1.8622
  378MOL0     H51012   9.157   4.904   7.511 -0.0067 -3.2400  0.0392
  378MOL0     H51013   9.129   5.098   7.334 -0.8742  1.2784 -2.0166
  378MOL0     H51014   7.444   5.163   6.768  1.3876  0.0636 -2.1595
  378MOL0     H51015   7.213   5.272   6.796  0.3839 -0.6946 -0.8951
  378MOL0     H51016   6.926   5.530   6.812  1.1999  0.1539 -0.5890
  378MOL0     H51017   6.679   5.605   6.844 -1.9339 -0.2811 -0.6539
  378MOL0     H51018   6.475   5.714   6.810  0.2571 -1.8443  3.6037
  378MOL0     H51019   6.461   5.540   6.860  1.6217 -0.0134 -0.2877
  378MOL0     H51020   6.243   5.612   6.893 -1.7221  0.1218  0.0134
  378MOL0     H51021   6.240   5.524   6.737  0.3398 -1.0195  0.4029
  378MOL0     H51022   6.223   5.717   6.613  2.2635  0.6323 -1.0313
  378MOL0     H51023   6.291   5.823   6.739 -1.1722  0.6410 -0.2186
  378MOL0     H51024   6.074   5.800   6.868 -1.3922  1.0955  0.5761
  378MOL0     H51025   6.064   5.883   6.715 -2.5536 -0.9294 -0.6916
  378MOL0     H51026   5.876   5.484   6.696  0.9207 -0.8302 -1.4099
  378MOL0     H51027   6.596   5.473   6.457  1.1875 -0.6886 -1.7082
  378MOL0     H51028   6.840   5.326   6.354 -0.7399  0.2795  0.9388
  378MOL0     H51029   6.747   5.475   6.305 -0.1657 -1.2353 -2.5029
  378MOL0     H51030   6.917   5.482   6.328 -0.5075 -2.2260 -2.0535
  379MOL0     O51031   0.157   6.628   3.850 -0.0443 -0.6409  0.7806
  379MOL0     C51032   0.104   6.676   3.748  0.5276  0.8483 -0.4382
  379MOL0     O51033   0.170   6.696   3.629  0.6716  0.2421  0.5551
  379MOL0     C51034   0.307   6.696   3.640  0.2550 -0.0817 -0.2417
  379MOL0     C51035   0.377   6.625   3.540  0.5222 -0.6650 -0.0582
  379MOL0     C51036   0.515   6.649   3.519  0.0583  0.5355 -0.3611
  379MOL0     C51037   0.587   6.736   3.609  0.0976  0.3860  0.7678
  379MOL0     O51038   0.715   6.772   3.593 -0.1834 -0.0144 -0.7773
  379MOL0     C51039   0.796   6.688   3.512  0.5748 -0.0909  0.4441
  379MOL0     C51040   0.945   6.710   3.533  0.2598  0.7883 -0.2029
  379MOL0     C51041   0.987   6.730   3.678  0.3841  0.4197 -0.1442
  379MOL0     C51042   0.936   6.621   3.776 -0.6143 -0.2520  0.0588
  379MOL0     C51043   0.981   6.634   3.923  0.0620 -0.9372  1.6203
  379MOL0     C51044   0.921   6.522   4.011  0.5741 -0.5384  0.5565
  379MOL0     C51045   0.773   6.541   4.045 -0.8911 -1.0225 -0.4154
  379MOL0     C51046   0.738   6.485   4.181 -0.1231 -0.1408 -0.4349
  379MOL0     N51047   0.593   6.461   4.183 -0.2911  0.1065 -0.2969
  379MOL0     C51048   0.502   6.564   4.187  0.5060  0.3930 -0.0037
  379MOL0     C51049   0.380   6.506   4.166 -0.5145 -0.3955 -0.2207
  379MOL0     C51050   0.252   6.597   4.171 -0.2928  0.0267  0.1793
  379MOL0     C51051   0.125   6.503   4.178 -0.1593 -0.2673 -0.3275
  379MOL0     C51052  -0.016   6.568   4.186 -0.8863 -0.0838 -0.3520
  379MOL0     C51053  -0.135   6.474   4.175 -0.1073  1.2267 -0.3953
  379MOL0     O51054  -0.242   6.532   4.247  0.3777 -0.6573 -0.3359
  379MOL0     C51055  -0.350   6.453   4.281 -0.2715 -0.6840  0.4304
  379MOL0     C51056  -0.455   6.528   4.321  0.4197  0.3231  0.1439
  379MOL0     C51057  -0.579   6.468   4.327  0.7801 -0.2833  0.0098
  379MOL0     C51058  -0.593   6.333   4.298  0.3036  0.8331 -0.4248
  379MOL0     C51059  -0.724   6.270   4.312 -0.1575  0.0092  0.1201
  379MOL0     O51060  -0.824   6.360   4.303  0.6218  0.1804 -0.1790
  379MOL0     C51061  -0.952   6.316   4.288 -0.1890  0.3770 -0.0463
  379MOL0     C51062  -1.060   6.380   4.359 -0.6900 -0.1528  0.4892
  379MOL0     C51063  -1.191   6.344   4.330 -0.6340  0.0835  0.4700
  379MOL0     C51064  -1.222   6.262   4.223  0.2138 -0.6998  0.0251
  379MOL0     O51065  -1.353   6.239   4.200  0.7348 -0.3249  0.4972
  379MOL0     C51066  -1.459   6.253   4.295  0.3714  0.9817 -0.0966
  379MOL0     C51067  -1.523   6.391   4.282  0.6171 -0.0203  1.3274
  379MOL0     C51068  -1.604   6.401   4.151 -0.5559 -0.1781  0.4750
  379MOL0     C51069  -1.673   6.538   4.147  0.0491 -0.3762 -0.6328
  379MOL0     C51070  -1.774   6.532   4.027 -0.2530  0.3007 -0.3622
  379MOL0     C51071  -1.876   6.649   4.029  0.6688 -0.7407 -0.9176
  379MOL0     C51072  -1.802   6.783   4.030 -0.1149 -0.1403  0.0234
  379MOL0     C51073  -1.896   6.903   4.057 -0.2698 -0.0833  0.4650
  379MOL0    Cl51074  -1.797   7.034   4.080  0.2029 -0.4198 -0.4463
  379MOL0     C51075  -1.121   6.202   4.162 -0.4003  0.0375  0.8581
  379MOL0     C51076  -0.990   6.215   4.197  0.7000  0.4225  0.3483
  379MOL0     O51077  -0.738   6.143   4.302 -0.4057 -0.6765  0.5534
  379MOL0     C51078  -0.480   6.256   4.287  0.5909 -0.0423 -0.0350
  379MOL0     C51079  -0.355   6.316   4.266 -0.0295  0.7256 -0.4389
  379MOL0     N51080   0.403   6.373   4.156 -0.7403  0.1963 -0.1257
  379MOL0     N51081   0.531   6.347   4.167  0.3096  0.0413 -0.0051
  379MOL0     C51082   0.515   6.820   3.703 -0.3609  0.7432  0.5241
  379MOL0     C51083   0.381   6.790   3.715  0.1458 -0.3778 -0.8776
  379MOL0     C51084  -0.039   6.721   3.775  0.4577  0.1873  0.5058
  379MOL0     C51085  -0.133   6.627   3.821  0.3062  0.7654  0.5650
  379MOL0     C51086  -0.275   6.662   3.816 -0.4842 -0.3117 -0.5371
  379MOL0     C51087  -0.318   6.789   3.782 -0.4679  0.0949 -0.0773
  379MOL0     O51088  -0.454   6.806   3.780 -0.1822 -0.8449  0.2069
  379MOL0     C51089  -0.511   6.927   3.734 -0.1851  0.2232 -0.8168
  379MOL0     C51090  -0.662   6.928   3.762 -0.2526  0.4482 -0.3517
  379MOL0     C51091  -0.720   6.799   3.713  0.4181  0.1078 -0.8688
  379MOL0     C51092  -0.871   6.806   3.711  0.3595  0.9051  0.1734
  379MOL0     C51093  -0.938   6.895   3.803 -0.8068 -0.2712  0.1458
  379MOL0     C51094  -0.993   6.964   3.882 -0.3971  0.0349 -0.3532
  379MOL0     C51095  -0.223   6.885   3.739 -0.3671  0.3162 -0.2605
  379MOL0     C51096  -0.081   6.852   3.741  0.0009  0.3563 -0.1340
  379MOL0     C51097   0.018   6.959   3.712 -0.9757 -0.1105  0.3284
  379MOL0     H51098   0.315   6.565   3.474 -2.1910  1.9540 -0.0940
  379MOL0     H51099   0.570   6.595   3.443  1.3909 -3.3992  3.0249
  379MOL0     H51100   0.774   6.582   3.528 -2.4785  0.2100 -0.9936
  379MOL0     H51101   0.776   6.716   3.408  1.5996 -0.7829  0.0405
  379MOL0     H51102   0.969   6.804   3.482  2.9393  1.0792  1.3852
  379MOL0     H51103   1.006   6.634   3.481  2.5702  2.9189 -0.8149
  379MOL0     H51104   0.962   6.832   3.709  1.1086  1.6568 -3.2330
  379MOL0     H51105   1.095   6.720   3.666  0.0298 -2.5536 -1.7460
  379MOL0     H51106   0.827   6.621   3.764 -0.4716  1.6890 -1.8334
  379MOL0     H51107   0.976   6.526   3.737  3.4991  0.2033  2.5809
  379MOL0     H51108   1.090   6.627   3.930  0.6294  3.7326  1.0212
  379MOL0     H51109   0.959   6.727   3.976 -0.2789 -1.1775  1.9039
  379MOL0     H51110   0.935   6.423   3.965 -0.7757 -0.9241  0.9624
  379MOL0     H51111   0.987   6.520   4.098  1.8023  0.3636 -0.3023
  379MOL0     H51112   0.720   6.494   3.962 -0.4096  0.7332 -1.7783
  379MOL0     H51113   0.742   6.646   4.053  1.7212 -0.2517  0.6740
  379MOL0     H51114   0.782   6.386   4.189 -2.8724 -1.3034  1.8436
  379MOL0     H51115   0.778   6.536   4.270  0.9669 -2.6554  0.6147
  379MOL0     H51116   0.527   6.669   4.202  1.7299  0.0817  0.2056
  379MOL0     H51117   0.253   6.664   4.257 -2.8425 -1.7959  1.7692
  379MOL0     H51118   0.251   6.646   4.073 -0.8112  1.0566  0.6901
  379MOL0     H51119   0.123   6.430   4.096 -0.4981 -0.2667 -0.3230
  379MOL0     H51120   0.131   6.447   4.272 -2.1876 -0.1337 -0.0578
  379MOL0     H51121  -0.019   6.654   4.120 -3.1745  0.8174  0.8132
  379MOL0     H51122  -0.028   6.621   4.281 -1.4981  1.0489 -1.0485
  379MOL0     H51123  -0.109   6.377   4.217 -0.8515 -0.0308 -2.6765
  379MOL0     H51124  -0.166   6.470   4.071 -1.0092  0.5194 -0.1096
  379MOL0     H51125  -0.448   6.634   4.343  1.0094  0.3890 -0.3418
  379MOL0     H51126  -0.664   6.534   4.340  1.3254  0.4114  0.1528
  379MOL0     H51127  -1.032   6.456   4.432  2.5705  1.6011 -2.3006
  379MOL0     H51128  -1.270   6.383   4.392 -1.0932 -1.0708  0.6355
  379MOL0     H51129  -1.540   6.180   4.281 -0.5952  2.0192 -0.1052
  379MOL0     H51130  -1.429   6.236   4.399  2.8698 -0.1643 -0.9390
  379MOL0     H51131  -1.593   6.419   4.362  0.6575  1.1943  0.9564
  379MOL0     H51132  -1.439   6.461   4.283 -0.2651  1.0612  2.6935
  379MOL0     H51133  -1.546   6.375   4.062 -2.8420 -0.3526 -1.0683
  379MOL0     H51134  -1.689   6.332   4.150  0.8138 -2.1397 -3.4772
  379MOL0     H51135  -1.593   6.612   4.140 -0.0616 -0.2023 -0.0549
  379MOL0     H51136  -1.725   6.553   4.242 -0.6582  2.4294 -1.3727
  379MOL0     H51137  -1.823   6.435   4.044  2.8165 -1.4736 -0.8329
  379MOL0     H51138  -1.727   6.512   3.931  2.1394 -0.6475  0.9070
  379MOL0     H51139  -1.958   6.634   3.958 -0.3502 -1.5099  0.3579
  379MOL0     H51140  -1.937   6.644   4.120 -1.2273 -0.6865 -2.1341
  379MOL0     H51141  -1.748   6.789   3.935  1.2412 -1.8607  0.6187
  379MOL0     H51142  -1.735   6.783   4.117  1.6680  3.4704 -1.1716
  379MOL0     H51143  -1.967   6.927   3.978 -0.1822 -1.3897 -0.0366
  379MOL0     H51144  -1.948   6.878   4.150  1.1023 -2.2569  0.7376
  379MOL0     H51145  -1.141   6.137   4.078 -0.1900  1.7248 -0.5376
  379MOL0     H51146  -0.919   6.151   4.145  0.1023  0.8099 -0.9830
  379MOL0     H51147  -0.484   6.149   4.267  2.1992  0.3397 -3.0864
  379MOL0     H51148  -0.278   6.249   4.230 -3.3102 -3.4354 -0.4787
  379MOL0     H51149   0.569   6.893   3.762  1.4181 -2.0341  2.5621
  379MOL0     H51150   0.318   6.847   3.782 -0.1008  1.2162 -2.3880
  379MOL0     H51151  -0.087   6.534   3.855  0.5433  0.8423  0.4619
  379MOL0     H51152  -0.353   6.593   3.845  0.4807 -0.2257  2.5405
  379MOL0     H51153  -0.485   6.945   3.629  2.0729  0.6649 -0.2548
  379MOL0     H51154  -0.459   7.012   3.780  0.6170  0.4385 -2.0813
  379MOL0     H51155  -0.715   7.017   3.725 -1.1451  1.0607  2.1889
  379MOL0     H51156  -0.665   6.931   3.872  1.3032  0.2280 -0.2885
  379MOL0     H51157  -0.693   6.719   3.783 -0.1579  0.9415  0.3298
  379MOL0     H51158  -0.677   6.759   3.621  0.2352 -1.6566 -0.2322
  379MOL0     H51159  -0.889   6.849   3.611  2.6248  2.3997  0.3328
  379MOL0     H51160  -0.913   6.706   3.718  1.5347  0.4063  0.3299
  379MOL0     H51161  -1.039   7.006   3.969  0.0190 -1.3663  0.5850
  379MOL0     H51162  -0.250   6.984   3.706  0.6256  1.6587  2.5974
  379MOL0     H51163   0.047   6.942   3.608 -1.0281 -2.5721  0.6756
  379MOL0     H51164  -0.017   7.060   3.738  1.9887  1.1343 -0.1021
  379MOL0     H51165   0.109   6.954   3.773 -2.4065 -1.9633  2.4880
  380MOL0     O51166   4.613   3.579   8.686 -0.2272  0.2246  0.7401
  380MOL0     C51167   4.620   3.629   8.801 -0.3594  0.6291  1.1091
  380MOL0     O51168   4.725   3.688   8.851  0.3764  0.5903 -0.3223
  380MOL0     C51169   4.843   3.675   8.782  0.3357  0.3819  0.5313
  380MOL0     C51170   4.949   3.591   8.841  0.1133  0.0310  0.2089
  380MOL0     C51171   5.070   3.567   8.768  0.1968  0.2220  0.5283
  380MOL0     C51172   5.077   3.615   8.636 -0.1847  0.0766 -0.6893
  380MOL0     O51173   5.186   3.578   8.559 -0.0513  1.2621 -0.5899
  380MOL0     C51174   5.242   3.689   8.483  0.4189 -0.3060  0.5580
  380MOL0     C51175   5.381   3.650   8.419 -0.2651 -0.4212 -0.1754
  380MOL0     C51176   5.494   3.643   8.517 -0.7317  0.1583 -0.2488
  380MOL0     C51177   5.549   3.761   8.592 -0.3715 -0.2838  0.0267
  380MOL0     C51178   5.676   3.727   8.683 -0.0228  0.1076 -0.2391
  380MOL0     C51179   5.808   3.690   8.611  0.2525 -0.4196 -0.4182
  380MOL0     C51180   5.878   3.814   8.564 -0.8653 -0.1605  0.0584
  380MOL0     C51181   5.954   3.777   8.436  1.2486  0.3775  0.5085
  380MOL0     N51182   6.024   3.892   8.390  0.6877 -1.2883  0.3256
  380MOL0     C51183   6.142   3.952   8.433  0.0588  0.3954 -0.0679
  380MOL0     C51184   6.146   4.065   8.353 -0.7038  0.2209  0.9659
  380MOL0     C51185   6.265   4.160   8.351  0.3898  0.4220 -0.6263
  380MOL0     C51186   6.332   4.163   8.490 -0.4973 -0.3663  0.0621
  380MOL0     C51187   6.454   4.261   8.469  0.5084 -0.1184  0.4196
  380MOL0     C51188   6.566   4.203   8.389 -0.4351 -0.5154  0.5179
  380MOL0     O51189   6.672   4.288   8.392  0.5332 -0.3776  0.2729
  380MOL0     C51190   6.760   4.285   8.494 -0.5655 -0.2725  0.1192
  380MOL0     C51191   6.767   4.188   8.600 -0.4517 -0.0567 -0.1064
  380MOL0     C51192   6.862   4.190   8.702 -0.4572  0.0473 -0.8616
  380MOL0     C51193   6.958   4.288   8.709  0.1278  0.8473  0.7262
  380MOL0     C51194   7.070   4.288   8.799 -0.0381  0.1402  0.2155
  380MOL0     O51195   7.179   4.354   8.747 -0.4719 -0.4207  0.6508
  380MOL0     C51196   7.287   4.372   8.830 -0.3231  0.3153 -0.8578
  380MOL0     C51197   7.303   4.484   8.919  0.6973 -0.0855  0.8427
  380MOL0     C51198   7.409   4.488   9.011  0.7770 -0.9521 -1.2789
  380MOL0     C51199   7.503   4.394   9.022 -0.9408  0.2388 -0.0529
  380MOL0     O51200   7.597   4.401   9.119 -0.1896 -0.3891  0.2353
  380MOL0     C51201   7.732   4.379   9.070 -0.2331 -0.6647  0.1321
  380MOL0     C51202   7.842   4.456   9.145  0.5980 -0.5725  0.4525
  380MOL0     C51203   7.804   4.608   9.165  0.0794  0.1519  0.7853
  380MOL0     C51204   7.927   4.677   9.223  0.1395 -0.2336  0.2846
  380MOL0     C51205   7.885   4.821   9.257  0.3127  0.0620  0.7646
  380MOL0     C51206   8.009   4.896   9.319 -0.1286  0.2054 -0.4729
  380MOL0     C51207   8.046   4.872   9.468  0.1697 -0.1027  0.2721
  380MOL0     C51208   8.204   4.877   9.484  0.3113  0.5266  0.1560
  380MOL0    Cl51209   8.275   5.016   9.390 -0.1379 -0.0101 -0.0571
  380MOL0     C51210   7.484   4.281   8.942 -0.8144 -0.2360 -0.2214
  380MOL0     C51211   7.375   4.264   8.850  0.1195  0.1497  0.1867
  380MOL0     O51212   7.067   4.223   8.905 -0.3396  0.2019 -0.3060
  380MOL0     C51213   6.950   4.388   8.605 -0.2480 -0.7210  0.3244
  380MOL0     C51214   6.855   4.383   8.497 -0.5229  0.4920 -0.9413
  380MOL0     N51215   6.042   4.070   8.271  0.0576  0.2010  0.1714
  380MOL0     N51216   5.968   3.970   8.291  0.0837  0.5084  0.2331
  380MOL0     C51217   4.975   3.710   8.586  0.2361  0.1805 -0.6698
  380MOL0     C51218   4.861   3.736   8.661 -1.5255 -0.6434 -0.7914
  380MOL0     C51219   4.511   3.605   8.891 -0.2520  0.2742  0.0442
  380MOL0     C51220   4.491   3.696   8.996 -0.5580 -1.1598 -0.4942
  380MOL0     C51221   4.400   3.675   9.096  0.9129  0.8853 -0.5640
  380MOL0     C51222   4.307   3.570   9.094 -0.2287 -0.6564 -0.1454
  380MOL0     O51223   4.195   3.558   9.169  0.6916 -0.9533 -0.1928
  380MOL0     C51224   4.159   3.645   9.275 -0.0745 -1.1179 -0.6282
  380MOL0     C51225   4.094   3.775   9.233  0.4265  0.0244 -0.3255
  380MOL0     C51226   3.991   3.758   9.122 -0.9265 -0.6119  0.5366
  380MOL0     C51227   3.881   3.652   9.167  1.3311  0.1763  0.3775
  380MOL0     C51228   3.811   3.690   9.293 -0.1775  0.2412 -0.5346
  380MOL0     C51229   3.739   3.720   9.389  0.3723  0.0476  0.6495
  380MOL0     C51230   4.317   3.477   8.989 -0.7417 -0.2655  0.2134
  380MOL0     C51231   4.423   3.490   8.891 -0.2125 -0.2897 -0.1766
  380MOL0     C51232   4.441   3.375   8.794 -0.3285  0.1613 -1.8397
  380MOL0     H51233   4.941   3.552   8.942  0.1845  3.2685  1.5587
  380MOL0     H51234   5.147   3.500   8.806  0.3046 -0.1247 -0.2829
  380MOL0     H51235   5.175   3.727   8.405  0.4208 -1.2558  0.0885
  380MOL0     H51236   5.245   3.781   8.543 -4.0916  1.7070 -1.7597
  380MOL0     H51237   5.409   3.715   8.336 -0.9433  0.3386  0.1751
  380MOL0     H51238   5.372   3.554   8.368  0.3324 -0.7505  0.3144
  380MOL0     H51239   5.572   3.603   8.451 -0.2908 -1.6734  1.2740
  380MOL0     H51240   5.472   3.565   8.592  1.4708 -0.0504  0.2547
  380MOL0     H51241   5.574   3.847   8.529 -1.5116 -1.1906 -1.7820
  380MOL0     H51242   5.461   3.788   8.652  1.0505 -0.3029  2.2087
  380MOL0     H51243   5.694   3.803   8.759  1.1844 -2.5820  2.3120
  380MOL0     H51244   5.647   3.637   8.737 -1.7697 -0.6383 -2.2536
  380MOL0     H51245   5.871   3.650   8.691  0.8799 -1.3770 -1.3530
  380MOL0     H51246   5.807   3.607   8.539  0.5563 -0.2053 -0.6727
  380MOL0     H51247   5.948   3.841   8.643  0.1164 -3.7221  0.5804
  380MOL0     H51248   5.806   3.895   8.548  1.2613  1.8825  0.3696
  380MOL0     H51249   6.032   3.702   8.453 -1.0676 -2.0112  1.1946
  380MOL0     H51250   5.880   3.744   8.363  1.1956  0.9746  0.2869
  380MOL0     H51251   6.208   3.906   8.506 -2.1416 -0.8683  1.2449
  380MOL0     H51252   6.336   4.101   8.292  2.5513  2.6339 -0.3634
  380MOL0     H51253   6.251   4.252   8.294 -0.8013  0.1804 -0.7604
  380MOL0     H51254   6.270   4.203   8.571 -0.2481  2.7205 -1.1167
  380MOL0     H51255   6.369   4.063   8.515 -0.5612 -0.5123 -0.4112
  380MOL0     H51256   6.495   4.287   8.568  1.9570  5.5452 -1.2867
  380MOL0     H51257   6.419   4.353   8.421  1.1939 -0.4919 -0.8214
  380MOL0     H51258   6.535   4.201   8.284  0.4900 -1.6842  0.2449
  380MOL0     H51259   6.603   4.106   8.424  0.7667 -0.3238 -0.1871
  380MOL0     H51260   6.696   4.107   8.594  1.1657 -1.4978 -0.7568
  380MOL0     H51261   6.852   4.101   8.764 -1.3542  0.3252 -0.5804
  380MOL0     H51262   7.235   4.568   8.907  1.9364  0.8259 -0.1230
  380MOL0     H51263   7.419   4.583   9.063 -1.8820  0.1201 -2.5079
  380MOL0     H51264   7.752   4.274   9.092 -1.8282 -0.9335  0.4300
  380MOL0     H51265   7.744   4.396   8.963  3.7351  0.7718  0.6475
  380MOL0     H51266   7.856   4.412   9.244 -0.5059 -0.5542  0.6332
  380MOL0     H51267   7.938   4.450   9.092  0.2602 -0.6386 -0.1609
  380MOL0     H51268   7.785   4.653   9.067  0.9094 -1.4483 -0.1448
  380MOL0     H51269   7.717   4.620   9.230 -0.6570 -3.4849  0.6793
  380MOL0     H51270   8.012   4.676   9.154  0.6557  1.1667  0.8752
  380MOL0     H51271   7.960   4.629   9.316  1.4646  1.2384  0.6202
  380MOL0     H51272   7.799   4.824   9.325 -0.7089  3.3831 -0.4444
  380MOL0     H51273   7.856   4.875   9.166  5.0893 -1.4197 -2.0230
  380MOL0     H51274   8.097   4.868   9.260  0.3778 -0.0183  0.3691
  380MOL0     H51275   7.999   5.005   9.306  3.3942  0.8815  1.2577
  380MOL0     H51276   8.011   4.773   9.498  0.3688 -0.8094 -1.6333
  380MOL0     H51277   7.993   4.948   9.525 -1.0024  0.1307 -1.0775
  380MOL0     H51278   8.224   4.876   9.592  1.9355 -2.2187 -0.0892
  380MOL0     H51279   8.245   4.782   9.448 -3.8562 -1.5171  0.1555
  380MOL0     H51280   7.552   4.196   8.948  0.3608  0.7648  1.4028
  380MOL0     H51281   7.373   4.173   8.791  3.6456 -0.6638  1.0698
  380MOL0     H51282   7.018   4.473   8.599 -1.6081  0.3122 -1.2830
  380MOL0     H51283   6.856   4.467   8.428  2.0937  0.7698 -0.6628
  380MOL0     H51284   4.992   3.764   8.494 -0.6060  2.5429  0.4899
  380MOL0     H51285   4.783   3.794   8.614 -0.1457  0.7557 -1.4463
  380MOL0     H51286   4.540   3.793   9.004 -2.1814 -0.2203 -1.4373
  380MOL0     H51287   4.383   3.753   9.169 -2.4694  1.2306 -1.5231
  380MOL0     H51288   4.249   3.659   9.336  0.7538 -0.7665 -1.8882
  380MOL0     H51289   4.088   3.589   9.336 -0.0158  0.7756  1.2926
  380MOL0     H51290   4.166   3.844   9.187  2.5302 -3.3518 -2.5655
  380MOL0     H51291   4.059   3.816   9.328  0.4750 -0.3838 -0.1281
  380MOL0     H51292   4.048   3.729   9.034 -0.3514 -1.6321  1.2214
  380MOL0     H51293   3.937   3.851   9.103 -0.2264  0.3166  2.7077
  380MOL0     H51294   3.801   3.644   9.094 -1.5944  0.5780  3.3294
  380MOL0     H51295   3.931   3.555   9.175 -0.5863 -0.9300 -0.4905
  380MOL0     H51296   3.682   3.765   9.468 -1.2323  1.0131 -0.9822
  380MOL0     H51297   4.242   3.399   8.984  0.8597 -1.8435 -0.3167
  380MOL0     H51298   4.364   3.300   8.811  1.4593 -1.3353  0.2397
  380MOL0     H51299   4.445   3.400   8.687  0.8257  1.4385 -1.5222
  380MOL0     H51300   4.539   3.328   8.810  0.3973  1.8658 -1.1063
  381MOL0     O51301  11.112   8.584   3.100  0.1768  0.4572 -0.0044
  381MOL0     C51302  11.126   8.496   3.020 -0.6675  0.1028  0.6286
  381MOL0     O51303  11.244   8.459   2.966  0.3606 -0.1131 -0.1455
  381MOL0     C51304  11.361   8.516   3.008 -0.4918 -0.1586 -0.7063
  381MOL0     C51305  11.406   8.637   2.950 -0.1266 -0.0730 -0.0194
  381MOL0     C51306  11.539   8.672   2.975  1.1661  0.9690  1.1414
  381MOL0     C51307  11.626   8.597   3.058  0.7111  0.5431 -0.6975
  381MOL0     O51308  11.753   8.635   3.083 -0.3766  0.1299  1.0637
  381MOL0     C51309  11.773   8.777   3.101  0.2448 -0.2003  0.0099
  381MOL0     C51310  11.913   8.815   3.135 -0.6234  0.0779  0.5220
  381MOL0     C51311  12.021   8.794   3.024  0.9781  0.4842  0.0173
  381MOL0     C51312  12.168   8.805   3.080  0.2119  0.2462 -0.0978
  381MOL0     C51313  12.267   8.743   2.980 -0.4980 -0.4163 -1.0594
  381MOL0     C51314  12.410   8.744   3.047  0.2245  0.0782 -1.1670
  381MOL0     C51315  12.464   8.882   3.083 -0.0829  0.0657 -0.4936
  381MOL0     C51316  12.613   8.877   3.135 -0.2130  0.7969 -0.2820
  381MOL0     N51317  12.660   8.996   3.205 -0.5522 -0.1951  0.4182
  381MOL0     C51318  12.762   9.003   3.302 -0.2083  0.6033  0.2771
  381MOL0     C51319  12.772   9.138   3.313  0.4667  0.4526 -0.4354
  381MOL0     C51320  12.847   9.206   3.419 -0.4157 -0.3644 -0.5281
  381MOL0     C51321  12.956   9.286   3.359  0.3362 -0.2870  0.4121
  381MOL0     C51322  12.993   9.393   3.455  0.3051 -0.4911  0.5311
  381MOL0     C51323  13.120   9.468   3.402 -0.1486 -0.2176 -0.5128
  381MOL0     O51324  13.246   9.407   3.421 -0.0060  0.6434  0.6708
  381MOL0     C51325  13.329   9.418   3.313 -0.7088  0.9055  0.1513
  381MOL0     C51326  13.345   9.304   3.239  0.3861  0.3630 -0.0151
  381MOL0     C51327  13.464   9.292   3.164 -0.2563 -0.2812 -0.2822
  381MOL0     C51328  13.558   9.400   3.142 -0.2157  0.3220 -0.1917
  381MOL0     C51329  13.688   9.363   3.089  0.4501  0.7969  0.7027
  381MOL0     O51330  13.787   9.455   3.078  0.0902  0.3861  0.2332
  381MOL0     C51331  13.912   9.427   3.032  0.2029  1.0831 -0.9272
  381MOL0     C51332  13.971   9.528   2.960 -0.3446 -0.4957  0.0270
  381MOL0     C51333  14.107   9.516   2.924  0.8913  0.5581  0.3924
  381MOL0     C51334  14.181   9.403   2.955 -0.0039  0.0093 -0.6611
  381MOL0     O51335  14.309   9.397   2.909  0.2232  0.0771 -0.5247
  381MOL0     C51336  14.395   9.287   2.950 -0.4392  0.5063  0.3697
  381MOL0     C51337  14.539   9.320   2.924  0.6532  0.4187  0.2072
  381MOL0     C51338  14.567   9.336   2.776  0.5730  0.0212 -0.0908
  381MOL0     C51339  14.718   9.340   2.751  0.8014 -0.7692  0.1037
  381MOL0     C51340  14.734   9.352   2.596 -0.9216  0.2651  0.1332
  381MOL0     C51341  14.880   9.332   2.560  0.8799 -0.0865 -0.1017
  381MOL0     C51342  14.970   9.452   2.582  0.7560 -0.3745 -0.1745
  381MOL0     C51343  15.091   9.469   2.504 -0.4276  0.6288  0.3895
  381MOL0    Cl51344  15.223   9.359   2.547 -0.0439  0.4359  0.0858
  381MOL0     C51345  14.124   9.316   3.045  0.2488 -0.1893  0.3782
  381MOL0     C51346  13.991   9.317   3.077 -0.6753  0.0123 -0.1979
  381MOL0     O51347  13.694   9.250   3.050  0.3969 -0.1264 -0.2119
  381MOL0     C51348  13.536   9.520   3.214 -0.5755  0.1950  0.6862
  381MOL0     C51349  13.423   9.530   3.298 -0.2877  0.5501 -0.4042
  381MOL0     N51350  12.689   9.208   3.224 -0.3417 -0.2409 -0.0295
  381MOL0     N51351  12.628   9.121   3.153  0.3127  0.0318  0.4274
  381MOL0     C51352  11.579   8.475   3.111 -0.4784 -0.2369  0.6523
  381MOL0     C51353  11.443   8.436   3.082 -0.1593 -0.0166 -0.8215
  381MOL0     C51354  11.008   8.427   2.958 -0.3245 -0.3823  0.2450
  381MOL0     C51355  10.888   8.423   3.034 -0.5012 -1.5641  0.1114
  381MOL0     C51356  10.768   8.381   2.974 -0.0578  0.5537  0.5605
  381MOL0     C51357  10.760   8.333   2.838  0.7570 -0.2585  0.2757
  381MOL0     O51358  10.648   8.299   2.764 -0.0707 -0.4980 -0.3309
  381MOL0     C51359  10.527   8.285   2.841 -0.3944  0.4505 -0.5346
  381MOL0     C51360  10.409   8.270   2.754 -0.5190  0.3277 -0.7320
  381MOL0     C51361  10.377   8.379   2.648 -0.0224 -0.5759 -0.3163
  381MOL0     C51362  10.229   8.389   2.619 -0.0005  0.1229 -0.2345
  381MOL0     C51363  10.183   8.281   2.530 -0.3715  0.7116 -0.9155
  381MOL0     C51364  10.142   8.210   2.448 -1.1069  0.4704  0.0343
  381MOL0     C51365  10.876   8.350   2.766  0.0149  0.8760 -0.2436
  381MOL0     C51366  10.994   8.404   2.818  0.7852  0.3352  0.4045
  381MOL0     C51367  11.101   8.418   2.713 -0.1513 -0.5814 -0.3101
  381MOL0     H51368  11.330   8.692   2.896 -3.1154 -0.6852  3.1735
  381MOL0     H51369  11.566   8.758   2.915 -0.7307 -0.4728 -1.9938
  381MOL0     H51370  11.752   8.837   3.012  0.3729 -1.6805 -1.0634
  381MOL0     H51371  11.709   8.818   3.180  0.0524 -0.4973  0.0090
  381MOL0     H51372  11.938   8.749   3.219 -3.2985 -3.0240 -0.9250
  381MOL0     H51373  11.916   8.916   3.176  2.6146 -0.0989  1.0227
  381MOL0     H51374  12.010   8.867   2.944  0.7253 -1.0677 -1.4354
  381MOL0     H51375  12.008   8.694   2.980 -0.8871 -0.1086  1.7342
  381MOL0     H51376  12.184   8.913   3.088 -0.2586  0.4019 -1.1195
  381MOL0     H51377  12.174   8.744   3.170 -3.7811 -1.0906 -0.5306
  381MOL0     H51378  12.237   8.638   2.968 -0.5665 -0.6703  0.9512
  381MOL0     H51379  12.257   8.799   2.887 -5.3386  2.2502  0.7372
  381MOL0     H51380  12.422   8.678   3.133  2.4273 -0.9685 -2.1785
  381MOL0     H51381  12.478   8.712   2.967  1.5023 -0.3555  0.0465
  381MOL0     H51382  12.403   8.922   3.165 -1.2394  0.3585 -1.4760
  381MOL0     H51383  12.448   8.962   3.010 -0.8493 -0.1802 -0.6110
  381MOL0     H51384  12.621   8.793   3.205 -0.0214  1.2919  0.3088
  381MOL0     H51385  12.675   8.861   3.047  1.1760  0.8901  0.6414
  381MOL0     H51386  12.810   8.925   3.360 -2.0532  0.6276  1.9337
  381MOL0     H51387  12.783   9.262   3.488 -0.5642 -0.4119 -0.6286
  381MOL0     H51388  12.898   9.134   3.484  1.3619 -0.2965 -1.7742
  381MOL0     H51389  13.041   9.228   3.322 -0.8189 -0.5728 -1.9900
  381MOL0     H51390  12.913   9.336   3.271  0.7984  1.6212  1.2198
  381MOL0     H51391  13.014   9.351   3.553  1.0326  1.1741  1.1341
  381MOL0     H51392  12.915   9.470   3.460  1.7685  1.2356 -1.1309
  381MOL0     H51393  13.124   9.567   3.448 -2.6196 -1.2458  2.1320
  381MOL0     H51394  13.100   9.478   3.295 -1.7158  0.0656 -0.2083
  381MOL0     H51395  13.283   9.216   3.237  3.2477 -1.8230  0.6069
  381MOL0     H51396  13.465   9.195   3.117 -2.1003 -1.3287  1.6111
  381MOL0     H51397  13.913   9.614   2.929  0.2024 -0.4415 -0.8733
  381MOL0     H51398  14.154   9.603   2.878 -3.4664  1.9283 -1.9846
  381MOL0     H51399  14.383   9.253   3.054  4.3780 -1.4017  0.5644
  381MOL0     H51400  14.384   9.197   2.889 -5.1343 -0.0907  1.6461
  381MOL0     H51401  14.559   9.417   2.971  3.9204  0.3046 -0.7052
  381MOL0     H51402  14.597   9.239   2.970 -2.4002 -2.3656 -0.5016
  381MOL0     H51403  14.514   9.264   2.714  1.5681 -0.2897 -0.5930
  381MOL0     H51404  14.523   9.432   2.747 -1.5033 -0.2267  1.9481
  381MOL0     H51405  14.769   9.246   2.774 -0.2831 -1.2293  0.6624
  381MOL0     H51406  14.761   9.428   2.801 -2.6058  1.8043 -1.1419
  381MOL0     H51407  14.709   9.453   2.562 -0.5175  1.3296  2.7392
  381MOL0     H51408  14.658   9.293   2.544  0.3229  0.9041 -2.5887
  381MOL0     H51409  14.934   9.250   2.609  0.1015 -1.2943 -1.2069
  381MOL0     H51410  14.890   9.303   2.455  0.9554  2.5362 -0.8797
  381MOL0     H51411  14.988   9.468   2.689  1.9554  0.3355 -0.4612
  381MOL0     H51412  14.913   9.541   2.556  2.9801  0.7199 -1.6593
  381MOL0     H51413  15.058   9.455   2.401 -1.4568 -1.3911  0.9391
  381MOL0     H51414  15.124   9.572   2.520  1.5224  0.0452  0.3937
  381MOL0     H51415  14.189   9.241   3.089  2.8577  1.3719 -0.6273
  381MOL0     H51416  13.958   9.237   3.144 -0.2766 -0.5121 -0.6190
  381MOL0     H51417  13.599   9.608   3.203 -1.1749  0.5497  0.0743
  381MOL0     H51418  13.407   9.626   3.347  0.7262  1.7144 -2.2434
  381MOL0     H51419  11.656   8.414   3.156 -0.7165  0.8217  2.5857
  381MOL0     H51420  11.402   8.341   3.113  1.7059 -0.4305  0.6069
  381MOL0     H51421  10.899   8.459   3.136 -1.2876  0.4680 -0.4667
  381MOL0     H51422  10.685   8.379   3.043  0.2257 -1.7490  0.9041
  381MOL0     H51423  10.504   8.379   2.892 -2.9554 -0.4277  0.0462
  381MOL0     H51424  10.525   8.211   2.921 -0.0785  0.0162 -0.9178
  381MOL0     H51425  10.324   8.235   2.814  0.2569 -1.1178 -0.4100
  381MOL0     H51426  10.438   8.181   2.697 -0.1116 -0.2702  0.3794
  381MOL0     H51427  10.437   8.374   2.556  0.0650 -1.2640 -0.2225
  381MOL0     H51428  10.403   8.476   2.692  0.2783 -0.0382 -1.5983
  381MOL0     H51429  10.175   8.387   2.714  1.9260 -0.6541  0.8993
  381MOL0     H51430  10.208   8.479   2.561 -0.2711 -0.3894 -0.9349
  381MOL0     H51431  10.113   8.153   2.362 -0.4902 -0.9905  0.7501
  381MOL0     H51432  10.879   8.321   2.661  2.3660  1.6857 -0.4708
  381MOL0     H51433  11.161   8.327   2.712  0.8399  0.0328 -2.5664
  381MOL0     H51434  11.050   8.414   2.617  1.0806 -1.2531 -0.9455
  381MOL0     H51435  11.152   8.514   2.725  1.3520 -1.5701  1.7058
  382MOL0     O51436   3.365   1.849  10.793  0.0223  0.3955 -0.0234
  382MOL0     C51437   3.446   1.932  10.805 -0.3780  0.6098 -0.1404
  382MOL0     O51438   3.447   2.028  10.907  0.9417  0.1549 -0.3629
  382MOL0     C51439   3.341   2.052  10.988  0.0436 -0.3384 -0.3617
  382MOL0     C51440   3.223   1.973  11.023 -0.5613  0.2362  1.2107
  382MOL0     C51441   3.124   2.005  11.108  0.4378 -0.8872  0.1530
  382MOL0     C51442   3.135   2.130  11.170 -0.7528 -0.2570 -0.4813
  382MOL0     O51443   3.047   2.184  11.265 -0.1170 -0.5086  0.0944
  382MOL0     C51444   2.911   2.138  11.257 -0.7638 -0.1238  0.6088
  382MOL0     C51445   2.843   2.204  11.380  0.2623 -0.3702  0.2467
  382MOL0     C51446   2.888   2.134  11.502  0.0018  1.0119 -1.0039
  382MOL0     C51447   2.840   2.206  11.627  0.0993 -0.7418 -0.5391
  382MOL0     C51448   2.713   2.147  11.684 -0.2687 -0.5170 -0.4384
  382MOL0     C51449   2.599   2.147  11.576  0.2639  0.5064 -0.6421
  382MOL0     C51450   2.462   2.096  11.628 -0.1302 -0.4673  0.6384
  382MOL0     C51451   2.347   2.129  11.530  0.1476 -0.5872  0.2291
  382MOL0     N51452   2.339   2.280  11.507  0.0381  0.0985 -0.5526
  382MOL0     C51453   2.286   2.363  11.602 -0.1635 -0.7959  0.1644
  382MOL0     C51454   2.293   2.479  11.531 -0.4255 -1.6201  0.1734
  382MOL0     C51455   2.237   2.608  11.585  0.2422  0.6019 -0.1088
  382MOL0     C51456   2.334   2.671  11.686  0.1203 -0.4678  0.5796
  382MOL0     C51457   2.449   2.744  11.611 -0.2397  0.6962 -0.0102
  382MOL0     C51458   2.517   2.833  11.710 -0.2351  0.2131 -0.2539
  382MOL0     O51459   2.599   2.767  11.800 -0.6177  1.1615 -0.0616
  382MOL0     C51460   2.716   2.716  11.760 -0.2194 -0.1530  0.7634
  382MOL0     C51461   2.766   2.720  11.631  0.0311 -0.1360 -0.2903
  382MOL0     C51462   2.897   2.666  11.607  0.4292 -0.2842  0.2515
  382MOL0     C51463   2.967   2.603  11.716 -0.1840 -0.8325  0.2284
  382MOL0     C51464   3.112   2.562  11.689  1.3765 -0.5302 -0.1458
  382MOL0     O51465   3.149   2.564  11.555  0.6357 -0.3700 -0.2561
  382MOL0     C51466   3.262   2.491  11.536 -0.8588  1.0451  0.5410
  382MOL0     C51467   3.235   2.351  11.507 -0.1548  0.0675  0.0206
  382MOL0     C51468   3.346   2.261  11.498 -0.8388  0.1174 -0.4871
  382MOL0     C51469   3.477   2.309  11.508  0.0585  0.9802 -0.1620
  382MOL0     O51470   3.579   2.220  11.501 -0.0710  0.2112 -0.6087
  382MOL0     C51471   3.652   2.211  11.627  0.9894  0.1593  0.7038
  382MOL0     C51472   3.790   2.155  11.617  0.3729 -0.0252  1.0130
  382MOL0     C51473   3.874   2.225  11.505 -0.4135 -1.1129 -0.8936
  382MOL0     C51474   4.010   2.161  11.477 -0.6796  0.4897  0.2775
  382MOL0     C51475   4.107   2.229  11.380  0.4957  0.1163 -0.0004
  382MOL0     C51476   4.246   2.165  11.382  0.2038  0.0244 -0.2943
  382MOL0     C51477   4.339   2.238  11.288  0.3996 -0.8574  0.1668
  382MOL0     C51478   4.475   2.171  11.238  0.6216 -1.0766  0.4770
  382MOL0    Cl51479   4.449   2.007  11.177  0.0100  0.1647  0.1470
  382MOL0     C51480   3.497   2.445  11.536  0.7489  0.2189 -0.1706
  382MOL0     C51481   3.393   2.541  11.551  0.6156 -0.0034 -0.4331
  382MOL0     O51482   3.170   2.507  11.776  0.3677 -0.4803  0.0348
  382MOL0     C51483   2.906   2.585  11.835 -0.0846  0.0803  0.4811
  382MOL0     C51484   2.789   2.655  11.863 -0.9131 -0.4619  0.1599
  382MOL0     N51485   2.345   2.467  11.406  0.1882  0.3368  0.0792
  382MOL0     N51486   2.374   2.342  11.395  0.3765  0.6759  0.0704
  382MOL0     C51487   3.245   2.211  11.148  0.6483  0.0905  1.1168
  382MOL0     C51488   3.354   2.173  11.058 -0.1049  0.0112  0.5844
  382MOL0     C51489   3.567   1.938  10.719  0.0269 -0.1699  0.8957
  382MOL0     C51490   3.683   2.008  10.761 -0.3052  0.0188 -0.7011
  382MOL0     C51491   3.798   2.005  10.685 -0.4313 -0.0863 -0.0970
  382MOL0     C51492   3.793   1.967  10.546 -0.7955 -0.0761 -1.4628
  382MOL0     O51493   3.898   1.976  10.456 -0.1754 -0.0001  0.3538
  382MOL0     C51494   4.031   2.028  10.482  0.0451 -0.9066 -0.3352
  382MOL0     C51495   4.121   1.937  10.552  0.3120  0.6891  1.4789
  382MOL0     C51496   4.127   1.788  10.499 -0.8582 -0.1856 -0.5417
  382MOL0     C51497   4.198   1.775  10.363  0.7278 -0.1703 -0.0449
  382MOL0     C51498   4.339   1.819  10.375  0.5593 -0.5139 -0.2685
  382MOL0     C51499   4.453   1.842  10.398 -1.3860  1.1779  0.1643
  382MOL0     C51500   3.678   1.907  10.496 -0.7745  0.3426 -0.0445
  382MOL0     C51501   3.564   1.876  10.588  0.2411 -1.1646  0.5030
  382MOL0     C51502   3.446   1.798  10.530  0.3102  0.2115 -0.7008
  382MOL0     H51503   3.219   1.874  10.979  1.2324  0.2848  0.8601
  382MOL0     H51504   3.048   1.928  11.120 -1.8914  1.0510 -1.1209
  382MOL0     H51505   2.881   2.184  11.163  1.2203 -2.1719 -1.1597
  382MOL0     H51506   2.894   2.030  11.258  0.7505 -0.4497 -1.6268
  382MOL0     H51507   2.735   2.210  11.359 -0.0582 -2.1556  1.1953
  382MOL0     H51508   2.878   2.307  11.386  0.1827 -0.3948  1.3481
  382MOL0     H51509   2.997   2.134  11.502  0.0049  0.6463 -1.6359
  382MOL0     H51510   2.859   2.029  11.501  1.8854  0.4299  0.1719
  382MOL0     H51511   2.921   2.189  11.699 -0.5368 -3.5056 -0.3636
  382MOL0     H51512   2.821   2.313  11.612  4.0637 -0.2578 -3.6349
  382MOL0     H51513   2.734   2.049  11.728  0.2361 -0.3749 -0.3595
  382MOL0     H51514   2.674   2.217  11.759 -1.7235 -2.2623  0.5036
  382MOL0     H51515   2.597   2.253  11.552  0.8888  0.2895 -1.6911
  382MOL0     H51516   2.623   2.088  11.487 -0.7859  1.2157 -1.4137
  382MOL0     H51517   2.438   2.135  11.727 -3.0318 -1.6347  0.5127
  382MOL0     H51518   2.466   1.987  11.638 -2.9217 -0.6424  0.6767
  382MOL0     H51519   2.366   2.076  11.436 -3.7954  0.1803 -1.1860
  382MOL0     H51520   2.256   2.095  11.580 -0.7391  2.8644  1.2570
  382MOL0     H51521   2.247   2.353  11.702  0.1974  3.2574  0.8844
  382MOL0     H51522   2.227   2.686  11.509 -0.5009  1.0127  0.3987
  382MOL0     H51523   2.132   2.601  11.615 -1.6624  1.2415 -5.5188
  382MOL0     H51524   2.281   2.741  11.751  1.6865  2.0937 -0.7491
  382MOL0     H51525   2.381   2.597  11.751  2.2952  1.9074  1.8664
  382MOL0     H51526   2.414   2.810  11.531  0.6826 -0.8101 -1.7594
  382MOL0     H51527   2.524   2.674  11.572  2.3699  2.4096  1.6510
  382MOL0     H51528   2.441   2.892  11.762  0.5692 -0.1910  1.4606
  382MOL0     H51529   2.582   2.906  11.660  1.9183 -0.9583  0.6997
  382MOL0     H51530   2.707   2.767  11.553 -1.5099  1.8976  1.9437
  382MOL0     H51531   2.943   2.662  11.509  2.2140 -0.3181  1.0469
  382MOL0     H51532   3.138   2.305  11.487  0.2864  0.5240 -3.8203
  382MOL0     H51533   3.335   2.153  11.496 -0.9875  0.0488  1.9291
  382MOL0     H51534   3.673   2.310  11.668  0.8181  0.9035 -0.9388
  382MOL0     H51535   3.591   2.158  11.700 -1.1636  0.6972 -0.6344
  382MOL0     H51536   3.840   2.156  11.715 -1.1183  1.8097  1.7972
  382MOL0     H51537   3.786   2.047  11.597  0.2803  0.0704  0.5233
  382MOL0     H51538   3.818   2.222  11.411 -0.2639  4.1242 -1.4441
  382MOL0     H51539   3.880   2.330  11.533  1.9026 -1.7016  1.1150
  382MOL0     H51540   3.979   2.071  11.422 -0.0663  2.0139 -2.8290
  382MOL0     H51541   4.059   2.129  11.569  0.7733  0.1477 -0.5960
  382MOL0     H51542   4.118   2.332  11.416 -1.1884  0.2179  0.3217
  382MOL0     H51543   4.077   2.233  11.275  1.8632 -2.0659 -0.5285
  382MOL0     H51544   4.294   2.154  11.480  3.4187 -0.5420 -1.7810
  382MOL0     H51545   4.220   2.062  11.355 -0.2723  0.2688 -0.7720
  382MOL0     H51546   4.368   2.334  11.331  0.6596  0.1332 -2.0879
  382MOL0     H51547   4.282   2.260  11.197 -0.1100  2.2532  1.1153
  382MOL0     H51548   4.516   2.232  11.157 -1.7036  1.5139  1.0828
  382MOL0     H51549   4.552   2.177  11.316  1.3343  2.1778 -0.3161
  382MOL0     H51550   3.600   2.475  11.550  0.6939 -0.7640  2.9137
  382MOL0     H51551   3.414   2.643  11.581 -0.2306 -0.2383  1.0595
  382MOL0     H51552   2.948   2.544  11.926 -3.6561 -1.8219  1.4799
  382MOL0     H51553   2.746   2.665  11.963  0.2728 -0.5683  0.6953
  382MOL0     H51554   3.261   2.301  11.206  4.0718 -0.0553  0.5959
  382MOL0     H51555   3.444   2.234  11.062  0.4407 -0.8336  2.3733
  382MOL0     H51556   3.695   2.051  10.860  1.3453 -1.4174 -0.2268
  382MOL0     H51557   3.886   2.055  10.726 -0.1092  0.1293 -1.0093
  382MOL0     H51558   4.021   2.118  10.544 -1.9134 -1.8580  0.8300
  382MOL0     H51559   4.077   2.055  10.387 -0.9469  0.1194 -0.5468
  382MOL0     H51560   4.089   1.937  10.657  3.5552 -1.6826  2.6283
  382MOL0     H51561   4.220   1.981  10.566  0.1765  0.7134  2.4185
  382MOL0     H51562   4.026   1.748  10.491 -1.7385  0.9792  3.0371
  382MOL0     H51563   4.184   1.738  10.577 -1.7843  1.9721  1.6202
  382MOL0     H51564   4.192   1.670  10.333  0.9293 -0.0176 -0.6304
  382MOL0     H51565   4.145   1.831  10.286  0.2343 -0.8099 -0.1800
  382MOL0     H51566   4.552   1.869  10.431 -0.3519 -0.3758 -1.4483
  382MOL0     H51567   3.675   1.876  10.393 -3.4762 -0.4791  0.2097
  382MOL0     H51568   3.470   1.761  10.429 -2.6891  0.9631 -1.8023
  382MOL0     H51569   3.413   1.716  10.594 -0.1381  0.7394 -0.2540
  382MOL0     H51570   3.353   1.855  10.525  0.7237  1.0273  0.6222
  383MOL0     O51571   6.262   0.976   3.390 -0.2721 -0.4810  0.4374
  383MOL0     C51572   6.201   1.072   3.422  0.0254 -0.0739 -0.1932
  383MOL0     O51573   6.213   1.139   3.537 -0.6163  0.8452 -0.2773
  383MOL0     C51574   6.292   1.073   3.642  0.6312  0.1221 -0.4110
  383MOL0     C51575   6.391   1.141   3.717  0.0875  0.4379  0.4455
  383MOL0     C51576   6.451   1.073   3.823  0.7719 -0.2411 -0.3226
  383MOL0     C51577   6.413   0.939   3.856 -0.5219 -0.4865  0.1368
  383MOL0     O51578   6.467   0.862   3.957 -0.2688 -1.2531 -0.1861
  383MOL0     C51579   6.602   0.898   4.009 -0.1920 -0.3383  0.5314
  383MOL0     C51580   6.662   0.779   4.084 -0.0726  0.0693 -0.5599
  383MOL0     C51581   6.806   0.814   4.103 -0.4854 -0.5368  0.0304
  383MOL0     C51582   6.893   0.695   4.159 -0.2964  0.3334 -0.8767
  383MOL0     C51583   7.037   0.743   4.174  0.1768 -0.4086  0.1842
  383MOL0     C51584   7.056   0.835   4.293  0.2170  0.1665 -0.4037
  383MOL0     C51585   7.210   0.870   4.324 -1.0015  0.3175 -0.6461
  383MOL0     C51586   7.238   0.916   4.467  0.0123 -0.9229 -0.0583
  383MOL0     N51587   7.377   0.902   4.500 -0.3134  0.6939  0.0895
  383MOL0     C51588   7.451   0.781   4.506  0.2806  0.5982 -0.2051
  383MOL0     C51589   7.582   0.808   4.513 -1.1684  0.0294 -0.0340
  383MOL0     C51590   7.708   0.724   4.520 -0.3978 -0.1130 -0.0041
  383MOL0     C51591   7.807   0.760   4.408  0.3439  0.1205 -0.1841
  383MOL0     C51592   7.911   0.649   4.365  0.2839 -0.9016 -1.0925
  383MOL0     C51593   7.960   0.570   4.491 -0.8647  0.6526  0.1963
  383MOL0     O51594   8.075   0.481   4.453  0.0190 -0.5047  0.5518
  383MOL0     C51595   8.192   0.548   4.426  0.5425 -1.0668 -0.0565
  383MOL0     C51596   8.226   0.679   4.449  0.1673 -0.4430 -0.5355
  383MOL0     C51597   8.347   0.733   4.403 -0.0191 -0.3444 -0.2123
  383MOL0     C51598   8.434   0.669   4.320 -0.6137  0.8495  0.1138
  383MOL0     C51599   8.565   0.732   4.284  0.7538  0.0941  0.3397
  383MOL0     O51600   8.570   0.865   4.285 -0.0029 -0.0708  0.2287
  383MOL0     C51601   8.681   0.942   4.271 -0.1187  1.0778 -0.0423
  383MOL0     C51602   8.772   0.915   4.166 -0.2794 -0.6243 -0.8410
  383MOL0     C51603   8.886   0.986   4.170  0.5110 -0.3134  0.1170
  383MOL0     C51604   8.930   1.087   4.265 -0.7048 -0.0276 -0.2352
  383MOL0     O51605   9.060   1.135   4.262 -0.1623  0.0426 -0.7753
  383MOL0     C51606   9.091   1.249   4.344  0.6054 -0.0962  0.1727
  383MOL0     C51607   9.217   1.314   4.301  0.0025 -0.4254  0.0235
  383MOL0     C51608   9.242   1.442   4.384  0.3948  0.2843 -0.1277
  383MOL0     C51609   9.384   1.489   4.377  0.2123 -0.0571  0.6008
  383MOL0     C51610   9.413   1.629   4.439 -0.0541  0.3196  0.7126
  383MOL0     C51611   9.552   1.685   4.416  0.5190 -0.1793 -0.3446
  383MOL0     C51612   9.665   1.591   4.461  0.2982  0.6057 -0.9395
  383MOL0     C51613   9.790   1.668   4.506  0.6265  0.0061  0.7366
  383MOL0    Cl51614   9.772   1.771   4.640  0.0261  0.2447 -0.1874
  383MOL0     C51615   8.836   1.110   4.365  0.5657 -0.4397  0.2416
  383MOL0     C51616   8.709   1.040   4.364  0.4707  0.4540 -0.5006
  383MOL0     O51617   8.656   0.656   4.241  0.4177 -0.3935 -0.2793
  383MOL0     C51618   8.402   0.536   4.290  0.4013  0.7282  0.5095
  383MOL0     C51619   8.286   0.483   4.342  0.1329  0.3325  1.1060
  383MOL0     N51620   7.587   0.952   4.522  0.4566  0.4403 -0.0437
  383MOL0     N51621   7.466   0.998   4.524 -0.0433 -0.1048 -0.0414
  383MOL0     C51622   6.325   0.871   3.776  0.4392 -0.7316 -0.1331
  383MOL0     C51623   6.262   0.943   3.676  0.4812  0.1250 -0.5592
  383MOL0     C51624   6.119   1.142   3.318 -0.5283 -0.2151  0.4169
  383MOL0     C51625   6.072   1.274   3.345 -0.4522  0.0606  0.1935
  383MOL0     C51626   5.995   1.339   3.249  0.5016 -0.1644  0.1921
  383MOL0     C51627   5.955   1.274   3.132 -1.0268  0.5650 -0.0416
  383MOL0     O51628   5.878   1.325   3.027  0.5274  0.4796 -0.0076
  383MOL0     C51629   5.810   1.453   3.050  0.1993  0.2724  0.4996
  383MOL0     C51630   5.694   1.449   3.159  0.0034  0.3867  0.3481
  383MOL0     C51631   5.637   1.599   3.180 -0.1512 -0.5176  0.7860
  383MOL0     C51632   5.750   1.686   3.246 -0.6010 -0.3444  0.2034
  383MOL0     C51633   5.707   1.803   3.333 -0.1118  0.3054 -0.3763
  383MOL0     C51634   5.634   1.884   3.386  0.2566  0.5795  0.4163
  383MOL0     C51635   6.001   1.147   3.098  0.4800  0.8291 -0.1885
  383MOL0     C51636   6.083   1.079   3.187  0.5895 -1.0938 -0.7293
  383MOL0     C51637   6.112   0.939   3.151  0.4519  0.3737 -0.3746
  383MOL0     H51638   6.441   1.231   3.682  1.2217 -0.1700  0.4775
  383MOL0     H51639   6.523   1.128   3.883  3.6891 -2.1853 -1.8081
  383MOL0     H51640   6.667   0.934   3.929 -0.4350  0.3340  0.6326
  383MOL0     H51641   6.600   0.980   4.083  2.8972  0.9875 -0.7142
  383MOL0     H51642   6.661   0.686   4.027  0.1738 -0.1641 -0.1889
  383MOL0     H51643   6.608   0.774   4.179 -2.5418  1.3341 -1.8076
  383MOL0     H51644   6.804   0.889   4.183  0.7831 -1.3191  0.8312
  383MOL0     H51645   6.842   0.860   4.010  2.1608 -1.2310  0.6364
  383MOL0     H51646   6.856   0.666   4.258 -0.7707  2.0063 -0.5291
  383MOL0     H51647   6.888   0.616   4.084 -1.6562  1.4654 -2.0502
  383MOL0     H51648   7.093   0.650   4.184 -1.0288 -1.1448  0.2597
  383MOL0     H51649   7.063   0.803   4.086  0.2016 -1.6298 -0.6645
  383MOL0     H51650   6.987   0.919   4.280  0.0004  0.1661  0.6182
  383MOL0     H51651   7.034   0.786   4.388  1.7957  2.1111  1.0701
  383MOL0     H51652   7.253   0.947   4.259  1.1278 -1.4093 -1.4469
  383MOL0     H51653   7.269   0.778   4.312 -0.1492  0.4400  1.9625
  383MOL0     H51654   7.204   1.019   4.479  1.2543 -0.3949 -0.8881
  383MOL0     H51655   7.167   0.870   4.537 -1.1111  0.7308 -0.0628
  383MOL0     H51656   7.410   0.682   4.490  1.3802  0.0356  0.3900
  383MOL0     H51657   7.757   0.727   4.618  1.5182  1.3384 -0.9486
  383MOL0     H51658   7.676   0.620   4.518 -1.8864  0.3073 -2.9375
  383MOL0     H51659   7.745   0.792   4.323  0.6367 -0.6987 -0.7215
  383MOL0     H51660   7.859   0.844   4.455 -1.4067  0.5520  1.0828
  383MOL0     H51661   7.992   0.703   4.314 -1.4173  1.6135 -1.2932
  383MOL0     H51662   7.869   0.577   4.294 -1.4480  1.7781 -2.9937
  383MOL0     H51663   7.879   0.506   4.528  0.4909 -1.0103  0.4221
  383MOL0     H51664   7.977   0.643   4.570 -3.6722  1.5964  0.0394
  383MOL0     H51665   8.176   0.755   4.509  0.5745 -1.4924  1.1978
  383MOL0     H51666   8.375   0.832   4.436 -1.9540 -0.5010  2.1655
  383MOL0     H51667   8.751   0.839   4.091 -0.3047 -1.7357  0.2796
  383MOL0     H51668   8.948   0.961   4.085  0.8574  0.9146  0.0037
  383MOL0     H51669   9.020   1.319   4.298  0.4366  0.1458  0.7935
  383MOL0     H51670   9.073   1.231   4.450 -3.0739  1.0397 -0.1097
  383MOL0     H51671   9.295   1.239   4.313  0.2610 -0.3538 -1.1451
  383MOL0     H51672   9.221   1.338   4.195 -1.6432  3.3961  0.6624
  383MOL0     H51673   9.178   1.519   4.339  1.0608  1.1899  0.4522
  383MOL0     H51674   9.216   1.434   4.490  2.3087  1.2882  0.4701
  383MOL0     H51675   9.408   1.481   4.271 -3.3155 -1.2473 -0.2294
  383MOL0     H51676   9.440   1.415   4.436 -0.6347  0.6760  2.4034
  383MOL0     H51677   9.401   1.635   4.547  3.4871 -0.0670  1.2713
  383MOL0     H51678   9.334   1.695   4.403 -0.4072  0.1530  1.1701
  383MOL0     H51679   9.562   1.689   4.307  0.6299  2.8857 -0.3318
  383MOL0     H51680   9.548   1.785   4.461 -3.1934  0.2472 -1.2725
  383MOL0     H51681   9.684   1.519   4.380 -3.0625 -1.9105  0.2414
  383MOL0     H51682   9.638   1.524   4.543  1.0541  1.3359 -0.0687
  383MOL0     H51683   9.867   1.593   4.523 -1.2880 -1.8836  1.4799
  383MOL0     H51684   9.814   1.733   4.422  1.1755 -0.1591  0.7669
  383MOL0     H51685   8.872   1.160   4.454  4.3282 -0.2677 -1.1953
  383MOL0     H51686   8.636   1.062   4.442  0.2508  0.8134 -0.8011
  383MOL0     H51687   8.449   0.476   4.212 -2.3715  1.2174 -1.7225
  383MOL0     H51688   8.265   0.378   4.325  2.4768 -0.2120  1.1974
  383MOL0     H51689   6.301   0.769   3.806  0.4151 -0.1743  1.9279
  383MOL0     H51690   6.178   0.904   3.620  1.0792 -1.3841 -0.4742
  383MOL0     H51691   6.096   1.336   3.431 -0.4923 -1.7181  1.5261
  383MOL0     H51692   5.967   1.441   3.273  2.0828  0.7839 -1.6757
  383MOL0     H51693   5.774   1.489   2.954  2.4360  0.7298 -0.2291
  383MOL0     H51694   5.888   1.520   3.087 -0.3735  1.0030  0.4077
  383MOL0     H51695   5.735   1.405   3.250 -1.5740 -0.1617  0.8229
  383MOL0     H51696   5.622   1.370   3.135  1.4829 -0.6772 -0.7939
  383MOL0     H51697   5.544   1.593   3.238  0.1953  0.5420  1.4757
  383MOL0     H51698   5.610   1.645   3.085 -0.8564 -0.0681  1.1981
  383MOL0     H51699   5.820   1.624   3.303  0.4611 -1.3399 -2.0422
  383MOL0     H51700   5.808   1.724   3.161 -0.0701 -0.7782  0.3663
  383MOL0     H51701   5.560   1.947   3.431  0.1615 -0.5412  1.8742
  383MOL0     H51702   5.961   1.097   3.011 -0.9746 -0.9076  1.4014
  383MOL0     H51703   6.090   0.866   3.229 -0.0423 -2.0790 -2.6477
  383MOL0     H51704   6.064   0.900   3.061  1.1384 -0.9659 -0.1966
  383MOL0     H51705   6.220   0.938   3.134  0.6360 -2.3614  0.5216
  384MOL0     O51706   8.552   9.235   7.484 -0.2263  0.0785  0.5021
  384MOL0     C51707   8.477   9.224   7.387  0.3485  0.5127  0.4327
  384MOL0     O51708   8.511   9.183   7.255 -0.3944 -0.4366  0.4480
  384MOL0     C51709   8.644   9.149   7.232 -0.0645 -0.3311  0.4631
  384MOL0     C51710   8.705   9.046   7.305  0.9244  0.0513 -0.4870
  384MOL0     C51711   8.830   9.005   7.262  0.2656 -0.0679  0.0483
  384MOL0     C51712   8.904   9.063   7.158  0.1051 -0.5617  0.0952
  384MOL0     O51713   9.030   9.025   7.129 -0.0883  0.2687  0.2363
  384MOL0     C51714   9.113   8.956   7.231  0.7006  0.3444 -0.7070
  384MOL0     C51715   9.241   8.910   7.170  0.2878  0.9839  0.1141
  384MOL0     C51716   9.333   8.829   7.262 -0.2758 -0.2539  0.0942
  384MOL0     C51717   9.461   8.771   7.178  0.1719 -0.4075 -0.0909
  384MOL0     C51718   9.589   8.743   7.256  0.0202 -0.4188 -1.2362
  384MOL0     C51719   9.702   8.708   7.164  1.0868 -0.4981  0.8145
  384MOL0     C51720   9.824   8.692   7.253 -0.2659  0.1636  0.3105
  384MOL0     C51721   9.919   8.599   7.192 -0.3061 -0.0692  0.2627
  384MOL0     N51722   9.961   8.631   7.053 -0.5131 -0.3839  0.8074
  384MOL0     C51723  10.043   8.733   7.020 -0.4324 -0.9561  0.5528
  384MOL0     C51724  10.083   8.720   6.888  0.5488  0.0567 -1.9811
  384MOL0     C51725  10.162   8.813   6.801  0.4363  0.2154 -0.8121
  384MOL0     C51726  10.281   8.739   6.742 -0.6547  0.0036 -0.1190
  384MOL0     C51727  10.346   8.829   6.649  0.0023 -0.8510  1.0300
  384MOL0     C51728  10.492   8.810   6.622 -0.8658  0.3152  0.1444
  384MOL0     O51729  10.568   8.846   6.739  0.3357  0.2063  0.4876
  384MOL0     C51730  10.706   8.838   6.745 -0.3805  0.1743  0.1439
  384MOL0     C51731  10.787   8.795   6.638  0.2662  0.2301  0.3259
  384MOL0     C51732  10.929   8.804   6.650 -0.0427  0.6134  0.2186
  384MOL0     C51733  10.991   8.846   6.771  0.0904 -0.3082  0.5221
  384MOL0     C51734  11.135   8.880   6.787  0.7841 -0.5050  0.5413
  384MOL0     O51735  11.212   8.844   6.680  0.5041  0.9037 -0.9985
  384MOL0     C51736  11.345   8.882   6.685  0.1954  0.5121  0.3966
  384MOL0     C51737  11.440   8.797   6.750  0.9831  0.1844  0.0891
  384MOL0     C51738  11.578   8.840   6.755 -0.2566  0.2717 -0.1096
  384MOL0     C51739  11.614   8.959   6.685  0.4279 -0.0497 -0.0289
  384MOL0     O51740  11.734   9.026   6.678 -0.2049 -0.5077  0.0986
  384MOL0     C51741  11.856   8.949   6.697  0.9555  0.2741 -0.7962
  384MOL0     C51742  11.979   9.006   6.622  0.6767  0.7510 -0.3319
  384MOL0     C51743  12.017   9.145   6.675  0.6772  0.7539 -0.6822
  384MOL0     C51744  12.104   9.221   6.568 -0.3626 -0.5012 -1.1693
  384MOL0     C51745  12.244   9.246   6.624  0.0052 -0.1214  0.0042
  384MOL0     C51746  12.230   9.360   6.728 -0.6113  0.5984 -0.2327
  384MOL0     C51747  12.223   9.501   6.646  0.3354  0.1314 -0.1295
  384MOL0     C51748  12.284   9.628   6.721  0.0563  0.7267  0.9941
  384MOL0    Cl51749  12.460   9.643   6.694  0.3075  0.1190 -0.7284
  384MOL0     C51750  11.509   9.034   6.618  0.4984  0.7591 -1.1000
  384MOL0     C51751  11.378   9.002   6.621 -1.1027  0.3373 -0.7075
  384MOL0     O51752  11.171   8.942   6.891 -0.4745 -0.7326  0.5320
  384MOL0     C51753  10.907   8.884   6.877  0.5406 -0.0756 -0.0471
  384MOL0     C51754  10.769   8.877   6.864  0.2144  0.4664  0.5547
  384MOL0     N51755  10.018   8.610   6.840 -0.2134  0.0280 -0.3551
  384MOL0     N51756   9.957   8.551   6.940 -0.3733  0.8644 -0.3727
  384MOL0     C51757   8.835   9.160   7.083 -0.6635  0.4336 -0.3631
  384MOL0     C51758   8.714   9.203   7.127  0.7721 -0.4668  0.2972
  384MOL0     C51759   8.327   9.261   7.411  0.3480 -0.9545  0.8352
  384MOL0     C51760   8.247   9.260   7.295  0.5261 -0.2803  0.5035
  384MOL0     C51761   8.106   9.288   7.304 -0.6399 -0.0126  0.2229
  384MOL0     C51762   8.050   9.333   7.426 -0.0405  0.3551 -0.1718
  384MOL0     O51763   7.914   9.353   7.450 -1.0723  0.5280  0.0431
  384MOL0     C51764   7.832   9.374   7.337 -0.5065  0.0187 -0.8344
  384MOL0     C51765   7.707   9.442   7.381  0.0480  0.2037  0.7011
  384MOL0     C51766   7.723   9.573   7.464  0.1365  0.1440 -0.5545
  384MOL0     C51767   7.790   9.691   7.391  0.5885 -0.4017 -0.6773
  384MOL0     C51768   7.937   9.687   7.378 -0.5539  0.5201  0.2974
  384MOL0     C51769   8.054   9.672   7.367  0.0238  0.6152  0.5017
  384MOL0     C51770   8.131   9.346   7.535  0.0942  0.4496 -0.0918
  384MOL0     C51771   8.267   9.310   7.529 -0.3836 -0.5788  0.8262
  384MOL0     C51772   8.341   9.336   7.662 -0.2766 -0.1499  0.7924
  384MOL0     H51773   8.647   8.988   7.375 -1.1111 -1.1649 -3.0272
  384MOL0     H51774   8.869   8.919   7.315  0.7527 -1.6804 -2.6911
  384MOL0     H51775   9.136   9.024   7.314 -2.5115  0.4908  0.2279
  384MOL0     H51776   9.061   8.866   7.265  1.4102 -0.2724 -1.2168
  384MOL0     H51777   9.296   8.994   7.126  2.0901 -0.4576 -0.5451
  384MOL0     H51778   9.206   8.849   7.086 -0.6070 -0.3241  1.3763
  384MOL0     H51779   9.279   8.758   7.325  0.5698  1.1074  2.5248
  384MOL0     H51780   9.375   8.902   7.332 -3.3026  1.9798 -0.2498
  384MOL0     H51781   9.428   8.672   7.147  0.5286 -0.1073 -1.5171
  384MOL0     H51782   9.486   8.842   7.098  0.0300 -2.1767 -1.7690
  384MOL0     H51783   9.624   8.834   7.306  0.8739 -1.1348 -0.5223
  384MOL0     H51784   9.567   8.664   7.328  2.5212 -0.4892 -0.4774
  384MOL0     H51785   9.686   8.614   7.111  1.9588 -0.7023  0.8916
  384MOL0     H51786   9.715   8.795   7.099  0.2796 -1.3031 -0.4632
  384MOL0     H51787   9.794   8.649   7.349  2.5855 -2.6351  0.1113
  384MOL0     H51788   9.866   8.791   7.273 -0.5813  0.2462  0.5701
  384MOL0     H51789  10.010   8.580   7.249  0.3047 -2.1109 -1.2594
  384MOL0     H51790   9.869   8.502   7.192  0.3269 -0.4230 -0.9866
  384MOL0     H51791  10.091   8.803   7.088 -0.6691 -1.9959  1.8221
  384MOL0     H51792  10.109   8.851   6.714 -1.7554  0.8792  0.7179
  384MOL0     H51793  10.194   8.898   6.861 -0.0333  1.9272 -2.8888
  384MOL0     H51794  10.343   8.729   6.831 -0.5296 -1.5041 -0.3436
  384MOL0     H51795  10.252   8.642   6.701  2.9888 -1.0554 -0.5337
  384MOL0     H51796  10.343   8.935   6.678 -0.3134 -0.4940 -0.2414
  384MOL0     H51797  10.288   8.805   6.560  1.4940  0.4659 -0.3507
  384MOL0     H51798  10.521   8.865   6.532 -0.7661  0.9163  0.5450
  384MOL0     H51799  10.501   8.704   6.596  1.9965  0.3239  0.8209
  384MOL0     H51800  10.750   8.762   6.541  1.3155 -3.0503  0.8975
  384MOL0     H51801  10.986   8.767   6.565 -2.0320 -1.4088 -0.3255
  384MOL0     H51802  11.392   8.713   6.799  0.8852 -0.0028 -0.3198
  384MOL0     H51803  11.643   8.792   6.827 -1.9545 -0.5078  0.9559
  384MOL0     H51804  11.869   8.956   6.805 -2.1839  0.6277 -0.3285
  384MOL0     H51805  11.837   8.849   6.657 -0.7527  0.9211 -1.6911
  384MOL0     H51806  12.069   8.944   6.631  1.4195  1.7512 -0.7276
  384MOL0     H51807  11.952   9.008   6.516 -1.7288  1.5298  0.2371
  384MOL0     H51808  11.929   9.205   6.699  1.1844  1.7903 -1.3189
  384MOL0     H51809  12.067   9.138   6.772 -0.1586  2.7527 -0.0619
  384MOL0     H51810  12.059   9.315   6.535  0.5092 -0.3324 -1.9406
  384MOL0     H51811  12.126   9.156   6.483  0.8796 -1.4623 -0.1505
  384MOL0     H51812  12.309   9.264   6.538  1.7134 -2.1595  0.7695
  384MOL0     H51813  12.291   9.165   6.680  1.1638  1.1806  0.9875
  384MOL0     H51814  12.150   9.356   6.804  0.5508  1.3939  1.0755
  384MOL0     H51815  12.322   9.355   6.787 -0.1388 -1.2243 -1.0493
  384MOL0     H51816  12.115   9.518   6.636  0.2565  0.1340  0.6633
  384MOL0     H51817  12.261   9.501   6.543  0.1109  4.7685 -0.4249
  384MOL0     H51818  12.247   9.722   6.678 -1.0209  0.3284  1.0202
  384MOL0     H51819  12.257   9.631   6.827  0.3139  2.7027  1.0448
  384MOL0     H51820  11.539   9.121   6.560 -1.4025  2.6503  0.6077
  384MOL0     H51821  11.307   9.071   6.577 -1.8658  1.0118  1.4754
  384MOL0     H51822  10.947   8.945   6.958 -1.0199  1.6384 -0.4790
  384MOL0     H51823  10.702   8.934   6.929 -1.0865  0.1680 -0.4789
  384MOL0     H51824   8.888   9.205   6.999 -0.9832 -1.5122 -1.6674
  384MOL0     H51825   8.655   9.278   7.075 -0.1473  0.5948  2.7585
  384MOL0     H51826   8.288   9.230   7.199  0.1022 -1.3262  0.6423
  384MOL0     H51827   8.050   9.272   7.213  2.6595 -3.3967 -1.4796
  384MOL0     H51828   7.812   9.271   7.306  0.8909 -0.8762  1.0220
  384MOL0     H51829   7.877   9.444   7.266 -1.0715  0.3325 -0.8854
  384MOL0     H51830   7.649   9.374   7.445  2.3362 -0.6377  2.0134
  384MOL0     H51831   7.649   9.475   7.295 -2.1186 -0.2076  1.9237
  384MOL0     H51832   7.794   9.544   7.541 -0.2534 -0.9435 -0.5813
  384MOL0     H51833   7.630   9.601   7.514  1.1421  0.7223  1.0453
  384MOL0     H51834   7.749   9.703   7.290  0.4806 -0.1014 -0.5990
  384MOL0     H51835   7.767   9.789   7.435  0.7614 -0.8845  0.5084
  384MOL0     H51836   8.160   9.661   7.364  0.0742  1.2671 -0.7010
  384MOL0     H51837   8.071   9.380   7.619  0.4357  2.0599 -0.4496
  384MOL0     H51838   8.417   9.414   7.660 -2.0049  1.6106 -0.8210
  384MOL0     H51839   8.277   9.359   7.748  0.6643  2.6898  0.8382
  384MOL0     H51840   8.386   9.238   7.679  2.9540  1.4490  2.4481
  385MOL0     O51841  11.358   2.372   9.268  0.4894 -0.0840 -0.3610
  385MOL0     C51842  11.344   2.353   9.390  0.1166  0.0760 -0.1814
  385MOL0     O51843  11.447   2.370   9.478 -0.0994  0.4044  0.3609
  385MOL0     C51844  11.578   2.368   9.432  0.6575 -0.2253  0.3588
  385MOL0     C51845  11.661   2.485   9.435 -0.2367 -0.1026  0.2802
  385MOL0     C51846  11.796   2.480   9.391  0.5937 -0.6291 -0.3352
  385MOL0     C51847  11.850   2.354   9.355  0.2977  0.0634  0.1252
  385MOL0     O51848  11.987   2.348   9.308 -0.6479  0.3465  0.3089
  385MOL0     C51849  12.019   2.291   9.178  0.3668  0.7285  0.4132
  385MOL0     C51850  11.974   2.374   9.058  0.1658 -0.2291 -0.2516
  385MOL0     C51851  12.025   2.307   8.935 -0.5601  0.2140  0.3780
  385MOL0     C51852  11.990   2.399   8.819 -0.4417  0.1382  0.2973
  385MOL0     C51853  12.118   2.470   8.762  0.4342 -0.3021 -0.3413
  385MOL0     C51854  12.183   2.378   8.664 -0.1580  0.1069  0.1087
  385MOL0     C51855  12.313   2.441   8.591  0.1798  0.3928  0.1831
  385MOL0     C51856  12.358   2.340   8.480 -0.3758 -0.3696  0.1217
  385MOL0     N51857  12.483   2.389   8.416 -0.8343  0.4124 -0.6727
  385MOL0     C51858  12.592   2.411   8.495  0.6829 -0.2382  0.0837
  385MOL0     C51859  12.691   2.428   8.409 -0.1904 -0.5012 -0.2526
  385MOL0     C51860  12.822   2.482   8.451 -0.3689  1.0787 -0.2066
  385MOL0     C51861  12.932   2.382   8.415 -1.2388 -0.2964 -0.5880
  385MOL0     C51862  13.079   2.426   8.450  0.2452  0.2483 -0.5680
  385MOL0     C51863  13.191   2.325   8.402  0.1712 -0.2160  0.1730
  385MOL0     O51864  13.313   2.376   8.449  0.2963 -0.2960 -0.0200
  385MOL0     C51865  13.426   2.321   8.392  0.0621  0.0664 -0.3883
  385MOL0     C51866  13.448   2.186   8.354  0.8549 -0.4229 -0.8102
  385MOL0     C51867  13.580   2.143   8.312  0.0315  0.4725 -0.0436
  385MOL0     C51868  13.684   2.231   8.296  0.6125  0.1016  0.1817
  385MOL0     C51869  13.803   2.190   8.234 -0.2157  0.7197  0.8512
  385MOL0     O51870  13.906   2.282   8.245  0.4121  0.8099  0.0942
  385MOL0     C51871  14.012   2.268   8.161  0.0525 -1.1121 -0.1603
  385MOL0     C51872  14.035   2.360   8.057  0.3280 -0.2347 -0.3443
  385MOL0     C51873  14.149   2.349   7.971 -0.7299 -0.2362  0.2502
  385MOL0     C51874  14.231   2.238   7.985  0.2004 -0.3582  0.0692
  385MOL0     O51875  14.326   2.224   7.894 -0.3961  0.7969 -0.1990
  385MOL0     C51876  14.441   2.140   7.918 -0.3403 -0.2531  0.7986
  385MOL0     C51877  14.529   2.155   7.796 -0.5660 -0.4696  0.0521
  385MOL0     C51878  14.602   2.286   7.792 -1.1530 -0.0964 -0.1652
  385MOL0     C51879  14.700   2.285   7.679  0.3554 -0.0011 -0.7073
  385MOL0     C51880  14.773   2.418   7.688  1.1018 -0.0880 -0.2691
  385MOL0     C51881  14.849   2.451   7.561 -0.7004 -0.0032  0.4277
  385MOL0     C51882  14.967   2.351   7.542  0.2661 -0.1004  0.8085
  385MOL0     C51883  15.050   2.375   7.413  0.2564  0.0839  0.1166
  385MOL0    Cl51884  15.188   2.271   7.412 -0.2896 -0.2583 -0.0105
  385MOL0     C51885  14.192   2.131   8.078 -0.0222 -0.1191 -0.2942
  385MOL0     C51886  14.087   2.144   8.169  0.6421 -0.1984  0.2066
  385MOL0     O51887  13.805   2.078   8.186  0.0313  0.4486 -0.6256
  385MOL0     C51888  13.653   2.367   8.326  0.4990 -0.0545 -0.5778
  385MOL0     C51889  13.533   2.411   8.382  0.3834 -0.3514  0.3514
  385MOL0     N51890  12.636   2.418   8.281 -0.3021 -0.1285 -1.1275
  385MOL0     N51891  12.514   2.384   8.290 -0.2314 -0.6008  0.2612
  385MOL0     C51892  11.757   2.246   9.342 -0.4778 -0.4656  0.1023
  385MOL0     C51893  11.624   2.256   9.384 -0.3187  0.7879 -0.3107
  385MOL0     C51894  11.210   2.312   9.441 -0.2036  0.5742 -0.3913
  385MOL0     C51895  11.185   2.324   9.579  0.1133  0.6101 -0.8902
  385MOL0     C51896  11.061   2.287   9.624 -1.3905 -1.0256  0.2786
  385MOL0     C51897  10.957   2.238   9.545 -0.5534  0.0410  0.0891
  385MOL0     O51898  10.843   2.201   9.605  0.4624  0.0028 -0.0127
  385MOL0     C51899  10.720   2.251   9.559  0.1116 -0.2761 -0.7566
  385MOL0     C51900  10.656   2.137   9.484 -0.0412  0.2431 -0.4990
  385MOL0     C51901  10.502   2.141   9.496 -0.0264  0.2466  0.3236
  385MOL0     C51902  10.439   2.019   9.430  0.2066  0.3712  0.0741
  385MOL0     C51903  10.297   2.011   9.444  0.2217 -0.3063  0.1046
  385MOL0     C51904  10.182   2.010   9.464  0.1912  0.7544  0.3104
  385MOL0     C51905  10.984   2.222   9.411 -0.3193 -0.0620  0.1517
  385MOL0     C51906  11.114   2.249   9.358  0.3612  0.5906 -0.4502
  385MOL0     C51907  11.135   2.223   9.206  0.9020 -0.2568 -0.0125
  385MOL0     H51908  11.618   2.579   9.468 -0.2908 -0.3817  1.0088
  385MOL0     H51909  11.861   2.566   9.380  0.9871 -0.4000  2.8923
  385MOL0     H51910  12.126   2.279   9.158  0.4339  0.8130  0.7207
  385MOL0     H51911  11.983   2.188   9.184  1.2811  0.4033  0.3872
  385MOL0     H51912  12.033   2.466   9.067  3.8155 -2.3668 -0.1588
  385MOL0     H51913  11.865   2.387   9.054  0.2557  0.3706 -3.7659
  385MOL0     H51914  11.971   2.214   8.916 -1.0000  0.4981  0.2018
  385MOL0     H51915  12.131   2.281   8.938 -0.3115  0.6557 -2.0579
  385MOL0     H51916  11.934   2.351   8.739 -0.3280  0.8687 -0.2370
  385MOL0     H51917  11.923   2.479   8.854  1.1560  1.4134  0.5992
  385MOL0     H51918  12.082   2.561   8.713 -0.3235 -0.4615 -0.0920
  385MOL0     H51919  12.188   2.506   8.839  0.0023  1.3077 -0.6738
  385MOL0     H51920  12.194   2.283   8.717 -3.5272  0.9772  2.6704
  385MOL0     H51921  12.101   2.362   8.594 -0.2676  2.4989 -0.3841
  385MOL0     H51922  12.390   2.445   8.668  0.5461 -2.7108  0.1195
  385MOL0     H51923  12.307   2.548   8.571  3.1210  0.9258  1.6149
  385MOL0     H51924  12.391   2.243   8.519 -1.7485 -0.2385  1.7039
  385MOL0     H51925  12.280   2.330   8.404  0.9665 -0.2431 -1.3430
  385MOL0     H51926  12.598   2.417   8.603  0.3003  2.0925  0.0331
  385MOL0     H51927  12.835   2.580   8.403 -2.1770  1.2973 -0.3189
  385MOL0     H51928  12.825   2.509   8.557 -0.4764  2.0122 -0.4310
  385MOL0     H51929  12.908   2.284   8.459  1.2427  0.1948  2.1740
  385MOL0     H51930  12.941   2.372   8.307  0.9424 -1.5305 -0.3496
  385MOL0     H51931  13.086   2.422   8.559 -0.6417  2.0558 -0.4125
  385MOL0     H51932  13.082   2.527   8.409 -4.8500  0.8987  0.0037
  385MOL0     H51933  13.187   2.316   8.293 -1.9024 -0.5254  0.2346
  385MOL0     H51934  13.161   2.234   8.454  1.2142 -0.7956 -0.2052
  385MOL0     H51935  13.370   2.112   8.364 -0.5191  1.2477  1.8840
  385MOL0     H51936  13.590   2.037   8.292 -1.6346 -0.4260  3.1540
  385MOL0     H51937  13.950   2.426   8.045 -1.2758 -2.5139 -2.5919
  385MOL0     H51938  14.166   2.422   7.892 -2.2476 -2.3757 -2.1925
  385MOL0     H51939  14.497   2.168   8.007  2.5361 -4.8908  0.7821
  385MOL0     H51940  14.416   2.034   7.929 -2.2334 -0.3334 -2.8054
  385MOL0     H51941  14.610   2.081   7.802 -2.2788 -2.4168  0.2762
  385MOL0     H51942  14.467   2.134   7.708 -1.4030 -1.3206  0.8246
  385MOL0     H51943  14.532   2.360   7.751 -0.2951 -1.4745 -4.7248
  385MOL0     H51944  14.651   2.320   7.883  2.4748 -1.6281 -1.3665
  385MOL0     H51945  14.645   2.281   7.584 -2.0455  0.2249  0.5816
  385MOL0     H51946  14.765   2.197   7.678 -1.3449 -1.3959 -3.4973
  385MOL0     H51947  14.840   2.399   7.772  2.1182 -3.2914 -1.6723
  385MOL0     H51948  14.709   2.505   7.707  3.0031  1.6558 -1.2744
  385MOL0     H51949  14.773   2.451   7.482  0.7332  0.9007 -1.0057
  385MOL0     H51950  14.874   2.557   7.569 -2.1885  0.3892  0.2367
  385MOL0     H51951  14.934   2.247   7.549 -2.9031  0.8796  3.1783
  385MOL0     H51952  15.035   2.362   7.627 -0.9901 -1.9746  2.1373
  385MOL0     H51953  14.988   2.352   7.325 -0.0148 -4.0764  1.1774
  385MOL0     H51954  15.081   2.479   7.410 -1.7654  0.6985 -1.5683
  385MOL0     H51955  14.252   2.040   8.082  2.6324  1.5890  2.2601
  385MOL0     H51956  14.069   2.066   8.242 -0.1741  0.3098  0.5763
  385MOL0     H51957  13.726   2.443   8.300  2.8670 -2.0246 -0.1477
  385MOL0     H51958  13.512   2.512   8.414 -1.6822 -0.6149 -0.0491
  385MOL0     H51959  11.799   2.152   9.308 -0.3215 -1.6389  3.2466
  385MOL0     H51960  11.567   2.164   9.376 -2.2234  1.6915  1.9095
  385MOL0     H51961  11.261   2.357   9.649  0.1361 -1.1494 -0.0285
  385MOL0     H51962  11.038   2.310   9.728 -0.1935 -0.2919  0.4031
  385MOL0     H51963  10.733   2.332   9.487  0.4547 -0.9259 -1.4475
  385MOL0     H51964  10.677   2.291   9.652  1.3727  0.6569 -0.5583
  385MOL0     H51965  10.676   2.045   9.540  1.2522  1.8155  1.7873
  385MOL0     H51966  10.691   2.130   9.380  0.0227 -0.8032 -0.4187
  385MOL0     H51967  10.461   2.230   9.449  0.2588 -0.5859 -1.5817
  385MOL0     H51968  10.475   2.141   9.602  0.0103 -0.4908  0.3423
  385MOL0     H51969  10.449   2.011   9.322 -0.8891  2.0113 -0.1963
  385MOL0     H51970  10.485   1.933   9.480  0.5005  0.7585  0.4829
  385MOL0     H51971  10.085   1.985   9.500  0.4605  1.6444  1.7260
  385MOL0     H51972  10.910   2.174   9.348 -0.2136  0.2274 -0.1985
  385MOL0     H51973  11.052   2.159   9.177 -1.3276  2.0693  0.8234
  385MOL0     H51974  11.124   2.321   9.157  0.2350 -1.2238 -1.8878
  385MOL0     H51975  11.236   2.180   9.198  0.7506 -1.3201  2.6169
  386MOL0     O51976   6.332  10.337   6.790  0.2116 -1.0185 -0.6644
  386MOL0     C51977   6.255  10.262   6.737 -0.2411  0.6167  0.1072
  386MOL0     O51978   6.293  10.144   6.663  0.2810 -0.4771  0.2011
  386MOL0     C51979   6.420  10.097   6.625 -0.2269  0.3781 -1.0613
  386MOL0     C51980   6.536  10.170   6.663 -0.3433  0.2548 -0.2355
  386MOL0     C51981   6.655  10.120   6.622  0.0893 -0.4553  0.3068
  386MOL0     C51982   6.673  10.008   6.539 -0.9095  0.9563 -1.0402
  386MOL0     O51983   6.796   9.958   6.508  0.9493 -0.5469  0.3229
  386MOL0     C51984   6.911   9.990   6.589  0.1402 -0.2678 -0.2714
  386MOL0     C51985   7.026   9.909   6.524  0.9212  0.0079  0.0543
  386MOL0     C51986   7.161   9.959   6.574  0.1619 -0.3959  0.1714
  386MOL0     C51987   7.275   9.876   6.517 -0.3121 -0.6517 -0.3950
  386MOL0     C51988   7.406   9.959   6.505 -0.3237  0.6313 -0.0098
  386MOL0     C51989   7.528   9.868   6.464  0.3789 -0.1250 -0.0933
  386MOL0     C51990   7.565   9.750   6.562 -0.6511  0.1251 -0.6406
  386MOL0     C51991   7.666   9.652   6.501 -0.4130 -0.1894  0.7320
  386MOL0     N51992   7.794   9.722   6.454  0.1619  0.1937  0.9544
  386MOL0     C51993   7.874   9.805   6.527  0.4564  1.0428 -0.9168
  386MOL0     C51994   7.989   9.813   6.454  0.2855  0.1102  0.0421
  386MOL0     C51995   8.115   9.870   6.509 -1.1287  0.5450  0.1703
  386MOL0     C51996   8.199   9.755   6.588 -0.2472 -0.8401  0.4946
  386MOL0     C51997   8.319   9.820   6.660 -0.3649 -0.0372 -0.0887
  386MOL0     C51998   8.410   9.735   6.751 -0.0110 -0.2926 -0.3905
  386MOL0     O51999   8.515   9.815   6.814  0.2076  0.2292 -0.4245
  386MOL0     C52000   8.617   9.745   6.873  0.3260 -0.2710 -0.3691
  386MOL0     C52001   8.703   9.825   6.950  0.4452  0.3399  0.7636
  386MOL0     C52002   8.825   9.777   7.004 -0.7342  0.1555 -0.3684
  386MOL0     C52003   8.847   9.639   7.006  0.8890  0.7051  0.4057
  386MOL0     C52004   8.982   9.583   7.060 -0.1957 -0.3101 -0.0373
  386MOL0     O52005   8.995   9.441   7.067  0.1418 -0.2418  0.1303
  386MOL0     C52006   9.119   9.383   7.055  0.1908 -0.1491  0.1880
  386MOL0     C52007   9.227   9.413   7.145  0.5462  1.1385  0.0939
  386MOL0     C52008   9.341   9.330   7.136  0.0294  0.6983 -0.2700
  386MOL0     C52009   9.357   9.235   7.032 -0.1985  0.4957 -0.8007
  386MOL0     O52010   9.477   9.186   6.998 -0.4094  0.5122 -0.2672
  386MOL0     C52011   9.571   9.133   7.096  0.3579  0.5651  0.2094
  386MOL0     C52012   9.676   9.057   7.023 -0.0009  0.8413 -0.5234
  386MOL0     C52013   9.732   9.130   6.907  0.6002 -0.2771 -0.1246
  386MOL0     C52014   9.850   9.063   6.830 -0.3110  0.5411 -0.0491
  386MOL0     C52015   9.878   9.164   6.722  0.4545 -0.3276 -0.0730
  386MOL0     C52016   9.980   9.110   6.633  0.0023  0.2518 -0.2762
  386MOL0     C52017  10.013   9.218   6.536  0.4287 -0.2133  0.3146
  386MOL0     C52018  10.107   9.162   6.432 -0.6481 -0.5474 -0.2622
  386MOL0    Cl52019  10.252   9.106   6.524  0.4159 -0.1160  0.1541
  386MOL0     C52020   9.251   9.208   6.942 -0.2915 -0.4130  0.6966
  386MOL0     C52021   9.135   9.289   6.952  1.2588 -0.0059 -0.0353
  386MOL0     O52022   9.070   9.665   7.084  0.4670 -1.1424 -0.5924
  386MOL0     C52023   8.764   9.551   6.942  0.6650  0.7024  0.5062
  386MOL0     C52024   8.651   9.603   6.865  1.0265  0.7069  0.1997
  386MOL0     N52025   7.970   9.743   6.343  0.0646 -0.3992  0.4961
  386MOL0     N52026   7.855   9.689   6.340  0.2785 -0.3650  1.1950
  386MOL0     C52027   6.555   9.943   6.500  0.6981  0.6930  0.5437
  386MOL0     C52028   6.433   9.991   6.540 -0.3731 -0.1609 -0.3588
  386MOL0     C52029   6.116  10.278   6.765 -0.1174 -0.3513  0.6867
  386MOL0     C52030   6.021  10.258   6.658  0.5076  0.5179  0.0485
  386MOL0     C52031   5.881  10.281   6.673  0.3868  0.2865 -0.8800
  386MOL0     C52032   5.837  10.317   6.803 -0.1283  0.4122 -0.4459
  386MOL0     O52033   5.700  10.338   6.833 -1.3775  0.4198 -0.1091
  386MOL0     C52034   5.602  10.325   6.730  0.0546  0.6328  0.3087
  386MOL0     C52035   5.466  10.347   6.778 -0.4293  0.1640  0.1818
  386MOL0     C52036   5.434  10.497   6.816 -0.3175  0.2126 -0.1673
  386MOL0     C52037   5.398  10.570   6.687  0.0047 -0.2329  0.0901
  386MOL0     C52038   5.351  10.706   6.720  0.1026  0.7698  1.0691
  386MOL0     C52039   5.287  10.807   6.732 -0.2473  1.1091 -0.3544
  386MOL0     C52040   5.930  10.341   6.906  0.3959  0.0206  0.4048
  386MOL0     C52041   6.067  10.323   6.890  1.3111  0.3271  0.5733
  386MOL0     C52042   6.150  10.345   7.012  0.0433  0.3327 -0.9354
  386MOL0     H52043   6.546  10.260   6.723 -0.0839  0.7197 -0.9624
  386MOL0     H52044   6.748  10.162   6.660  0.4158  1.6477 -2.4965
  386MOL0     H52045   6.946  10.093   6.581 -0.9625  0.7286  4.5218
  386MOL0     H52046   6.887   9.972   6.694 -1.4718  0.0616 -0.5436
  386MOL0     H52047   7.030   9.915   6.414  2.2948  3.7704  0.1531
  386MOL0     H52048   7.005   9.803   6.542 -0.3455  0.1267 -0.6070
  386MOL0     H52049   7.172   9.945   6.682 -0.1223  0.3217  0.3020
  386MOL0     H52050   7.172  10.065   6.550 -0.1533 -0.5643 -0.7354
  386MOL0     H52051   7.294   9.786   6.577  3.1812 -1.5240 -2.5380
  386MOL0     H52052   7.255   9.839   6.416 -0.9095 -1.5401  0.0318
  386MOL0     H52053   7.380  10.038   6.434  1.3963  1.0761 -0.1670
  386MOL0     H52054   7.432  10.001   6.602  1.2579 -2.8593  1.2491
  386MOL0     H52055   7.517   9.827   6.363  0.5585  0.5916 -0.4111
  386MOL0     H52056   7.619   9.929   6.469 -0.3996  0.9489  2.1765
  386MOL0     H52057   7.482   9.684   6.589 -0.3285 -1.5327 -3.3071
  386MOL0     H52058   7.609   9.802   6.648  1.5520 -0.8108 -1.1243
  386MOL0     H52059   7.693   9.586   6.585  3.4541  1.5299  1.0696
  386MOL0     H52060   7.613   9.590   6.429  0.0004  0.9917 -0.6291
  386MOL0     H52061   7.856   9.844   6.627  0.9708 -2.1453  0.5461
  386MOL0     H52062   8.172   9.914   6.427  0.1894 -1.3340  0.0291
  386MOL0     H52063   8.097   9.951   6.580 -0.4831  0.3484  0.5623
  386MOL0     H52064   8.131   9.708   6.660  0.1835 -0.5135  1.1321
  386MOL0     H52065   8.233   9.680   6.516  0.8618 -1.0341  1.1889
  386MOL0     H52066   8.264   9.890   6.724 -0.2591 -0.5498  0.5742
  386MOL0     H52067   8.392   9.863   6.591  0.5338  0.6696  1.2393
  386MOL0     H52068   8.446   9.660   6.680 -3.9619 -0.1054 -2.9099
  386MOL0     H52069   8.345   9.687   6.825  0.3085 -1.3626 -0.7934
  386MOL0     H52070   8.682   9.932   6.955 -0.0903  0.1954  1.7293
  386MOL0     H52071   8.890   9.846   7.056 -1.9568  2.3957 -1.6280
  386MOL0     H52072   9.219   9.487   7.224  0.1079 -0.6864  1.8536
  386MOL0     H52073   9.414   9.343   7.216 -0.4885  2.6494 -0.0692
  386MOL0     H52074   9.615   9.217   7.151 -1.1346  0.0144  2.3504
  386MOL0     H52075   9.509   9.074   7.164 -1.3896  0.7884 -1.1324
  386MOL0     H52076   9.749   9.029   7.099 -1.8337  0.0935  1.0370
  386MOL0     H52077   9.627   8.964   6.994 -1.9260  0.9026  2.2052
  386MOL0     H52078   9.648   9.137   6.836 -0.1410  1.0234  0.8319
  386MOL0     H52079   9.764   9.228   6.942 -1.8271 -0.3781  2.7299
  386MOL0     H52080   9.819   8.966   6.790 -2.2314  1.9447 -2.2394
  386MOL0     H52081   9.943   9.047   6.885 -0.1590  0.9647 -0.1714
  386MOL0     H52082   9.928   9.252   6.763  3.3727 -1.0828 -1.7046
  386MOL0     H52083   9.788   9.196   6.670 -0.2706 -0.6099  0.9736
  386MOL0     H52084  10.072   9.086   6.687  0.1655  1.4174 -0.0128
  386MOL0     H52085   9.947   9.021   6.579  1.5366 -0.1753 -0.5775
  386MOL0     H52086  10.053   9.307   6.586  1.0741 -0.9160  1.0861
  386MOL0     H52087   9.924   9.251   6.482  1.0395  0.2595 -0.4223
  386MOL0     H52088  10.072   9.067   6.390 -0.7082 -0.4115 -0.5191
  386MOL0     H52089  10.135   9.231   6.352 -0.0354 -2.6076 -1.9137
  386MOL0     H52090   9.258   9.130   6.867 -1.1667  1.1388 -1.0523
  386MOL0     H52091   9.060   9.278   6.875  2.1689  2.7829 -1.4783
  386MOL0     H52092   8.788   9.446   6.926 -0.5388  0.6369 -1.1333
  386MOL0     H52093   8.583   9.539   6.810  0.3645  1.2899  0.3176
  386MOL0     H52094   6.552   9.853   6.439 -1.3692 -0.5149  2.2588
  386MOL0     H52095   6.345   9.940   6.501 -0.4940 -0.0879 -0.1811
  386MOL0     H52096   6.068  10.228   6.566 -0.9007 -1.6460 -0.0322
  386MOL0     H52097   5.807  10.279   6.594 -2.2801 -0.1466  1.4537
  386MOL0     H52098   5.617  10.225   6.687 -0.2432  1.6321 -2.2553
  386MOL0     H52099   5.633  10.392   6.650 -1.7357  1.4856  0.2891
  386MOL0     H52100   5.439  10.284   6.863 -1.6565  0.1369 -0.2104
  386MOL0     H52101   5.398  10.321   6.697  1.7038 -0.8779 -1.3569
  386MOL0     H52102   5.526  10.537   6.860  1.4291 -1.7992 -1.7659
  386MOL0     H52103   5.355  10.496   6.891  0.6562 -1.8582  0.9291
  386MOL0     H52104   5.480  10.575   6.614 -0.3746  1.7067 -0.2599
  386MOL0     H52105   5.321  10.514   6.635  1.5621 -2.2499 -0.1928
  386MOL0     H52106   5.220  10.890   6.722 -1.3610  0.2661 -0.1367
  386MOL0     H52107   5.911  10.377   7.007  3.8202 -0.6053  1.4136
  386MOL0     H52108   6.091  10.345   7.104 -0.0820  1.2452 -1.0037
  386MOL0     H52109   6.223  10.264   7.021 -1.0505 -0.6187 -0.3307
  386MOL0     H52110   6.207  10.438   7.006  3.2458 -1.4075  0.1134
  387MOL0     O52111   0.947  10.864   1.971 -0.1533 -1.0437  0.4288
  387MOL0     C52112   0.959  10.787   1.875  0.1311 -0.3437  0.1796
  387MOL0     O52113   1.079  10.757   1.817  0.2437 -0.1043  0.2979
  387MOL0     C52114   1.194  10.791   1.878 -0.5822  0.1767  0.6374
  387MOL0     C52115   1.218  10.792   2.009 -0.2820  0.8105 -0.7570
  387MOL0     C52116   1.348  10.820   2.055  0.0971  0.0860  0.0224
  387MOL0     C52117   1.460  10.823   1.977  1.2700  0.1122  0.4650
  387MOL0     O52118   1.589  10.842   2.014  0.0689  0.1604 -0.5644
  387MOL0     C52119   1.632  10.829   2.144  0.0403  0.1282 -0.1127
  387MOL0     C52120   1.787  10.831   2.142 -0.2329  0.3176  0.8043
  387MOL0     C52121   1.849  10.943   2.063 -0.5148 -0.0469  0.6887
  387MOL0     C52122   2.009  10.944   2.042  0.8775  0.0569 -0.4239
  387MOL0     C52123   2.032  11.069   1.948 -0.5297 -0.0382 -0.0737
  387MOL0     C52124   2.182  11.078   1.924  0.0986  0.2060 -1.0850
  387MOL0     C52125   2.268  11.091   2.051 -0.3978 -0.3060 -0.3270
  387MOL0     C52126   2.356  10.964   2.054 -0.4239  0.2646 -0.4302
  387MOL0     N52127   2.423  10.945   2.183 -0.8420 -0.5950 -0.1999
  387MOL0     C52128   2.540  11.003   2.230 -0.0194  0.3838 -0.7512
  387MOL0     C52129   2.554  10.940   2.355 -0.3866  0.0378  0.4334
  387MOL0     C52130   2.654  10.990   2.457 -0.0561 -0.3304 -0.2620
  387MOL0     C52131   2.778  10.907   2.464 -0.8070 -0.8741 -0.8917
  387MOL0     C52132   2.851  10.944   2.597 -0.5273 -0.0816  0.3505
  387MOL0     C52133   2.959  10.845   2.633 -0.1231  0.0025  1.3668
  387MOL0     O52134   3.055  10.868   2.532 -0.7024 -0.2348 -0.0003
  387MOL0     C52135   3.184  10.907   2.568  0.2521  0.2729 -0.0258
  387MOL0     C52136   3.255  10.981   2.478 -0.4413 -0.6405  1.1611
  387MOL0     C52137   3.386  11.031   2.507 -0.1795  0.3362 -0.0317
  387MOL0     C52138   3.450  10.986   2.623 -0.3057 -1.1382  0.7040
  387MOL0     C52139   3.593  11.031   2.642 -0.4786 -0.0087 -0.4482
  387MOL0     O52140   3.660  11.094   2.532 -0.4076  0.5079 -0.3908
  387MOL0     C52141   3.796  11.110   2.555 -0.0864  0.7594 -0.6413
  387MOL0     C52142   3.850  11.235   2.518 -0.4406  0.2447  0.3748
  387MOL0     C52143   3.980  11.264   2.536  1.4223  0.7088  0.2241
  387MOL0     C52144   4.070  11.175   2.586  0.9527  0.4518  0.7974
  387MOL0     O52145   4.196  11.216   2.597 -0.0297 -0.0397 -0.2435
  387MOL0     C52146   4.289  11.118   2.638  0.3865  0.2497  0.1786
  387MOL0     C52147   4.424  11.180   2.623  0.5794 -0.0110 -0.7516
  387MOL0     C52148   4.440  11.257   2.753  0.0316 -0.8439 -0.6371
  387MOL0     C52149   4.576  11.321   2.741 -0.3516 -0.3283  0.1746
  387MOL0     C52150   4.584  11.409   2.867  0.0658 -0.0918  0.4899
  387MOL0     C52151   4.724  11.466   2.900 -0.2149  0.2006  0.1725
  387MOL0     C52152   4.801  11.555   2.795 -0.1630  0.1951 -0.0127
  387MOL0     C52153   4.958  11.569   2.817 -0.0546 -0.3296  0.8751
  387MOL0    Cl52154   5.032  11.681   2.687  0.0102 -0.0788 -0.4654
  387MOL0     C52155   4.022  11.046   2.608  1.3157  0.3360  0.0226
  387MOL0     C52156   3.887  11.014   2.593 -0.1377 -0.2799 -0.0809
  387MOL0     O52157   3.640  11.003   2.749 -0.4084 -0.0316 -0.0704
  387MOL0     C52158   3.385  10.900   2.701 -0.3619  0.1947 -0.8085
  387MOL0     C52159   3.253  10.857   2.681 -0.2031  0.3949  0.5488
  387MOL0     N52160   2.457  10.836   2.375 -0.9689 -0.4163  0.5663
  387MOL0     N52161   2.382  10.841   2.266  0.0645 -0.1711 -0.1709
  387MOL0     C52162   1.429  10.824   1.841  0.7755 -0.5856  0.8008
  387MOL0     C52163   1.301  10.807   1.788  0.4944  0.3473 -0.4393
  387MOL0     C52164   0.848  10.708   1.827  0.9358  0.3713  0.1078
  387MOL0     C52165   0.855  10.658   1.695  0.3952  0.4847  0.6306
  387MOL0     C52166   0.741  10.583   1.641 -0.1190 -0.5092  0.4849
  387MOL0     C52167   0.630  10.564   1.720  0.1963 -0.7904 -0.1834
  387MOL0     O52168   0.527  10.493   1.670 -0.3538 -0.4786  0.7376
  387MOL0     C52169   0.396  10.500   1.730  0.1335  0.0593 -0.0098
  387MOL0     C52170   0.359  10.376   1.812  0.8930 -0.6608  0.0997
  387MOL0     C52171   0.225  10.417   1.887 -0.1182 -0.5457  0.7875
  387MOL0     C52172   0.214  10.355   2.027 -0.1251  0.5279 -0.3751
  387MOL0     C52173   0.078  10.296   2.047 -0.4921  0.9995  0.1859
  387MOL0     C52174  -0.024  10.229   2.047  0.0133 -0.0300  0.5117
  387MOL0     C52175   0.635  10.604   1.853  0.2092 -0.7369 -0.5075
  387MOL0     C52176   0.737  10.680   1.910 -0.8054 -0.1768 -0.9351
  387MOL0     C52177   0.719  10.710   2.062  0.6250 -0.1030  1.0041
  387MOL0     H52178   1.136  10.787   2.080  1.7668  2.1502  1.8771
  387MOL0     H52179   1.366  10.808   2.162  0.1967 -3.0168 -0.2485
  387MOL0     H52180   1.592  10.898   2.218 -0.6713 -0.9554  0.5376
  387MOL0     H52181   1.606  10.729   2.179 -2.3831  0.0165 -2.0502
  387MOL0     H52182   1.815  10.742   2.084  0.2708  1.6251 -1.0297
  387MOL0     H52183   1.828  10.833   2.244  1.0797  3.3490  0.3016
  387MOL0     H52184   1.817  11.034   2.114 -4.0172 -0.4038 -0.6125
  387MOL0     H52185   1.802  10.935   1.964  0.4520  2.0898 -0.0233
  387MOL0     H52186   2.065  10.957   2.135 -1.4613  2.3202  0.7954
  387MOL0     H52187   2.044  10.860   1.981  0.7784 -1.1528  1.1291
  387MOL0     H52188   1.977  11.065   1.854  1.6331  3.6684 -1.7244
  387MOL0     H52189   2.009  11.162   2.002  1.7358 -0.5195  1.9262
  387MOL0     H52190   2.221  10.996   1.863 -2.0226 -0.6819 -1.3522
  387MOL0     H52191   2.188  11.167   1.861  0.9906  2.1711  1.5858
  387MOL0     H52192   2.211  11.097   2.144  1.3108  0.8842  0.6997
  387MOL0     H52193   2.331  11.180   2.048 -0.4635 -0.2563 -0.2513
  387MOL0     H52194   2.292  10.877   2.035  1.1586 -0.3879 -3.3013
  387MOL0     H52195   2.429  10.956   1.973  2.1117 -1.1598  1.8280
  387MOL0     H52196   2.600  11.084   2.191 -0.9606  1.7167  0.4588
  387MOL0     H52197   2.677  11.093   2.427 -0.3340 -0.0772  0.3857
  387MOL0     H52198   2.602  10.995   2.553  0.4800  0.4425  0.0013
  387MOL0     H52199   2.755  10.801   2.451  2.3585 -1.7606 -0.1526
  387MOL0     H52200   2.838  10.944   2.380 -0.5243  1.0778  0.1136
  387MOL0     H52201   2.779  10.944   2.680  0.5957 -0.6682  1.3547
  387MOL0     H52202   2.902  11.041   2.599  0.8668 -0.8049  1.2819
  387MOL0     H52203   2.921  10.742   2.636 -1.5589  0.4987  0.8473
  387MOL0     H52204   2.999  10.867   2.732  0.5609 -2.4530  1.6998
  387MOL0     H52205   3.209  11.018   2.387 -1.7212  0.8819  2.3679
  387MOL0     H52206   3.429  11.110   2.446  1.0459  2.2481  3.0499
  387MOL0     H52207   3.788  11.308   2.467 -0.4557  0.5782  0.8677
  387MOL0     H52208   4.010  11.359   2.492 -0.4029  2.1061  1.7900
  387MOL0     H52209   4.263  11.088   2.740 -2.7308  1.0779 -0.2695
  387MOL0     H52210   4.285  11.028   2.575 -4.3862  1.6915 -1.9881
  387MOL0     H52211   4.495  11.096   2.619 -0.4395 -0.8515 -1.9710
  387MOL0     H52212   4.436  11.229   2.527  1.1808 -4.2908 -3.1177
  387MOL0     H52213   4.355  11.321   2.778  0.0014 -1.4264  0.8455
  387MOL0     H52214   4.447  11.185   2.835  0.7408  0.6904  0.7203
  387MOL0     H52215   4.578  11.378   2.648 -2.2224 -1.2263 -0.4640
  387MOL0     H52216   4.654  11.246   2.736  0.4157  0.2189  2.5937
  387MOL0     H52217   4.564  11.368   2.967  1.0765 -0.5613  0.5175
  387MOL0     H52218   4.529  11.502   2.852  2.0373  0.9419 -0.7581
  387MOL0     H52219   4.694  11.524   2.988 -1.3546 -1.0968  0.6697
  387MOL0     H52220   4.788  11.385   2.935 -0.1178  0.4122  0.4905
  387MOL0     H52221   4.749  11.650   2.775 -1.0472 -0.3640 -0.4325
  387MOL0     H52222   4.802  11.509   2.696  0.8005  3.9712 -1.9766
  387MOL0     H52223   4.981  11.596   2.920 -1.9034  2.7067  0.6012
  387MOL0     H52224   4.997  11.468   2.796  0.1609 -0.1851  0.5656
  387MOL0     H52225   4.092  10.967   2.634 -0.0118 -1.3211 -1.2054
  387MOL0     H52226   3.854  10.911   2.605 -1.7324  0.3824  1.8608
  387MOL0     H52227   3.437  10.861   2.788 -0.4656 -1.1638 -1.3406
  387MOL0     H52228   3.197  10.796   2.751 -1.0591 -0.8783 -1.1590
  387MOL0     H52229   1.513  10.840   1.773 -1.9168  0.3579 -2.5906
  387MOL0     H52230   1.281  10.817   1.682 -0.9533  0.6449 -0.1633
  387MOL0     H52231   0.937  10.674   1.626  1.8081 -1.2213  1.8258
  387MOL0     H52232   0.749  10.542   1.541 -1.2911  0.8951 -0.2213
  387MOL0     H52233   0.318  10.521   1.656 -2.1134 -1.0158  1.9056
  387MOL0     H52234   0.398  10.581   1.803  2.0489 -0.8952  1.0819
  387MOL0     H52235   0.445  10.358   1.877  1.9365 -1.3811 -1.4144
  387MOL0     H52236   0.349  10.281   1.759 -2.4196 -0.0927 -0.4835
  387MOL0     H52237   0.142  10.378   1.828  0.2766 -1.0459  0.5469
  387MOL0     H52238   0.216  10.525   1.892 -0.4112 -0.5986  1.7744
  387MOL0     H52239   0.288  10.275   2.038 -2.5719 -1.4701  4.2813
  387MOL0     H52240   0.237  10.426   2.107 -1.1479  0.3941  0.0527
  387MOL0     H52241  -0.111  10.166   2.053  1.2077 -1.6135  2.3810
  387MOL0     H52242   0.560  10.558   1.917  0.7691 -3.2946 -1.5438
  387MOL0     H52243   0.657  10.641   2.121 -2.1218  0.9821 -0.4199
  387MOL0     H52244   0.818  10.715   2.107  0.3763 -2.5868  1.9930
  387MOL0     H52245   0.671  10.808   2.070 -0.4036 -0.3279 -1.4403
  388MOL0     O52246   8.337   2.267   9.079 -0.4140 -0.2856 -0.3135
  388MOL0     C52247   8.329   2.384   9.063 -0.6553 -0.2716 -0.8238
  388MOL0     O52248   8.424   2.473   9.105  0.8898  0.4310 -1.1216
  388MOL0     C52249   8.562   2.442   9.122  0.1517  0.1272 -1.1531
  388MOL0     C52250   8.636   2.348   9.047  0.1206 -0.1019 -0.2597
  388MOL0     C52251   8.774   2.335   9.051  0.2412  0.8799 -0.7763
  388MOL0     C52252   8.850   2.418   9.134 -0.3806  0.0782  0.0808
  388MOL0     O52253   8.988   2.398   9.123 -0.6493  1.1569 -0.6412
  388MOL0     C52254   9.079   2.443   9.216  0.2813  0.4323 -1.1347
  388MOL0     C52255   9.229   2.418   9.168  0.0969 -0.7939  0.2524
  388MOL0     C52256   9.321   2.479   9.263  0.5157 -0.2251 -0.6740
  388MOL0     C52257   9.462   2.442   9.234 -0.1879 -0.0908 -0.2445
  388MOL0     C52258   9.563   2.511   9.319 -0.1523 -0.1511  0.5674
  388MOL0     C52259   9.700   2.500   9.258 -1.2679  0.4652  0.8465
  388MOL0     C52260   9.800   2.578   9.344 -0.4453  0.2450  0.1951
  388MOL0     C52261   9.785   2.735   9.330 -0.5379  0.6056  0.2717
  388MOL0     N52262   9.876   2.804   9.429  0.5062  0.0032  1.2320
  388MOL0     C52263   9.885   2.781   9.567  0.0269  0.7064 -0.4274
  388MOL0     C52264  10.000   2.852   9.604  1.3096  0.2516 -0.1981
  388MOL0     C52265  10.059   2.832   9.747  0.0023 -0.1460 -0.8190
  388MOL0     C52266  10.201   2.883   9.749  0.0760  0.3666  0.6392
  388MOL0     C52267  10.214   3.034   9.769  0.9524 -0.1120 -0.4489
  388MOL0     C52268  10.357   3.087   9.775 -0.3686 -0.1257  0.1031
  388MOL0     O52269  10.419   3.073   9.649 -0.2744  0.0420  0.1797
  388MOL0     C52270  10.545   3.135   9.626  1.2239  0.8670  0.6129
  388MOL0     C52271  10.665   3.095   9.680 -0.6526  0.6580 -0.2805
  388MOL0     C52272  10.789   3.144   9.629 -0.4868  0.4790 -0.6614
  388MOL0     C52273  10.793   3.241   9.525  1.2221  0.5739  0.3953
  388MOL0     C52274  10.912   3.270   9.453 -0.0466 -0.4586 -0.0569
  388MOL0     O52275  10.902   3.361   9.353 -0.0753 -0.3963 -0.6642
  388MOL0     C52276  11.026   3.394   9.289  0.0218  0.1142 -0.2070
  388MOL0     C52277  11.055   3.531   9.269 -0.2820 -0.6107 -0.4840
  388MOL0     C52278  11.158   3.570   9.191  0.0935 -0.5323 -0.9319
  388MOL0     C52279  11.249   3.479   9.138  0.3791  0.5966  0.4977
  388MOL0     O52280  11.352   3.505   9.054  0.2424  0.1709 -0.9450
  388MOL0     C52281  11.326   3.609   8.956 -0.4079  0.0276 -0.4725
  388MOL0     C52282  11.254   3.551   8.830  0.2034 -0.3805 -0.2611
  388MOL0     C52283  11.315   3.592   8.695 -0.0302 -0.1715  0.3333
  388MOL0     C52284  11.205   3.579   8.594 -0.5714  0.4067 -0.6627
  388MOL0     C52285  11.251   3.581   8.444  0.9255 -0.0071 -0.6397
  388MOL0     C52286  11.293   3.721   8.392 -0.1841  0.1061  0.0764
  388MOL0     C52287  11.370   3.700   8.262  0.1033 -0.8225  0.2711
  388MOL0     C52288  11.465   3.821   8.224 -0.4969  0.6031 -0.4000
  388MOL0    Cl52289  11.390   3.988   8.214 -1.0183 -0.1533 -0.1067
  388MOL0     C52290  11.230   3.340   9.165 -0.4195  0.2601 -1.3742
  388MOL0     C52291  11.114   3.300   9.229  0.4197  0.1364 -0.3059
  388MOL0     O52292  11.008   3.193   9.475 -0.1833 -0.5666  0.9733
  388MOL0     C52293  10.673   3.288   9.478  0.5464  0.1575  0.5877
  388MOL0     C52294  10.551   3.226   9.518  0.7565 -0.6105 -0.2106
  388MOL0     N52295  10.049   2.920   9.496 -0.3299 -0.6932  0.3548
  388MOL0     N52296   9.978   2.880   9.396 -0.8625 -0.0165  0.5093
  388MOL0     C52297   8.786   2.518   9.201  0.0057  0.2206 -0.2633
  388MOL0     C52298   8.641   2.531   9.203  0.3221 -0.3319  0.1836
  388MOL0     C52299   8.201   2.445   9.006  0.5407 -0.4170  0.3134
  388MOL0     C52300   8.203   2.581   8.974  0.6203 -0.4131  0.1785
  388MOL0     C52301   8.094   2.641   8.908 -0.0173 -0.1741 -0.4375
  388MOL0     C52302   7.986   2.567   8.871 -0.1785 -0.0327 -0.2017
  388MOL0     O52303   7.892   2.639   8.792 -0.9886  0.3776 -0.2015
  388MOL0     C52304   7.820   2.564   8.693 -0.5157  0.9770  0.3112
  388MOL0     C52305   7.690   2.536   8.755  0.1509 -0.1231 -0.4160
  388MOL0     C52306   7.605   2.469   8.650  0.1563 -0.5347  0.2871
  388MOL0     C52307   7.452   2.462   8.680  0.7559  0.3688  0.1780
  388MOL0     C52308   7.392   2.354   8.595  0.4468  0.4798  0.0281
  388MOL0     C52309   7.358   2.255   8.535 -0.3680 -0.4430  0.7860
  388MOL0     C52310   7.984   2.432   8.906  0.7804 -0.4604 -0.5257
  388MOL0     C52311   8.082   2.367   8.973  0.1346  0.4405 -0.5432
  388MOL0     C52312   8.048   2.230   9.030 -0.0967 -0.1387 -1.1380
  388MOL0     H52313   8.590   2.275   8.981  1.9330 -2.3261  0.8036
  388MOL0     H52314   8.829   2.257   8.999  1.3106 -0.5498  2.2349
  388MOL0     H52315   9.061   2.550   9.230  1.1928  0.6102 -1.2094
  388MOL0     H52316   9.072   2.391   9.312 -1.0601 -1.1998 -2.0691
  388MOL0     H52317   9.230   2.460   9.068  1.2256  1.1248  1.0212
  388MOL0     H52318   9.243   2.310   9.156  1.6305 -0.7009  1.0020
  388MOL0     H52319   9.286   2.451   9.362  1.2111 -1.2258 -0.6970
  388MOL0     H52320   9.302   2.587   9.257 -0.5557 -0.4417 -1.8096
  388MOL0     H52321   9.467   2.333   9.240 -1.2377 -0.2572 -1.7774
  388MOL0     H52322   9.476   2.488   9.136 -4.1235  1.7889 -0.1317
  388MOL0     H52323   9.534   2.616   9.331  2.1140  0.3366  2.5956
  388MOL0     H52324   9.577   2.468   9.419  0.2228  0.9773  1.0166
  388MOL0     H52325   9.739   2.398   9.251  2.0610  1.5755  1.5960
  388MOL0     H52326   9.699   2.542   9.157  4.8199 -1.1315 -0.2533
  388MOL0     H52327   9.906   2.566   9.320 -0.4563  1.3445 -0.4545
  388MOL0     H52328   9.785   2.550   9.449  1.7324  4.2222  1.7776
  388MOL0     H52329   9.810   2.770   9.230 -0.5529  4.0552  1.3405
  388MOL0     H52330   9.689   2.775   9.366  0.3928  2.1118  1.2218
  388MOL0     H52331   9.828   2.708   9.623 -0.2672  1.1410 -0.1547
  388MOL0     H52332  10.006   2.873   9.834  3.8379 -0.5500  1.9926
  388MOL0     H52333  10.063   2.723   9.761 -0.5727 -0.6647 -3.9756
  388MOL0     H52334  10.255   2.833   9.831 -0.6772 -2.7336 -0.6151
  388MOL0     H52335  10.251   2.866   9.653  1.0025  2.3311  0.7283
  388MOL0     H52336  10.148   3.063   9.851 -0.4965  1.8328 -2.1646
  388MOL0     H52337  10.170   3.087   9.684 -2.7997 -0.0535  1.3364
  388MOL0     H52338  10.421   3.039   9.850  0.9716  0.9348 -0.3199
  388MOL0     H52339  10.350   3.193   9.804 -0.6611 -0.1965  0.2898
  388MOL0     H52340  10.656   3.024   9.761 -3.3049 -1.3422 -2.1367
  388MOL0     H52341  10.890   3.125   9.665  0.4303  3.4494 -1.3683
  388MOL0     H52342  10.984   3.605   9.306  0.7583 -0.6643  1.7691
  388MOL0     H52343  11.171   3.677   9.174  1.6229 -0.7189 -1.0701
  388MOL0     H52344  11.275   3.695   9.002  0.4666  0.1596  0.2979
  388MOL0     H52345  11.423   3.648   8.923  1.3729 -2.5634  1.3111
  388MOL0     H52346  11.260   3.444   8.852 -0.5865 -0.0467  1.7882
  388MOL0     H52347  11.148   3.578   8.834  0.5507  0.8962  0.8033
  388MOL0     H52348  11.364   3.689   8.694 -2.4194  1.1014  0.7176
  388MOL0     H52349  11.391   3.516   8.673 -0.9699 -0.5447 -1.9698
  388MOL0     H52350  11.129   3.656   8.610 -2.2870 -1.1228 -1.1238
  388MOL0     H52351  11.144   3.489   8.605 -2.1463  1.3033 -1.7061
  388MOL0     H52352  11.165   3.559   8.380 -0.6358  0.8187  1.0808
  388MOL0     H52353  11.324   3.501   8.428 -0.1186 -1.0187 -0.5317
  388MOL0     H52354  11.227   3.807   8.383  2.0527  1.7617 -1.7624
  388MOL0     H52355  11.358   3.764   8.469  1.1313  0.2125 -1.0512
  388MOL0     H52356  11.300   3.680   8.180 -1.7529 -1.2771  1.8925
  388MOL0     H52357  11.429   3.608   8.259  0.3354 -0.6787  0.4125
  388MOL0     H52358  11.544   3.841   8.298  0.0291 -0.9387 -0.5117
  388MOL0     H52359  11.523   3.791   8.136  1.1608  0.7380  0.5986
  388MOL0     H52360  11.288   3.261   9.119 -1.3995 -1.0103 -0.4740
  388MOL0     H52361  11.097   3.193   9.233 -2.7673  0.5813  2.0447
  388MOL0     H52362  10.663   3.357   9.394  0.6311 -1.7295 -1.0430
  388MOL0     H52363  10.461   3.255   9.465  0.3600  0.0679  0.7865
  388MOL0     H52364   8.838   2.599   9.251 -3.5169  1.7913  1.2337
  388MOL0     H52365   8.604   2.624   9.245  2.8470  2.8729 -3.8714
  388MOL0     H52366   8.291   2.641   8.993  0.2893 -0.2289  1.2139
  388MOL0     H52367   8.101   2.747   8.884  3.4824 -0.3056 -0.5791
  388MOL0     H52368   7.873   2.473   8.665 -0.4424  1.3754 -0.8934
  388MOL0     H52369   7.812   2.631   8.607 -1.7674  2.9374  1.8291
  388MOL0     H52370   7.651   2.634   8.784 -1.1859 -0.3216 -1.4973
  388MOL0     H52371   7.701   2.470   8.841 -1.5076 -1.2203 -1.0056
  388MOL0     H52372   7.642   2.368   8.632 -1.0766 -0.5681 -2.7667
  388MOL0     H52373   7.631   2.521   8.557  1.6972  1.4597  1.7386
  388MOL0     H52374   7.445   2.440   8.787  2.4142 -3.9754 -0.3797
  388MOL0     H52375   7.404   2.555   8.649 -0.6840 -0.7881 -1.2121
  388MOL0     H52376   7.302   2.169   8.505 -0.6569 -1.4850  3.8997
  388MOL0     H52377   7.897   2.370   8.886 -0.2458  0.8813 -0.2970
  388MOL0     H52378   8.131   2.160   9.021 -0.9160 -1.2991 -0.0395
  388MOL0     H52379   8.030   2.242   9.138  0.4152 -0.8010 -0.9734
  388MOL0     H52380   7.963   2.181   8.983 -0.0922 -0.1553 -1.1284
  389MOL0     O52381   9.682   2.845  10.647 -0.4796 -0.2822  0.6027
  389MOL0     C52382   9.775   2.924  10.657 -0.0205  0.3733 -0.0264
  389MOL0     O52383   9.908   2.888  10.685  0.8580  0.6203 -0.7458
  389MOL0     C52384   9.945   2.762  10.644  0.2554 -0.0444  0.3704
  389MOL0     C52385  10.029   2.756  10.531  0.1085  0.1616 -0.5476
  389MOL0     C52386  10.066   2.634  10.493  0.0947  0.8522 -0.0486
  389MOL0     C52387  10.022   2.512  10.542  0.1374  0.2431  0.1809
  389MOL0     O52388  10.063   2.383  10.514 -0.3372 -0.3592  0.1820
  389MOL0     C52389  10.146   2.359  10.401  0.0416 -0.3918 -0.4112
  389MOL0     C52390  10.180   2.210  10.410 -0.7095 -0.2763 -0.2203
  389MOL0     C52391  10.292   2.179  10.314 -0.8367 -1.1626 -0.5166
  389MOL0     C52392  10.348   2.038  10.328  0.2306 -0.1801  0.8762
  389MOL0     C52393  10.464   2.008  10.232  0.4046 -0.5292 -0.2355
  389MOL0     C52394  10.531   1.871  10.254 -0.1135  0.0124 -0.1524
  389MOL0     C52395  10.429   1.752  10.253  0.2463  0.7348  0.1771
  389MOL0     C52396  10.407   1.695  10.110 -0.7022 -0.3344  1.0087
  389MOL0     N52397  10.532   1.638  10.047 -0.2027 -0.1356 -0.0964
  389MOL0     C52398  10.600   1.524  10.085  0.9442 -0.1105 -0.0612
  389MOL0     C52399  10.698   1.513   9.991 -0.7652 -0.1021  0.9080
  389MOL0     C52400  10.798   1.401   9.972 -0.1032 -0.0774  0.1276
  389MOL0     C52401  10.941   1.454   9.988 -0.0140  0.2147 -0.2789
  389MOL0     C52402  10.993   1.507   9.854 -0.5402 -0.1751 -0.7128
  389MOL0     C52403  11.142   1.560   9.870  0.0616 -0.5807  0.4422
  389MOL0     O52404  11.190   1.577   9.735 -0.2428  0.1384  0.8128
  389MOL0     C52405  11.325   1.545   9.710 -0.1291 -0.1799 -0.4842
  389MOL0     C52406  11.426   1.565   9.802  0.8550  0.0793  0.2741
  389MOL0     C52407  11.562   1.538   9.772 -0.3844  0.1661  0.8903
  389MOL0     C52408  11.594   1.491   9.642 -0.8670  0.5443  0.6181
  389MOL0     C52409  11.731   1.481   9.586 -0.7535 -0.0723 -0.8407
  389MOL0     O52410  11.739   1.436   9.459 -0.2669  0.4285 -0.7077
  389MOL0     C52411  11.857   1.429   9.384  0.2866  0.1719 -1.0052
  389MOL0     C52412  11.966   1.514   9.408 -0.0701  1.2410 -0.0046
  389MOL0     C52413  12.074   1.521   9.314  0.7256  0.6014  0.0455
  389MOL0     C52414  12.065   1.428   9.209 -0.5753  0.6718  0.8118
  389MOL0     O52415  12.174   1.420   9.133 -0.1031  0.3595 -0.0154
  389MOL0     C52416  12.225   1.541   9.078  1.0204  0.9552 -0.9018
  389MOL0     C52417  12.341   1.505   8.986 -0.8901  0.6647 -0.2344
  389MOL0     C52418  12.472   1.470   9.064 -1.1669 -0.2848  0.3473
  389MOL0     C52419  12.603   1.459   8.979  0.1332 -0.2827  0.0542
  389MOL0     C52420  12.721   1.431   9.061  0.3557 -0.1834 -0.4364
  389MOL0     C52421  12.855   1.391   8.984  0.8136  0.1793  0.4867
  389MOL0     C52422  12.937   1.499   8.916 -0.3543  0.7703  0.4809
  389MOL0     C52423  13.018   1.441   8.801 -0.0990  0.0221 -0.2579
  389MOL0    Cl52424  13.092   1.583   8.724  0.3401  0.3716  0.0438
  389MOL0     C52425  11.961   1.337   9.194 -0.5071  0.3567 -0.1516
  389MOL0     C52426  11.857   1.344   9.282  0.2654  0.4712 -0.0612
  389MOL0     O52427  11.822   1.491   9.670 -0.4418 -0.0505  0.3459
  389MOL0     C52428  11.487   1.471   9.548  0.2946 -0.4815 -0.3507
  389MOL0     C52429  11.352   1.487   9.588 -0.0767  0.7166 -0.0414
  389MOL0     N52430  10.689   1.625   9.912 -0.0157 -0.2756  0.3954
  389MOL0     N52431  10.593   1.700   9.945 -1.2503 -0.3368  0.1459
  389MOL0     C52432   9.931   2.516  10.656 -1.0665  0.3652  0.2155
  389MOL0     C52433   9.903   2.642  10.707  0.0974  0.7989 -0.9249
  389MOL0     C52434   9.741   3.062  10.663  0.1446  0.5484 -0.9086
  389MOL0     C52435   9.841   3.147  10.712  0.8573 -0.1311 -0.1546
  389MOL0     C52436   9.815   3.275  10.749  0.8018  0.1905 -0.7874
  389MOL0     C52437   9.686   3.334  10.720  0.0943  0.1857  0.6463
  389MOL0     O52438   9.633   3.455  10.764 -0.1085 -0.1631  0.5200
  389MOL0     C52439   9.737   3.554  10.793 -0.1828 -0.1710  0.2699
  389MOL0     C52440   9.691   3.697  10.763 -0.6601  0.1846 -0.4533
  389MOL0     C52441   9.621   3.700  10.629  0.4228 -0.3046  0.3161
  389MOL0     C52442   9.577   3.833  10.587 -0.0363  0.0767  0.4245
  389MOL0     C52443   9.685   3.927  10.579  0.0402 -0.1548 -0.0527
  389MOL0     C52444   9.787   3.994  10.593  0.2740 -0.2126 -0.6983
  389MOL0     C52445   9.589   3.258  10.652 -0.1361  0.3411  0.5723
  389MOL0     C52446   9.612   3.120  10.630 -1.1824 -0.1787  0.9939
  389MOL0     C52447   9.503   3.041  10.575 -0.0539  0.4968  0.2888
  389MOL0     H52448  10.085   2.840  10.490  0.7549  0.1145  0.2255
  389MOL0     H52449  10.143   2.645  10.418 -0.7178  0.9457 -0.8841
  389MOL0     H52450  10.102   2.395  10.308  0.5398  1.2394 -0.0459
  389MOL0     H52451  10.235   2.419  10.423 -0.6699 -0.2122  2.4237
  389MOL0     H52452  10.096   2.142  10.394 -0.5191 -0.5887  0.0806
  389MOL0     H52453  10.207   2.186  10.513  0.5434 -0.8895 -0.6772
  389MOL0     H52454  10.369   2.255  10.329 -2.5496  0.2417  1.7935
  389MOL0     H52455  10.268   2.191  10.207 -1.8372  0.4300 -0.1625
  389MOL0     H52456  10.388   2.022  10.429  0.1677 -2.1336  0.6252
  389MOL0     H52457  10.270   1.968  10.299  1.0645 -0.6713 -0.2389
  389MOL0     H52458  10.431   2.021  10.128  0.9317 -1.9257 -0.6035
  389MOL0     H52459  10.536   2.088  10.247 -0.2176  0.4337 -2.0414
  389MOL0     H52460  10.605   1.855  10.175 -0.9900  0.1134 -1.0099
  389MOL0     H52461  10.590   1.874  10.346  1.2894  0.7643 -1.0333
  389MOL0     H52462  10.330   1.774  10.294 -0.4785 -0.7196 -0.7483
  389MOL0     H52463  10.463   1.671  10.318 -0.2898  0.3445 -0.0254
  389MOL0     H52464  10.332   1.615  10.111 -1.7780  0.6456  2.0812
  389MOL0     H52465  10.364   1.773  10.047  1.8540 -0.8734 -1.6322
  389MOL0     H52466  10.582   1.465  10.174 -0.8759  3.4105  2.1435
  389MOL0     H52467  10.772   1.328  10.050 -1.2093  0.7587  0.5633
  389MOL0     H52468  10.778   1.351   9.876  2.2734 -1.0429  0.0682
  389MOL0     H52469  10.945   1.531  10.065  0.8596  2.4976 -2.4678
  389MOL0     H52470  11.004   1.370  10.019  0.9104  1.4247  1.2320
  389MOL0     H52471  10.937   1.594   9.817  0.5293  1.9934  2.3880
  389MOL0     H52472  10.995   1.420   9.787 -1.1330 -0.1599 -0.7536
  389MOL0     H52473  11.195   1.484   9.928  0.0253 -0.7662  0.2331
  389MOL0     H52474  11.144   1.654   9.925  2.2187  1.6134 -3.0560
  389MOL0     H52475  11.409   1.602   9.903  1.7720 -2.3728  1.4332
  389MOL0     H52476  11.642   1.557   9.844  2.4478 -4.4505 -0.5503
  389MOL0     H52477  11.962   1.574   9.499 -0.2288  1.5293 -0.1977
  389MOL0     H52478  12.158   1.591   9.321  1.3411 -0.0367 -0.7809
  389MOL0     H52479  12.151   1.597   9.020 -0.4989  0.1257  0.1922
  389MOL0     H52480  12.250   1.614   9.155 -5.1330 -0.1125  2.7310
  389MOL0     H52481  12.303   1.419   8.931  2.8674 -2.2492  1.3012
  389MOL0     H52482  12.363   1.581   8.911  2.3504 -0.2735 -0.3584
  389MOL0     H52483  12.489   1.550   9.136  0.8917  0.3819 -0.8090
  389MOL0     H52484  12.452   1.371   9.108  1.1514 -1.4937 -1.1419
  389MOL0     H52485  12.616   1.552   8.923 -1.6881  0.4568  0.7841
  389MOL0     H52486  12.589   1.385   8.900  2.6322 -2.5319  1.5930
  389MOL0     H52487  12.692   1.350   9.128 -1.1073  1.6104  1.2026
  389MOL0     H52488  12.733   1.513   9.132 -0.8575 -0.5645  0.2470
  389MOL0     H52489  12.902   1.306   9.035  0.5511 -0.0055  0.4250
  389MOL0     H52490  12.812   1.338   8.899 -1.9326  1.4842  0.9522
  389MOL0     H52491  13.002   1.547   8.989 -0.3950 -0.3637  1.2909
  389MOL0     H52492  12.875   1.567   8.857  1.3609  0.1929 -2.1560
  389MOL0     H52493  13.111   1.392   8.830  1.3998  2.3405 -0.9057
  389MOL0     H52494  12.981   1.368   8.729 -0.2519 -0.1480 -0.0096
  389MOL0     H52495  11.959   1.259   9.119 -1.5305  0.9130 -0.7263
  389MOL0     H52496  11.777   1.273   9.263  1.0954 -0.1347 -1.4741
  389MOL0     H52497  11.502   1.443   9.445 -3.5635  0.5167 -1.3328
  389MOL0     H52498  11.278   1.457   9.514  2.9635  1.8842 -3.8969
  389MOL0     H52499   9.877   2.432  10.697 -1.8892  1.8342  2.2653
  389MOL0     H52500   9.846   2.653  10.799 -0.4387  0.6454 -1.2311
  389MOL0     H52501   9.937   3.100  10.733  0.1001 -3.4249 -3.1273
  389MOL0     H52502   9.890   3.324  10.811  0.4564 -0.0725 -0.1565
  389MOL0     H52503   9.828   3.531  10.737 -0.0559  0.9154  0.0208
  389MOL0     H52504   9.778   3.551  10.895  1.6008 -0.3971 -0.4300
  389MOL0     H52505   9.779   3.761  10.775 -0.9050  0.3490  0.5369
  389MOL0     H52506   9.618   3.731  10.837 -1.1676  3.6408 -2.3244
  389MOL0     H52507   9.527   3.645  10.637 -0.9280  1.7135 -1.0215
  389MOL0     H52508   9.676   3.639  10.556 -1.8111 -2.6164  0.4074
  389MOL0     H52509   9.532   3.825  10.487 -3.2251  2.1491  1.5424
  389MOL0     H52510   9.501   3.868  10.656 -1.5852 -1.3823 -0.4751
  389MOL0     H52511   9.877   4.045  10.620 -0.4209  0.2144  0.9341
  389MOL0     H52512   9.496   3.304  10.621  0.3654  0.4533 -0.8348
  389MOL0     H52513   9.460   2.975  10.652  0.2099 -0.9570 -0.7716
  389MOL0     H52514   9.425   3.110  10.541  1.3466  1.7659 -0.4685
  389MOL0     H52515   9.531   2.977  10.491 -2.7420 -0.4841  0.0104
  390MOL0     O52516   5.836   5.477   3.619  0.1724 -0.2657  0.2720
  390MOL0     C52517   5.830   5.481   3.490  0.1656 -0.3913 -0.0525
  390MOL0     O52518   5.924   5.527   3.405  0.5696  0.3666  0.4171
  390MOL0     C52519   6.043   5.567   3.455 -0.8578 -0.4563 -0.8334
  390MOL0     C52520   6.164   5.508   3.408  0.2633 -0.5740 -0.0744
  390MOL0     C52521   6.285   5.563   3.454 -0.3283 -0.4468  0.0599
  390MOL0     C52522   6.295   5.684   3.532 -0.1184  0.3892  0.1736
  390MOL0     O52523   6.406   5.749   3.570  0.1965  0.1194 -0.2746
  390MOL0     C52524   6.531   5.673   3.566  0.2862  0.0244 -0.1137
  390MOL0     C52525   6.636   5.738   3.656 -0.0938  0.0018 -0.4337
  390MOL0     C52526   6.723   5.625   3.711  0.5708  0.4529  0.2830
  390MOL0     C52527   6.668   5.549   3.836 -0.0455 -0.1629  0.4169
  390MOL0     C52528   6.791   5.478   3.907  0.6209  0.9691 -0.1169
  390MOL0     C52529   6.737   5.354   3.981 -0.0278  0.1527  0.0696
  390MOL0     C52530   6.714   5.232   3.892  0.1433 -0.3178  0.6220
  390MOL0     C52531   6.800   5.210   3.765 -0.2796 -0.1385 -0.2083
  390MOL0     N52532   6.785   5.077   3.707  0.0113 -0.0275 -1.0446
  390MOL0     C52533   6.782   4.958   3.776 -0.1797 -0.4262  1.1385
  390MOL0     C52534   6.801   4.867   3.676  0.2951  0.0857  0.3530
  390MOL0     C52535   6.830   4.728   3.697 -0.1004  0.0026 -0.0846
  390MOL0     C52536   6.982   4.704   3.710 -0.0339 -0.0904 -0.0142
  390MOL0     C52537   7.025   4.562   3.768 -0.3891  0.2815  0.8587
  390MOL0     C52538   7.180   4.547   3.772 -0.2956 -0.3675  0.8239
  390MOL0     O52539   7.201   4.414   3.811 -1.0904  0.2485  0.6294
  390MOL0     C52540   7.332   4.380   3.838  0.6618 -0.2499 -0.4920
  390MOL0     C52541   7.403   4.420   3.949  0.7833  0.5995  0.2508
  390MOL0     C52542   7.529   4.371   3.981  0.3618 -0.1399 -0.3972
  390MOL0     C52543   7.586   4.265   3.898 -0.7010  0.8022  0.2961
  390MOL0     C52544   7.722   4.229   3.924 -0.6191  0.0817  1.0887
  390MOL0     O52545   7.769   4.120   3.845  0.2062  0.0345 -0.0599
  390MOL0     C52546   7.900   4.094   3.868 -0.3546  0.3173 -0.4546
  390MOL0     C52547   8.007   4.168   3.818  0.2563 -0.4942 -0.9605
  390MOL0     C52548   8.141   4.141   3.861  0.4088 -0.3163  0.2421
  390MOL0     C52549   8.166   4.028   3.945 -0.3951  1.2098  0.2554
  390MOL0     O52550   8.296   3.990   3.969 -0.0235 -0.4004 -0.6833
  390MOL0     C52551   8.331   4.028   4.098  0.4020 -0.9456 -0.4820
  390MOL0     C52552   8.442   3.952   4.163 -0.0826  0.8111 -0.7342
  390MOL0     C52553   8.558   3.910   4.070  0.4831  0.0974  0.5455
  390MOL0     C52554   8.664   3.837   4.135 -0.8699 -0.0171 -0.0521
  390MOL0     C52555   8.794   3.827   4.047  0.0873  0.6368 -0.4970
  390MOL0     C52556   8.897   3.931   4.071  0.1731 -0.8441  0.4012
  390MOL0     C52557   8.845   4.073   4.034 -0.0136  0.8129 -0.3975
  390MOL0     C52558   8.965   4.166   3.998 -1.1429  0.4371 -0.6631
  390MOL0    Cl52559   9.077   4.092   3.871  0.7138 -0.3380 -0.0866
  390MOL0     C52560   8.054   3.943   3.987 -0.5841 -0.4049 -0.2925
  390MOL0     C52561   7.924   3.978   3.953 -0.5197  0.3581  0.3684
  390MOL0     O52562   7.793   4.302   3.999 -0.2915  0.0987  0.2726
  390MOL0     C52563   7.509   4.216   3.793  0.7496 -0.7071  0.0281
  390MOL0     C52564   7.380   4.275   3.765  0.0468  0.7458  0.3582
  390MOL0     N52565   6.784   4.936   3.555 -0.4905  0.9392  0.4528
  390MOL0     N52566   6.771   5.056   3.580  0.3821  0.0386  0.0979
  390MOL0     C52567   6.174   5.738   3.570 -0.4105 -1.0554  0.1160
  390MOL0     C52568   6.045   5.688   3.533 -0.1512  0.4843  0.7785
  390MOL0     C52569   5.706   5.432   3.431  0.8538 -0.3681  0.0974
  390MOL0     C52570   5.708   5.389   3.294  0.0717  0.4426  0.1790
  390MOL0     C52571   5.597   5.331   3.232  0.0282 -0.4569 -0.3727
  390MOL0     C52572   5.483   5.302   3.304  0.6099  0.3594 -0.4413
  390MOL0     O52573   5.372   5.229   3.262  0.5631  0.1260  0.4157
  390MOL0     C52574   5.365   5.171   3.129 -0.0350 -0.3187 -0.2231
  390MOL0     C52575   5.426   5.033   3.146 -0.1179  0.3054 -0.8536
  390MOL0     C52576   5.424   4.949   3.019 -0.2869 -0.4535  0.2228
  390MOL0     C52577   5.477   5.035   2.896 -0.2081  0.2230  0.9636
  390MOL0     C52578   5.620   5.043   2.916  0.5060 -0.2753  0.2789
  390MOL0     C52579   5.741   5.054   2.920 -0.5923 -0.0307  1.0826
  390MOL0     C52580   5.476   5.335   3.443  0.3821  0.8145  0.2151
  390MOL0     C52581   5.582   5.416   3.501 -0.0785 -0.5400  0.3702
  390MOL0     C52582   5.561   5.476   3.636  0.0744 -0.8393 -0.1675
  390MOL0     H52583   6.160   5.420   3.344 -3.0133 -0.1616 -0.6154
  390MOL0     H52584   6.374   5.505   3.434  0.2033 -0.6412  2.6066
  390MOL0     H52585   6.521   5.570   3.601 -0.6332  0.1987  0.1704
  390MOL0     H52586   6.565   5.667   3.462  0.3013 -0.5351 -0.0814
  390MOL0     H52587   6.591   5.786   3.744 -0.5283 -1.8480  0.4019
  390MOL0     H52588   6.687   5.816   3.599 -1.8525  0.6026 -1.2780
  390MOL0     H52589   6.825   5.663   3.726  0.8444 -0.4900  0.8692
  390MOL0     H52590   6.728   5.547   3.634 -3.2108  0.8219 -0.5342
  390MOL0     H52591   6.619   5.622   3.901  0.5644 -1.4730  2.4545
  390MOL0     H52592   6.588   5.480   3.808 -0.6230 -0.3570  2.4064
  390MOL0     H52593   6.866   5.455   3.831  0.8054  0.7472  0.1316
  390MOL0     H52594   6.829   5.541   3.987 -4.0260 -0.9968  4.1933
  390MOL0     H52595   6.819   5.325   4.047  1.7855 -0.6736 -2.4066
  390MOL0     H52596   6.642   5.380   4.029 -1.1309 -2.3305 -0.5971
  390MOL0     H52597   6.610   5.237   3.859  0.6188  2.6576 -0.7502
  390MOL0     H52598   6.724   5.141   3.952  0.3447 -2.2060 -2.0716
  390MOL0     H52599   6.768   5.285   3.693 -0.8051  1.0797  1.2358
  390MOL0     H52600   6.905   5.229   3.787 -0.3413  2.9352 -2.0858
  390MOL0     H52601   6.786   4.954   3.884  0.2415 -0.7839  1.1147
  390MOL0     H52602   6.784   4.700   3.793 -0.8172  0.6007 -0.2468
  390MOL0     H52603   6.785   4.658   3.627  0.2126 -1.1572  0.8210
  390MOL0     H52604   7.018   4.711   3.607  1.9943  2.1169  0.7618
  390MOL0     H52605   7.033   4.783   3.767 -0.5371 -1.4466  2.4664
  390MOL0     H52606   6.972   4.488   3.708  0.8361  0.7639 -0.9240
  390MOL0     H52607   6.988   4.545   3.869 -0.9495 -0.3160  0.5609
  390MOL0     H52608   7.212   4.609   3.857  2.5254 -1.2818  0.5162
  390MOL0     H52609   7.231   4.569   3.678 -0.1603 -0.6954  0.8206
  390MOL0     H52610   7.367   4.513   3.990 -0.6449 -0.1017  0.6358
  390MOL0     H52611   7.574   4.417   4.068  0.8362 -1.4528  0.0627
  390MOL0     H52612   7.988   4.256   3.756  4.3289  0.0366 -1.7616
  390MOL0     H52613   8.227   4.202   3.836  0.6724  0.0442  1.8826
  390MOL0     H52614   8.362   4.133   4.104 -1.7322 -0.3426  1.6008
  390MOL0     H52615   8.246   4.018   4.166  0.4513 -0.4907 -0.3498
  390MOL0     H52616   8.480   4.017   4.243 -1.1754  0.1515  0.3521
  390MOL0     H52617   8.402   3.869   4.222 -1.1036  2.6103  1.2651
  390MOL0     H52618   8.512   3.842   3.997  1.4542  1.0945 -1.0650
  390MOL0     H52619   8.587   3.998   4.011 -0.8462 -0.8389 -1.6698
  390MOL0     H52620   8.635   3.738   4.170  1.9521 -1.0476 -0.4002
  390MOL0     H52621   8.681   3.895   4.226  0.1107  0.7969 -0.7321
  390MOL0     H52622   8.761   3.839   3.943 -2.4239  0.4684  0.2187
  390MOL0     H52623   8.838   3.728   4.063 -2.6914 -1.0910 -2.3426
  390MOL0     H52624   8.926   3.923   4.176  2.3966 -0.2752 -0.1336
  390MOL0     H52625   8.985   3.898   4.015 -1.2929 -1.1139 -1.8922
  390MOL0     H52626   8.784   4.115   4.114 -0.3921 -0.0086 -0.2495
  390MOL0     H52627   8.789   4.056   3.942  1.9174 -2.1212 -1.1679
  390MOL0     H52628   8.920   4.261   3.966  0.7793  1.0426 -1.8002
  390MOL0     H52629   9.018   4.181   4.092 -0.7044 -2.7014 -0.3140
  390MOL0     H52630   8.079   3.852   4.040 -0.1083  0.2880  0.7062
  390MOL0     H52631   7.831   3.938   3.993 -1.0302  0.7442 -0.3878
  390MOL0     H52632   7.559   4.147   3.725  0.5255  0.3657 -1.2611
  390MOL0     H52633   7.328   4.237   3.678  1.9188 -1.0539 -0.0565
  390MOL0     H52634   6.182   5.832   3.624 -1.2128 -0.0644 -1.4257
  390MOL0     H52635   5.946   5.727   3.558 -1.5595 -2.2482 -0.1009
  390MOL0     H52636   5.796   5.408   3.234 -0.1144  2.9182  0.6110
  390MOL0     H52637   5.611   5.321   3.125  1.6198  0.8868 -0.3304
  390MOL0     H52638   5.417   5.245   3.068 -1.7871  0.8315 -0.4041
  390MOL0     H52639   5.258   5.165   3.104 -0.2388 -0.9615  0.7425
  390MOL0     H52640   5.375   4.971   3.220  0.0374  0.0547 -0.9535
  390MOL0     H52641   5.526   5.055   3.184 -0.8277 -0.5885  1.7675
  390MOL0     H52642   5.321   4.919   2.995 -0.2918 -0.5741  0.3947
  390MOL0     H52643   5.482   4.858   3.031  0.2429  0.2117  4.1237
  390MOL0     H52644   5.449   4.997   2.797  0.0272  0.9930  0.5948
  390MOL0     H52645   5.438   5.137   2.890 -0.4732  0.1314  1.1541
  390MOL0     H52646   5.846   5.078   2.920 -0.8909  1.3490  0.3331
  390MOL0     H52647   5.382   5.300   3.482 -0.2583 -0.5332 -2.2864
  390MOL0     H52648   5.618   5.570   3.641 -1.4662  0.1433 -0.2972
  390MOL0     H52649   5.457   5.493   3.663  0.8771  1.5445  1.8037
  390MOL0     H52650   5.604   5.413   3.714 -1.2894 -0.2258  1.1242
  391MOL0     O52651   7.347   5.681   4.230  0.8632 -0.1641  0.1583
  391MOL0     C52652   7.409   5.649   4.336  0.6477 -0.3203  0.0230
  391MOL0     O52653   7.526   5.707   4.386  0.2948  0.6605 -0.0746
  391MOL0     C52654   7.619   5.775   4.315  0.3462 -0.8038  0.2607
  391MOL0     C52655   7.618   5.759   4.174  0.4171  1.0246 -0.2311
  391MOL0     C52656   7.699   5.836   4.099  0.3711  0.3833  0.1998
  391MOL0     C52657   7.770   5.941   4.160  0.7780 -0.3403 -1.0206
  391MOL0     O52658   7.853   6.033   4.100 -0.6565  0.1717  0.4828
  391MOL0     C52659   7.924   6.000   3.973  0.4624  0.2743 -0.7457
  391MOL0     C52660   8.077   6.014   3.990  0.7131  0.1329 -0.5798
  391MOL0     C52661   8.143   6.089   3.868  0.0906 -0.1393 -0.1741
  391MOL0     C52662   8.133   6.006   3.743 -0.1115 -0.8334 -0.0516
  391MOL0     C52663   8.168   6.078   3.617 -0.6305  0.2433 -0.6732
  391MOL0     C52664   8.172   5.990   3.489  0.3944 -0.4557  0.7405
  391MOL0     C52665   8.057   5.893   3.464 -0.3101  0.3088 -0.0839
  391MOL0     C52666   7.922   5.946   3.442  0.2056 -0.2215  0.0091
  391MOL0     N52667   7.888   6.026   3.320  0.1382 -1.2962  0.1026
  391MOL0     C52668   7.855   5.993   3.194  0.4212  0.6477 -0.0294
  391MOL0     C52669   7.846   6.115   3.123 -0.2918  0.1559  0.4942
  391MOL0     C52670   7.830   6.117   2.975  0.2066 -0.1337  0.4167
  391MOL0     C52671   7.968   6.111   2.910 -0.6564  0.0744 -0.1787
  391MOL0     C52672   8.045   6.240   2.943 -0.5857  0.3048 -1.2312
  391MOL0     C52673   8.186   6.260   2.866  0.3393  0.7533  0.3784
  391MOL0     O52674   8.167   6.303   2.733 -0.4784 -0.4056  0.6601
  391MOL0     C52675   8.282   6.329   2.658  0.2383 -0.8758 -1.4841
  391MOL0     C52676   8.261   6.384   2.537 -0.4664  0.5162 -0.2515
  391MOL0     C52677   8.374   6.408   2.458  0.2144  0.4448 -0.2337
  391MOL0     C52678   8.505   6.389   2.496 -0.4053  0.1913  0.5027
  391MOL0     C52679   8.620   6.427   2.415  0.1978  0.1162 -0.7494
  391MOL0     O52680   8.739   6.367   2.452 -0.1799  0.3900 -1.0600
  391MOL0     C52681   8.857   6.404   2.388  0.0640  0.3147 -0.2289
  391MOL0     C52682   8.873   6.393   2.248  0.1067 -0.2622 -0.6460
  391MOL0     C52683   8.990   6.438   2.189 -0.0754  0.0884  0.5586
  391MOL0     C52684   9.092   6.500   2.269 -0.2506 -0.3433  0.1496
  391MOL0     O52685   9.206   6.546   2.201 -0.0215 -0.2090 -1.0020
  391MOL0     C52686   9.331   6.550   2.267 -0.1428  0.3619  0.4837
  391MOL0     C52687   9.452   6.514   2.180  0.4280 -0.1252  0.5098
  391MOL0     C52688   9.583   6.561   2.241 -0.5408 -0.2386 -0.1112
  391MOL0     C52689   9.611   6.522   2.379  0.3678  0.0589 -0.0176
  391MOL0     C52690   9.606   6.372   2.418  0.1422  0.4350 -0.3723
  391MOL0     C52691   9.691   6.344   2.533 -0.1205  0.6231  0.2689
  391MOL0     C52692   9.843   6.381   2.538 -0.3568 -0.1129 -0.4296
  391MOL0     C52693   9.913   6.315   2.654  0.5114 -0.0567 -0.4588
  391MOL0    Cl52694   9.841   6.376   2.809  0.2859 -0.2719  0.1556
  391MOL0     C52695   9.079   6.495   2.409 -0.4565 -0.1125  0.5246
  391MOL0     C52696   8.959   6.451   2.465 -1.2746 -0.4078  0.5961
  391MOL0     O52697   8.607   6.512   2.328 -0.3403 -0.5543 -0.2131
  391MOL0     C52698   8.524   6.326   2.617  0.6279  1.0842  0.2603
  391MOL0     C52699   8.413   6.293   2.698  0.7208 -0.3075 -0.7312
  391MOL0     N52700   7.866   6.216   3.218 -0.1765 -0.0853 -0.1425
  391MOL0     N52701   7.881   6.163   3.332 -0.2300  0.6960 -0.3505
  391MOL0     C52702   7.756   5.970   4.297  0.2834 -0.0277  0.3269
  391MOL0     C52703   7.681   5.885   4.373  0.7062 -0.2495 -0.3805
  391MOL0     C52704   7.349   5.559   4.428 -0.4826 -0.6313  0.8969
  391MOL0     C52705   7.209   5.561   4.439  0.4686 -0.7637 -0.4495
  391MOL0     C52706   7.143   5.477   4.534 -0.0970 -0.1220  0.3456
  391MOL0     C52707   7.222   5.399   4.631  0.7178 -0.4373 -0.3674
  391MOL0     O52708   7.169   5.325   4.739 -0.4691  0.0024  0.0588
  391MOL0     C52709   7.026   5.315   4.743  0.6567 -0.1470  0.5699
  391MOL0     C52710   6.986   5.206   4.836  0.1910 -0.0867 -0.1882
  391MOL0     C52711   6.834   5.166   4.826  0.2661  0.3194 -0.1273
  391MOL0     C52712   6.807   5.058   4.931  0.2232  0.3109  1.1426
  391MOL0     C52713   6.834   5.107   5.073  0.1178  0.1241  0.3087
  391MOL0     C52714   6.859   5.157   5.179  0.4434  0.0311 -1.1907
  391MOL0     C52715   7.356   5.396   4.613  0.0103  0.0748 -0.4360
  391MOL0     C52716   7.420   5.463   4.510 -0.5026 -0.2727 -0.0212
  391MOL0     C52717   7.572   5.458   4.519 -0.1769  0.4665  0.2980
  391MOL0     H52718   7.563   5.682   4.121  1.9135  0.7713 -1.4758
  391MOL0     H52719   7.712   5.812   3.994 -3.6114 -3.2998  0.2913
  391MOL0     H52720   7.902   5.900   3.933  1.7220  0.5567 -2.2421
  391MOL0     H52721   7.876   6.070   3.904 -2.9458 -0.0830  1.0444
  391MOL0     H52722   8.116   5.912   3.997  1.4314  0.5100  1.5891
  391MOL0     H52723   8.103   6.061   4.085 -1.7930  0.3827  0.0585
  391MOL0     H52724   8.251   6.107   3.872  0.2568 -0.5338 -2.1322
  391MOL0     H52725   8.090   6.183   3.849 -0.5032 -0.3907  0.2110
  391MOL0     H52726   8.215   5.933   3.745 -0.7866 -1.6067  0.1696
  391MOL0     H52727   8.037   5.956   3.731 -1.7856  1.8179  1.4788
  391MOL0     H52728   8.093   6.158   3.610 -1.3312 -0.0597  2.1400
  391MOL0     H52729   8.267   6.119   3.635 -0.1039 -1.3785  0.3268
  391MOL0     H52730   8.184   6.058   3.404  3.4185 -0.9591  0.6527
  391MOL0     H52731   8.262   5.928   3.489  1.0301  0.3588 -1.9689
  391MOL0     H52732   8.053   5.818   3.544  0.5908  0.7339  0.3789
  391MOL0     H52733   8.081   5.821   3.385  2.0985 -0.0948  0.9183
  391MOL0     H52734   7.848   5.866   3.454 -3.3563  3.0498  2.0924
  391MOL0     H52735   7.896   6.011   3.526 -1.7744 -0.3843 -0.4403
  391MOL0     H52736   7.852   5.890   3.160  2.8789  0.1946  0.8968
  391MOL0     H52737   7.769   6.033   2.942  1.7661 -1.9033  1.8389
  391MOL0     H52738   7.780   6.212   2.953 -2.8317 -1.7438 -0.1797
  391MOL0     H52739   8.012   6.021   2.954 -2.0651 -1.2709 -1.4486
  391MOL0     H52740   7.959   6.102   2.801  0.5568 -1.5623 -0.1719
  391MOL0     H52741   8.068   6.247   3.049  0.4402  6.3645 -1.4947
  391MOL0     H52742   7.975   6.323   2.927 -2.6688 -0.6064  2.2536
  391MOL0     H52743   8.233   6.161   2.860  3.9144  2.1980  1.9661
  391MOL0     H52744   8.259   6.317   2.923  1.6955 -2.1460  1.7721
  391MOL0     H52745   8.159   6.401   2.504 -0.1380 -1.0613 -2.3136
  391MOL0     H52746   8.358   6.451   2.359 -1.3050  3.7140  1.2717
  391MOL0     H52747   8.792   6.374   2.179 -0.0218  1.0170 -0.8611
  391MOL0     H52748   9.005   6.431   2.082  1.4238  2.3887  0.5499
  391MOL0     H52749   9.340   6.652   2.305  0.7408  0.2522  0.5863
  391MOL0     H52750   9.331   6.482   2.352  2.6936  0.2289  0.4882
  391MOL0     H52751   9.454   6.406   2.163 -1.4120 -0.1682  0.4107
  391MOL0     H52752   9.441   6.561   2.082  0.9688 -0.8347  0.0966
  391MOL0     H52753   9.663   6.521   2.178  1.2029  0.5693  1.4700
  391MOL0     H52754   9.585   6.671   2.237 -0.2688 -0.2728 -2.4533
  391MOL0     H52755   9.547   6.565   2.457  1.7946 -1.3052  1.9993
  391MOL0     H52756   9.708   6.571   2.390  1.1040 -1.4203  0.2384
  391MOL0     H52757   9.639   6.319   2.328 -1.3854  0.4849 -0.9943
  391MOL0     H52758   9.505   6.334   2.437  0.1138  1.1000  0.9179
  391MOL0     H52759   9.637   6.385   2.619 -2.3492  2.0031 -1.6851
  391MOL0     H52760   9.688   6.236   2.552 -1.0462  0.3218 -1.4119
  391MOL0     H52761   9.848   6.490   2.546 -0.2540 -0.0848 -0.8207
  391MOL0     H52762   9.895   6.358   2.444 -0.0126 -0.5402 -0.1343
  391MOL0     H52763   9.904   6.207   2.644  0.1716 -0.0882  0.1224
  391MOL0     H52764  10.021   6.331   2.664  0.4304 -0.0531  0.4933
  391MOL0     H52765   9.156   6.536   2.474  0.2285 -1.2230  0.4308
  391MOL0     H52766   8.954   6.446   2.573  3.7948  1.5341  1.2039
  391MOL0     H52767   8.622   6.300   2.656 -1.3841 -2.4397  3.6311
  391MOL0     H52768   8.429   6.251   2.796 -0.8015 -1.3432 -0.8771
  391MOL0     H52769   7.804   6.056   4.342  0.1156 -0.2420  0.9262
  391MOL0     H52770   7.664   5.888   4.480 -0.2617  0.2222 -0.5339
  391MOL0     H52771   7.143   5.629   4.386 -0.2504 -0.6328  0.5805
  391MOL0     H52772   7.035   5.487   4.542  0.0091 -0.0307  1.9621
  391MOL0     H52773   6.987   5.302   4.641 -2.6307 -1.1704  1.8479
  391MOL0     H52774   6.977   5.405   4.780  0.8949  0.3363 -0.2601
  391MOL0     H52775   7.017   5.238   4.936  0.3302  3.4984 -1.2164
  391MOL0     H52776   7.051   5.122   4.814  2.1238  1.6501 -1.5295
  391MOL0     H52777   6.811   5.137   4.724 -0.5714 -1.5163  0.5411
  391MOL0     H52778   6.780   5.260   4.847 -0.1231 -0.6594  4.2015
  391MOL0     H52779   6.703   5.027   4.920  0.2905  0.7116 -1.0273
  391MOL0     H52780   6.854   4.964   4.901  0.3947  1.2001 -1.6915
  391MOL0     H52781   6.867   5.218   5.267  0.2570 -2.1092  0.3847
  391MOL0     H52782   7.412   5.339   4.687  1.6037  1.0714 -0.8122
  391MOL0     H52783   7.617   5.515   4.601 -0.1125 -0.3895  0.8653
  391MOL0     H52784   7.603   5.356   4.541 -0.7740 -0.0983 -1.3424
  391MOL0     H52785   7.624   5.486   4.426  0.9671 -0.3171  0.6800
  392MOL0     O52786  10.413   9.278  10.993 -0.1394  0.8995  0.2868
  392MOL0     C52787  10.493   9.351  10.942 -0.6822  1.1255  0.0623
  392MOL0     O52788  10.530   9.343  10.806  0.0389 -0.3875 -0.2708
  392MOL0     C52789  10.438   9.279  10.728 -0.2580 -0.0478  0.0657
  392MOL0     C52790  10.490   9.149  10.685  0.5252 -0.2258  0.0902
  392MOL0     C52791  10.406   9.086  10.593  0.5030  0.2106 -0.3965
  392MOL0     C52792  10.277   9.130  10.572  0.3165  0.4557 -0.0880
  392MOL0     O52793  10.186   9.058  10.496 -0.6025 -0.0678 -0.2343
  392MOL0     C52794  10.082   8.991  10.577 -0.6518  0.3468 -0.0710
  392MOL0     C52795   9.980   8.975  10.457  0.0875  0.5665 -0.2191
  392MOL0     C52796   9.854   8.891  10.494  0.2918  0.1284 -0.8799
  392MOL0     C52797   9.879   8.742  10.497 -0.3771 -0.3750  0.0670
  392MOL0     C52798   9.775   8.664  10.561 -0.2046 -0.8231  0.3703
  392MOL0     C52799   9.761   8.682  10.711 -0.2552 -0.5206 -0.1504
  392MOL0     C52800   9.661   8.582  10.771 -0.3941  0.1206  0.1358
  392MOL0     C52801   9.625   8.610  10.917  0.4762  0.4217  0.1046
  392MOL0     N52802   9.738   8.625  11.011 -0.8976  0.0840 -0.1712
  392MOL0     C52803   9.828   8.526  11.042  0.7694  0.5174  0.0869
  392MOL0     C52804   9.922   8.585  11.125 -1.0599  0.1018  0.5416
  392MOL0     C52805  10.029   8.495  11.197 -0.5631 -0.3088  0.4481
  392MOL0     C52806  10.179   8.536  11.158 -0.2590  0.0522  0.3634
  392MOL0     C52807  10.263   8.409  11.195 -0.0663 -0.0453  0.1967
  392MOL0     C52808  10.407   8.434  11.163 -0.4385 -0.8312  1.0905
  392MOL0     O52809  10.458   8.533  11.261  0.3483 -0.3585 -0.0021
  392MOL0     C52810  10.596   8.572  11.249  0.4525 -0.1650 -0.3409
  392MOL0     C52811  10.676   8.521  11.150  0.2367 -0.2322 -0.0850
  392MOL0     C52812  10.803   8.576  11.126  0.4106 -0.4352  0.1010
  392MOL0     C52813  10.852   8.686  11.205 -0.4956 -0.5727 -1.1012
  392MOL0     C52814  10.979   8.754  11.157 -0.8628 -0.1109 -0.1090
  392MOL0     O52815  11.041   8.699  11.049 -0.0452  0.2891 -0.4947
  392MOL0     C52816  11.157   8.759  11.006 -0.1194  0.2817 -0.1426
  392MOL0     C52817  11.271   8.764  11.078  0.1278 -0.5464  0.0461
  392MOL0     C52818  11.387   8.815  11.028 -0.5114  0.6668 -0.2387
  392MOL0     C52819  11.394   8.861  10.896 -0.8075 -0.0511 -0.5544
  392MOL0     O52820  11.517   8.900  10.847 -0.7966 -0.7766 -0.6107
  392MOL0     C52821  11.536   9.040  10.830  0.6831  0.0307 -0.7328
  392MOL0     C52822  11.508   9.112  10.962  0.5162  0.1526 -0.0059
  392MOL0     C52823  11.530   9.263  10.934  0.6342  0.0315  0.2341
  392MOL0     C52824  11.482   9.350  11.051 -0.1752  0.5177  0.2286
  392MOL0     C52825  11.512   9.505  11.041  0.0248 -0.0927  0.2694
  392MOL0     C52826  11.432   9.604  10.943  0.0402  0.6240  0.1957
  392MOL0     C52827  11.277   9.580  10.961 -0.0084 -0.0160 -0.5293
  392MOL0     C52828  11.186   9.690  10.904 -0.6636 -0.4106 -0.1699
  392MOL0    Cl52829  11.210   9.702  10.725  0.1269  0.4324 -0.2468
  392MOL0     C52830  11.276   8.866  10.813 -0.2471 -0.2260 -0.1199
  392MOL0     C52831  11.160   8.809  10.872  0.3876  0.3829  0.3052
  392MOL0     O52832  11.015   8.855  11.215 -0.0899 -0.5549 -0.4383
  392MOL0     C52833  10.772   8.733  11.313  0.3278 -0.7996  1.0859
  392MOL0     C52834  10.646   8.676  11.335 -0.4551  0.4408  0.6736
  392MOL0     N52835   9.905   8.723  11.118  0.0845  0.3852  0.0477
  392MOL0     N52836   9.799   8.739  11.046 -1.3508 -0.8033  0.9977
  392MOL0     C52837  10.235   9.255  10.605 -0.4026 -0.1830  0.1863
  392MOL0     C52838  10.320   9.339  10.682 -0.2075  0.4641 -0.5253
  392MOL0     C52839  10.540   9.469  11.013 -0.4793  0.1667 -1.5682
  392MOL0     C52840  10.555   9.583  10.945  0.3277  0.0929 -1.1010
  392MOL0     C52841  10.605   9.707  11.001 -0.2534  0.7736 -0.1961
  392MOL0     C52842  10.640   9.705  11.137 -0.3054 -0.5078  0.3363
  392MOL0     O52843  10.693   9.811  11.200 -0.1193  0.5710  0.0409
  392MOL0     C52844  10.806   9.880  11.142 -0.5274 -0.2968  0.0388
  392MOL0     C52845  10.935   9.795  11.154  0.1877 -0.7744  0.0742
  392MOL0     C52846  10.974   9.768  11.303  0.6012  0.2707  0.3746
  392MOL0     C52847  11.105   9.693  11.307 -0.3367  0.8097  0.5531
  392MOL0     C52848  11.218   9.777  11.269  0.2671 -0.2657 -0.3774
  392MOL0     C52849  11.312   9.839  11.223  0.4149 -0.4667 -0.9162
  392MOL0     C52850  10.624   9.590  11.210 -0.5895 -0.2949  0.0858
  392MOL0     C52851  10.575   9.468  11.151 -0.2078 -0.2436 -0.1180
  392MOL0     C52852  10.589   9.350  11.250  0.7210 -0.7021 -0.6256
  392MOL0     H52853  10.591   9.110  10.695 -0.2596 -1.7471  3.1756
  392MOL0     H52854  10.436   8.987  10.561 -0.1281 -1.3362  3.2919
  392MOL0     H52855  10.122   8.898  10.618  0.6867  1.4308  1.1618
  392MOL0     H52856  10.035   9.060  10.648 -0.9491  1.0077 -0.8832
  392MOL0     H52857  10.033   8.931  10.372  1.9339 -0.8856  1.5830
  392MOL0     H52858   9.961   9.080  10.430  1.8218  1.1485  0.6734
  392MOL0     H52859   9.767   8.922  10.436  0.5251  1.2702 -0.6316
  392MOL0     H52860   9.825   8.919  10.595 -0.2702 -2.8392 -0.1100
  392MOL0     H52861   9.886   8.714  10.391 -1.0595  3.0087 -1.0139
  392MOL0     H52862   9.973   8.720  10.547 -0.1998 -1.7218 -0.8084
  392MOL0     H52863   9.680   8.690  10.512  1.2172  1.6467 -1.3302
  392MOL0     H52864   9.786   8.556  10.550 -1.0463 -0.6934 -2.8977
  392MOL0     H52865   9.857   8.667  10.761  0.9715  1.4793 -1.7267
  392MOL0     H52866   9.727   8.783  10.732  0.3601  0.3744 -2.9707
  392MOL0     H52867   9.715   8.487  10.767 -1.4964 -0.4735 -1.0494
  392MOL0     H52868   9.571   8.586  10.710 -0.2882  1.2310  0.0389
  392MOL0     H52869   9.555   8.693  10.934  0.8756  0.6964  0.4057
  392MOL0     H52870   9.573   8.522  10.956  0.8255 -1.0117 -2.4519
  392MOL0     H52871   9.825   8.421  11.017  2.3130  0.4270  0.1378
  392MOL0     H52872  10.012   8.504  11.305  2.4972 -0.9944  1.0844
  392MOL0     H52873  10.009   8.390  11.175  0.1983 -0.8628  2.2257
  392MOL0     H52874  10.176   8.552  11.050 -0.2933  1.7776  0.5914
  392MOL0     H52875  10.217   8.625  11.208  1.0101 -1.3213  1.9901
  392MOL0     H52876  10.226   8.322  11.140  1.6814 -1.2993  0.9084
  392MOL0     H52877  10.262   8.385  11.301 -0.1052  1.3800  0.5410
  392MOL0     H52878  10.418   8.456  11.056 -1.3663 -2.0212  0.7286
  392MOL0     H52879  10.459   8.340  11.179  1.2225 -0.4299 -1.3966
  392MOL0     H52880  10.640   8.442  11.085  0.3130 -0.1445 -0.2339
  392MOL0     H52881  10.853   8.537  11.038 -0.6862 -1.0760 -0.2615
  392MOL0     H52882  11.277   8.720  11.177 -4.0126 -0.3768  0.5443
  392MOL0     H52883  11.474   8.806  11.092 -0.6159  1.5287  0.0497
  392MOL0     H52884  11.634   9.068  10.788 -0.0755  1.9858 -1.3026
  392MOL0     H52885  11.459   9.074  10.761 -0.1885 -0.6651 -0.1228
  392MOL0     H52886  11.406   9.090  10.995  0.0416 -1.2877 -2.2205
  392MOL0     H52887  11.575   9.079  11.042 -0.9703 -2.4462  0.2874
  392MOL0     H52888  11.636   9.288  10.921  0.7613 -0.5546  0.1011
  392MOL0     H52889  11.470   9.292  10.847  3.4832  1.0943 -1.5314
  392MOL0     H52890  11.541   9.303  11.130 -2.8443 -1.5076  1.1527
  392MOL0     H52891  11.375   9.333  11.064 -0.0974  0.4606  0.7933
  392MOL0     H52892  11.618   9.529  11.027 -0.8162  3.1820 -1.5651
  392MOL0     H52893  11.473   9.545  11.135 -1.7174 -2.9360  0.8725
  392MOL0     H52894  11.457   9.708  10.964  1.6721  0.2164  0.4248
  392MOL0     H52895  11.470   9.575  10.845 -0.1867 -1.1882  0.6065
  392MOL0     H52896  11.254   9.570  11.067 -4.1757  3.8175 -0.7319
  392MOL0     H52897  11.242   9.486  10.917 -0.5160  0.1208 -0.4264
  392MOL0     H52898  11.085   9.667  10.937 -0.6071  1.7764  1.8145
  392MOL0     H52899  11.210   9.786  10.952 -4.0631  1.7238 -2.3436
  392MOL0     H52900  11.284   8.907  10.713  2.1883  0.3474  0.2438
  392MOL0     H52901  11.072   8.800  10.810 -1.9904 -3.3786  3.7538
  392MOL0     H52902  10.815   8.813  11.373  1.3615 -0.0847 -0.5629
  392MOL0     H52903  10.573   8.723  11.400 -1.7610 -1.2459  0.5021
  392MOL0     H52904  10.134   9.288  10.580  0.3841  1.3628 -1.1612
  392MOL0     H52905  10.297   9.444  10.693 -1.1246  0.2375 -0.2110
  392MOL0     H52906  10.548   9.585  10.837 -0.4563 -1.1938 -1.0969
  392MOL0     H52907  10.634   9.795  10.945  2.3830  2.2974  3.1863
  392MOL0     H52908  10.817   9.972  11.199 -0.8070  0.4888 -1.1302
  392MOL0     H52909  10.779   9.901  11.038  1.8896  1.6997 -0.2881
  392MOL0     H52910  11.012   9.861  11.113 -0.8632  1.9224  2.1601
  392MOL0     H52911  10.908   9.709  11.092 -1.1681  0.7838 -1.6291
  392MOL0     H52912  10.890   9.720  11.354 -0.2850  1.3339 -0.0470
  392MOL0     H52913  10.979   9.860  11.363  0.1072  1.4412 -1.3157
  392MOL0     H52914  11.132   9.665  11.409  3.9288  2.2738  0.0189
  392MOL0     H52915  11.112   9.605  11.242  1.3060  1.9547 -0.9284
  392MOL0     H52916  11.399   9.891  11.189  0.0344 -0.4924 -1.9869
  392MOL0     H52917  10.653   9.594  11.315 -1.1633 -2.6515  0.4161
  392MOL0     H52918  10.488   9.328  11.285  1.3970  1.0082  2.7926
  392MOL0     H52919  10.624   9.260  11.199  0.7663 -2.2803  2.0053
  392MOL0     H52920  10.660   9.372  11.330  1.9038 -3.2610 -0.8615
  393MOL0     O52921   1.334  10.967   3.703  0.2751 -0.2728  0.2841
  393MOL0     C52922   1.249  10.891   3.747  0.4072 -1.2325 -0.4281
  393MOL0     O52923   1.279  10.779   3.812  0.7742 -0.0841  0.8845
  393MOL0     C52924   1.398  10.720   3.794 -0.4985 -0.3196 -0.6789
  393MOL0     C52925   1.520  10.779   3.848 -0.4509  0.8957  0.5506
  393MOL0     C52926   1.646  10.713   3.840 -0.3365  1.6297 -0.1860
  393MOL0     C52927   1.652  10.583   3.769 -0.0190 -0.0311 -0.5610
  393MOL0     O52928   1.764  10.500   3.762 -0.0350 -0.8601  0.0693
  393MOL0     C52929   1.874  10.565   3.697  0.2795  0.3012 -0.4513
  393MOL0     C52930   2.011  10.509   3.744 -0.5855 -0.9584 -0.1419
  393MOL0     C52931   2.024  10.370   3.685 -0.4827  0.2300  0.3506
  393MOL0     C52932   2.156  10.290   3.726 -0.3894  0.1445  0.5611
  393MOL0     C52933   2.152  10.139   3.675  0.4935 -0.2004  0.2407
  393MOL0     C52934   2.277  10.063   3.712 -0.0350 -0.1705 -0.5163
  393MOL0     C52935   2.262   9.933   3.642  0.4041 -0.0333 -0.1693
  393MOL0     C52936   2.356   9.821   3.701 -0.0938  0.4497  0.4939
  393MOL0     N52937   2.499   9.839   3.666  0.2426  0.7831 -0.5842
  393MOL0     C52938   2.592   9.921   3.721 -0.3756  0.4696 -0.1178
  393MOL0     C52939   2.708   9.887   3.658  0.0596  0.0360  1.1305
  393MOL0     C52940   2.854   9.935   3.684  0.7026  0.0820 -0.3730
  393MOL0     C52941   2.856  10.084   3.725  0.5989 -0.1302  0.2206
  393MOL0     C52942   2.993  10.121   3.788  0.1100  0.0111  0.0085
  393MOL0     C52943   3.115  10.074   3.719  0.2749 -0.1753 -0.1396
  393MOL0     O52944   3.229  10.078   3.810  0.3853  0.1088 -0.0201
  393MOL0     C52945   3.346  10.030   3.754  1.3092  0.6470  0.1459
  393MOL0     C52946   3.469  10.047   3.823  0.3149  0.4143 -0.4891
  393MOL0     C52947   3.590  10.008   3.763  0.4825 -0.9302  1.1212
  393MOL0     C52948   3.594   9.945   3.636 -0.0553 -0.9607 -0.0984
  393MOL0     C52949   3.722   9.908   3.583 -0.3040  0.0524 -1.0445
  393MOL0     O52950   3.827   9.906   3.669 -0.6337 -0.0666  0.0232
  393MOL0     C52951   3.957   9.900   3.621 -0.6501  1.0692  0.6464
  393MOL0     C52952   4.062   9.865   3.718  0.5940  0.8076 -0.4084
  393MOL0     C52953   4.191   9.855   3.682  0.0635  0.7895  0.6067
  393MOL0     C52954   4.231   9.878   3.551  0.1701 -0.8603  0.3604
  393MOL0     O52955   4.368   9.853   3.523  0.0807  0.2862  0.4200
  393MOL0     C52956   4.408   9.864   3.389 -0.4458 -0.2973  0.5396
  393MOL0     C52957   4.554   9.888   3.407  0.1791 -0.2142  0.2965
  393MOL0     C52958   4.625   9.889   3.272  0.8572  0.3663 -1.0270
  393MOL0     C52959   4.771   9.940   3.295  0.1880 -0.0249  1.1163
  393MOL0     C52960   4.855   9.935   3.159 -0.2990 -0.0321  0.2897
  393MOL0     C52961   5.005   9.938   3.188 -0.2880  0.8600 -0.1710
  393MOL0     C52962   5.092   9.917   3.066  0.0162 -0.2758 -0.6337
  393MOL0     C52963   5.101  10.024   2.959  0.1507  0.3210  0.3805
  393MOL0    Cl52964   5.244   9.990   2.870 -0.1032 -0.1424 -0.0210
  393MOL0     C52965   4.138   9.930   3.461  0.4665  0.9988  0.2514
  393MOL0     C52966   4.004   9.939   3.496  1.1316  0.5186 -0.8651
  393MOL0     O52967   3.722   9.868   3.469 -0.4705 -0.1467 -1.0387
  393MOL0     C52968   3.474   9.913   3.577  0.0622 -0.5236 -0.7801
  393MOL0     C52969   3.354   9.949   3.638  0.5088  0.4687 -0.2898
  393MOL0     N52970   2.681   9.799   3.554 -0.1777  0.7858  0.0827
  393MOL0     N52971   2.555   9.776   3.563  0.0141  0.0869  0.2803
  393MOL0     C52972   1.534  10.531   3.714 -0.3259 -0.2593 -0.8544
  393MOL0     C52973   1.412  10.602   3.716 -0.2388 -0.2677 -0.9806
  393MOL0     C52974   1.109  10.937   3.728  0.0737 -0.4156 -0.5694
  393MOL0     C52975   1.087  11.048   3.645 -0.6316 -0.8320 -0.8296
  393MOL0     C52976   0.955  11.098   3.626 -0.6633 -0.0951  0.3914
  393MOL0     C52977   0.850  11.028   3.675  0.7081  0.3979  0.2245
  393MOL0     O52978   0.725  11.067   3.642  0.0781 -0.1719  0.0404
  393MOL0     C52979   0.614  10.990   3.673 -0.0119 -0.4203 -0.0767
  393MOL0     C52980   0.508  11.077   3.608  0.1743  0.4108  0.0739
  393MOL0     C52981   0.369  11.018   3.621  0.4452 -0.4417 -0.1028
  393MOL0     C52982   0.277  11.112   3.549  0.3005 -0.0700  0.3576
  393MOL0     C52983   0.139  11.055   3.548 -0.2606  0.3114 -0.5267
  393MOL0     C52984   0.028  11.000   3.549  0.2668  0.6282  1.5149
  393MOL0     C52985   0.871  10.920   3.756 -0.2083  0.0444  0.7834
  393MOL0     C52986   1.002  10.868   3.782  0.2348 -0.0046 -0.5331
  393MOL0     C52987   1.012  10.747   3.876  0.0665  0.0813 -0.7525
  393MOL0     H52988   1.523  10.863   3.917  0.0181  2.3069 -1.1168
  393MOL0     H52989   1.733  10.758   3.886 -0.5849  1.7445  0.1778
  393MOL0     H52990   1.873  10.550   3.589  1.2667  1.5378 -0.6603
  393MOL0     H52991   1.865  10.674   3.708  1.3111  0.3875 -0.4147
  393MOL0     H52992   2.016  10.513   3.853 -0.2934  2.2809 -0.1910
  393MOL0     H52993   2.100  10.565   3.712  1.1789 -2.7605  1.3172
  393MOL0     H52994   2.018  10.376   3.576  0.6732  0.6156  0.2932
  393MOL0     H52995   1.932  10.316   3.710 -1.9012  2.4297  0.1991
  393MOL0     H52996   2.244  10.346   3.691  0.7007 -0.5013  2.1715
  393MOL0     H52997   2.155  10.285   3.835 -1.3130 -1.0188  0.5116
  393MOL0     H52998   2.067  10.089   3.722  0.4409 -0.1207  0.2303
  393MOL0     H52999   2.149  10.141   3.566 -2.4505  0.9001  0.2668
  393MOL0     H53000   2.369  10.111   3.676  0.1192 -0.7498 -0.9060
  393MOL0     H53001   2.282  10.049   3.820 -1.5547 -0.7173 -0.4954
  393MOL0     H53002   2.295   9.947   3.538  1.0664 -1.4917 -0.1710
  393MOL0     H53003   2.158   9.901   3.653  0.3611  1.0688  4.9863
  393MOL0     H53004   2.340   9.812   3.809 -3.9165  0.4071  0.0711
  393MOL0     H53005   2.314   9.725   3.670  1.0390  0.0826  0.0210
  393MOL0     H53006   2.598   9.981   3.811  3.2359  0.8581 -0.4743
  393MOL0     H53007   2.899   9.874   3.762  1.3462 -0.6612 -1.2985
  393MOL0     H53008   2.911   9.926   3.591  0.4790  6.0471 -1.5154
  393MOL0     H53009   2.822  10.144   3.640  3.6115 -3.0787 -3.4682
  393MOL0     H53010   2.774  10.106   3.794 -1.6370  0.2862 -2.3654
  393MOL0     H53011   2.993  10.070   3.885 -3.5684  0.4494  0.3999
  393MOL0     H53012   3.011  10.229   3.791  0.5742 -0.0246 -1.0767
  393MOL0     H53013   3.117  10.136   3.628  1.2880  1.2317  0.7984
  393MOL0     H53014   3.103   9.970   3.689  1.3227  0.0527 -1.4336
  393MOL0     H53015   3.477  10.093   3.921  1.6452 -0.7950  0.0110
  393MOL0     H53016   3.686  10.034   3.807  1.9686  0.0805 -2.3737
  393MOL0     H53017   4.032   9.830   3.816 -0.9348 -0.6812 -1.3399
  393MOL0     H53018   4.266   9.816   3.750 -0.2774  0.6902  0.9276
  393MOL0     H53019   4.395   9.771   3.333 -0.1892  0.5171 -0.9231
  393MOL0     H53020   4.357   9.946   3.337 -2.5474  0.0666  2.9960
  393MOL0     H53021   4.550   9.980   3.465  2.2608 -0.6282  1.1827
  393MOL0     H53022   4.592   9.809   3.472  0.1225 -0.3459  0.1718
  393MOL0     H53023   4.618   9.793   3.221  0.7784 -0.7226  0.9384
  393MOL0     H53024   4.580   9.957   3.198  2.5398  1.4454 -1.1043
  393MOL0     H53025   4.818   9.873   3.367  0.9734 -2.6104 -1.5828
  393MOL0     H53026   4.768  10.045   3.325  2.3868 -0.1039  1.7419
  393MOL0     H53027   4.821  10.012   3.089 -2.0375 -0.2995  0.7834
  393MOL0     H53028   4.837   9.843   3.103 -0.7312 -0.1866  0.6736
  393MOL0     H53029   5.035  10.024   3.248 -0.5209  1.5573 -1.0400
  393MOL0     H53030   5.021   9.863   3.266 -4.0894  1.4944  1.4318
  393MOL0     H53031   5.070   9.820   3.020 -0.8896  0.2961 -1.4354
  393MOL0     H53032   5.193   9.924   3.108 -0.0414 -2.1934 -0.0789
  393MOL0     H53033   5.006  10.026   2.904  0.2782  0.3759  0.1607
  393MOL0     H53034   5.092  10.126   2.998 -3.9745  0.6566 -0.9279
  393MOL0     H53035   4.168   9.964   3.362  0.7987 -0.6603 -0.2507
  393MOL0     H53036   3.934   9.984   3.427 -0.5460  2.2269  1.7592
  393MOL0     H53037   3.462   9.856   3.485 -2.1116 -2.2293  0.4656
  393MOL0     H53038   3.271   9.908   3.583  1.6190  1.3663 -2.7881
  393MOL0     H53039   1.528  10.436   3.662 -2.5037 -0.5822 -0.1198
  393MOL0     H53040   1.332  10.552   3.663 -3.4081  3.2092  0.0997
  393MOL0     H53041   1.165  11.103   3.594 -0.2055 -1.3370 -0.7274
  393MOL0     H53042   0.929  11.188   3.571 -2.5234  0.7414  2.5142
  393MOL0     H53043   0.591  10.972   3.778  0.9246  2.2757  0.6724
  393MOL0     H53044   0.629  10.893   3.625  2.0399 -0.1578 -0.0858
  393MOL0     H53045   0.541  11.094   3.505  0.8695  0.4389  0.2971
  393MOL0     H53046   0.510  11.171   3.665  2.5965  0.7106 -0.4133
  393MOL0     H53047   0.340  11.013   3.726 -0.7796 -1.1668 -0.4579
  393MOL0     H53048   0.370  10.918   3.577  2.1733  0.2326 -1.7312
  393MOL0     H53049   0.276  11.208   3.602  0.6678  0.4673 -0.6043
  393MOL0     H53050   0.310  11.118   3.445  2.2179 -5.5393  0.3277
  393MOL0     H53051  -0.067  10.952   3.565  1.7166 -2.2523  2.0484
  393MOL0     H53052   0.795  10.861   3.806 -0.1977  0.4974  1.3463
  393MOL0     H53053   1.080  10.758   3.962 -1.2183  1.8051  0.1157
  393MOL0     H53054   0.920  10.721   3.929 -1.1013  1.5768 -1.9759
  393MOL0     H53055   1.042  10.655   3.827 -1.7035 -0.2651 -1.2345
  394MOL0     O53056   7.798   0.578   7.002 -0.3494 -0.9677 -0.7369
  394MOL0     C53057   7.686   0.612   7.038 -0.0975  0.7641  0.4671
  394MOL0     O53058   7.638   0.631   7.168  0.1903 -0.2168  0.1248
  394MOL0     C53059   7.723   0.601   7.271  0.6682 -0.2672 -0.2748
  394MOL0     C53060   7.667   0.534   7.379  0.1919  0.5261 -0.3546
  394MOL0     C53061   7.744   0.479   7.483 -0.2233  0.1031 -0.7743
  394MOL0     C53062   7.879   0.498   7.487  0.9435  0.2842 -0.4662
  394MOL0     O53063   7.956   0.434   7.578 -0.5523 -0.3554  0.4748
  394MOL0     C53064   7.911   0.311   7.643  0.7787  0.2739 -0.1154
  394MOL0     C53065   8.015   0.236   7.713  0.1869  0.2409  0.4296
  394MOL0     C53066   7.961   0.120   7.801 -0.8819 -0.1312 -0.4691
  394MOL0     C53067   7.933   0.010   7.697  0.7211  0.5689 -0.5920
  394MOL0     C53068   7.846  -0.095   7.770 -0.1602 -0.9595  0.0683
  394MOL0     C53069   7.700  -0.045   7.780  0.5359 -0.6593 -0.9066
  394MOL0     C53070   7.648  -0.114   7.914  0.1218  0.9421  0.1462
  394MOL0     C53071   7.713  -0.052   8.036 -0.7488  0.2215 -0.6882
  394MOL0     N53072   7.615   0.049   8.094 -0.4206 -0.6664 -0.0061
  394MOL0     C53073   7.559   0.159   8.031 -0.3538  0.0551 -0.1799
  394MOL0     C53074   7.467   0.209   8.113  0.2696  0.1031  0.3514
  394MOL0     C53075   7.366   0.317   8.097 -0.5216 -0.3597  0.2765
  394MOL0     C53076   7.259   0.281   7.998  0.7836 -1.1280  0.3798
  394MOL0     C53077   7.197   0.418   7.972 -0.2061  0.8025 -0.2603
  394MOL0     C53078   7.073   0.396   7.899  0.1405  0.2278  1.0325
  394MOL0     O53079   7.000   0.521   7.893 -0.3000 -0.3882 -0.5044
  394MOL0     C53080   6.882   0.529   7.822 -0.0707 -0.2523  0.4776
  394MOL0     C53081   6.813   0.421   7.756  0.3207 -0.7307 -0.0911
  394MOL0     C53082   6.692   0.448   7.698  0.7137  0.1721  0.3238
  394MOL0     C53083   6.633   0.573   7.709 -0.5178 -0.5162  0.2875
  394MOL0     C53084   6.497   0.592   7.659  0.2368 -0.6746 -0.3584
  394MOL0     O53085   6.420   0.485   7.611  0.1669 -0.3650 -0.7005
  394MOL0     C53086   6.287   0.498   7.591 -0.1676  0.1097  0.8766
  394MOL0     C53087   6.196   0.476   7.693  0.2066 -0.2652  0.6356
  394MOL0     C53088   6.060   0.474   7.670 -1.2085 -0.3331 -0.2994
  394MOL0     C53089   5.998   0.496   7.543  0.4521 -0.0692  0.7357
  394MOL0     O53090   5.863   0.503   7.515 -0.1929 -0.1663 -0.2572
  394MOL0     C53091   5.771   0.523   7.622 -0.4184  0.3199 -0.2649
  394MOL0     C53092   5.730   0.678   7.639 -0.3873  1.1733 -0.1050
  394MOL0     C53093   5.614   0.718   7.725  0.4842 -0.2925 -0.7762
  394MOL0     C53094   5.646   0.686   7.871 -0.1161  0.9179  0.4303
  394MOL0     C53095   5.534   0.757   7.962  0.2234  0.4158 -0.4407
  394MOL0     C53096   5.546   0.902   7.989  0.4121 -0.5115 -0.0567
  394MOL0     C53097   5.423   0.963   8.048  0.4372  0.0766  0.2938
  394MOL0     C53098   5.406   0.957   8.197 -0.0807  0.0501  0.0206
  394MOL0    Cl53099   5.251   1.021   8.263  0.1663 -0.1979  0.0727
  394MOL0     C53100   6.084   0.510   7.436 -1.2712 -0.0633 -0.6534
  394MOL0     C53101   6.228   0.507   7.462 -0.1723 -0.1614 -0.0919
  394MOL0     O53102   6.458   0.713   7.650 -0.5228 -0.0695 -0.6827
  394MOL0     C53103   6.701   0.682   7.771  0.4785  1.2084 -0.8745
  394MOL0     C53104   6.827   0.660   7.822 -0.5476 -0.7884  0.2397
  394MOL0     N53105   7.475   0.140   8.238  0.1460 -0.4137  0.0836
  394MOL0     N53106   7.554   0.041   8.214 -0.5252 -0.3251  0.2208
  394MOL0     C53107   7.947   0.560   7.377  0.6262 -0.6750  0.8719
  394MOL0     C53108   7.864   0.618   7.272  0.2459 -0.1503 -0.7396
  394MOL0     C53109   7.583   0.649   6.930 -1.0274  0.0479  0.0326
  394MOL0     C53110   7.452   0.652   6.975 -0.3639 -0.4344 -0.1787
  394MOL0     C53111   7.353   0.706   6.894  0.4760 -0.8873  0.4192
  394MOL0     C53112   7.375   0.742   6.757 -0.3059  0.5786  0.0534
  394MOL0     O53113   7.264   0.774   6.671 -0.6140  0.3928 -0.6966
  394MOL0     C53114   7.153   0.850   6.725  0.1904 -0.0663 -0.3740
  394MOL0     C53115   7.195   0.998   6.772 -0.0335  0.7882  0.4718
  394MOL0     C53116   7.082   1.086   6.830  1.2426 -0.6441  0.5065
  394MOL0     C53117   7.033   1.030   6.962 -0.4774  0.6957 -0.6667
  394MOL0     C53118   6.906   1.104   7.000 -0.3295 -0.4131  0.6246
  394MOL0     C53119   6.812   1.178   7.023  0.1848 -0.3965 -0.3835
  394MOL0     C53120   7.509   0.718   6.710 -0.9274 -0.0232  0.1590
  394MOL0     C53121   7.616   0.681   6.792 -0.1827  0.4242 -0.0688
  394MOL0     C53122   7.751   0.685   6.721  0.1571  0.4362 -0.1353
  394MOL0     H53123   7.562   0.510   7.372  0.8348 -2.3010 -2.3184
  394MOL0     H53124   7.709   0.431   7.574  2.5025 -0.4345  0.0771
  394MOL0     H53125   7.834   0.338   7.715  0.0557  0.2179 -0.8580
  394MOL0     H53126   7.865   0.249   7.565  0.0975 -0.2445  0.6937
  394MOL0     H53127   8.062   0.317   7.769  0.4529  2.2724 -2.5172
  394MOL0     H53128   8.092   0.197   7.646 -1.4207 -3.4406  0.4924
  394MOL0     H53129   7.873   0.140   7.864 -0.4423 -0.2537  0.1952
  394MOL0     H53130   8.034   0.081   7.873  0.1467 -4.1323 -3.3438
  394MOL0     H53131   7.867   0.044   7.616 -0.3573  0.5770  0.2529
  394MOL0     H53132   8.022  -0.029   7.647  0.3869 -1.3157  0.1815
  394MOL0     H53133   7.836  -0.182   7.704 -2.0412 -0.2026 -0.6933
  394MOL0     H53134   7.903  -0.125   7.859  0.3368 -0.8063 -0.1926
  394MOL0     H53135   7.686   0.063   7.780  1.3645 -0.4979  1.1906
  394MOL0     H53136   7.646  -0.078   7.691  0.6486 -0.2651 -1.1204
  394MOL0     H53137   7.668  -0.221   7.922  0.6569  1.1582  3.5538
  394MOL0     H53138   7.538  -0.109   7.914  0.0391 -0.4706 -1.0603
  394MOL0     H53139   7.725  -0.133   8.108 -1.2633 -0.9812 -1.9024
  394MOL0     H53140   7.809  -0.012   8.004 -1.2643  2.6525  0.6071
  394MOL0     H53141   7.583   0.190   7.929 -1.1398  1.9411  0.1651
  394MOL0     H53142   7.315   0.338   8.191 -0.8798  1.9019 -0.3638
  394MOL0     H53143   7.422   0.409   8.075  1.4831 -1.5728 -0.0041
  394MOL0     H53144   7.310   0.249   7.907  1.5371  0.8793  0.0334
  394MOL0     H53145   7.191   0.201   8.028 -1.8322  0.5890 -0.5618
  394MOL0     H53146   7.259   0.484   7.910 -1.1384  3.0470  1.0499
  394MOL0     H53147   7.171   0.469   8.065  1.5216 -0.0767  0.7443
  394MOL0     H53148   7.003   0.331   7.953  1.6457 -1.3975  1.1027
  394MOL0     H53149   7.090   0.359   7.798  1.3639  4.1324 -0.3893
  394MOL0     H53150   6.866   0.327   7.759  2.3229  0.3309 -0.1772
  394MOL0     H53151   6.640   0.367   7.647  0.1671  0.1141  0.9558
  394MOL0     H53152   6.224   0.469   7.797  0.3581  1.8298  0.7786
  394MOL0     H53153   6.014   0.452   7.766  1.1905  3.1232  1.8622
  394MOL0     H53154   5.680   0.465   7.604 -0.0117  0.2191 -2.1550
  394MOL0     H53155   5.807   0.499   7.723  1.1108  2.2363 -0.2931
  394MOL0     H53156   5.823   0.729   7.666  1.8254 -1.7009 -1.8027
  394MOL0     H53157   5.697   0.706   7.539 -0.3721 -0.0433 -0.4688
  394MOL0     H53158   5.596   0.824   7.705 -1.2243 -0.7650 -2.0110
  394MOL0     H53159   5.529   0.664   7.682  1.0785  1.1607 -4.1665
  394MOL0     H53160   5.745   0.723   7.901  1.7502 -1.8474 -1.8762
  394MOL0     H53161   5.646   0.577   7.875  0.5993  0.6630 -3.2708
  394MOL0     H53162   5.521   0.713   8.062  0.0480  0.7687 -0.3087
  394MOL0     H53163   5.433   0.738   7.925 -0.9499  1.1340  2.1510
  394MOL0     H53164   5.628   0.914   8.060  1.1740  1.5905 -1.1942
  394MOL0     H53165   5.564   0.952   7.894  2.7008 -1.5737 -0.2431
  394MOL0     H53166   5.340   0.915   7.998  0.6630 -1.1286  1.0270
  394MOL0     H53167   5.411   1.069   8.021 -2.2143  0.0034  0.9422
  394MOL0     H53168   5.420   0.852   8.224 -1.1465 -0.2593 -0.5629
  394MOL0     H53169   5.483   1.015   8.248 -2.3373  1.1469  2.3757
  394MOL0     H53170   6.046   0.536   7.338  2.0728  2.3609 -1.4735
  394MOL0     H53171   6.292   0.510   7.374  0.1994 -2.7384  0.0128
  394MOL0     H53172   6.655   0.778   7.790  1.2386  1.1262  1.8321
  394MOL0     H53173   6.892   0.738   7.861 -3.0835  1.8315 -0.4955
  394MOL0     H53174   8.055   0.549   7.373  0.5752 -1.1303  0.7556
  394MOL0     H53175   7.909   0.673   7.190 -3.7374  2.2900 -1.5504
  394MOL0     H53176   7.423   0.620   7.075  0.6032 -1.5377 -0.2306
  394MOL0     H53177   7.250   0.720   6.925 -0.2871 -0.3171 -2.1292
  394MOL0     H53178   7.102   0.806   6.811 -1.1689  2.4219  0.1785
  394MOL0     H53179   7.080   0.868   6.645 -2.1852 -4.7151  0.4073
  394MOL0     H53180   7.229   1.048   6.681 -1.0238  1.1416  0.2917
  394MOL0     H53181   7.278   0.992   6.843 -1.0180  0.9551  1.6703
  394MOL0     H53182   6.997   1.073   6.762 -1.3818  0.0747  3.4156
  394MOL0     H53183   7.105   1.193   6.830 -1.4190  0.0897 -2.5946
  394MOL0     H53184   6.994   0.929   6.944  1.8327 -1.0314  2.7426
  394MOL0     H53185   7.115   1.034   7.034 -0.0120  1.8220 -1.2501
  394MOL0     H53186   6.732   1.245   7.047 -0.2545 -1.1499  0.2916
  394MOL0     H53187   7.530   0.748   6.608  1.7198 -2.3247 -0.0531
  394MOL0     H53188   7.807   0.591   6.735 -0.3496  0.2253  0.5338
  394MOL0     H53189   7.739   0.703   6.614 -0.3280  0.2024 -0.1250
  394MOL0     H53190   7.810   0.771   6.752  0.1545  0.2721  0.3331
  395MOL0     O53191   8.584   1.613   2.896 -0.3902  0.1640 -0.4650
  395MOL0     C53192   8.520   1.701   2.845  0.7218 -0.3078  0.0388
  395MOL0     O53193   8.543   1.751   2.714  0.3241  0.0582  0.4631
  395MOL0     C53194   8.655   1.718   2.643  0.9520 -0.2472 -0.5507
  395MOL0     C53195   8.762   1.806   2.651 -0.3602 -0.9339  0.0443
  395MOL0     C53196   8.875   1.783   2.565 -0.5073  0.0115 -0.2726
  395MOL0     C53197   8.874   1.692   2.458  0.3456 -0.0271 -0.0908
  395MOL0     O53198   8.979   1.689   2.369 -0.0945 -0.3448  0.7136
  395MOL0     C53199   8.985   1.591   2.267 -0.7231 -0.2072 -0.2893
  395MOL0     C53200   9.122   1.589   2.198 -1.2500 -0.6725 -0.1307
  395MOL0     C53201   9.231   1.569   2.308 -0.1531  0.7839  0.1870
  395MOL0     C53202   9.355   1.644   2.281 -0.0094  0.2294 -0.2829
  395MOL0     C53203   9.461   1.634   2.399 -0.6507 -0.7744  0.2625
  395MOL0     C53204   9.601   1.692   2.351 -0.7391  1.4503  0.4984
  395MOL0     C53205   9.672   1.626   2.222  0.3482  0.1151 -0.2741
  395MOL0     C53206   9.808   1.681   2.190  0.4153  0.1428 -0.3781
  395MOL0     N53207   9.864   1.635   2.063 -0.8685  0.3001  0.2541
  395MOL0     C53208   9.840   1.517   1.996  0.0826  0.3772  0.0271
  395MOL0     C53209   9.944   1.501   1.907  0.3473 -0.7586 -0.3286
  395MOL0     C53210   9.977   1.387   1.824  0.1087  0.8501 -0.5245
  395MOL0     C53211   9.861   1.340   1.729 -0.6508 -0.0101 -0.0222
  395MOL0     C53212   9.903   1.237   1.641 -1.0172  0.6307 -0.1155
  395MOL0     C53213   9.932   1.292   1.498  1.3050 -0.4419 -0.3044
  395MOL0     O53214   9.981   1.180   1.428  0.1475  0.3711 -0.0643
  395MOL0     C53215   9.985   1.188   1.292  0.3719 -0.5847  0.3115
  395MOL0     C53216   9.986   1.315   1.227 -0.0125 -0.2257  0.6743
  395MOL0     C53217   9.966   1.321   1.087  0.0260 -0.0691 -0.7295
  395MOL0     C53218   9.944   1.207   1.011  0.1287 -0.1059  0.8075
  395MOL0     C53219   9.907   1.209   0.865  1.2192  0.7864  0.5955
  395MOL0     O53220   9.857   1.323   0.821  0.0375 -0.1999 -0.7821
  395MOL0     C53221   9.818   1.347   0.694 -0.1193 -0.2220  0.0283
  395MOL0     C53222   9.871   1.453   0.625 -0.2907  0.1068  0.0427
  395MOL0     C53223   9.820   1.495   0.501 -0.1884  0.1814  0.2796
  395MOL0     C53224   9.704   1.438   0.442  0.3311 -0.3262  0.3298
  395MOL0     O53225   9.643   1.489   0.331  0.8918  1.4024 -0.9992
  395MOL0     C53226   9.504   1.509   0.338  0.6970 -0.4136  0.7340
  395MOL0     C53227   9.447   1.613   0.241  0.2798  0.0229 -0.4541
  395MOL0     C53228   9.288   1.581   0.234 -0.0334  1.0100 -0.0961
  395MOL0     C53229   9.227   1.673   0.144  0.0319  0.3840  0.6949
  395MOL0     C53230   9.074   1.655   0.133  0.1181  0.4000  0.0960
  395MOL0     C53231   8.998   1.732   0.237  0.2153  0.3172  0.1619
  395MOL0     C53232   8.847   1.717   0.208  0.4311  0.2793  1.0936
  395MOL0     C53233   8.758   1.756   0.330 -0.1283 -1.0450  0.6940
  395MOL0    Cl53234   8.663   1.617   0.365 -0.2777  0.4006  0.1132
  395MOL0     C53235   9.666   1.323   0.505  0.0616 -0.9985 -0.2641
  395MOL0     C53236   9.715   1.281   0.629 -1.7172  0.5983  0.3840
  395MOL0     O53237   9.900   1.100   0.801  0.2969 -0.3866  0.5338
  395MOL0     C53238   9.967   1.080   1.074  0.1643 -0.3760  0.2858
  395MOL0     C53239   9.985   1.072   1.207  0.4448  0.2504  0.1295
  395MOL0     N53240  10.025   1.609   1.930  0.0268 -1.2583  0.1558
  395MOL0     N53241   9.969   1.696   2.012  0.3920 -0.7725  0.1742
  395MOL0     C53242   8.758   1.604   2.460  0.0406  0.3732 -0.0465
  395MOL0     C53243   8.651   1.623   2.546 -0.0303  0.8009  0.4663
  395MOL0     C53244   8.387   1.753   2.894 -0.3961 -0.4456 -0.4497
  395MOL0     C53245   8.295   1.827   2.811 -0.2108  0.4215  0.2773
  395MOL0     C53246   8.173   1.871   2.853 -0.2429 -0.4520  0.3279
  395MOL0     C53247   8.132   1.838   2.976  0.0320 -0.7863  0.0648
  395MOL0     O53248   8.005   1.879   3.011 -0.3212 -0.0611 -0.6870
  395MOL0     C53249   7.951   1.861   3.147 -0.1449 -0.0232 -0.3372
  395MOL0     C53250   7.840   1.958   3.189  0.3247 -0.0362 -0.1443
  395MOL0     C53251   7.719   1.935   3.099  0.2945  0.4099  0.5390
  395MOL0     C53252   7.587   1.986   3.166  0.1290  0.8429 -0.5842
  395MOL0     C53253   7.471   1.922   3.104 -1.3915 -0.5237  0.4218
  395MOL0     C53254   7.371   1.882   3.050  0.7019 -0.4052  0.2720
  395MOL0     C53255   8.214   1.760   3.056 -0.2966  0.4513 -0.6028
  395MOL0     C53256   8.338   1.715   3.019  0.2380  0.0768 -0.2043
  395MOL0     C53257   8.408   1.635   3.122 -0.2956  0.3332 -0.6340
  395MOL0     H53258   8.770   1.884   2.726  2.1117 -3.2027  2.3518
  395MOL0     H53259   8.961   1.849   2.571 -0.8370  0.3116  1.5233
  395MOL0     H53260   8.968   1.488   2.300  1.9111 -0.9158 -0.8584
  395MOL0     H53261   8.914   1.621   2.190  0.9764 -0.1592 -1.9018
  395MOL0     H53262   9.149   1.679   2.142  1.0679 -0.3378  1.3899
  395MOL0     H53263   9.133   1.501   2.133 -2.2117  0.2775 -1.6418
  395MOL0     H53264   9.242   1.460   2.307 -2.8918  0.4519  0.2982
  395MOL0     H53265   9.192   1.591   2.408  0.9752  1.4939  0.4940
  395MOL0     H53266   9.392   1.593   2.191  0.8481 -0.0012  0.1823
  395MOL0     H53267   9.318   1.743   2.253 -4.2233 -0.7531  1.1685
  395MOL0     H53268   9.439   1.691   2.489  0.5486  1.2120 -0.6441
  395MOL0     H53269   9.481   1.528   2.420  0.7672 -0.3905  0.9766
  395MOL0     H53270   9.594   1.801   2.340  0.6327  1.5962  0.8808
  395MOL0     H53271   9.670   1.670   2.433 -1.6391 -1.8763  0.5176
  395MOL0     H53272   9.612   1.653   2.135  0.1470  3.5544  0.7979
  395MOL0     H53273   9.688   1.518   2.214  0.8610  0.1662  0.0371
  395MOL0     H53274   9.806   1.790   2.190  2.1212  0.2097  0.1374
  395MOL0     H53275   9.879   1.642   2.264  1.5801  0.2279 -1.4179
  395MOL0     H53276   9.751   1.457   2.004 -1.7834  3.0529  0.9498
  395MOL0     H53277  10.062   1.406   1.758  0.8613 -1.0078 -0.1509
  395MOL0     H53278  10.020   1.316   1.895  1.5690 -0.4582 -2.6093
  395MOL0     H53279   9.773   1.308   1.786 -1.2391 -0.4789 -1.1628
  395MOL0     H53280   9.822   1.421   1.666 -1.1460 -1.2533 -1.3784
  395MOL0     H53281   9.822   1.165   1.626 -0.8240  0.0354  1.4981
  395MOL0     H53282  10.000   1.191   1.663  1.3043  5.1913  0.3730
  395MOL0     H53283  10.016   1.361   1.505  0.8242  0.3268 -1.7654
  395MOL0     H53284   9.844   1.337   1.452 -0.1119 -1.9560  0.7828
  395MOL0     H53285  10.001   1.405   1.285 -3.5366 -0.5274  2.3268
  395MOL0     H53286   9.964   1.416   1.034  0.1788 -0.4595 -1.4519
  395MOL0     H53287   9.943   1.510   0.683 -2.7939  4.9360 -1.0602
  395MOL0     H53288   9.874   1.578   0.457  1.6504 -0.9258  0.3777
  395MOL0     H53289   9.472   1.404   0.333  0.5911 -0.7696  5.0567
  395MOL0     H53290   9.473   1.549   0.435  1.2059  0.5849  0.4959
  395MOL0     H53291   9.466   1.715   0.275 -1.2326  0.5058 -0.9457
  395MOL0     H53292   9.492   1.597   0.143 -1.3008 -0.5296 -1.1186
  395MOL0     H53293   9.274   1.484   0.186  0.9994  2.4769 -3.7206
  395MOL0     H53294   9.245   1.587   0.334  0.1376  2.8130 -0.0920
  395MOL0     H53295   9.271   1.677   0.043  0.4549  1.8370  0.9113
  395MOL0     H53296   9.252   1.771   0.186  3.7494 -0.5107  0.9087
  395MOL0     H53297   9.045   1.550   0.137 -1.5161  0.8170 -0.2046
  395MOL0     H53298   9.045   1.700   0.038 -0.0553  0.2649  0.0837
  395MOL0     H53299   9.017   1.690   0.336 -1.2902 -0.7645  0.0379
  395MOL0     H53300   9.019   1.839   0.229 -1.8296  0.6106 -3.2881
  395MOL0     H53301   8.826   1.613   0.179  1.9526  0.9601 -3.2701
  395MOL0     H53302   8.825   1.779   0.121 -1.7661  1.0942  2.1739
  395MOL0     H53303   8.810   1.799   0.416 -0.9514 -1.2972  1.3266
  395MOL0     H53304   8.692   1.827   0.279  1.8295  0.1563 -0.3356
  395MOL0     H53305   9.572   1.276   0.476 -0.3604 -0.0783 -0.4434
  395MOL0     H53306   9.660   1.205   0.684  0.4421  0.5504  2.6284
  395MOL0     H53307   9.958   0.989   1.016 -1.2034 -0.0241 -0.0805
  395MOL0     H53308   9.989   0.970   1.246  0.0629 -0.6164 -1.9580
  395MOL0     H53309   8.742   1.535   2.378 -0.7014 -0.2369  0.5882
  395MOL0     H53310   8.557   1.569   2.541 -0.0812  0.9571 -0.8388
  395MOL0     H53311   8.337   1.852   2.714  2.9543 -0.9078  1.1765
  395MOL0     H53312   8.114   1.931   2.785  1.5258  1.9592  0.7917
  395MOL0     H53313   8.028   1.882   3.222  1.1898  4.6794 -2.6585
  395MOL0     H53314   7.935   1.755   3.171  2.8978 -0.3936  0.4502
  395MOL0     H53315   7.875   2.061   3.177 -2.2550  0.9964  0.4596
  395MOL0     H53316   7.821   1.944   3.295 -0.6889  2.4688  0.0963
  395MOL0     H53317   7.708   1.827   3.087 -2.0105  0.6184  0.2931
  395MOL0     H53318   7.733   1.988   3.004  0.2989  2.5159  1.6590
  395MOL0     H53319   7.579   1.971   3.274 -0.5580  4.5219 -0.0126
  395MOL0     H53320   7.590   2.095   3.161  0.0072  0.8394 -0.7354
  395MOL0     H53321   7.275   1.859   3.008  0.3605  2.1060 -0.4603
  395MOL0     H53322   8.165   1.731   3.149  0.6679  0.6034 -0.0347
  395MOL0     H53323   8.394   1.527   3.108 -0.5034 -0.1661  2.7168
  395MOL0     H53324   8.515   1.656   3.128  0.3791 -2.8087  0.3466
  395MOL0     H53325   8.372   1.654   3.223  2.4650 -0.4657  0.5960
  396MOL0     O53326   6.822   6.033   6.981  0.6474 -0.6815  0.2434
  396MOL0     C53327   6.776   5.995   6.881  0.3798  0.4431  1.0501
  396MOL0     O53328   6.848   5.961   6.776 -0.1588  0.6579  0.5110
  396MOL0     C53329   6.982   5.950   6.782 -0.9414 -0.0290  0.1896
  396MOL0     C53330   7.063   6.066   6.770 -0.2744 -0.2911 -0.4149
  396MOL0     C53331   7.204   6.052   6.772  0.5648 -0.2642 -0.5262
  396MOL0     C53332   7.263   5.924   6.778  0.1466 -1.1171 -0.6831
  396MOL0     O53333   7.398   5.921   6.796  0.9080 -0.2467 -0.0959
  396MOL0     C53334   7.461   5.807   6.738 -0.4606 -0.1165  0.0630
  396MOL0     C53335   7.612   5.831   6.739  0.7214 -1.0675 -0.5633
  396MOL0     C53336   7.675   5.760   6.622 -0.5649  0.1933 -0.4239
  396MOL0     C53337   7.833   5.793   6.633  1.0130 -0.0473  0.0287
  396MOL0     C53338   7.933   5.679   6.605  0.3645 -0.4000 -1.2694
  396MOL0     C53339   8.075   5.734   6.595 -0.9338 -0.9148 -0.6746
  396MOL0     C53340   8.089   5.784   6.447 -0.4633 -0.0797 -0.0929
  396MOL0     C53341   8.214   5.872   6.430  0.3223 -0.5681 -0.1409
  396MOL0     N53342   8.339   5.795   6.422  0.5040  0.3474 -0.4952
  396MOL0     C53343   8.452   5.812   6.496  0.0586  0.2571  0.3501
  396MOL0     C53344   8.545   5.731   6.439  0.4755 -0.2369  0.3920
  396MOL0     C53345   8.689   5.725   6.482 -0.9116  0.0610  0.1843
  396MOL0     C53346   8.768   5.647   6.375  0.4374  0.8700  0.2554
  396MOL0     C53347   8.923   5.653   6.376  0.6064 -0.1697 -0.4055
  396MOL0     C53348   8.991   5.575   6.485  0.5555  0.2274  0.6979
  396MOL0     O53349   9.123   5.630   6.472  0.0266 -0.0274  0.4815
  396MOL0     C53350   9.228   5.546   6.492  0.0103  0.4661 -0.0918
  396MOL0     C53351   9.344   5.566   6.412 -0.4911 -0.3881  0.8969
  396MOL0     C53352   9.463   5.488   6.432 -0.3044  0.1801  0.3785
  396MOL0     C53353   9.461   5.394   6.543 -0.1908  0.0869 -0.0476
  396MOL0     C53354   9.576   5.312   6.570 -0.3848 -0.1024 -0.9007
  396MOL0     O53355   9.696   5.353   6.519  0.2904  0.0145 -0.7229
  396MOL0     C53356   9.807   5.293   6.576  0.2025 -0.4513  0.5453
  396MOL0     C53357   9.917   5.375   6.608  0.0085 -0.5361  0.4921
  396MOL0     C53358  10.038   5.322   6.664  0.7679 -0.2761 -0.8425
  396MOL0     C53359  10.051   5.191   6.691  0.2326 -0.2548  0.0463
  396MOL0     O53360  10.161   5.130   6.737  0.1295 -0.2878 -0.5655
  396MOL0     C53361  10.236   5.182   6.847 -0.1358 -0.7534 -0.5857
  396MOL0     C53362  10.330   5.091   6.934  0.2858 -0.2833 -0.9850
  396MOL0     C53363  10.379   5.161   7.058  0.1985 -0.4210 -0.7634
  396MOL0     C53364  10.482   5.085   7.146 -0.5890 -0.4058  0.2740
  396MOL0     C53365  10.500   5.175   7.267 -0.1006 -0.0897  0.0708
  396MOL0     C53366  10.587   5.110   7.372  0.1866 -0.6590 -0.1158
  396MOL0     C53367  10.612   5.198   7.499  0.4685  0.8596  0.0324
  396MOL0     C53368  10.726   5.137   7.593 -0.1494 -0.3801 -0.3559
  396MOL0    Cl53369  10.892   5.107   7.526 -0.1576  0.1598  0.1559
  396MOL0     C53370   9.942   5.104   6.650 -0.7392  0.2747  0.3519
  396MOL0     C53371   9.823   5.157   6.597 -0.2470  0.0204 -0.5455
  396MOL0     O53372   9.563   5.223   6.652  0.2001 -0.7615 -0.2095
  396MOL0     C53373   9.339   5.372   6.615  0.1669 -0.2582  0.6050
  396MOL0     C53374   9.224   5.452   6.594 -1.1269  0.6978 -0.5313
  396MOL0     N53375   8.483   5.657   6.339 -0.1031  0.6413 -0.7836
  396MOL0     N53376   8.358   5.690   6.340  0.7496  0.6415 -0.2647
  396MOL0     C53377   7.182   5.806   6.776 -0.5058 -0.5260 -0.3635
  396MOL0     C53378   7.043   5.822   6.783 -0.0395 -0.4766 -0.7321
  396MOL0     C53379   6.632   6.013   6.858  0.4908 -0.2457 -0.8424
  396MOL0     C53380   6.591   6.067   6.729  0.2105 -0.1051 -0.2523
  396MOL0     C53381   6.464   6.096   6.699 -0.1493  0.1413  0.0696
  396MOL0     C53382   6.366   6.067   6.792  0.0825 -0.1850  0.0529
  396MOL0     O53383   6.236   6.108   6.758 -0.1367  0.0168  0.1945
  396MOL0     C53384   6.151   6.169   6.848 -0.0348 -0.6979 -0.0330
  396MOL0     C53385   6.078   6.274   6.758 -0.7294 -0.3369 -0.7551
  396MOL0     C53386   5.951   6.223   6.691 -0.4898 -0.0896  0.5554
  396MOL0     C53387   5.822   6.310   6.717 -1.2313  0.1558  0.1566
  396MOL0     C53388   5.767   6.282   6.852  0.5151  0.2153  0.7070
  396MOL0     C53389   5.728   6.266   6.967  0.3924 -0.1496 -0.0650
  396MOL0     C53390   6.396   6.018   6.921  0.5832  0.2454  0.0790
  396MOL0     C53391   6.528   5.988   6.953  0.2251 -0.0359 -0.6115
  396MOL0     C53392   6.548   5.943   7.096 -0.1528  0.6574  0.4595
  396MOL0     H53393   7.016   6.163   6.783 -0.7217 -0.6682  0.9609
  396MOL0     H53394   7.267   6.140   6.774  0.0133  0.1521 -0.9787
  396MOL0     H53395   7.439   5.716   6.795  1.9467  0.6321  2.3862
  396MOL0     H53396   7.421   5.790   6.637  0.5543  0.6527 -0.4889
  396MOL0     H53397   7.650   5.793   6.835 -0.9149 -3.6533 -0.8251
  396MOL0     H53398   7.625   5.938   6.726 -0.2731 -0.4054  2.8851
  396MOL0     H53399   7.626   5.805   6.535 -2.1487 -1.3608 -0.4000
  396MOL0     H53400   7.650   5.653   6.620  1.2168 -0.2540 -0.7389
  396MOL0     H53401   7.858   5.867   6.557  0.3630 -1.4676 -1.6514
  396MOL0     H53402   7.858   5.833   6.732  0.6542 -0.6543  0.3718
  396MOL0     H53403   7.937   5.620   6.696  1.2706 -0.9605 -1.6670
  396MOL0     H53404   7.902   5.621   6.518  0.3024 -0.8918 -0.9197
  396MOL0     H53405   8.096   5.814   6.666 -5.0854  0.7122 -0.9912
  396MOL0     H53406   8.148   5.654   6.607  0.3016  0.0947 -1.2442
  396MOL0     H53407   8.001   5.837   6.410  0.1432  1.5444  0.6703
  396MOL0     H53408   8.097   5.695   6.384  0.2120  0.1068 -0.2852
  396MOL0     H53409   8.202   5.912   6.328  0.4311 -0.2719 -0.0376
  396MOL0     H53410   8.202   5.952   6.503 -1.0098 -1.8804  1.1407
  396MOL0     H53411   8.467   5.886   6.573 -1.8121 -1.1526  2.1920
  396MOL0     H53412   8.728   5.827   6.495  0.2951 -0.2101 -1.0612
  396MOL0     H53413   8.711   5.670   6.574 -1.3988  3.4963  2.5465
  396MOL0     H53414   8.745   5.540   6.373  2.3599  0.3950 -1.9781
  396MOL0     H53415   8.740   5.695   6.280  0.8006  2.3453  0.8749
  396MOL0     H53416   8.955   5.756   6.390  1.0981 -0.4500  0.6959
  396MOL0     H53417   8.965   5.619   6.281 -0.6165 -1.2514 -0.5919
  396MOL0     H53418   8.978   5.470   6.456  0.4955  0.9832 -2.3715
  396MOL0     H53419   8.946   5.585   6.584 -1.3364 -1.5132  0.0770
  396MOL0     H53420   9.330   5.647   6.342 -0.4893  0.1707  1.5266
  396MOL0     H53421   9.554   5.503   6.376  1.0979 -1.5200  2.0535
  396MOL0     H53422   9.911   5.481   6.588 -0.0347 -0.7643 -0.7842
  396MOL0     H53423  10.131   5.374   6.684 -1.2164  2.5614  1.6751
  396MOL0     H53424  10.296   5.267   6.813 -0.0391 -0.4322  0.3495
  396MOL0     H53425  10.170   5.227   6.922 -2.5638 -2.1726 -1.7300
  396MOL0     H53426  10.271   5.007   6.972  1.5008  0.2266  2.3493
  396MOL0     H53427  10.408   5.031   6.887 -0.8482 -1.9439 -0.8211
  396MOL0     H53428  10.424   5.256   7.027 -1.5161  1.0892  1.0846
  396MOL0     H53429  10.295   5.188   7.124  1.9749  1.7676  0.7892
  396MOL0     H53430  10.572   5.081   7.084 -0.8673  2.1680 -0.3932
  396MOL0     H53431  10.459   4.983   7.179 -0.6149  0.1144  1.9802
  396MOL0     H53432  10.404   5.206   7.309  0.9340  1.8201  1.1625
  396MOL0     H53433  10.539   5.267   7.222  0.6596 -0.7671 -0.6900
  396MOL0     H53434  10.535   5.018   7.399 -1.7026  0.8663  1.8524
  396MOL0     H53435  10.680   5.097   7.316 -2.0480  0.1480 -4.4803
  396MOL0     H53436  10.521   5.208   7.558  0.8322 -2.1384  1.3025
  396MOL0     H53437  10.646   5.295   7.463  1.9268  0.7939  1.1607
  396MOL0     H53438  10.740   5.195   7.685 -1.2683 -0.7535  0.0643
  396MOL0     H53439  10.683   5.046   7.634  0.1809 -0.4269 -0.1097
  396MOL0     H53440   9.941   4.997   6.667 -2.4493  0.0793 -0.7495
  396MOL0     H53441   9.750   5.082   6.567 -0.1141 -0.9442  1.3310
  396MOL0     H53442   9.333   5.293   6.689  1.6952  0.3999  1.4979
  396MOL0     H53443   9.139   5.428   6.657 -1.0779 -0.1213 -0.7546
  396MOL0     H53444   7.224   5.706   6.784  2.1071  0.5292  0.2607
  396MOL0     H53445   6.980   5.734   6.785  1.0805 -1.2994  1.0915
  396MOL0     H53446   6.670   6.104   6.665  0.7144  1.4175  1.1876
  396MOL0     H53447   6.446   6.137   6.600 -1.6740  2.0488  1.0922
  396MOL0     H53448   6.199   6.222   6.931 -0.3952  0.3402 -0.4668
  396MOL0     H53449   6.080   6.095   6.887  0.7113 -1.3551  0.0939
  396MOL0     H53450   6.138   6.299   6.670 -2.7415 -1.2639 -2.4729
  396MOL0     H53451   6.056   6.360   6.822 -0.0948 -1.9639  1.7725
  396MOL0     H53452   5.935   6.116   6.706  1.5063 -0.3620  1.0539
  396MOL0     H53453   5.981   6.234   6.586  0.8487 -2.9771  0.5485
  396MOL0     H53454   5.849   6.414   6.702 -2.9103  0.3462 -1.9817
  396MOL0     H53455   5.750   6.302   6.635 -1.7155  2.8134  0.2384
  396MOL0     H53456   5.685   6.260   7.066  0.9643  0.5634  0.2323
  396MOL0     H53457   6.315   6.009   6.993  0.0155  3.2484 -0.0449
  396MOL0     H53458   6.557   6.022   7.171 -4.8910  2.2411 -0.3018
  396MOL0     H53459   6.477   5.867   7.130  1.9912 -1.4286  0.5034
  396MOL0     H53460   6.640   5.884   7.089 -0.3839  0.3605 -0.1849
  397MOL0     O53461   0.149   9.233   1.500  0.1115 -0.3408  0.0877
  397MOL0     C53462   0.136   9.193   1.382 -0.3886 -0.3175 -0.5472
  397MOL0     O53463   0.229   9.206   1.291  0.6742  0.8753  0.3351
  397MOL0     C53464   0.344   9.266   1.337 -0.5521 -0.3706 -0.2393
  397MOL0     C53465   0.341   9.407   1.347  0.7260 -0.6428  0.0138
  397MOL0     C53466   0.451   9.488   1.368 -0.2525 -0.7137  0.3990
  397MOL0     C53467   0.581   9.430   1.371  0.2290 -0.8726 -0.2134
  397MOL0     O53468   0.687   9.523   1.375 -0.2655  0.9420 -0.5931
  397MOL0     C53469   0.815   9.485   1.430  0.4645  0.1879  0.2042
  397MOL0     C53470   0.825   9.525   1.576 -0.2756 -0.7117  0.9842
  397MOL0     C53471   0.832   9.667   1.610  0.2167  0.1313 -0.1919
  397MOL0     C53472   0.833   9.696   1.763  0.1800  0.3870 -0.3205
  397MOL0     C53473   0.878   9.840   1.773  0.1665 -0.1661 -0.5775
  397MOL0     C53474   0.842   9.893   1.907 -0.0079  0.0587 -1.0231
  397MOL0     C53475   0.695   9.937   1.942 -0.5850  0.4079  0.2539
  397MOL0     C53476   0.695   9.995   2.083 -0.0581  1.0831  0.3074
  397MOL0     N53477   0.753  10.125   2.090  0.2699 -0.0067  0.1457
  397MOL0     C53478   0.862  10.147   2.175 -0.1373 -0.2376  1.2228
  397MOL0     C53479   0.879  10.280   2.147  0.3108 -0.5460 -0.1512
  397MOL0     C53480   1.000  10.339   2.215 -0.1021  0.7887 -0.5109
  397MOL0     C53481   1.110  10.364   2.110 -0.5857  0.0673 -0.0448
  397MOL0     C53482   1.230  10.452   2.165  0.8170  0.5884 -0.1391
  397MOL0     C53483   1.293  10.399   2.289 -0.0966  0.7565 -0.8954
  397MOL0     O53484   1.379  10.500   2.356  0.5067 -0.1456  0.5074
  397MOL0     C53485   1.513  10.488   2.335  0.1149 -0.1877  0.0056
  397MOL0     C53486   1.590  10.555   2.427 -0.4523 -0.0617  0.4375
  397MOL0     C53487   1.731  10.557   2.413 -0.1582 -0.1206  0.5079
  397MOL0     C53488   1.790  10.498   2.297 -0.1976 -0.4721 -0.2597
  397MOL0     C53489   1.929  10.499   2.275  0.7184  0.2781  0.2877
  397MOL0     O53490   1.971  10.448   2.154 -0.4094  0.2257 -0.2047
  397MOL0     C53491   2.102  10.447   2.123  0.1485  0.8721  0.6974
  397MOL0     C53492   2.138  10.325   2.065 -0.2246 -0.0939 -0.9597
  397MOL0     C53493   2.263  10.309   2.004  0.8457 -0.5257  0.9485
  397MOL0     C53494   2.361  10.410   2.019  0.5516  0.1195 -0.2462
  397MOL0     O53495   2.484  10.401   1.964 -0.3848  0.1677  0.4609
  397MOL0     C53496   2.562  10.287   2.001  0.0644  0.0390  0.2144
  397MOL0     C53497   2.709  10.306   1.976  1.4129 -0.3457  0.7167
  397MOL0     C53498   2.743  10.316   1.828 -0.0533 -0.0851 -0.1107
  397MOL0     C53499   2.889  10.344   1.800 -0.9486 -1.1027 -0.0885
  397MOL0     C53500   2.925  10.324   1.646  0.1246 -0.8621 -0.0653
  397MOL0     C53501   2.985  10.182   1.632 -0.3193 -0.8508 -0.0926
  397MOL0     C53502   3.044  10.154   1.491  0.4449 -0.0366 -0.0268
  397MOL0     C53503   3.138  10.038   1.506 -0.9533 -0.8060  1.2237
  397MOL0    Cl53504   3.288  10.082   1.594  0.0280  0.1176  0.8041
  397MOL0     C53505   2.327  10.527   2.086  0.2832 -0.6650 -0.3414
  397MOL0     C53506   2.196  10.546   2.127  0.3750 -0.4474 -1.1716
  397MOL0     O53507   1.997  10.554   2.360  1.2679  0.3813  0.8002
  397MOL0     C53508   1.698  10.437   2.202 -1.5121  0.1400 -0.6225
  397MOL0     C53509   1.569  10.435   2.213 -0.2728  0.9919  0.0890
  397MOL0     N53510   0.789  10.336   2.050  0.5304 -0.7714 -0.2013
  397MOL0     N53511   0.708  10.235   2.027  0.1206  0.3731  0.2073
  397MOL0     C53512   0.589   9.291   1.353 -0.2633 -0.4395  0.4376
  397MOL0     C53513   0.475   9.207   1.324 -0.6139  0.3229 -0.2255
  397MOL0     C53514   0.007   9.115   1.356 -0.5863 -0.1101  0.0237
  397MOL0     C53515  -0.016   8.994   1.422 -0.2703  0.3645  0.6909
  397MOL0     C53516  -0.125   8.910   1.389 -0.3248 -0.2076  0.5266
  397MOL0     C53517  -0.208   8.935   1.285  0.2269 -0.3838 -0.4414
  397MOL0     O53518  -0.293   8.842   1.249 -0.1497 -0.0903  0.0338
  397MOL0     C53519  -0.295   8.825   1.109 -0.9465  0.1277 -0.0342
  397MOL0     C53520  -0.342   8.680   1.074 -0.2980  1.1073 -0.4311
  397MOL0     C53521  -0.290   8.580   1.168  0.5665  0.8434 -0.0333
  397MOL0     C53522  -0.351   8.437   1.169  0.3579 -0.5694  0.1067
  397MOL0     C53523  -0.436   8.413   1.052  0.2855 -0.2314  0.5379
  397MOL0     C53524  -0.489   8.379   0.942 -0.8030  0.2874  0.1628
  397MOL0     C53525  -0.184   9.063   1.214  1.2220  0.2999 -0.6723
  397MOL0     C53526  -0.079   9.151   1.254 -0.5601  0.2801  0.0216
  397MOL0     C53527  -0.049   9.266   1.166  0.0868  0.1522 -0.2203
  397MOL0     H53528   0.243   9.453   1.339  0.6858 -0.6922  0.2060
  397MOL0     H53529   0.446   9.596   1.375  0.2144 -0.4358 -2.3905
  397MOL0     H53530   0.834   9.377   1.426  3.1398  0.6044 -0.6334
  397MOL0     H53531   0.892   9.520   1.360  0.4198 -0.2093 -0.0486
  397MOL0     H53532   0.919   9.483   1.611 -1.0851 -1.4173  2.3984
  397MOL0     H53533   0.742   9.479   1.631  0.1313 -3.1503 -0.3156
  397MOL0     H53534   0.753   9.729   1.567  1.1607  0.6565 -1.2245
  397MOL0     H53535   0.925   9.709   1.572 -0.9305  3.7175  0.5254
  397MOL0     H53536   0.735   9.681   1.809  1.0983 -1.1132  1.2838
  397MOL0     H53537   0.905   9.638   1.822  0.7570 -0.2875 -1.6474
  397MOL0     H53538   0.980   9.865   1.744 -0.2963  0.8713 -1.3662
  397MOL0     H53539   0.825   9.889   1.691  1.7285 -0.8186 -2.0386
  397MOL0     H53540   0.879   9.816   1.975 -0.5491 -0.0985 -0.9001
  397MOL0     H53541   0.904   9.983   1.917  4.1363 -2.2679 -3.3195
  397MOL0     H53542   0.626   9.854   1.925 -0.1700  0.1834 -0.3427
  397MOL0     H53543   0.658  10.014   1.874 -4.7410 -1.0295  0.5510
  397MOL0     H53544   0.589  10.001   2.112 -0.1947 -1.6090  0.6132
  397MOL0     H53545   0.742   9.915   2.141 -1.8367 -1.2555 -1.2991
  397MOL0     H53546   0.914  10.078   2.240 -0.2352 -1.1482  0.3595
  397MOL0     H53547   0.978  10.442   2.242 -1.2083  0.6770 -0.9478
  397MOL0     H53548   1.045  10.279   2.295  2.4799  1.6325 -1.2143
  397MOL0     H53549   1.150  10.275   2.061 -0.3620  0.0049  0.2444
  397MOL0     H53550   1.053  10.421   2.037 -1.4799 -1.1782 -0.3503
  397MOL0     H53551   1.177  10.546   2.182  0.7184  0.1488  2.3065
  397MOL0     H53552   1.310  10.473   2.092  1.6936 -1.4174  0.1747
  397MOL0     H53553   1.342  10.302   2.274 -1.4606 -0.3676  1.4703
  397MOL0     H53554   1.220  10.380   2.368  0.9966 -3.2549 -0.6166
  397MOL0     H53555   1.552  10.623   2.502  1.3629  1.2058  0.2527
  397MOL0     H53556   1.797  10.607   2.482 -1.6104 -0.1859  2.0027
  397MOL0     H53557   2.061  10.248   2.059 -0.8004  0.3297  0.4385
  397MOL0     H53558   2.291  10.215   1.959  0.4184  0.2731 -1.0980
  397MOL0     H53559   2.539  10.280   2.107  0.0140  1.3178  0.3018
  397MOL0     H53560   2.537  10.193   1.950 -0.6825 -0.6801  1.8411
  397MOL0     H53561   2.744  10.398   2.023 -0.9145  2.0180 -1.8665
  397MOL0     H53562   2.753  10.214   2.017 -1.3117 -2.9016 -1.6504
  397MOL0     H53563   2.721  10.216   1.788 -0.5382 -0.4509  1.0422
  397MOL0     H53564   2.676  10.388   1.781 -1.6721 -1.7049 -0.4085
  397MOL0     H53565   2.943  10.272   1.862  0.3336  0.1952  0.3548
  397MOL0     H53566   2.907  10.444   1.842 -0.5191 -1.7298  1.2978
  397MOL0     H53567   3.008  10.391   1.623  0.9394 -2.2384 -1.2671
  397MOL0     H53568   2.844  10.339   1.574 -0.6907 -1.1195  0.7642
  397MOL0     H53569   3.065  10.171   1.706  2.1994 -0.3243 -2.5896
  397MOL0     H53570   2.910  10.111   1.669 -3.4456  1.8129 -0.8959
  397MOL0     H53571   3.094  10.239   1.442  0.6123 -0.3513 -0.4148
  397MOL0     H53572   2.966  10.132   1.417  0.5002  1.3138 -0.5349
  397MOL0     H53573   3.083   9.951   1.543 -3.5859 -0.4536 -1.4104
  397MOL0     H53574   3.152  10.004   1.403 -1.0499  1.0827  0.5393
  397MOL0     H53575   2.413  10.594   2.086  0.6370 -1.1046 -1.2967
  397MOL0     H53576   2.167  10.643   2.165 -1.0556 -0.0241 -3.2066
  397MOL0     H53577   1.741  10.376   2.123  3.7151  1.1458  1.1041
  397MOL0     H53578   1.516  10.397   2.127  0.5060 -1.2977  0.5439
  397MOL0     H53579   0.685   9.242   1.342 -0.7316 -0.9972 -1.6288
  397MOL0     H53580   0.483   9.102   1.297  2.2902  0.2478  0.5997
  397MOL0     H53581   0.054   8.972   1.502  0.1741  0.2679  0.2867
  397MOL0     H53582  -0.136   8.812   1.433 -3.4434 -2.0751 -3.7248
  397MOL0     H53583  -0.195   8.840   1.067 -0.3034 -2.9785  0.1286
  397MOL0     H53584  -0.377   8.891   1.078 -3.2776 -0.5592  3.9005
  397MOL0     H53585  -0.305   8.660   0.973  1.6104 -0.8182  0.5776
  397MOL0     H53586  -0.451   8.673   1.080 -0.2072 -0.8456 -0.4696
  397MOL0     H53587  -0.304   8.613   1.271 -1.5685 -2.9372  1.0750
  397MOL0     H53588  -0.182   8.566   1.161  0.3249 -1.5866  0.1914
  397MOL0     H53589  -0.274   8.360   1.158  0.4108 -0.5165  0.1022
  397MOL0     H53590  -0.399   8.415   1.265  0.4712  0.3571  0.3875
  397MOL0     H53591  -0.515   8.349   0.842 -1.2502  1.6638 -0.1609
  397MOL0     H53592  -0.246   9.087   1.128 -1.0721 -0.7882  0.5769
  397MOL0     H53593  -0.083   9.357   1.216  0.2366  0.6335 -0.9740
  397MOL0     H53594   0.052   9.286   1.128  0.3849  1.9979  1.3857
  397MOL0     H53595  -0.097   9.253   1.069  0.7033 -0.9995 -0.3912
  398MOL0     O53596   2.571   7.913   5.963 -0.3875 -0.2831 -0.0728
  398MOL0     C53597   2.614   8.018   5.923  0.7517 -0.2239 -0.0028
  398MOL0     O53598   2.752   8.045   5.890  0.8609  0.8194 -0.3162
  398MOL0     C53599   2.830   7.932   5.906  1.4292 -0.0939  0.7107
  398MOL0     C53600   2.910   7.880   5.805  0.4220  0.2500  0.1412
  398MOL0     C53601   2.989   7.762   5.833  0.2387 -0.3181  0.9293
  398MOL0     C53602   3.007   7.703   5.953  0.3065  0.3245 -0.6034
  398MOL0     O53603   3.098   7.604   5.974 -0.4687 -0.1674  0.2545
  398MOL0     C53604   3.119   7.559   6.103  0.0907  0.2630 -0.1182
  398MOL0     C53605   3.254   7.477   6.106  0.4596  0.1938 -0.3843
  398MOL0     C53606   3.393   7.545   6.087  0.8488 -1.0924 -0.5150
  398MOL0     C53607   3.418   7.665   6.173 -0.2214  0.9299  0.4345
  398MOL0     C53608   3.573   7.671   6.198  0.0038 -0.2410  0.5890
  398MOL0     C53609   3.655   7.715   6.076 -0.7237 -0.0256 -0.3810
  398MOL0     C53610   3.802   7.684   6.107 -0.0282  0.6862  0.4462
  398MOL0     C53611   3.859   7.728   6.238 -0.4427 -0.6525 -0.1297
  398MOL0     N53612   3.905   7.867   6.226 -0.3691 -0.3248  0.8465
  398MOL0     C53613   4.022   7.914   6.185 -0.2109 -0.2718 -0.1367
  398MOL0     C53614   4.004   8.052   6.194  0.3914  0.3980  0.1214
  398MOL0     C53615   4.113   8.155   6.175 -0.5289  0.7241 -0.5856
  398MOL0     C53616   4.231   8.127   6.267  1.4866  0.4802  0.6172
  398MOL0     C53617   4.345   8.225   6.233 -0.4791 -0.2513  0.7613
  398MOL0     C53618   4.447   8.222   6.344  0.7137  0.2792 -0.3396
  398MOL0     O53619   4.517   8.344   6.349 -0.4088 -0.0528  0.1667
  398MOL0     C53620   4.619   8.358   6.437  0.2238 -0.3908 -0.9992
  398MOL0     C53621   4.691   8.473   6.429 -0.1407  0.7232  0.1038
  398MOL0     C53622   4.805   8.491   6.507  0.7353  0.8068 -0.1004
  398MOL0     C53623   4.849   8.402   6.601 -0.3705  0.6902  0.4628
  398MOL0     C53624   4.981   8.430   6.678  0.1429  0.1700  0.7040
  398MOL0     O53625   5.042   8.551   6.666  0.6322 -0.0440  0.2635
  398MOL0     C53626   5.175   8.577   6.719 -0.0804  0.0890  0.0255
  398MOL0     C53627   5.198   8.540   6.854  0.5785  0.2316 -0.0795
  398MOL0     C53628   5.319   8.570   6.912 -0.4452  0.3377 -0.5749
  398MOL0     C53629   5.422   8.620   6.831 -0.1452 -0.9976  0.7310
  398MOL0     O53630   5.537   8.647   6.895  0.2290 -0.4116 -0.0288
  398MOL0     C53631   5.654   8.660   6.824  0.8503 -0.1153  0.1462
  398MOL0     C53632   5.769   8.665   6.926 -0.1560 -0.0251 -1.3845
  398MOL0     C53633   5.899   8.675   6.839 -0.5593  0.1224 -0.7412
  398MOL0     C53634   6.014   8.686   6.935  0.5724 -0.3060 -0.0211
  398MOL0     C53635   6.145   8.663   6.856 -1.0149 -0.1990  1.0492
  398MOL0     C53636   6.263   8.644   6.957  0.0994 -0.3124  1.7497
  398MOL0     C53637   6.260   8.504   7.016  0.1191  1.0150 -0.1195
  398MOL0     C53638   6.374   8.494   7.128  0.0590  0.0382 -0.3900
  398MOL0    Cl53639   6.303   8.586   7.272  0.3028 -0.1777  0.0868
  398MOL0     C53640   5.405   8.634   6.695 -0.1221 -0.3739 -0.3278
  398MOL0     C53641   5.279   8.616   6.638  0.0566  0.0469  0.7335
  398MOL0     O53642   5.020   8.342   6.743 -1.3272  0.4310 -0.5084
  398MOL0     C53643   4.778   8.273   6.608 -0.4546 -0.9006  0.2964
  398MOL0     C53644   4.657   8.260   6.529 -0.5911  0.6853  0.0299
  398MOL0     N53645   3.870   8.082   6.224 -0.5080 -0.1649  0.0782
  398MOL0     N53646   3.814   7.971   6.241  0.1703  0.2992 -0.9107
  398MOL0     C53647   2.909   7.741   6.044  0.4429  0.2275 -0.4488
  398MOL0     C53648   2.829   7.859   6.023 -0.6982  0.2166 -0.1047
  398MOL0     C53649   2.521   8.127   5.925 -0.3013  0.7153 -0.5063
  398MOL0     C53650   2.490   8.196   6.039 -0.1371  0.1305 -0.1110
  398MOL0     C53651   2.416   8.315   6.024 -0.5210  0.4615 -0.3875
  398MOL0     C53652   2.362   8.362   5.901 -0.8860 -0.5171 -1.0137
  398MOL0     O53653   2.288   8.479   5.908  0.0150 -0.1250  0.9610
  398MOL0     C53654   2.237   8.555   5.795  0.2923 -0.1206 -0.5327
  398MOL0     C53655   2.267   8.706   5.803  0.2262 -0.2295 -0.1141
  398MOL0     C53656   2.175   8.779   5.899  0.2235 -0.2290 -0.0769
  398MOL0     C53657   2.044   8.815   5.830  0.2907 -0.6910  0.0203
  398MOL0     C53658   1.943   8.849   5.931 -0.0971 -0.5681 -0.1917
  398MOL0     C53659   1.866   8.867   6.023 -0.0230 -0.2654  0.5822
  398MOL0     C53660   2.389   8.282   5.796 -0.4671  0.2574 -0.1973
  398MOL0     C53661   2.468   8.168   5.799 -0.3310 -0.2858  0.3991
  398MOL0     C53662   2.514   8.095   5.672 -0.4305  0.6865 -0.2392
  398MOL0     H53663   2.921   7.926   5.707 -0.0749 -1.1345 -0.5914
  398MOL0     H53664   3.060   7.725   5.758  2.5234  4.1294  0.5784
  398MOL0     H53665   3.130   7.641   6.175  0.2358  1.2668 -1.2447
  398MOL0     H53666   3.029   7.504   6.133 -0.5621  1.2121 -0.2826
  398MOL0     H53667   3.249   7.403   6.025 -1.2439  0.9113 -0.9841
  398MOL0     H53668   3.272   7.434   6.204 -0.8483  2.6087  1.0121
  398MOL0     H53669   3.400   7.571   5.981 -1.8553  0.1359 -0.4849
  398MOL0     H53670   3.464   7.463   6.100  1.6156 -0.7354 -2.1338
  398MOL0     H53671   3.364   7.754   6.138 -2.3935 -0.0044  1.2873
  398MOL0     H53672   3.380   7.646   6.274 -2.0129 -0.6309 -0.4801
  398MOL0     H53673   3.582   7.751   6.273  0.3090  0.6647 -0.3947
  398MOL0     H53674   3.606   7.575   6.240  1.8322  0.3344  0.5582
  398MOL0     H53675   3.636   7.653   5.988 -1.5765  0.1470 -0.3305
  398MOL0     H53676   3.638   7.817   6.039 -0.4850 -0.3250 -1.3472
  398MOL0     H53677   3.874   7.716   6.031 -0.0729 -0.1347  0.0497
  398MOL0     H53678   3.817   7.577   6.091  0.1165  0.5707  1.3297
  398MOL0     H53679   3.792   7.715   6.323  0.1491  1.3535  0.6975
  398MOL0     H53680   3.953   7.676   6.258 -0.1289 -0.2163 -0.4535
  398MOL0     H53681   4.110   7.861   6.151 -0.3169 -1.0709  0.7968
  398MOL0     H53682   4.139   8.151   6.069  0.3807 -0.4447 -0.3492
  398MOL0     H53683   4.072   8.251   6.208 -1.2129 -0.2398  1.6125
  398MOL0     H53684   4.196   8.148   6.369 -0.5201 -0.6524  0.1991
  398MOL0     H53685   4.269   8.025   6.271  3.4520  1.1915  1.8853
  398MOL0     H53686   4.310   8.328   6.222  2.0203  0.6493  0.5932
  398MOL0     H53687   4.381   8.194   6.134  0.2924 -1.4208  1.3917
  398MOL0     H53688   4.511   8.134   6.337  0.2392 -0.1364  0.3818
  398MOL0     H53689   4.391   8.211   6.438  0.9412 -1.1723 -0.3454
  398MOL0     H53690   4.655   8.550   6.361 -0.6095 -0.5352 -1.1387
  398MOL0     H53691   4.852   8.587   6.487  1.0241  0.6323 -0.2428
  398MOL0     H53692   5.124   8.492   6.917  2.1678 -2.1914  0.0687
  398MOL0     H53693   5.350   8.553   7.015  0.5288  0.1748 -0.8795
  398MOL0     H53694   5.670   8.568   6.766  0.3657 -1.3336  1.8551
  398MOL0     H53695   5.659   8.750   6.762 -0.7288  0.2013  0.4460
  398MOL0     H53696   5.768   8.746   7.000  2.5132  0.1307 -1.4368
  398MOL0     H53697   5.775   8.574   6.986 -2.0258  1.6107  1.5323
  398MOL0     H53698   5.911   8.593   6.767 -1.8166  1.3099 -2.3835
  398MOL0     H53699   5.895   8.766   6.779  0.1936  2.4255  2.4276
  398MOL0     H53700   5.997   8.630   7.027 -3.5430  1.7927  0.6870
  398MOL0     H53701   6.011   8.788   6.974  1.9633 -0.6124  0.9972
  398MOL0     H53702   6.179   8.751   6.799  1.8586 -2.1427 -0.4915
  398MOL0     H53703   6.153   8.576   6.790  0.8215 -1.9844  3.4765
  398MOL0     H53704   6.361   8.655   6.910  0.1050  2.8039  2.2801
  398MOL0     H53705   6.260   8.724   7.032  2.2967  1.9914 -0.4124
  398MOL0     H53706   6.270   8.428   6.938 -1.2046  0.3309  0.3532
  398MOL0     H53707   6.167   8.486   7.071 -0.3645 -1.0706 -1.4767
  398MOL0     H53708   6.423   8.398   7.146  0.8405  0.4922 -0.0155
  398MOL0     H53709   6.457   8.552   7.085  0.2310 -0.8100 -1.2275
  398MOL0     H53710   5.478   8.674   6.626 -1.5109  0.1250 -1.5668
  398MOL0     H53711   5.265   8.622   6.530 -2.8211 -1.2030  0.9383
  398MOL0     H53712   4.822   8.185   6.654  2.2446 -0.9118 -2.0446
  398MOL0     H53713   4.601   8.167   6.538  2.0628 -0.9759  0.6143
  398MOL0     H53714   2.916   7.702   6.145  1.8560 -2.7072 -1.5614
  398MOL0     H53715   2.779   7.896   6.113  0.1361  0.7925  0.1287
  398MOL0     H53716   2.533   8.165   6.133  0.3440 -1.0338 -0.6846
  398MOL0     H53717   2.398   8.377   6.111  2.5284  1.3282 -0.2774
  398MOL0     H53718   2.131   8.530   5.785  0.4652 -2.9273  2.8728
  398MOL0     H53719   2.280   8.518   5.701  2.1542 -0.1100  0.2719
  398MOL0     H53720   2.273   8.756   5.706  1.3653 -1.0791 -0.5016
  398MOL0     H53721   2.371   8.716   5.834  0.0068  1.2422  0.2061
  398MOL0     H53722   2.215   8.871   5.944 -0.5852  0.9363 -1.6243
  398MOL0     H53723   2.149   8.712   5.982  1.6358 -0.6149  0.0962
  398MOL0     H53724   2.065   8.897   5.761  2.2769 -0.4417  0.8694
  398MOL0     H53725   2.011   8.738   5.759  0.8524 -1.1094  0.2097
  398MOL0     H53726   1.794   8.896   6.097  1.9891  3.0549  1.4316
  398MOL0     H53727   2.342   8.306   5.702 -2.6172 -1.7982  0.2638
  398MOL0     H53728   2.487   7.990   5.685  3.5071 -0.7463 -2.3987
  398MOL0     H53729   2.465   8.141   5.586  3.0761  3.2656 -1.0871
  398MOL0     H53730   2.622   8.095   5.657 -0.0584  0.7659  2.0441
  399MOL0     O53731  10.696   6.993   3.113 -0.1145  1.2441  0.0154
  399MOL0     C53732  10.693   6.873   3.092  0.4738 -0.0492  0.3684
  399MOL0     O53733  10.784   6.798   3.037  0.2010 -0.3697  0.6535
  399MOL0     C53734  10.901   6.857   2.996  0.5865 -0.2450  0.1724
  399MOL0     C53735  10.943   6.838   2.858  0.0110  0.0032 -0.1104
  399MOL0     C53736  11.054   6.906   2.808  0.4336  0.3723 -0.5462
  399MOL0     C53737  11.137   6.987   2.901 -0.0784 -0.3928 -0.0035
  399MOL0     O53738  11.252   7.041   2.856  0.4459  0.1641  0.6310
  399MOL0     C53739  11.310   7.152   2.921 -0.8067 -0.9159  0.9244
  399MOL0     C53740  11.391   7.241   2.818  0.0420  1.0744  0.1711
  399MOL0     C53741  11.521   7.174   2.769 -0.4194  0.4700 -0.6171
  399MOL0     C53742  11.607   7.255   2.666 -0.0626  0.3601 -0.0777
  399MOL0     C53743  11.742   7.187   2.620 -0.6928  0.6377  0.6019
  399MOL0     C53744  11.815   7.108   2.732 -0.2999 -0.1130 -0.2134
  399MOL0     C53745  11.968   7.123   2.716 -0.0467 -0.2626  0.1297
  399MOL0     C53746  12.045   7.052   2.825 -0.0684 -0.1162 -0.7194
  399MOL0     N53747  12.172   7.117   2.849 -1.0622 -0.5166  0.1273
  399MOL0     C53748  12.194   7.208   2.952  0.4492 -0.5647  0.6103
  399MOL0     C53749  12.332   7.223   2.953  0.3941 -0.4553 -0.7056
  399MOL0     C53750  12.401   7.322   3.050 -0.1709 -0.1186  0.5339
  399MOL0     C53751  12.548   7.280   3.074 -0.1671  0.2188  0.2590
  399MOL0     C53752  12.625   7.386   3.162 -0.5632  0.0112  0.0152
  399MOL0     C53753  12.746   7.340   3.226 -0.2021  1.4133 -1.1898
  399MOL0     O53754  12.796   7.456   3.290 -0.4012 -0.0205  0.4037
  399MOL0     C53755  12.927   7.455   3.342 -0.0260 -0.1615  0.0609
  399MOL0     C53756  12.964   7.559   3.424 -0.1936  0.8387 -0.5711
  399MOL0     C53757  13.091   7.570   3.481 -0.8052  0.7033  0.3666
  399MOL0     C53758  13.195   7.492   3.434  0.3489  0.0675  0.5714
  399MOL0     C53759  13.336   7.525   3.456 -0.9206  0.1658  0.2734
  399MOL0     O53760  13.374   7.643   3.513  0.2092 -0.2599  0.0417
  399MOL0     C53761  13.508   7.664   3.539 -0.1205 -0.0575  0.3627
  399MOL0     C53762  13.595   7.735   3.447 -0.9198 -0.4172  0.0876
  399MOL0     C53763  13.725   7.749   3.494  0.1959 -1.2759  0.5551
  399MOL0     C53764  13.775   7.712   3.621  0.5870 -0.5656 -0.1076
  399MOL0     O53765  13.898   7.740   3.671  0.2782  0.4800 -1.4338
  399MOL0     C53766  14.008   7.737   3.575  0.6701  0.1504 -0.3690
  399MOL0     C53767  14.134   7.775   3.650  0.0170  0.7245 -0.2630
  399MOL0     C53768  14.265   7.763   3.568  0.2934  0.7793 -0.0445
  399MOL0     C53769  14.392   7.751   3.662 -0.1352  0.3268 -0.5233
  399MOL0     C53770  14.515   7.706   3.581 -0.1762  1.0746 -0.4682
  399MOL0     C53771  14.563   7.808   3.480 -0.4720 -0.0046  0.3602
  399MOL0     C53772  14.684   7.746   3.409 -0.7546  0.7789 -0.3648
  399MOL0     C53773  14.784   7.857   3.351 -0.1594 -0.8023 -0.0813
  399MOL0    Cl53774  14.844   7.979   3.471  0.0970  0.5412  0.1839
  399MOL0     C53775  13.688   7.640   3.705 -0.1974 -0.4361  0.0612
  399MOL0     C53776  13.555   7.631   3.667 -0.2496 -1.2278  1.0894
  399MOL0     O53777  13.413   7.449   3.412 -0.1216 -0.8709 -0.2865
  399MOL0     C53778  13.163   7.382   3.342 -0.1589  1.0131  0.3093
  399MOL0     C53779  13.031   7.371   3.299  0.5864  0.3393  0.6896
  399MOL0     N53780  12.383   7.131   2.862  0.6598 -0.7982 -0.4179
  399MOL0     N53781  12.291   7.086   2.791 -0.2981  0.3724 -0.2889
  399MOL0     C53782  11.089   6.996   3.036  0.2413 -0.6045  0.3918
  399MOL0     C53783  10.975   6.929   3.089  0.1153  0.2123 -0.3693
  399MOL0     C53784  10.574   6.797   3.146 -0.1431 -0.0066  0.2140
  399MOL0     C53785  10.522   6.839   3.269  1.3450 -0.2487  0.3268
  399MOL0     C53786  10.411   6.778   3.328 -0.4646  0.3455 -0.4709
  399MOL0     C53787  10.351   6.667   3.273 -0.2949 -0.5257  0.3387
  399MOL0     O53788  10.247   6.595   3.320  0.4796  0.0041 -0.2980
  399MOL0     C53789  10.222   6.621   3.461  1.2793  0.2549 -0.6853
  399MOL0     C53790  10.114   6.735   3.478 -1.3637  0.4128  0.5580
  399MOL0     C53791   9.972   6.685   3.474  0.5242 -0.1927  0.2826
  399MOL0     C53792   9.873   6.788   3.523 -0.4702 -0.3055 -0.1114
  399MOL0     C53793   9.781   6.723   3.612 -0.7778  0.0317  0.4789
  399MOL0     C53794   9.695   6.680   3.678  0.2886 -0.4331 -0.0280
  399MOL0     C53795  10.406   6.632   3.153 -0.6583  0.6026  1.2923
  399MOL0     C53796  10.513   6.689   3.084  0.8755  1.3328  0.2984
  399MOL0     C53797  10.573   6.617   2.970 -0.0283 -0.4874 -0.0299
  399MOL0     H53798  10.887   6.769   2.797 -0.2056 -0.6418  0.7967
  399MOL0     H53799  11.086   6.885   2.706  1.5781  2.0862 -0.5814
  399MOL0     H53800  11.246   7.221   2.978 -0.1016 -0.8780  1.6948
  399MOL0     H53801  11.374   7.116   3.003  0.1929  0.0670  0.5981
  399MOL0     H53802  11.415   7.335   2.868 -2.9813  1.6506  0.7222
  399MOL0     H53803  11.325   7.262   2.734 -0.0013  2.8170  0.5987
  399MOL0     H53804  11.500   7.080   2.718 -0.3953 -0.0986  0.4096
  399MOL0     H53805  11.582   7.150   2.856 -1.9181  0.8800  0.6113
  399MOL0     H53806  11.551   7.275   2.575  0.1586  0.7764 -0.1260
  399MOL0     H53807  11.617   7.349   2.722 -1.1497  0.8813 -0.7353
  399MOL0     H53808  11.726   7.112   2.541  0.5312  0.4931  0.4737
  399MOL0     H53809  11.795   7.266   2.566 -1.2592  0.8867  0.3952
  399MOL0     H53810  11.799   7.162   2.826  0.3956 -0.8283  0.3280
  399MOL0     H53811  11.780   7.004   2.737 -2.0570  0.4698  0.5849
  399MOL0     H53812  11.981   7.231   2.725  0.5268 -0.3248  0.1040
  399MOL0     H53813  12.000   7.092   2.615 -1.8807  3.4552 -1.7818
  399MOL0     H53814  11.980   7.054   2.913  1.4226  0.2745  0.4049
  399MOL0     H53815  12.060   6.949   2.790 -1.6311 -0.1838 -1.2980
  399MOL0     H53816  12.119   7.245   3.021 -1.8910 -2.2202 -0.8984
  399MOL0     H53817  12.397   7.426   3.017  4.1874  0.1966  0.4213
  399MOL0     H53818  12.353   7.329   3.148 -0.0326  2.0210  0.4886
  399MOL0     H53819  12.542   7.180   3.118 -1.0848  0.2757  0.2761
  399MOL0     H53820  12.619   7.272   2.991  2.5431 -0.6092  2.4749
  399MOL0     H53821  12.553   7.424   3.234  0.2595 -0.5938  1.1814
  399MOL0     H53822  12.644   7.474   3.100 -1.7328  2.0805  2.4336
  399MOL0     H53823  12.818   7.298   3.154 -0.8178 -0.5845 -0.7048
  399MOL0     H53824  12.721   7.264   3.301  0.8007  3.2350  1.1168
  399MOL0     H53825  12.890   7.624   3.470 -1.3886 -0.9432  0.1431
  399MOL0     H53826  13.118   7.653   3.545 -0.4431  0.5146  0.4624
  399MOL0     H53827  13.576   7.776   3.348  0.2461 -0.4267 -0.1558
  399MOL0     H53828  13.790   7.806   3.428 -0.8648  0.0931  0.6648
  399MOL0     H53829  14.010   7.637   3.531 -0.5594  0.5505 -1.3953
  399MOL0     H53830  13.986   7.804   3.491 -3.1984 -1.1849 -0.6510
  399MOL0     H53831  14.117   7.879   3.679 -2.7950  0.0441  0.8832
  399MOL0     H53832  14.138   7.716   3.742 -2.6102  0.2935 -0.3550
  399MOL0     H53833  14.250   7.675   3.504 -2.9110  0.8536  0.4337
  399MOL0     H53834  14.275   7.851   3.503 -2.3723  1.3416  0.2117
  399MOL0     H53835  14.381   7.676   3.741  0.6242  1.8410  1.0932
  399MOL0     H53836  14.415   7.842   3.717  2.1740 -0.5450  0.0777
  399MOL0     H53837  14.491   7.623   3.513 -2.7627  3.1500 -2.2855
  399MOL0     H53838  14.596   7.686   3.652 -1.0737  2.8842  1.1311
  399MOL0     H53839  14.481   7.830   3.411 -1.1285  1.8273  1.6403
  399MOL0     H53840  14.587   7.911   3.507 -1.7599  0.8777 -1.6835
  399MOL0     H53841  14.646   7.678   3.333 -0.5730  2.1592 -1.7343
  399MOL0     H53842  14.743   7.680   3.473 -1.1921 -1.4306 -2.1205
  399MOL0     H53843  14.876   7.812   3.313 -0.5431 -1.5455 -0.1500
  399MOL0     H53844  14.723   7.908   3.275  0.3744 -0.4445 -0.2755
  399MOL0     H53845  13.715   7.595   3.800 -2.8676 -2.5769 -0.0582
  399MOL0     H53846  13.490   7.584   3.740 -0.9299 -1.9669  0.0281
  399MOL0     H53847  13.228   7.302   3.308 -0.6926  1.2694 -1.4266
  399MOL0     H53848  13.024   7.301   3.216 -2.6415  0.2353  0.9551
  399MOL0     H53849  11.155   7.048   3.105 -1.3612 -0.6824  2.0679
  399MOL0     H53850  10.942   6.931   3.192 -1.1039 -3.1104 -0.5679
  399MOL0     H53851  10.560   6.928   3.318  2.2751 -1.3670  1.7142
  399MOL0     H53852  10.362   6.823   3.414  0.6250 -1.1137  0.9654
  399MOL0     H53853  10.312   6.648   3.516  0.3592 -0.9293  1.5027
  399MOL0     H53854  10.178   6.528   3.499  3.9575  0.0628  2.3818
  399MOL0     H53855  10.125   6.809   3.398  1.9981 -1.0216 -0.4898
  399MOL0     H53856  10.125   6.792   3.570 -0.3114  1.9757 -0.4749
  399MOL0     H53857   9.964   6.610   3.553  1.1735 -0.4749  0.0829
  399MOL0     H53858   9.952   6.648   3.373 -2.5128  0.1142  0.6636
  399MOL0     H53859   9.930   6.867   3.573  2.7320 -1.5605 -1.5014
  399MOL0     H53860   9.820   6.825   3.435  0.1971 -3.4357 -1.9825
  399MOL0     H53861   9.609   6.651   3.734  0.6919 -0.7901  0.4162
  399MOL0     H53862  10.372   6.536   3.115 -1.9673  0.9186  1.5930
  399MOL0     H53863  10.620   6.691   2.904 -0.0098 -0.5173 -0.0495
  399MOL0     H53864  10.651   6.548   3.003  1.8576  0.4044 -2.3128
  399MOL0     H53865  10.499   6.567   2.906  0.4239 -0.2401 -0.7674
  400MOL0     O53866   7.290   2.833   6.887  0.4241 -0.5392 -0.5050
  400MOL0     C53867   7.290   2.709   6.891 -0.4337  0.2710 -0.5697
  400MOL0     O53868   7.402   2.628   6.881  0.3867  0.9126 -0.0973
  400MOL0     C53869   7.531   2.683   6.884  0.7972  0.8927  0.5018
  400MOL0     C53870   7.634   2.622   6.959 -0.1246  0.0679  0.3668
  400MOL0     C53871   7.766   2.664   6.952  0.4598 -0.1591 -0.3963
  400MOL0     C53872   7.794   2.786   6.884 -0.7336 -0.4473 -0.6696
  400MOL0     O53873   7.924   2.839   6.898 -0.1315 -0.6280  0.3887
  400MOL0     C53874   7.996   2.833   6.774 -0.2179  0.8125 -0.1844
  400MOL0     C53875   8.111   2.924   6.789  0.1400  0.2149 -0.3729
  400MOL0     C53876   8.223   2.895   6.690 -0.8810  0.1897  0.6192
  400MOL0     C53877   8.344   2.988   6.727  0.0562 -0.7910  0.2132
  400MOL0     C53878   8.466   2.971   6.632 -0.3341  0.5789 -0.3089
  400MOL0     C53879   8.558   2.850   6.686  0.3613 -1.0045  0.3197
  400MOL0     C53880   8.666   2.810   6.581 -0.7797 -0.5188 -0.0737
  400MOL0     C53881   8.790   2.733   6.641  0.5957  0.0574  0.1569
  400MOL0     N53882   8.912   2.734   6.555 -0.4646  0.6348 -0.5875
  400MOL0     C53883   8.917   2.644   6.452 -0.6850 -0.5247  0.5179
  400MOL0     C53884   9.030   2.676   6.393  0.1474 -0.4415  0.1071
  400MOL0     C53885   9.081   2.610   6.275  0.0304  0.1519 -0.7433
  400MOL0     C53886   9.135   2.471   6.313  0.6238 -0.5920 -0.0100
  400MOL0     C53887   9.178   2.390   6.197  0.3387  0.0318 -0.0910
  400MOL0     C53888   9.173   2.247   6.243 -0.3562  0.2655  1.0463
  400MOL0     O53889   9.221   2.154   6.140  0.1980 -0.7434 -0.2452
  400MOL0     C53890   9.358   2.139   6.120 -0.5170  0.4147  0.0339
  400MOL0     C53891   9.391   2.039   6.022  0.0399  0.1161  0.0629
  400MOL0     C53892   9.520   2.011   5.984  0.1623  0.7149 -0.1960
  400MOL0     C53893   9.635   2.076   6.046  0.4741  0.6793 -0.3500
  400MOL0     C53894   9.764   2.055   5.994  0.1608  0.7185  0.6205
  400MOL0     O53895   9.770   1.943   5.912  0.7941  0.2536 -0.0405
  400MOL0     C53896   9.894   1.907   5.874 -0.7497  0.5708 -0.1151
  400MOL0     C53897   9.993   1.845   5.955 -0.2859  0.0326 -0.3152
  400MOL0     C53898  10.102   1.781   5.897  0.6891 -1.1188 -1.1765
  400MOL0     C53899  10.122   1.796   5.755 -0.2875 -0.5326 -0.7575
  400MOL0     O53900  10.231   1.740   5.697  0.0909  0.8712  0.4803
  400MOL0     C53901  10.326   1.660   5.769  0.6903  0.3748  0.6705
  400MOL0     C53902  10.415   1.586   5.661  0.0313  0.4827  0.7020
  400MOL0     C53903  10.507   1.479   5.724 -0.3217  0.1083  0.9674
  400MOL0     C53904  10.545   1.364   5.618 -0.5578 -0.0092 -0.1522
  400MOL0     C53905  10.629   1.251   5.670 -0.3399  0.7953  0.1083
  400MOL0     C53906  10.778   1.274   5.666 -1.1849 -0.1625  0.0159
  400MOL0     C53907  10.862   1.160   5.725  0.2764  0.3474  0.4922
  400MOL0     C53908  11.010   1.191   5.739  0.3485  0.6591 -0.1739
  400MOL0    Cl53909  11.080   1.062   5.834  0.2899 -0.4681  0.1623
  400MOL0     C53910  10.031   1.865   5.679  0.5647 -0.5786 -0.3269
  400MOL0     C53911   9.921   1.916   5.737 -0.6844 -0.6395 -0.0215
  400MOL0     O53912   9.853   2.130   6.028  0.5740 -0.2163  0.7951
  400MOL0     C53913   9.603   2.166   6.152 -0.3951  0.2620 -0.7233
  400MOL0     C53914   9.469   2.191   6.180 -0.2634  0.1456 -0.7897
  400MOL0     N53915   9.095   2.783   6.451 -0.3306 -0.5264  0.4782
  400MOL0     N53916   9.020   2.822   6.543  0.1479 -0.0475 -0.4291
  400MOL0     C53917   7.699   2.849   6.806  0.6411 -0.0553  0.3032
  400MOL0     C53918   7.564   2.793   6.805 -0.1105  0.3900  0.0849
  400MOL0     C53919   7.158   2.639   6.917  1.3747 -0.5943  0.3716
  400MOL0     C53920   7.159   2.518   6.997 -0.1035  0.1320  0.4264
  400MOL0     C53921   7.049   2.458   7.048  0.8269 -0.3148 -0.0781
  400MOL0     C53922   6.919   2.511   7.026 -0.0878 -0.3325 -0.5598
  400MOL0     O53923   6.814   2.450   7.095  0.3421  0.3127  0.6647
  400MOL0     C53924   6.686   2.453   7.046  0.0703 -0.0322  0.5908
  400MOL0     C53925   6.695   2.344   6.930 -0.0577 -0.7716  0.3402
  400MOL0     C53926   6.556   2.327   6.876  0.4682 -0.1817  0.3464
  400MOL0     C53927   6.492   2.459   6.816  0.7352  0.4987  0.3256
  400MOL0     C53928   6.400   2.428   6.709 -0.3767  0.0865 -0.1041
  400MOL0     C53929   6.309   2.396   6.635 -0.3469  0.6155  0.7849
  400MOL0     C53930   6.913   2.630   6.950 -0.2849  0.3174  0.2625
  400MOL0     C53931   7.030   2.694   6.894  0.9930  0.3021  0.2314
  400MOL0     C53932   7.016   2.812   6.802  0.0961  0.0277  0.5141
  400MOL0     H53933   7.605   2.530   7.008  0.0364 -0.2114 -0.0641
  400MOL0     H53934   7.848   2.618   7.005  1.5296  2.8659  0.8353
  400MOL0     H53935   8.038   2.732   6.767  0.8090  1.3259 -2.3270
  400MOL0     H53936   7.950   2.855   6.677 -0.7687 -0.8746 -0.3447
  400MOL0     H53937   8.141   2.910   6.893 -1.8482 -3.1946 -0.1089
  400MOL0     H53938   8.069   3.024   6.789 -3.0081 -0.7333  4.6816
  400MOL0     H53939   8.201   2.911   6.584 -1.7421 -0.7372  0.6382
  400MOL0     H53940   8.256   2.791   6.701  0.2018 -0.0793 -3.4594
  400MOL0     H53941   8.311   3.092   6.719 -0.6255 -0.9910  0.3433
  400MOL0     H53942   8.374   2.981   6.831  0.2297 -0.2674  0.1997
  400MOL0     H53943   8.432   2.947   6.531 -1.5311 -1.6747  0.5613
  400MOL0     H53944   8.531   3.059   6.624  2.0022 -1.0885 -0.7284
  400MOL0     H53945   8.605   2.898   6.772 -0.0428  1.4127 -0.7445
  400MOL0     H53946   8.502   2.762   6.719 -1.0364 -0.6211 -0.9212
  400MOL0     H53947   8.717   2.893   6.532 -1.3036 -1.0643 -1.5997
  400MOL0     H53948   8.621   2.749   6.501 -1.0897 -0.0724 -0.2445
  400MOL0     H53949   8.817   2.792   6.729 -0.2942 -0.7483  0.9932
  400MOL0     H53950   8.750   2.635   6.669 -2.2965  0.0410 -3.3238
  400MOL0     H53951   8.855   2.557   6.431  0.9879 -1.6892  0.1761
  400MOL0     H53952   8.994   2.588   6.212 -1.6350  0.5568  1.3006
  400MOL0     H53953   9.149   2.667   6.211 -0.5817 -1.6736 -3.1848
  400MOL0     H53954   9.215   2.493   6.385 -2.2702  0.0294  3.2845
  400MOL0     H53955   9.058   2.421   6.372  2.7505 -1.5404  2.1452
  400MOL0     H53956   9.281   2.417   6.173 -0.2128  0.4463 -2.1569
  400MOL0     H53957   9.115   2.401   6.108 -0.0339 -1.4216 -0.0386
  400MOL0     H53958   9.071   2.222   6.272 -0.6817  0.2435 -0.0445
  400MOL0     H53959   9.235   2.231   6.331  0.9901 -0.1790  0.0645
  400MOL0     H53960   9.309   2.004   5.961 -1.0959  2.7852 -0.0822
  400MOL0     H53961   9.537   1.943   5.901 -1.4227  3.7349 -3.2565
  400MOL0     H53962   9.984   1.859   6.062 -1.4077 -0.8098 -0.2849
  400MOL0     H53963  10.170   1.728   5.962 -0.7092 -2.3869 -0.7058
  400MOL0     H53964  10.388   1.717   5.839  0.5230 -0.7869  1.8038
  400MOL0     H53965  10.271   1.583   5.823 -0.7874  1.9784  1.5438
  400MOL0     H53966  10.343   1.540   5.593  2.9740 -0.8271 -1.8141
  400MOL0     H53967  10.468   1.658   5.598 -1.2429 -1.0489 -2.3596
  400MOL0     H53968  10.594   1.527   5.769  0.0441  0.5769 -0.1828
  400MOL0     H53969  10.466   1.428   5.811 -1.4417  0.4322  0.6468
  400MOL0     H53970  10.598   1.400   5.529 -0.2427  0.4616  0.2181
  400MOL0     H53971  10.445   1.329   5.592 -0.2061 -4.0940  3.0772
  400MOL0     H53972  10.608   1.160   5.613 -1.8718  2.2011 -1.7071
  400MOL0     H53973  10.609   1.226   5.774  1.7344  1.4107  0.7053
  400MOL0     H53974  10.805   1.284   5.561 -0.3354 -1.3790  0.0927
  400MOL0     H53975  10.805   1.371   5.711 -0.1624  0.6465 -2.2150
  400MOL0     H53976  10.846   1.076   5.657 -2.4556 -1.6051  3.2835
  400MOL0     H53977  10.825   1.130   5.823  1.1515 -2.8855 -0.0502
  400MOL0     H53978  11.057   1.171   5.643  1.3169 -1.4351  0.6772
  400MOL0     H53979  11.034   1.293   5.772  1.2310  1.3538 -2.7264
  400MOL0     H53980  10.051   1.873   5.573 -0.0782  1.5260 -0.3255
  400MOL0     H53981   9.840   1.944   5.670  0.0238 -4.6998 -3.0160
  400MOL0     H53982   9.688   2.209   6.205  1.1257 -3.6963  0.4124
  400MOL0     H53983   9.446   2.260   6.260  3.9470  1.1574 -0.2201
  400MOL0     H53984   7.702   2.939   6.746 -1.4074  1.3172  2.1024
  400MOL0     H53985   7.495   2.842   6.737  0.0615 -1.9691 -1.9252
  400MOL0     H53986   7.260   2.481   7.016  1.2500  4.1317  2.1159
  400MOL0     H53987   7.053   2.362   7.098 -2.8909 -0.7277 -0.3024
  400MOL0     H53988   6.646   2.551   7.017  0.8770  0.4237  0.9942
  400MOL0     H53989   6.613   2.417   7.119 -1.0909  1.3696  0.1892
  400MOL0     H53990   6.736   2.251   6.970  0.0030 -0.8088  0.1910
  400MOL0     H53991   6.761   2.371   6.847 -3.4420  1.0040 -1.9955
  400MOL0     H53992   6.486   2.267   6.935 -4.7950 -0.9212 -5.6029
  400MOL0     H53993   6.574   2.265   6.788  1.2062  0.1615  0.2514
  400MOL0     H53994   6.442   2.519   6.892  1.0806 -1.3667  2.1001
  400MOL0     H53995   6.575   2.515   6.772  1.1198 -1.7810 -2.0710
  400MOL0     H53996   6.225   2.374   6.572  1.7147  0.7989 -2.2888
  400MOL0     H53997   6.811   2.663   6.935 -0.6963  0.1565  2.3344
  400MOL0     H53998   6.910   2.833   6.784  0.8250  3.9040 -0.0429
  400MOL0     H53999   7.057   2.907   6.838 -0.1107  1.1418 -1.9752
  400MOL0     H54000   7.064   2.796   6.704 -0.0431  2.4973 -0.0126
  401MOL0     O54001   6.655  11.040   8.437 -0.2920  0.1273  0.0332
  401MOL0     C54002   6.703  11.095   8.338  0.7532  0.3753  0.0722
  401MOL0     O54003   6.638  11.194   8.262 -0.4952 -0.2902  0.2836
  401MOL0     C54004   6.505  11.191   8.268 -0.6489  0.6462  0.3956
  401MOL0     C54005   6.424  11.096   8.203 -0.1952  0.3472 -0.4674
  401MOL0     C54006   6.280  11.115   8.208 -0.9448  0.6169 -0.2182
  401MOL0     C54007   6.224  11.226   8.278 -0.3690  0.9610 -0.0914
  401MOL0     O54008   6.095  11.239   8.300  0.1565 -0.6660 -0.3155
  401MOL0     C54009   5.996  11.159   8.226 -0.3848 -0.7401  1.0620
  401MOL0     C54010   6.003  11.202   8.077 -0.8454 -0.2629 -0.5078
  401MOL0     C54011   5.923  11.121   7.974  0.7619  0.4281  0.6793
  401MOL0     C54012   5.772  11.146   8.001  0.0016  0.2076 -0.4559
  401MOL0     C54013   5.685  11.078   7.898  0.5679 -1.0305  0.4653
  401MOL0     C54014   5.717  11.095   7.748  0.1328  0.2246 -1.1574
  401MOL0     C54015   5.583  11.081   7.667  0.5428  0.0805  0.4567
  401MOL0     C54016   5.503  11.213   7.670  0.1249 -0.0572 -0.1160
  401MOL0     N54017   5.355  11.196   7.646 -0.2749 -0.1714 -0.2800
  401MOL0     C54018   5.254  11.209   7.736 -0.1572  0.3393 -0.4461
  401MOL0     C54019   5.150  11.185   7.659  0.2762  0.4463 -0.5703
  401MOL0     C54020   5.016  11.190   7.710 -0.3704  0.0226 -1.2172
  401MOL0     C54021   4.924  11.085   7.667 -0.2983  1.0521 -0.3054
  401MOL0     C54022   4.777  11.119   7.668  0.4303  0.6578  0.4192
  401MOL0     C54023   4.726  11.165   7.533 -0.3339 -0.4734  0.6783
  401MOL0     O54024   4.605  11.239   7.563 -1.1007 -0.1774 -0.4503
  401MOL0     C54025   4.483  11.181   7.582  0.0920 -0.2208  0.1658
  401MOL0     C54026   4.372  11.260   7.618 -0.7123 -0.5522 -0.3456
  401MOL0     C54027   4.246  11.204   7.644 -0.7126 -0.9498  0.5579
  401MOL0     C54028   4.234  11.067   7.656  0.0966 -0.2249 -0.1153
  401MOL0     C54029   4.108  11.014   7.720 -1.1994 -0.9413  0.6858
  401MOL0     O54030   3.989  11.065   7.697 -0.3380  0.2057  0.5083
  401MOL0     C54031   3.870  11.019   7.754 -0.1111 -0.6803  0.5198
  401MOL0     C54032   3.798  10.911   7.695  0.4646 -0.1564  0.3825
  401MOL0     C54033   3.670  10.875   7.742 -0.6407 -0.3252 -0.0956
  401MOL0     C54034   3.611  10.945   7.851 -0.5889  0.2328 -1.4782
  401MOL0     O54035   3.489  10.909   7.904 -0.3327 -0.6524  0.5242
  401MOL0     C54036   3.391  10.870   7.810  0.4022  0.3978 -0.0442
  401MOL0     C54037   3.248  10.865   7.866 -0.9241 -0.3521  0.1207
  401MOL0     C54038   3.196  10.995   7.929  0.1031 -0.0785 -0.0062
  401MOL0     C54039   3.045  11.003   7.942 -0.7403  0.1098 -0.1212
  401MOL0     C54040   2.989  11.113   8.026  0.0735  0.3782 -0.3136
  401MOL0     C54041   3.040  11.253   7.975  0.5583  0.0867  0.4966
  401MOL0     C54042   2.945  11.365   8.028 -0.7601  0.0412  0.7649
  401MOL0     C54043   2.993  11.504   7.976  0.3360 -1.4893 -0.4962
  401MOL0    Cl54044   2.894  11.621   8.055 -0.2567  0.2528 -0.3403
  401MOL0     C54045   3.692  11.027   7.931 -0.2847  0.1019 -0.7543
  401MOL0     C54046   3.817  11.066   7.881  0.0411  0.0293  0.4958
  401MOL0     O54047   4.128  10.921   7.800  0.0894 -0.6924 -0.5075
  401MOL0     C54048   4.340  10.988   7.628 -0.7722  0.5335  0.1151
  401MOL0     C54049   4.460  11.047   7.591 -0.0515  0.1557 -0.4307
  401MOL0     N54050   5.180  11.154   7.527 -0.4681 -0.3297 -0.5154
  401MOL0     N54051   5.308  11.169   7.522 -0.5083  0.4844  0.2388
  401MOL0     C54052   6.315  11.321   8.332  0.4910 -1.1509  0.5773
  401MOL0     C54053   6.448  11.301   8.324 -0.2958 -0.1648 -0.2849
  401MOL0     C54054   6.837  11.053   8.285 -0.1532  0.6201 -0.4233
  401MOL0     C54055   6.916  11.136   8.205 -0.0149 -0.2186 -0.2184
  401MOL0     C54056   7.050  11.106   8.160  0.9592 -0.7374  0.0742
  401MOL0     C54057   7.103  10.985   8.205 -0.6582  0.3924  0.6533
  401MOL0     O54058   7.226  10.934   8.165  0.1948  0.2859  0.0181
  401MOL0     C54059   7.313  11.000   8.065 -0.1447 -0.7219  0.4135
  401MOL0     C54060   7.459  10.942   8.079 -0.2372  0.5770  0.4955
  401MOL0     C54061   7.535  11.004   8.196 -0.0204  0.7834 -0.0048
  401MOL0     C54062   7.670  10.941   8.228  0.3521 -0.3084  0.0947
  401MOL0     C54063   7.755  10.961   8.110 -0.1720 -0.6457 -0.0034
  401MOL0     C54064   7.833  10.980   8.018 -0.4897  0.4773 -0.0963
  401MOL0     C54065   7.024  10.894   8.284 -0.9632 -0.2003 -0.2503
  401MOL0     C54066   6.893  10.928   8.334  0.5262  0.1362  0.6308
  401MOL0     C54067   6.826  10.824   8.429  0.5113  0.4103  0.6166
  401MOL0     H54068   6.474  11.007   8.166  0.7370 -0.5956  2.7660
  401MOL0     H54069   6.223  11.032   8.166 -0.9098  0.9342 -0.9180
  401MOL0     H54070   6.031  11.056   8.236  0.2412 -0.7558 -0.9468
  401MOL0     H54071   5.889  11.161   8.247 -1.5772 -0.9705 -3.7795
  401MOL0     H54072   6.105  11.213   8.040 -0.4819 -1.7270 -0.0119
  401MOL0     H54073   5.966  11.305   8.070 -0.1572  0.0646  0.3598
  401MOL0     H54074   5.939  11.013   7.977  0.9644  0.4581  0.7104
  401MOL0     H54075   5.951  11.145   7.871 -2.1211  0.5909 -0.1522
  401MOL0     H54076   5.729  11.117   8.098 -2.7018  2.5239 -0.8113
  401MOL0     H54077   5.749  11.253   7.999  0.2349  0.2688 -2.8731
  401MOL0     H54078   5.701  10.972   7.921  3.1216 -0.9091 -0.3805
  401MOL0     H54079   5.580  11.104   7.915  0.1532 -2.6734  0.5738
  401MOL0     H54080   5.747  11.200   7.737 -0.7052  0.9202  2.1894
  401MOL0     H54081   5.796  11.021   7.729 -1.3104 -1.8864  0.6430
  401MOL0     H54082   5.516  10.999   7.694 -1.8589  1.6853 -0.3256
  401MOL0     H54083   5.606  11.064   7.561 -0.7615 -0.0074  0.1727
  401MOL0     H54084   5.520  11.269   7.763  0.7762 -0.4966  0.0388
  401MOL0     H54085   5.544  11.279   7.593 -0.0303 -0.1733 -0.2963
  401MOL0     H54086   5.260  11.224   7.843 -3.2568  1.4005 -0.3274
  401MOL0     H54087   5.027  11.189   7.819  4.2684 -1.5497 -1.5061
  401MOL0     H54088   4.970  11.284   7.677 -1.5167  0.0714  0.3782
  401MOL0     H54089   4.940  11.056   7.563 -0.4305  2.5394 -0.7563
  401MOL0     H54090   4.927  11.000   7.736 -0.4106  1.4387  0.1826
  401MOL0     H54091   4.778  11.205   7.737  0.1183  1.8641 -1.0392
  401MOL0     H54092   4.718  11.040   7.715  1.6827  0.2294  1.3399
  401MOL0     H54093   4.708  11.082   7.463 -1.0633 -0.6702  1.0855
  401MOL0     H54094   4.789  11.238   7.482 -2.1693  1.2738  0.7712
  401MOL0     H54095   4.394  11.366   7.624  2.9260 -1.1987  0.4469
  401MOL0     H54096   4.172  11.274   7.682 -1.0482 -0.5954 -0.6789
  401MOL0     H54097   3.835  10.849   7.614 -1.0978 -1.0398  0.2946
  401MOL0     H54098   3.626  10.785   7.700  0.4152 -0.1150 -1.7385
  401MOL0     H54099   3.392  10.950   7.735  1.6397 -1.2352 -1.8918
  401MOL0     H54100   3.416  10.777   7.758 -1.6370 -0.8803  1.1260
  401MOL0     H54101   3.177  10.823   7.794 -1.1443  0.2783 -0.0346
  401MOL0     H54102   3.247  10.797   7.952 -1.7388 -0.2854  0.1696
  401MOL0     H54103   3.225  10.996   8.035 -0.1751 -2.5127  0.1362
  401MOL0     H54104   3.232  11.091   7.891 -0.7653  1.6656  3.1672
  401MOL0     H54105   3.005  10.910   7.984 -0.8111 -2.1500 -4.6147
  401MOL0     H54106   3.007  11.009   7.839 -1.3365  0.5626  0.1204
  401MOL0     H54107   3.032  11.090   8.125  1.5329  3.3846 -0.1448
  401MOL0     H54108   2.880  11.110   8.035  0.1738 -0.7095  0.8941
  401MOL0     H54109   3.138  11.282   8.014  0.4808  2.6848 -1.0204
  401MOL0     H54110   3.045  11.257   7.866 -1.4683  2.1077  0.4229
  401MOL0     H54111   2.927  11.351   8.135 -0.9850 -3.0654  0.4102
  401MOL0     H54112   2.842  11.359   7.992 -0.6767  1.0955  0.3385
  401MOL0     H54113   3.100  11.520   7.987  0.3380 -1.1562 -0.9691
  401MOL0     H54114   2.968  11.509   7.870  1.6949  1.1384 -0.7803
  401MOL0     H54115   3.653  11.083   8.015  0.8252  0.5537 -0.5115
  401MOL0     H54116   3.865  11.152   7.928  1.4527 -0.5614  0.2001
  401MOL0     H54117   4.341  10.881   7.643 -0.9655  0.6427  0.9620
  401MOL0     H54118   4.539  10.977   7.567 -0.8085 -0.7260 -0.4045
  401MOL0     H54119   6.282  11.416   8.374  1.3435 -1.1755  1.3574
  401MOL0     H54120   6.519  11.375   8.360 -0.5603  0.0984 -0.2998
  401MOL0     H54121   6.868  11.227   8.174  1.3677  1.5749  2.4809
  401MOL0     H54122   7.106  11.170   8.093  1.2089 -0.9852  0.0472
  401MOL0     H54123   7.317  11.109   8.074 -2.4457 -0.3376 -1.9406
  401MOL0     H54124   7.275  10.980   7.964  0.8550 -2.0686  0.2743
  401MOL0     H54125   7.512  10.968   7.987 -1.4645 -1.4140 -0.8365
  401MOL0     H54126   7.462  10.833   8.085  0.7305  0.5336 -0.4428
  401MOL0     H54127   7.472  10.989   8.284 -0.7073 -0.3549 -0.6659
  401MOL0     H54128   7.542  11.112   8.184  0.9938  1.0965  2.6775
  401MOL0     H54129   7.711  10.991   8.317 -1.4596  1.4748 -0.0123
  401MOL0     H54130   7.668  10.832   8.241  2.8244 -0.4462 -0.2041
  401MOL0     H54131   7.910  10.998   7.946 -1.8110  2.1108 -1.1868
  401MOL0     H54132   7.068  10.801   8.319  0.0835 -0.3293 -1.7977
  401MOL0     H54133   6.722  10.795   8.408  1.7233 -2.7069 -2.0109
  401MOL0     H54134   6.891  10.737   8.418 -2.0074 -1.2952 -3.0422
  401MOL0     H54135   6.830  10.866   8.529 -0.1625  2.2937 -0.0973
  402MOL0     O54136   9.253   1.754   9.461  0.7045  0.2817 -0.0254
  402MOL0     C54137   9.193   1.696   9.369 -0.3697 -1.0846 -0.7273
  402MOL0     O54138   9.255   1.661   9.253 -0.2703 -0.3837 -0.6491
  402MOL0     C54139   9.387   1.692   9.219  0.7996  0.3140 -0.1882
  402MOL0     C54140   9.421   1.717   9.086  0.2574 -0.6175 -0.1218
  402MOL0     C54141   9.555   1.763   9.050  0.2091 -0.3388 -0.8673
  402MOL0     C54142   9.652   1.765   9.142 -0.5228  0.6503  0.3019
  402MOL0     O54143   9.769   1.825   9.098 -0.4186 -0.1554 -0.1669
  402MOL0     C54144   9.888   1.774   9.163 -0.9880 -1.3112  0.1017
  402MOL0     C54145  10.019   1.816   9.093  0.2460  0.0873  0.2377
  402MOL0     C54146  10.135   1.737   9.148  0.2508 -0.2834  0.3377
  402MOL0     C54147  10.255   1.773   9.073 -0.1840 -0.5800 -0.0798
  402MOL0     C54148  10.377   1.719   9.157 -0.3287 -0.1834 -0.2797
  402MOL0     C54149  10.516   1.720   9.089  0.4084 -0.7516  0.5149
  402MOL0     C54150  10.557   1.858   9.040  0.1030  0.5273  0.0646
  402MOL0     C54151  10.700   1.857   8.994 -0.4341 -0.1235 -0.2015
  402MOL0     N54152  10.798   1.800   9.100  0.4944  0.4957  0.6405
  402MOL0     C54153  10.858   1.883   9.194  0.0856 -0.0404 -0.1092
  402MOL0     C54154  10.962   1.809   9.248  0.2719 -0.1465 -0.2671
  402MOL0     C54155  11.058   1.840   9.358  0.2025 -0.7515 -0.5912
  402MOL0     C54156  11.200   1.809   9.327  0.0588 -0.2358 -0.0996
  402MOL0     C54157  11.283   1.847   9.444 -0.3205  0.2231  0.4018
  402MOL0     C54158  11.435   1.821   9.423 -0.3550  0.9767  0.3723
  402MOL0     O54159  11.467   1.896   9.311 -0.1103  0.0571 -0.2641
  402MOL0     C54160  11.594   1.893   9.251 -0.1336 -1.3510  0.4969
  402MOL0     C54161  11.613   1.976   9.142  0.6011  0.4579 -0.2018
  402MOL0     C54162  11.730   1.989   9.067  0.2469  0.3048 -0.2311
  402MOL0     C54163  11.834   1.906   9.104 -0.5588 -1.2225  0.8695
  402MOL0     C54164  11.961   1.901   9.028 -0.0921 -0.5248  0.0459
  402MOL0     O54165  11.940   1.916   8.894 -0.6844 -0.4610 -0.4003
  402MOL0     C54166  12.038   1.861   8.817 -0.6447 -1.0594  0.3369
  402MOL0     C54167  12.159   1.920   8.783 -0.1494 -0.2262  0.1962
  402MOL0     C54168  12.254   1.852   8.704 -0.2882  0.1084 -0.6394
  402MOL0     C54169  12.239   1.712   8.682  0.1392  0.4511 -0.3076
  402MOL0     O54170  12.325   1.637   8.610  0.0961  0.1516 -0.4579
  402MOL0     C54171  12.468   1.668   8.609 -0.6890  0.5729 -0.1233
  402MOL0     C54172  12.542   1.559   8.519  0.1277  0.1056 -1.3784
  402MOL0     C54173  12.565   1.424   8.592  1.2160  0.4984  0.1445
  402MOL0     C54174  12.433   1.339   8.600 -0.0005  0.4322 -0.4844
  402MOL0     C54175  12.457   1.201   8.674  0.1887 -0.0299 -0.7294
  402MOL0     C54176  12.337   1.116   8.656 -0.6623 -0.0950  0.4224
  402MOL0     C54177  12.216   1.158   8.751 -0.6120  0.2891  0.5519
  402MOL0     C54178  12.108   1.051   8.760  0.2230  0.0890 -0.2856
  402MOL0    Cl54179  12.102   1.003   8.928  0.1333  0.3672 -0.0107
  402MOL0     C54180  12.124   1.651   8.722 -0.2541 -0.2052 -0.0608
  402MOL0     C54181  12.015   1.728   8.773 -0.4184  0.7988 -0.1556
  402MOL0     O54182  12.071   1.854   9.075  0.6406  0.4813  0.1597
  402MOL0     C54183  11.821   1.816   9.206 -0.2389  0.0412  0.3699
  402MOL0     C54184  11.705   1.817   9.278  0.3654  0.5225 -0.2333
  402MOL0     N54185  10.962   1.687   9.173 -0.1261 -0.3484 -0.4734
  402MOL0     N54186  10.860   1.681   9.095 -0.1658 -0.2272 -0.6191
  402MOL0     C54187   9.627   1.719   9.271  0.8970 -0.1508 -0.5913
  402MOL0     C54188   9.493   1.691   9.312  0.2408 -0.7665 -0.3574
  402MOL0     C54189   9.049   1.678   9.372 -0.3441 -0.6245  0.3088
  402MOL0     C54190   8.988   1.644   9.247 -0.5521 -0.0276  0.0760
  402MOL0     C54191   8.854   1.642   9.230 -0.6566  0.3262 -0.2251
  402MOL0     C54192   8.769   1.668   9.337 -0.0905 -0.3234 -0.8583
  402MOL0     O54193   8.629   1.671   9.323 -0.2845 -1.2608 -0.1506
  402MOL0     C54194   8.543   1.623   9.421  0.4630  0.0718  0.4788
  402MOL0     C54195   8.432   1.538   9.356  0.2282 -0.5907  0.6856
  402MOL0     C54196   8.364   1.465   9.467 -0.7101  0.1563  0.8804
  402MOL0     C54197   8.254   1.375   9.412 -0.3994 -0.3404 -0.8736
  402MOL0     C54198   8.145   1.425   9.326 -0.2459  0.1610  0.4345
  402MOL0     C54199   8.045   1.451   9.267 -0.2892 -0.0383 -1.2581
  402MOL0     C54200   8.828   1.697   9.465 -0.4705  0.0747  0.6530
  402MOL0     C54201   8.968   1.706   9.481  0.5001  0.6314  0.3424
  402MOL0     C54202   9.014   1.745   9.621  0.1472  0.1205 -0.0287
  402MOL0     H54203   9.344   1.693   9.014  2.3376 -4.4906 -1.3557
  402MOL0     H54204   9.587   1.779   8.947  0.2231 -1.6523 -1.0780
  402MOL0     H54205   9.887   1.796   9.270 -0.2572 -3.3723  0.5731
  402MOL0     H54206   9.887   1.665   9.166  4.2390 -1.6787 -1.3325
  402MOL0     H54207  10.040   1.923   9.106  1.6641 -0.1338 -0.1299
  402MOL0     H54208  10.006   1.794   8.987 -0.9920  0.3714  0.3134
  402MOL0     H54209  10.114   1.629   9.141  0.9230 -0.5274  1.6516
  402MOL0     H54210  10.155   1.757   9.254 -0.2715 -1.1738  0.6131
  402MOL0     H54211  10.245   1.717   8.980  0.5306 -0.5706 -0.1733
  402MOL0     H54212  10.279   1.878   9.053 -1.9346 -0.2954 -0.8443
  402MOL0     H54213  10.382   1.781   9.247  1.1049  1.3596 -1.3740
  402MOL0     H54214  10.366   1.615   9.191  1.7283  0.2785  2.1302
  402MOL0     H54215  10.585   1.677   9.163  1.3390  2.2188  1.5104
  402MOL0     H54216  10.526   1.660   8.998 -1.8997  3.2151 -2.6764
  402MOL0     H54217  10.535   1.926   9.123 -1.2129  0.1774  0.0277
  402MOL0     H54218  10.492   1.880   8.955 -0.3165 -0.5652  0.0781
  402MOL0     H54219  10.721   1.788   8.912  1.3557  1.4178 -1.1350
  402MOL0     H54220  10.724   1.960   8.964 -1.1886  0.1236  0.0066
  402MOL0     H54221  10.843   1.986   9.226  2.4464  0.3205  0.0388
  402MOL0     H54222  11.052   1.948   9.374  0.6324 -0.5953 -1.4169
  402MOL0     H54223  11.029   1.812   9.460  0.0159 -0.7597 -0.6464
  402MOL0     H54224  11.203   1.700   9.331 -1.2394 -0.2692  1.7448
  402MOL0     H54225  11.226   1.840   9.225 -0.7359  0.3881 -0.1295
  402MOL0     H54226  11.258   1.791   9.534 -1.6074 -1.5941 -1.0141
  402MOL0     H54227  11.264   1.950   9.476 -4.9967 -0.2027 -0.3919
  402MOL0     H54228  11.448   1.713   9.416 -2.9632  0.4897  1.6700
  402MOL0     H54229  11.491   1.851   9.512  1.8268  1.0053 -0.9492
  402MOL0     H54230  11.535   2.046   9.113  1.1844  0.0631 -2.9610
  402MOL0     H54231  11.747   2.054   8.983 -0.5498 -1.0061 -1.4612
  402MOL0     H54232  12.164   2.023   8.815 -0.7838  0.1322 -0.8169
  402MOL0     H54233  12.344   1.908   8.682  1.1120 -1.5957  0.4948
  402MOL0     H54234  12.488   1.764   8.559 -0.4700  0.5514 -0.0782
  402MOL0     H54235  12.510   1.668   8.709 -0.6395  1.2348 -0.1386
  402MOL0     H54236  12.489   1.551   8.423  0.8683 -2.6298 -1.6312
  402MOL0     H54237  12.640   1.597   8.488  1.6943 -3.6011 -1.4275
  402MOL0     H54238  12.647   1.369   8.547  0.8434  1.1697 -1.4007
  402MOL0     H54239  12.601   1.451   8.692  2.0375  1.8760 -0.5034
  402MOL0     H54240  12.384   1.316   8.505  0.8661  1.3740 -1.1816
  402MOL0     H54241  12.351   1.392   8.651 -0.1879  1.0639 -1.4308
  402MOL0     H54242  12.472   1.224   8.780 -2.7711  0.2153 -0.2831
  402MOL0     H54243  12.549   1.159   8.633  1.7667 -0.0004  2.4980
  402MOL0     H54244  12.292   1.106   8.557  0.1794  2.2860 -0.2665
  402MOL0     H54245  12.370   1.020   8.695  2.4268  2.1302  3.9952
  402MOL0     H54246  12.169   1.250   8.715 -0.2640  0.3482  0.2469
  402MOL0     H54247  12.261   1.202   8.841  1.3514 -0.6774  0.1004
  402MOL0     H54248  12.016   1.102   8.731  0.8485  0.1903 -2.2668
  402MOL0     H54249  12.115   0.963   8.696 -2.1437  1.8896 -3.3363
  402MOL0     H54250  12.109   1.546   8.699  0.1069 -0.3684  0.4149
  402MOL0     H54251  11.919   1.678   8.779 -0.0692  0.2079  0.7537
  402MOL0     H54252  11.901   1.746   9.230 -0.8407 -0.6336  0.4501
  402MOL0     H54253  11.705   1.740   9.355 -1.6676  0.4922 -0.2056
  402MOL0     H54254   9.694   1.713   9.355 -0.7391 -1.6889  0.6725
  402MOL0     H54255   9.461   1.675   9.414 -0.4987  1.0323 -0.2754
  402MOL0     H54256   9.051   1.622   9.162  0.3980  0.2289  0.6969
  402MOL0     H54257   8.810   1.607   9.137 -2.2072 -1.9538  1.2420
  402MOL0     H54258   8.498   1.707   9.475  0.3830 -0.7381  1.7087
  402MOL0     H54259   8.595   1.559   9.492 -0.3341  0.2456  1.2459
  402MOL0     H54260   8.485   1.469   9.290 -0.2204  1.7247 -2.3227
  402MOL0     H54261   8.368   1.597   9.289  0.6058  0.7196  1.4303
  402MOL0     H54262   8.323   1.533   9.542 -2.1625 -0.7078  0.9113
  402MOL0     H54263   8.440   1.398   9.508 -2.8150 -3.2379 -0.3024
  402MOL0     H54264   8.304   1.298   9.352 -0.4594 -0.2569 -1.0317
  402MOL0     H54265   8.206   1.317   9.491 -2.7940  1.2043 -1.1147
  402MOL0     H54266   7.963   1.472   9.201  0.9031 -1.0874 -3.1929
  402MOL0     H54267   8.763   1.734   9.544  1.1722  0.9021  1.6771
  402MOL0     H54268   8.926   1.761   9.684  0.7942  2.4154  0.4022
  402MOL0     H54269   9.081   1.682   9.680  0.4820  0.9450  0.4969
  402MOL0     H54270   9.051   1.848   9.628  0.4555 -0.0839  1.9579
  403MOL0     O54271   2.450   9.967   5.092  0.2214 -0.4843  0.4958
  403MOL0     C54272   2.448  10.086   5.049  0.0271  0.2728  0.1240
  403MOL0     O54273   2.543  10.144   4.963  0.2707  0.2728 -0.0226
  403MOL0     C54274   2.635  10.073   4.886  0.0700 -0.1076  0.1006
  403MOL0     C54275   2.744  10.156   4.845  0.5642  0.3046  0.2929
  403MOL0     C54276   2.862  10.111   4.778  0.1327 -0.3756 -0.7537
  403MOL0     C54277   2.870   9.969   4.747  0.5539 -0.1809  0.1314
  403MOL0     O54278   2.974   9.908   4.674 -0.6587  0.6901  0.0597
  403MOL0     C54279   3.099   9.973   4.653 -0.7596  0.6861 -0.4718
  403MOL0     C54280   3.191   9.960   4.780 -0.4479 -0.4973 -1.0510
  403MOL0     C54281   3.142  10.017   4.919 -0.6941 -0.0763 -0.2745
  403MOL0     C54282   3.166  10.170   4.923  0.4030  0.0618  0.2777
  403MOL0     C54283   3.065  10.235   5.018  0.4703  0.3699  0.1312
  403MOL0     C54284   3.103  10.219   5.163 -1.0773 -0.1253 -0.5537
  403MOL0     C54285   3.000  10.287   5.258  0.3537  0.3166  0.7327
  403MOL0     C54286   3.017  10.228   5.399 -0.5180  0.1760 -0.6420
  403MOL0     N54287   3.147  10.256   5.463 -1.1700 -0.9726 -0.9097
  403MOL0     C54288   3.176  10.390   5.510  0.1867  0.5576 -0.4203
  403MOL0     C54289   3.297  10.383   5.567 -1.0416  0.2945  0.2489
  403MOL0     C54290   3.386  10.497   5.613  1.3124 -0.6100  0.6893
  403MOL0     C54291   3.521  10.459   5.659  0.1289  0.9882 -0.5820
  403MOL0     C54292   3.609  10.408   5.547 -0.0363  0.0255  1.2903
  403MOL0     C54293   3.757  10.396   5.583  0.4935  0.5277  0.2196
  403MOL0     O54294   3.821  10.337   5.466  0.3827  1.1104 -0.6936
  403MOL0     C54295   3.949  10.285   5.478  0.5821 -1.3654 -0.4265
  403MOL0     C54296   4.017  10.240   5.363  0.9734  0.4797 -0.5058
  403MOL0     C54297   4.136  10.176   5.377 -0.7737 -0.3714  0.8874
  403MOL0     C54298   4.202  10.151   5.494 -0.4833 -0.4905 -0.0066
  403MOL0     C54299   4.335  10.089   5.497  0.8482  0.0672  0.2855
  403MOL0     O54300   4.402  10.088   5.379  0.3745  0.2808 -0.1663
  403MOL0     C54301   4.514  10.023   5.359  1.3039 -0.0337 -0.8040
  403MOL0     C54302   4.589   9.939   5.438  0.0988 -0.7660  0.7238
  403MOL0     C54303   4.711   9.893   5.377  0.8132 -0.8064 -0.7024
  403MOL0     C54304   4.752   9.929   5.251 -0.0321  0.7577  0.0384
  403MOL0     O54305   4.875   9.885   5.223  0.1885  0.6530 -0.1687
  403MOL0     C54306   4.892   9.852   5.085 -0.3222  0.1405  0.8247
  403MOL0     C54307   4.973   9.721   5.062 -0.1017 -0.4692  1.0260
  403MOL0     C54308   5.119   9.730   5.116  0.1442 -0.5499 -0.1391
  403MOL0     C54309   5.203   9.616   5.057 -0.2950 -0.2555  0.5489
  403MOL0     C54310   5.350   9.644   5.094 -0.2513 -0.4638  0.2323
  403MOL0     C54311   5.453   9.547   5.032 -0.7432 -0.1555 -0.2713
  403MOL0     C54312   5.453   9.527   4.875 -0.5088 -0.0551 -0.1633
  403MOL0     C54313   5.600   9.522   4.803  0.6984 -0.2289  0.4141
  403MOL0    Cl54314   5.610   9.660   4.693 -0.3266  0.0068  0.1851
  403MOL0     C54315   4.677  10.020   5.174 -0.7325 -0.1264 -0.0113
  403MOL0     C54316   4.551  10.051   5.229 -1.1472  0.7023  0.8588
  403MOL0     O54317   4.368  10.038   5.601  0.3782  0.7553 -0.4646
  403MOL0     C54318   4.143  10.212   5.610  0.1831  1.1093  0.2170
  403MOL0     C54319   4.015  10.280   5.603 -0.3485  0.8252 -0.6647
  403MOL0     N54320   3.329  10.243   5.585 -0.0788 -0.1488  0.1229
  403MOL0     N54321   3.240  10.167   5.516 -0.9307 -0.3153  0.4413
  403MOL0     C54322   2.756   9.887   4.782  0.4065  0.6861 -0.6136
  403MOL0     C54323   2.652   9.936   4.861 -0.2252  0.0634  0.2344
  403MOL0     C54324   2.349  10.176   5.105 -0.0336 -0.1425 -0.1594
  403MOL0     C54325   2.374  10.313   5.087 -1.0045  1.0738  0.1564
  403MOL0     C54326   2.279  10.412   5.119  0.1480 -0.2057  0.8328
  403MOL0     C54327   2.162  10.365   5.183 -0.0201  0.2665  0.0181
  403MOL0     O54328   2.055  10.430   5.229 -0.4485 -0.2984  0.2558
  403MOL0     C54329   2.035  10.573   5.188  0.5860  0.5566  0.3918
  403MOL0     C54330   1.997  10.589   5.047 -0.4149  0.8294  0.1119
  403MOL0     C54331   1.966  10.739   5.005 -0.2698 -0.5826  0.8701
  403MOL0     C54332   1.835  10.780   5.055  0.9285  0.0494 -0.4289
  403MOL0     C54333   1.736  10.716   4.968 -0.3221 -0.5373  0.8965
  403MOL0     C54334   1.669  10.631   4.917  0.8821 -0.9905  0.3241
  403MOL0     C54335   2.147  10.233   5.220 -0.0264 -0.1058  0.3963
  403MOL0     C54336   2.234  10.133   5.168  0.1309 -0.3809 -0.5348
  403MOL0     C54337   2.180   9.995   5.198  0.1599  0.3327 -0.0036
  403MOL0     H54338   2.720  10.260   4.867  1.2919  0.7036 -0.7471
  403MOL0     H54339   2.940  10.182   4.753 -0.0567  0.9286  1.9191
  403MOL0     H54340   3.151   9.919   4.573  0.8603 -2.3361  2.4017
  403MOL0     H54341   3.096  10.078   4.621 -0.1649  0.8469 -0.0288
  403MOL0     H54342   3.279  10.015   4.748 -0.2262 -0.0076  0.3423
  403MOL0     H54343   3.228   9.858   4.795  2.1508  0.5659  0.2508
  403MOL0     H54344   3.200   9.973   5.001 -1.9290  0.1895  0.7714
  403MOL0     H54345   3.037   9.990   4.926  0.6343 -6.5253  0.5971
  403MOL0     H54346   3.267  10.197   4.956  1.2331 -0.6081 -1.6082
  403MOL0     H54347   3.163  10.193   4.816 -1.3460 -1.2291  0.0035
  403MOL0     H54348   3.061  10.340   4.987  3.0336  0.3769 -0.3587
  403MOL0     H54349   2.963  10.197   5.008 -0.2963  2.5766 -1.3941
  403MOL0     H54350   3.114  10.113   5.188  0.1675 -0.1848 -1.2628
  403MOL0     H54351   3.200  10.265   5.185 -1.9350  1.5635 -0.0962
  403MOL0     H54352   2.894  10.278   5.232  0.2739 -0.9239  1.4555
  403MOL0     H54353   3.022  10.393   5.277  1.1854 -0.2700  3.4145
  403MOL0     H54354   2.940  10.281   5.457  1.6454  0.4825  2.2250
  403MOL0     H54355   3.002  10.120   5.403 -2.1152  0.4011  1.2580
  403MOL0     H54356   3.138  10.480   5.462 -0.7357 -0.2127 -1.1700
  403MOL0     H54357   3.408  10.571   5.535 -0.8587 -1.1109 -0.4539
  403MOL0     H54358   3.334  10.558   5.688 -0.4246 -1.1947 -0.0012
  403MOL0     H54359   3.575  10.544   5.701 -0.3668  0.8757  0.2937
  403MOL0     H54360   3.503  10.382   5.734 -1.5282  0.9115 -1.0271
  403MOL0     H54361   3.598  10.470   5.458  0.1261 -0.9504  0.5702
  403MOL0     H54362   3.574  10.308   5.521  0.0612  0.4245 -0.5088
  403MOL0     H54363   3.776  10.326   5.665  4.2840  1.2032  0.1024
  403MOL0     H54364   3.791  10.493   5.621  0.9938 -0.1636  1.6176
  403MOL0     H54365   3.967  10.251   5.267 -1.1051  0.4018  0.5056
  403MOL0     H54366   4.183  10.152   5.283  3.6140 -0.3179  2.8075
  403MOL0     H54367   4.551   9.914   5.537 -0.2715 -3.9307 -0.1195
  403MOL0     H54368   4.783   9.828   5.427 -0.5766 -0.5480  1.7883
  403MOL0     H54369   4.794   9.836   5.038  1.1290 -1.9805 -1.7144
  403MOL0     H54370   4.946   9.926   5.027 -0.4707 -0.3233  0.0837
  403MOL0     H54371   4.921   9.642   5.117 -0.8264 -0.1134  0.8587
  403MOL0     H54372   4.973   9.691   4.957  1.9952  1.7073  0.3100
  403MOL0     H54373   5.167   9.825   5.091  1.0338 -1.4855 -2.1372
  403MOL0     H54374   5.106   9.720   5.224  0.2856  1.3953  0.0927
  403MOL0     H54375   5.186   9.618   4.949 -0.5220  4.0972  0.4908
  403MOL0     H54376   5.174   9.517   5.094 -0.2533  0.2672  2.0601
  403MOL0     H54377   5.365   9.626   5.201  0.2032 -2.6220 -0.1339
  403MOL0     H54378   5.378   9.747   5.072 -0.1603 -0.9400 -2.1081
  403MOL0     H54379   5.549   9.593   5.054  0.8813 -3.5292  0.3690
  403MOL0     H54380   5.444   9.447   5.077 -2.0757 -1.0679 -2.4008
  403MOL0     H54381   5.392   9.606   4.832 -0.5251  0.1505  0.2313
  403MOL0     H54382   5.391   9.441   4.851 -2.3510  1.5168 -1.3359
  403MOL0     H54383   5.675   9.531   4.882  0.4873  2.3183  0.3999
  403MOL0     H54384   5.625   9.437   4.739  5.1589 -1.2396  3.0737
  403MOL0     H54385   4.712  10.031   5.072  2.2413 -1.8615  0.7075
  403MOL0     H54386   4.483  10.096   5.158  0.2909  1.9926  0.2576
  403MOL0     H54387   4.207  10.202   5.697  0.3199 -1.8413 -0.1240
  403MOL0     H54388   3.993  10.319   5.701  0.0264 -1.3996  0.3696
  403MOL0     H54389   2.764   9.782   4.755  1.3940  0.2149  1.3323
  403MOL0     H54390   2.583   9.857   4.886 -2.2329  1.5073 -0.4465
  403MOL0     H54391   2.468  10.348   5.046 -0.8483  2.0324  1.2767
  403MOL0     H54392   2.295  10.517   5.100  1.9704  0.0005  3.1938
  403MOL0     H54393   2.122  10.640   5.195  1.8075 -1.0333  0.9883
  403MOL0     H54394   1.956  10.607   5.255  0.3638 -0.4496  0.6469
  403MOL0     H54395   1.905  10.530   5.032 -0.3589  0.5124  0.9496
  403MOL0     H54396   2.081  10.557   4.984 -1.7624 -0.4229 -1.1421
  403MOL0     H54397   1.966  10.747   4.896 -2.2862  3.0399  0.9799
  403MOL0     H54398   2.035  10.813   5.048 -0.8780 -0.2270  1.2426
  403MOL0     H54399   1.817  10.759   5.160  1.6544 -1.1806 -0.5275
  403MOL0     H54400   1.832  10.887   5.029  1.3720  0.2630  0.3826
  403MOL0     H54401   1.606  10.557   4.872 -1.1354  1.1919 -0.6564
  403MOL0     H54402   2.075  10.199   5.294  2.1288 -1.7478  1.8601
  403MOL0     H54403   2.074  10.003   5.224  0.4168 -0.5180  1.3863
  403MOL0     H54404   2.179   9.930   5.110  1.8211 -1.3129  1.1326
  403MOL0     H54405   2.234   9.943   5.278 -0.6073 -1.9213 -0.8713
  404MOL0     O54406   2.429   8.257  10.666  0.3140 -0.2035  0.1334
  404MOL0     C54407   2.350   8.182  10.619  1.7085 -0.2455  0.2072
  404MOL0     O54408   2.348   8.047  10.624 -0.0074  1.1747  0.6287
  404MOL0     C54409   2.464   7.998  10.680 -0.6596 -0.5093  0.1341
  404MOL0     C54410   2.484   7.866  10.649  0.0888 -0.4820 -0.3655
  404MOL0     C54411   2.591   7.785  10.698  0.3931  0.5830  0.6149
  404MOL0     C54412   2.697   7.841  10.758  0.8351 -0.9647 -0.2830
  404MOL0     O54413   2.820   7.785  10.780  0.2734  0.2789  0.4349
  404MOL0     C54414   2.857   7.660  10.716 -0.4945  0.0359  0.0189
  404MOL0     C54415   3.009   7.649  10.689 -0.3973  0.7700 -0.5430
  404MOL0     C54416   3.071   7.772  10.625 -0.4276 -1.0946 -0.3730
  404MOL0     C54417   3.221   7.758  10.598 -1.4176  0.0062 -0.2580
  404MOL0     C54418   3.291   7.794  10.730 -0.7172  0.2818  0.3643
  404MOL0     C54419   3.447   7.797  10.703  0.9198  0.5162  0.1539
  404MOL0     C54420   3.506   7.656  10.731  0.0064  0.6055 -0.1320
  404MOL0     C54421   3.652   7.648  10.694 -0.2408 -0.2390  0.1907
  404MOL0     N54422   3.729   7.723  10.785  0.5239  0.0786  0.4125
  404MOL0     C54423   3.805   7.669  10.894 -0.0355 -0.1983  0.3667
  404MOL0     C54424   3.869   7.777  10.950 -1.6242 -0.2229 -0.3327
  404MOL0     C54425   3.951   7.779  11.071  0.9659 -0.2294  0.5672
  404MOL0     C54426   4.063   7.670  11.069  0.3437  0.7310 -0.0487
  404MOL0     C54427   4.133   7.679  11.204  0.3607  0.3443  0.2825
  404MOL0     C54428   4.264   7.596  11.206  0.2003 -0.1531  0.4538
  404MOL0     O54429   4.325   7.608  11.333 -0.1205 -0.0744 -0.4042
  404MOL0     C54430   4.455   7.577  11.351 -0.2100  0.0571 -0.3259
  404MOL0     C54431   4.531   7.507  11.256 -0.1059  0.3391  0.2053
  404MOL0     C54432   4.664   7.475  11.288 -1.1412  0.3344 -0.6536
  404MOL0     C54433   4.728   7.523  11.403  0.3349  0.5533  0.0521
  404MOL0     C54434   4.873   7.491  11.423  0.9867 -0.9554 -0.5641
  404MOL0     O54435   4.937   7.421  11.328  0.1858  0.5323 -0.7556
  404MOL0     C54436   5.067   7.383  11.344 -0.2631  0.2149 -0.2050
  404MOL0     C54437   5.139   7.373  11.227  0.5269  0.2473  0.6407
  404MOL0     C54438   5.278   7.351  11.224 -0.6662 -1.6134 -0.3659
  404MOL0     C54439   5.361   7.338  11.339 -0.1092  0.5128 -0.3841
  404MOL0     O54440   5.495   7.307  11.331 -0.1370 -0.2214 -0.4434
  404MOL0     C54441   5.578   7.339  11.446  0.0361  1.0122  0.7953
  404MOL0     C54442   5.731   7.334  11.412  0.3067  0.4165 -0.1968
  404MOL0     C54443   5.789   7.193  11.392 -0.5984  0.5251  0.1561
  404MOL0     C54444   5.932   7.173  11.416  0.0723 -0.3500 -0.0565
  404MOL0     C54445   6.025   7.212  11.297 -0.2924  0.8114 -0.4745
  404MOL0     C54446   6.162   7.130  11.314 -0.4526  0.0450 -0.2875
  404MOL0     C54447   6.257   7.158  11.196 -1.6918 -0.3389 -0.0998
  404MOL0     C54448   6.412   7.146  11.219  0.3672 -0.7503 -0.0058
  404MOL0    Cl54449   6.446   6.980  11.281  0.2310 -0.2069 -0.0928
  404MOL0     C54450   5.287   7.332  11.458 -0.0960 -0.3386 -0.0697
  404MOL0     C54451   5.151   7.356  11.458  0.6844  0.7942 -0.7648
  404MOL0     O54452   4.924   7.533  11.526  0.3092 -0.5503  0.2101
  404MOL0     C54453   4.649   7.599  11.494 -0.2888 -0.5644 -0.2797
  404MOL0     C54454   4.518   7.620  11.471 -0.3210  0.1981  0.5689
  404MOL0     N54455   3.843   7.887  10.882  0.8306 -0.0708  0.1290
  404MOL0     N54456   3.754   7.860  10.780  0.7757  0.1159  0.2977
  404MOL0     C54457   2.678   7.973  10.795  0.1719  0.2657  0.6136
  404MOL0     C54458   2.572   8.052  10.753 -0.1186  0.5345 -0.6456
  404MOL0     C54459   2.222   8.239  10.553 -0.3467  0.4840 -0.5154
  404MOL0     C54460   2.190   8.356  10.607  0.6945 -0.1598  0.1729
  404MOL0     C54461   2.088   8.432  10.555  0.6724  0.5111  0.7615
  404MOL0     C54462   2.012   8.384  10.447 -0.2707  0.8206  0.3907
  404MOL0     O54463   1.902   8.451  10.389 -0.0300  0.3104 -0.0402
  404MOL0     C54464   1.855   8.572  10.444  0.7172 -0.5862  0.4960
  404MOL0     C54465   1.728   8.611  10.368 -0.4191 -0.7715 -1.3365
  404MOL0     C54466   1.652   8.723  10.438 -1.2658 -0.5574  0.1012
  404MOL0     C54467   1.525   8.782  10.368  0.5450  0.2249  1.1654
  404MOL0     C54468   1.445   8.856  10.463 -0.5047 -0.2546  0.0408
  404MOL0     C54469   1.379   8.927  10.543 -0.4815 -0.5883  0.0908
  404MOL0     C54470   2.040   8.259  10.400 -0.1222 -0.5863 -0.6015
  404MOL0     C54471   2.144   8.183  10.449  0.2991  0.7705 -0.4433
  404MOL0     C54472   2.185   8.055  10.371 -0.3759 -0.6881  0.3428
  404MOL0     H54473   2.400   7.830  10.590  1.1801  0.0387 -2.3020
  404MOL0     H54474   2.588   7.682  10.664  0.8838  0.1755  1.7753
  404MOL0     H54475   2.840   7.565  10.767  1.4289 -0.6176 -0.4965
  404MOL0     H54476   2.826   7.654  10.611  2.9535  0.3458 -1.1438
  404MOL0     H54477   3.019   7.562  10.624 -1.8961  1.1869 -1.3591
  404MOL0     H54478   3.068   7.622  10.777  2.2335 -1.1909 -2.7359
  404MOL0     H54479   3.050   7.851  10.698  1.7695 -0.0301 -0.8049
  404MOL0     H54480   3.017   7.795  10.532 -1.5502 -1.2714  0.2236
  404MOL0     H54481   3.247   7.658  10.562 -3.1534 -0.0647 -1.4225
  404MOL0     H54482   3.251   7.824  10.516  2.0003  0.3749  1.1010
  404MOL0     H54483   3.253   7.892  10.759 -0.8273 -0.3007  2.3745
  404MOL0     H54484   3.265   7.727  10.813  1.8053  1.1137  1.9720
  404MOL0     H54485   3.468   7.850  10.610 -2.0802  5.1379  1.7665
  404MOL0     H54486   3.493   7.856  10.782  0.5896  0.9176  0.0504
  404MOL0     H54487   3.455   7.578  10.674 -1.0999  1.4620 -0.3430
  404MOL0     H54488   3.496   7.623  10.835  1.9120 -0.1778 -0.1508
  404MOL0     H54489   3.688   7.546  10.681 -0.2682 -0.0853 -1.2280
  404MOL0     H54490   3.669   7.691  10.595 -3.5181  1.6140  0.3024
  404MOL0     H54491   3.812   7.563  10.916 -2.1036 -0.6660 -0.9796
  404MOL0     H54492   4.003   7.875  11.077  0.5388 -0.0330  1.4019
  404MOL0     H54493   3.893   7.762  11.163  0.9638 -1.0278  0.4213
  404MOL0     H54494   4.020   7.570  11.057  0.4048  0.9110 -2.0081
  404MOL0     H54495   4.135   7.677  10.988 -0.5387 -0.0917 -0.9273
  404MOL0     H54496   4.068   7.651  11.287 -1.6487 -0.3952 -1.4648
  404MOL0     H54497   4.165   7.782  11.220  0.5982  0.3890 -0.4401
  404MOL0     H54498   4.329   7.634  11.127  1.5080 -1.1954  0.9859
  404MOL0     H54499   4.240   7.490  11.188 -0.2474 -0.6395  3.5028
  404MOL0     H54500   4.495   7.469  11.161  2.5436  3.5822 -2.3554
  404MOL0     H54501   4.711   7.412  11.213  1.5596  0.5064  0.7861
  404MOL0     H54502   5.090   7.387  11.131  1.8420 -0.0908 -0.0915
  404MOL0     H54503   5.324   7.340  11.126 -1.3456 -0.4281 -0.8416
  404MOL0     H54504   5.556   7.444  11.470 -1.6964  1.0161 -0.5569
  404MOL0     H54505   5.548   7.274  11.528 -1.1256 -2.2956 -2.0347
  404MOL0     H54506   5.744   7.391  11.320  2.1171 -0.0587 -0.2902
  404MOL0     H54507   5.794   7.395  11.477 -0.1340  1.2010 -0.5028
  404MOL0     H54508   5.743   7.127  11.467 -0.9257 -1.2555 -1.5122
  404MOL0     H54509   5.763   7.153  11.293 -0.7005  3.4524 -1.0862
  404MOL0     H54510   5.956   7.069  11.439  1.1442  0.0419  0.6974
  404MOL0     H54511   5.949   7.235  11.505 -1.2754  0.2518 -0.2008
  404MOL0     H54512   6.037   7.319  11.316  1.2976  0.0635  3.7962
  404MOL0     H54513   5.973   7.197  11.202 -1.3615 -1.4746  0.4026
  404MOL0     H54514   6.214   7.154  11.407  0.2026 -4.6910  0.7966
  404MOL0     H54515   6.138   7.023  11.313 -2.5173  0.4598 -0.4171
  404MOL0     H54516   6.242   7.264  11.170  1.5764  0.1970 -0.2890
  404MOL0     H54517   6.229   7.099  11.108  3.5611 -1.9187 -1.0443
  404MOL0     H54518   6.477   7.168  11.133  1.0257  1.5969  1.0061
  404MOL0     H54519   6.434   7.231  11.284  0.8265 -0.0288 -1.0683
  404MOL0     H54520   5.339   7.318  11.552 -0.0763  0.2289  0.0083
  404MOL0     H54521   5.096   7.347  11.551  1.4149  0.2461 -0.3723
  404MOL0     H54522   4.691   7.639  11.586 -1.6226 -2.0595  1.0510
  404MOL0     H54523   4.456   7.666  11.547 -1.7552 -1.6969  0.6172
  404MOL0     H54524   2.769   8.015  10.838  0.4075  0.4285 -0.0359
  404MOL0     H54525   2.566   8.148  10.804  1.2317  0.9249 -1.1834
  404MOL0     H54526   2.242   8.391  10.696  3.1466  1.8880 -1.9215
  404MOL0     H54527   2.068   8.528  10.602  1.6298  1.5619 -0.8935
  404MOL0     H54528   1.931   8.651  10.436  1.4023 -1.4385 -2.4780
  404MOL0     H54529   1.828   8.541  10.545 -1.6385 -4.0240 -1.0055
  404MOL0     H54530   1.655   8.529  10.365 -2.2985  0.8236 -1.3258
  404MOL0     H54531   1.759   8.636  10.266  2.9112  0.1135 -0.2162
  404MOL0     H54532   1.721   8.808  10.442 -1.8112 -0.0783 -0.4466
  404MOL0     H54533   1.623   8.692  10.539  1.6252  3.4616  2.4514
  404MOL0     H54534   1.558   8.837  10.280 -0.3042 -0.2079  0.5710
  404MOL0     H54535   1.462   8.700  10.331 -0.5956  0.6254  2.1586
  404MOL0     H54536   1.319   8.992  10.603 -2.0729  0.5320 -2.5315
  404MOL0     H54537   1.972   8.222  10.324 -1.0775  1.6831 -0.9103
  404MOL0     H54538   2.110   8.022  10.299  0.9351  0.3729 -1.5992
  404MOL0     H54539   2.276   8.076  10.313 -1.4543  1.6976 -0.6160
  404MOL0     H54540   2.209   7.972  10.439  2.3924  0.8140  1.3702
  405MOL0     O54541   6.775   4.050   3.984 -0.5861  0.2200 -0.5289
  405MOL0     C54542   6.709   3.983   3.904 -0.3067  0.5175  0.4558
  405MOL0     O54543   6.650   4.031   3.783  0.4245  0.7425 -0.5259
  405MOL0     C54544   6.618   4.166   3.788  0.2696 -0.3065  0.3789
  405MOL0     C54545   6.555   4.227   3.900 -0.1199  0.1637  1.1101
  405MOL0     C54546   6.516   4.357   3.885  0.6819 -0.3376  0.3080
  405MOL0     C54547   6.553   4.433   3.769  0.8800 -0.4793  0.0936
  405MOL0     O54548   6.526   4.564   3.743  0.2711 -0.5014 -0.1327
  405MOL0     C54549   6.496   4.658   3.851  0.8265  0.2225  0.7175
  405MOL0     C54550   6.365   4.729   3.802  0.3810  0.1703 -0.1534
  405MOL0     C54551   6.385   4.802   3.675 -0.2574 -0.7580  0.7675
  405MOL0     C54552   6.263   4.875   3.611  1.0021  0.2938 -0.3653
  405MOL0     C54553   6.279   4.951   3.486 -0.5520  0.6735 -0.1698
  405MOL0     C54554   6.399   5.047   3.499 -0.8881 -0.5611  0.7437
  405MOL0     C54555   6.411   5.144   3.386 -0.1710  0.4523 -0.2762
  405MOL0     C54556   6.554   5.186   3.365  0.9920 -0.2363 -0.6065
  405MOL0     N54557   6.556   5.294   3.263 -0.0961  0.8364 -0.3217
  405MOL0     C54558   6.586   5.268   3.131  0.0883  0.0076  0.4541
  405MOL0     C54559   6.591   5.398   3.076 -0.1777  0.0794  0.0129
  405MOL0     C54560   6.626   5.429   2.928 -0.9722  0.1217 -0.1854
  405MOL0     C54561   6.523   5.509   2.845  0.1769 -0.4426  0.2178
  405MOL0     C54562   6.586   5.576   2.720  0.3701 -0.4471  0.4363
  405MOL0     C54563   6.480   5.666   2.633 -0.7441  0.9085 -0.3925
  405MOL0     O54564   6.395   5.564   2.570  0.3735  0.1196  0.0446
  405MOL0     C54565   6.419   5.526   2.442 -0.3599 -0.3827 -0.0325
  405MOL0     C54566   6.315   5.469   2.370  0.2468 -0.2690  1.3324
  405MOL0     C54567   6.332   5.417   2.239 -0.8499 -0.2761 -0.2419
  405MOL0     C54568   6.463   5.418   2.180 -0.0487  0.2808  0.4079
  405MOL0     C54569   6.492   5.354   2.047 -0.5439 -0.3877  0.5215
  405MOL0     O54570   6.614   5.365   1.989 -0.4085 -0.7674  0.1043
  405MOL0     C54571   6.625   5.322   1.858  0.2236 -0.5310 -1.0255
  405MOL0     C54572   6.716   5.224   1.829 -0.1382  0.7400 -0.2343
  405MOL0     C54573   6.735   5.186   1.694  0.4413  1.0034  0.4887
  405MOL0     C54574   6.660   5.239   1.589 -0.0032 -0.7839 -0.9661
  405MOL0     O54575   6.673   5.210   1.458  0.5337  0.8352  0.1420
  405MOL0     C54576   6.804   5.166   1.409 -0.3443  0.4601  0.4471
  405MOL0     C54577   6.910   5.277   1.419 -0.7216 -0.3057 -0.7028
  405MOL0     C54578   6.853   5.410   1.369  0.8992 -0.2501  0.1096
  405MOL0     C54579   6.820   5.400   1.219  0.1350  0.0991 -0.3655
  405MOL0     C54580   6.801   5.532   1.158 -0.1192 -0.3637 -0.0903
  405MOL0     C54581   6.935   5.591   1.106 -0.1300  0.1413 -1.0320
  405MOL0     C54582   6.922   5.708   1.006  1.7625 -1.0790  0.5136
  405MOL0     C54583   6.850   5.822   1.079 -0.3713 -0.1977  0.1814
  405MOL0    Cl54584   6.948   5.901   1.212 -0.0940  0.4139  0.4597
  405MOL0     C54585   6.572   5.343   1.620 -0.0370 -0.3933 -0.7102
  405MOL0     C54586   6.549   5.385   1.755 -0.1151  1.0368  0.4215
  405MOL0     O54587   6.394   5.307   1.990  0.4315  0.2318 -0.3956
  405MOL0     C54588   6.567   5.476   2.261 -0.7068  0.8281 -1.5504
  405MOL0     C54589   6.548   5.536   2.385  0.9114 -0.2436  0.6532
  405MOL0     N54590   6.553   5.493   3.164 -0.3594  0.0547 -0.4086
  405MOL0     N54591   6.542   5.432   3.285  0.2122  0.0592  0.2093
  405MOL0     C54592   6.612   4.367   3.662  0.0898  0.5655 -0.5129
  405MOL0     C54593   6.648   4.240   3.673  0.0670  0.5091  0.5418
  405MOL0     C54594   6.687   3.838   3.942  0.1412 -0.2249 -0.2010
  405MOL0     C54595   6.656   3.754   3.840 -0.1908 -0.0074 -0.3862
  405MOL0     C54596   6.646   3.616   3.851  0.1523  0.2622 -0.4977
  405MOL0     C54597   6.666   3.553   3.974  1.0606  0.0213  0.5266
  405MOL0     O54598   6.661   3.417   3.996  0.1353  0.1620  0.4431
  405MOL0     C54599   6.613   3.330   3.891 -0.0353  0.1323  0.9261
  405MOL0     C54600   6.614   3.180   3.924  0.5612  1.0738 -0.1840
  405MOL0     C54601   6.752   3.124   3.949  0.1483  0.3172  0.0424
  405MOL0     C54602   6.747   2.981   4.001 -0.0033  0.5240 -0.4877
  405MOL0     C54603   6.712   2.979   4.139  0.3644 -0.9284 -0.2138
  405MOL0     C54604   6.698   2.990   4.259  0.1816  0.0664 -0.1903
  405MOL0     C54605   6.684   3.629   4.079  0.2304  0.3835 -0.4707
  405MOL0     C54606   6.689   3.772   4.071  0.4642 -0.2644  0.1070
  405MOL0     C54607   6.690   3.838   4.198  0.7305  0.4213  0.2614
  405MOL0     H54608   6.531   4.176   3.993  2.0743  1.0978  2.2873
  405MOL0     H54609   6.449   4.394   3.962  2.0108 -1.3983  2.0464
  405MOL0     H54610   6.489   4.619   3.953  0.6031 -1.2298  0.1663
  405MOL0     H54611   6.580   4.728   3.858 -0.3900  1.8829 -0.4867
  405MOL0     H54612   6.333   4.794   3.885 -0.5004 -0.2936 -0.1248
  405MOL0     H54613   6.282   4.659   3.790 -2.5247  3.0797  1.2924
  405MOL0     H54614   6.421   4.734   3.597 -2.3849 -0.6718 -0.3544
  405MOL0     H54615   6.469   4.868   3.700 -0.5168 -1.1864  2.9735
  405MOL0     H54616   6.184   4.802   3.593  1.8549 -0.9046  0.5683
  405MOL0     H54617   6.224   4.948   3.682  0.7930  1.5117 -1.6882
  405MOL0     H54618   6.292   4.884   3.400  2.7421 -0.6215  1.1802
  405MOL0     H54619   6.192   5.016   3.474 -1.0148  0.0236 -0.4102
  405MOL0     H54620   6.388   5.108   3.589  3.4089  0.0523  1.0611
  405MOL0     H54621   6.493   4.992   3.494  0.0462  0.9507  0.9057
  405MOL0     H54622   6.348   5.233   3.396 -0.9664 -0.1061 -0.2735
  405MOL0     H54623   6.381   5.094   3.294  0.5313  1.7016 -1.2224
  405MOL0     H54624   6.598   5.238   3.451  3.7734  0.0934 -2.0980
  405MOL0     H54625   6.623   5.103   3.346  0.1576 -1.9460  2.8354
  405MOL0     H54626   6.608   5.172   3.085 -3.6773 -0.7891  0.0193
  405MOL0     H54627   6.719   5.487   2.932 -1.0460  0.1717  0.9631
  405MOL0     H54628   6.640   5.334   2.874 -2.3131 -0.4282  0.3913
  405MOL0     H54629   6.436   5.449   2.817 -2.7109  3.5460 -0.2869
  405MOL0     H54630   6.487   5.594   2.904 -1.6043 -1.1171  0.1704
  405MOL0     H54631   6.641   5.512   2.651  0.4170  0.7160 -0.6581
  405MOL0     H54632   6.665   5.643   2.757 -1.3732  0.9568  1.8055
  405MOL0     H54633   6.514   5.734   2.554 -3.2841  0.3151 -2.1289
  405MOL0     H54634   6.412   5.718   2.700 -1.9401 -2.4861  1.2873
  405MOL0     H54635   6.216   5.469   2.415 -0.4494  0.1812 -0.1490
  405MOL0     H54636   6.256   5.357   2.191  0.8972 -2.5792 -0.2877
  405MOL0     H54637   6.784   5.182   1.902  1.0259  4.0348  0.7621
  405MOL0     H54638   6.815   5.117   1.670  1.0357  1.7141  0.3895
  405MOL0     H54639   6.839   5.076   1.460 -1.1249 -0.3583 -0.4430
  405MOL0     H54640   6.809   5.130   1.306 -1.2437  1.2000  0.1270
  405MOL0     H54641   6.942   5.295   1.522 -0.0958 -2.4026 -0.4885
  405MOL0     H54642   6.994   5.260   1.352 -1.7400 -0.5789 -1.9571
  405MOL0     H54643   6.759   5.439   1.419 -0.0159 -1.2240 -0.9914
  405MOL0     H54644   6.922   5.495   1.381  0.5684  0.0217  0.1203
  405MOL0     H54645   6.729   5.343   1.198  0.3577 -0.6584  0.6648
  405MOL0     H54646   6.901   5.347   1.168  1.1400 -1.7345  2.8517
  405MOL0     H54647   6.760   5.609   1.225 -0.9124  1.7985 -2.8444
  405MOL0     H54648   6.736   5.522   1.070  1.6209 -2.2910 -1.2550
  405MOL0     H54649   6.989   5.625   1.195 -1.1864 -2.2611  0.6527
  405MOL0     H54650   7.000   5.511   1.068  1.6785  0.9447  0.2100
  405MOL0     H54651   6.870   5.674   0.915  1.0743 -0.0912  0.5241
  405MOL0     H54652   7.020   5.747   0.976  1.2641 -1.9692 -2.6616
  405MOL0     H54653   6.833   5.906   1.010  1.0461  2.1030  2.4494
  405MOL0     H54654   6.757   5.780   1.117  0.9271 -1.9750  1.5753
  405MOL0     H54655   6.511   5.388   1.542  0.1071 -1.1325 -1.2583
  405MOL0     H54656   6.483   5.468   1.776  2.6684  2.7898  3.0711
  405MOL0     H54657   6.665   5.464   2.216  0.3017  0.3622  0.6503
  405MOL0     H54658   6.625   5.582   2.446  0.8648 -2.4893  2.5709
  405MOL0     H54659   6.638   4.420   3.571 -0.1585 -0.6232 -1.2862
  405MOL0     H54660   6.694   4.175   3.600  1.1998 -0.6860  2.2574
  405MOL0     H54661   6.654   3.799   3.741  0.4371  1.0115  0.0417
  405MOL0     H54662   6.614   3.559   3.764 -2.5422 -0.5956  0.9444
  405MOL0     H54663   6.678   3.338   3.803  0.0309  1.2777  1.0654
  405MOL0     H54664   6.509   3.354   3.868 -1.2080 -0.0325  5.3295
  405MOL0     H54665   6.567   3.124   3.842  0.1924 -1.0889  1.4091
  405MOL0     H54666   6.555   3.162   4.014 -0.6370  1.4755 -0.8671
  405MOL0     H54667   6.808   3.187   4.019 -2.1891  4.0824 -1.1848
  405MOL0     H54668   6.803   3.127   3.852  0.9466  2.5558  0.4749
  405MOL0     H54669   6.674   2.922   3.945 -1.0406  1.1979  0.1350
  405MOL0     H54670   6.849   2.942   3.991  1.3720  3.8192 -0.6295
  405MOL0     H54671   6.678   2.984   4.365  2.6130 -0.1330  0.3180
  405MOL0     H54672   6.678   3.580   4.175  0.5716 -0.0477 -0.6691
  405MOL0     H54673   6.646   3.780   4.280  0.5783 -0.8428 -0.6842
  405MOL0     H54674   6.797   3.832   4.221  0.2894 -2.4441  2.0619
  405MOL0     H54675   6.661   3.944   4.202 -0.7313  0.0354  0.5958
  406MOL0     O54676   4.385   2.960  10.647 -0.5741 -0.7204 -0.5990
  406MOL0     C54677   4.282   2.970  10.578  0.0484 -0.6020  0.8970
  406MOL0     O54678   4.278   3.042  10.470  0.9565  0.2986 -0.4172
  406MOL0     C54679   4.367   3.136  10.455  0.5373  0.3471  0.2356
  406MOL0     C54680   4.469   3.126  10.365 -0.1029  0.5818 -0.0236
  406MOL0     C54681   4.575   3.223  10.361 -0.0306  0.0951  0.2252
  406MOL0     C54682   4.573   3.337  10.450  0.2917  0.5525  0.2927
  406MOL0     O54683   4.671   3.429  10.430  0.3536 -0.2883 -0.4676
  406MOL0     C54684   4.694   3.525  10.531  0.3320  0.6728  0.8191
  406MOL0     C54685   4.771   3.637  10.469  0.6169 -0.3961  0.7898
  406MOL0     C54686   4.899   3.601  10.397  0.0951  0.4057 -0.1343
  406MOL0     C54687   4.990   3.717  10.354  0.2131  0.1682 -0.2340
  406MOL0     C54688   4.909   3.833  10.300 -0.0691 -0.5136  0.5246
  406MOL0     C54689   4.999   3.939  10.226  0.9379 -0.4689  0.5287
  406MOL0     C54690   5.099   4.013  10.314 -0.7038  0.0184 -1.0969
  406MOL0     C54691   5.190   4.114  10.227 -0.3118  0.2140  0.2361
  406MOL0     N54692   5.286   4.052  10.133 -0.2568  0.1377 -0.4435
  406MOL0     C54693   5.410   4.005  10.174  0.6763 -0.4355  0.0363
  406MOL0     C54694   5.473   3.957  10.066  0.0729 -0.4987 -0.2977
  406MOL0     C54695   5.608   3.896  10.053  0.8517  0.0209 -0.0634
  406MOL0     C54696   5.714   3.999  10.057  0.2358  0.7257 -0.8278
  406MOL0     C54697   5.715   4.081   9.935  0.7815  0.5931 -0.2291
  406MOL0     C54698   5.829   4.185   9.924  1.1505 -0.1656 -0.4247
  406MOL0     O54699   5.939   4.107   9.886 -0.5561  0.0777 -0.1011
  406MOL0     C54700   6.063   4.167   9.882 -0.1084 -0.0329 -0.6805
  406MOL0     C54701   6.096   4.301   9.919  0.1675  0.0194  0.0050
  406MOL0     C54702   6.225   4.348   9.897 -0.7142  0.1202 -0.0846
  406MOL0     C54703   6.332   4.267   9.837  1.2689  0.5925 -0.6574
  406MOL0     C54704   6.459   4.336   9.797  0.5255 -0.9051  0.8207
  406MOL0     O54705   6.489   4.452   9.867 -0.0829  0.1424 -0.1948
  406MOL0     C54706   6.607   4.519   9.839  1.4252 -0.1032 -0.7282
  406MOL0     C54707   6.719   4.483   9.908  0.0616 -0.0174 -0.7802
  406MOL0     C54708   6.840   4.551   9.878  0.2197  0.2226 -0.0810
  406MOL0     C54709   6.845   4.647   9.773 -0.0485 -0.7049  0.2142
  406MOL0     O54710   6.959   4.717   9.737 -0.5475  0.3680 -0.3969
  406MOL0     C54711   6.987   4.824   9.822  0.7171  0.2297 -0.0620
  406MOL0     C54712   7.141   4.808   9.825  1.0195  0.8970  0.2613
  406MOL0     C54713   7.223   4.910   9.914  0.2424  0.6373  0.4336
  406MOL0     C54714   7.218   5.065   9.876  0.6785 -0.8379  0.1218
  406MOL0     C54715   7.095   5.132   9.937  0.0201 -0.0133 -0.6937
  406MOL0     C54716   7.115   5.280   9.909 -0.0613  1.1024 -0.4506
  406MOL0     C54717   7.010   5.362   9.990  0.2325  0.9110  0.1438
  406MOL0     C54718   6.874   5.353   9.914 -0.4531  0.6821  0.6430
  406MOL0    Cl54719   6.883   5.443   9.755  0.2795 -0.1732  0.1045
  406MOL0     C54720   6.724   4.677   9.704 -1.0697 -0.9215 -0.1959
  406MOL0     C54721   6.608   4.619   9.749 -0.9761  0.2926  0.6724
  406MOL0     O54722   6.521   4.283   9.706  0.0444 -0.0178 -0.1118
  406MOL0     C54723   6.296   4.132   9.809  0.9751 -0.3292 -0.6200
  406MOL0     C54724   6.160   4.092   9.824 -0.3958  0.3494  0.1553
  406MOL0     N54725   5.381   3.974   9.965  0.5357  0.3921  0.6426
  406MOL0     N54726   5.267   4.030   9.998  0.0218  0.6684 -0.6049
  406MOL0     C54727   4.469   3.345  10.539 -0.5418 -0.2801  0.0800
  406MOL0     C54728   4.374   3.244  10.543 -0.2300 -0.1543 -0.5302
  406MOL0     C54729   4.169   2.876  10.599  0.0591 -0.0698 -1.1400
  406MOL0     C54730   4.086   2.840  10.490 -0.0181  0.6586 -0.4274
  406MOL0     C54731   3.975   2.762  10.504  0.8538 -0.4641 -0.1089
  406MOL0     C54732   3.948   2.693  10.620 -0.2064  0.1886 -0.4201
  406MOL0     O54733   3.850   2.597  10.611 -0.0377  0.5749  1.6839
  406MOL0     C54734   3.820   2.500  10.712  0.2627 -0.6469 -0.5075
  406MOL0     C54735   3.786   2.370  10.644  0.5602 -0.2740  0.3368
  406MOL0     C54736   3.646   2.362  10.579  0.4159  0.1359  0.0881
  406MOL0     C54737   3.544   2.359  10.693  0.4717 -0.5556  0.0176
  406MOL0     C54738   3.424   2.280  10.674 -0.5792  0.1997 -0.3583
  406MOL0     C54739   3.326   2.212  10.650 -0.4457  0.2149 -0.4706
  406MOL0     C54740   4.029   2.722  10.733 -0.1961 -0.8014 -0.4101
  406MOL0     C54741   4.136   2.811  10.719  0.3493  0.1711  0.6213
  406MOL0     C54742   4.210   2.831  10.847 -0.5204  0.1069  0.6721
  406MOL0     H54743   4.469   3.047  10.292 -0.3169 -0.0355  0.6370
  406MOL0     H54744   4.660   3.216  10.294 -0.5606  0.7324 -0.5296
  406MOL0     H54745   4.597   3.567  10.559 -0.9423  0.1383 -2.3509
  406MOL0     H54746   4.750   3.480  10.614 -0.5418  0.2905  1.2113
  406MOL0     H54747   4.792   3.715  10.543  0.2042 -1.5181  2.1588
  406MOL0     H54748   4.699   3.674  10.396  0.2315  1.6056  2.1261
  406MOL0     H54749   4.881   3.555  10.299 -0.8911 -1.1608  0.7573
  406MOL0     H54750   4.953   3.528  10.457 -0.0019  1.4582  1.2897
  406MOL0     H54751   5.057   3.745  10.436 -1.0140 -1.3540  1.3505
  406MOL0     H54752   5.042   3.689  10.261 -2.9236 -2.4537 -1.3821
  406MOL0     H54753   4.827   3.799  10.236  0.6909 -1.8548  0.2205
  406MOL0     H54754   4.857   3.883  10.382 -1.5183  0.4636 -0.9327
  406MOL0     H54755   5.047   3.897  10.137  1.1152 -0.2457  0.5183
  406MOL0     H54756   4.927   4.009  10.183  1.5697  0.9001  1.6355
  406MOL0     H54757   5.162   3.936  10.359  0.6315  0.7920 -1.5746
  406MOL0     H54758   5.049   4.067  10.395 -4.2356  0.0521 -3.1230
  406MOL0     H54759   5.122   4.175  10.167 -1.0957 -1.3389 -0.5107
  406MOL0     H54760   5.250   4.168  10.301  1.0950 -0.2158 -0.5573
  406MOL0     H54761   5.457   4.000  10.272  0.1646 -2.2704  0.2203
  406MOL0     H54762   5.605   3.828  10.139 -0.6101 -0.8541 -0.7603
  406MOL0     H54763   5.639   3.839   9.965  2.5414  1.6203 -0.5639
  406MOL0     H54764   5.708   4.049  10.154 -1.5937  0.7613 -0.9369
  406MOL0     H54765   5.810   3.945  10.054  1.3153  2.2155  2.5504
  406MOL0     H54766   5.627   4.145   9.932  0.4030  0.1109  0.4028
  406MOL0     H54767   5.714   4.015   9.848 -0.6599 -1.2386  1.1014
  406MOL0     H54768   5.846   4.221  10.026 -0.3692  1.3282 -0.6582
  406MOL0     H54769   5.811   4.270   9.857  0.5269  0.1655  0.1589
  406MOL0     H54770   6.020   4.362   9.967 -1.1141 -0.0803 -1.7652
  406MOL0     H54771   6.254   4.450   9.922  2.5595 -0.7814  0.2905
  406MOL0     H54772   6.710   4.408   9.986  1.6621  1.2623  0.7078
  406MOL0     H54773   6.931   4.532   9.934 -0.4245 -1.4269  0.4566
  406MOL0     H54774   6.945   4.912   9.774 -0.2492 -1.0357 -1.6529
  406MOL0     H54775   6.946   4.809   9.923  1.0523  2.5070  0.4620
  406MOL0     H54776   7.166   4.704   9.852  0.3135  0.6734  0.0854
  406MOL0     H54777   7.182   4.821   9.725  1.0188 -1.0596 -0.0301
  406MOL0     H54778   7.195   4.903  10.019 -1.4239 -1.1792 -0.0677
  406MOL0     H54779   7.322   4.867   9.895 -1.3446 -3.5269  0.5524
  406MOL0     H54780   7.209   5.076   9.767 -0.5727  3.3065  0.4694
  406MOL0     H54781   7.309   5.114   9.910 -0.7265  0.9185  1.5652
  406MOL0     H54782   7.081   5.111  10.044 -0.1654 -1.7923 -1.0357
  406MOL0     H54783   7.004   5.102   9.885  0.2890  0.8059 -1.6578
  406MOL0     H54784   7.212   5.297   9.958  0.2591 -1.0675 -0.2395
  406MOL0     H54785   7.115   5.312   9.805  0.9438  0.6361 -0.6098
  406MOL0     H54786   7.051   5.463  10.002  0.3100  1.1858 -1.9882
  406MOL0     H54787   7.002   5.315  10.089  1.7536  0.0594 -0.1035
  406MOL0     H54788   6.852   5.248   9.890 -1.4871  1.1651 -0.6791
  406MOL0     H54789   6.785   5.385   9.968 -2.1096 -1.7615 -0.4529
  406MOL0     H54790   6.737   4.745   9.620  0.2015  0.4532  1.0366
  406MOL0     H54791   6.512   4.648   9.709 -0.0325  1.6012 -0.7805
  406MOL0     H54792   6.371   4.067   9.766  1.7487 -1.4095  2.1539
  406MOL0     H54793   6.130   3.998   9.781  1.3925 -0.1621 -0.0765
  406MOL0     H54794   4.456   3.430  10.606  1.1578  0.8567 -0.9499
  406MOL0     H54795   4.294   3.266  10.613 -1.5026  3.4639 -2.8293
  406MOL0     H54796   4.109   2.862  10.386  0.7061 -0.8456 -0.6252
  406MOL0     H54797   3.916   2.736  10.417 -2.1510 -1.0078  1.9346
  406MOL0     H54798   3.743   2.535  10.781  1.6536  2.6104 -0.3631
  406MOL0     H54799   3.906   2.476  10.775  0.3718 -0.8204 -0.7185
  406MOL0     H54800   3.813   2.284  10.705  0.3524  0.7773  1.9889
  406MOL0     H54801   3.850   2.364  10.556 -0.3196  2.1142 -0.5601
  406MOL0     H54802   3.623   2.272  10.522 -1.0484  2.0288 -2.5462
  406MOL0     H54803   3.632   2.441  10.505 -2.2050 -1.5508 -1.4075
  406MOL0     H54804   3.590   2.311  10.781  0.1300 -1.3665 -0.2354
  406MOL0     H54805   3.532   2.465  10.719  1.3782 -0.0995 -1.3583
  406MOL0     H54806   3.236   2.159  10.627  0.2425 -1.6517  0.9087
  406MOL0     H54807   4.001   2.669  10.824 -1.6045 -1.3529 -1.1351
  406MOL0     H54808   4.126   2.840  10.917 -1.9468 -0.2175 -0.9228
  406MOL0     H54809   4.285   2.757  10.874  2.5181  2.0673 -1.6872
  406MOL0     H54810   4.258   2.929  10.842  3.2647 -1.5371  1.4851
  407MOL0     O54811   7.265   2.053   8.229  0.3207 -0.7091  0.1327
  407MOL0     C54812   7.260   2.105   8.115  0.3889 -1.0624 -0.1589
  407MOL0     O54813   7.180   2.218   8.088  0.0748  0.5296 -0.4648
  407MOL0     C54814   7.217   2.338   8.149  0.7467 -0.3074 -0.2262
  407MOL0     C54815   7.124   2.439   8.146  0.6292  0.6443 -0.0415
  407MOL0     C54816   7.164   2.568   8.175 -0.0789  0.1990 -0.1335
  407MOL0     C54817   7.284   2.599   8.238 -0.1554 -0.1042 -0.5333
  407MOL0     O54818   7.313   2.736   8.273  0.3654  0.6184 -0.0369
  407MOL0     C54819   7.431   2.760   8.353  0.3589  0.1034  0.2695
  407MOL0     C54820   7.564   2.746   8.287 -0.9284  0.5623 -0.5660
  407MOL0     C54821   7.674   2.825   8.359 -0.8004  0.8520  0.6826
  407MOL0     C54822   7.801   2.853   8.272  0.0952 -0.0181 -0.4525
  407MOL0     C54823   7.923   2.876   8.362  0.6135  1.0847  0.3019
  407MOL0     C54824   8.058   2.875   8.295 -0.2151 -0.7931  0.2157
  407MOL0     C54825   8.086   2.782   8.183  0.4646 -0.0736  0.5835
  407MOL0     C54826   8.129   2.640   8.220 -0.1707 -0.1265 -0.5251
  407MOL0     N54827   8.014   2.554   8.256 -0.5040  0.3396 -0.3078
  407MOL0     C54828   7.935   2.485   8.176  1.0425  0.3858 -1.1114
  407MOL0     C54829   7.853   2.417   8.263 -0.3229  0.5838 -0.4603
  407MOL0     C54830   7.746   2.325   8.227 -0.8534  0.1140  0.7585
  407MOL0     C54831   7.783   2.177   8.225 -0.1563 -0.4401  0.3122
  407MOL0     C54832   7.887   2.139   8.115  0.1784 -0.3051  0.0825
  407MOL0     C54833   7.973   2.027   8.160 -0.2559 -0.0137 -0.4356
  407MOL0     O54834   8.095   2.012   8.086  0.0113  0.1194 -1.0209
  407MOL0     C54835   8.203   2.098   8.089  0.1501  0.2704  0.4188
  407MOL0     C54836   8.313   2.079   8.004 -0.3771 -0.5817  0.6788
  407MOL0     C54837   8.421   2.166   8.001  1.4960  0.1645 -0.1860
  407MOL0     C54838   8.423   2.279   8.083  0.0596  0.1610  0.4063
  407MOL0     C54839   8.529   2.380   8.080 -0.3335 -0.5626  0.0737
  407MOL0     O54840   8.501   2.482   8.162  0.3473  0.7033  0.3283
  407MOL0     C54841   8.589   2.586   8.179  0.0025  0.0337 -0.6315
  407MOL0     C54842   8.718   2.558   8.226 -0.4293 -0.2387 -0.4102
  407MOL0     C54843   8.794   2.661   8.277 -0.7375 -0.0059  0.6208
  407MOL0     C54844   8.755   2.794   8.273  0.4914 -0.2701  0.4810
  407MOL0     O54845   8.836   2.890   8.323 -0.0923 -0.3681 -0.4219
  407MOL0     C54846   8.842   3.012   8.242 -0.2480  0.6846 -0.0820
  407MOL0     C54847   8.931   3.124   8.290 -0.9828 -0.7845 -0.3314
  407MOL0     C54848   8.916   3.171   8.437 -0.2896 -0.0280 -0.6858
  407MOL0     C54849   8.766   3.206   8.460  0.2550  1.0790  0.6628
  407MOL0     C54850   8.742   3.285   8.583 -0.6299  0.1719 -0.7568
  407MOL0     C54851   8.605   3.353   8.582  0.1738  0.3026  0.3608
  407MOL0     C54852   8.587   3.478   8.675 -0.6967  0.3568 -0.4008
  407MOL0     C54853   8.681   3.590   8.650 -0.4957  0.2463  0.1172
  407MOL0    Cl54854   8.646   3.665   8.498  0.0283 -0.0437 -0.3993
  407MOL0     C54855   8.626   2.820   8.225 -0.1193 -0.8446 -0.4698
  407MOL0     C54856   8.541   2.718   8.184 -0.3948  0.3805 -0.0357
  407MOL0     O54857   8.622   2.366   7.999 -0.1016 -0.4772 -0.2243
  407MOL0     C54858   8.311   2.298   8.168 -0.5995 -0.4486  0.2982
  407MOL0     C54859   8.202   2.209   8.168 -0.3912  0.0615 -0.3847
  407MOL0     N54860   7.882   2.448   8.393 -0.6078  0.2905  0.0466
  407MOL0     N54861   7.985   2.525   8.389  0.2843 -0.3536 -0.0453
  407MOL0     C54862   7.368   2.489   8.260 -0.2830  0.0573 -0.2839
  407MOL0     C54863   7.341   2.360   8.214  0.7725 -0.5062 -0.0107
  407MOL0     C54864   7.351   2.060   8.011 -0.1323  0.6214  0.1775
  407MOL0     C54865   7.327   2.102   7.875  0.5965 -0.5153  0.3232
  407MOL0     C54866   7.407   2.059   7.776 -0.3166  0.0849  0.1358
  407MOL0     C54867   7.519   1.980   7.791 -0.3263  0.7422 -0.1453
  407MOL0     O54868   7.604   1.918   7.704  0.3398  0.0848  0.1330
  407MOL0     C54869   7.583   1.930   7.559  0.6431  0.5160 -0.7541
  407MOL0     C54870   7.507   1.804   7.506 -0.5847 -0.7783  0.6556
  407MOL0     C54871   7.515   1.810   7.352 -0.4829 -0.3949 -0.6107
  407MOL0     C54872   7.398   1.740   7.292  0.9733  0.5784  0.3106
  407MOL0     C54873   7.420   1.740   7.149  0.1662  0.4698 -0.3943
  407MOL0     C54874   7.414   1.733   7.025 -0.1239  0.9798  0.1234
  407MOL0     C54875   7.547   1.934   7.925  0.4060 -0.3139  0.3762
  407MOL0     C54876   7.462   1.971   8.035  0.3809  0.5365 -0.0434
  407MOL0     C54877   7.489   1.908   8.173 -0.1746 -0.0918  0.4147
  407MOL0     H54878   7.022   2.424   8.112  1.0569 -0.7547 -0.7809
  407MOL0     H54879   7.086   2.643   8.167 -0.6314 -0.5918 -2.9317
  407MOL0     H54880   7.421   2.865   8.383  0.2347 -0.0962  0.9485
  407MOL0     H54881   7.434   2.710   8.451 -0.4378  1.7967  1.2161
  407MOL0     H54882   7.555   2.789   8.187 -0.1824  2.3756  0.1048
  407MOL0     H54883   7.602   2.644   8.275  2.2892  1.5891 -0.0211
  407MOL0     H54884   7.713   2.760   8.437  2.3936 -0.4736 -1.7861
  407MOL0     H54885   7.635   2.919   8.400  1.7059  1.5314  1.7083
  407MOL0     H54886   7.804   2.766   8.206 -3.7148  0.9536 -2.1780
  407MOL0     H54887   7.773   2.940   8.212 -2.3535 -0.0389  0.5290
  407MOL0     H54888   7.913   2.965   8.424  1.0192  2.0294 -0.9304
  407MOL0     H54889   7.920   2.788   8.426 -1.2418 -1.0441 -2.4600
  407MOL0     H54890   8.062   2.973   8.246  2.4614 -1.5952 -1.3668
  407MOL0     H54891   8.134   2.870   8.374  0.6082  0.9213 -0.4236
  407MOL0     H54892   8.168   2.835   8.133  1.8497 -1.0588  1.7197
  407MOL0     H54893   7.997   2.780   8.118 -0.5356 -1.2536  1.9370
  407MOL0     H54894   8.184   2.600   8.135 -1.0563 -0.8623 -0.7713
  407MOL0     H54895   8.203   2.646   8.300  0.1997  3.7760 -0.9400
  407MOL0     H54896   7.941   2.494   8.068 -3.6736  2.3557 -1.4770
  407MOL0     H54897   7.663   2.339   8.297 -3.0667 -3.9316 -0.7742
  407MOL0     H54898   7.706   2.343   8.127 -1.2497  1.1320  1.0896
  407MOL0     H54899   7.814   2.146   8.326  1.9747  0.2370 -0.0973
  407MOL0     H54900   7.691   2.119   8.213  1.0017 -2.4691  0.6983
  407MOL0     H54901   7.944   2.228   8.087 -0.7818  0.3475  0.1863
  407MOL0     H54902   7.836   2.106   8.024 -0.4992  2.3038 -0.5412
  407MOL0     H54903   7.913   1.935   8.161  0.4679 -0.5149 -1.1841
  407MOL0     H54904   7.988   2.049   8.266  3.5196 -0.5095 -0.7234
  407MOL0     H54905   8.304   1.999   7.931  1.0660 -2.3263  2.2962
  407MOL0     H54906   8.506   2.152   7.935 -0.3960  0.1745 -2.7893
  407MOL0     H54907   8.756   2.457   8.226 -2.0329 -0.8657  0.4436
  407MOL0     H54908   8.889   2.624   8.313 -0.0568  1.4598  0.4206
  407MOL0     H54909   8.878   2.980   8.144  1.4929 -0.5631  0.9004
  407MOL0     H54910   8.743   3.058   8.235 -0.2261  0.8021  0.3364
  407MOL0     H54911   9.028   3.074   8.282 -0.8462 -0.7499  0.9659
  407MOL0     H54912   8.933   3.211   8.222 -0.1814 -1.4019 -1.1284
  407MOL0     H54913   8.949   3.091   8.504  3.6494  3.1226  1.6090
  407MOL0     H54914   8.989   3.248   8.465 -1.0031  0.7579 -0.9734
  407MOL0     H54915   8.712   3.113   8.478  1.6579  0.2322  0.7200
  407MOL0     H54916   8.723   3.246   8.369  0.3785  0.7713  0.4680
  407MOL0     H54917   8.828   3.350   8.602  0.0158 -0.4888 -1.3527
  407MOL0     H54918   8.756   3.218   8.668 -4.0146 -0.5292 -0.6053
  407MOL0     H54919   8.580   3.383   8.480 -4.3674 -2.4201  0.4273
  407MOL0     H54920   8.528   3.279   8.606 -0.2071  1.0426  1.5414
  407MOL0     H54921   8.604   3.447   8.779  1.1542 -3.3161 -1.6209
  407MOL0     H54922   8.484   3.516   8.676 -1.5732 -1.8282  0.0689
  407MOL0     H54923   8.671   3.678   8.714 -2.4537  1.9718 -2.3735
  407MOL0     H54924   8.787   3.567   8.667 -0.2886 -0.8557 -2.2631
  407MOL0     H54925   8.583   2.920   8.224  1.0032 -0.3118  1.3007
  407MOL0     H54926   8.441   2.740   8.147  0.2436  3.0548 -0.3718
  407MOL0     H54927   8.301   2.387   8.229 -1.0250  1.5400 -2.4391
  407MOL0     H54928   8.112   2.230   8.224 -0.1020  0.5099 -0.0787
  407MOL0     H54929   7.461   2.488   8.317 -0.0177 -0.1618 -0.7126
  407MOL0     H54930   7.409   2.278   8.231 -0.4172 -1.0111  2.8821
  407MOL0     H54931   7.241   2.162   7.847  2.6187  1.2730 -2.5182
  407MOL0     H54932   7.386   2.098   7.676 -2.5133  2.8066  1.5071
  407MOL0     H54933   7.684   1.930   7.516  0.7708 -1.9228 -0.6225
  407MOL0     H54934   7.541   2.028   7.535  0.6881  0.7510  0.0934
  407MOL0     H54935   7.402   1.804   7.536 -1.4572  1.3798 -1.9944
  407MOL0     H54936   7.558   1.714   7.542 -1.7594 -2.8736 -2.5111
  407MOL0     H54937   7.604   1.751   7.328  0.0627 -0.3822  1.2398
  407MOL0     H54938   7.519   1.914   7.316 -0.6850 -0.4223 -0.7116
  407MOL0     H54939   7.408   1.634   7.315  0.0664  0.2410 -0.6988
  407MOL0     H54940   7.297   1.778   7.314  0.9104 -0.3765  1.7296
  407MOL0     H54941   7.392   1.734   6.920 -1.9325  2.3242  0.4694
  407MOL0     H54942   7.629   1.863   7.921 -0.0236 -0.7714 -1.9458
  407MOL0     H54943   7.404   1.864   8.226 -0.0599 -0.7686  0.0541
  407MOL0     H54944   7.575   1.840   8.163  0.3289  0.8243 -2.5072
  407MOL0     H54945   7.522   1.993   8.233 -1.0070  0.0476  0.6813
  408MOL0     O54946   6.729   2.491   1.448  0.3506 -0.1865 -0.0828
  408MOL0     C54947   6.635   2.467   1.517  0.0940  0.5209  0.1189
  408MOL0     O54948   6.621   2.357   1.601 -0.4369 -0.1483  0.1961
  408MOL0     C54949   6.728   2.270   1.620 -0.0164  0.2885 -0.3370
  408MOL0     C54950   6.812   2.284   1.732 -0.3912  0.2306 -0.3143
  408MOL0     C54951   6.914   2.190   1.751  0.0157 -0.0158  0.4203
  408MOL0     C54952   6.926   2.077   1.665 -0.0433 -0.7941  0.2391
  408MOL0     O54953   7.029   1.988   1.688 -0.4707  0.2410 -0.5158
  408MOL0     C54954   7.002   1.850   1.676  0.0442  0.4120 -0.0557
  408MOL0     C54955   6.969   1.798   1.819 -0.8984 -0.3605  0.7969
  408MOL0     C54956   7.084   1.835   1.911 -0.0084  0.0944 -0.1406
  408MOL0     C54957   7.222   1.770   1.871  0.3023  0.3781 -0.0202
  408MOL0     C54958   7.324   1.763   1.984  0.8507  0.0409 -0.1185
  408MOL0     C54959   7.378   1.618   2.019  0.0085 -0.1082  0.3593
  408MOL0     C54960   7.456   1.623   2.154  0.3858 -0.8755 -0.4031
  408MOL0     C54961   7.480   1.485   2.208 -0.2617  0.2248  0.6690
  408MOL0     N54962   7.565   1.469   2.327 -0.3818 -0.6769  1.0460
  408MOL0     C54963   7.573   1.346   2.388  0.2337 -0.1421  0.1808
  408MOL0     C54964   7.644   1.367   2.495 -0.6505 -0.2198  0.1333
  408MOL0     C54965   7.698   1.259   2.592 -0.4723  0.2574  0.0687
  408MOL0     C54966   7.795   1.172   2.508  0.6116  0.4780  0.6142
  408MOL0     C54967   7.938   1.221   2.517 -0.9564  0.2735 -0.0782
  408MOL0     C54968   8.032   1.134   2.426 -0.1413  0.4115 -0.2313
  408MOL0     O54969   8.042   1.002   2.483 -0.2434 -0.0866 -0.0093
  408MOL0     C54970   8.153   0.928   2.460 -0.3331  0.4758  0.7717
  408MOL0     C54971   8.213   0.913   2.335  0.4089  0.2615  0.3953
  408MOL0     C54972   8.321   0.831   2.314 -0.0332  0.7152  0.7404
  408MOL0     C54973   8.364   0.747   2.414  0.4917 -0.0470 -0.1569
  408MOL0     C54974   8.485   0.659   2.394 -0.4089  0.3517 -0.4076
  408MOL0     O54975   8.546   0.660   2.272 -0.3413  1.0330  0.4212
  408MOL0     C54976   8.644   0.568   2.250  0.3712 -0.3785 -0.3292
  408MOL0     C54977   8.634   0.430   2.302 -1.1362 -0.5041  0.3483
  408MOL0     C54978   8.735   0.343   2.275  0.0569  0.1902 -0.0030
  408MOL0     C54979   8.855   0.379   2.213  0.3851 -0.8631 -0.2235
  408MOL0     O54980   8.950   0.285   2.195 -0.8754 -0.4285  0.2719
  408MOL0     C54981   9.045   0.287   2.091  0.3234  0.1302 -0.9188
  408MOL0     C54982   9.079   0.144   2.067 -0.1304  0.0381  0.6219
  408MOL0     C54983   9.157   0.068   2.185  0.4613  0.0099  0.5325
  408MOL0     C54984   9.073   0.021   2.301 -0.1925  0.2260 -0.8908
  408MOL0     C54985   9.104  -0.119   2.366  0.7045  1.1567  0.3476
  408MOL0     C54986   9.242  -0.130   2.425 -0.1952 -0.1914  0.8460
  408MOL0     C54987   9.262  -0.032   2.543  0.3642 -0.2532 -0.3803
  408MOL0     C54988   9.399  -0.059   2.604 -1.2266 -0.0053 -0.1750
  408MOL0    Cl54989   9.516   0.003   2.485 -0.0874  0.0426 -0.7114
  408MOL0     C54990   8.865   0.514   2.158  0.3151  0.5799 -0.7702
  408MOL0     C54991   8.752   0.602   2.171  0.0200 -0.3222 -1.1709
  408MOL0     O54992   8.531   0.605   2.498 -0.1654 -0.7004 -0.5591
  408MOL0     C54993   8.303   0.759   2.541 -0.3612 -0.0332 -0.4443
  408MOL0     C54994   8.199   0.845   2.569  0.1599 -0.4855  0.1499
  408MOL0     N54995   7.674   1.505   2.501  0.0148  0.4765 -0.4790
  408MOL0     N54996   7.638   1.566   2.392 -0.2770 -0.7287  0.2301
  408MOL0     C54997   6.846   2.071   1.554 -0.4814  0.0847 -0.5516
  408MOL0     C54998   6.743   2.167   1.525  0.5686 -0.0060  0.1833
  408MOL0     C54999   6.529   2.575   1.527  0.3591 -0.0135  0.9755
  408MOL0     C55000   6.396   2.541   1.578 -0.1078 -0.2863 -0.9408
  408MOL0     C55001   6.310   2.645   1.620 -0.5599  0.4719  0.2550
  408MOL0     C55002   6.323   2.776   1.569 -0.0297  0.0855 -0.2116
  408MOL0     O55003   6.215   2.871   1.579  0.7459 -0.6635  0.3006
  408MOL0     C55004   6.086   2.822   1.561  0.0382 -0.3074  0.0988
  408MOL0     C55005   5.983   2.928   1.519  0.3097  0.2465 -0.5322
  408MOL0     C55006   5.958   3.028   1.644 -0.4969  0.7115  0.2471
  408MOL0     C55007   5.883   3.151   1.610  0.0475 -0.1087 -0.6085
  408MOL0     C55008   5.957   3.238   1.524 -0.6918  0.9948  0.2489
  408MOL0     C55009   6.011   3.297   1.431  0.2441  0.3260 -0.2679
  408MOL0     C55010   6.450   2.810   1.520  0.3672  0.6864 -0.0680
  408MOL0     C55011   6.546   2.712   1.492  0.0280  0.6445  0.2268
  408MOL0     C55012   6.681   2.763   1.442 -0.3972  0.1940  0.3004
  408MOL0     H55013   6.806   2.380   1.782  0.5675  0.1867 -0.0871
  408MOL0     H55014   6.988   2.199   1.829 -0.0321  0.8478  0.3682
  408MOL0     H55015   6.915   1.837   1.612  0.7576  3.6341 -1.8661
  408MOL0     H55016   7.093   1.801   1.639  1.1368  1.5059  1.0676
  408MOL0     H55017   6.958   1.689   1.818 -1.3674 -0.3130  0.5845
  408MOL0     H55018   6.878   1.847   1.854 -2.0726 -0.9235 -1.2980
  408MOL0     H55019   7.058   1.807   2.013 -1.4532 -0.0203 -0.5118
  408MOL0     H55020   7.100   1.943   1.911 -0.2668  0.1356 -0.5286
  408MOL0     H55021   7.213   1.671   1.824  2.1173 -0.1137  0.5610
  408MOL0     H55022   7.249   1.832   1.785 -1.2789 -1.8985 -2.3243
  408MOL0     H55023   7.413   1.820   1.956  1.6214 -0.0204  2.0301
  408MOL0     H55024   7.279   1.808   2.073  0.6538  2.6239 -1.4245
  408MOL0     H55025   7.298   1.544   2.025  1.8238 -2.6398 -3.0200
  408MOL0     H55026   7.441   1.582   1.936  0.3839 -1.9104  1.3774
  408MOL0     H55027   7.404   1.683   2.229  1.3503 -2.0249  1.2505
  408MOL0     H55028   7.551   1.678   2.148 -0.3469  0.5464  0.6184
  408MOL0     H55029   7.382   1.445   2.234 -0.1938 -1.6754 -1.6379
  408MOL0     H55030   7.516   1.421   2.127  2.5754  1.3836  0.8630
  408MOL0     H55031   7.542   1.244   2.364  1.7181 -0.4746 -0.4278
  408MOL0     H55032   7.748   1.295   2.683 -0.8461  1.3209 -0.1351
  408MOL0     H55033   7.614   1.199   2.626  0.5641 -0.8435  0.7629
  408MOL0     H55034   7.792   1.073   2.555  0.8480 -0.0022 -0.3557
  408MOL0     H55035   7.765   1.151   2.405  0.2033 -0.4367  0.9136
  408MOL0     H55036   7.975   1.214   2.619 -1.4287 -1.6671  0.0096
  408MOL0     H55037   7.946   1.326   2.490  0.5874  0.3025  0.4108
  408MOL0     H55038   8.127   1.187   2.408 -0.9929  1.7187 -1.0402
  408MOL0     H55039   7.987   1.119   2.328  1.0716  0.1037 -0.7682
  408MOL0     H55040   8.187   0.981   2.255  1.0605 -0.2428 -0.2666
  408MOL0     H55041   8.370   0.841   2.217 -2.1224 -0.4119 -0.5216
  408MOL0     H55042   8.540   0.405   2.350 -1.9439 -1.0757 -1.4491
  408MOL0     H55043   8.726   0.243   2.316 -0.4041 -1.2114 -3.2263
  408MOL0     H55044   9.006   0.325   1.996 -0.4436 -0.1882 -0.7484
  408MOL0     H55045   9.131   0.344   2.126  0.7933 -1.2824  0.3557
  408MOL0     H55046   8.982   0.100   2.043 -0.4391  1.8099 -1.6643
  408MOL0     H55047   9.142   0.144   1.978  1.9677  1.5962  2.0185
  408MOL0     H55048   9.211  -0.013   2.135  1.3861  0.9336 -0.0024
  408MOL0     H55049   9.232   0.131   2.233 -1.1012  1.3870  1.2553
  408MOL0     H55050   8.969   0.017   2.268 -0.7329 -3.1012  0.8383
  408MOL0     H55051   9.082   0.085   2.390 -1.9879 -0.8882  0.1629
  408MOL0     H55052   9.089  -0.194   2.288 -1.3013  1.7617  0.0902
  408MOL0     H55053   9.029  -0.133   2.445  0.2015  0.3543 -0.2503
  408MOL0     H55054   9.254  -0.235   2.454 -1.4631  0.0324  2.2876
  408MOL0     H55055   9.315  -0.117   2.345 -0.8851 -1.7922 -0.0975
  408MOL0     H55056   9.191  -0.066   2.619  1.3755  0.3297  0.8771
  408MOL0     H55057   9.251   0.076   2.525  0.3054  0.2996  2.5247
  408MOL0     H55058   9.419  -0.018   2.703  0.5424 -1.0196 -0.0706
  408MOL0     H55059   9.419  -0.167   2.609  1.9071  0.4366 -1.0509
  408MOL0     H55060   8.958   0.539   2.109  2.2410  0.7735  2.6703
  408MOL0     H55061   8.747   0.700   2.124 -0.1673 -0.3295 -1.1664
  408MOL0     H55062   8.348   0.700   2.620  2.1213  1.3315 -0.7218
  408MOL0     H55063   8.164   0.864   2.670  3.8616  1.1544  1.2952
  408MOL0     H55064   6.855   1.982   1.492  2.0066  0.1600 -0.4075
  408MOL0     H55065   6.670   2.171   1.445  0.8847 -0.1494 -0.1134
  408MOL0     H55066   6.369   2.440   1.607 -0.2250 -1.0177 -3.3812
  408MOL0     H55067   6.215   2.611   1.659  0.5318 -0.6345  2.0931
  408MOL0     H55068   6.051   2.770   1.651  1.3701 -1.1489  0.1611
  408MOL0     H55069   6.089   2.745   1.484  0.6275 -1.2578  1.0522
  408MOL0     H55070   5.892   2.884   1.477  1.0139  1.3418 -3.4745
  408MOL0     H55071   6.027   2.979   1.432  0.6266  0.3833 -0.2923
  408MOL0     H55072   6.056   3.060   1.681  0.1515  0.6514 -1.3364
  408MOL0     H55073   5.900   2.973   1.719 -0.0432 -0.1437 -0.0210
  408MOL0     H55074   5.788   3.132   1.559 -1.0077 -0.9345  1.5197
  408MOL0     H55075   5.853   3.211   1.696  0.8977  1.4989 -1.3995
  408MOL0     H55076   6.039   3.364   1.352  0.6283 -1.8263 -2.0268
  408MOL0     H55077   6.466   2.911   1.482 -1.1309  0.1242 -2.3884
  408MOL0     H55078   6.691   2.867   1.475  0.0090  0.9690 -2.0369
  408MOL0     H55079   6.772   2.713   1.475 -0.3680 -2.1853 -2.9206
  408MOL0     H55080   6.678   2.760   1.332 -1.3061  1.0107  0.2843
  409MOL0     O55081   3.942   2.827   0.588 -0.3816 -0.3578 -0.4002
  409MOL0     C55082   4.058   2.862   0.566  0.5870  0.5924  0.2331
  409MOL0     O55083   4.167   2.845   0.656  0.2150 -0.6186  0.0991
  409MOL0     C55084   4.140   2.757   0.759  0.2119 -0.9380  0.4342
  409MOL0     C55085   4.067   2.800   0.876  0.3879  0.5968 -0.0829
  409MOL0     C55086   4.035   2.699   0.970  0.4639 -0.3339  0.8225
  409MOL0     C55087   4.065   2.563   0.942  0.4043  0.2889 -0.3927
  409MOL0     O55088   4.042   2.465   1.030  0.8935 -0.3135 -0.3396
  409MOL0     C55089   4.134   2.449   1.138  0.2014  0.3044  0.9322
  409MOL0     C55090   4.130   2.300   1.190  0.4454  0.2989  0.4141
  409MOL0     C55091   4.208   2.279   1.314  0.3152  0.9862 -0.0084
  409MOL0     C55092   4.130   2.327   1.441 -0.1385  0.4069  0.0984
  409MOL0     C55093   4.207   2.285   1.572 -0.3728  0.7198 -0.8818
  409MOL0     C55094   4.152   2.334   1.703  0.3108 -0.3322  0.2529
  409MOL0     C55095   4.025   2.265   1.750  0.1503 -0.3418  0.0518
  409MOL0     C55096   4.030   2.123   1.784 -0.8114 -0.0943 -0.2544
  409MOL0     N55097   4.121   2.086   1.896 -0.4999 -0.5327 -0.0746
  409MOL0     C55098   4.261   2.051   1.897 -0.2451  0.3435  0.4564
  409MOL0     C55099   4.292   2.017   2.023 -0.6670  0.6826 -0.6269
  409MOL0     C55100   4.437   1.978   2.066  0.5215 -0.0531 -1.0072
  409MOL0     C55101   4.512   2.101   2.119  0.6628  0.3943 -0.2049
  409MOL0     C55102   4.538   2.200   2.006 -0.6363  0.2648 -0.3357
  409MOL0     C55103   4.626   2.322   2.054  0.3480 -0.2380 -0.2827
  409MOL0     O55104   4.729   2.367   1.966 -0.8631 -0.8084 -0.0334
  409MOL0     C55105   4.688   2.433   1.852 -0.1270  0.3880 -0.3009
  409MOL0     C55106   4.788   2.451   1.751  0.0777 -0.1657 -0.2412
  409MOL0     C55107   4.754   2.509   1.627 -0.1757  0.1074  0.1768
  409MOL0     C55108   4.623   2.556   1.598  0.4847 -0.3228 -0.8608
  409MOL0     C55109   4.591   2.616   1.467  0.1999  0.0105 -0.3052
  409MOL0     O55110   4.672   2.581   1.358 -0.1615  0.1745 -0.1043
  409MOL0     C55111   4.622   2.603   1.232  0.3216  0.8563 -1.2169
  409MOL0     C55112   4.715   2.640   1.142 -0.0620  0.6501  1.3041
  409MOL0     C55113   4.688   2.656   1.009 -0.1588 -0.7985  0.3390
  409MOL0     C55114   4.554   2.639   0.962  0.0250 -0.8554  0.6124
  409MOL0     O55115   4.515   2.648   0.829 -0.8040  0.0361  0.5516
  409MOL0     C55116   4.596   2.736   0.756 -0.1644 -0.5056  0.5912
  409MOL0     C55117   4.529   2.779   0.623 -0.3247 -0.1456  0.1276
  409MOL0     C55118   4.635   2.862   0.539 -0.4614  0.5807 -0.3692
  409MOL0     C55119   4.570   2.932   0.428 -0.4985  0.1487 -0.3050
  409MOL0     C55120   4.662   2.932   0.305  0.1118  0.3813 -0.0136
  409MOL0     C55121   4.812   2.983   0.327 -0.3136 -0.5783  0.2240
  409MOL0     C55122   4.821   3.124   0.383  0.0019  0.0394 -0.6459
  409MOL0     C55123   4.961   3.156   0.408  0.6242  0.2962 -1.4092
  409MOL0    Cl55124   5.065   3.172   0.257  0.1004 -0.0743 -0.1046
  409MOL0     C55125   4.456   2.599   1.052  0.2161 -0.0473  0.9415
  409MOL0     C55126   4.486   2.585   1.194  0.4576 -0.6504  0.5175
  409MOL0     O55127   4.486   2.680   1.460  0.2322 -0.1428  0.5754
  409MOL0     C55128   4.529   2.529   1.698 -0.5408  0.9688  0.0491
  409MOL0     C55129   4.565   2.474   1.822 -0.1362 -0.6206  0.1655
  409MOL0     N55130   4.181   2.040   2.103  0.1869 -0.2553  0.2220
  409MOL0     N55131   4.083   2.081   2.024 -0.5532 -0.0986  0.2724
  409MOL0     C55132   4.147   2.532   0.836  0.1871  0.5643  1.3417
  409MOL0     C55133   4.175   2.620   0.739 -0.6572 -0.1369  0.0687
  409MOL0     C55134   4.081   2.920   0.437 -0.4697  0.3450 -0.2780
  409MOL0     C55135   4.169   2.847   0.360  1.1026  0.0233  0.6198
  409MOL0     C55136   4.201   2.887   0.230 -0.1692  0.8088  0.0176
  409MOL0     C55137   4.155   3.008   0.184 -0.1778  0.0392  0.8465
  409MOL0     O55138   4.192   3.049   0.057  0.0499 -0.3466 -0.4136
  409MOL0     C55139   4.327   3.103   0.057  0.5993  0.4210  0.3012
  409MOL0     C55140   4.417   2.999  -0.010  0.0880 -0.5251 -0.5516
  409MOL0     C55141   4.357   2.959  -0.150 -0.5440 -0.0396 -0.9975
  409MOL0     C55142   4.309   3.067  -0.243  0.3967 -0.4429  0.5835
  409MOL0     C55143   4.422   3.145  -0.308 -0.3555  0.3799 -0.2440
  409MOL0     C55144   4.515   3.208  -0.355  0.1582  1.1050  0.6022
  409MOL0     C55145   4.065   3.089   0.256  0.0681  0.0998  0.3334
  409MOL0     C55146   4.026   3.044   0.387 -0.3743 -1.0367  0.6794
  409MOL0     C55147   3.916   3.119   0.457 -0.3420 -0.5732 -0.2969
  409MOL0     H55148   4.050   2.907   0.883  1.1754  0.7024  0.2569
  409MOL0     H55149   3.985   2.737   1.059  3.6025  1.3407  2.0486
  409MOL0     H55150   4.237   2.458   1.104  1.0040 -0.1004  3.0814
  409MOL0     H55151   4.103   2.514   1.221 -0.3144  0.8489  0.3265
  409MOL0     H55152   4.173   2.230   1.119 -1.6105  1.0464 -1.6900
  409MOL0     H55153   4.029   2.261   1.207  1.7883 -2.9844  1.6178
  409MOL0     H55154   4.299   2.340   1.314  0.0583  1.4397 -2.1059
  409MOL0     H55155   4.246   2.177   1.325 -2.6334 -0.5696 -2.6057
  409MOL0     H55156   4.113   2.435   1.435  2.0096  0.8160  0.5531
  409MOL0     H55157   4.031   2.283   1.453 -0.2953  0.7092 -0.0612
  409MOL0     H55158   4.228   2.178   1.580  0.7391  1.0039  0.2589
  409MOL0     H55159   4.305   2.331   1.567 -0.7964  1.5175 -2.3225
  409MOL0     H55160   4.223   2.312   1.784  1.3342  0.7238 -0.3262
  409MOL0     H55161   4.121   2.439   1.699 -2.7057 -0.9897  2.5323
  409MOL0     H55162   3.953   2.272   1.667  0.2680  0.1088 -0.0140
  409MOL0     H55163   3.980   2.314   1.837 -1.1160 -1.0954 -0.1473
  409MOL0     H55164   3.929   2.094   1.814 -0.4963 -0.5925  0.3670
  409MOL0     H55165   4.049   2.068   1.691 -0.9391 -0.3991 -0.1034
  409MOL0     H55166   4.320   2.051   1.806 -0.9436 -0.1564 -0.0055
  409MOL0     H55167   4.425   1.908   2.148 -0.9414  3.6621  2.2686
  409MOL0     H55168   4.479   1.928   1.977 -1.0040  2.7139 -3.4749
  409MOL0     H55169   4.449   2.152   2.192  2.0027  1.8249  0.0385
  409MOL0     H55170   4.603   2.085   2.178  0.1774 -0.1532  0.4089
  409MOL0     H55171   4.449   2.248   1.964  1.1852  3.4798 -0.7968
  409MOL0     H55172   4.590   2.142   1.930  0.6001 -1.2640  1.5755
  409MOL0     H55173   4.688   2.291   2.139  1.1444 -2.1622 -1.4999
  409MOL0     H55174   4.563   2.404   2.088  2.5008  1.4929 -0.2778
  409MOL0     H55175   4.888   2.416   1.774  0.1045 -0.1766 -0.3720
  409MOL0     H55176   4.834   2.529   1.556  1.8023 -5.4539  0.3805
  409MOL0     H55177   4.816   2.653   1.180  0.5688  1.5859 -0.5530
  409MOL0     H55178   4.769   2.686   0.943 -0.7469 -1.2559 -0.6193
  409MOL0     H55179   4.627   2.817   0.822 -1.5172 -0.8092  1.6246
  409MOL0     H55180   4.690   2.686   0.730 -0.3884 -0.6446  0.0250
  409MOL0     H55181   4.482   2.694   0.574 -0.8231 -1.0685  2.1117
  409MOL0     H55182   4.453   2.849   0.657  1.0063  1.1553  0.5320
  409MOL0     H55183   4.683   2.933   0.607 -2.2923 -1.1004  2.9159
  409MOL0     H55184   4.712   2.796   0.497  0.7951  2.2282 -0.7440
  409MOL0     H55185   4.535   3.031   0.457 -4.8978 -1.9131  2.3130
  409MOL0     H55186   4.474   2.887   0.401 -0.1500 -1.5390  1.0945
  409MOL0     H55187   4.617   2.996   0.229 -0.3117  1.3599  1.0300
  409MOL0     H55188   4.670   2.826   0.277 -0.0406  0.9447 -2.4050
  409MOL0     H55189   4.867   2.916   0.393  1.1023 -0.1500 -0.4918
  409MOL0     H55190   4.859   2.982   0.229  0.5749 -0.0578  0.6284
  409MOL0     H55191   4.778   3.138   0.483  1.0982  0.6378 -0.2390
  409MOL0     H55192   4.783   3.191   0.305  0.5690  0.4204 -0.5979
  409MOL0     H55193   4.965   3.249   0.465 -1.2713 -2.8977  4.8140
  409MOL0     H55194   4.993   3.092   0.491 -3.3124  1.0500  0.9286
  409MOL0     H55195   4.364   2.592   0.996  1.5329 -1.0011 -1.2235
  409MOL0     H55196   4.414   2.545   1.264  0.2347  1.5074  1.6044
  409MOL0     H55197   4.424   2.547   1.678 -0.4000 -0.5727 -2.4166
  409MOL0     H55198   4.487   2.462   1.896 -2.9208  1.6715 -2.1298
  409MOL0     H55199   4.200   2.438   0.826  0.6537  0.8864  0.6439
  409MOL0     H55200   4.238   2.595   0.654  0.5636  0.7440  0.6785
  409MOL0     H55201   4.207   2.751   0.392  1.5526  0.6441  2.0389
  409MOL0     H55202   4.277   2.828   0.181 -0.6957  1.5281 -1.7635
  409MOL0     H55203   4.365   3.130   0.156  0.6811 -1.6786  0.9001
  409MOL0     H55204   4.337   3.199   0.007  2.1867  0.9809  1.5981
  409MOL0     H55205   4.427   2.911   0.054 -0.6723  0.3302  0.8112
  409MOL0     H55206   4.519   3.038  -0.005  1.5360 -3.8516 -1.6437
  409MOL0     H55207   4.262   2.909  -0.131 -1.1460  1.0774 -0.9527
  409MOL0     H55208   4.416   2.874  -0.184  1.4665  1.0737 -0.4600
  409MOL0     H55209   4.246   3.024  -0.322 -0.2952 -1.5031  1.6814
  409MOL0     H55210   4.254   3.142  -0.185  0.9393  0.1790  0.3001
  409MOL0     H55211   4.593   3.275  -0.385 -0.5605  1.4446 -0.5586
  409MOL0     H55212   4.031   3.183   0.214 -0.2858 -0.2275 -0.1309
  409MOL0     H55213   3.837   3.044   0.463  0.1586 -1.1584 -0.7780
  409MOL0     H55214   3.941   3.172   0.549  0.5179 -1.0022 -0.2693
  409MOL0     H55215   3.881   3.199   0.391 -0.2408  0.4110  0.8298
  410MOL0     O55216   1.160   5.357   5.381  0.2679 -0.6462  0.4838
  410MOL0     C55217   1.109   5.373   5.268  0.3154  0.4016 -0.0550
  410MOL0     O55218   1.131   5.479   5.180 -0.5863  0.4094  0.7826
  410MOL0     C55219   1.180   5.605   5.211  0.2895  0.6096  0.1036
  410MOL0     C55220   1.235   5.682   5.105  0.2017 -1.1007  1.1155
  410MOL0     C55221   1.275   5.815   5.116 -0.4918 -0.6330 -0.6357
  410MOL0     C55222   1.261   5.880   5.239 -0.2158 -0.3414 -0.8710
  410MOL0     O55223   1.295   6.017   5.238 -0.5166  0.7688 -0.3417
  410MOL0     C55224   1.357   6.062   5.364  0.9069  0.4722  0.1529
  410MOL0     C55225   1.417   6.204   5.349 -0.0714  0.1351 -1.1376
  410MOL0     C55226   1.552   6.196   5.270 -0.6884 -0.2378  1.0065
  410MOL0     C55227   1.678   6.187   5.352 -0.3551 -0.8600 -0.2177
  410MOL0     C55228   1.805   6.196   5.272  0.7308 -0.4438  0.2125
  410MOL0     C55229   1.845   6.071   5.188  0.1344  0.4459 -0.7103
  410MOL0     C55230   1.755   6.036   5.064 -0.8675 -1.2818  0.2763
  410MOL0     C55231   1.830   5.961   4.956  0.1016 -0.1442 -1.0807
  410MOL0     N55232   1.920   6.036   4.873  0.2593  0.1991 -0.4263
  410MOL0     C55233   2.060   6.038   4.875  0.2788  0.2217 -0.4522
  410MOL0     C55234   2.095   6.122   4.782 -0.4620 -0.3836  0.3895
  410MOL0     C55235   2.244   6.149   4.764  0.1228  0.7692 -0.4084
  410MOL0     C55236   2.281   6.293   4.803  0.0920 -0.4145  0.2221
  410MOL0     C55237   2.275   6.392   4.685  0.7297 -0.1614  0.8062
  410MOL0     C55238   2.364   6.355   4.564 -0.1690 -0.1417 -0.1558
  410MOL0     O55239   2.494   6.290   4.587  0.5654  0.3378 -0.2893
  410MOL0     C55240   2.605   6.374   4.617  0.1705  0.0203 -0.0130
  410MOL0     C55241   2.600   6.510   4.621 -0.4706 -0.7011  0.2559
  410MOL0     C55242   2.711   6.594   4.661  0.6419  0.3706  0.4328
  410MOL0     C55243   2.834   6.524   4.687  0.3088  0.0218  0.4271
  410MOL0     C55244   2.950   6.602   4.734 -0.2486  0.1261  0.2296
  410MOL0     O55245   3.076   6.548   4.718 -0.4341  0.2546 -0.2569
  410MOL0     C55246   3.190   6.625   4.721 -0.8211  0.1281  0.1924
  410MOL0     C55247   3.197   6.745   4.662 -0.8466 -0.4946  1.1753
  410MOL0     C55248   3.305   6.834   4.674 -0.4461  0.4155 -0.7781
  410MOL0     C55249   3.424   6.780   4.725  1.5026  0.7421 -0.3971
  410MOL0     O55250   3.534   6.859   4.743  0.0718  0.5829 -0.7455
  410MOL0     C55251   3.570   6.928   4.623  0.0228 -0.4525  0.0823
  410MOL0     C55252   3.635   6.840   4.525  0.1140  0.2663  0.7166
  410MOL0     C55253   3.761   6.781   4.591  0.1346 -0.0072 -0.7259
  410MOL0     C55254   3.837   6.686   4.491  0.6898 -0.6434  0.4846
  410MOL0     C55255   3.982   6.639   4.540  0.5736 -0.3396  0.5019
  410MOL0     C55256   3.992   6.604   4.689  0.3166  0.3344 -0.0536
  410MOL0     C55257   3.891   6.483   4.723 -0.4446 -0.4870 -0.4721
  410MOL0     C55258   3.947   6.408   4.840 -0.4443  0.1476 -0.9799
  410MOL0    Cl55259   4.110   6.345   4.807 -0.2382 -0.2612 -0.0178
  410MOL0     C55260   3.424   6.643   4.773 -0.1338 -0.7168  0.1041
  410MOL0     C55261   3.311   6.567   4.779  0.2662  0.2266 -0.4991
  410MOL0     O55262   2.927   6.708   4.783  0.0902  0.3408  0.5349
  410MOL0     C55263   2.841   6.387   4.671  0.4125 -0.0214 -0.6045
  410MOL0     C55264   2.729   6.309   4.636  0.1244  0.3883  0.6782
  410MOL0     N55265   1.986   6.173   4.719 -0.0933 -0.8622 -0.4742
  410MOL0     N55266   1.880   6.119   4.779  0.7489 -0.9072 -0.0486
  410MOL0     C55267   1.212   5.804   5.353  0.8546 -0.2253 -0.0307
  410MOL0     C55268   1.167   5.672   5.336 -0.7484  0.2425  0.0908
  410MOL0     C55269   0.997   5.288   5.240  0.8210  0.8489  0.6050
  410MOL0     C55270   0.883   5.344   5.186  0.0243  0.1009 -0.8713
  410MOL0     C55271   0.766   5.274   5.175  0.7072 -0.4918 -0.3128
  410MOL0     C55272   0.766   5.141   5.210 -0.2919  0.1061 -0.3529
  410MOL0     O55273   0.656   5.060   5.194 -0.0567 -0.1848  0.2776
  410MOL0     C55274   0.524   5.113   5.195 -0.6667  0.2182  0.0808
  410MOL0     C55275   0.513   5.181   5.334  0.3933  0.6906  0.0739
  410MOL0     C55276   0.483   5.070   5.443  0.6454 -0.3717 -0.1989
  410MOL0     C55277   0.438   5.141   5.571 -0.1389 -0.4931  0.3634
  410MOL0     C55278   0.548   5.226   5.628 -0.6935 -1.0323 -0.0133
  410MOL0     C55279   0.623   5.311   5.673 -0.1046 -0.4145 -0.2893
  410MOL0     C55280   0.887   5.083   5.248  0.4814 -0.5604 -0.2074
  410MOL0     C55281   1.005   5.148   5.269  0.8954 -0.3402 -1.3596
  410MOL0     C55282   1.131   5.071   5.319 -0.5197  0.2380 -0.1630
  410MOL0     H55283   1.240   5.641   5.005 -0.9985 -2.3116  1.5185
  410MOL0     H55284   1.320   5.875   5.037 -2.4682 -0.0551 -1.3765
  410MOL0     H55285   1.281   6.080   5.440 -0.0401  1.8316 -1.0626
  410MOL0     H55286   1.432   5.988   5.394  1.1901  0.1618 -1.2063
  410MOL0     H55287   1.429   6.255   5.446  1.1445 -1.5896 -0.3243
  410MOL0     H55288   1.346   6.261   5.289 -2.5752  0.7111  2.0919
  410MOL0     H55289   1.558   6.275   5.195  2.5391 -1.1336  0.1811
  410MOL0     H55290   1.544   6.101   5.216 -2.1390 -1.2378  2.8095
  410MOL0     H55291   1.680   6.270   5.423  2.4489 -1.1270  0.1245
  410MOL0     H55292   1.678   6.091   5.406 -2.7563 -0.7459  0.0851
  410MOL0     H55293   1.807   6.285   5.209  2.5728  0.3048  1.2513
  410MOL0     H55294   1.883   6.209   5.347  2.3548 -1.3330 -1.2675
  410MOL0     H55295   1.950   6.093   5.164  1.2265 -3.7464 -0.4922
  410MOL0     H55296   1.846   5.984   5.254 -2.2800  1.1425  0.3305
  410MOL0     H55297   1.724   6.131   5.020 -2.3659 -2.3170 -1.0008
  410MOL0     H55298   1.671   5.974   5.097 -1.0547 -1.0874  0.1689
  410MOL0     H55299   1.883   5.875   4.999 -0.8611 -0.2520 -0.0584
  410MOL0     H55300   1.752   5.918   4.892  0.9905  1.6481 -3.5115
  410MOL0     H55301   2.126   5.988   4.944 -0.4094  1.6381  1.2902
  410MOL0     H55302   2.296   6.084   4.835 -0.5758 -0.4174 -0.9506
  410MOL0     H55303   2.274   6.129   4.661 -0.4453 -2.1160 -0.0818
  410MOL0     H55304   2.231   6.321   4.896  0.7100 -1.6231  0.9433
  410MOL0     H55305   2.387   6.278   4.828 -0.1025 -1.4568  0.4947
  410MOL0     H55306   2.311   6.486   4.728 -1.8466  0.8196  1.0044
  410MOL0     H55307   2.173   6.410   4.649  0.3890 -1.8097  0.8937
  410MOL0     H55308   2.374   6.439   4.494  2.1835  0.0996  0.3942
  410MOL0     H55309   2.309   6.278   4.510  0.9542 -1.6414  0.7511
  410MOL0     H55310   2.506   6.558   4.595  1.6511  2.1753 -3.1189
  410MOL0     H55311   2.708   6.702   4.664 -1.2393  0.3540  0.1979
  410MOL0     H55312   3.110   6.792   4.617  1.3585  0.6634 -2.3222
  410MOL0     H55313   3.289   6.939   4.651 -0.3907  1.1755  2.2378
  410MOL0     H55314   3.487   6.982   4.576 -0.3463 -1.3769 -0.3542
  410MOL0     H55315   3.646   7.000   4.655  0.3897 -0.2755 -1.1230
  410MOL0     H55316   3.561   6.762   4.506 -1.5691  1.2613  2.8012
  410MOL0     H55317   3.655   6.890   4.429 -0.7755 -2.0954 -0.8029
  410MOL0     H55318   3.828   6.867   4.608 -1.9840  1.2313  2.2228
  410MOL0     H55319   3.753   6.722   4.683  3.1654  1.7452  0.8288
  410MOL0     H55320   3.841   6.739   4.395 -1.0053  1.1878  1.3488
  410MOL0     H55321   3.772   6.598   4.487  0.3077 -0.3361 -0.1976
  410MOL0     H55322   4.055   6.709   4.498 -0.0734 -1.0759 -2.0672
  410MOL0     H55323   4.006   6.549   4.483 -0.3883 -0.0215 -0.4553
  410MOL0     H55324   4.095   6.568   4.701  0.0473 -1.1206 -1.6677
  410MOL0     H55325   3.973   6.686   4.759 -1.3578  0.2886 -0.4288
  410MOL0     H55326   3.895   6.417   4.636 -3.2720 -1.6611  0.1813
  410MOL0     H55327   3.791   6.524   4.740  0.7694  2.8226 -0.7510
  410MOL0     H55328   3.951   6.464   4.934  0.5111 -2.0885  0.3921
  410MOL0     H55329   3.878   6.326   4.858  1.2665 -1.2517 -0.4688
  410MOL0     H55330   3.513   6.589   4.806  0.0418 -2.3133 -2.6752
  410MOL0     H55331   3.314   6.468   4.824  0.6809  0.1698 -0.6476
  410MOL0     H55332   2.935   6.335   4.688 -1.3061 -2.7665  1.3907
  410MOL0     H55333   2.730   6.201   4.642  1.7176  0.2963 -0.4788
  410MOL0     H55334   1.195   5.843   5.453 -4.0916 -0.1868 -0.6541
  410MOL0     H55335   1.125   5.625   5.424  0.3319  0.7949  0.9252
  410MOL0     H55336   0.889   5.446   5.148  2.4137  1.0451  1.6303
  410MOL0     H55337   0.672   5.319   5.143 -2.4740 -5.9581  0.0504
  410MOL0     H55338   0.442   5.041   5.183  0.5059 -1.6076  2.2549
  410MOL0     H55339   0.512   5.194   5.123  1.7191  0.7938  0.2560
  410MOL0     H55340   0.422   5.242   5.328  0.2361  0.8791  2.9576
  410MOL0     H55341   0.593   5.250   5.362  1.3583 -0.1022 -0.6449
  410MOL0     H55342   0.576   5.017   5.464  0.1975 -0.8085  0.7613
  410MOL0     H55343   0.412   4.992   5.414 -1.0858  0.0444  2.4829
  410MOL0     H55344   0.350   5.202   5.546 -0.0131 -1.5782 -3.2954
  410MOL0     H55345   0.408   5.065   5.643 -2.2543  1.0047  1.1508
  410MOL0     H55346   0.699   5.371   5.720  2.4521 -2.4118 -1.5894
  410MOL0     H55347   0.886   4.976   5.270  1.4135 -0.0165  3.1313
  410MOL0     H55348   1.227   5.123   5.317  1.5681 -3.0304  3.5891
  410MOL0     H55349   1.106   5.061   5.425 -1.1696  2.9256  0.0226
  410MOL0     H55350   1.138   4.971   5.275  1.0691  0.2369  0.0426
  411MOL0     O55351   3.546   4.447   6.594 -0.2471  0.1307  0.2511
  411MOL0     C55352   3.512   4.498   6.489 -0.4247 -0.5913 -0.1139
  411MOL0     O55353   3.587   4.598   6.432 -0.3577  0.2844 -0.2527
  411MOL0     C55354   3.719   4.590   6.476  0.2323  0.2957  0.0467
  411MOL0     C55355   3.777   4.701   6.554  0.1578  0.1635  0.1048
  411MOL0     C55356   3.920   4.701   6.589  0.9398  0.3353  0.0077
  411MOL0     C55357   3.995   4.592   6.553 -0.4610  0.4009  0.5286
  411MOL0     O55358   4.121   4.569   6.609  0.1682  0.2220  0.1168
  411MOL0     C55359   4.115   4.455   6.699 -0.5359 -0.1783 -0.0364
  411MOL0     C55360   4.255   4.431   6.769 -0.1818 -0.0472  0.4726
  411MOL0     C55361   4.364   4.433   6.668 -0.3676 -0.7356 -0.3217
  411MOL0     C55362   4.497   4.403   6.736  1.1201 -0.1989  0.2217
  411MOL0     C55363   4.620   4.385   6.650  0.3754 -0.4193 -0.0450
  411MOL0     C55364   4.650   4.520   6.577  0.4882  0.0440  0.6909
  411MOL0     C55365   4.778   4.495   6.497  0.8361  0.5790 -0.4428
  411MOL0     C55366   4.845   4.620   6.438 -0.0663 -0.5842  0.3174
  411MOL0     N55367   4.978   4.585   6.386  0.5967  0.3633 -0.7108
  411MOL0     C55368   4.995   4.552   6.254  0.6149 -0.0341 -0.1076
  411MOL0     C55369   5.127   4.541   6.245 -0.2297  0.4407  0.2498
  411MOL0     C55370   5.195   4.522   6.118 -0.2244  0.1109  0.2762
  411MOL0     C55371   5.294   4.397   6.109 -0.7206 -0.3411  0.0053
  411MOL0     C55372   5.374   4.383   5.978  0.2441 -0.1199 -0.3315
  411MOL0     C55373   5.462   4.507   5.939 -0.0456  0.0384  0.3863
  411MOL0     O55374   5.532   4.558   6.057 -0.0902 -0.2585  0.1950
  411MOL0     C55375   5.644   4.629   6.041 -0.3457 -0.1370 -0.1700
  411MOL0     C55376   5.715   4.636   6.162 -0.1835  0.3729  0.5565
  411MOL0     C55377   5.839   4.703   6.162 -0.7755  1.1819  0.1370
  411MOL0     C55378   5.885   4.783   6.049  0.5176  0.1917  0.7803
  411MOL0     C55379   6.013   4.852   6.050  0.7304 -0.2438 -0.2313
  411MOL0     O55380   6.045   4.930   5.943  0.2854  0.0353 -0.0284
  411MOL0     C55381   6.172   4.990   5.952  0.4723 -0.7311  0.6189
  411MOL0     C55382   6.182   5.123   6.003  0.3886  0.4121  0.0467
  411MOL0     C55383   6.307   5.169   6.021 -0.1975 -0.8365 -0.4190
  411MOL0     C55384   6.420   5.106   5.981 -0.2109  0.2881 -0.8472
  411MOL0     O55385   6.532   5.173   6.013  0.2149  0.2402  0.2664
  411MOL0     C55386   6.654   5.109   5.992 -0.2026 -0.1935 -0.3450
  411MOL0     C55387   6.763   5.204   6.018 -0.3896  0.0795 -0.8225
  411MOL0     C55388   6.896   5.124   6.033 -0.1818 -0.1539  0.0852
  411MOL0     C55389   7.018   5.218   6.037 -1.5433 -0.1365 -0.4397
  411MOL0     C55390   7.146   5.148   6.070 -0.4919  0.5112  0.0028
  411MOL0     C55391   7.271   5.210   6.008  1.1427 -0.1363  0.1414
  411MOL0     C55392   7.284   5.355   6.038 -0.5130 -0.5538  1.0838
  411MOL0     C55393   7.306   5.394   6.186  0.4434  0.3643 -0.1313
  411MOL0    Cl55394   7.350   5.565   6.191 -0.2768  0.1069 -0.2235
  411MOL0     C55395   6.404   4.978   5.930 -0.2971 -0.2792  0.4977
  411MOL0     C55396   6.276   4.922   5.908  0.0452  0.2756  0.6570
  411MOL0     O55397   6.084   4.844   6.152 -0.1809  0.7527  1.0601
  411MOL0     C55398   5.806   4.776   5.932 -0.4373  0.8005 -1.1763
  411MOL0     C55399   5.695   4.693   5.929  0.4456 -0.9162  0.1179
  411MOL0     N55400   5.182   4.564   6.374  0.1955  0.8961  0.1261
  411MOL0     N55401   5.089   4.585   6.461  0.2997 -0.0500  0.1896
  411MOL0     C55402   3.930   4.492   6.476 -0.9544  0.8642  1.4404
  411MOL0     C55403   3.794   4.484   6.437 -0.6083  0.1144  0.2717
  411MOL0     C55404   3.376   4.462   6.445 -0.2561 -0.5773  0.1040
  411MOL0     C55405   3.325   4.550   6.342 -0.5955  0.4716 -0.3536
  411MOL0     C55406   3.204   4.513   6.281  0.2176  0.1886 -0.0399
  411MOL0     C55407   3.127   4.403   6.321 -0.5514 -0.3190  0.1827
  411MOL0     O55408   3.002   4.366   6.274  0.2354 -0.5368  0.2976
  411MOL0     C55409   3.000   4.351   6.125  0.3955 -0.5762 -0.3747
  411MOL0     C55410   2.876   4.268   6.074  0.2237 -0.6266  0.1101
  411MOL0     C55411   2.876   4.126   6.126  0.5642  0.3350  0.3194
  411MOL0     C55412   2.816   4.021   6.023  0.7359 -0.5089  0.7965
  411MOL0     C55413   2.673   4.036   6.001  1.0821 -0.2723  0.9246
  411MOL0     C55414   2.550   4.040   5.983  0.2670  0.7220 -0.5521
  411MOL0     C55415   3.176   4.330   6.431  0.4346 -0.4723 -0.2904
  411MOL0     C55416   3.299   4.352   6.492 -0.1881  0.2787  0.5074
  411MOL0     C55417   3.336   4.260   6.604 -0.4488 -0.1411 -0.1211
  411MOL0     H55418   3.717   4.791   6.562  0.4170  0.3490 -0.0143
  411MOL0     H55419   3.975   4.784   6.633  1.5482  0.0535 -0.2087
  411MOL0     H55420   4.031   4.471   6.767  0.6728  2.2901  1.0120
  411MOL0     H55421   4.089   4.370   6.637 -2.5515  1.0684 -0.9828
  411MOL0     H55422   4.247   4.331   6.813 -0.7673 -0.7972 -1.2555
  411MOL0     H55423   4.279   4.502   6.848  0.2824  5.1093 -3.7565
  411MOL0     H55424   4.369   4.533   6.623  1.8459 -0.1867  1.0294
  411MOL0     H55425   4.343   4.370   6.581 -0.8158 -0.4818 -0.4037
  411MOL0     H55426   4.517   4.479   6.812  0.5976 -0.4009  0.5705
  411MOL0     H55427   4.480   4.304   6.781  3.3160 -0.5832  0.2757
  411MOL0     H55428   4.705   4.348   6.709  1.9980 -1.9169 -3.0810
  411MOL0     H55429   4.600   4.304   6.580 -1.2776  0.5366 -0.7446
  411MOL0     H55430   4.571   4.542   6.505  1.1727 -0.4122 -0.2274
  411MOL0     H55431   4.668   4.605   6.643  1.2260  3.2259 -3.2171
  411MOL0     H55432   4.744   4.436   6.411 -1.4222  1.2997 -0.1064
  411MOL0     H55433   4.853   4.439   6.555 -0.3969 -0.4607  0.2020
  411MOL0     H55434   4.781   4.667   6.362  1.2661  2.5690  0.9678
  411MOL0     H55435   4.864   4.702   6.507 -0.6520 -0.4624  0.3351
  411MOL0     H55436   4.917   4.530   6.182 -0.6997  0.4546  1.1062
  411MOL0     H55437   5.122   4.509   6.038  0.3207 -4.0457  0.2181
  411MOL0     H55438   5.228   4.624   6.095 -0.9563  1.0540  3.0387
  411MOL0     H55439   5.375   4.413   6.181 -0.2042 -4.3026  0.5044
  411MOL0     H55440   5.250   4.301   6.138 -1.8774  0.0988 -0.2290
  411MOL0     H55441   5.304   4.358   5.897  1.4411 -3.0348 -0.5810
  411MOL0     H55442   5.439   4.295   5.977  0.2259 -0.1411  0.1701
  411MOL0     H55443   5.383   4.572   5.902  0.3148 -0.3775 -1.2178
  411MOL0     H55444   5.523   4.481   5.851 -2.4187 -0.3581 -1.2428
  411MOL0     H55445   5.678   4.566   6.236  1.6547 -0.2135  0.9764
  411MOL0     H55446   5.884   4.704   6.260 -2.0286 -0.6945  0.7852
  411MOL0     H55447   6.098   5.180   6.041 -0.7821 -0.9126 -0.4735
  411MOL0     H55448   6.312   5.258   6.084  2.4204 -1.2662  0.1130
  411MOL0     H55449   6.658   5.023   6.059  2.5135 -3.3327 -4.0426
  411MOL0     H55450   6.672   5.076   5.889  0.4366 -0.9044 -0.0121
  411MOL0     H55451   6.772   5.284   5.945  1.0344  2.2158  1.5441
  411MOL0     H55452   6.736   5.259   6.109  2.1868  0.7098 -0.3753
  411MOL0     H55453   6.892   5.064   6.124  2.2103 -3.7670 -1.9280
  411MOL0     H55454   6.911   5.044   5.959 -1.2878 -1.4192  1.1695
  411MOL0     H55455   7.003   5.297   6.110 -3.7165 -0.5724 -0.3430
  411MOL0     H55456   7.023   5.266   5.939 -0.4497 -0.0091 -0.3431
  411MOL0     H55457   7.141   5.047   6.028  0.2203  0.1821  0.6909
  411MOL0     H55458   7.166   5.133   6.177  3.2073  1.1125 -0.4757
  411MOL0     H55459   7.361   5.153   6.033  0.6421 -1.0236 -0.0247
  411MOL0     H55460   7.260   5.205   5.899 -1.3582  0.6326  0.3010
  411MOL0     H55461   7.204   5.414   5.993  2.3105  2.3148 -0.6498
  411MOL0     H55462   7.371   5.388   5.980  0.6706  0.4650  3.3433
  411MOL0     H55463   7.212   5.378   6.240 -0.2406  1.0770 -1.0600
  411MOL0     H55464   7.385   5.331   6.228 -0.6186 -0.4427  0.6864
  411MOL0     H55465   6.490   4.920   5.898 -0.8507 -0.2453 -1.1169
  411MOL0     H55466   6.262   4.822   5.869 -1.5016  1.1096 -1.0682
  411MOL0     H55467   5.839   4.827   5.842 -2.3993 -0.4306 -2.6730
  411MOL0     H55468   5.642   4.688   5.834  0.9705 -1.5876 -0.1387
  411MOL0     H55469   3.986   4.400   6.463 -1.5202  0.1086  3.8541
  411MOL0     H55470   3.754   4.394   6.393  1.6467 -0.5394 -0.5930
  411MOL0     H55471   3.379   4.634   6.297  1.6968 -1.4778 -1.4985
  411MOL0     H55472   3.172   4.575   6.198  4.1654  0.5391 -1.5095
  411MOL0     H55473   3.093   4.307   6.087 -0.8141 -2.2291 -1.6236
  411MOL0     H55474   2.990   4.450   6.079  2.0673 -0.2980 -0.2212
  411MOL0     H55475   2.879   4.276   5.965 -1.3108  0.0977  0.0953
  411MOL0     H55476   2.781   4.306   6.114  0.8726  1.6900 -0.4288
  411MOL0     H55477   2.826   4.111   6.222  2.1901 -1.9790  0.8910
  411MOL0     H55478   2.978   4.086   6.123 -0.8099 -4.3571  3.9673
  411MOL0     H55479   2.865   4.025   5.925  0.9240  1.2670  0.9242
  411MOL0     H55480   2.825   3.923   6.070 -0.0528 -0.6989  0.5734
  411MOL0     H55481   2.449   4.066   5.959  0.3881  2.1798  0.3580
  411MOL0     H55482   3.112   4.250   6.465 -1.8564  1.4448  0.1599
  411MOL0     H55483   3.322   4.322   6.693 -1.1226 -0.9727  0.3593
  411MOL0     H55484   3.266   4.177   6.611  0.8647 -1.1496  2.3496
  411MOL0     H55485   3.437   4.218   6.600 -1.3966 -2.6390  0.3495
  412MOL0     O55486   5.844   5.091   4.676 -0.7717  0.0433  0.5153
  412MOL0     C55487   5.855   5.211   4.673  0.5301  0.0815  0.1886
  412MOL0     O55488   5.935   5.290   4.758 -0.1766  0.7251  0.9197
  412MOL0     C55489   6.041   5.224   4.826  0.0364 -0.6362  0.4167
  412MOL0     C55490   6.053   5.233   4.964 -0.0727  0.0189  0.1016
  412MOL0     C55491   6.151   5.168   5.031  0.4925 -0.1794  0.0266
  412MOL0     C55492   6.246   5.090   4.964 -0.3884 -0.3314  0.8559
  412MOL0     O55493   6.359   5.029   5.021  0.7713  0.7233  0.3670
  412MOL0     C55494   6.381   5.058   5.161  0.2443 -0.4359  0.6954
  412MOL0     C55495   6.524   5.033   5.200 -0.1520  0.2261 -0.6049
  412MOL0     C55496   6.524   5.018   5.352 -0.4159  0.4030  0.1227
  412MOL0     C55497   6.656   4.952   5.399  0.7070 -0.0534 -0.4753
  412MOL0     C55498   6.641   4.936   5.551 -0.5852  0.8895  1.0342
  412MOL0     C55499   6.766   4.875   5.622  0.9087 -0.3912 -0.1226
  412MOL0     C55500   6.833   4.756   5.541 -0.0888  0.4877  0.2567
  412MOL0     C55501   6.966   4.709   5.610 -0.2520  0.1186  0.8802
  412MOL0     N55502   7.047   4.622   5.532 -0.3346  0.4759  0.4227
  412MOL0     C55503   7.102   4.651   5.410  0.2162  0.1924  0.1732
  412MOL0     C55504   7.168   4.531   5.379 -0.2982 -1.1403 -0.0695
  412MOL0     C55505   7.240   4.488   5.260 -0.2966 -1.5299  0.1981
  412MOL0     C55506   7.388   4.541   5.253 -0.4230  0.1161  0.0764
  412MOL0     C55507   7.394   4.699   5.238  0.0796  1.4696  0.3189
  412MOL0     C55508   7.535   4.746   5.212 -0.1561 -0.2731 -0.2873
  412MOL0     O55509   7.562   4.737   5.074  0.4363  0.5082 -0.4068
  412MOL0     C55510   7.684   4.734   5.010  0.7139 -0.6149 -0.6406
  412MOL0     C55511   7.685   4.728   4.872 -0.3434  0.8587  0.1898
  412MOL0     C55512   7.802   4.719   4.801 -0.1802  0.0564 -0.4666
  412MOL0     C55513   7.928   4.734   4.868  0.5768 -0.1794 -0.1516
  412MOL0     C55514   8.042   4.733   4.777 -0.0521  0.8088  0.8435
  412MOL0     O55515   8.026   4.713   4.641 -0.4077 -0.3343  0.9168
  412MOL0     C55516   8.121   4.754   4.553 -0.0329 -0.2545  0.1333
  412MOL0     C55517   8.193   4.878   4.559 -0.5059 -0.0355  0.1680
  412MOL0     C55518   8.286   4.911   4.456 -0.4125  0.2142 -0.1767
  412MOL0     C55519   8.325   4.818   4.359  0.2951  0.0942  0.2003
  412MOL0     O55520   8.412   4.866   4.264 -0.0564 -0.8632 -0.2522
  412MOL0     C55521   8.503   4.777   4.207  0.2796  0.4526  0.0926
  412MOL0     C55522   8.639   4.858   4.191 -0.8696  1.4446  0.4432
  412MOL0     C55523   8.634   4.989   4.106 -0.1709 -0.3041  0.2329
  412MOL0     C55524   8.771   5.049   4.068  0.0468  0.4604  0.5082
  412MOL0     C55525   8.764   5.162   3.970  0.2606 -0.5964  0.2403
  412MOL0     C55526   8.897   5.193   3.900  0.0141  0.2030 -0.3862
  412MOL0     C55527   8.999   5.271   3.982 -0.0114  0.1273  0.8207
  412MOL0     C55528   9.135   5.265   3.908 -0.1257  0.6926 -0.3279
  412MOL0    Cl55529   9.263   5.274   4.030 -0.2435 -0.4933 -0.0255
  412MOL0     C55530   8.261   4.697   4.363 -0.3339 -0.3590  0.0226
  412MOL0     C55531   8.155   4.659   4.447 -0.3585 -0.1797 -0.4588
  412MOL0     O55532   8.151   4.762   4.835 -0.0403 -0.3982  0.7943
  412MOL0     C55533   7.927   4.767   5.003 -0.2745 -0.0621 -0.1697
  412MOL0     C55534   7.808   4.757   5.073  0.1816 -0.5802 -0.2407
  412MOL0     N55535   7.156   4.440   5.482  0.0218 -0.3953  0.7197
  412MOL0     N55536   7.087   4.501   5.581 -0.3220  0.4812  0.3591
  412MOL0     C55537   6.232   5.071   4.821  0.2091  0.3236 -0.2556
  412MOL0     C55538   6.127   5.142   4.758 -0.1052 -1.1379  0.5626
  412MOL0     C55539   5.766   5.287   4.583 -0.2354  0.2418  0.4249
  412MOL0     C55540   5.822   5.403   4.532 -0.4012  1.0900  0.3091
  412MOL0     C55541   5.739   5.478   4.441  0.0784 -0.1383 -0.6183
  412MOL0     C55542   5.608   5.449   4.419  0.5013  0.8733  0.8245
  412MOL0     O55543   5.526   5.536   4.346  0.8503  0.5482 -0.4494
  412MOL0     C55544   5.412   5.594   4.410  0.0177  0.1564 -0.1057
  412MOL0     C55545   5.294   5.519   4.328 -0.9237  0.8297  0.1506
  412MOL0     C55546   5.164   5.588   4.371 -0.2043 -0.3550 -0.6331
  412MOL0     C55547   5.056   5.568   4.260 -0.2730 -0.1793 -0.4483
  412MOL0     C55548   4.975   5.447   4.286  0.1648  0.5698 -0.1058
  412MOL0     C55549   4.909   5.346   4.310  0.4214  0.3285  0.1157
  412MOL0     C55550   5.561   5.334   4.478 -0.2889 -0.3305  0.1187
  412MOL0     C55551   5.639   5.243   4.552  0.0910  0.1522  0.1519
  412MOL0     C55552   5.570   5.117   4.593 -0.2692 -0.2550  0.2357
  412MOL0     H55553   5.979   5.288   5.020  0.0493 -0.0590  0.3402
  412MOL0     H55554   6.141   5.175   5.138 -1.3100 -2.2716  0.0759
  412MOL0     H55555   6.366   5.164   5.185  2.3787  0.1212 -0.2248
  412MOL0     H55556   6.315   4.997   5.223  0.8786 -0.0012  1.8287
  412MOL0     H55557   6.583   5.115   5.157  0.7595 -0.3499 -0.4676
  412MOL0     H55558   6.565   4.938   5.165  0.5141 -0.8188  2.7174
  412MOL0     H55559   6.441   4.955   5.385  0.1242 -0.0514  0.6279
  412MOL0     H55560   6.500   5.114   5.397 -2.4997  0.8109 -1.6877
  412MOL0     H55561   6.671   4.858   5.344  4.0636 -1.3334  2.2674
  412MOL0     H55562   6.747   5.004   5.368  1.2510  0.8824  2.4428
  412MOL0     H55563   6.634   5.025   5.615  1.0831 -0.4490  3.2020
  412MOL0     H55564   6.559   4.867   5.571 -0.7281  0.0166 -2.0206
  412MOL0     H55565   6.840   4.955   5.634  0.8916 -0.6850  2.5893
  412MOL0     H55566   6.753   4.857   5.729  1.5884 -1.1721 -0.1606
  412MOL0     H55567   6.858   4.786   5.439  1.4552  0.4142  0.5806
  412MOL0     H55568   6.758   4.677   5.548  0.5244 -0.4217 -2.2464
  412MOL0     H55569   7.032   4.792   5.635 -1.0142  0.8299  0.5941
  412MOL0     H55570   6.941   4.672   5.710 -2.0936  2.6513  1.4720
  412MOL0     H55571   7.094   4.740   5.348  2.4323 -0.8128 -1.7063
  412MOL0     H55572   7.236   4.380   5.241 -0.1861 -1.4538 -0.2832
  412MOL0     H55573   7.179   4.528   5.178  0.8740  1.4699  0.6811
  412MOL0     H55574   7.450   4.514   5.339  1.4856  0.6078 -1.0891
  412MOL0     H55575   7.446   4.490   5.176 -1.0663 -2.0974  0.9659
  412MOL0     H55576   7.362   4.749   5.329 -0.8517 -0.1831  0.9360
  412MOL0     H55577   7.337   4.733   5.151 -1.1607 -1.8554 -0.3024
  412MOL0     H55578   7.616   4.694   5.265  0.7177  0.9746 -0.3443
  412MOL0     H55579   7.547   4.852   5.240  1.5485 -0.5594  0.2019
  412MOL0     H55580   7.590   4.716   4.821 -0.5739 -0.2156  0.8428
  412MOL0     H55581   7.801   4.703   4.693  3.0387  2.3790 -1.0085
  412MOL0     H55582   8.173   4.947   4.640 -2.1910  0.2679 -0.4652
  412MOL0     H55583   8.341   5.005   4.460  0.2641 -0.2216  1.1853
  412MOL0     H55584   8.516   4.694   4.277  0.8900  1.8124  1.6777
  412MOL0     H55585   8.471   4.742   4.109 -0.4495  0.6499  0.2554
  412MOL0     H55586   8.689   4.881   4.286  1.1558 -1.3581  0.2078
  412MOL0     H55587   8.711   4.782   4.158 -0.0116  2.1697  0.6153
  412MOL0     H55588   8.574   4.962   4.018  0.1430 -1.2852  0.3130
  412MOL0     H55589   8.586   5.068   4.166  0.5093 -0.6121  1.2001
  412MOL0     H55590   8.826   4.961   4.033  0.5194  0.9203  0.0667
  412MOL0     H55591   8.823   5.086   4.157  3.4733 -1.0302 -0.6865
  412MOL0     H55592   8.710   5.245   4.016  0.0502 -0.0428 -0.9843
  412MOL0     H55593   8.700   5.143   3.883  1.1416 -0.3045 -0.4886
  412MOL0     H55594   8.942   5.098   3.868  1.0745 -0.5196  2.8976
  412MOL0     H55595   8.872   5.254   3.813  0.4022  0.8872 -0.0293
  412MOL0     H55596   9.017   5.241   4.086  2.5090  3.7447  1.6432
  412MOL0     H55597   8.981   5.379   3.991  0.6354  0.1562  1.9056
  412MOL0     H55598   9.156   5.175   3.850 -1.9378  0.7609 -1.1548
  412MOL0     H55599   9.149   5.352   3.843 -2.2069  1.2337 -0.1298
  412MOL0     H55600   8.280   4.620   4.288  0.8117  0.9660 -1.1062
  412MOL0     H55601   8.103   4.565   4.433  3.0813 -2.2429 -0.5989
  412MOL0     H55602   8.017   4.790   5.059  0.1970 -0.4757 -0.7456
  412MOL0     H55603   7.811   4.781   5.179  1.0344  0.4214 -0.4757
  412MOL0     H55604   6.303   5.007   4.770  1.2771  0.4738  0.9914
  412MOL0     H55605   6.120   5.132   4.650 -1.4742  0.4356  0.4614
  412MOL0     H55606   5.921   5.442   4.555 -0.5823  1.5037  0.4067
  412MOL0     H55607   5.786   5.569   4.404  1.4398  0.6489  2.6830
  412MOL0     H55608   5.411   5.700   4.385 -1.0617 -0.4105 -2.7022
  412MOL0     H55609   5.401   5.584   4.519 -0.3609  1.8477  0.0402
  412MOL0     H55610   5.291   5.411   4.345  0.8768  1.1802  3.5177
  412MOL0     H55611   5.311   5.539   4.221  2.3669 -2.5745 -0.1707
  412MOL0     H55612   5.175   5.696   4.383 -0.3624  0.0838 -3.6691
  412MOL0     H55613   5.129   5.560   4.471  1.2707  1.3062  0.3984
  412MOL0     H55614   4.993   5.656   4.272  0.4457  0.1190  1.6320
  412MOL0     H55615   5.097   5.576   4.159  5.2455 -1.7166  1.2775
  412MOL0     H55616   4.860   5.253   4.330  0.0636  0.2964 -0.8974
  412MOL0     H55617   5.466   5.289   4.451 -0.3060 -1.6768  2.1803
  412MOL0     H55618   5.568   5.092   4.699 -4.1534  0.3651  0.4755
  412MOL0     H55619   5.462   5.124   4.576 -0.6249 -0.2148  2.2664
  412MOL0     H55620   5.624   5.037   4.541  0.8291  0.4356  0.2834
  413MOL0     O55621   0.465   0.419  10.601  0.1191  0.4313 -0.0493
  413MOL0     C55622   0.422   0.528  10.564  0.8475 -0.5743 -0.2125
  413MOL0     O55623   0.425   0.569  10.440 -0.3937  0.2481  0.0794
  413MOL0     C55624   0.498   0.502  10.351 -0.2509  0.9191 -0.3873
  413MOL0     C55625   0.432   0.423  10.252  1.0748 -0.2743  0.0194
  413MOL0     C55626   0.513   0.365  10.155  0.8726  0.5614  0.6549
  413MOL0     C55627   0.653   0.375  10.155 -0.0252  0.0343  0.0118
  413MOL0     O55628   0.716   0.317  10.050 -0.5092 -0.3978  0.2303
  413MOL0     C55629   0.730   0.422   9.952 -0.6214  0.1698  0.0288
  413MOL0     C55630   0.842   0.403   9.852 -0.2568  0.0762  0.2807
  413MOL0     C55631   0.818   0.288   9.753  0.3024 -0.1734 -0.0029
  413MOL0     C55632   0.941   0.259   9.665 -0.4887 -0.0525 -0.3809
  413MOL0     C55633   1.048   0.177   9.746  0.0077 -0.0370  0.0889
  413MOL0     C55634   1.178   0.153   9.667  0.9399 -0.3816 -0.6600
  413MOL0     C55635   1.285   0.085   9.754  0.1647  0.1590  0.3543
  413MOL0     C55636   1.395   0.027   9.658 -0.5332 -0.6841 -1.1085
  413MOL0     N55637   1.457  -0.102   9.707 -0.2219 -0.1801 -0.0099
  413MOL0     C55638   1.588  -0.113   9.752 -0.1153 -0.5357 -0.5279
  413MOL0     C55639   1.612  -0.248   9.763  0.4276 -0.2967 -0.7170
  413MOL0     C55640   1.751  -0.296   9.785  0.3478  0.1319  0.4765
  413MOL0     C55641   1.780  -0.417   9.686 -0.5681 -0.0129 -0.4920
  413MOL0     C55642   1.918  -0.485   9.717 -0.0745  0.5897 -0.0485
  413MOL0     C55643   2.043  -0.397   9.696 -0.0248 -0.6572  1.0107
  413MOL0     O55644   2.166  -0.474   9.706  0.8228 -0.1748  0.7005
  413MOL0     C55645   2.228  -0.487   9.829 -0.3150 -0.1722 -0.1959
  413MOL0     C55646   2.357  -0.532   9.826 -0.2141 -0.1351  0.0458
  413MOL0     C55647   2.436  -0.544   9.938 -0.5980  0.1344 -0.0041
  413MOL0     C55648   2.379  -0.495  10.063  0.0883 -0.6446 -0.6333
  413MOL0     C55649   2.462  -0.474  10.183  0.1170  0.6235 -0.2855
  413MOL0     O55650   2.602  -0.487  10.156 -0.0013  0.1275  0.1793
  413MOL0     C55651   2.701  -0.504  10.244  0.0636  0.7087 -0.1519
  413MOL0     C55652   2.708  -0.407  10.349 -0.6445  0.3373 -0.8232
  413MOL0     C55653   2.814  -0.419  10.441  0.0118  0.9991  0.3495
  413MOL0     C55654   2.907  -0.532  10.434  0.0746  0.7327  0.1818
  413MOL0     O55655   3.007  -0.529  10.529  0.9969  0.0717  0.1180
  413MOL0     C55656   3.133  -0.574  10.489 -0.0904  0.3391  0.1050
  413MOL0     C55657   3.226  -0.520  10.595  0.6977  0.8551 -0.3350
  413MOL0     C55658   3.362  -0.582  10.569  0.9270 -0.1316 -0.2466
  413MOL0     C55659   3.483  -0.511  10.629 -0.3220 -0.0637 -0.3219
  413MOL0     C55660   3.602  -0.608  10.634  0.0301  0.2486 -0.1689
  413MOL0     C55661   3.719  -0.547  10.703 -0.1716 -0.3522  0.2935
  413MOL0     C55662   3.848  -0.620  10.680 -0.3949  1.0874  0.0820
  413MOL0     C55663   3.973  -0.549  10.734 -0.3957 -0.1024 -1.1549
  413MOL0    Cl55664   4.009  -0.423  10.617 -0.0543  0.1233 -0.7231
  413MOL0     C55665   2.896  -0.622  10.328 -0.5076 -0.7897  0.1863
  413MOL0     C55666   2.789  -0.614  10.235 -0.4727  1.1886  0.0679
  413MOL0     O55667   2.415  -0.470  10.297  0.0702 -0.2171 -1.1809
  413MOL0     C55668   2.236  -0.474  10.066  0.4047 -0.3818  0.1218
  413MOL0     C55669   2.163  -0.462   9.950  0.5012 -0.1767 -0.0441
  413MOL0     N55670   1.487  -0.315   9.745  0.7375  0.0101 -0.1322
  413MOL0     N55671   1.394  -0.228   9.719 -0.4210 -0.2018  0.0547
  413MOL0     C55672   0.716   0.443  10.262 -0.3205 -0.4177 -1.6935
  413MOL0     C55673   0.637   0.510  10.363  0.1229 -0.5207 -0.1080
  413MOL0     C55674   0.356   0.613  10.674  0.4041  0.0891 -0.3024
  413MOL0     C55675   0.339   0.757  10.648  0.5747  1.4225  0.1221
  413MOL0     C55676   0.270   0.839  10.736  0.5099  0.2347 -0.0918
  413MOL0     C55677   0.230   0.798  10.869 -0.0195  0.2473  0.1251
  413MOL0     O55678   0.175   0.871  10.973 -0.0292  0.0372  0.5693
  413MOL0     C55679   0.112   0.994  10.954 -0.2338 -0.3595  0.0819
  413MOL0     C55680  -0.027   0.985  10.892 -0.4778  0.0324  0.2433
  413MOL0     C55681  -0.139   0.902  10.964  0.2078  0.1029 -0.3652
  413MOL0     C55682  -0.134   0.912  11.113 -0.4048 -1.1876 -0.3297
  413MOL0     C55683  -0.163   1.055  11.145 -0.4564  0.2159  0.2621
  413MOL0     C55684  -0.197   1.173  11.163 -0.2953 -0.4199 -0.7370
  413MOL0     C55685   0.251   0.660  10.896  0.5291  1.4150  0.6668
  413MOL0     C55686   0.315   0.563  10.804 -0.7751 -0.3151  0.6950
  413MOL0     C55687   0.357   0.431  10.849 -1.0200  0.4653 -0.3545
  413MOL0     H55688   0.325   0.407  10.259  0.8037  1.5342  0.6418
  413MOL0     H55689   0.471   0.288  10.091 -0.1182  1.0555  0.6791
  413MOL0     H55690   0.638   0.438   9.895  0.7663  1.2245 -2.0566
  413MOL0     H55691   0.746   0.519  10.000 -0.8656 -0.3124  1.0977
  413MOL0     H55692   0.934   0.365   9.897 -0.4508  0.6130  1.1359
  413MOL0     H55693   0.861   0.503   9.812 -3.1280  1.0215  1.1016
  413MOL0     H55694   0.734   0.319   9.690 -1.2328 -0.7761  1.6258
  413MOL0     H55695   0.780   0.202   9.810 -3.1882  0.3666 -1.2242
  413MOL0     H55696   0.909   0.195   9.583 -2.3401 -2.6173  2.1335
  413MOL0     H55697   0.990   0.352   9.635  0.6597  1.0656  4.1832
  413MOL0     H55698   1.084   0.240   9.828 -1.6224  2.1153 -0.7720
  413MOL0     H55699   1.014   0.080   9.784 -1.5228  1.0022  1.4866
  413MOL0     H55700   1.159   0.116   9.566  2.9627 -0.8081 -0.9390
  413MOL0     H55701   1.219   0.254   9.652 -0.9339  0.2654 -1.7447
  413MOL0     H55702   1.238   0.000   9.805 -0.9151  1.2790  1.3053
  413MOL0     H55703   1.341   0.143   9.828  2.1695 -1.2132 -0.0353
  413MOL0     H55704   1.355   0.024   9.556  1.9833  1.8320 -2.3433
  413MOL0     H55705   1.469   0.108   9.651 -2.5767  1.9505  3.4884
  413MOL0     H55706   1.659  -0.032   9.759 -0.1648 -0.6071  1.5022
  413MOL0     H55707   1.815  -0.212   9.756 -0.0019 -0.1942 -1.3561
  413MOL0     H55708   1.759  -0.325   9.890 -1.8064  2.2431  1.3393
  413MOL0     H55709   1.712  -0.502   9.695 -1.4441  0.6722 -0.5206
  413MOL0     H55710   1.765  -0.395   9.580 -1.3190 -3.6885 -1.2621
  413MOL0     H55711   1.913  -0.561   9.638  0.7076 -0.8553  1.2501
  413MOL0     H55712   1.934  -0.539   9.810  2.1326 -0.2745 -0.8577
  413MOL0     H55713   2.044  -0.314   9.767 -0.6615  1.9239 -1.7810
  413MOL0     H55714   2.031  -0.356   9.595 -1.8557  2.8256  2.4711
  413MOL0     H55715   2.405  -0.548   9.730 -0.0375 -0.8846  0.2487
  413MOL0     H55716   2.544  -0.554   9.935 -0.5112 -0.3929  2.7523
  413MOL0     H55717   2.649  -0.315  10.350  0.0529  0.8143  1.4005
  413MOL0     H55718   2.816  -0.350  10.525  0.4449  4.3232 -2.1845
  413MOL0     H55719   3.135  -0.682  10.476 -3.1258  0.5189 -3.5172
  413MOL0     H55720   3.156  -0.529  10.391 -2.3559  0.3856 -0.4503
  413MOL0     H55721   3.237  -0.411  10.594 -2.4218  1.2710 -0.1373
  413MOL0     H55722   3.202  -0.553  10.697  1.1211  0.9645 -0.1960
  413MOL0     H55723   3.361  -0.688  10.596 -0.6236 -0.0147  0.2141
  413MOL0     H55724   3.389  -0.589  10.463  0.2821 -0.9720 -0.3668
  413MOL0     H55725   3.463  -0.478  10.732  1.9919 -0.1306  0.2174
  413MOL0     H55726   3.512  -0.421  10.574 -0.8151  0.7693  0.7369
  413MOL0     H55727   3.630  -0.625  10.530 -0.7197  1.1428 -0.5379
  413MOL0     H55728   3.581  -0.704  10.681  0.1489  1.2918  2.1721
  413MOL0     H55729   3.740  -0.444  10.671  1.9742  0.0174  2.5445
  413MOL0     H55730   3.695  -0.531  10.808  0.9323  0.7401  0.4061
  413MOL0     H55731   3.879  -0.645  10.578  1.8171 -0.1116  0.9708
  413MOL0     H55732   3.847  -0.716  10.732 -2.3395  0.6959 -0.6034
  413MOL0     H55733   3.966  -0.501  10.832  1.8302  0.8639 -1.4086
  413MOL0     H55734   4.051  -0.625  10.742  1.2905  1.7060  0.9183
  413MOL0     H55735   2.966  -0.704  10.317 -1.8951 -2.1767  1.4481
  413MOL0     H55736   2.786  -0.677  10.147  1.1148  0.2536  0.6294
  413MOL0     H55737   2.191  -0.457  10.163 -0.0547 -0.6077 -0.0534
  413MOL0     H55738   2.061  -0.428   9.960  0.8970  0.5466  2.0384
  413MOL0     H55739   0.824   0.448  10.259 -0.3420  1.3912 -1.0226
  413MOL0     H55740   0.681   0.561  10.448  0.9094 -0.6191 -0.4463
  413MOL0     H55741   0.375   0.795  10.554 -0.1446  1.2179 -0.2387
  413MOL0     H55742   0.265   0.943  10.707  0.6666 -0.0768 -1.2897
  413MOL0     H55743   0.166   1.066  10.893  2.6002  0.5815  3.4127
  413MOL0     H55744   0.094   1.044  11.049 -1.4436 -2.1774  0.8694
  413MOL0     H55745  -0.015   0.947  10.790 -2.2710  0.1560 -0.0586
  413MOL0     H55746  -0.059   1.089  10.884  2.4805  0.9356 -1.2314
  413MOL0     H55747  -0.111   0.799  10.942  0.4148  0.7176 -3.5250
  413MOL0     H55748  -0.238   0.921  10.921  1.2833 -2.8270 -4.7849
  413MOL0     H55749  -0.208   0.850  11.164  0.1561 -1.0474  0.6881
  413MOL0     H55750  -0.032   0.888  11.146 -0.5329  1.3824  2.3604
  413MOL0     H55751  -0.202   1.280  11.166 -0.1487 -0.3583 -1.9456
  413MOL0     H55752   0.211   0.623  10.989 -1.2031  1.2821 -0.0985
  413MOL0     H55753   0.309   0.350  10.793 -0.5176 -0.2209  0.1876
  413MOL0     H55754   0.466   0.419  10.844 -1.1636 -1.0251 -0.1648
  413MOL0     H55755   0.319   0.413  10.949 -0.0783  0.8971  0.0923
  414MOL0     O55756   1.424   0.985   3.821 -0.4201  0.2724  0.6619
  414MOL0     C55757   1.371   0.984   3.711  0.5560  0.2188  0.6513
  414MOL0     O55758   1.435   0.990   3.591  0.1014  0.7728 -0.3120
  414MOL0     C55759   1.571   1.025   3.604 -0.4409 -0.3670  0.2158
  414MOL0     C55760   1.610   1.160   3.613 -0.2593 -0.0308 -0.3304
  414MOL0     C55761   1.745   1.203   3.640  0.2124 -0.0278 -0.5953
  414MOL0     C55762   1.852   1.107   3.645  0.3974  0.3813  0.2616
  414MOL0     O55763   1.973   1.150   3.680 -0.3590 -0.2286 -1.1832
  414MOL0     C55764   2.070   1.062   3.747  0.5588 -0.1284 -0.5865
  414MOL0     C55765   2.181   1.134   3.830 -0.1055  0.0202  0.4367
  414MOL0     C55766   2.297   1.173   3.743  0.0334 -0.1505  0.9005
  414MOL0     C55767   2.391   1.256   3.820 -0.3730  0.0447  0.3001
  414MOL0     C55768   2.525   1.257   3.756 -0.9170 -0.8567 -0.9309
  414MOL0     C55769   2.627   1.355   3.828  0.1897  0.3168 -0.1318
  414MOL0     C55770   2.753   1.373   3.755 -0.0243 -0.1584  0.9581
  414MOL0     C55771   2.849   1.475   3.811  0.0087  0.7599  0.7736
  414MOL0     N55772   2.992   1.453   3.777 -0.0822 -0.4587 -1.0482
  414MOL0     C55773   3.065   1.515   3.676  0.4994 -0.1024  0.2105
  414MOL0     C55774   3.195   1.471   3.707  0.3676  0.1655 -0.1542
  414MOL0     C55775   3.317   1.485   3.621  0.3627  0.7163  0.5490
  414MOL0     C55776   3.441   1.480   3.709 -1.2794 -0.3359  0.0850
  414MOL0     C55777   3.565   1.459   3.620 -0.8554 -0.8305  0.0589
  414MOL0     C55778   3.686   1.410   3.692  0.1520  0.4220 -0.3129
  414MOL0     O55779   3.653   1.292   3.765 -0.5241 -0.8566 -0.4371
  414MOL0     C55780   3.749   1.247   3.852  0.3065 -0.3408 -0.5930
  414MOL0     C55781   3.862   1.186   3.799 -0.1535  0.7515  0.3803
  414MOL0     C55782   3.958   1.136   3.879  0.1276  0.5144  0.6081
  414MOL0     C55783   3.950   1.154   4.017  0.9230  0.5065 -0.1214
  414MOL0     C55784   4.063   1.108   4.101 -0.4918  0.9339  0.2291
  414MOL0     O55785   4.190   1.093   4.036  0.1560 -0.8369 -0.1414
  414MOL0     C55786   4.295   1.029   4.096 -0.0053 -0.0900  0.9215
  414MOL0     C55787   4.385   0.953   4.018  0.2200 -0.3903 -0.0499
  414MOL0     C55788   4.484   0.878   4.088 -0.5392  1.1057 -0.3177
  414MOL0     C55789   4.506   0.890   4.230  0.3518 -1.0479 -0.6604
  414MOL0     O55790   4.597   0.817   4.306  0.3799  0.0386 -0.0375
  414MOL0     C55791   4.732   0.826   4.259  0.1288  0.2758  0.1546
  414MOL0     C55792   4.824   0.808   4.386 -0.4260 -0.5875  0.4635
  414MOL0     C55793   4.972   0.828   4.360 -1.0102  0.0731 -0.0997
  414MOL0     C55794   5.047   0.718   4.285  0.8445  0.1154  0.9693
  414MOL0     C55795   5.195   0.744   4.287 -0.2239 -0.0830 -0.0606
  414MOL0     C55796   5.280   0.618   4.279  0.6522  0.4817  1.3289
  414MOL0     C55797   5.424   0.644   4.298  0.4019  0.0106  0.9314
  414MOL0     C55798   5.499   0.570   4.409  0.1350  0.8323  0.2604
  414MOL0    Cl55799   5.478   0.653   4.565  0.1566 -0.7721  0.0962
  414MOL0     C55800   4.423   0.975   4.299  0.0432  0.2045 -0.8936
  414MOL0     C55801   4.323   1.048   4.227  0.2819 -0.0110 -0.2833
  414MOL0     O55802   4.031   1.069   4.215 -0.0122  0.4305 -0.7244
  414MOL0     C55803   3.838   1.207   4.079 -0.6129 -0.2857  0.0117
  414MOL0     C55804   3.730   1.251   3.993  0.0182  0.1709  0.9290
  414MOL0     N55805   3.189   1.386   3.817  0.3890  1.0543  0.1649
  414MOL0     N55806   3.066   1.369   3.847  0.7248 -0.1943  0.0014
  414MOL0     C55807   1.815   0.970   3.647  0.0100  0.1987  0.1005
  414MOL0     C55808   1.677   0.930   3.626  0.3970 -0.3254  0.6909
  414MOL0     C55809   1.226   0.990   3.708  0.7254 -0.5801 -0.0749
  414MOL0     C55810   1.168   1.000   3.578 -0.7615  0.0346  0.8624
  414MOL0     C55811   1.033   1.002   3.560 -0.1597  0.1934  0.1201
  414MOL0     C55812   0.956   1.000   3.682 -0.6737 -0.6612  0.8968
  414MOL0     O55813   0.812   1.001   3.686 -0.4457  0.3549  0.4661
  414MOL0     C55814   0.729   1.071   3.587  0.0567  0.8556 -0.1129
  414MOL0     C55815   0.593   1.056   3.654  0.3420  0.2496  1.1941
  414MOL0     C55816   0.467   1.072   3.565  0.1609 -0.3403  0.2001
  414MOL0     C55817   0.338   0.999   3.617  0.1813 -0.1455  0.0022
  414MOL0     C55818   0.240   1.086   3.686  0.5198  0.1871 -0.2815
  414MOL0     C55819   0.152   1.145   3.739  0.9607 -0.1384  1.7100
  414MOL0     C55820   1.018   1.006   3.812  1.0738  0.0989 -1.0437
  414MOL0     C55821   1.148   0.996   3.834  0.0717  0.2318 -0.3600
  414MOL0     C55822   1.200   1.002   3.979  0.0389 -0.5594 -0.4292
  414MOL0     H55823   1.533   1.236   3.600 -1.3318 -1.3858 -2.2771
  414MOL0     H55824   1.768   1.308   3.649  1.5735 -0.3465 -0.0646
  414MOL0     H55825   2.014   0.997   3.814 -0.1724  1.4698  0.3810
  414MOL0     H55826   2.118   1.008   3.665  0.5952 -0.6144 -0.2493
  414MOL0     H55827   2.212   1.064   3.908 -1.5682 -0.9190  0.2136
  414MOL0     H55828   2.143   1.227   3.872 -0.1659  0.6875 -1.0303
  414MOL0     H55829   2.259   1.233   3.660 -0.7452 -0.7004  0.8526
  414MOL0     H55830   2.348   1.085   3.705  0.9075  1.1578 -1.1575
  414MOL0     H55831   2.362   1.361   3.829  3.3242  1.1930  0.6733
  414MOL0     H55832   2.408   1.215   3.920  1.1001  0.6743  0.3394
  414MOL0     H55833   2.562   1.155   3.772 -0.6365 -0.8428 -1.4793
  414MOL0     H55834   2.507   1.273   3.649 -3.0465 -1.0035 -0.6491
  414MOL0     H55835   2.574   1.451   3.834  1.0473  0.8838 -1.1976
  414MOL0     H55836   2.642   1.314   3.928  1.4226 -1.7774 -1.1197
  414MOL0     H55837   2.727   1.421   3.660 -0.8304 -1.4273  0.5136
  414MOL0     H55838   2.800   1.280   3.722 -0.5819 -0.2756  0.4947
  414MOL0     H55839   2.811   1.573   3.780 -2.4046 -0.4315 -0.3453
  414MOL0     H55840   2.838   1.474   3.919 -0.2313  1.8502  0.7783
  414MOL0     H55841   3.020   1.570   3.594 -2.4168  1.4061  2.6393
  414MOL0     H55842   3.318   1.403   3.548 -0.3986  2.0815 -1.0569
  414MOL0     H55843   3.301   1.582   3.573  0.7048 -0.0375 -1.1567
  414MOL0     H55844   3.452   1.572   3.767  0.3502 -0.0401 -0.6477
  414MOL0     H55845   3.440   1.391   3.772 -2.1183 -2.1756 -2.3351
  414MOL0     H55846   3.581   1.560   3.580 -0.0068  0.7662  3.9682
  414MOL0     H55847   3.547   1.390   3.537 -0.2741  3.9524 -4.6342
  414MOL0     H55848   3.720   1.481   3.768 -0.0214 -2.1842  2.4009
  414MOL0     H55849   3.771   1.398   3.624  0.7839  2.9362 -0.0715
  414MOL0     H55850   3.852   1.164   3.693 -3.6683  0.5256  0.6367
  414MOL0     H55851   4.048   1.093   3.838  0.6675  0.3303  1.9327
  414MOL0     H55852   4.376   0.945   3.910 -0.7074  0.3892 -0.0459
  414MOL0     H55853   4.550   0.813   4.032  1.0407  0.0280  2.6099
  414MOL0     H55854   4.740   0.751   4.181  0.6632 -0.0346  0.5006
  414MOL0     H55855   4.750   0.924   4.213  0.9181  0.3170  0.5417
  414MOL0     H55856   4.795   0.885   4.457 -1.8874 -0.1137 -0.5913
  414MOL0     H55857   4.811   0.712   4.436 -1.1294 -1.7748 -1.8298
  414MOL0     H55858   4.988   0.925   4.313 -1.5080  1.6251  2.7178
  414MOL0     H55859   5.016   0.836   4.459 -2.3406 -3.1191  0.8886
  414MOL0     H55860   5.013   0.720   4.181  0.0663 -2.5440  1.1101
  414MOL0     H55861   5.035   0.619   4.329 -0.0080 -1.3169 -2.1842
  414MOL0     H55862   5.214   0.795   4.382  0.5149  0.1973 -0.3589
  414MOL0     H55863   5.223   0.814   4.208  0.4136  0.2386  0.4486
  414MOL0     H55864   5.253   0.539   4.350 -0.8857  1.2452  1.6323
  414MOL0     H55865   5.273   0.581   4.176  1.4908  2.4309  0.5329
  414MOL0     H55866   5.446   0.750   4.317  1.2401  0.0951 -0.4306
  414MOL0     H55867   5.474   0.615   4.205 -1.6361  0.8082 -0.4943
  414MOL0     H55868   5.469   0.465   4.416 -0.9725  0.9735 -1.6059
  414MOL0     H55869   5.602   0.578   4.375 -0.8810  0.5148 -3.3908
  414MOL0     H55870   4.431   0.987   4.407 -2.0827 -1.5560 -0.4668
  414MOL0     H55871   4.266   1.107   4.298 -1.9362 -1.9412 -0.3721
  414MOL0     H55872   3.843   1.218   4.187 -1.5251 -0.1097  0.0407
  414MOL0     H55873   3.644   1.299   4.040  1.3583  1.3441  2.2757
  414MOL0     H55874   1.889   0.892   3.661 -0.2374 -0.4029 -1.7726
  414MOL0     H55875   1.635   0.830   3.624  2.4317 -1.2270 -1.9796
  414MOL0     H55876   1.241   0.993   3.497  2.3783  0.7685  3.4073
  414MOL0     H55877   0.983   0.988   3.465  1.0060 -1.3525 -0.3162
  414MOL0     H55878   0.743   1.011   3.496 -1.6017 -3.4659  2.1929
  414MOL0     H55879   0.746   1.178   3.578 -0.2870  1.0718  1.5041
  414MOL0     H55880   0.583   1.141   3.722 -2.5871  1.4476 -0.5494
  414MOL0     H55881   0.577   0.958   3.700 -0.2048 -1.6491 -2.6166
  414MOL0     H55882   0.497   1.033   3.467 -3.5633  0.4798 -1.4455
  414MOL0     H55883   0.450   1.177   3.539  2.1498 -0.1413 -0.5342
  414MOL0     H55884   0.285   0.971   3.526 -5.3620 -0.5001  2.9078
  414MOL0     H55885   0.362   0.910   3.675  1.5391 -0.4531 -0.9673
  414MOL0     H55886   0.081   1.212   3.784 -1.9154 -0.9376 -1.1729
  414MOL0     H55887   0.959   1.013   3.903  2.4415 -0.8022 -0.0407
  414MOL0     H55888   1.242   1.101   4.001  1.0278 -1.0249 -0.1388
  414MOL0     H55889   1.123   0.980   4.053  0.5902  0.1714  0.3843
  414MOL0     H55890   1.275   0.923   3.993  0.0507 -0.5657 -0.5239
  415MOL0     O55891   8.241   5.560  10.134 -0.6459  0.5035 -0.8970
  415MOL0     C55892   8.250   5.473  10.214 -0.2360 -0.2023 -0.1652
  415MOL0     O55893   8.351   5.460  10.302 -0.3013  0.4709 -0.4630
  415MOL0     C55894   8.468   5.543  10.307  1.1085  0.2273 -0.8642
  415MOL0     C55895   8.563   5.530  10.211  0.2549 -0.6705  1.1800
  415MOL0     C55896   8.671   5.614  10.203 -0.2047 -0.8213 -0.6882
  415MOL0     C55897   8.700   5.699  10.311 -0.6786  0.6121  0.0153
  415MOL0     O55898   8.805   5.793  10.305 -0.4029  0.1537 -0.4002
  415MOL0     C55899   8.928   5.762  10.247 -0.2326  0.2970 -0.2914
  415MOL0     C55900   9.003   5.889  10.210 -0.3133 -0.2310 -0.2262
  415MOL0     C55901   8.938   5.964  10.093  0.2689 -0.2663 -0.2569
  415MOL0     C55902   9.002   6.098  10.075  0.0123  0.4684  1.1254
  415MOL0     C55903   8.941   6.188   9.976 -0.4485 -0.3161  0.9920
  415MOL0     C55904   9.030   6.304   9.937  0.2261 -0.1575  0.4925
  415MOL0     C55905   8.943   6.409   9.860  0.2827  0.4647  0.3078
  415MOL0     C55906   9.029   6.533   9.846 -0.1961  0.5811  0.9820
  415MOL0     N55907   9.064   6.612   9.966 -1.1088 -0.0704  0.2224
  415MOL0     C55908   8.976   6.680  10.053 -1.6332 -0.5254  0.2340
  415MOL0     C55909   9.060   6.738  10.144 -0.1511 -0.5835 -0.5100
  415MOL0     C55910   9.017   6.828  10.255 -0.7696  0.1645  0.8267
  415MOL0     C55911   8.865   6.817  10.280 -1.1088 -0.0072  0.9047
  415MOL0     C55912   8.777   6.891  10.174 -0.3830  0.6816  0.5148
  415MOL0     C55913   8.639   6.832  10.171  0.7701 -0.1293 -0.0586
  415MOL0     O55914   8.623   6.715  10.101  0.3025 -0.1683  0.3622
  415MOL0     C55915   8.495   6.664  10.075  0.3263 -0.2602  0.0396
  415MOL0     C55916   8.474   6.574   9.967 -0.2548 -0.2632 -0.0289
  415MOL0     C55917   8.358   6.499   9.955  0.0323  0.3474 -0.6016
  415MOL0     C55918   8.244   6.524  10.038  0.9911 -0.4435  0.1729
  415MOL0     C55919   8.119   6.461  10.009  0.6368 -0.5503  0.1510
  415MOL0     O55920   8.107   6.373   9.895 -0.0216 -0.5078  0.7691
  415MOL0     C55921   8.001   6.296   9.854  0.5534 -0.3140  1.0088
  415MOL0     C55922   8.023   6.201   9.750  0.0773  0.3362 -1.1433
  415MOL0     C55923   7.921   6.118   9.713  0.0354 -0.0201 -0.1985
  415MOL0     C55924   7.795   6.113   9.768  0.2975 -0.7652  0.4962
  415MOL0     O55925   7.705   6.024   9.718  0.2756  0.2158  0.1348
  415MOL0     C55926   7.561   6.037   9.740 -0.3586 -0.8239  0.4029
  415MOL0     C55927   7.488   5.954   9.634  0.8016 -1.1262  0.6105
  415MOL0     C55928   7.345   5.938   9.667  0.1993  0.0184  0.4869
  415MOL0     C55929   7.323   5.815   9.760 -0.7205 -0.5954  0.0326
  415MOL0     C55930   7.178   5.811   9.810 -0.8799 -0.1458 -0.3450
  415MOL0     C55931   7.064   5.775   9.705  0.3197 -0.0168 -0.3539
  415MOL0     C55932   6.929   5.848   9.732 -0.2305 -0.8027  0.8658
  415MOL0     C55933   6.934   5.987   9.670 -0.2861 -0.1458 -0.3665
  415MOL0    Cl55934   6.968   6.110   9.807  0.4263 -0.3837  0.0628
  415MOL0     C55935   7.768   6.210   9.861 -0.5491  0.0894  0.0911
  415MOL0     C55936   7.867   6.296   9.898  0.0899 -0.2662 -0.8700
  415MOL0     O55937   8.022   6.492  10.073  0.4078  0.0336 -0.0993
  415MOL0     C55938   8.253   6.628  10.131  0.1858  0.1629  0.2268
  415MOL0     C55939   8.381   6.696  10.157 -0.1547  0.3423 -0.0583
  415MOL0     N55940   9.194   6.714  10.105  0.0139  0.0222 -0.3123
  415MOL0     N55941   9.188   6.619  10.020  0.3569 -1.0141 -0.2640
  415MOL0     C55942   8.610   5.703  10.420 -0.0585  0.5862 -0.6542
  415MOL0     C55943   8.494   5.631  10.416  0.3908 -1.1009  0.2533
  415MOL0     C55944   8.147   5.377  10.206  0.8356 -0.3207  0.4313
  415MOL0     C55945   8.026   5.424  10.174  0.3189 -0.2216 -0.1083
  415MOL0     C55946   7.911   5.345  10.186 -0.6240  0.0209 -0.2733
  415MOL0     C55947   7.917   5.218  10.226 -0.1967 -0.1830 -0.0320
  415MOL0     O55948   7.799   5.148  10.236 -0.1875  0.0301 -0.0542
  415MOL0     C55949   7.804   5.019  10.292 -0.2197 -0.3261  0.0079
  415MOL0     C55950   7.666   4.969  10.325  0.5696 -0.4151  0.0915
  415MOL0     C55951   7.583   4.969  10.192 -0.2424 -0.5809  0.7628
  415MOL0     C55952   7.444   4.905  10.210 -0.6544 -0.2491 -0.0498
  415MOL0     C55953   7.359   4.968  10.307 -0.0570 -0.0517 -0.2666
  415MOL0     C55954   7.295   5.017  10.398  0.4987 -0.8647  0.7211
  415MOL0     C55955   8.043   5.163  10.264 -1.0504  0.8228 -0.0466
  415MOL0     C55956   8.158   5.250  10.264  0.1503  0.1516  0.3300
  415MOL0     C55957   8.272   5.194  10.339  0.0531  0.7413  0.7127
  415MOL0     H55958   8.547   5.466  10.125 -0.8901  1.0039  0.0643
  415MOL0     H55959   8.740   5.614  10.118 -0.9387  1.1554 -1.3378
  415MOL0     H55960   8.993   5.713  10.320  2.5267  1.8246 -1.5466
  415MOL0     H55961   8.913   5.701  10.157  3.2342 -0.2127 -0.6618
  415MOL0     H55962   9.107   5.866  10.186 -0.2909 -1.9675  1.3425
  415MOL0     H55963   9.012   5.951  10.300 -0.4749  2.5398 -1.9981
  415MOL0     H55964   8.831   5.980  10.107  0.2088 -0.4522 -0.4997
  415MOL0     H55965   8.938   5.908   9.999 -2.7532  0.3061 -0.7100
  415MOL0     H55966   8.999   6.145  10.174  1.9413 -0.2847  1.5987
  415MOL0     H55967   9.105   6.077  10.044  0.5491  0.5502  2.7739
  415MOL0     H55968   8.925   6.137   9.880 -2.2604 -0.4493  1.3316
  415MOL0     H55969   8.842   6.221  10.010 -0.0164 -0.1982  2.1520
  415MOL0     H55970   9.069   6.345  10.030  2.8863 -0.6874 -0.2880
  415MOL0     H55971   9.118   6.272   9.879 -0.3389 -3.0256  1.0744
  415MOL0     H55972   8.848   6.430   9.908  1.5470  4.1359  1.5166
  415MOL0     H55973   8.918   6.352   9.770  0.6066 -0.9093  1.0543
  415MOL0     H55974   9.112   6.486   9.792 -1.5564 -1.6350  0.6828
  415MOL0     H55975   8.988   6.604   9.774 -0.4534 -1.5621 -1.1218
  415MOL0     H55976   8.868   6.683  10.062 -1.5012  2.3196  2.4375
  415MOL0     H55977   9.075   6.797  10.343  0.4802 -1.1463 -0.4043
  415MOL0     H55978   9.057   6.925  10.224 -0.0954  0.2887  2.0287
  415MOL0     H55979   8.844   6.710  10.295  0.6672 -0.5298 -0.0401
  415MOL0     H55980   8.850   6.861  10.379  1.5252  1.4133  0.7541
  415MOL0     H55981   8.816   6.884  10.072 -0.5524  1.3991  0.3954
  415MOL0     H55982   8.768   6.996  10.203  0.2941  0.8195  0.2397
  415MOL0     H55983   8.564   6.905  10.141 -2.1748 -2.5150  0.9125
  415MOL0     H55984   8.625   6.814  10.278 -1.9267 -0.1670 -0.3420
  415MOL0     H55985   8.563   6.542   9.913  0.0121 -0.3893  0.4793
  415MOL0     H55986   8.351   6.409   9.895 -3.2076 -2.7488  3.7804
  415MOL0     H55987   8.116   6.197   9.693  0.2526  1.5543 -0.9552
  415MOL0     H55988   7.944   6.034   9.647 -0.8911  0.1244 -0.7370
  415MOL0     H55989   7.522   6.016   9.840 -1.2894  0.2508  0.2765
  415MOL0     H55990   7.538   6.143   9.728  0.0935 -0.6424  1.0428
  415MOL0     H55991   7.500   6.000   9.535  1.2045 -3.7159 -0.6090
  415MOL0     H55992   7.539   5.859   9.615  1.3369 -0.7233 -0.0046
  415MOL0     H55993   7.304   6.027   9.715  1.1219 -0.6270  2.5630
  415MOL0     H55994   7.289   5.911   9.577 -0.1508 -1.1098  1.0290
  415MOL0     H55995   7.393   5.830   9.843 -0.5349  0.9867 -0.3657
  415MOL0     H55996   7.356   5.730   9.700 -1.0788  0.8027 -2.2894
  415MOL0     H55997   7.161   5.913   9.845  4.1878  1.8187 -2.6220
  415MOL0     H55998   7.174   5.739   9.892 -1.0191  0.2163 -0.0309
  415MOL0     H55999   7.100   5.787   9.603  1.1041 -1.4820 -0.2785
  415MOL0     H56000   7.049   5.667   9.698  1.9555 -0.2812 -0.0804
  415MOL0     H56001   6.901   5.853   9.837 -1.3045 -0.1379  0.5711
  415MOL0     H56002   6.854   5.793   9.674  1.7721  0.3204 -3.1970
  415MOL0     H56003   7.017   6.016   9.604 -1.0745  1.8249 -0.5648
  415MOL0     H56004   6.842   6.001   9.613  0.2734 -1.4532 -1.6484
  415MOL0     H56005   7.669   6.210   9.906  0.2780 -1.8758  2.0887
  415MOL0     H56006   7.834   6.373   9.968 -0.4829 -1.2451 -0.0400
  415MOL0     H56007   8.169   6.648  10.197 -0.0037 -1.6742  0.5784
  415MOL0     H56008   8.388   6.759  10.245 -0.8239  0.6722 -0.2385
  415MOL0     H56009   8.621   5.774  10.502 -2.1375  0.2720 -0.0500
  415MOL0     H56010   8.423   5.648  10.496 -0.0652 -0.8281 -0.1980
  415MOL0     H56011   8.004   5.526  10.143  0.2344  0.0774  0.9176
  415MOL0     H56012   7.816   5.387  10.157  0.3679  1.3676 -1.7782
  415MOL0     H56013   7.868   5.016  10.381  1.8712 -1.7639 -1.4397
  415MOL0     H56014   7.850   4.953  10.217 -0.7330 -0.5853 -0.0810
  415MOL0     H56015   7.619   5.037  10.396 -0.1294  0.0147 -0.7617
  415MOL0     H56016   7.668   4.870  10.372  1.8729  1.6087  4.8802
  415MOL0     H56017   7.645   4.914  10.121  0.2992  0.5006  0.3763
  415MOL0     H56018   7.567   5.068  10.149 -4.3991 -1.3817  0.0213
  415MOL0     H56019   7.399   4.908  10.110  0.5971  1.8858 -0.6114
  415MOL0     H56020   7.455   4.799  10.238 -1.4453 -0.4807 -0.5816
  415MOL0     H56021   7.237   5.050  10.482  0.4927 -0.5599  0.6018
  415MOL0     H56022   8.051   5.060  10.298 -1.3645  0.9171  0.3305
  415MOL0     H56023   8.363   5.194  10.278  0.6423 -0.2102  1.5535
  415MOL0     H56024   8.300   5.252  10.427  0.9694  2.0802 -0.4265
  415MOL0     H56025   8.255   5.086  10.352 -1.4366  0.6968 -1.0969
  416MOL0     O56026   3.723  11.337   0.159  0.0133  0.2735  0.0045
  416MOL0     C56027   3.688  11.375   0.270  0.3299 -0.2934 -1.2372
  416MOL0     O56028   3.753  11.374   0.388  0.0729  0.4636 -0.2029
  416MOL0     C56029   3.873  11.303   0.399  0.8096 -0.3527 -0.1140
  416MOL0     C56030   3.895  11.254   0.523 -0.7161 -0.4119  0.0170
  416MOL0     C56031   4.008  11.172   0.546 -0.4621 -0.1722  1.4534
  416MOL0     C56032   4.091  11.137   0.445 -0.1257  0.0548  1.1193
  416MOL0     O56033   4.204  11.064   0.467 -0.4539 -0.7679  0.5018
  416MOL0     C56034   4.175  10.925   0.456 -0.0948 -0.1079  0.5346
  416MOL0     C56035   4.221  10.869   0.319  1.1393 -0.6108 -0.0828
  416MOL0     C56036   4.375  10.869   0.329  0.0608  1.5567 -0.7221
  416MOL0     C56037   4.440  10.860   0.194 -0.6903  0.8037 -0.4716
  416MOL0     C56038   4.587  10.815   0.185 -0.6360  0.3921  0.8717
  416MOL0     C56039   4.646  10.825   0.043 -0.2609  0.0620 -0.1714
  416MOL0     C56040   4.794  10.793   0.039 -0.1006  0.4328 -0.3876
  416MOL0     C56041   4.837  10.812  -0.107  1.1206 -0.2871  0.6717
  416MOL0     N56042   4.976  10.789  -0.132 -0.5459  0.1448 -0.2787
  416MOL0     C56043   5.043  10.671  -0.086 -0.3835 -0.1400  0.1677
  416MOL0     C56044   5.163  10.690  -0.144  0.0863 -0.0855  0.1536
  416MOL0     C56045   5.271  10.589  -0.130 -0.1441 -0.6947 -0.0264
  416MOL0     C56046   5.387  10.647  -0.047 -1.0095 -0.4896  0.6816
  416MOL0     C56047   5.514  10.567  -0.005  0.0504  0.2041  0.0611
  416MOL0     C56048   5.486  10.437   0.073 -0.2315 -0.3045  0.6108
  416MOL0     O56049   5.617  10.376   0.104  0.1188  0.0027  0.8990
  416MOL0     C56050   5.699  10.339   0.000  0.7008  0.5761 -0.3575
  416MOL0     C56051   5.798  10.422  -0.025 -0.2943 -0.6206  0.9248
  416MOL0     C56052   5.879  10.407  -0.140 -0.1600 -0.6947 -0.0684
  416MOL0     C56053   5.863  10.297  -0.215  0.4388  0.7011  0.1055
  416MOL0     C56054   5.950  10.275  -0.323  0.2361  0.2898 -0.3237
  416MOL0     O56055   5.893  10.202  -0.429 -0.4682  0.9548 -0.7742
  416MOL0     C56056   5.996  10.166  -0.521  0.6843 -0.3171 -0.0024
  416MOL0     C56057   6.080  10.055  -0.504 -0.1822  0.0543  0.1307
  416MOL0     C56058   6.172  10.021  -0.602  0.1771 -0.0131  0.3855
  416MOL0     C56059   6.205  10.111  -0.701  0.2910  0.7738  1.2571
  416MOL0     O56060   6.315  10.068  -0.781  0.0656 -0.0464  0.1075
  416MOL0     C56061   6.311  10.118  -0.918 -1.1719 -0.7405  0.1148
  416MOL0     C56062   6.411  10.037  -1.007 -1.3874 -0.7679  0.1764
  416MOL0     C56063   6.404   9.879  -0.992  0.3895 -0.0689  0.6166
  416MOL0     C56064   6.499   9.815  -1.097  0.7315  0.6923  0.1211
  416MOL0     C56065   6.495   9.661  -1.093  0.4477 -0.7630 -0.0867
  416MOL0     C56066   6.535   9.604  -1.226  0.5093  0.5540 -0.2785
  416MOL0     C56067   6.687   9.617  -1.253 -0.3196 -0.0254 -0.1469
  416MOL0     C56068   6.712   9.566  -1.391  0.2924  0.8570  0.1654
  416MOL0    Cl56069   6.768   9.406  -1.388  0.0625  0.5231  0.3070
  416MOL0     C56070   6.125  10.227  -0.718  0.2113 -0.3460  0.3464
  416MOL0     C56071   6.017  10.253  -0.629  0.3315 -0.2508  0.1982
  416MOL0     O56072   6.058  10.337  -0.328 -0.2974 -0.1074  0.2652
  416MOL0     C56073   5.769  10.196  -0.173  0.6103  0.3577  0.9920
  416MOL0     C56074   5.685  10.222  -0.067 -0.0436  0.2490  0.1951
  416MOL0     N56075   5.167  10.810  -0.207  0.2719  0.8894  0.0353
  416MOL0     N56076   5.053  10.866  -0.204 -0.6534  0.4247  0.2387
  416MOL0     C56077   4.070  11.205   0.322 -0.1698  1.0325 -0.4199
  416MOL0     C56078   3.963  11.279   0.295  0.3487 -0.9475  0.5148
  416MOL0     C56079   3.563  11.455   0.273 -0.7827  0.1520  0.5329
  416MOL0     C56080   3.450  11.386   0.230  0.1627  0.3547  0.1504
  416MOL0     C56081   3.332  11.460   0.210  0.2731  0.2728  1.0802
  416MOL0     C56082   3.323  11.592   0.257 -0.8988 -0.0668  0.9800
  416MOL0     O56083   3.212  11.668   0.235 -0.1111 -0.4348  0.3786
  416MOL0     C56084   3.081  11.612   0.268 -0.4468  0.3442 -0.4345
  416MOL0     C56085   3.067  11.520   0.387  0.0840 -0.2208  0.2693
  416MOL0     C56086   2.921  11.502   0.426  0.2040 -0.3635  0.8967
  416MOL0     C56087   2.834  11.445   0.309 -0.3993 -0.4066  0.2366
  416MOL0     C56088   2.686  11.459   0.339 -0.5153  0.2470  0.5611
  416MOL0     C56089   2.572  11.483   0.360  0.4126 -0.5031 -0.9052
  416MOL0     C56090   3.437  11.657   0.306  0.0804 -0.0791  0.2025
  416MOL0     C56091   3.554  11.589   0.315 -0.8145 -0.3877 -0.1288
  416MOL0     C56092   3.669  11.662   0.365  0.1819 -0.4898  0.2853
  416MOL0     H56093   3.829  11.289   0.601  1.2128 -0.3046  1.6854
  416MOL0     H56094   4.014  11.129   0.645 -3.1091  1.8893  2.6251
  416MOL0     H56095   4.225  10.867   0.534 -0.6104 -2.3863 -0.7587
  416MOL0     H56096   4.072  10.894   0.479 -0.3652 -1.7615 -2.4458
  416MOL0     H56097   4.194  10.941   0.241 -1.2948  1.8337  2.7117
  416MOL0     H56098   4.177  10.772   0.295  0.7564 -0.4088 -0.2116
  416MOL0     H56099   4.415  10.782   0.381  0.3709  2.4112  0.5278
  416MOL0     H56100   4.408  10.951   0.393 -0.5046 -0.3849  2.2092
  416MOL0     H56101   4.382  10.794   0.130 -1.5266 -1.0561  2.0277
  416MOL0     H56102   4.424  10.960   0.151 -3.0418  0.7387  0.0938
  416MOL0     H56103   4.653  10.876   0.248  1.2880 -1.8244  1.1012
  416MOL0     H56104   4.602  10.710   0.210 -2.7221 -0.0417  0.4717
  416MOL0     H56105   4.588  10.749  -0.011  0.0703 -1.8639  2.0393
  416MOL0     H56106   4.631  10.925   0.002 -0.2743  0.6913  1.2980
  416MOL0     H56107   4.822  10.693   0.074  1.0912  0.4413 -1.2349
  416MOL0     H56108   4.842  10.878   0.087  0.6825  0.8610 -1.8714
  416MOL0     H56109   4.773  10.756  -0.175  0.4365  1.1756  0.0476
  416MOL0     H56110   4.815  10.917  -0.131 -3.2029 -1.0295  0.6327
  416MOL0     H56111   4.988  10.596  -0.030 -3.4843  0.4380 -1.8275
  416MOL0     H56112   5.240  10.492  -0.090 -2.1263 -0.9934 -2.1128
  416MOL0     H56113   5.305  10.575  -0.233 -4.3001 -0.7556 -1.5829
  416MOL0     H56114   5.417  10.737  -0.102 -0.3117 -2.0638 -1.6599
  416MOL0     H56115   5.338  10.684   0.044  0.0779  1.1820  0.6302
  416MOL0     H56116   5.591  10.629   0.041  1.6690 -2.3690  1.0074
  416MOL0     H56117   5.555  10.538  -0.102 -0.0354 -1.9277  0.6103
  416MOL0     H56118   5.427  10.379   0.002  2.5846 -1.7460 -0.7142
  416MOL0     H56119   5.429  10.452   0.165  1.6065 -0.0451  1.7606
  416MOL0     H56120   5.813  10.506   0.043 -1.5728  0.3327  0.0743
  416MOL0     H56121   5.955  10.482  -0.161 -2.9955  2.2135 -0.7986
  416MOL0     H56122   6.065   9.991  -0.418 -0.3635  0.8857  0.7384
  416MOL0     H56123   6.217   9.922  -0.604 -3.6445 -1.8946 -0.8053
  416MOL0     H56124   6.217  10.095  -0.969  0.9993 -3.0345 -3.3412
  416MOL0     H56125   6.330  10.225  -0.912 -0.6901 -0.6851 -1.7945
  416MOL0     H56126   6.391  10.063  -1.112 -0.3642 -1.9636 -0.3395
  416MOL0     H56127   6.517  10.057  -0.989 -1.0157  0.0075 -2.3983
  416MOL0     H56128   6.432   9.840  -0.894  1.9701 -0.9991 -0.1732
  416MOL0     H56129   6.299   9.858  -1.018  0.7761 -2.2624  0.6201
  416MOL0     H56130   6.601   9.848  -1.077  1.1681 -1.0045  0.8204
  416MOL0     H56131   6.467   9.848  -1.196 -2.1068 -0.3283  0.5818
  416MOL0     H56132   6.393   9.628  -1.069 -0.5619  0.7955 -1.9512
  416MOL0     H56133   6.559   9.617  -1.016 -0.2215  1.0469  1.5964
  416MOL0     H56134   6.515   9.497  -1.222 -1.0203  0.7698 -1.3149
  416MOL0     H56135   6.487   9.649  -1.313  0.2120  0.2122 -0.2927
  416MOL0     H56136   6.753   9.565  -1.182  1.2239 -0.4896 -1.8440
  416MOL0     H56137   6.718   9.721  -1.241  0.5668 -0.4975  2.3080
  416MOL0     H56138   6.625   9.569  -1.457  0.3116  5.2742  0.0323
  416MOL0     H56139   6.788   9.628  -1.440  3.0807 -0.5639  2.3530
  416MOL0     H56140   6.143  10.289  -0.805 -0.3412  0.7967  1.0269
  416MOL0     H56141   5.954  10.341  -0.635 -2.9087 -2.4645 -1.4680
  416MOL0     H56142   5.752  10.108  -0.235 -0.2329 -0.1587  1.9268
  416MOL0     H56143   5.603  10.155  -0.047 -1.2767  0.3699 -3.5553
  416MOL0     H56144   4.131  11.178   0.237 -0.0728  1.6740 -0.5588
  416MOL0     H56145   3.972  11.320   0.194  0.5934 -2.3627 -0.0589
  416MOL0     H56146   3.456  11.282   0.200 -1.4743  0.3616 -0.2709
  416MOL0     H56147   3.246  11.410   0.165 -2.4209  3.0749  2.6957
  416MOL0     H56148   3.059  11.556   0.176 -0.4364 -1.3781  0.5508
  416MOL0     H56149   3.004  11.688   0.285 -1.8828 -0.8145 -1.4541
  416MOL0     H56150   3.114  11.569   0.473 -0.3123 -1.6706  1.3497
  416MOL0     H56151   3.098  11.421   0.355 -2.0419 -0.3753 -1.5301
  416MOL0     H56152   2.881  11.595   0.468 -0.3339  1.1564 -2.6060
  416MOL0     H56153   2.910  11.444   0.518  1.6774  1.6162  2.4144
  416MOL0     H56154   2.865  11.485   0.212  1.3292 -0.4752  0.7270
  416MOL0     H56155   2.856  11.338   0.301  1.5152  0.0876 -4.8343
  416MOL0     H56156   2.467  11.495   0.380  0.2529 -0.1751 -1.8852
  416MOL0     H56157   3.425  11.763   0.328  1.3472  0.5051 -1.6739
  416MOL0     H56158   3.755  11.662   0.298 -0.0688 -1.5254 -0.0594
  416MOL0     H56159   3.639  11.764   0.390 -1.9164 -1.2668  1.2010
  416MOL0     H56160   3.699  11.615   0.459 -0.4845  1.8679  1.7721
  417MOL0     O56161   7.297  10.168   3.427 -0.2919  1.0398 -0.7946
  417MOL0     C56162   7.239  10.068   3.374 -0.2892  1.2502  0.1281
  417MOL0     O56163   7.304   9.950   3.348 -0.0300 -0.4673  0.3071
  417MOL0     C56164   7.444   9.952   3.357 -0.1297  0.4179 -0.5699
  417MOL0     C56165   7.513   9.901   3.251 -0.4787 -0.1524 -0.0272
  417MOL0     C56166   7.656   9.893   3.267 -0.7562  0.1538  0.1049
  417MOL0     C56167   7.723   9.931   3.389  0.3373  0.5016 -0.0956
  417MOL0     O56168   7.854   9.922   3.407 -0.2412 -0.5785 -0.0568
  417MOL0     C56169   7.942   9.844   3.332  0.8020 -0.3796 -0.0373
  417MOL0     C56170   8.069   9.846   3.418  0.0499  0.4480  0.1755
  417MOL0     C56171   8.128   9.989   3.407 -1.6073 -0.5675 -0.4140
  417MOL0     C56172   8.231  10.023   3.519 -0.2161 -0.8873 -0.4289
  417MOL0     C56173   8.258  10.183   3.542  0.8982  0.4797 -0.2533
  417MOL0     C56174   8.346  10.217   3.668 -0.0412  0.6923  0.7906
  417MOL0     C56175   8.342  10.360   3.717  0.8293  0.8754  0.3567
  417MOL0     C56176   8.412  10.384   3.855 -0.0392 -0.5087 -0.3745
  417MOL0     N56177   8.556  10.353   3.861 -0.5837 -1.2131 -0.0514
  417MOL0     C56178   8.662  10.413   3.797 -1.0819 -0.5285  0.6397
  417MOL0     C56179   8.768  10.345   3.850 -0.4716  0.1886  0.3662
  417MOL0     C56180   8.908  10.368   3.797  0.2453 -0.9337 -0.6077
  417MOL0     C56181   8.937  10.264   3.685 -0.3283 -0.3185  0.5316
  417MOL0     C56182   9.056  10.307   3.606  0.1490 -0.4743 -0.0831
  417MOL0     C56183   9.196  10.316   3.681  0.5539 -0.7080 -0.4974
  417MOL0     O56184   9.202  10.439   3.754  0.3928 -0.7191 -0.6189
  417MOL0     C56185   9.325  10.490   3.788 -1.2660  0.1679 -0.1288
  417MOL0     C56186   9.323  10.616   3.835  0.1734  0.7549 -0.0779
  417MOL0     C56187   9.442  10.680   3.890  0.8672 -0.4641  0.1336
  417MOL0     C56188   9.563  10.615   3.881  0.6159 -0.3710 -0.0462
  417MOL0     C56189   9.686  10.678   3.925 -0.5197 -0.1841  0.4692
  417MOL0     O56190   9.687  10.786   4.009  0.6524  0.2372  0.1872
  417MOL0     C56191   9.798  10.863   4.015  0.2110  0.8970 -0.1814
  417MOL0     C56192   9.808  10.980   3.938  0.2939  1.3552  0.4628
  417MOL0     C56193   9.921  11.061   3.942  0.0496 -0.7629 -0.2164
  417MOL0     C56194  10.032  11.024   4.019 -0.6995 -0.0107 -0.1503
  417MOL0     O56195  10.146  11.100   4.028 -0.4698  0.3485  0.4289
  417MOL0     C56196  10.168  11.224   3.955  0.1078 -0.4130  0.0952
  417MOL0     C56197  10.303  11.298   3.982  0.5048  0.3352  0.3211
  417MOL0     C56198  10.399  11.294   3.859  0.2999 -0.0785 -0.2528
  417MOL0     C56199  10.544  11.262   3.909  0.6905  0.2962 -0.5749
  417MOL0     C56200  10.642  11.261   3.792  0.0909  0.5930  0.6113
  417MOL0     C56201  10.638  11.384   3.697  0.7088  0.4047 -0.1428
  417MOL0     C56202  10.765  11.384   3.603  0.3526  0.2925  0.1346
  417MOL0     C56203  10.733  11.450   3.460 -0.2799 -0.2228 -0.4381
  417MOL0    Cl56204  10.612  11.350   3.378 -0.0172 -0.1628  0.1912
  417MOL0     C56205  10.012  10.915   4.101  0.0083 -1.1324  0.3750
  417MOL0     C56206   9.904  10.831   4.098  0.0158  0.0682 -0.7252
  417MOL0     O56207   9.788  10.642   3.868  0.4012 -0.9093 -0.1897
  417MOL0     C56208   9.556  10.480   3.837 -0.0247  0.3914  0.6907
  417MOL0     C56209   9.449  10.418   3.791 -1.0191  0.6409 -0.4320
  417MOL0     N56210   8.733  10.252   3.940 -0.2922  0.1691 -0.0897
  417MOL0     N56211   8.613  10.265   3.948 -0.6634  0.3529  0.1444
  417MOL0     C56212   7.644   9.969   3.504 -0.1839  0.9947  0.0201
  417MOL0     C56213   7.505   9.973   3.480 -0.1189 -0.5778 -0.6575
  417MOL0     C56214   7.090  10.054   3.364 -0.1832  0.3058 -0.2879
  417MOL0     C56215   7.030   9.933   3.316  0.8371  0.5627 -0.5296
  417MOL0     C56216   6.888   9.916   3.303  0.1181 -0.1021  0.3870
  417MOL0     C56217   6.806  10.022   3.334  0.3604 -0.1922 -1.0120
  417MOL0     O56218   6.670  10.015   3.321 -0.2693  0.3999 -0.7790
  417MOL0     C56219   6.608   9.892   3.365 -0.0294  0.8318 -0.6453
  417MOL0     C56220   6.467   9.921   3.412  0.6335  0.5500  0.5300
  417MOL0     C56221   6.401   9.782   3.445 -0.8169  0.3584  0.0002
  417MOL0     C56222   6.250   9.798   3.472  0.0992 -1.4979 -0.5223
  417MOL0     C56223   6.231   9.887   3.587  0.0093 -0.6895 -0.5886
  417MOL0     C56224   6.202   9.948   3.690  0.3311  0.0971 -0.4134
  417MOL0     C56225   6.859  10.137   3.382 -1.1541 -0.1835 -0.5332
  417MOL0     C56226   6.996  10.157   3.394 -1.3005  0.6042 -0.1311
  417MOL0     C56227   7.034  10.305   3.417 -0.2647  0.3856 -0.0243
  417MOL0     H56228   7.465   9.870   3.159 -2.7574 -1.9733  1.6400
  417MOL0     H56229   7.721   9.869   3.183 -2.7198  2.2214 -2.1547
  417MOL0     H56230   7.897   9.744   3.323 -0.5888  0.0533  1.5004
  417MOL0     H56231   7.951   9.881   3.230  2.2830 -0.9276 -0.1278
  417MOL0     H56232   8.134   9.773   3.369  0.3420  0.3620  0.6911
  417MOL0     H56233   8.062   9.815   3.522  2.1842 -0.9316 -0.0330
  417MOL0     H56234   8.051  10.067   3.408  0.2997  1.4272  1.3408
  417MOL0     H56235   8.180  10.004   3.312  0.0697  2.2918  0.8281
  417MOL0     H56236   8.194   9.987   3.616  0.8154  0.4585  0.5100
  417MOL0     H56237   8.325   9.972   3.498  0.4381 -1.5581  3.3615
  417MOL0     H56238   8.295  10.218   3.446 -1.2684 -2.4237 -2.3297
  417MOL0     H56239   8.162  10.236   3.551  1.4292  1.5370 -0.7062
  417MOL0     H56240   8.310  10.147   3.745 -0.3335  0.7140  0.6730
  417MOL0     H56241   8.449  10.194   3.640  0.0288  0.3991  1.2718
  417MOL0     H56242   8.235  10.375   3.734  0.7913 -0.4512  1.3854
  417MOL0     H56243   8.375  10.414   3.628 -0.3767  0.6143 -0.2780
  417MOL0     H56244   8.397  10.489   3.881  0.7785 -0.4033 -0.2836
  417MOL0     H56245   8.359  10.321   3.927 -0.4699  2.2820  1.9218
  417MOL0     H56246   8.670  10.487   3.718  0.7339 -1.5905 -0.2302
  417MOL0     H56247   8.924  10.468   3.758 -0.3304  0.2969  2.0599
  417MOL0     H56248   8.978  10.348   3.879  0.2944  0.8927 -0.1550
  417MOL0     H56249   8.945  10.167   3.735  1.0528 -0.2714  0.4508
  417MOL0     H56250   8.850  10.264   3.619 -1.0639  3.0248  1.3344
  417MOL0     H56251   9.031  10.399   3.551 -1.1003  0.0643  1.3182
  417MOL0     H56252   9.069  10.228   3.530  0.4636 -3.2207  2.6337
  417MOL0     H56253   9.272  10.311   3.602  1.7219 -3.1619  0.6591
  417MOL0     H56254   9.218  10.222   3.733 -1.7653 -0.6111  0.8025
  417MOL0     H56255   9.230  10.671   3.838  0.8941  2.1417 -1.6106
  417MOL0     H56256   9.432  10.780   3.930 -0.2273 -0.1308 -0.9226
  417MOL0     H56257   9.725  11.018   3.878  0.5081  0.0896 -0.6792
  417MOL0     H56258   9.911  11.152   3.884  2.0510  0.4751  1.2293
  417MOL0     H56259  10.169  11.195   3.849 -0.5811 -0.8949  0.2111
  417MOL0     H56260  10.091  11.300   3.970  0.2108 -0.5610  1.5434
  417MOL0     H56261  10.285  11.398   4.023 -3.6288 -0.7435  1.6260
  417MOL0     H56262  10.356  11.243   4.060  1.3907  1.7778  0.7698
  417MOL0     H56263  10.371  11.224   3.780 -0.1575  1.9014 -1.9502
  417MOL0     H56264  10.402  11.391   3.808  1.8386  0.6797  1.1543
  417MOL0     H56265  10.551  11.169   3.967  1.2968 -0.0396 -1.1685
  417MOL0     H56266  10.576  11.347   3.969  1.9675 -0.6561  0.1279
  417MOL0     H56267  10.637  11.165   3.739  1.6055  0.3175  0.9320
  417MOL0     H56268  10.738  11.259   3.844 -0.4632  0.8019  1.6691
  417MOL0     H56269  10.543  11.383   3.642  0.6472 -2.6696 -0.1506
  417MOL0     H56270  10.641  11.479   3.751  1.9891  0.7395 -0.7615
  417MOL0     H56271  10.803  11.284   3.582 -0.7676 -0.3883  1.2179
  417MOL0     H56272  10.838  11.443   3.660 -0.8405  2.8415 -0.8155
  417MOL0     H56273  10.693  11.549   3.484  1.1926  0.0955  0.8803
  417MOL0     H56274  10.826  11.460   3.404 -0.1368 -2.5214 -0.7110
  417MOL0     H56275  10.095  10.879   4.161  2.4938  0.6794 -1.7575
  417MOL0     H56276   9.896  10.744   4.163 -0.1927  0.7907  0.2485
  417MOL0     H56277   9.648  10.424   3.851  0.3021  0.9462  0.7840
  417MOL0     H56278   9.463  10.314   3.763  3.2604  0.3143  1.9737
  417MOL0     H56279   7.687   9.976   3.604  3.0104  0.3221 -1.1797
  417MOL0     H56280   7.444  10.002   3.565 -0.7804  0.5848 -1.5041
  417MOL0     H56281   7.085   9.845   3.285 -2.5277 -2.8155  2.1548
  417MOL0     H56282   6.861   9.819   3.263  0.1807 -1.6138  3.6361
  417MOL0     H56283   6.661   9.861   3.455 -1.5105  1.8772  0.6523
  417MOL0     H56284   6.614   9.820   3.283  3.0598 -1.5553  1.4815
  417MOL0     H56285   6.403   9.978   3.344  0.2857 -1.1592 -0.6666
  417MOL0     H56286   6.481   9.977   3.504  3.2078 -0.8904  1.0884
  417MOL0     H56287   6.450   9.753   3.539  1.7781  1.6074 -0.8887
  417MOL0     H56288   6.414   9.697   3.378  1.9346 -1.4531  2.5823
  417MOL0     H56289   6.206   9.845   3.384  1.0122  2.8802  1.1010
  417MOL0     H56290   6.199   9.703   3.490  1.0397 -1.9134  0.0915
  417MOL0     H56291   6.173  10.008   3.774  0.4283  2.9720 -2.2748
  417MOL0     H56292   6.794  10.220   3.410 -0.0680  0.9692 -1.3579
  417MOL0     H56293   7.040  10.320   3.525 -0.3953  0.1558  0.0168
  417MOL0     H56294   7.128  10.334   3.369 -0.6625  1.4985 -0.1545
  417MOL0     H56295   6.957  10.364   3.366 -0.9583  1.4400  2.1126
  418MOL0     O56296   1.718   3.070   9.706  0.2944  0.0975  0.3767
  418MOL0     C56297   1.759   3.079   9.821  0.7205 -0.6101 -0.3989
  418MOL0     O56298   1.890   3.087   9.859 -0.3320  0.2831 -0.5815
  418MOL0     C56299   1.987   3.013   9.795  0.0632 -0.5794 -0.3853
  418MOL0     C56300   2.119   3.055   9.827  0.0781  0.5534  0.9912
  418MOL0     C56301   2.233   2.993   9.767  0.5363  0.1887  0.2055
  418MOL0     C56302   2.216   2.886   9.681  0.9465  0.8962  1.0634
  418MOL0     O56303   2.334   2.842   9.630 -0.5647 -1.1774  0.2956
  418MOL0     C56304   2.343   2.723   9.557 -0.9534 -0.6551  0.6673
  418MOL0     C56305   2.495   2.690   9.549 -0.4739  0.5183  0.3875
  418MOL0     C56306   2.555   2.807   9.468 -1.4121  0.4435  1.5086
  418MOL0     C56307   2.708   2.777   9.439  0.1197  0.3838 -0.1184
  418MOL0     C56308   2.773   2.882   9.350 -0.6393  0.5242 -0.2794
  418MOL0     C56309   2.807   3.018   9.421  0.6275 -0.1504 -0.4026
  418MOL0     C56310   2.828   3.137   9.324  0.0129  0.6016 -0.4037
  418MOL0     C56311   2.703   3.166   9.239 -0.5575 -0.4350 -1.1816
  418MOL0     N56312   2.729   3.280   9.154 -0.2105  0.4961  0.7309
  418MOL0     C56313   2.816   3.282   9.042  0.6115  0.4827 -0.4955
  418MOL0     C56314   2.816   3.404   8.994  1.0060 -0.4769  0.1677
  418MOL0     C56315   2.880   3.442   8.867 -0.1344  0.1144 -0.2832
  418MOL0     C56316   3.038   3.421   8.859 -0.6297 -0.6592 -0.4620
  418MOL0     C56317   3.091   3.452   8.716  0.3904 -0.3526 -1.2278
  418MOL0     C56318   3.243   3.476   8.731 -1.3649 -0.3578  0.3290
  418MOL0     O56319   3.298   3.505   8.604  0.1343  0.8209  0.1907
  418MOL0     C56320   3.416   3.578   8.604 -0.5249 -0.2437 -0.1453
  418MOL0     C56321   3.500   3.580   8.716 -0.5739  0.2760 -0.7129
  418MOL0     C56322   3.621   3.648   8.705  1.0449  0.6174 -0.8422
  418MOL0     C56323   3.658   3.727   8.589  0.6122  0.8549  0.3835
  418MOL0     C56324   3.787   3.796   8.573  0.3569  0.9647  0.1011
  418MOL0     O56325   3.868   3.791   8.688 -0.2796  0.2432  0.4762
  418MOL0     C56326   4.005   3.832   8.678  0.4578  1.3620  0.1666
  418MOL0     C56327   4.093   3.815   8.566  0.1019  0.6185 -0.4746
  418MOL0     C56328   4.227   3.839   8.577  0.0828 -0.3127 -0.3234
  418MOL0     C56329   4.275   3.893   8.695 -0.3140  0.2742  1.1550
  418MOL0     O56330   4.412   3.930   8.709 -0.1180 -0.0970  0.1664
  418MOL0     C56331   4.493   3.929   8.596 -0.9832  0.7539  0.0453
  418MOL0     C56332   4.615   4.006   8.625 -0.2632 -0.2118  0.2435
  418MOL0     C56333   4.708   4.026   8.498  1.1040  0.9599 -0.0157
  418MOL0     C56334   4.827   4.093   8.545 -0.7740 -0.5422  0.2029
  418MOL0     C56335   4.920   4.147   8.430 -1.3635  0.6307 -0.3131
  418MOL0     C56336   5.046   4.054   8.403 -0.6701  0.0643 -0.1087
  418MOL0     C56337   5.159   4.115   8.321  0.0903  0.2146  0.9183
  418MOL0     C56338   5.260   4.008   8.288  0.0732  0.2804 -0.6100
  418MOL0    Cl56339   5.362   4.009   8.432 -0.0619  0.2854  0.2913
  418MOL0     C56340   4.194   3.908   8.802 -0.2823 -0.1706 -0.8103
  418MOL0     C56341   4.063   3.885   8.793 -0.1172  0.1968  0.4387
  418MOL0     O56342   3.814   3.849   8.467 -0.5852 -0.2180  0.3030
  418MOL0     C56343   3.564   3.733   8.482 -0.3483 -0.0955 -0.9300
  418MOL0     C56344   3.446   3.652   8.487  0.4774 -0.0180  0.2492
  418MOL0     N56345   2.729   3.473   9.073 -0.0006 -0.1118 -0.3791
  418MOL0     N56346   2.668   3.398   9.154  0.7381 -0.0824  0.3095
  418MOL0     C56347   2.085   2.837   9.653  1.2441  0.7761 -0.1173
  418MOL0     C56348   1.972   2.902   9.710 -0.4349 -0.9065 -0.1828
  418MOL0     C56349   1.650   3.108   9.926  1.0630 -0.2538  0.0817
  418MOL0     C56350   1.643   3.214  10.009  0.4095  0.9930 -0.3655
  418MOL0     C56351   1.552   3.238  10.117 -0.5239  0.2380 -1.1919
  418MOL0     C56352   1.460   3.141  10.147 -0.6033  0.9711 -0.7693
  418MOL0     O56353   1.373   3.145  10.251 -0.2390 -1.1327 -0.1062
  418MOL0     C56354   1.363   3.272  10.324  0.0122 -0.1602  0.2032
  418MOL0     C56355   1.269   3.259  10.444  0.2868  0.2361  0.1642
  418MOL0     C56356   1.290   3.367  10.542  0.0109  0.6551 -0.2488
  418MOL0     C56357   1.219   3.491  10.503  0.6430  0.5033 -0.0136
  418MOL0     C56358   1.290   3.578  10.403 -0.9476  0.5874 -0.0344
  418MOL0     C56359   1.356   3.646  10.329 -0.3628  0.1158 -0.2526
  418MOL0     C56360   1.460   3.028  10.069 -0.1026 -0.4797 -0.2865
  418MOL0     C56361   1.552   3.009   9.957  0.4351 -0.3539  0.1046
  418MOL0     C56362   1.533   2.879   9.878  0.1322 -0.2252 -0.0063
  418MOL0     H56363   2.129   3.145   9.886 -1.6101  1.5052 -0.1061
  418MOL0     H56364   2.317   3.059   9.789 -0.7439  2.2660 -0.7348
  418MOL0     H56365   2.305   2.637   9.612  0.2689 -3.8966 -3.0727
  418MOL0     H56366   2.301   2.719   9.456 -2.6954  4.6533  0.8416
  418MOL0     H56367   2.504   2.593   9.499 -4.7010 -0.5905  1.3299
  418MOL0     H56368   2.532   2.676   9.651  0.1254  0.3254  0.1479
  418MOL0     H56369   2.555   2.898   9.529  0.1574  0.7834  1.0480
  418MOL0     H56370   2.491   2.825   9.381  0.1838  2.6825  0.7203
  418MOL0     H56371   2.751   2.758   9.538  1.5341 -0.4770 -0.8732
  418MOL0     H56372   2.733   2.684   9.387  4.7564  0.4272  1.6037
  418MOL0     H56373   2.859   2.830   9.308 -0.0014  1.5079 -0.2272
  418MOL0     H56374   2.706   2.898   9.265  1.1619  2.4985 -1.4066
  418MOL0     H56375   2.722   3.031   9.489 -0.2372 -4.5791 -0.3644
  418MOL0     H56376   2.891   2.991   9.486  0.2284 -0.3859  0.0175
  418MOL0     H56377   2.908   3.101   9.259  2.0173  0.6173  1.8862
  418MOL0     H56378   2.864   3.225   9.378 -1.8651 -0.8478  3.6623
  418MOL0     H56379   2.680   3.086   9.168 -2.4574 -0.3149 -0.7473
  418MOL0     H56380   2.619   3.184   9.307  2.0312  0.5158  2.0432
  418MOL0     H56381   2.882   3.200   9.015 -1.1136 -1.2075  0.2071
  418MOL0     H56382   2.833   3.380   8.791 -0.1444 -0.3368  0.0827
  418MOL0     H56383   2.867   3.549   8.850 -0.0935  0.4863  1.7259
  418MOL0     H56384   3.087   3.486   8.932 -0.2877 -1.6738  0.2304
  418MOL0     H56385   3.070   3.318   8.879 -1.1522 -0.5144  1.4027
  418MOL0     H56386   3.043   3.542   8.676 -2.5108 -0.0713  2.3165
  418MOL0     H56387   3.054   3.377   8.646  0.5079  0.9050 -2.6883
  418MOL0     H56388   3.301   3.404   8.790 -1.0237 -0.1135  0.2968
  418MOL0     H56389   3.247   3.574   8.779 -0.2343 -0.4407  0.4286
  418MOL0     H56390   3.487   3.522   8.807 -0.9605  0.9223 -0.3475
  418MOL0     H56391   3.703   3.633   8.774  0.0756  0.1213  0.2294
  418MOL0     H56392   4.059   3.771   8.473  2.3872 -0.3735 -0.9102
  418MOL0     H56393   4.288   3.846   8.488  2.3120  2.9756  1.2385
  418MOL0     H56394   4.522   3.824   8.580  0.3844  1.1520 -0.2465
  418MOL0     H56395   4.448   3.970   8.506 -1.4398  0.0856 -0.0370
  418MOL0     H56396   4.580   4.106   8.654  2.5322  0.4173  1.8075
  418MOL0     H56397   4.676   3.967   8.706 -0.0138  0.0219  0.1685
  418MOL0     H56398   4.731   3.932   8.447 -1.3960 -0.4448  1.2574
  418MOL0     H56399   4.654   4.089   8.427  1.5500  0.2080 -1.0524
  418MOL0     H56400   4.892   4.035   8.611  1.9236  2.1270  0.1054
  418MOL0     H56401   4.790   4.184   8.594  2.0787  0.3629  0.8247
  418MOL0     H56402   4.964   4.243   8.457  1.1295 -0.1435 -1.2773
  418MOL0     H56403   4.871   4.158   8.333  0.2101 -0.0862 -1.2484
  418MOL0     H56404   5.086   4.041   8.504  0.7477  0.3656 -0.6180
  418MOL0     H56405   5.019   3.959   8.357  1.9696  0.2592 -2.2864
  418MOL0     H56406   5.208   4.204   8.363  1.3281  0.8365 -1.5968
  418MOL0     H56407   5.113   4.153   8.229  0.1254  1.2210  1.3033
  418MOL0     H56408   5.207   3.913   8.279  0.0280  0.2803 -0.3277
  418MOL0     H56409   5.322   4.034   8.201 -0.6894  1.4328 -0.8396
  418MOL0     H56410   4.227   3.936   8.902  3.2167 -1.1866 -1.5589
  418MOL0     H56411   3.997   3.914   8.875  0.2114  1.6994  0.1953
  418MOL0     H56412   3.574   3.794   8.393 -2.6659  1.5173 -0.1815
  418MOL0     H56413   3.374   3.647   8.407  0.7742  0.4766 -0.0544
  418MOL0     H56414   2.074   2.759   9.579 -0.9153  0.9747 -0.0630
  418MOL0     H56415   1.877   2.879   9.663 -0.7875 -0.0662  0.0971
  418MOL0     H56416   1.722   3.289  10.005  0.8647  0.4816 -1.6190
  418MOL0     H56417   1.574   3.331  10.169 -0.6404  1.7195 -3.6355
  418MOL0     H56418   1.322   3.348  10.257  0.6425 -0.3682 -0.4354
  418MOL0     H56419   1.460   3.314  10.352  0.5769  1.0084 -2.9880
  418MOL0     H56420   1.291   3.164  10.494  1.9094 -0.6581 -2.0998
  418MOL0     H56421   1.164   3.258  10.414 -0.0420  0.7128  1.2552
  418MOL0     H56422   1.398   3.377  10.557 -0.3278  1.3983  1.9689
  418MOL0     H56423   1.239   3.328  10.631  1.2515 -2.5996 -0.8174
  418MOL0     H56424   1.115   3.481  10.469  0.9881  0.8228 -1.2185
  418MOL0     H56425   1.205   3.547  10.596  0.4611  1.6706 -0.7121
  418MOL0     H56426   1.406   3.721  10.272  1.0900  0.0657  0.9129
  418MOL0     H56427   1.392   2.949  10.097 -0.3261  0.8590  3.5555
  418MOL0     H56428   1.546   2.895   9.770 -2.6347 -0.5819 -0.4717
  418MOL0     H56429   1.598   2.800   9.916 -1.9908 -0.5343  3.3559
  418MOL0     H56430   1.430   2.842   9.878 -0.0246  0.0956  2.1632
  419MOL0     O56431   8.829   6.176  10.462 -0.6622 -1.0550  0.2105
  419MOL0     C56432   8.776   6.271  10.399 -0.5446  0.1066  0.1322
  419MOL0     O56433   8.836   6.392  10.380  0.2938 -0.2614 -0.1450
  419MOL0     C56434   8.955   6.409  10.435 -0.2898  0.5773 -0.3907
  419MOL0     C56435   8.976   6.388  10.574  0.3404 -0.4998  0.2040
  419MOL0     C56436   9.098   6.414  10.636 -0.4806  0.2093  0.7371
  419MOL0     C56437   9.203   6.444  10.560 -0.3443 -0.1350  0.4732
  419MOL0     O56438   9.334   6.444  10.606  0.4196 -0.1509  0.8929
  419MOL0     C56439   9.427   6.353  10.537 -0.6190  0.2567  0.1479
  419MOL0     C56440   9.573   6.384  10.586  0.9154 -0.1502 -0.2296
  419MOL0     C56441   9.686   6.305  10.517  0.0376  0.1534 -0.7178
  419MOL0     C56442   9.810   6.271  10.604 -0.2264 -0.2218  0.0032
  419MOL0     C56443   9.899   6.166  10.527  0.2604 -0.2910 -0.3302
  419MOL0     C56444   9.992   6.092  10.632 -0.7322  0.8730 -0.5767
  419MOL0     C56445  10.063   5.962  10.581 -0.3624  0.1997  0.7868
  419MOL0     C56446  10.176   5.904  10.678 -0.3135  0.4306 -0.6413
  419MOL0     N56447  10.277   5.997  10.702 -0.1637  0.5187 -0.1244
  419MOL0     C56448  10.301   6.065  10.817  0.2864  0.0170 -0.1609
  419MOL0     C56449  10.392   6.170  10.791 -0.3384  0.1938 -0.2054
  419MOL0     C56450  10.441   6.281  10.891  0.3698  1.2268 -0.4111
  419MOL0     C56451  10.342   6.321  11.000 -0.3243 -0.8260 -0.6221
  419MOL0     C56452  10.400   6.387  11.124 -0.0102 -1.4240 -0.6462
  419MOL0     C56453  10.491   6.296  11.195  0.9572  0.8423  0.5118
  419MOL0     O56454  10.430   6.174  11.244 -0.0526 -0.3589  0.3156
  419MOL0     C56455  10.488   6.045  11.234 -0.4720 -0.7181  0.2204
  419MOL0     C56456  10.415   5.930  11.290 -1.0396  0.8834  0.6261
  419MOL0     C56457  10.465   5.799  11.268  0.0457 -0.1773  0.7714
  419MOL0     C56458  10.583   5.774  11.192  0.0915  0.4056 -0.1773
  419MOL0     C56459  10.639   5.640  11.163 -0.4882 -0.6192 -0.2367
  419MOL0     O56460  10.749   5.629  11.078 -0.4382  0.1128 -0.7431
  419MOL0     C56461  10.838   5.528  11.083  0.7346 -0.2105 -0.2439
  419MOL0     C56462  10.854   5.426  11.174  0.0861 -0.1718  0.4020
  419MOL0     C56463  10.939   5.320  11.148  0.8512 -0.2239 -0.3271
  419MOL0     C56464  11.014   5.314  11.032  0.2208  0.4483 -0.2510
  419MOL0     O56465  11.103   5.212  11.022  0.1933  0.4306  0.1002
  419MOL0     C56466  11.196   5.206  10.917 -0.1888  0.5669  0.6023
  419MOL0     C56467  11.264   5.071  10.903 -0.2475  0.5697  0.1992
  419MOL0     C56468  11.348   5.053  10.782 -0.7531 -0.0515 -0.0468
  419MOL0     C56469  11.403   4.909  10.783  0.7767  0.5486  0.5574
  419MOL0     C56470  11.495   4.885  10.658 -0.4496  0.1482 -0.5050
  419MOL0     C56471  11.570   4.747  10.689  0.0173  0.4553  0.1814
  419MOL0     C56472  11.695   4.720  10.608 -0.0935  0.0309 -0.2573
  419MOL0     C56473  11.681   4.717  10.458  0.0241  0.4068  0.2210
  419MOL0    Cl56474  11.623   4.564  10.407  0.0635 -0.0598 -0.2859
  419MOL0     C56475  10.994   5.420  10.945 -0.3399  0.2695  0.3938
  419MOL0     C56476  10.910   5.530  10.970 -0.2595 -1.2200  0.0088
  419MOL0     O56477  10.589   5.555  11.225  0.4305  0.4778  0.3087
  419MOL0     C56478  10.667   5.884  11.158  0.4227  0.5557 -0.0180
  419MOL0     C56479  10.616   6.018  11.173 -0.1279 -0.0566  0.5529
  419MOL0     N56480  10.424   6.150  10.655 -0.4980  0.5486  1.0754
  419MOL0     N56481  10.364   6.047  10.607  0.6048 -0.0454  0.1035
  419MOL0     C56482   9.186   6.474  10.422  0.3762  1.3688 -1.2255
  419MOL0     C56483   9.062   6.451  10.357  0.4551  0.2465 -0.4577
  419MOL0     C56484   8.645   6.238  10.341  0.2321 -0.7872  0.4083
  419MOL0     C56485   8.620   6.108  10.302 -0.0764 -1.2337 -0.4723
  419MOL0     C56486   8.498   6.080  10.243 -0.4994  0.1298  0.2800
  419MOL0     C56487   8.395   6.172  10.214  0.5784 -0.6911 -0.0484
  419MOL0     O56488   8.291   6.134  10.141 -0.1362  0.2121  0.3238
  419MOL0     C56489   8.188   6.046  10.196 -0.0425 -0.0092 -0.0214
  419MOL0     C56490   8.150   5.939  10.094  0.1136 -0.8479  0.2431
  419MOL0     C56491   8.023   5.873  10.135  1.3935  0.1546  0.3396
  419MOL0     C56492   7.952   5.814  10.002 -0.5401 -0.3358 -0.3370
  419MOL0     C56493   7.828   5.737  10.050 -0.2921 -0.0349  0.2560
  419MOL0     C56494   7.734   5.687  10.092  1.2456  0.8759 -0.3718
  419MOL0     C56495   8.418   6.303  10.255 -2.2162 -0.8230 -0.7389
  419MOL0     C56496   8.546   6.339  10.319  0.6171  0.1223 -0.5295
  419MOL0     C56497   8.552   6.478  10.372  0.0341 -0.0349 -0.3451
  419MOL0     H56498   8.898   6.353  10.641  0.2901  0.2622  0.5480
  419MOL0     H56499   9.115   6.413  10.744  0.3899  1.3581  0.6300
  419MOL0     H56500   9.408   6.249  10.564 -0.3070 -0.1856 -1.2795
  419MOL0     H56501   9.416   6.359  10.429  2.3109 -0.7586 -0.3138
  419MOL0     H56502   9.566   6.380  10.695 -1.7946  1.8928 -0.2324
  419MOL0     H56503   9.584   6.491  10.566 -1.6499  0.1404 -0.3847
  419MOL0     H56504   9.708   6.357  10.423 -1.9160  1.0847 -0.7229
  419MOL0     H56505   9.638   6.213  10.484  3.2436 -1.7684 -0.3991
  419MOL0     H56506   9.879   6.354  10.622 -0.5223  0.1967 -0.7195
  419MOL0     H56507   9.771   6.220  10.693  0.2822  1.9194  1.5206
  419MOL0     H56508   9.832   6.089  10.487  0.8332 -1.2745  0.5376
  419MOL0     H56509   9.956   6.216  10.449 -0.4227  1.8445  0.4867
  419MOL0     H56510  10.072   6.162  10.654 -0.1836  0.1343 -0.1630
  419MOL0     H56511   9.950   6.072  10.731 -2.0072 -0.4874 -1.3289
  419MOL0     H56512  10.105   5.990  10.484 -1.2792  3.8345  1.3124
  419MOL0     H56513   9.993   5.879  10.568  0.4842 -0.1749 -2.0673
  419MOL0     H56514  10.125   5.873  10.770  0.2427 -1.6392 -0.9782
  419MOL0     H56515  10.228   5.822  10.627 -2.2084 -0.8627 -0.6123
  419MOL0     H56516  10.254   6.058  10.915  1.1853  0.8398  0.3490
  419MOL0     H56517  10.538   6.253  10.932  0.8059  3.1047 -0.0525
  419MOL0     H56518  10.458   6.371  10.830 -3.0222  0.7095 -2.3979
  419MOL0     H56519  10.278   6.388  10.940  0.3810  0.9894  0.5597
  419MOL0     H56520  10.278   6.240  11.035  1.6837 -1.4021  1.9641
  419MOL0     H56521  10.313   6.407  11.187 -0.3680 -1.7602 -1.0301
  419MOL0     H56522  10.456   6.479  11.105  1.7305 -1.6303  2.6584
  419MOL0     H56523  10.526   6.349  11.284  0.5048  1.3977  0.3547
  419MOL0     H56524  10.579   6.276  11.133 -0.3673 -0.6864 -0.9904
  419MOL0     H56525  10.324   5.959  11.341 -1.3434  3.0200 -0.9918
  419MOL0     H56526  10.416   5.711  11.307 -0.1507 -1.7775 -2.6709
  419MOL0     H56527  10.797   5.428  11.266  0.9011  1.0542  0.9073
  419MOL0     H56528  10.953   5.239  11.218 -0.2011 -0.6749 -0.6150
  419MOL0     H56529  11.154   5.230  10.819 -0.5730 -2.6269 -0.1281
  419MOL0     H56530  11.268   5.285  10.942 -0.5571  0.9228  0.5600
  419MOL0     H56531  11.325   5.064  10.994 -2.0247  3.5997  1.7863
  419MOL0     H56532  11.186   4.995  10.894  0.3118  0.1575 -1.6717
  419MOL0     H56533  11.291   5.077  10.691  0.7962 -2.7557 -1.8884
  419MOL0     H56534  11.434   5.119  10.793 -1.1518  0.2195  1.7372
  419MOL0     H56535  11.326   4.832  10.784  3.5739 -2.5380  2.8174
  419MOL0     H56536  11.447   4.896  10.882  1.3227 -1.8772  0.0617
  419MOL0     H56537  11.571   4.959  10.633  3.0348 -3.8225 -3.1384
  419MOL0     H56538  11.429   4.873  10.571 -1.4532 -1.0754  0.3815
  419MOL0     H56539  11.587   4.735  10.796 -2.2400 -2.5509  0.3472
  419MOL0     H56540  11.505   4.665  10.656 -3.0554  3.6155 -2.3912
  419MOL0     H56541  11.745   4.631  10.647  2.4117  1.9882  1.3111
  419MOL0     H56542  11.763   4.805  10.625  1.0538 -0.2044 -3.0041
  419MOL0     H56543  11.617   4.797  10.419  0.2586  0.9932  1.0210
  419MOL0     H56544  11.774   4.728  10.401 -0.6206 -1.6584 -1.3510
  419MOL0     H56545  11.048   5.430  10.851 -1.1071  2.1585  0.1117
  419MOL0     H56546  10.897   5.618  10.908 -1.1546  0.8180  2.8546
  419MOL0     H56547  10.761   5.857  11.109  1.8135  1.8373  1.8068
  419MOL0     H56548  10.687   6.094  11.142 -2.0836  1.9503  0.7478
  419MOL0     H56549   9.279   6.482  10.366  2.1329 -1.7882  0.8970
  419MOL0     H56550   9.055   6.475  10.251  1.9601 -1.0160 -0.8793
  419MOL0     H56551   8.691   6.028  10.318 -0.9445 -2.2851 -1.6857
  419MOL0     H56552   8.484   5.976  10.218 -0.6534  0.2287 -0.0465
  419MOL0     H56553   8.099   6.104  10.221 -0.6004 -1.9578  3.2899
  419MOL0     H56554   8.218   5.986  10.283 -3.2530 -3.2845 -0.9317
  419MOL0     H56555   8.235   5.872  10.080  0.2179 -0.2403 -3.0021
  419MOL0     H56556   8.136   5.993  10.000  0.1854  0.0680  0.7479
  419MOL0     H56557   7.947   5.931  10.190  0.7048  0.2452 -0.6685
  419MOL0     H56558   8.041   5.791  10.205 -1.8608 -0.1025  1.0792
  419MOL0     H56559   7.924   5.886   9.925 -3.6949 -1.6577 -0.5934
  419MOL0     H56560   8.023   5.738   9.969 -0.1430 -1.7405  3.2912
  419MOL0     H56561   7.654   5.629  10.134  1.1210  1.6861  0.5589
  419MOL0     H56562   8.355   6.388  10.230  0.3833  1.4589 -0.0537
  419MOL0     H56563   8.620   6.479  10.458  3.3338  0.4945 -2.7580
  419MOL0     H56564   8.590   6.543  10.294  1.3593  1.3194  1.3382
  419MOL0     H56565   8.459   6.522  10.411  0.4823 -0.6740  1.6025
  420MOL0     O56566   4.264   7.723   4.926  0.3838 -0.3834  0.1792
  420MOL0     C56567   4.211   7.804   4.850  0.1563 -0.4861  1.5077
  420MOL0     O56568   4.276   7.890   4.765 -0.1528  1.1818  0.0060
  420MOL0     C56569   4.413   7.866   4.741  0.1776 -0.8068  0.7738
  420MOL0     C56570   4.496   7.978   4.714  0.4021 -0.1099  0.1144
  420MOL0     C56571   4.634   7.969   4.693 -0.9006  0.8323 -0.0261
  420MOL0     C56572   4.695   7.838   4.676 -0.1341 -0.5303 -0.3016
  420MOL0     O56573   4.824   7.805   4.634  0.1616 -0.4235  0.3880
  420MOL0     C56574   4.921   7.912   4.608  0.4309  0.5580  0.2974
  420MOL0     C56575   5.038   7.844   4.552  0.8730 -0.0429  0.5405
  420MOL0     C56576   5.156   7.928   4.514 -0.1118 -0.0261  1.0907
  420MOL0     C56577   5.264   7.869   4.436 -0.7813 -0.2953 -0.0179
  420MOL0     C56578   5.374   7.981   4.406  0.8798 -0.1564 -0.6579
  420MOL0     C56579   5.497   7.921   4.344 -0.2340 -0.6706  0.3228
  420MOL0     C56580   5.607   8.028   4.334  0.2635  0.1111  0.4180
  420MOL0     C56581   5.744   7.963   4.309  0.3986  0.1545  0.0752
  420MOL0     N56582   5.851   8.060   4.325 -0.9280  0.7696  0.8063
  420MOL0     C56583   5.919   8.132   4.222  0.0088  0.2471  0.9579
  420MOL0     C56584   6.036   8.167   4.281  1.0744  1.0800  0.5227
  420MOL0     C56585   6.152   8.233   4.208  0.3103  0.3224 -0.2329
  420MOL0     C56586   6.281   8.209   4.270 -0.2057 -0.3115  0.0410
  420MOL0     C56587   6.313   8.058   4.286 -0.9250  0.1579  0.2036
  420MOL0     C56588   6.430   8.034   4.377 -0.2118  0.4643  0.4835
  420MOL0     O56589   6.540   8.043   4.290  0.4893  0.4727 -0.8681
  420MOL0     C56590   6.642   8.129   4.314 -0.3621 -1.2894 -0.1947
  420MOL0     C56591   6.645   8.247   4.385 -0.9130 -0.7371 -1.1172
  420MOL0     C56592   6.768   8.310   4.422  0.3432 -0.5728  0.7891
  420MOL0     C56593   6.886   8.276   4.357  0.3381  0.4289  0.1566
  420MOL0     C56594   7.014   8.350   4.380  0.6371  0.6952  0.9498
  420MOL0     O56595   7.126   8.280   4.349  0.1010  0.3699 -0.2227
  420MOL0     C56596   7.244   8.348   4.324 -0.1663 -0.3720 -0.2397
  420MOL0     C56597   7.251   8.469   4.247 -0.2557  0.4462 -0.2350
  420MOL0     C56598   7.360   8.533   4.212 -1.5316 -0.0124  0.5019
  420MOL0     C56599   7.482   8.487   4.269  0.0212  0.3074  0.0955
  420MOL0     O56600   7.592   8.564   4.247 -0.1866  0.4995  0.2855
  420MOL0     C56601   7.723   8.500   4.236  0.0796 -0.2102  0.0534
  420MOL0     C56602   7.834   8.600   4.271 -0.6624 -0.4901 -0.2515
  420MOL0     C56603   7.862   8.616   4.425 -0.9911  0.7332 -0.7111
  420MOL0     C56604   7.810   8.747   4.473  0.9267  0.1861 -0.0836
  420MOL0     C56605   7.853   8.776   4.615  0.5149  0.6440 -0.2354
  420MOL0     C56606   7.751   8.851   4.704 -0.7132  0.1306  0.5469
  420MOL0     C56607   7.669   8.743   4.783  0.1167  0.3992 -0.4585
  420MOL0     C56608   7.566   8.672   4.705 -0.2357 -0.3368  0.4110
  420MOL0    Cl56609   7.469   8.576   4.816  0.3395  0.3946  0.6427
  420MOL0     C56610   7.482   8.378   4.351 -0.1553  0.4284  0.3625
  420MOL0     C56611   7.364   8.302   4.378  0.1084  0.4511 -0.0923
  420MOL0     O56612   7.013   8.464   4.431 -0.0230 -0.5765 -0.2905
  420MOL0     C56613   6.888   8.160   4.273 -0.4230 -0.0565 -0.0030
  420MOL0     C56614   6.768   8.095   4.250  0.6829 -0.3693 -0.2511
  420MOL0     N56615   6.029   8.147   4.414  1.4137 -0.3782 -0.9860
  420MOL0     N56616   5.925   8.071   4.445 -0.3367  0.2361  0.5002
  420MOL0     C56617   4.609   7.729   4.683  0.0025  0.5741 -0.3535
  420MOL0     C56618   4.471   7.744   4.715  0.0179  0.9414  0.3355
  420MOL0     C56619   4.060   7.804   4.828 -0.0362  0.3268  0.1237
  420MOL0     C56620   3.997   7.912   4.761  0.3720  0.3075  0.4894
  420MOL0     C56621   3.861   7.913   4.741  0.5187  0.4872 -0.0664
  420MOL0     C56622   3.771   7.808   4.785 -0.1782  0.1014  0.2611
  420MOL0     O56623   3.639   7.781   4.760 -0.0940 -0.3154  0.8173
  420MOL0     C56624   3.564   7.873   4.669 -0.7244  0.7812  0.5775
  420MOL0     C56625   3.468   7.801   4.579  0.4589 -0.4481  0.9077
  420MOL0     C56626   3.355   7.887   4.532 -0.3566  0.3967  0.7102
  420MOL0     C56627   3.220   7.851   4.581  0.2178  0.1749 -1.4364
  420MOL0     C56628   3.211   7.817   4.727 -0.4793 -0.5613 -0.7725
  420MOL0     C56629   3.207   7.801   4.842 -0.1125 -0.1569  0.1622
  420MOL0     C56630   3.836   7.704   4.848 -0.7372  0.3004  0.7386
  420MOL0     C56631   3.978   7.701   4.874  0.9367 -0.1876 -0.5808
  420MOL0     C56632   4.016   7.577   4.949  0.1058  0.4932  0.0096
  420MOL0     H56633   4.451   8.076   4.728 -0.6518 -0.7361  1.3462
  420MOL0     H56634   4.696   8.057   4.697 -1.6951  1.3989  0.0114
  420MOL0     H56635   4.879   7.979   4.532  1.5227  1.5697  0.5439
  420MOL0     H56636   4.940   7.978   4.693 -0.3356  1.7707 -0.4372
  420MOL0     H56637   5.011   7.771   4.474 -3.1518 -0.9251  2.5274
  420MOL0     H56638   5.072   7.792   4.642 -1.0883 -0.3915  1.1155
  420MOL0     H56639   5.203   7.951   4.610  3.0587 -0.0804 -0.3318
  420MOL0     H56640   5.126   8.022   4.465 -1.8013 -0.4892  1.1748
  420MOL0     H56641   5.305   7.783   4.490  0.2378  0.8191  1.0421
  420MOL0     H56642   5.231   7.839   4.337 -1.2791 -0.8981  0.3198
  420MOL0     H56643   5.332   8.056   4.338  1.2677 -2.1279 -3.2237
  420MOL0     H56644   5.397   8.021   4.505 -2.2289 -2.0948  1.0200
  420MOL0     H56645   5.533   7.836   4.403  1.5546 -0.1095  0.1005
  420MOL0     H56646   5.465   7.887   4.245 -2.2932 -0.2831  0.8100
  420MOL0     H56647   5.611   8.079   4.430  0.2912 -1.7840  1.4674
  420MOL0     H56648   5.583   8.093   4.249 -0.8117 -2.4358 -1.3712
  420MOL0     H56649   5.753   7.888   4.388 -0.0969 -1.2455 -1.1544
  420MOL0     H56650   5.742   7.902   4.219  2.0608  0.4353 -0.1769
  420MOL0     H56651   5.898   8.134   4.115  2.5023  1.0982  0.4087
  420MOL0     H56652   6.153   8.207   4.102 -1.0095 -0.7626 -0.0060
  420MOL0     H56653   6.123   8.339   4.218  3.8511  1.4598 -0.7588
  420MOL0     H56654   6.364   8.252   4.214 -2.6347  1.8006 -2.1808
  420MOL0     H56655   6.287   8.262   4.365 -1.9326  1.0074 -0.5430
  420MOL0     H56656   6.321   8.017   4.185 -2.9443 -3.5307  1.3786
  420MOL0     H56657   6.223   8.013   4.327 -0.2531  0.5225  2.1573
  420MOL0     H56658   6.414   7.935   4.422  1.1256  0.7660  1.6999
  420MOL0     H56659   6.451   8.100   4.462  0.6382 -1.2450  1.6757
  420MOL0     H56660   6.558   8.287   4.438 -0.4721  1.0995 -1.7002
  420MOL0     H56661   6.768   8.398   4.485  1.9159  0.0284  0.0131
  420MOL0     H56662   7.160   8.495   4.194 -1.1194 -0.9986  0.4597
  420MOL0     H56663   7.381   8.617   4.146  1.6093  0.1300  1.4966
  420MOL0     H56664   7.730   8.416   4.305  1.5644  0.4036  0.6982
  420MOL0     H56665   7.746   8.452   4.140 -0.8501  2.4039 -1.5988
  420MOL0     H56666   7.924   8.562   4.221  0.4892  0.0503  1.3073
  420MOL0     H56667   7.820   8.702   4.234  1.3433  0.8117  2.2330
  420MOL0     H56668   7.813   8.543   4.490 -4.1560  2.0815 -1.3770
  420MOL0     H56669   7.968   8.610   4.450 -1.3921  0.0600  0.9558
  420MOL0     H56670   7.701   8.743   4.477  0.9817 -0.9641  0.7636
  420MOL0     H56671   7.842   8.825   4.403  1.0746 -0.2159 -0.4675
  420MOL0     H56672   7.934   8.849   4.604 -0.9798  2.5101  0.5101
  420MOL0     H56673   7.898   8.688   4.663  0.6560 -0.1646 -1.7952
  420MOL0     H56674   7.810   8.904   4.780  1.4666  0.9457 -1.5642
  420MOL0     H56675   7.687   8.920   4.649 -1.0996 -0.2724  0.4887
  420MOL0     H56676   7.615   8.790   4.865 -2.8384 -0.0448 -2.0099
  420MOL0     H56677   7.740   8.667   4.817  0.8582  0.5546 -1.6030
  420MOL0     H56678   7.500   8.735   4.646  0.6994 -0.4359 -0.7725
  420MOL0     H56679   7.608   8.594   4.641 -1.3866 -1.5969  1.1358
  420MOL0     H56680   7.568   8.367   4.416  0.0233  0.1901  0.0925
  420MOL0     H56681   7.362   8.225   4.454  0.6993 -0.7501 -1.2405
  420MOL0     H56682   6.975   8.133   4.214 -0.4865 -3.9536  1.4477
  420MOL0     H56683   6.757   8.016   4.176 -2.7668 -0.7366  0.4747
  420MOL0     H56684   4.652   7.630   4.671  0.7470  0.7799  0.4835
  420MOL0     H56685   4.415   7.652   4.716 -1.7134  1.9450  0.4246
  420MOL0     H56686   4.054   7.993   4.718  0.2981 -0.4188 -1.0241
  420MOL0     H56687   3.807   7.990   4.688 -1.0407 -1.1053 -0.9209
  420MOL0     H56688   3.640   7.904   4.597 -0.7560 -2.8714 -1.2204
  420MOL0     H56689   3.521   7.957   4.725  0.6770  1.9073  0.0244
  420MOL0     H56690   3.423   7.714   4.630  1.8559 -0.6193  1.8907
  420MOL0     H56691   3.525   7.763   4.495 -0.0914 -1.5301  0.9956
  420MOL0     H56692   3.360   7.865   4.425  1.3277  0.2529  0.7784
  420MOL0     H56693   3.372   7.994   4.545 -4.7351  1.1458  1.5929
  420MOL0     H56694   3.167   7.945   4.561  2.1948  1.3692 -1.2383
  420MOL0     H56695   3.175   7.773   4.518  0.6626  0.8845 -2.6571
  420MOL0     H56696   3.200   7.789   4.948  0.0067 -1.2850  0.0533
  420MOL0     H56697   3.774   7.619   4.878 -0.2451 -0.2865  0.1382
  420MOL0     H56698   4.052   7.505   4.875  0.5519 -0.3103  0.9820
  420MOL0     H56699   4.091   7.585   5.028  1.1974  0.1892 -0.9620
  420MOL0     H56700   3.932   7.535   5.004  1.3532  0.5346  2.0272
  421MOL0     O56701   2.042   0.404   6.949  0.5191 -0.3894  0.0703
  421MOL0     C56702   2.045   0.302   7.011  0.4584 -0.4820 -0.4964
  421MOL0     O56703   2.123   0.198   6.992 -0.0467 -0.1207  0.5492
  421MOL0     C56704   2.220   0.188   6.897 -0.0412  0.3821  1.1226
  421MOL0     C56705   2.301   0.074   6.922 -1.1746 -0.1388  1.2051
  421MOL0     C56706   2.406   0.051   6.835 -0.2474 -0.2869  0.7030
  421MOL0     C56707   2.436   0.140   6.719  0.8027 -0.5123  0.0222
  421MOL0     O56708   2.546   0.109   6.644  0.1060  0.7270 -0.1577
  421MOL0     C56709   2.547   0.160   6.507 -0.0358  0.0213  0.3052
  421MOL0     C56710   2.655   0.071   6.424 -0.1841  0.1059 -0.6432
  421MOL0     C56711   2.799   0.129   6.413  0.2197 -0.0065  0.0191
  421MOL0     C56712   2.865   0.058   6.288  0.5282 -0.0065  1.2982
  421MOL0     C56713   3.011   0.094   6.282  0.2467 -0.5335  0.4267
  421MOL0     C56714   3.065   0.050   6.149  0.0950  0.1565  0.2324
  421MOL0     C56715   3.224   0.070   6.132  0.3086  0.6155 -0.5263
  421MOL0     C56716   3.267   0.217   6.155  1.0177 -0.1003 -0.1427
  421MOL0     N56717   3.413   0.223   6.163 -0.3710  0.2270  0.3322
  421MOL0     C56718   3.485   0.161   6.260  0.3486 -0.0566 -0.1430
  421MOL0     C56719   3.611   0.135   6.210 -0.4890  0.2766  0.3820
  421MOL0     C56720   3.730   0.072   6.275  0.8462  0.3520  0.2026
  421MOL0     C56721   3.845   0.167   6.282 -0.1380 -0.2389 -0.5911
  421MOL0     C56722   3.972   0.097   6.354 -0.3053  1.0080  0.8710
  421MOL0     C56723   4.072   0.202   6.403 -0.2263  0.1238 -1.2458
  421MOL0     O56724   4.183   0.135   6.469  0.4023 -0.1845  0.1015
  421MOL0     C56725   4.293   0.110   6.401  0.6628 -0.1304 -0.1905
  421MOL0     C56726   4.298   0.088   6.259 -0.2678  0.7609  0.1717
  421MOL0     C56727   4.412   0.045   6.184  1.0307 -0.1739  0.1917
  421MOL0     C56728   4.533   0.046   6.252 -0.1651 -1.0746  0.1007
  421MOL0     C56729   4.653   0.021   6.170  0.2227  0.9238 -0.4197
  421MOL0     O56730   4.757  -0.021   6.254 -0.4723  0.1278 -0.1728
  421MOL0     C56731   4.878  -0.064   6.204 -0.0711  0.8479  0.6268
  421MOL0     C56732   4.903  -0.089   6.071 -0.4593  0.1819  0.0904
  421MOL0     C56733   5.023  -0.139   6.015 -0.4871 -0.0736 -0.2435
  421MOL0     C56734   5.142  -0.150   6.099 -0.8900  0.2624 -0.7788
  421MOL0     O56735   5.260  -0.200   6.052  0.5163  0.6743 -0.5178
  421MOL0     C56736   5.351  -0.273   6.131  1.0341 -0.5820  0.2773
  421MOL0     C56737   5.477  -0.282   6.051 -0.5537  0.0214  0.1477
  421MOL0     C56738   5.577  -0.376   6.115 -0.6788 -0.0448 -1.2638
  421MOL0     C56739   5.713  -0.365   6.040 -0.1832 -0.5128  0.8177
  421MOL0     C56740   5.812  -0.460   6.101 -0.9006 -0.4072  0.2635
  421MOL0     C56741   5.951  -0.448   6.037 -0.7001 -0.6598  0.3723
  421MOL0     C56742   6.035  -0.556   6.089  0.1478  0.1653  0.0575
  421MOL0     C56743   6.188  -0.553   6.069 -0.2468 -0.0528  0.4776
  421MOL0    Cl56744   6.225  -0.677   5.941 -0.1829 -0.1395 -0.4292
  421MOL0     C56745   5.126  -0.111   6.233  0.0227 -0.1932  0.2641
  421MOL0     C56746   4.996  -0.065   6.278 -0.3544 -0.1211  0.3802
  421MOL0     O56747   4.657   0.050   6.055 -0.4014 -0.1062  0.4084
  421MOL0     C56748   4.533   0.071   6.398  0.1349 -0.6904  0.1744
  421MOL0     C56749   4.413   0.105   6.471 -0.9104 -0.1322 -0.1725
  421MOL0     N56750   3.620   0.176   6.082 -0.7920  0.4850  0.1779
  421MOL0     N56751   3.505   0.236   6.058  1.0370 -0.2065 -0.2784
  421MOL0     C56752   2.350   0.254   6.691 -0.5645  0.7396  0.2736
  421MOL0     C56753   2.250   0.276   6.787 -0.1973 -0.3951 -0.8173
  421MOL0     C56754   1.963   0.278   7.136  0.8314  0.3662  0.5325
  421MOL0     C56755   1.994   0.198   7.234  0.3466  0.1397 -0.3176
  421MOL0     C56756   1.911   0.169   7.343 -1.5274  0.0868  0.3354
  421MOL0     C56757   1.784   0.218   7.358 -0.0942  0.8326  0.1672
  421MOL0     O56758   1.703   0.183   7.467 -0.7238 -0.4904  0.6719
  421MOL0     C56759   1.561   0.200   7.478  0.5812 -0.5919  0.5899
  421MOL0     C56760   1.487   0.108   7.375 -0.3144  0.4361 -1.0744
  421MOL0     C56761   1.330   0.113   7.376 -0.4372 -0.7283  0.0701
  421MOL0     C56762   1.269   0.247   7.358 -1.3219 -0.4145 -0.3607
  421MOL0     C56763   1.309   0.318   7.236 -0.0947  0.3832 -0.2893
  421MOL0     C56764   1.351   0.366   7.134  0.0052  0.0401  1.3357
  421MOL0     C56765   1.741   0.290   7.248  0.0958 -0.4246 -0.3895
  421MOL0     C56766   1.827   0.321   7.139  0.3193 -0.0412 -0.3843
  421MOL0     C56767   1.760   0.400   7.018 -0.5130  0.0600 -0.2606
  421MOL0     H56768   2.285   0.000   6.999 -2.0611 -2.5424 -1.1135
  421MOL0     H56769   2.472  -0.035   6.845 -1.9093 -1.6156  0.6114
  421MOL0     H56770   2.449   0.150   6.460  0.8800 -2.1432 -1.3020
  421MOL0     H56771   2.579   0.264   6.507  0.3467 -0.0653 -1.4708
  421MOL0     H56772   2.616   0.061   6.322 -0.7308 -1.4654 -0.3042
  421MOL0     H56773   2.661  -0.031   6.462 -1.2027  1.2240  2.8706
  421MOL0     H56774   2.864   0.120   6.500 -1.1080  1.0707  1.1775
  421MOL0     H56775   2.779   0.233   6.387 -3.7719 -0.5885  0.1299
  421MOL0     H56776   2.849  -0.048   6.310 -0.4364  0.1426  1.3616
  421MOL0     H56777   2.815   0.079   6.193 -2.0033 -6.1186  0.8446
  421MOL0     H56778   3.029   0.201   6.299 -0.9025 -0.0345 -1.2418
  421MOL0     H56779   3.059   0.045   6.367  1.3666  0.8044  0.5944
  421MOL0     H56780   3.042  -0.056   6.132 -5.4694  0.8564  1.5118
  421MOL0     H56781   3.016   0.109   6.071 -1.2761 -0.1817  0.8224
  421MOL0     H56782   3.260   0.047   6.031 -0.6466 -0.0807 -0.7294
  421MOL0     H56783   3.268  -0.001   6.203 -4.2753 -1.7022  0.3641
  421MOL0     H56784   3.222   0.279   6.076 -1.6204 -1.1299  0.4404
  421MOL0     H56785   3.223   0.252   6.249 -1.1387  2.3180 -1.8701
  421MOL0     H56786   3.464   0.133   6.363  2.0505 -0.0654  0.2343
  421MOL0     H56787   3.692   0.050   6.375  2.0532 -0.9305  0.4005
  421MOL0     H56788   3.765  -0.020   6.227  1.3327 -0.4974  2.0861
  421MOL0     H56789   3.874   0.195   6.180  0.2576  1.6039  0.0019
  421MOL0     H56790   3.820   0.260   6.332 -3.3668 -1.3922  0.1647
  421MOL0     H56791   4.029   0.029   6.290  2.8091  4.9104 -0.9243
  421MOL0     H56792   3.930   0.038   6.436  1.8367  0.1436  1.4204
  421MOL0     H56793   4.014   0.255   6.480 -2.4805 -2.6685 -0.8670
  421MOL0     H56794   4.105   0.263   6.319  0.7208  2.7110  0.8442
  421MOL0     H56795   4.208   0.099   6.200  0.8986  0.6224 -1.7111
  421MOL0     H56796   4.406   0.046   6.076 -0.9611  0.9400  0.2583
  421MOL0     H56797   4.827  -0.102   5.995  0.6013  0.8550 -1.1398
  421MOL0     H56798   5.017  -0.166   5.910  0.2966 -1.5959  0.0648
  421MOL0     H56799   5.361  -0.227   6.229  1.0796 -0.3440  0.1625
  421MOL0     H56800   5.313  -0.376   6.137  0.2759 -0.2121  2.8137
  421MOL0     H56801   5.449  -0.315   5.950  0.3661 -0.3047 -0.0070
  421MOL0     H56802   5.512  -0.179   6.039 -3.5053  0.8500 -2.8874
  421MOL0     H56803   5.600  -0.345   6.217  2.9620 -0.0969 -1.9223
  421MOL0     H56804   5.545  -0.480   6.110 -4.3621  0.9973 -2.6352
  421MOL0     H56805   5.740  -0.259   6.037 -4.6201  0.8054 -0.3034
  421MOL0     H56806   5.682  -0.391   5.938  2.2282  4.0284 -1.3829
  421MOL0     H56807   5.783  -0.566   6.097 -0.7780 -0.4229 -0.1800
  421MOL0     H56808   5.837  -0.431   6.204 -0.4893  2.8509 -0.6548
  421MOL0     H56809   5.937  -0.452   5.929 -1.2742  1.3518  0.3323
  421MOL0     H56810   5.996  -0.349   6.052 -0.9087  0.6611 -5.3784
  421MOL0     H56811   5.998  -0.647   6.042  0.4237  0.8512 -1.5523
  421MOL0     H56812   6.020  -0.562   6.197  1.7583 -1.8330  0.2411
  421MOL0     H56813   6.222  -0.456   6.033 -1.6642  0.9485  1.7084
  421MOL0     H56814   6.230  -0.572   6.168 -1.9105  0.8425  1.3963
  421MOL0     H56815   5.204  -0.112   6.308 -0.4721 -1.9953  0.8147
  421MOL0     H56816   4.984  -0.032   6.381  0.6485  0.1074  0.4382
  421MOL0     H56817   4.620   0.049   6.459  0.6531  0.6145 -0.0425
  421MOL0     H56818   4.420   0.109   6.579  1.3641  4.2196 -0.2838
  421MOL0     H56819   2.373   0.339   6.628 -1.6181  0.8365 -0.0060
  421MOL0     H56820   2.193   0.369   6.781  0.6281  0.1808  0.0193
  421MOL0     H56821   2.092   0.153   7.242  0.6189  1.0787  2.4601
  421MOL0     H56822   1.943   0.109   7.427 -0.0634  2.6190  1.6990
  421MOL0     H56823   1.552   0.307   7.456  0.2856 -1.0245 -1.5802
  421MOL0     H56824   1.528   0.183   7.581  0.3172 -0.5292  0.5181
  421MOL0     H56825   1.525   0.008   7.400  2.1264  1.1730 -1.5194
  421MOL0     H56826   1.521   0.115   7.271  4.3291  1.2473  0.2532
  421MOL0     H56827   1.300   0.069   7.471 -0.4479  1.4741  1.1712
  421MOL0     H56828   1.292   0.041   7.303  0.2511 -1.1092  0.0757
  421MOL0     H56829   1.162   0.228   7.345 -1.4409  1.1318 -1.9626
  421MOL0     H56830   1.278   0.309   7.448 -1.5135 -1.4847  0.4240
  421MOL0     H56831   1.374   0.440   7.060 -1.9197 -0.7541 -0.1363
  421MOL0     H56832   1.640   0.330   7.260  0.4544 -0.2926  2.9425
  421MOL0     H56833   1.805   0.499   7.012  1.1243 -0.1527  4.5044
  421MOL0     H56834   1.758   0.355   6.918  1.5698 -0.4133 -0.1405
  421MOL0     H56835   1.653   0.418   7.036 -0.7530 -4.0589  4.7541
  422MOL0     O56836   5.900   9.243  10.571 -0.4448  1.0181  0.1430
  422MOL0     C56837   5.880   9.325  10.659 -0.6126 -0.8832  0.4557
  422MOL0     O56838   5.984   9.395  10.726  0.0992  0.7408  0.0991
  422MOL0     C56839   6.111   9.364  10.688 -0.3633  0.0468 -0.6408
  422MOL0     C56840   6.167   9.237  10.725 -0.0662  0.4160  0.1544
  422MOL0     C56841   6.303   9.213  10.688  0.4776 -0.3076 -0.0069
  422MOL0     C56842   6.383   9.321  10.634 -0.5203 -0.7373 -0.3014
  422MOL0     O56843   6.518   9.303  10.601  0.0309  0.1398 -0.9131
  422MOL0     C56844   6.594   9.212  10.678 -0.1453  1.0052 -0.3213
  422MOL0     C56845   6.738   9.263  10.690  0.2095  0.2558 -0.4992
  422MOL0     C56846   6.807   9.316  10.566  0.1013  0.3239 -0.4153
  422MOL0     C56847   6.954   9.318  10.567 -0.9982  0.0522 -0.1515
  422MOL0     C56848   7.022   9.326  10.426  0.2325  0.7548 -0.5346
  422MOL0     C56849   6.994   9.454  10.333 -0.2501 -0.0883 -0.2575
  422MOL0     C56850   7.026   9.587  10.404  0.2554  0.0211  0.4925
  422MOL0     C56851   7.011   9.714  10.322  0.4454  0.0504  0.6317
  422MOL0     N56852   7.093   9.728  10.204 -0.0734  0.9294  0.9679
  422MOL0     C56853   7.226   9.753  10.196 -0.6764 -0.2474 -0.3846
  422MOL0     C56854   7.262   9.733  10.067  0.2305 -0.0113 -0.1136
  422MOL0     C56855   7.383   9.739   9.981  0.1690 -0.1150 -0.6399
  422MOL0     C56856   7.454   9.595   9.966 -0.8954 -0.3323 -0.3618
  422MOL0     C56857   7.568   9.581   9.862 -0.1218  0.7280  0.4057
  422MOL0     C56858   7.654   9.703   9.855  0.0578  0.6203  0.0394
  422MOL0     O56859   7.722   9.717   9.974  0.2953  0.3352  0.0113
  422MOL0     C56860   7.841   9.782   9.975  0.6930 -0.6131 -0.3917
  422MOL0     C56861   7.923   9.749  10.086  0.6607 -0.0791  0.2469
  422MOL0     C56862   8.056   9.807  10.097 -0.1831  0.1668 -0.8510
  422MOL0     C56863   8.094   9.901  10.004 -0.1084  0.6255  0.4108
  422MOL0     C56864   8.229   9.963  10.015 -0.9382  0.0656 -0.1710
  422MOL0     O56865   8.254  10.087   9.956 -0.0075 -0.1081  0.6138
  422MOL0     C56866   8.382  10.120   9.912  0.3813 -0.3740  0.1048
  422MOL0     C56867   8.463  10.034   9.828  0.3590  0.2300 -0.0002
  422MOL0     C56868   8.595  10.078   9.798  1.6520 -0.1376 -0.8292
  422MOL0     C56869   8.643  10.201   9.847 -0.0866  0.2641  0.1835
  422MOL0     O56870   8.769  10.227   9.797 -0.2043 -0.4349  0.2158
  422MOL0     C56871   8.793  10.353   9.730  0.4481 -0.1889 -0.4839
  422MOL0     C56872   8.926  10.383   9.665  0.1031  0.6965  0.5279
  422MOL0     C56873   9.032  10.400   9.767  0.6948 -0.0911  0.3071
  422MOL0     C56874   9.169  10.439   9.703  1.1511 -0.3354  0.2441
  422MOL0     C56875   9.288  10.472   9.794  0.8001  0.1257  0.1668
  422MOL0     C56876   9.298  10.369   9.906  0.4313  0.5143 -0.9028
  422MOL0     C56877   9.343  10.232   9.866 -0.5858 -0.0096 -0.6737
  422MOL0     C56878   9.367  10.148   9.984  0.3831  1.4733 -0.4505
  422MOL0    Cl56879   9.527  10.187  10.051 -0.3258 -0.0156  0.8149
  422MOL0     C56880   8.566  10.279   9.928 -0.2934 -0.4357 -0.6759
  422MOL0     C56881   8.432  10.238   9.963 -0.2336 -0.4007  0.5778
  422MOL0     O56882   8.319   9.886  10.057  0.3274 -0.1985  0.0913
  422MOL0     C56883   8.008   9.935   9.897  0.0333 -0.0660 -0.0851
  422MOL0     C56884   7.880   9.875   9.882 -0.4559  0.2325  0.0102
  422MOL0     N56885   7.138   9.718  10.002  0.0962  0.3503 -0.5619
  422MOL0     N56886   7.040   9.703  10.080 -0.9217 -0.8284  1.0751
  422MOL0     C56887   6.322   9.443  10.610 -0.3743 -0.6212  0.2293
  422MOL0     C56888   6.183   9.459  10.632  0.0639 -0.4041  0.2540
  422MOL0     C56889   5.747   9.356  10.682  0.4176 -0.1333  0.2429
  422MOL0     C56890   5.720   9.484  10.717  1.1830 -0.2246  0.0845
  422MOL0     C56891   5.592   9.526  10.755  0.2897 -0.4260  0.7526
  422MOL0     C56892   5.485   9.440  10.742  0.5322 -0.4558  0.5443
  422MOL0     O56893   5.358   9.481  10.772 -0.2214  0.0730 -0.0094
  422MOL0     C56894   5.320   9.527  10.899  0.0970 -0.2363  1.3039
  422MOL0     C56895   5.168   9.507  10.937 -0.8422 -0.2224 -0.7065
  422MOL0     C56896   5.148   9.365  10.978 -0.4180 -0.7183  0.0128
  422MOL0     C56897   5.018   9.343  11.054 -0.1056  0.0620  0.2368
  422MOL0     C56898   4.903   9.348  10.968 -0.2003  0.3884 -0.0117
  422MOL0     C56899   4.808   9.347  10.890 -0.6734 -0.2771 -0.3683
  422MOL0     C56900   5.506   9.307  10.701 -0.6695  0.1266  0.5756
  422MOL0     C56901   5.639   9.261  10.673  0.0260  0.5276 -0.5454
  422MOL0     C56902   5.660   9.119  10.635  0.1649  0.6668  0.0555
  422MOL0     H56903   6.109   9.160  10.774 -0.0974 -0.4247 -1.1439
  422MOL0     H56904   6.331   9.115  10.724  0.2834  0.4814  2.4483
  422MOL0     H56905   6.557   9.204  10.781  1.3902  1.3852  0.2866
  422MOL0     H56906   6.599   9.112  10.634 -1.5535 -0.1074  1.8508
  422MOL0     H56907   6.796   9.176  10.722 -0.6679  0.2915  1.2883
  422MOL0     H56908   6.751   9.338  10.768 -0.0083 -0.6696  0.4411
  422MOL0     H56909   6.760   9.413  10.546  0.6577  1.1615  1.9486
  422MOL0     H56910   6.766   9.260  10.481 -1.9045  1.3486 -0.1854
  422MOL0     H56911   6.981   9.406  10.626  2.1152 -1.5184  0.9364
  422MOL0     H56912   6.991   9.229  10.618 -1.3026 -0.1043 -0.2023
  422MOL0     H56913   7.128   9.334  10.454 -0.2739 -0.3018  1.9573
  422MOL0     H56914   6.987   9.235  10.377 -1.5258  0.9815  0.2361
  422MOL0     H56915   7.060   9.446  10.246 -1.1916  0.5329 -1.0553
  422MOL0     H56916   6.895   9.446  10.286 -0.1609 -2.2804 -0.1612
  422MOL0     H56917   7.125   9.580  10.451  1.6736 -0.7059 -2.3565
  422MOL0     H56918   6.959   9.602  10.490 -1.0906 -1.2623 -0.2993
  422MOL0     H56919   6.909   9.717  10.282  1.6403 -2.5877 -3.1667
  422MOL0     H56920   7.023   9.798  10.391 -2.7397  0.8131  0.4139
  422MOL0     H56921   7.290   9.787  10.277 -0.4979 -0.1512 -0.5644
  422MOL0     H56922   7.362   9.798   9.891 -2.4526  0.2978  0.1618
  422MOL0     H56923   7.448   9.797  10.047 -1.4768 -2.2306  3.1340
  422MOL0     H56924   7.495   9.556  10.059  0.6083  1.4617 -0.2186
  422MOL0     H56925   7.374   9.526   9.936 -1.0082  0.4224 -1.8640
  422MOL0     H56926   7.526   9.569   9.762  0.9534  3.8982 -0.5307
  422MOL0     H56927   7.635   9.500   9.893 -0.5982 -0.4032 -1.3270
  422MOL0     H56928   7.590   9.788   9.829 -2.2316 -0.0150  3.0079
  422MOL0     H56929   7.724   9.683   9.774 -0.3127  1.2543 -0.4459
  422MOL0     H56930   7.890   9.676  10.160 -2.8576  2.0015  0.9741
  422MOL0     H56931   8.131   9.782  10.171  1.8576  0.4981 -2.7237
  422MOL0     H56932   8.432   9.934   9.803 -2.1873  0.9850 -0.1394
  422MOL0     H56933   8.669  10.017   9.749 -0.1131 -2.1917 -1.1231
  422MOL0     H56934   8.719  10.359   9.649  0.0127  2.1910  0.0121
  422MOL0     H56935   8.775  10.429   9.807  0.5535  0.3374 -0.9682
  422MOL0     H56936   8.952  10.305   9.593  2.1369 -0.7283  2.6381
  422MOL0     H56937   8.910  10.471   9.603 -0.2598 -1.4099 -2.5843
  422MOL0     H56938   9.010  10.486   9.831  2.5514 -1.4086  2.9248
  422MOL0     H56939   9.038  10.307   9.824 -0.5677 -0.7407 -0.5693
  422MOL0     H56940   9.145  10.518   9.632  1.2179 -1.3553 -0.9418
  422MOL0     H56941   9.193  10.345   9.653  1.4314 -0.4423  0.5721
  422MOL0     H56942   9.290  10.570   9.842 -2.9038  0.2200  0.4599
  422MOL0     H56943   9.370  10.461   9.722 -1.2134 -1.4378 -2.0611
  422MOL0     H56944   9.369  10.407   9.981 -0.3594  1.8666 -0.8244
  422MOL0     H56945   9.203  10.356   9.957  0.5572  0.1465 -0.7560
  422MOL0     H56946   9.438  10.237   9.811  0.4315 -2.1351  0.7637
  422MOL0     H56947   9.261  10.195   9.804 -1.7525  0.9602  0.2678
  422MOL0     H56948   9.282  10.170  10.050  1.6997  4.1676  0.4880
  422MOL0     H56949   9.359  10.041   9.961  1.7048  1.1694  0.4224
  422MOL0     H56950   8.615  10.368   9.967 -1.8699  1.9694 -3.7088
  422MOL0     H56951   8.364  10.291  10.029 -1.1748  0.5034 -1.0343
  422MOL0     H56952   8.023  10.022   9.835 -0.1515  1.0074  1.3312
  422MOL0     H56953   7.807   9.899   9.805  1.6707  0.0533 -2.1738
  422MOL0     H56954   6.379   9.531  10.581 -2.1424  0.9131  1.1127
  422MOL0     H56955   6.149   9.561  10.622  2.3086  0.6457  2.2678
  422MOL0     H56956   5.799   9.558  10.721 -0.3212  1.4148  0.9609
  422MOL0     H56957   5.585   9.627  10.795  0.3450  0.8231 -2.1510
  422MOL0     H56958   5.335   9.635  10.912 -0.6149 -0.0541  0.6383
  422MOL0     H56959   5.393   9.483  10.969  0.1998 -1.3750  0.5117
  422MOL0     H56960   5.107   9.541  10.852 -2.3712 -2.3332 -0.5184
  422MOL0     H56961   5.157   9.576  11.021  1.8602 -0.4853 -0.0298
  422MOL0     H56962   5.226   9.332  11.048  0.2471 -2.0528 -1.2987
  422MOL0     H56963   5.158   9.304  10.888  0.2498  1.2612 -1.3300
  422MOL0     H56964   5.011   9.246  11.105 -1.3867 -0.6764 -1.2485
  422MOL0     H56965   5.010   9.409  11.141 -1.2650 -1.1567  1.1160
  422MOL0     H56966   4.734   9.326  10.815  0.2030 -4.8466 -0.2313
  422MOL0     H56967   5.423   9.239  10.685 -1.7566  0.2474  4.5827
  422MOL0     H56968   5.572   9.057  10.616  1.7920 -2.4061  1.7002
  422MOL0     H56969   5.687   9.124  10.529  1.7931 -0.6904  0.3646
  422MOL0     H56970   5.727   9.057  10.695  0.9824 -0.6923 -2.1218
  423MOL0     O56971   8.065   6.161   1.619  0.0707 -0.4168 -0.3717
  423MOL0     C56972   8.014   6.119   1.721  0.9660  0.6773 -0.2481
  423MOL0     O56973   8.072   6.034   1.805 -0.0011 -0.0145  0.1978
  423MOL0     C56974   8.210   6.013   1.816  0.2276  0.2281 -0.2374
  423MOL0     C56975   8.312   6.051   1.728 -0.0553 -0.4141 -0.6224
  423MOL0     C56976   8.450   6.025   1.753 -0.4227  0.5149 -1.0341
  423MOL0     C56977   8.491   5.964   1.876 -0.4206  0.4435  0.0150
  423MOL0     O56978   8.613   5.913   1.909 -0.3102  0.5635  0.5244
  423MOL0     C56979   8.718   6.019   1.933 -0.0191 -0.3699  0.0805
  423MOL0     C56980   8.848   5.967   1.989  1.1294 -0.0055  1.0117
  423MOL0     C56981   8.955   6.073   1.996 -0.5769  0.2632 -0.5786
  423MOL0     C56982   9.088   6.000   2.022  0.1544  0.3123 -0.4445
  423MOL0     C56983   9.204   6.106   2.039 -0.1301 -0.0375 -0.2191
  423MOL0     C56984   9.340   6.042   2.076  0.8748 -0.1002  0.3734
  423MOL0     C56985   9.396   5.980   1.952  0.1114  0.0305  0.4647
  423MOL0     C56986   9.529   5.902   1.977 -0.3955  0.0251  0.1732
  423MOL0     N56987   9.643   5.979   2.021 -0.0835  0.7511 -0.6499
  423MOL0     C56988   9.663   6.108   1.989 -0.0706  0.6071 -0.1145
  423MOL0     C56989   9.762   6.148   2.071  0.3735 -0.3741 -1.3407
  423MOL0     C56990   9.832   6.273   2.068  0.2933  0.6958  0.2833
  423MOL0     C56991   9.976   6.267   2.006 -0.5071 -0.1237 -0.0731
  423MOL0     C56992  10.045   6.401   2.016 -0.1294  0.1086 -0.5573
  423MOL0     C56993  10.192   6.422   1.971  0.2626  0.3099  0.9432
  423MOL0     O56994  10.194   6.357   1.837  0.1385 -0.1590 -0.3359
  423MOL0     C56995  10.313   6.369   1.768 -0.1929 -0.2365 -0.3212
  423MOL0     C56996  10.296   6.312   1.643  0.8478 -0.2658  0.3027
  423MOL0     C56997  10.404   6.318   1.551  0.2775 -0.2743  0.5816
  423MOL0     C56998  10.521   6.388   1.585 -0.8898  0.0631  0.3216
  423MOL0     C56999  10.626   6.407   1.480  0.2744  0.3837  0.2462
  423MOL0     O57000  10.739   6.460   1.519 -0.0129  0.3878  0.1275
  423MOL0     C57001  10.839   6.485   1.426 -0.8262 -0.6365 -0.1919
  423MOL0     C57002  10.813   6.548   1.302  0.5699  0.1535  0.4169
  423MOL0     C57003  10.909   6.576   1.212  0.4388  0.3467 -0.3635
  423MOL0     C57004  11.047   6.533   1.233  0.6084  0.0122  0.6758
  423MOL0     O57005  11.137   6.557   1.135  0.6737  0.1779  0.2158
  423MOL0     C57006  11.272   6.504   1.140 -0.2531 -0.1302 -0.3453
  423MOL0     C57007  11.334   6.495   1.010  1.4443  0.2917  0.7949
  423MOL0     C57008  11.462   6.418   1.014  0.0750  0.1583 -0.5207
  423MOL0     C57009  11.539   6.417   0.874  0.1575 -0.1597 -0.0886
  423MOL0     C57010  11.675   6.353   0.890  0.4862  0.5765  0.4588
  423MOL0     C57011  11.769   6.387   0.775 -0.6931 -0.5232  0.7119
  423MOL0     C57012  11.906   6.325   0.790  0.3451  0.3084  0.2661
  423MOL0     C57013  11.992   6.380   0.676  0.6177 -0.5939  0.6916
  423MOL0    Cl57014  12.160   6.342   0.671  0.0697  0.0420  0.0763
  423MOL0     C57015  11.080   6.496   1.363  0.3077 -0.0938 -0.0763
  423MOL0     C57016  10.977   6.465   1.454 -1.0239 -0.1822  0.1313
  423MOL0     O57017  10.595   6.365   1.368 -0.3532  0.2445 -0.0053
  423MOL0     C57018  10.532   6.452   1.713 -0.0723  0.2467  0.9495
  423MOL0     C57019  10.436   6.432   1.812 -0.6145  0.4183  0.0598
  423MOL0     N57020   9.786   6.051   2.164 -0.0993  0.2010  0.7115
  423MOL0     N57021   9.728   5.941   2.131  0.0578 -0.4422  0.4875
  423MOL0     C57022   8.385   5.944   1.963 -0.0012 -0.0959 -0.7877
  423MOL0     C57023   8.250   5.971   1.939  0.7466  0.3337 -0.3292
  423MOL0     C57024   7.876   6.169   1.760  0.2987 -0.9821  0.0618
  423MOL0     C57025   7.843   6.189   1.893  1.0523 -1.0011  0.1097
  423MOL0     C57026   7.717   6.245   1.931 -0.8804  0.3119  0.9105
  423MOL0     C57027   7.618   6.261   1.836 -0.9206 -0.4884 -0.6032
  423MOL0     O57028   7.503   6.316   1.893  0.6797  0.2096  0.8591
  423MOL0     C57029   7.439   6.418   1.822  0.6810  0.2979  0.0523
  423MOL0     C57030   7.330   6.496   1.886  0.1416 -0.4283  0.0938
  423MOL0     C57031   7.264   6.593   1.784 -0.3750  0.6180  0.1637
  423MOL0     C57032   7.124   6.618   1.834 -0.9278  0.4525  0.5939
  423MOL0     C57033   7.039   6.692   1.738 -0.7729  0.9218  0.3089
  423MOL0     C57034   6.970   6.745   1.654 -0.5736 -0.5277  0.1258
  423MOL0     C57035   7.655   6.249   1.699  0.5086  0.0070 -0.5524
  423MOL0     C57036   7.779   6.191   1.663  0.2521 -0.4058  1.0802
  423MOL0     C57037   7.796   6.167   1.508  0.2741  0.1322 -0.0197
  423MOL0     H57038   8.294   6.102   1.634  0.2585  1.8365  0.4607
  423MOL0     H57039   8.512   6.060   1.670  0.5530 -2.4825 -1.6937
  423MOL0     H57040   8.749   6.075   1.845  0.3460 -0.1413  0.3490
  423MOL0     H57041   8.674   6.096   1.997 -1.1007  0.7152 -1.8732
  423MOL0     H57042   8.877   5.881   1.928  0.6074 -0.0654  0.8366
  423MOL0     H57043   8.812   5.939   2.088  1.3846 -1.5686  0.6847
  423MOL0     H57044   8.927   6.143   2.075 -1.5504 -1.1728  0.3807
  423MOL0     H57045   8.954   6.129   1.902 -1.6983 -0.6630 -1.1458
  423MOL0     H57046   9.089   5.944   2.116 -0.3250 -0.5986 -0.9653
  423MOL0     H57047   9.111   5.937   1.936  6.1587  0.6296  0.4915
  423MOL0     H57048   9.208   6.166   1.948 -0.1710  1.5124  0.7781
  423MOL0     H57049   9.175   6.164   2.127 -2.1596  1.2076 -1.6343
  423MOL0     H57050   9.405   6.124   2.107  3.9794 -2.4239  0.5765
  423MOL0     H57051   9.342   5.967   2.156  1.7586 -1.6291 -1.0163
  423MOL0     H57052   9.414   6.057   1.876  0.8633  0.1942  0.8027
  423MOL0     H57053   9.324   5.910   1.909 -1.0285  0.7486  1.1563
  423MOL0     H57054   9.508   5.823   2.048 -1.4535  1.4359  1.4997
  423MOL0     H57055   9.553   5.852   1.882 -0.1682  0.7123 -0.1451
  423MOL0     H57056   9.626   6.164   1.903  0.7296  0.8725 -0.2921
  423MOL0     H57057   9.776   6.359   2.031  0.4239  2.3469  3.5741
  423MOL0     H57058   9.837   6.302   2.173  1.2629 -1.4223  0.8732
  423MOL0     H57059  10.044   6.202   2.062  2.4082  1.8687 -1.1040
  423MOL0     H57060   9.970   6.228   1.904  2.2153 -1.7187  0.3014
  423MOL0     H57061  10.039   6.444   2.116 -0.1358  1.5143 -1.1459
  423MOL0     H57062   9.996   6.473   1.951  0.1103  0.4859 -0.3255
  423MOL0     H57063  10.265   6.382   2.042  1.2500  2.8733  1.4781
  423MOL0     H57064  10.223   6.526   1.954 -0.4203  0.4640  0.5898
  423MOL0     H57065  10.199   6.272   1.615  1.9337 -1.7762 -1.5303
  423MOL0     H57066  10.384   6.281   1.451 -1.4840  0.0395  0.7925
  423MOL0     H57067  10.710   6.579   1.288  0.9103  0.8904 -0.6345
  423MOL0     H57068  10.884   6.622   1.118 -1.4078  2.2331  0.9518
  423MOL0     H57069  11.328   6.576   1.200 -0.8314  0.7421 -0.8252
  423MOL0     H57070  11.269   6.409   1.194 -3.3756 -0.5727 -1.1139
  423MOL0     H57071  11.257   6.454   0.944  0.0108  1.8642  1.4122
  423MOL0     H57072  11.364   6.594   0.973 -0.7582  0.7434  0.0321
  423MOL0     H57073  11.525   6.469   1.087  0.1501  0.9788 -1.1416
  423MOL0     H57074  11.444   6.321   1.063  0.8202  0.9558  1.4301
  423MOL0     H57075  11.543   6.523   0.847 -0.9365  0.0244  0.4286
  423MOL0     H57076  11.476   6.364   0.803 -4.5344  3.2383  1.0748
  423MOL0     H57077  11.665   6.244   0.889  0.2960  0.4740  3.6534
  423MOL0     H57078  11.705   6.384   0.991  3.3983  0.5251 -0.2862
  423MOL0     H57079  11.719   6.339   0.691  2.2494 -3.2301  0.3320
  423MOL0     H57080  11.771   6.496   0.765  0.8467 -0.5732  0.2127
  423MOL0     H57081  11.902   6.216   0.790 -2.1270  0.3496  0.6276
  423MOL0     H57082  11.938   6.355   0.890  2.0054  1.6930 -0.6182
  423MOL0     H57083  11.951   6.363   0.576  2.6393 -2.1566  0.0583
  423MOL0     H57084  11.998   6.489   0.684  0.1597 -0.4476 -0.6650
  423MOL0     H57085  11.183   6.493   1.399  0.0490 -2.1712  0.6660
  423MOL0     H57086  11.010   6.427   1.550  2.5258 -0.2977 -0.9676
  423MOL0     H57087  10.598   6.531   1.747  0.3509 -0.1059  0.9622
  423MOL0     H57088  10.449   6.466   1.914  1.4676  0.2148 -0.0960
  423MOL0     H57089   8.401   5.899   2.061  0.7317 -0.0397 -0.8751
  423MOL0     H57090   8.172   5.960   2.014  0.9943 -1.8515 -0.3231
  423MOL0     H57091   7.893   6.148   1.981 -0.6305  1.1180  2.2018
  423MOL0     H57092   7.692   6.254   2.037 -0.0656  0.8283  1.0683
  423MOL0     H57093   7.402   6.382   1.726  3.1141  3.7401 -2.4239
  423MOL0     H57094   7.517   6.489   1.791  2.3190 -1.0411  0.9138
  423MOL0     H57095   7.383   6.547   1.966  1.7043 -0.1519 -1.0695
  423MOL0     H57096   7.252   6.437   1.935 -1.0451  1.0829  0.1159
  423MOL0     H57097   7.265   6.538   1.689  2.9052  0.2478  0.3068
  423MOL0     H57098   7.314   6.690   1.779 -0.2952  0.6200  0.9312
  423MOL0     H57099   7.073   6.521   1.838  1.6770 -1.2111 -2.3058
  423MOL0     H57100   7.135   6.660   1.935 -1.9977  0.8609  0.5501
  423MOL0     H57101   6.908   6.772   1.571  0.7231 -4.2097 -2.3087
  423MOL0     H57102   7.575   6.264   1.628 -0.6860 -0.8157  0.5599
  423MOL0     H57103   7.704   6.203   1.462 -1.5952 -2.0325  1.8019
  423MOL0     H57104   7.875   6.222   1.456  0.4691 -1.2582 -1.2569
  423MOL0     H57105   7.814   6.062   1.486  0.7350 -0.1214  1.4397
  424MOL0     O57106   4.579   0.885   3.563  0.1451 -0.0422  0.3717
  424MOL0     C57107   4.548   0.939   3.674  0.2297 -0.9902  0.1395
  424MOL0     O57108   4.624   0.935   3.784 -0.3198 -0.0739  0.0410
  424MOL0     C57109   4.749   0.876   3.790  0.2804 -0.0493 -0.1510
  424MOL0     C57110   4.825   0.929   3.890  0.8254  0.1213  0.9808
  424MOL0     C57111   4.957   0.879   3.914 -0.0118  1.3767  0.0063
  424MOL0     C57112   5.010   0.776   3.835 -0.7876  0.0253  0.5597
  424MOL0     O57113   5.137   0.744   3.852  0.4319  0.1131  0.0300
  424MOL0     C57114   5.166   0.602   3.858  0.0263 -0.8073  1.0817
  424MOL0     C57115   5.261   0.572   3.743 -0.0606 -0.4600 -0.1959
  424MOL0     C57116   5.275   0.426   3.720  0.1188  0.3312 -0.1749
  424MOL0     C57117   5.380   0.396   3.614 -0.0948 -0.1613 -0.1832
  424MOL0     C57118   5.422   0.246   3.598 -0.0734 -0.2448  0.3696
  424MOL0     C57119   5.298   0.156   3.549 -0.9758 -0.2976  0.0624
  424MOL0     C57120   5.332   0.051   3.451  0.5809  0.4566 -0.2059
  424MOL0     C57121   5.209  -0.043   3.423  0.4222  0.4479  0.3458
  424MOL0     N57122   5.182  -0.140   3.526  0.0151 -0.2470 -0.2373
  424MOL0     C57123   5.238  -0.262   3.533  0.1549 -0.0980  0.5147
  424MOL0     C57124   5.207  -0.315   3.659 -0.6718 -0.2185 -0.2270
  424MOL0     C57125   5.282  -0.429   3.724  0.8439 -0.7617 -0.7949
  424MOL0     C57126   5.201  -0.523   3.811  0.5988 -0.5672  0.8254
  424MOL0     C57127   5.235  -0.493   3.960  0.0645  0.0931  0.8528
  424MOL0     C57128   5.104  -0.525   4.032  0.0438  0.1567 -0.9499
  424MOL0     O57129   5.072  -0.672   4.028 -0.2445 -1.1570 -0.2615
  424MOL0     C57130   4.940  -0.720   4.030  0.8383  0.1083  0.3583
  424MOL0     C57131   4.918  -0.853   4.074 -0.0936 -0.2358 -0.5968
  424MOL0     C57132   4.798  -0.909   4.058  0.1662 -0.1857  0.6400
  424MOL0     C57133   4.693  -0.850   3.993  0.8297 -0.5364  0.5460
  424MOL0     C57134   4.555  -0.905   3.972  0.1706  0.1195 -0.4062
  424MOL0     O57135   4.541  -1.024   4.042  0.1850 -0.1647 -0.2703
  424MOL0     C57136   4.408  -1.071   4.042  0.0334 -0.5438  0.1436
  424MOL0     C57137   4.301  -0.992   4.088 -0.6691  0.3462  0.3134
  424MOL0     C57138   4.175  -1.053   4.090  0.6435 -0.2990 -0.3110
  424MOL0     C57139   4.153  -1.183   4.031 -0.1611  0.1165  0.2981
  424MOL0     O57140   4.031  -1.242   4.021 -0.5411 -0.0129 -0.4599
  424MOL0     C57141   3.935  -1.203   4.126  1.0187  1.1067 -0.2889
  424MOL0     C57142   3.834  -1.126   4.053  0.0623 -0.7706  0.0338
  424MOL0     C57143   3.699  -1.104   4.126 -0.2121 -0.4245  0.3093
  424MOL0     C57144   3.593  -1.014   4.063  0.3388 -0.6050  0.6405
  424MOL0     C57145   3.461  -1.015   4.141  0.0883  0.0299 -0.8492
  424MOL0     C57146   3.370  -0.913   4.065 -0.0850  0.7696 -0.0426
  424MOL0     C57147   3.217  -0.938   4.108 -0.6560 -0.2849  0.0535
  424MOL0     C57148   3.110  -0.840   4.044 -0.1476  0.3202  0.2422
  424MOL0    Cl57149   2.953  -0.923   3.992 -0.1492  0.1771  0.0592
  424MOL0     C57150   4.261  -1.253   3.984  0.3399 -0.3376 -0.4783
  424MOL0     C57151   4.385  -1.202   3.991 -0.9460  0.7650 -0.0347
  424MOL0     O57152   4.469  -0.843   3.909 -0.3686 -0.5084  0.0143
  424MOL0     C57153   4.719  -0.722   3.944 -0.6676 -0.2585  0.5778
  424MOL0     C57154   4.840  -0.653   3.964  0.8157  0.1758 -1.2408
  424MOL0     N57155   5.122  -0.222   3.721 -0.1089 -0.3834 -0.1422
  424MOL0     N57156   5.112  -0.116   3.641 -0.0472 -0.6196  0.0078
  424MOL0     C57157   4.930   0.723   3.736  0.4222 -0.1709 -0.5234
  424MOL0     C57158   4.798   0.767   3.711 -0.7310 -0.0729  0.9197
  424MOL0     C57159   4.432   1.035   3.676 -0.5567  0.4915 -0.1379
  424MOL0     C57160   4.448   1.137   3.774 -0.3474 -0.5958  1.0252
  424MOL0     C57161   4.353   1.245   3.789 -0.5526 -0.6313  0.7693
  424MOL0     C57162   4.249   1.257   3.697  0.5632 -0.6813  0.5186
  424MOL0     O57163   4.152   1.357   3.692  1.2936  0.3569  0.0830
  424MOL0     C57164   4.150   1.443   3.806 -0.3862 -0.8428  0.2855
  424MOL0     C57165   4.030   1.539   3.784 -0.0753  0.9460 -0.2533
  424MOL0     C57166   4.033   1.665   3.878 -0.2480 -0.6725 -0.2984
  424MOL0     C57167   3.903   1.745   3.863  0.5856 -0.0089 -0.5441
  424MOL0     C57168   3.889   1.804   3.725 -0.5050  0.9717 -0.1738
  424MOL0     C57169   3.880   1.843   3.613 -0.1084  0.0728 -0.2287
  424MOL0     C57170   4.233   1.156   3.602  0.9289  0.5285 -1.1698
  424MOL0     C57171   4.325   1.050   3.590  0.3630  0.2089  0.6150
  424MOL0     C57172   4.301   0.959   3.468 -0.1528 -0.4133 -0.4452
  424MOL0     H57173   4.781   1.000   3.959 -1.7874  2.1143 -2.4070
  424MOL0     H57174   5.006   0.914   4.004 -1.2199 -3.4898  2.9172
  424MOL0     H57175   5.208   0.565   3.952  2.1756 -2.7510 -0.5454
  424MOL0     H57176   5.070   0.549   3.853 -0.8377  0.8144 -1.7136
  424MOL0     H57177   5.359   0.607   3.774 -0.5219  0.7697 -0.0815
  424MOL0     H57178   5.223   0.619   3.652 -1.0951 -0.8402  0.0167
  424MOL0     H57179   5.174   0.387   3.702 -0.4732  0.1086  2.9453
  424MOL0     H57180   5.306   0.376   3.812  0.5063  2.6433  1.0387
  424MOL0     H57181   5.344   0.442   3.522 -2.6005 -0.7607  0.4339
  424MOL0     H57182   5.468   0.453   3.645  0.1267 -1.8034  2.4734
  424MOL0     H57183   5.503   0.220   3.529 -1.1170 -2.4411 -0.1375
  424MOL0     H57184   5.468   0.217   3.693  2.0115  1.8691  0.0806
  424MOL0     H57185   5.244   0.113   3.633 -1.7729 -0.7560 -0.6653
  424MOL0     H57186   5.233   0.232   3.504  2.8000  3.3305  0.1235
  424MOL0     H57187   5.413  -0.005   3.499  1.4961  1.5449 -0.4331
  424MOL0     H57188   5.373   0.104   3.365  0.4021 -0.7914 -1.0931
  424MOL0     H57189   5.115   0.013   3.417 -1.0377 -1.9571 -0.3689
  424MOL0     H57190   5.217  -0.100   3.330  2.9031  1.5730 -0.2091
  424MOL0     H57191   5.314  -0.304   3.468  1.1821  2.6171 -0.1564
  424MOL0     H57192   5.324  -0.487   3.641  3.0008 -1.5632  0.7451
  424MOL0     H57193   5.368  -0.391   3.780  0.1364  1.9734 -1.3856
  424MOL0     H57194   5.096  -0.513   3.782  0.1209  2.1855  3.0816
  424MOL0     H57195   5.228  -0.625   3.782 -1.4537 -0.4393 -1.9147
  424MOL0     H57196   5.270  -0.393   3.987 -0.2165  0.4129  0.0650
  424MOL0     H57197   5.314  -0.560   3.994  0.7428  1.2887  1.7258
  424MOL0     H57198   5.016  -0.473   3.993 -1.8200 -2.6369 -0.7469
  424MOL0     H57199   5.106  -0.496   4.137 -1.8831 -1.3454 -0.4423
  424MOL0     H57200   5.003  -0.909   4.113  1.4333  2.3532  0.0396
  424MOL0     H57201   4.779  -1.009   4.095 -2.7093  0.4702  1.1659
  424MOL0     H57202   4.325  -0.893   4.124  3.6269  0.0429 -1.0298
  424MOL0     H57203   4.099  -0.991   4.138  2.9609  1.1583  1.6943
  424MOL0     H57204   3.891  -1.295   4.165 -0.5215  1.5755 -0.8744
  424MOL0     H57205   3.975  -1.150   4.214 -1.7998  2.0720  0.5211
  424MOL0     H57206   3.873  -1.030   4.018 -2.1347  0.4240  0.7212
  424MOL0     H57207   3.806  -1.175   3.959 -2.8379 -0.8513  0.8661
  424MOL0     H57208   3.650  -1.199   4.148 -1.8407  0.0529 -1.0345
  424MOL0     H57209   3.711  -1.058   4.225 -0.2858 -1.7111  0.9345
  424MOL0     H57210   3.577  -1.046   3.960  2.1007 -1.5377  0.6001
  424MOL0     H57211   3.631  -0.911   4.064 -1.1263 -0.0023 -1.0922
  424MOL0     H57212   3.479  -0.984   4.245 -0.4356  0.6788 -0.9429
  424MOL0     H57213   3.417  -1.115   4.141  0.3149 -0.1200  1.3030
  424MOL0     H57214   3.396  -0.807   4.067  3.7626  0.0431 -1.5830
  424MOL0     H57215   3.374  -0.938   3.958  3.4296  0.2462  0.1050
  424MOL0     H57216   3.206  -0.942   4.216 -2.4273 -2.6811 -0.1217
  424MOL0     H57217   3.189  -1.041   4.080 -0.8076 -0.4952  0.9514
  424MOL0     H57218   3.086  -0.763   4.118  0.2493  0.2114  0.4883
  424MOL0     H57219   3.146  -0.803   3.948 -1.8866 -1.1700 -1.0504
  424MOL0     H57220   4.238  -1.353   3.947  1.3258 -0.6265 -0.3405
  424MOL0     H57221   4.458  -1.272   3.953 -0.3572  1.2800  0.1116
  424MOL0     H57222   4.646  -0.667   3.885  0.8507 -1.2278 -2.4079
  424MOL0     H57223   4.840  -0.552   3.924 -2.1476  1.5898  1.8013
  424MOL0     H57224   4.972   0.643   3.676  0.3246 -1.0842  0.6092
  424MOL0     H57225   4.740   0.735   3.625 -1.8366 -1.9409  2.2844
  424MOL0     H57226   4.541   1.147   3.829 -0.6801  2.6996  1.1698
  424MOL0     H57227   4.379   1.313   3.869  0.1434 -0.4661  0.4111
  424MOL0     H57228   4.234   1.512   3.809 -1.2856  0.3087 -0.4123
  424MOL0     H57229   4.143   1.387   3.900  0.1627 -2.1687 -0.4353
  424MOL0     H57230   3.946   1.475   3.811  1.1997 -0.2906  0.9237
  424MOL0     H57231   4.021   1.567   3.678  1.8270  0.2705 -0.6350
  424MOL0     H57232   4.117   1.732   3.855 -0.4996 -0.2777 -0.0779
  424MOL0     H57233   4.046   1.633   3.982  3.3488 -2.3349 -1.1189
  424MOL0     H57234   3.820   1.678   3.886  0.8067  1.1263  5.3502
  424MOL0     H57235   3.897   1.821   3.942 -3.8241  1.3796 -1.9237
  424MOL0     H57236   3.865   1.875   3.512  0.9969  0.1960 -0.3590
  424MOL0     H57237   4.154   1.150   3.528  1.0147 -2.1461 -1.1487
  424MOL0     H57238   4.201   0.979   3.429 -0.3694  1.5469  0.9637
  424MOL0     H57239   4.376   0.982   3.392  0.6594  0.1909  0.5109
  424MOL0     H57240   4.300   0.853   3.495 -0.0993 -0.6836 -1.4979
  425MOL0     O57241  10.759   8.716   1.929  0.8509  0.6066 -0.4550
  425MOL0     C57242  10.697   8.749   1.828 -0.1205  0.0839 -0.4909
  425MOL0     O57243  10.740   8.840   1.732  0.2535 -0.7247  0.9086
  425MOL0     C57244  10.847   8.930   1.762  0.4594  0.2918 -0.1691
  425MOL0     C57245  10.919   8.984   1.649 -0.9543 -0.0196 -0.7139
  425MOL0     C57246  11.016   9.086   1.663  0.0852 -0.0305 -0.1798
  425MOL0     C57247  11.067   9.122   1.785 -1.7478  0.0341  0.0241
  425MOL0     O57248  11.173   9.208   1.807 -0.8692  1.2036  0.7833
  425MOL0     C57249  11.245   9.253   1.690  0.3193 -0.3656 -0.1491
  425MOL0     C57250  11.317   9.386   1.719 -0.9090  0.9565  0.3873
  425MOL0     C57251  11.436   9.373   1.815  0.2107  0.3027  0.1074
  425MOL0     C57252  11.535   9.495   1.808 -0.0868  0.3032 -0.5282
  425MOL0     C57253  11.650   9.478   1.913 -1.0936 -0.6342  0.7227
  425MOL0     C57254  11.756   9.592   1.915  0.2437 -0.6599  0.0804
  425MOL0     C57255  11.838   9.595   2.050 -0.5674  0.1103 -0.5164
  425MOL0     C57256  11.941   9.490   2.059 -0.3997  0.2309 -0.5974
  425MOL0     N57257  12.007   9.498   2.194 -0.8897 -0.3714  0.2330
  425MOL0     C57258  11.980   9.419   2.300 -0.1406 -0.3362  0.0485
  425MOL0     C57259  12.080   9.446   2.397 -0.2530 -0.3407  0.0675
  425MOL0     C57260  12.097   9.374   2.528 -0.1980 -0.2150  0.7537
  425MOL0     C57261  12.202   9.263   2.507  0.3219 -0.0487  0.4212
  425MOL0     C57262  12.153   9.141   2.426 -0.3826 -0.0722 -0.4521
  425MOL0     C57263  12.251   9.029   2.417  0.4925  0.0476 -0.6329
  425MOL0     O57264  12.267   8.976   2.548  0.1345  0.1512 -0.0717
  425MOL0     C57265  12.400   8.952   2.572  0.1339 -0.0052 -0.7713
  425MOL0     C57266  12.489   8.899   2.486  0.4248  0.4671 -0.6097
  425MOL0     C57267  12.618   8.869   2.525 -0.1612 -0.1238 -0.0938
  425MOL0     C57268  12.672   8.916   2.638 -0.4803 -0.4129  0.2914
  425MOL0     C57269  12.819   8.914   2.674 -0.0454  0.9645  0.3741
  425MOL0     O57270  12.852   8.942   2.801  0.4438 -0.2712  0.2435
  425MOL0     C57271  12.980   8.943   2.848  0.0131 -1.2357  0.9975
  425MOL0     C57272  12.993   9.014   2.973  0.0588  0.0880 -0.2690
  425MOL0     C57273  13.116   9.007   3.042 -0.1202 -0.2871  0.0223
  425MOL0     C57274  13.221   8.924   2.994 -0.5886 -0.8726  0.3038
  425MOL0     O57275  13.346   8.930   3.067  0.5590 -0.1826  0.7499
  425MOL0     C57276  13.454   8.847   3.011 -0.0649 -0.5449  0.1651
  425MOL0     C57277  13.576   8.877   3.102 -1.6564  0.9490  1.0052
  425MOL0     C57278  13.694   8.789   3.056 -0.8311  0.7188  0.2825
  425MOL0     C57279  13.765   8.827   2.918 -0.4295  0.3389  0.3668
  425MOL0     C57280  13.819   8.964   2.900 -0.2951 -0.1250 -0.3745
  425MOL0     C57281  13.903   8.986   2.772 -0.9256 -0.1928  0.8287
  425MOL0     C57282  13.978   9.120   2.769  0.1356 -0.1905  0.5230
  425MOL0     C57283  14.060   9.130   2.639 -0.8262 -0.1030 -0.5630
  425MOL0    Cl57284  14.174   8.992   2.633 -0.5156  0.2531 -0.0748
  425MOL0     C57285  13.205   8.863   2.870  0.6219  0.8794  0.7368
  425MOL0     C57286  13.092   8.873   2.796 -0.1924  0.1087  0.3939
  425MOL0     O57287  12.902   8.897   2.583 -0.1134 -0.4422  0.6079
  425MOL0     C57288  12.589   8.973   2.730 -0.1859  0.3540  0.6766
  425MOL0     C57289  12.458   8.994   2.697  0.0399 -0.4900 -0.3298
  425MOL0     N57290  12.163   9.546   2.350 -0.8410 -0.7751  1.4707
  425MOL0     N57291  12.123   9.562   2.227  0.1335 -0.4643 -0.4697
  425MOL0     C57292  10.994   9.072   1.894 -0.6932  0.1917 -0.5272
  425MOL0     C57293  10.893   8.979   1.885 -0.5447  0.9202 -0.0590
  425MOL0     C57294  10.561   8.699   1.829  0.1599 -0.1231  0.3288
  425MOL0     C57295  10.464   8.796   1.782 -0.8337 -0.8687 -0.3364
  425MOL0     C57296  10.331   8.774   1.793 -0.2396 -0.7668  0.0871
  425MOL0     C57297  10.289   8.650   1.846  0.5249 -0.5196  0.2273
  425MOL0     O57298  10.161   8.615   1.875  0.5674  0.4429 -0.7322
  425MOL0     C57299  10.058   8.687   1.797 -0.4616  0.1323 -0.3783
  425MOL0     C57300   9.933   8.604   1.793 -0.3577 -0.4524  0.0395
  425MOL0     C57301   9.815   8.684   1.718 -0.2150 -0.3113  1.5073
  425MOL0     C57302   9.683   8.623   1.759 -0.6502 -0.7986 -0.6024
  425MOL0     C57303   9.662   8.487   1.706  0.3174  0.0630 -0.0014
  425MOL0     C57304   9.640   8.387   1.636  0.3973 -0.2140 -0.8481
  425MOL0     C57305  10.389   8.552   1.883 -0.3055  0.5727 -0.6037
  425MOL0     C57306  10.525   8.573   1.860 -0.4249  0.0363 -0.2182
  425MOL0     C57307  10.622   8.463   1.885  0.0828 -0.6026 -0.1587
  425MOL0     H57308  10.884   8.952   1.552 -0.4100 -1.0712 -0.5757
  425MOL0     H57309  11.046   9.115   1.563 -3.8789  0.0651 -1.5212
  425MOL0     H57310  11.326   9.182   1.670 -1.3941 -2.3235 -0.4700
  425MOL0     H57311  11.179   9.264   1.604 -1.5659 -0.7887  1.1696
  425MOL0     H57312  11.239   9.453   1.755 -2.8044 -0.9413  0.0349
  425MOL0     H57313  11.356   9.434   1.629  2.8198  1.0417  1.8399
  425MOL0     H57314  11.489   9.278   1.804 -1.7403 -1.3533  3.4786
  425MOL0     H57315  11.392   9.363   1.915  1.3585  1.4670  0.7489
  425MOL0     H57316  11.586   9.492   1.711  3.1633 -2.7049  1.0520
  425MOL0     H57317  11.481   9.588   1.827 -1.0333 -0.1808 -0.8074
  425MOL0     H57318  11.609   9.474   2.014 -0.3757 -1.1606  1.0021
  425MOL0     H57319  11.700   9.385   1.882 -0.0226  0.2191 -0.2078
  425MOL0     H57320  11.831   9.589   1.834  0.1222  0.6624 -0.1060
  425MOL0     H57321  11.707   9.689   1.905  1.5628  0.2631  2.0057
  425MOL0     H57322  11.761   9.579   2.126 -0.4764  0.8298 -0.2683
  425MOL0     H57323  11.882   9.691   2.078 -0.2668 -0.3110  0.4936
  425MOL0     H57324  11.905   9.389   2.038 -1.8979  1.0977 -2.5301
  425MOL0     H57325  12.023   9.521   1.995 -0.0988 -0.4885 -0.5711
  425MOL0     H57326  11.893   9.355   2.307  0.1175 -0.5705  1.4485
  425MOL0     H57327  12.115   9.440   2.614 -1.2105  0.6428  0.3375
  425MOL0     H57328  12.004   9.325   2.558  0.2896 -2.5710 -1.3053
  425MOL0     H57329  12.281   9.308   2.447  1.1857 -1.7612  0.1877
  425MOL0     H57330  12.228   9.220   2.604 -0.3706  0.9837  1.0866
  425MOL0     H57331  12.136   9.175   2.324  1.6436  2.6030 -0.0173
  425MOL0     H57332  12.069   9.094   2.478 -0.3640 -0.6311 -0.9239
  425MOL0     H57333  12.338   9.070   2.366 -0.1764  1.4238 -0.7075
  425MOL0     H57334  12.211   8.951   2.351 -3.1821  1.4550 -0.3124
  425MOL0     H57335  12.462   8.877   2.383  1.7338 -0.6851 -0.7313
  425MOL0     H57336  12.686   8.820   2.456 -2.7763 -2.9551 -0.8492
  425MOL0     H57337  12.916   9.074   3.021 -1.4674 -2.6383  0.9637
  425MOL0     H57338  13.141   9.070   3.127 -0.7709 -1.1990  0.9092
  425MOL0     H57339  13.435   8.740   3.018 -3.6240  0.0768  2.0033
  425MOL0     H57340  13.477   8.886   2.911  0.3651  1.3674  0.9761
  425MOL0     H57341  13.622   8.976   3.098  2.0378 -0.6370 -1.5915
  425MOL0     H57342  13.542   8.860   3.204 -4.1082  2.5789  0.5317
  425MOL0     H57343  13.778   8.791   3.126  1.1909  1.8071 -2.0337
  425MOL0     H57344  13.655   8.687   3.047 -1.9155  1.1039  0.4629
  425MOL0     H57345  13.693   8.824   2.835 -0.2976 -0.6736  0.2776
  425MOL0     H57346  13.836   8.747   2.898 -1.0553 -0.1135 -0.1230
  425MOL0     H57347  13.886   8.984   2.985  0.5128 -1.4093 -0.6748
  425MOL0     H57348  13.738   9.036   2.911 -0.6437 -0.5908  0.2252
  425MOL0     H57349  13.982   8.914   2.749  2.2278  3.1911  0.1209
  425MOL0     H57350  13.831   8.994   2.691  0.0145  1.1905  0.0980
  425MOL0     H57351  14.050   9.117   2.852  0.8541 -4.4814  0.0275
  425MOL0     H57352  13.910   9.205   2.780  1.7648  0.9962  1.9240
  425MOL0     H57353  13.997   9.139   2.550  1.3053  2.0857 -1.9951
  425MOL0     H57354  14.124   9.218   2.648  1.8779 -1.7615 -2.1744
  425MOL0     H57355  13.284   8.797   2.836  0.3320  0.3792  1.0237
  425MOL0     H57356  13.078   8.808   2.710 -0.0380  1.2111 -0.4982
  425MOL0     H57357  12.634   9.021   2.816  1.9650  1.5140 -0.9702
  425MOL0     H57358  12.394   9.047   2.767 -0.5420 -1.5360 -0.0476
  425MOL0     H57359  11.010   9.108   1.995 -0.2788  0.7652 -0.7919
  425MOL0     H57360  10.845   8.945   1.976  0.9434 -1.7295 -0.1516
  425MOL0     H57361  10.505   8.893   1.754  1.7959 -1.1856  1.9695
  425MOL0     H57362  10.264   8.855   1.770 -2.4783 -2.3056  0.8789
  425MOL0     H57363  10.096   8.731   1.704  3.2350  6.0441  3.3130
  425MOL0     H57364  10.044   8.773   1.863  3.9321 -0.5907  1.8062
  425MOL0     H57365   9.905   8.579   1.895 -1.2116  0.8542  0.1486
  425MOL0     H57366   9.954   8.506   1.749 -1.5301 -0.6654 -0.0891
  425MOL0     H57367   9.818   8.693   1.609 -0.9981 -1.4423  1.3736
  425MOL0     H57368   9.823   8.784   1.763  1.8926  1.0360 -1.5104
  425MOL0     H57369   9.677   8.631   1.868 -2.2563  3.0539 -0.8237
  425MOL0     H57370   9.609   8.698   1.728  0.9636  1.1861  0.0885
  425MOL0     H57371   9.627   8.299   1.576 -1.8954 -1.6994  1.6024
  425MOL0     H57372  10.348   8.459   1.921  0.8002  0.7483  1.1810
  425MOL0     H57373  10.570   8.369   1.867  0.9494 -1.5252  1.8829
  425MOL0     H57374  10.698   8.466   1.806  0.3022  0.6093  0.0709
  425MOL0     H57375  10.676   8.462   1.980 -0.0026 -0.1622 -0.0989
  426MOL0     O57376   9.036  11.188   9.523 -0.4612  0.2067  0.7503
  426MOL0     C57377   9.102  11.217   9.620  0.4270  0.3037  0.0431
  426MOL0     O57378   9.173  11.336   9.643 -0.5846  0.2737 -0.1109
  426MOL0     C57379   9.200  11.418   9.533  0.6549 -0.2593  0.1087
  426MOL0     C57380   9.212  11.553   9.564 -0.2095 -1.0619  0.7186
  426MOL0     C57381   9.221  11.651   9.469  0.5026 -0.2242  0.6706
  426MOL0     C57382   9.230  11.617   9.339  0.4747  1.1709  0.2802
  426MOL0     O57383   9.247  11.710   9.240  0.1104  0.5277  0.6783
  426MOL0     C57384   9.323  11.824   9.261 -0.1250  0.4546 -0.1851
  426MOL0     C57385   9.378  11.879   9.134  0.3165 -0.1960 -0.8307
  426MOL0     C57386   9.500  11.977   9.129 -0.6987 -0.0341  0.0104
  426MOL0     C57387   9.581  11.968   9.008  0.7753 -0.2775  1.1013
  426MOL0     C57388   9.516  12.028   8.885  0.2053 -0.8104 -0.2042
  426MOL0     C57389   9.500  12.182   8.885 -0.0679  1.2230 -0.1926
  426MOL0     C57390   9.445  12.227   8.738 -0.9447  0.6140  0.1957
  426MOL0     C57391   9.463  12.377   8.725  0.6362  0.2752 -0.0954
  426MOL0     N57392   9.439  12.396   8.583 -0.5697  0.3877 -0.0753
  426MOL0     C57393   9.524  12.475   8.504 -0.2484 -0.2594 -0.4743
  426MOL0     C57394   9.465  12.488   8.385  0.6371  0.0443 -1.0061
  426MOL0     C57395   9.520  12.550   8.264 -0.4610  0.2714 -0.0374
  426MOL0     C57396   9.632  12.654   8.281 -0.4070 -0.3842  0.5795
  426MOL0     C57397   9.774  12.595   8.306  0.0201 -0.1754  0.5933
  426MOL0     C57398   9.823  12.497   8.201 -0.0187  0.1340  0.2843
  426MOL0     O57399   9.968  12.462   8.216  0.1591  0.3850 -0.3378
  426MOL0     C57400  10.062  12.559   8.191  0.6480  0.3051  0.8659
  426MOL0     C57401  10.027  12.688   8.143  0.0917  1.3000  0.6572
  426MOL0     C57402  10.126  12.792   8.128 -0.2056  0.4346  0.8412
  426MOL0     C57403  10.265  12.767   8.161 -0.0555 -0.2134  0.4716
  426MOL0     C57404  10.359  12.870   8.132 -0.0379  0.6368 -0.2776
  426MOL0     O57405  10.310  12.995   8.093 -0.0526 -0.4656  0.4394
  426MOL0     C57406  10.388  13.107   8.094  0.7575  0.2404 -1.1739
  426MOL0     C57407  10.406  13.173   7.975 -0.1337 -0.0068  0.0685
  426MOL0     C57408  10.477  13.291   7.965 -0.5405  0.0903 -0.4490
  426MOL0     C57409  10.545  13.351   8.078 -0.2277  0.3950  0.9639
  426MOL0     O57410  10.623  13.466   8.052 -0.5216  0.3795  0.4459
  426MOL0     C57411  10.572  13.580   8.113 -0.4356 -0.2468 -0.1872
  426MOL0     C57412  10.661  13.708   8.082  0.4014  0.2494 -0.5486
  426MOL0     C57413  10.807  13.678   8.125 -1.1163  0.2701 -1.1224
  426MOL0     C57414  10.902  13.800   8.100 -0.5459  0.3129  0.4562
  426MOL0     C57415  11.029  13.759   8.172 -0.4277 -0.7492  0.2294
  426MOL0     C57416  11.129  13.871   8.166 -0.5910  0.5829  0.7596
  426MOL0     C57417  11.238  13.853   8.267 -0.0333 -0.8814  0.6169
  426MOL0     C57418  11.354  13.950   8.264 -0.2390 -0.0473 -0.2723
  426MOL0    Cl57419  11.443  13.863   8.407  0.0799 -0.0079  0.4165
  426MOL0     C57420  10.533  13.280   8.194 -0.3961  0.4495  0.2857
  426MOL0     C57421  10.460  13.160   8.200  0.2872 -0.5296 -0.5314
  426MOL0     O57422  10.476  12.838   8.141 -0.8468 -0.0928  0.1352
  426MOL0     C57423  10.300  12.632   8.199 -0.5203  0.3337 -0.4464
  426MOL0     C57424  10.197  12.534   8.224 -0.8537 -0.0319 -0.1469
  426MOL0     N57425   9.332  12.456   8.404  0.5807  0.3199  0.0918
  426MOL0     N57426   9.323  12.400   8.518  0.0538 -0.5275 -0.3543
  426MOL0     C57427   9.228  11.477   9.306 -0.7917  0.4664  0.2563
  426MOL0     C57428   9.208  11.382   9.401  0.1078  0.3068  0.2349
  426MOL0     C57429   9.086  11.134   9.740  0.2676 -0.2708 -0.8865
  426MOL0     C57430   8.959  11.089   9.772  0.2512  0.2184  0.8250
  426MOL0     C57431   8.944  11.028   9.899 -0.1771  0.3575  0.0102
  426MOL0     C57432   9.052  11.028   9.993  0.6262  0.3552  0.5361
  426MOL0     O57433   9.034  10.980  10.128 -0.0364  0.0115 -0.2937
  426MOL0     C57434   9.132  11.023  10.226  0.2121 -0.3352  1.0191
  426MOL0     C57435   9.063  11.051  10.354  1.0875 -0.1755  0.8501
  426MOL0     C57436   8.960  11.167  10.327  0.0030  0.0553 -0.2060
  426MOL0     C57437   8.864  11.209  10.433  0.3720  0.4631  0.3272
  426MOL0     C57438   8.932  11.259  10.557 -0.2115  0.0002  1.0909
  426MOL0     C57439   8.987  11.298  10.654 -0.4965 -1.0376  0.3268
  426MOL0     C57440   9.182  11.048   9.946  0.1151  0.0515 -0.4246
  426MOL0     C57441   9.200  11.102   9.817  0.1544 -0.6048 -0.1334
  426MOL0     C57442   9.330  11.126   9.766  0.1404 -0.2248 -0.1334
  426MOL0     H57443   9.198  11.584   9.667 -2.0545  3.1522 -0.5992
  426MOL0     H57444   9.220  11.758   9.488  3.4051  0.6547 -2.9480
  426MOL0     H57445   9.256  11.892   9.315  0.1394  0.0982  0.6051
  426MOL0     H57446   9.405  11.789   9.323 -2.0905 -1.8353  1.3232
  426MOL0     H57447   9.306  11.934   9.073  1.3580 -0.0698 -1.9815
  426MOL0     H57448   9.401  11.789   9.075 -1.2573  0.0802 -1.9374
  426MOL0     H57449   9.567  11.942   9.207 -1.7974  0.6140  1.2844
  426MOL0     H57450   9.463  12.080   9.140  2.3257  1.1807 -0.2191
  426MOL0     H57451   9.681  12.010   9.023  1.0282 -0.2741 -0.4395
  426MOL0     H57452   9.596  11.863   8.981 -2.7218 -0.7794  0.5866
  426MOL0     H57453   9.589  12.004   8.807 -0.2600  0.9258 -1.2098
  426MOL0     H57454   9.419  11.988   8.853 -0.5945  1.9738 -1.5567
  426MOL0     H57455   9.431  12.213   8.964  0.4398  1.2846  0.2255
  426MOL0     H57456   9.598  12.221   8.914  1.6419 -0.1133 -3.6437
  426MOL0     H57457   9.346  12.189   8.711 -0.1408 -1.9643  0.6384
  426MOL0     H57458   9.512  12.180   8.666 -3.4152 -1.0011 -1.1943
  426MOL0     H57459   9.382  12.428   8.778  1.7906  1.1143  0.9239
  426MOL0     H57460   9.562  12.411   8.758  1.4902  0.4266 -2.6161
  426MOL0     H57461   9.626  12.505   8.525 -0.5591  0.3404  0.2186
  426MOL0     H57462   9.555  12.473   8.193 -1.2222 -0.3284  0.2228
  426MOL0     H57463   9.437  12.605   8.218  0.0301  0.9707 -0.0883
  426MOL0     H57464   9.646  12.706   8.186  0.5409  0.2897  1.0735
  426MOL0     H57465   9.608  12.719   8.365  0.1688  3.5974 -2.0839
  426MOL0     H57466   9.772  12.549   8.405  0.6915 -0.4172  0.4986
  426MOL0     H57467   9.845  12.677   8.309 -0.1352 -0.0682  1.7148
  426MOL0     H57468   9.804  12.543   8.104 -1.1044 -3.1975 -1.2486
  426MOL0     H57469   9.759  12.408   8.203 -1.1917  0.9730  1.9480
  426MOL0     H57470   9.930  12.720   8.108 -0.5819 -1.1262  0.1425
  426MOL0     H57471  10.091  12.885   8.085  0.7659  0.9037  1.0235
  426MOL0     H57472  10.362  13.128   7.887  1.6581 -2.6894  0.4295
  426MOL0     H57473  10.475  13.336   7.866 -3.1991  0.6894 -0.2043
  426MOL0     H57474  10.467  13.593   8.085 -0.8104 -0.6334  0.9775
  426MOL0     H57475  10.586  13.566   8.220 -0.6211 -0.0676 -0.1387
  426MOL0     H57476  10.658  13.726   7.974 -0.6326 -1.4444 -0.8506
  426MOL0     H57477  10.614  13.793   8.132  1.2405 -0.1457  0.9836
  426MOL0     H57478  10.796  13.655   8.232 -0.6759  1.9272 -0.6904
  426MOL0     H57479  10.861  13.600   8.070 -0.6595  0.9524 -1.6446
  426MOL0     H57480  10.864  13.897   8.134 -2.8164 -0.1477 -0.5191
  426MOL0     H57481  10.916  13.806   7.992 -4.1847  0.7346 -0.1335
  426MOL0     H57482  11.067  13.678   8.110 -0.2437  0.7827 -1.7386
  426MOL0     H57483  11.008  13.731   8.276 -0.7417  2.4346  1.1361
  426MOL0     H57484  11.177  13.869   8.067  3.0021 -1.5012  2.3678
  426MOL0     H57485  11.088  13.971   8.183  0.7639  1.0675  1.2664
  426MOL0     H57486  11.280  13.757   8.237  1.3893  0.4996 -2.1715
  426MOL0     H57487  11.195  13.825   8.363 -0.7430 -0.7689  0.3378
  426MOL0     H57488  11.407  13.965   8.170 -0.6622  0.0763 -0.4950
  426MOL0     H57489  11.332  14.054   8.290  3.0541  0.8724 -0.7704
  426MOL0     H57490  10.591  13.308   8.282 -1.7051  1.1660  0.9508
  426MOL0     H57491  10.465  13.099   8.289 -0.5104 -0.6797 -0.5854
  426MOL0     H57492  10.403  12.601   8.213 -0.9101 -1.3996 -1.1259
  426MOL0     H57493  10.225  12.434   8.253  0.4853  0.1742 -0.6473
  426MOL0     H57494   9.224  11.445   9.203  2.7108  1.6964 -0.4165
  426MOL0     H57495   9.207  11.277   9.373 -2.6605 -0.3475  2.4237
  426MOL0     H57496   8.872  11.097   9.708 -1.5210 -2.1176  2.7115
  426MOL0     H57497   8.853  10.993   9.947  0.8587 -0.7708  1.2328
  426MOL0     H57498   9.196  11.106  10.195 -1.1094  0.7464  1.1030
  426MOL0     H57499   9.214  10.954  10.246  1.2735  0.6214  0.0695
  426MOL0     H57500   9.138  11.093  10.422  1.9390 -0.1690 -0.0640
  426MOL0     H57501   9.011  10.963  10.392 -0.0316  0.0288 -0.1375
  426MOL0     H57502   8.899  11.147  10.238  1.0278  2.6425 -1.5929
  426MOL0     H57503   9.017  11.258  10.310 -0.5689  0.9647  2.3169
  426MOL0     H57504   8.790  11.281  10.398 -0.8716 -0.8793  0.1018
  426MOL0     H57505   8.822  11.112  10.461  0.3688  0.3366 -0.1144
  426MOL0     H57506   9.030  11.333  10.746 -1.5724 -0.4685  0.6398
  426MOL0     H57507   9.271  11.034  10.007 -0.5551  0.0210  0.5615
  426MOL0     H57508   9.384  11.217   9.794 -0.9294  1.1875 -2.3944
  426MOL0     H57509   9.393  11.044   9.803 -0.1133 -0.1162  0.5522
  426MOL0     H57510   9.347  11.121   9.658  1.5650  1.1519  0.0031
  427MOL0     O57511   9.379   8.515  11.363 -0.2386  0.0767  0.3597
  427MOL0     C57512   9.398   8.481  11.479 -0.7398  0.0051  0.3736
  427MOL0     O57513   9.343   8.372  11.538 -0.1027 -0.2795 -0.4430
  427MOL0     C57514   9.225   8.322  11.489  0.3656 -0.0037 -0.2834
  427MOL0     C57515   9.224   8.272  11.357  0.3248  0.2494 -0.0660
  427MOL0     C57516   9.097   8.234  11.309  0.0357  0.2514 -0.3774
  427MOL0     C57517   8.980   8.250  11.392 -0.3775 -1.1220 -0.3858
  427MOL0     O57518   8.858   8.245  11.332  0.3998  0.8557  0.2269
  427MOL0     C57519   8.753   8.161  11.387 -0.2550 -0.1736 -0.6123
  427MOL0     C57520   8.690   8.085  11.278  1.0471  0.3590 -0.6094
  427MOL0     C57521   8.572   7.995  11.330  0.2442  0.2197  0.1447
  427MOL0     C57522   8.505   7.916  11.223  0.1674 -1.2047 -0.3251
  427MOL0     C57523   8.405   7.821  11.288 -0.4610  0.7083 -0.1574
  427MOL0     C57524   8.316   7.758  11.183  0.8811 -0.1896  0.1566
  427MOL0     C57525   8.220   7.673  11.256  0.2895  0.0105 -0.2954
  427MOL0     C57526   8.150   7.569  11.160  0.3648  0.0424  0.3343
  427MOL0     N57527   8.071   7.467  11.226 -0.1981 -0.5391  0.2626
  427MOL0     C57528   7.938   7.460  11.253  0.3069  0.6954  0.4887
  427MOL0     C57529   7.922   7.350  11.333 -0.8780  0.3580  0.0324
  427MOL0     C57530   7.794   7.292  11.382 -0.5050 -0.1314 -0.4843
  427MOL0     C57531   7.709   7.397  11.455 -0.2418  0.1022  0.2812
  427MOL0     C57532   7.743   7.382  11.599  0.1597 -0.9207 -0.8112
  427MOL0     C57533   7.899   7.412  11.637  0.6772 -0.3664 -0.1436
  427MOL0     O57534   7.918   7.551  11.613  1.0070 -0.3017  0.1473
  427MOL0     C57535   8.047   7.601  11.617 -0.0648  0.7397  0.3462
  427MOL0     C57536   8.170   7.537  11.617  0.6831  0.6663  0.6272
  427MOL0     C57537   8.291   7.603  11.637 -0.0856  0.3352  0.7495
  427MOL0     C57538   8.283   7.741  11.645  0.1757  0.5310 -0.3815
  427MOL0     C57539   8.407   7.822  11.641  0.1809  1.2473  0.9412
  427MOL0     O57540   8.521   7.755  11.678 -0.0734  0.1442  0.4839
  427MOL0     C57541   8.637   7.814  11.688 -0.8839 -0.4121 -0.4085
  427MOL0     C57542   8.662   7.947  11.725 -0.2636 -0.1996 -1.0486
  427MOL0     C57543   8.794   7.999  11.728  0.0723 -0.3245 -0.3476
  427MOL0     C57544   8.897   7.911  11.701  0.0146  0.5621  0.4354
  427MOL0     O57545   9.024   7.952  11.728 -0.8564 -0.2489  0.5189
  427MOL0     C57546   9.127   7.910  11.645 -0.4660 -0.2377 -0.1937
  427MOL0     C57547   9.243   8.014  11.649  0.1877  0.1869  1.1591
  427MOL0     C57548   9.339   7.997  11.779  0.7516  1.2384  0.2651
  427MOL0     C57549   9.420   8.122  11.810 -0.4004  0.1661 -0.2529
  427MOL0     C57550   9.473   8.112  11.951  0.0256 -0.4844 -0.0170
  427MOL0     C57551   9.590   8.203  11.977 -0.5620  0.0441  0.3278
  427MOL0     C57552   9.672   8.153  12.095 -0.1744  0.0799 -0.2286
  427MOL0     C57553   9.792   8.248  12.122  0.4910 -0.1913 -0.8514
  427MOL0    Cl57554   9.722   8.411  12.163 -0.0619 -0.0909 -0.4625
  427MOL0     C57555   8.871   7.779  11.660 -0.2966 -0.7058  0.2045
  427MOL0     C57556   8.738   7.732  11.660  0.6564  0.1380 -0.6530
  427MOL0     O57557   8.400   7.941  11.611 -0.1852 -0.0657 -0.0482
  427MOL0     C57558   8.156   7.805  11.654  0.0598 -0.3711 -0.0261
  427MOL0     C57559   8.040   7.741  11.632 -0.7432  0.5298  0.6973
  427MOL0     N57560   8.033   7.278  11.328  0.0788 -0.2580  0.7434
  427MOL0     N57561   8.130   7.352  11.279 -0.1276 -0.2792 -0.3700
  427MOL0     C57562   8.989   8.311  11.519  0.2353 -0.4512  0.1851
  427MOL0     C57563   9.116   8.346  11.569 -0.5111  0.5473  0.4855
  427MOL0     C57564   9.501   8.555  11.562 -0.1554  0.4595  0.5870
  427MOL0     C57565   9.513   8.520  11.695  0.5863  0.0421 -1.3868
  427MOL0     C57566   9.607   8.580  11.780  0.0325  0.4132 -0.7778
  427MOL0     C57567   9.701   8.672  11.733  0.3431 -0.6118 -0.0790
  427MOL0     O57568   9.802   8.733  11.799 -0.6817 -0.3580  0.0053
  427MOL0     C57569   9.841   8.676  11.915  0.2083 -0.3078 -0.0177
  427MOL0     C57570   9.975   8.726  11.960 -0.4932  0.3971  0.8359
  427MOL0     C57571  10.053   8.640  12.057 -1.0457  0.1307 -0.7904
  427MOL0     C57572   9.978   8.629  12.193  0.3834 -0.3185  0.3573
  427MOL0     C57573  10.024   8.516  12.281  0.0773 -0.1948 -0.3607
  427MOL0     C57574  10.042   8.425  12.360  0.4591 -0.0466 -0.4411
  427MOL0     C57575   9.686   8.707  11.598  0.4237 -0.1390  0.8153
  427MOL0     C57576   9.595   8.653  11.509 -0.8750  0.4556 -0.9219
  427MOL0     C57577   9.603   8.697  11.367  0.0805  0.2270  0.2135
  427MOL0     H57578   9.317   8.254  11.304 -0.4138 -2.0990 -0.7081
  427MOL0     H57579   9.086   8.195  11.209  0.1100 -1.9146  0.4097
  427MOL0     H57580   8.787   8.087  11.461 -1.2213 -2.1127 -2.0073
  427MOL0     H57581   8.690   8.224  11.449  0.5879 -1.5642  1.8049
  427MOL0     H57582   8.764   8.016  11.237  1.6023  0.4717  0.1871
  427MOL0     H57583   8.656   8.147  11.195  1.4785 -2.3583 -2.9695
  427MOL0     H57584   8.494   8.058  11.375  1.8448  0.2516  3.1075
  427MOL0     H57585   8.613   7.939  11.415  0.7855  1.0885  0.4663
  427MOL0     H57586   8.451   7.986  11.158  3.0709  1.1385 -0.3902
  427MOL0     H57587   8.572   7.859  11.157 -0.3850 -1.6159 -0.5446
  427MOL0     H57588   8.470   7.750  11.338  2.8376  1.4742 -3.0188
  427MOL0     H57589   8.344   7.864  11.369 -3.7688 -1.7283 -1.1203
  427MOL0     H57590   8.259   7.827  11.120 -0.8466 -1.6213  0.0666
  427MOL0     H57591   8.379   7.685  11.132 -0.4714 -2.1112  1.0947
  427MOL0     H57592   8.147   7.734  11.310  2.2211  1.1070  1.1767
  427MOL0     H57593   8.264   7.609  11.333  0.5899 -1.2525 -1.4694
  427MOL0     H57594   8.088   7.625  11.090 -1.1259 -2.2837 -0.3178
  427MOL0     H57595   8.234   7.519  11.110 -0.9030 -0.5306 -1.3159
  427MOL0     H57596   7.858   7.523  11.216  0.2599  0.3490 -0.0107
  427MOL0     H57597   7.739   7.272  11.289  1.8900 -1.1802 -1.7779
  427MOL0     H57598   7.810   7.204  11.444  1.9936 -1.7842 -3.2221
  427MOL0     H57599   7.727   7.498  11.418 -3.6321  1.6497  2.3769
  427MOL0     H57600   7.602   7.388  11.438 -0.4963  1.9051  0.6708
  427MOL0     H57601   7.733   7.280  11.638 -0.2044 -0.7692 -0.4992
  427MOL0     H57602   7.670   7.437  11.660  1.1990 -1.7738  1.3240
  427MOL0     H57603   7.966   7.345  11.583  0.1092 -1.4097  0.4260
  427MOL0     H57604   7.902   7.399  11.746 -1.6580 -1.6807 -0.1723
  427MOL0     H57605   8.171   7.430  11.599  0.2829  0.8715 -0.7330
  427MOL0     H57606   8.379   7.540  11.648 -0.9192 -0.9500  0.3464
  427MOL0     H57607   8.580   8.016  11.743 -3.1743 -2.8189 -3.2078
  427MOL0     H57608   8.810   8.103  11.750  1.5194 -0.2113 -1.7500
  427MOL0     H57609   9.162   7.809  11.668  0.2862 -0.2541 -1.3590
  427MOL0     H57610   9.078   7.916  11.548  1.7709 -1.5912 -1.4925
  427MOL0     H57611   9.302   7.994  11.559 -2.5020 -0.1985 -0.6410
  427MOL0     H57612   9.210   8.118  11.638  1.0406  0.2768 -1.0731
  427MOL0     H57613   9.276   7.970  11.864  0.6211 -0.3443 -0.3172
  427MOL0     H57614   9.402   7.911  11.756 -0.5008 -0.0703  1.5032
  427MOL0     H57615   9.355   8.209  11.805  1.0648  1.2944 -0.1051
  427MOL0     H57616   9.510   8.135  11.749  1.1291  4.1356  2.4855
  427MOL0     H57617   9.513   8.013  11.976  0.4744 -0.3215 -0.0904
  427MOL0     H57618   9.393   8.142  12.019  2.0875  1.3131  1.7814
  427MOL0     H57619   9.650   8.206  11.885  1.3512  1.5600  1.5326
  427MOL0     H57620   9.554   8.302  12.007 -0.2206 -0.6062  3.1078
  427MOL0     H57621   9.705   8.053  12.066 -0.7979  0.8311 -4.0366
  427MOL0     H57622   9.615   8.147  12.188 -1.5153 -0.6546 -1.0615
  427MOL0     H57623   9.844   8.210  12.211  0.8103  0.1326 -0.8958
  427MOL0     H57624   9.856   8.250  12.033  2.6244  1.2724  0.6008
  427MOL0     H57625   8.938   7.697  11.637  0.3314  0.1950 -1.3126
  427MOL0     H57626   8.703   7.629  11.656  1.9776 -0.5846  2.6341
  427MOL0     H57627   8.149   7.913  11.667 -2.2005 -0.5807  1.0552
  427MOL0     H57628   7.946   7.795  11.637 -0.3381  1.4935 -1.2612
  427MOL0     H57629   8.895   8.330  11.570 -1.4483 -0.0602 -2.8398
  427MOL0     H57630   9.129   8.398  11.663  2.3993  2.7207 -0.9744
  427MOL0     H57631   9.445   8.448  11.737  0.1212 -0.1046 -2.3721
  427MOL0     H57632   9.621   8.541  11.880 -2.8479 -2.0527 -1.2072
  427MOL0     H57633   9.834   8.568  11.902 -0.3202 -0.2315 -0.4363
  427MOL0     H57634   9.771   8.713  11.990 -1.7939  1.1748 -2.4600
  427MOL0     H57635   9.970   8.828  11.998 -1.9288  0.4601  0.5682
  427MOL0     H57636  10.044   8.745  11.878 -1.3608  0.4957  0.1060
  427MOL0     H57637  10.151   8.683  12.079  0.2491 -2.9331 -0.0204
  427MOL0     H57638  10.062   8.537  12.020 -0.9527 -0.2432  0.2467
  427MOL0     H57639   9.974   8.725  12.246 -0.3819 -0.8236  1.2564
  427MOL0     H57640   9.873   8.622  12.163  0.7639 -0.7740 -0.9449
  427MOL0     H57641  10.075   8.337  12.410  1.0344  1.0467  1.1822
  427MOL0     H57642   9.766   8.774  11.569 -1.9288  1.9150 -1.5152
  427MOL0     H57643   9.674   8.779  11.352  1.2344 -0.9536 -1.0171
  427MOL0     H57644   9.631   8.612  11.305 -1.1257 -2.0415  2.5818
  427MOL0     H57645   9.502   8.725  11.334 -1.7374 -3.5968  1.9456
  428MOL0     O57646  11.375   3.137   3.777  0.7431 -0.5795  0.2932
  428MOL0     C57647  11.322   3.081   3.875  0.0558  0.9295  0.5379
  428MOL0     O57648  11.391   3.023   3.974 -0.1371 -0.3030 -0.1334
  428MOL0     C57649  11.525   3.053   3.986 -0.1074  0.8533 -0.2567
  428MOL0     C57650  11.625   2.973   3.919 -0.7317  0.6638  0.1422
  428MOL0     C57651  11.755   2.980   3.948 -0.1607  0.6091 -0.7555
  428MOL0     C57652  11.806   3.083   4.033 -0.3996  0.4017  0.2372
  428MOL0     O57653  11.942   3.096   4.064 -0.1594  0.7899 -1.0253
  428MOL0     C57654  12.032   3.079   3.962 -0.8932 -0.1763 -0.0099
  428MOL0     C57655  12.153   3.173   3.973 -0.0870 -0.5117 -0.4064
  428MOL0     C57656  12.253   3.140   4.088  0.1926  0.4199  0.2493
  428MOL0     C57657  12.331   3.260   4.150 -0.1848 -1.0251 -0.4716
  428MOL0     C57658  12.430   3.219   4.253  0.7150 -0.1475 -1.3214
  428MOL0     C57659  12.542   3.324   4.266 -0.3182  0.0669 -0.0775
  428MOL0     C57660  12.667   3.239   4.290  0.6616  0.2187 -0.6790
  428MOL0     C57661  12.775   3.330   4.292  0.3789  0.1720 -0.2120
  428MOL0     N57662  12.901   3.262   4.314  0.6551  0.2422 -0.0821
  428MOL0     C57663  13.011   3.273   4.229 -0.0768  1.0359  0.4640
  428MOL0     C57664  13.114   3.207   4.277  0.9074  0.2463  0.4061
  428MOL0     C57665  13.247   3.190   4.216 -0.7989 -0.7622 -0.1012
  428MOL0     C57666  13.297   3.330   4.161 -0.3863 -0.0396 -0.2473
  428MOL0     C57667  13.440   3.319   4.106 -1.5087 -0.6691 -0.1682
  428MOL0     C57668  13.537   3.392   4.200  0.4303 -0.5321  0.0684
  428MOL0     O57669  13.667   3.384   4.153 -0.5807  0.3256  0.0072
  428MOL0     C57670  13.747   3.286   4.207 -0.5179 -1.0440  0.1578
  428MOL0     C57671  13.854   3.326   4.284 -0.1023  0.6385 -1.0816
  428MOL0     C57672  13.952   3.236   4.326  0.2800 -0.1125 -0.7942
  428MOL0     C57673  13.935   3.101   4.310 -0.3097  0.2090 -0.2695
  428MOL0     C57674  14.028   2.994   4.362 -0.9208  0.4992 -0.1920
  428MOL0     O57675  14.153   3.032   4.412  0.6217  0.5332 -0.2656
  428MOL0     C57676  14.242   2.936   4.454  0.8701  0.1266  0.4165
  428MOL0     C57677  14.377   2.950   4.431 -0.2425  0.0253 -0.7512
  428MOL0     C57678  14.467   2.863   4.487  0.0066  0.1708 -0.0118
  428MOL0     C57679  14.436   2.759   4.569  0.0309  0.8347 -0.2707
  428MOL0     O57680  14.524   2.666   4.624  0.1792 -0.3192 -0.3376
  428MOL0     C57681  14.644   2.719   4.687 -0.1265  0.0809  0.4476
  428MOL0     C57682  14.739   2.608   4.729 -0.0426 -0.2075 -0.8986
  428MOL0     C57683  14.661   2.524   4.833 -0.0790 -0.2734 -0.4051
  428MOL0     C57684  14.758   2.429   4.906  0.2018  0.2650 -0.2107
  428MOL0     C57685  14.690   2.377   5.025 -0.6110  0.6546  0.3269
  428MOL0     C57686  14.779   2.275   5.100 -0.0060  0.8472 -0.1829
  428MOL0     C57687  14.679   2.171   5.167  0.3110 -0.4106  0.4764
  428MOL0     C57688  14.747   2.092   5.274 -0.6666  0.3912 -0.0299
  428MOL0    Cl57689  14.885   1.999   5.195  0.5855 -0.5665  0.1892
  428MOL0     C57690  14.302   2.748   4.611  0.5182  0.2553  0.4752
  428MOL0     C57691  14.206   2.832   4.542  0.1718 -0.7262  0.5309
  428MOL0     O57692  13.998   2.877   4.349 -0.0563  0.1654 -0.0441
  428MOL0     C57693  13.819   3.064   4.239 -0.3254 -0.1627 -0.7099
  428MOL0     C57694  13.724   3.151   4.196  0.4508  0.0295 -0.9233
  428MOL0     N57695  13.069   3.161   4.402 -0.2997  0.8957  0.5522
  428MOL0     N57696  12.947   3.195   4.422 -0.2451 -0.6363  0.6346
  428MOL0     C57697  11.713   3.161   4.095  1.5019 -0.4066 -0.5838
  428MOL0     C57698  11.570   3.152   4.072  0.4507  0.5542  0.8907
  428MOL0     C57699  11.178   3.077   3.869  0.8565  0.1570  0.0355
  428MOL0     C57700  11.102   3.189   3.841  0.0761  0.6479  0.1362
  428MOL0     C57701  10.963   3.189   3.850  0.9563  0.2105  0.3775
  428MOL0     C57702  10.899   3.067   3.873 -0.7284  0.2938 -0.1053
  428MOL0     O57703  10.764   3.052   3.873  0.0887  0.4162 -0.3747
  428MOL0     C57704  10.687   3.041   3.753 -0.4547 -0.2221  0.6961
  428MOL0     C57705  10.543   3.023   3.783 -0.0861  0.2472  0.3945
  428MOL0     C57706  10.502   3.120   3.891  0.4498 -0.6127 -1.0582
  428MOL0     C57707  10.499   3.270   3.846  0.4496  1.2846 -1.0125
  428MOL0     C57708  10.528   3.366   3.952 -1.0726  0.1620 -0.6471
  428MOL0     C57709  10.560   3.434   4.040 -0.1428 -0.5799 -0.2878
  428MOL0     C57710  10.977   2.949   3.892 -0.4045 -0.4795 -1.1082
  428MOL0     C57711  11.113   2.952   3.892 -0.0549 -0.9858  0.6574
  428MOL0     C57712  11.184   2.824   3.924 -0.0489  0.4236  0.9609
  428MOL0     H57713  11.592   2.894   3.851  0.6912  0.6976 -0.6276
  428MOL0     H57714  11.828   2.912   3.906  1.1032  0.5767  1.3395
  428MOL0     H57715  12.054   2.972   3.951  2.4490  0.6634 -3.6316
  428MOL0     H57716  11.990   3.082   3.861 -0.4628 -2.9576 -0.3509
  428MOL0     H57717  12.116   3.275   3.990 -0.2194 -0.2603 -2.0012
  428MOL0     H57718  12.203   3.169   3.875  2.1467 -0.3334  0.6538
  428MOL0     H57719  12.321   3.058   4.062  0.8568  0.1710  2.5201
  428MOL0     H57720  12.197   3.105   4.175  0.6127 -0.4806  0.1786
  428MOL0     H57721  12.390   3.303   4.069 -0.0364  0.4110  0.3652
  428MOL0     H57722  12.270   3.340   4.193  4.5761  4.1240 -2.2192
  428MOL0     H57723  12.380   3.207   4.349  3.1113 -1.0367 -0.1113
  428MOL0     H57724  12.468   3.117   4.242 -0.9401 -0.9321 -0.1707
  428MOL0     H57725  12.550   3.383   4.174  5.9042 -1.2000 -0.8213
  428MOL0     H57726  12.520   3.402   4.341 -2.6082 -0.0645 -0.5351
  428MOL0     H57727  12.684   3.172   4.206 -2.8906 -0.3680 -1.0959
  428MOL0     H57728  12.660   3.175   4.378  0.0149  1.2482  0.0325
  428MOL0     H57729  12.784   3.393   4.203 -1.1492 -0.2107 -0.6785
  428MOL0     H57730  12.761   3.391   4.381 -3.1524  0.6824 -0.9572
  428MOL0     H57731  13.026   3.317   4.131  2.3814 -2.9110 -1.1424
  428MOL0     H57732  13.306   3.150   4.299 -1.5184 -0.4361  0.5889
  428MOL0     H57733  13.251   3.117   4.135  0.5711 -0.2480 -0.5077
  428MOL0     H57734  13.239   3.363   4.075  1.6115  0.5870 -1.4231
  428MOL0     H57735  13.271   3.405   4.237 -1.9028 -0.9021  0.1145
  428MOL0     H57736  13.444   3.364   4.006 -2.6018 -0.1876 -0.0171
  428MOL0     H57737  13.464   3.213   4.093  1.4680  0.1463 -2.5881
  428MOL0     H57738  13.529   3.342   4.298 -1.9816 -0.1639  0.1193
  428MOL0     H57739  13.496   3.493   4.210 -0.2509 -0.6479 -1.3710
  428MOL0     H57740  13.864   3.428   4.319 -0.0375 -0.2430  1.6945
  428MOL0     H57741  14.043   3.258   4.381  1.4784  0.4650 -2.9203
  428MOL0     H57742  14.412   3.031   4.367  0.5998  1.3332  1.2603
  428MOL0     H57743  14.568   2.857   4.446  0.0387 -3.0481  0.2485
  428MOL0     H57744  14.701   2.789   4.625  0.0768 -0.3886  0.1018
  428MOL0     H57745  14.605   2.772   4.774 -0.6222  0.5375 -0.0470
  428MOL0     H57746  14.773   2.549   4.643  1.4781  0.5079 -0.8315
  428MOL0     H57747  14.828   2.655   4.773  1.9416 -2.4480 -2.2263
  428MOL0     H57748  14.614   2.584   4.911 -1.2056 -1.4235 -0.1622
  428MOL0     H57749  14.586   2.470   4.775 -0.1809  0.4206 -0.9328
  428MOL0     H57750  14.847   2.485   4.935  2.4096 -3.8525  1.8768
  428MOL0     H57751  14.791   2.350   4.838 -2.6168 -1.1204 -0.1278
  428MOL0     H57752  14.601   2.327   4.987  0.3275 -1.6815  0.9790
  428MOL0     H57753  14.664   2.453   5.099 -0.1179  1.9665 -0.8133
  428MOL0     H57754  14.845   2.226   5.027 -0.3064  1.1076 -0.6283
  428MOL0     H57755  14.837   2.319   5.182 -0.0032 -3.5640  2.5266
  428MOL0     H57756  14.643   2.099   5.093 -1.2206 -0.3411  1.1210
  428MOL0     H57757  14.597   2.231   5.207 -0.1089 -0.1040 -0.7736
  428MOL0     H57758  14.788   2.162   5.348  1.0292  1.6625 -2.0630
  428MOL0     H57759  14.677   2.025   5.325  0.1055  0.0110  0.5511
  428MOL0     H57760  14.270   2.670   4.679  2.5036 -2.0025 -1.0371
  428MOL0     H57761  14.100   2.835   4.564  0.2790  3.1573  1.2522
  428MOL0     H57762  13.812   2.958   4.219  0.5800 -0.1821 -0.9745
  428MOL0     H57763  13.630   3.116   4.154 -1.5254  0.9112  2.3987
  428MOL0     H57764  11.746   3.231   4.171 -2.5163  0.3612  0.7268
  428MOL0     H57765  11.510   3.215   4.137  0.3256  1.6668 -0.2545
  428MOL0     H57766  11.150   3.282   3.812 -1.3627  1.3768  0.0056
  428MOL0     H57767  10.907   3.280   3.829 -0.0898 -0.6791 -0.8754
  428MOL0     H57768  10.733   2.959   3.697  1.2212  2.3302 -1.9848
  428MOL0     H57769  10.703   3.131   3.691  1.4855  0.0105  1.4634
  428MOL0     H57770  10.528   2.922   3.823 -2.5204  0.7732  0.9882
  428MOL0     H57771  10.484   3.022   3.691 -0.6748 -0.9345  0.7560
  428MOL0     H57772  10.569   3.124   3.978  0.9899 -0.0053 -1.4922
  428MOL0     H57773  10.405   3.096   3.936  0.0682  2.8279  0.2552
  428MOL0     H57774  10.569   3.282   3.763  0.9713 -0.3595 -0.8421
  428MOL0     H57775  10.397   3.295   3.814 -1.0420 -2.8886 -0.1811
  428MOL0     H57776  10.596   3.484   4.128  0.9761  1.6993 -1.9268
  428MOL0     H57777  10.918   2.859   3.911  0.4842 -1.0931 -1.2222
  428MOL0     H57778  11.124   2.738   3.890 -0.6379  0.4776  1.8448
  428MOL0     H57779  11.275   2.814   3.863  1.2033 -3.1057  3.0907
  428MOL0     H57780  11.210   2.830   4.030  2.7325  0.3548  0.3641
  429MOL0     O57781   7.886   8.338   9.375 -1.2375 -0.0193  0.8568
  429MOL0     C57782   7.998   8.326   9.437  0.3141 -0.3035  0.5274
  429MOL0     O57783   8.020   8.229   9.525  0.2644  0.2868  0.0047
  429MOL0     C57784   7.915   8.151   9.573 -0.2176  0.2830  0.0078
  429MOL0     C57785   7.913   8.015   9.572 -0.6598 -1.5273  0.6178
  429MOL0     C57786   7.801   7.938   9.616 -0.4548 -0.3004 -0.2519
  429MOL0     C57787   7.705   8.010   9.696 -0.6873  0.2924 -1.3872
  429MOL0     O57788   7.598   7.930   9.731 -0.1073  1.1498 -0.3492
  429MOL0     C57789   7.497   7.990   9.809 -0.6593  0.0362 -0.8156
  429MOL0     C57790   7.371   7.911   9.779 -0.1059 -0.1628  0.2033
  429MOL0     C57791   7.372   7.765   9.838  1.0996 -1.1629  0.1189
  429MOL0     C57792   7.297   7.668   9.750  0.9407 -0.5162 -0.2009
  429MOL0     C57793   7.322   7.523   9.800 -0.6163 -1.0025  0.3067
  429MOL0     C57794   7.262   7.505   9.937  0.2086 -0.4075  0.0942
  429MOL0     C57795   7.300   7.368   9.997  0.3627 -0.9351 -0.1840
  429MOL0     C57796   7.286   7.242   9.907  0.9049  0.3017  0.0176
  429MOL0     N57797   7.153   7.227   9.850  0.7183  0.2070  0.4500
  429MOL0     C57798   7.115   7.241   9.720  0.1295 -0.3661 -0.0670
  429MOL0     C57799   6.987   7.190   9.719  1.2541  0.2221  0.4844
  429MOL0     C57800   6.910   7.179   9.591 -0.6085  0.0158  0.4522
  429MOL0     C57801   6.961   7.107   9.476 -0.5623 -0.2395  0.4814
  429MOL0     C57802   6.877   7.137   9.345  0.4338  0.7950 -0.0099
  429MOL0     C57803   6.878   7.025   9.237 -0.3114  0.4535 -0.8051
  429MOL0     O57804   7.010   7.005   9.179 -0.7165 -0.3761 -0.1613
  429MOL0     C57805   7.067   7.114   9.125  0.0573 -0.3347 -0.3152
  429MOL0     C57806   7.008   7.196   9.036 -0.0196 -0.5525 -1.0531
  429MOL0     C57807   7.077   7.315   8.990  0.4431  0.3708 -0.3729
  429MOL0     C57808   7.211   7.341   9.035 -0.9733 -1.6172 -0.2532
  429MOL0     C57809   7.272   7.459   8.983  1.0283 -0.1853  0.0930
  429MOL0     O57810   7.202   7.524   8.884  0.4007 -0.3392  0.7116
  429MOL0     C57811   7.278   7.579   8.786  0.8434  0.5666 -0.9685
  429MOL0     C57812   7.382   7.517   8.712 -0.5813 -0.7552 -0.6964
  429MOL0     C57813   7.457   7.586   8.625 -0.4469  0.5888  0.4154
  429MOL0     C57814   7.422   7.713   8.575  0.3125 -0.4651  0.3440
  429MOL0     O57815   7.495   7.792   8.481  1.1886 -0.5346 -0.2583
  429MOL0     C57816   7.642   7.766   8.477 -0.0783  0.2704  0.5967
  429MOL0     C57817   7.704   7.895   8.414 -0.6722 -0.2257  0.8142
  429MOL0     C57818   7.859   7.893   8.390 -0.1754  0.5613 -0.1388
  429MOL0     C57819   7.918   7.765   8.344 -0.6723 -0.0578  0.0548
  429MOL0     C57820   8.044   7.791   8.254  0.1181  0.1091  0.3428
  429MOL0     C57821   8.089   7.674   8.160 -0.4845  0.4728  0.4002
  429MOL0     C57822   8.235   7.692   8.093 -0.7749 -0.6970  0.7935
  429MOL0     C57823   8.346   7.691   8.194 -1.0496 -0.4058 -0.1244
  429MOL0    Cl57824   8.355   7.517   8.266  0.3991  0.4108  0.2168
  429MOL0     C57825   7.309   7.761   8.631  0.1310  0.3200 -0.5776
  429MOL0     C57826   7.238   7.696   8.736  0.4934  0.0326 -0.1155
  429MOL0     O57827   7.381   7.492   9.021 -0.4659 -0.0815 -0.0269
  429MOL0     C57828   7.271   7.246   9.127 -0.2964 -0.0428 -0.0781
  429MOL0     C57829   7.201   7.139   9.163 -0.1653 -0.2702 -0.5848
  429MOL0     N57830   6.951   7.139   9.842  0.8700 -0.1393 -0.7979
  429MOL0     N57831   7.050   7.178   9.922 -0.1301  0.6086 -0.5465
  429MOL0     C57832   7.724   8.150   9.722  0.0179  0.7128  0.2993
  429MOL0     C57833   7.816   8.219   9.647  0.2256  0.2668  0.0105
  429MOL0     C57834   8.111   8.411   9.379  0.9248 -0.2774  0.5515
  429MOL0     C57835   8.070   8.526   9.303  0.6340  0.0135  0.0692
  429MOL0     C57836   8.166   8.605   9.242 -0.1942  0.9805  0.1994
  429MOL0     C57837   8.300   8.573   9.249  0.0146  0.1231  0.1679
  429MOL0     O57838   8.405   8.655   9.195 -0.2550  0.2007 -0.1108
  429MOL0     C57839   8.379   8.802   9.180  0.8176  0.2679 -0.6255
  429MOL0     C57840   8.393   8.849   9.031 -0.8456 -0.5606 -1.0566
  429MOL0     C57841   8.296   8.790   8.926  0.7502 -0.0661 -0.4323
  429MOL0     C57842   8.327   8.651   8.867  0.1027 -0.7720 -0.4360
  429MOL0     C57843   8.443   8.662   8.776  0.3902 -0.2418  0.4891
  429MOL0     C57844   8.533   8.663   8.686  0.0845  0.7270 -0.1710
  429MOL0     C57845   8.331   8.455   9.309  0.1622  0.0508  0.1525
  429MOL0     C57846   8.246   8.375   9.386  0.3533  0.4795 -0.3863
  429MOL0     C57847   8.296   8.246   9.449  0.2978 -0.0919 -0.8394
  429MOL0     H57848   7.994   7.968   9.518 -1.6384 -1.4492 -1.0110
  429MOL0     H57849   7.797   7.830   9.611  2.7457 -0.5845  0.7553
  429MOL0     H57850   7.525   7.989   9.915 -1.1440  0.5144 -0.6766
  429MOL0     H57851   7.469   8.091   9.777 -0.3306  0.4025  0.0152
  429MOL0     H57852   7.342   7.898   9.674  0.8814 -0.4597 -0.0426
  429MOL0     H57853   7.288   7.976   9.809 -1.1848 -0.3266 -2.2012
  429MOL0     H57854   7.328   7.760   9.939  0.3659 -4.0768 -0.2618
  429MOL0     H57855   7.477   7.734   9.838  0.9078 -1.8268 -0.4558
  429MOL0     H57856   7.192   7.698   9.741  0.9683 -0.8277 -1.9192
  429MOL0     H57857   7.335   7.679   9.648  0.0064  2.3993 -0.3388
  429MOL0     H57858   7.286   7.445   9.732 -4.6389  0.0667  0.9743
  429MOL0     H57859   7.430   7.520   9.817 -0.6821  0.3868  1.1514
  429MOL0     H57860   7.286   7.590  10.001  2.2382  2.6747 -4.1991
  429MOL0     H57861   7.153   7.506   9.927 -0.2742  2.3607  3.5598
  429MOL0     H57862   7.250   7.343  10.091  0.7009  2.5324  1.0568
  429MOL0     H57863   7.408   7.377  10.012  1.0526 -2.3550 -3.3511
  429MOL0     H57864   7.360   7.232   9.827 -0.8021 -1.2336 -1.4732
  429MOL0     H57865   7.304   7.150   9.964  1.4389 -1.4479 -2.7718
  429MOL0     H57866   7.166   7.280   9.632  0.7825  3.5414  1.8357
  429MOL0     H57867   6.817   7.128   9.621  0.4975 -2.7971 -0.5576
  429MOL0     H57868   6.899   7.281   9.554  1.0040 -1.0145 -3.3372
  429MOL0     H57869   7.067   7.127   9.454 -0.3408 -0.8987  0.9447
  429MOL0     H57870   6.964   7.001   9.501  1.4709 -0.3671 -0.1303
  429MOL0     H57871   6.907   7.233   9.301  0.7990  0.0246 -1.4944
  429MOL0     H57872   6.769   7.146   9.360  0.5166 -1.2847  2.2810
  429MOL0     H57873   6.807   7.043   9.155  0.2720 -2.3404 -2.0539
  429MOL0     H57874   6.844   6.938   9.294  0.2478  2.0995  2.2134
  429MOL0     H57875   6.904   7.190   9.005 -1.3877  0.7496  2.6495
  429MOL0     H57876   7.019   7.384   8.930 -1.3338  0.2973  1.1788
  429MOL0     H57877   7.420   7.416   8.729  3.5414  0.5502 -1.1941
  429MOL0     H57878   7.550   7.544   8.587  0.1149  2.9055 -0.9770
  429MOL0     H57879   7.676   7.748   8.579  0.7397  1.1426  0.4888
  429MOL0     H57880   7.666   7.679   8.415 -1.2787  0.3550 -0.0179
  429MOL0     H57881   7.654   7.917   8.319 -0.8446 -0.7681  0.7760
  429MOL0     H57882   7.689   7.981   8.480  0.4435  0.9935 -0.4380
  429MOL0     H57883   7.884   7.964   8.310  0.4027  0.4779 -0.0309
  429MOL0     H57884   7.917   7.920   8.479 -1.2006  3.1157 -0.1420
  429MOL0     H57885   7.844   7.716   8.281  1.1757 -2.1838 -0.5915
  429MOL0     H57886   7.941   7.688   8.418 -1.8237 -2.0623 -1.5690
  429MOL0     H57887   8.126   7.791   8.327  1.3359  0.1552 -0.9866
  429MOL0     H57888   8.052   7.892   8.212  1.9437  0.7882  2.1412
  429MOL0     H57889   8.079   7.576   8.207 -1.6727  0.8780  1.0382
  429MOL0     H57890   8.013   7.671   8.082 -0.0318  0.7912 -0.0552
  429MOL0     H57891   8.246   7.792   8.051  4.0741 -2.2680 -2.6264
  429MOL0     H57892   8.260   7.624   8.011 -1.4699  0.7612 -0.6780
  429MOL0     H57893   8.436   7.695   8.132 -0.2395 -1.3254  0.9467
  429MOL0     H57894   8.349   7.766   8.274 -2.5063 -1.0417  0.5645
  429MOL0     H57895   7.269   7.857   8.599 -0.1468  0.4273  0.0865
  429MOL0     H57896   7.156   7.745   8.786 -1.9694 -2.0356 -1.8544
  429MOL0     H57897   7.371   7.257   9.169 -1.4413  0.8007  2.6888
  429MOL0     H57898   7.258   7.075   9.230  1.1772 -0.5762 -1.9500
  429MOL0     H57899   7.657   8.203   9.789 -0.2978  1.5294 -0.6355
  429MOL0     H57900   7.815   8.327   9.658 -1.1954  0.4113 -1.2281
  429MOL0     H57901   7.964   8.547   9.296  0.3729 -0.3838  2.2568
  429MOL0     H57902   8.130   8.692   9.188 -3.3565 -0.6143 -0.5182
  429MOL0     H57903   8.451   8.853   9.244 -0.8253  0.7623  0.9304
  429MOL0     H57904   8.281   8.825   9.223 -0.1813 -1.5925 -1.7785
  429MOL0     H57905   8.498   8.834   9.004 -0.1692  2.5764 -0.5126
  429MOL0     H57906   8.382   8.957   9.029 -1.3060 -0.5281  0.9163
  429MOL0     H57907   8.284   8.862   8.844  0.1540 -0.0520 -0.3382
  429MOL0     H57908   8.198   8.783   8.974  0.1605 -2.9552 -1.8663
  429MOL0     H57909   8.349   8.579   8.947 -0.2672 -0.6361 -0.2084
  429MOL0     H57910   8.238   8.608   8.821  0.2483 -1.9796  0.3689
  429MOL0     H57911   8.618   8.673   8.623  0.7135 -2.9876 -0.1272
  429MOL0     H57912   8.435   8.422   9.303  0.4493  0.9543 -0.0016
  429MOL0     H57913   8.231   8.163   9.420  0.6234  0.4847 -3.4125
  429MOL0     H57914   8.391   8.212   9.407 -0.7107 -0.6925 -2.7359
  429MOL0     H57915   8.300   8.253   9.558  1.4382  1.6932 -0.9604
  430MOL0     O57916   6.696   3.233   6.621 -0.6028  0.5691  0.5286
  430MOL0     C57917   6.754   3.330   6.675  0.6182 -0.2485 -0.0526
  430MOL0     O57918   6.694   3.443   6.714 -0.3611  0.1626 -1.0211
  430MOL0     C57919   6.575   3.489   6.660 -0.4336 -0.2860 -0.4561
  430MOL0     C57920   6.488   3.541   6.744 -1.5185 -0.6254 -0.4626
  430MOL0     C57921   6.365   3.584   6.699 -0.1146  0.2035 -0.6662
  430MOL0     C57922   6.329   3.564   6.564 -0.2964 -0.6142 -0.8968
  430MOL0     O57923   6.208   3.614   6.523  0.2184 -0.4187  0.0176
  430MOL0     C57924   6.177   3.613   6.383  0.4636  0.0839  0.0365
  430MOL0     C57925   6.050   3.697   6.370 -0.3973  0.9143  0.7662
  430MOL0     C57926   6.008   3.718   6.220 -0.2562  0.3056  0.0277
  430MOL0     C57927   5.899   3.833   6.216  0.0289  0.0529  0.0279
  430MOL0     C57928   5.850   3.865   6.069 -0.4379 -1.5362  0.2441
  430MOL0     C57929   5.913   3.985   5.996  0.7227 -0.3465  0.5328
  430MOL0     C57930   6.071   3.981   5.995  0.0872  0.4783 -0.4156
  430MOL0     C57931   6.117   3.902   5.871  0.5877  0.5311 -0.5426
  430MOL0     N57932   6.261   3.886   5.862  0.4439 -0.1481 -0.1419
  430MOL0     C57933   6.321   3.781   5.801  0.8231 -0.0080  0.8695
  430MOL0     C57934   6.437   3.833   5.754 -0.2023  0.0917 -0.0125
  430MOL0     C57935   6.556   3.752   5.699  0.3500  0.0287 -0.7055
  430MOL0     C57936   6.633   3.815   5.584  0.8328 -0.2317  0.0922
  430MOL0     C57937   6.751   3.742   5.525  0.0692 -0.6852  1.2692
  430MOL0     C57938   6.811   3.833   5.424 -0.0767 -0.0561 -0.8167
  430MOL0     O57939   6.725   3.846   5.310  0.0476 -0.5374  0.9911
  430MOL0     C57940   6.689   3.734   5.238 -0.0025 -0.0263  0.0661
  430MOL0     C57941   6.774   3.679   5.139  0.3855 -0.4135  0.5084
  430MOL0     C57942   6.738   3.567   5.061 -0.1564  0.9754  0.5321
  430MOL0     C57943   6.610   3.502   5.087 -0.9300  0.3588 -0.6668
  430MOL0     C57944   6.566   3.379   5.017  0.1578 -0.2699  0.0497
  430MOL0     O57945   6.633   3.341   4.903 -0.7260  0.5244  0.6262
  430MOL0     C57946   6.575   3.264   4.805  0.6881  0.1973 -0.8048
  430MOL0     C57947   6.661   3.203   4.713 -0.0237 -0.3883 -0.5638
  430MOL0     C57948   6.614   3.120   4.619  0.1238  0.9913 -0.2610
  430MOL0     C57949   6.478   3.099   4.603  0.6000 -0.1456 -0.6040
  430MOL0     O57950   6.432   3.016   4.498 -0.9754 -0.3200  0.2085
  430MOL0     C57951   6.297   3.004   4.472 -0.2967 -0.1180 -0.1617
  430MOL0     C57952   6.293   2.897   4.355 -0.2682 -0.4094 -0.6269
  430MOL0     C57953   6.302   2.968   4.222  0.1596  1.0140 -0.2861
  430MOL0     C57954   6.283   2.863   4.105  0.2055 -1.1775  0.3045
  430MOL0     C57955   6.396   2.775   4.067 -0.3719  0.7698 -0.1270
  430MOL0     C57956   6.389   2.721   3.924 -0.3808  0.3151  0.6589
  430MOL0     C57957   6.271   2.623   3.891 -0.0209 -0.3752 -0.2825
  430MOL0     C57958   6.279   2.485   3.938 -0.3729  0.1077 -0.0677
  430MOL0    Cl57959   6.437   2.406   3.888  0.3743  0.2425 -0.2917
  430MOL0     C57960   6.384   3.164   4.682  0.7440  0.1720 -0.1685
  430MOL0     C57961   6.431   3.251   4.786 -0.5763 -0.1636 -0.7688
  430MOL0     O57962   6.462   3.322   5.057  0.9209 -0.8209  0.3122
  430MOL0     C57963   6.526   3.561   5.176 -0.6477 -0.5190 -0.4023
  430MOL0     C57964   6.563   3.668   5.257  0.0799 -0.2325 -0.4945
  430MOL0     N57965   6.431   3.965   5.787  0.0209 -0.2585 -0.3961
  430MOL0     N57966   6.327   4.001   5.845 -0.1254  0.3107  0.1179
  430MOL0     C57967   6.428   3.518   6.471 -0.8563  0.2721  0.1976
  430MOL0     C57968   6.553   3.481   6.519 -0.6671 -0.0872  0.7172
  430MOL0     C57969   6.895   3.327   6.703 -0.5615  0.7386 -0.5293
  430MOL0     C57970   6.955   3.438   6.771 -0.4657  0.3052 -0.4705
  430MOL0     C57971   7.088   3.429   6.807 -0.8217  0.0146  0.2923
  430MOL0     C57972   7.167   3.311   6.793  0.4343  0.1835 -0.8800
  430MOL0     O57973   7.303   3.291   6.819  0.4034 -0.6430 -0.3994
  430MOL0     C57974   7.372   3.409   6.856 -0.4349  0.5919  0.5712
  430MOL0     C57975   7.515   3.378   6.896  1.1409 -0.7170 -0.3424
  430MOL0     C57976   7.601   3.323   6.776 -0.0023  0.3840  0.0041
  430MOL0     C57977   7.739   3.263   6.820 -0.1028  0.8539  0.2889
  430MOL0     C57978   7.841   3.364   6.863 -0.1975 -0.4492 -0.0458
  430MOL0     C57979   7.912   3.458   6.882 -0.4374 -0.2443  0.3229
  430MOL0     C57980   7.109   3.204   6.725  0.3309  0.9076  0.6999
  430MOL0     C57981   6.974   3.209   6.675  0.8483 -0.6723 -0.1179
  430MOL0     C57982   6.925   3.093   6.592 -0.2040  0.5004  0.1456
  430MOL0     H57983   6.520   3.537   6.847  2.9102  3.4430 -1.3258
  430MOL0     H57984   6.295   3.626   6.771 -1.2807 -0.0518 -1.6263
  430MOL0     H57985   6.257   3.664   6.329  1.7279 -0.4176  1.3567
  430MOL0     H57986   6.154   3.510   6.352  1.9032  0.0393 -0.9751
  430MOL0     H57987   6.084   3.789   6.417  3.0559 -1.7582  4.1131
  430MOL0     H57988   5.978   3.645   6.434 -0.3579 -2.1987 -1.4451
  430MOL0     H57989   5.963   3.624   6.188  0.7048 -0.6440  1.3510
  430MOL0     H57990   6.098   3.738   6.162 -0.0340 -1.5165 -0.2943
  430MOL0     H57991   5.813   3.806   6.278 -0.3183  2.2890  0.6105
  430MOL0     H57992   5.948   3.917   6.265  3.7542 -0.9516 -1.6064
  430MOL0     H57993   5.862   3.783   5.998  4.5935 -0.7512 -0.1808
  430MOL0     H57994   5.744   3.892   6.068 -0.0404  0.1227  0.3113
  430MOL0     H57995   5.884   3.985   5.891  3.5653 -0.6135 -0.3523
  430MOL0     H57996   5.883   4.080   6.042 -1.3992 -1.2441  1.0858
  430MOL0     H57997   6.131   3.956   6.083 -0.7119  0.8312  0.2377
  430MOL0     H57998   6.100   4.085   5.975 -0.7413  0.9132  0.5567
  430MOL0     H57999   6.064   3.807   5.885 -0.1894  1.3131  2.5474
  430MOL0     H58000   6.075   3.931   5.774 -5.8254  2.7650  2.3227
  430MOL0     H58001   6.306   3.674   5.816 -0.4480  0.2020  1.2860
  430MOL0     H58002   6.620   3.718   5.781  1.1201  0.1031 -1.2712
  430MOL0     H58003   6.518   3.653   5.672  1.0547 -0.4417 -0.0238
  430MOL0     H58004   6.552   3.835   5.513 -0.2935  0.4063  1.5081
  430MOL0     H58005   6.669   3.912   5.619  1.4766 -0.7650  0.9438
  430MOL0     H58006   6.734   3.640   5.488 -1.9904  0.5622 -1.6133
  430MOL0     H58007   6.822   3.734   5.608  0.7511  1.3873  0.9338
  430MOL0     H58008   6.908   3.795   5.392 -1.4453 -3.4413 -1.3476
  430MOL0     H58009   6.817   3.936   5.463  0.8542  0.7141 -2.8452
  430MOL0     H58010   6.865   3.735   5.121 -0.7398  0.9765 -1.3044
  430MOL0     H58011   6.806   3.524   4.989 -0.4059  0.5120  0.5621
  430MOL0     H58012   6.769   3.199   4.725  0.1347  0.7261 -1.3963
  430MOL0     H58013   6.679   3.060   4.556  0.3899 -0.4686  1.3179
  430MOL0     H58014   6.250   2.961   4.561  2.0378  0.2463  1.3258
  430MOL0     H58015   6.255   3.099   4.437  0.3065  0.5761  0.9485
  430MOL0     H58016   6.365   2.815   4.367  1.1429  1.1890  3.3771
  430MOL0     H58017   6.194   2.854   4.367 -0.1353 -0.3871  0.7246
  430MOL0     H58018   6.223   3.043   4.217  0.6301  1.5889  0.7201
  430MOL0     H58019   6.398   3.020   4.217  1.1693 -0.8497 -3.6300
  430MOL0     H58020   6.265   2.935   4.025  4.1143  2.8175  2.5495
  430MOL0     H58021   6.191   2.808   4.124 -0.3125  0.3276  2.5500
  430MOL0     H58022   6.397   2.689   4.135  1.3494  0.4888 -0.4678
  430MOL0     H58023   6.489   2.831   4.078  0.4369 -0.5076 -0.2684
  430MOL0     H58024   6.390   2.804   3.854 -0.2458  0.5356  0.9195
  430MOL0     H58025   6.484   2.672   3.900  0.4514  0.9493  2.4474
  430MOL0     H58026   6.262   2.624   3.782  1.6886  0.9673 -0.4622
  430MOL0     H58027   6.174   2.660   3.925 -0.7076 -1.3826 -1.0672
  430MOL0     H58028   6.278   2.476   4.047 -3.2072 -5.1285 -0.2041
  430MOL0     H58029   6.190   2.433   3.902 -0.0834 -0.2455 -0.2782
  430MOL0     H58030   6.277   3.146   4.683  0.4660  1.5218 -1.6808
  430MOL0     H58031   6.364   3.306   4.851 -0.1845  1.5536 -1.7653
  430MOL0     H58032   6.427   3.520   5.197 -1.6509  1.0092 -1.8190
  430MOL0     H58033   6.491   3.706   5.328 -0.6838 -2.1323 -0.2061
  430MOL0     H58034   6.419   3.512   6.363  0.6510  0.3205  0.0498
  430MOL0     H58035   6.631   3.447   6.452  0.9842  0.1729  2.4408
  430MOL0     H58036   6.917   3.531   6.812  0.2562 -0.3443  1.8354
  430MOL0     H58037   7.145   3.508   6.854  2.2732 -1.8237 -0.0815
  430MOL0     H58038   7.324   3.450   6.945 -3.0585  0.1413 -0.5537
  430MOL0     H58039   7.368   3.481   6.774 -0.6700 -0.0437  0.0163
  430MOL0     H58040   7.514   3.307   6.979 -1.0043 -2.9539 -2.1543
  430MOL0     H58041   7.558   3.474   6.925  2.0285 -1.1571 -0.1401
  430MOL0     H58042   7.625   3.404   6.706  1.5905 -1.7387 -2.0286
  430MOL0     H58043   7.544   3.243   6.727 -4.6060  0.8704  3.7514
  430MOL0     H58044   7.729   3.188   6.899 -0.9284  0.8060  0.1458
  430MOL0     H58045   7.788   3.219   6.733  0.1240 -0.2157  0.9380
  430MOL0     H58046   7.962   3.550   6.905 -0.1012 -0.7257  1.6239
  430MOL0     H58047   7.157   3.110   6.699 -1.6549  0.3376 -1.2597
  430MOL0     H58048   6.845   3.040   6.645  0.8262  0.8444  2.1231
  430MOL0     H58049   6.885   3.118   6.493 -1.3377  2.5881  1.0690
  430MOL0     H58050   7.006   3.021   6.578 -0.6626 -0.3018  1.4575
  431MOL0     O58051   7.283  11.346  10.368 -0.6031  0.5864 -0.2196
  431MOL0     C58052   7.321  11.234  10.413 -0.0050  0.1698  1.5259
  431MOL0     O58053   7.446  11.188  10.407 -0.1377  0.0193  0.2437
  431MOL0     C58054   7.540  11.291  10.383 -0.2241  1.5797 -0.6164
  431MOL0     C58055   7.604  11.302  10.260  0.1742 -0.2566  0.1784
  431MOL0     C58056   7.711  11.389  10.238 -0.8719 -0.1680 -0.5869
  431MOL0     C58057   7.756  11.478  10.339  0.6696  0.2794  0.2644
  431MOL0     O58058   7.850  11.570  10.293  0.3534  0.3655 -0.4335
  431MOL0     C58059   7.940  11.632  10.377 -0.5029 -0.2639 -0.7775
  431MOL0     C58060   8.013  11.752  10.315  0.3772  0.2551 -0.2701
  431MOL0     C58061   8.141  11.787  10.383 -0.9066  0.4911 -0.4920
  431MOL0     C58062   8.203  11.910  10.324 -0.8680 -0.3948  0.2649
  431MOL0     C58063   8.307  11.877  10.221  0.3271 -0.0816 -0.4381
  431MOL0     C58064   8.420  11.976  10.214 -0.0873 -0.7242  0.5930
  431MOL0     C58065   8.538  11.918  10.133  0.1664 -0.2628  1.0003
  431MOL0     C58066   8.637  12.031  10.097  0.1735  0.4402 -0.4432
  431MOL0     N58067   8.728  12.074  10.208 -0.1883  0.0418  0.3067
  431MOL0     C58068   8.832  12.005  10.260 -0.1223  1.4152  0.4114
  431MOL0     C58069   8.880  12.084  10.351 -0.3347  0.0289  0.1002
  431MOL0     C58070   9.007  12.056  10.426  0.1898 -0.6829 -0.3404
  431MOL0     C58071   9.119  12.061  10.333 -0.0688  0.8446 -0.5939
  431MOL0     C58072   9.250  12.036  10.413  1.0832  0.3848  0.2998
  431MOL0     C58073   9.369  12.045  10.323 -0.6816 -0.0727 -0.0750
  431MOL0     O58074   9.343  12.106  10.201 -0.4389 -0.6132 -0.7709
  431MOL0     C58075   9.452  12.129  10.118 -0.7322  0.5441  0.7529
  431MOL0     C58076   9.582  12.072  10.138  0.7882 -0.0134  1.2111
  431MOL0     C58077   9.679  12.081  10.031  0.5530 -0.1792  0.2064
  431MOL0     C58078   9.667  12.176   9.930 -0.2570 -0.7184  0.4302
  431MOL0     C58079   9.762  12.185   9.822 -0.0352  0.6593  0.0753
  431MOL0     O58080   9.878  12.112   9.839  0.1392 -1.2038 -0.3776
  431MOL0     C58081   9.987  12.109   9.749 -0.3083 -0.6387  0.0923
  431MOL0     C58082  10.075  12.006   9.758  0.9266 -0.2024 -0.5439
  431MOL0     C58083  10.195  12.011   9.695 -0.0822  0.2557 -0.1741
  431MOL0     C58084  10.232  12.118   9.611  0.0965 -0.4357  0.4055
  431MOL0     O58085  10.351  12.140   9.552  0.1177 -0.2393  0.2983
  431MOL0     C58086  10.443  12.023   9.549  0.4934 -0.9127  0.5765
  431MOL0     C58087  10.572  12.085   9.509 -1.0598 -0.6965  0.5678
  431MOL0     C58088  10.707  12.000   9.522  0.8239  1.0504 -0.3928
  431MOL0     C58089  10.827  12.069   9.467  0.3829 -0.9901  0.5576
  431MOL0     C58090  10.949  11.975   9.469  0.1127 -0.7151 -0.2943
  431MOL0     C58091  11.043  12.036   9.362 -0.4689 -0.8967  0.8445
  431MOL0     C58092  11.100  12.179   9.403 -0.6579  0.2019  0.1905
  431MOL0     C58093  11.171  12.251   9.285  0.3106  0.0019  0.0251
  431MOL0    Cl58094  11.044  12.302   9.167 -0.1805  0.7598  0.0869
  431MOL0     C58095  10.138  12.223   9.596 -0.6529  0.5926 -0.2276
  431MOL0     C58096  10.014  12.218   9.657 -0.0886  0.3942 -0.2540
  431MOL0     O58097   9.732  12.262   9.732 -1.1649  0.4250  0.0715
  431MOL0     C58098   9.546  12.237   9.922  1.0212 -0.0528 -0.1376
  431MOL0     C58099   9.440  12.211  10.006  0.5999  0.2922 -0.1316
  431MOL0     N58100   8.816  12.206  10.355  0.3495  0.3216  0.6197
  431MOL0     N58101   8.734  12.195  10.260 -0.0003  0.2372  0.7505
  431MOL0     C58102   7.696  11.465  10.465 -0.5769  0.6213 -0.3576
  431MOL0     C58103   7.590  11.364  10.484  0.4493 -0.0696 -1.1167
  431MOL0     C58104   7.217  11.138  10.449 -0.0348 -0.6304  0.3139
  431MOL0     C58105   7.157  11.160  10.576 -0.0624  0.1246 -0.5949
  431MOL0     C58106   7.052  11.073  10.615  0.4938 -1.0278  0.2283
  431MOL0     C58107   7.021  10.961  10.541  0.2476  0.2938  0.2152
  431MOL0     O58108   6.933  10.863  10.585 -0.5856 -0.1988 -0.4082
  431MOL0     C58109   6.851  10.882  10.700  0.4610 -0.1499 -0.5504
  431MOL0     C58110   6.711  10.824  10.678 -0.3782 -0.6385  0.6996
  431MOL0     C58111   6.638  10.797  10.809 -0.0264  0.1246 -0.1061
  431MOL0     C58112   6.519  10.705  10.791 -0.1365 -0.2518 -0.5112
  431MOL0     C58113   6.440  10.688  10.907 -0.4039 -0.0482  0.4542
  431MOL0     C58114   6.367  10.678  11.002 -0.1295  0.6006 -0.2258
  431MOL0     C58115   7.083  10.936  10.428 -0.6327  0.1894  0.7199
  431MOL0     C58116   7.187  11.021  10.381  0.0719  0.2627 -0.0138
  431MOL0     C58117   7.275  10.979  10.256 -0.4248  0.4966 -0.6709
  431MOL0     H58118   7.574  11.249  10.170 -1.6378  0.7256  0.1587
  431MOL0     H58119   7.764  11.400  10.144 -1.1248  0.1130 -0.6972
  431MOL0     H58120   7.891  11.660  10.471  0.1816 -2.5530  0.3166
  431MOL0     H58121   8.010  11.553  10.405 -3.1886 -2.2951  0.6960
  431MOL0     H58122   7.941  11.835  10.311  0.2281  0.4358  3.3907
  431MOL0     H58123   8.034  11.728  10.210 -2.3222 -0.9465 -0.5967
  431MOL0     H58124   8.208  11.701  10.380  0.1392  1.2679  0.2016
  431MOL0     H58125   8.116  11.808  10.487  0.0807  2.5248 -0.6304
  431MOL0     H58126   8.127  11.979  10.287  0.8509  0.1016 -2.6882
  431MOL0     H58127   8.241  11.960  10.414 -0.7189 -0.7071  0.3778
  431MOL0     H58128   8.359  11.782  10.234  1.8052  0.8194  0.4146
  431MOL0     H58129   8.240  11.881  10.134  1.3236 -1.0069 -1.2744
  431MOL0     H58130   8.387  12.075  10.182 -2.6418 -1.4004  0.8830
  431MOL0     H58131   8.461  12.002  10.312  0.8709  1.7492 -0.3846
  431MOL0     H58132   8.499  11.882  10.038  1.2104 -0.7814  0.7560
  431MOL0     H58133   8.593  11.840  10.185  1.8193  1.1829  1.5031
  431MOL0     H58134   8.694  11.990  10.013 -0.5551 -1.0458 -0.2411
  431MOL0     H58135   8.568  12.111  10.068 -2.4861 -1.1037  1.2027
  431MOL0     H58136   8.865  11.906  10.230 -1.9185  1.0796 -0.6457
  431MOL0     H58137   9.014  12.132  10.505 -1.4503  3.0783 -3.4732
  431MOL0     H58138   8.994  11.957  10.470 -1.2458  0.2816  1.5412
  431MOL0     H58139   9.116  11.989  10.250 -0.0875  1.8120 -1.4518
  431MOL0     H58140   9.133  12.155  10.279  0.3978  0.1887 -1.6584
  431MOL0     H58141   9.248  11.935  10.456  1.8209  0.1254 -0.2354
  431MOL0     H58142   9.258  12.107  10.496 -0.0240  1.2571 -0.3189
  431MOL0     H58143   9.418  11.948  10.314  1.9670  1.0638  0.9745
  431MOL0     H58144   9.440  12.097  10.388 -1.0875 -0.9805  1.1261
  431MOL0     H58145   9.609  12.011  10.223  0.0489 -0.7188  0.9541
  431MOL0     H58146   9.774  12.036  10.057  1.7579  2.0323 -0.0820
  431MOL0     H58147  10.061  11.923   9.826  0.8182 -0.6166 -1.0754
  431MOL0     H58148  10.267  11.934   9.721  1.5149  2.1447  1.3335
  431MOL0     H58149  10.446  11.974   9.647  0.7626  0.0564  1.0709
  431MOL0     H58150  10.406  11.957   9.471 -0.1585  0.7694 -0.5970
  431MOL0     H58151  10.561  12.114   9.405  1.2927 -3.0399 -0.4542
  431MOL0     H58152  10.579  12.174   9.571 -4.0472  0.3947 -0.4767
  431MOL0     H58153  10.704  11.999   9.631 -0.3766  0.3303 -0.4106
  431MOL0     H58154  10.699  11.895   9.493 -2.3959  0.9456  0.4283
  431MOL0     H58155  10.851  12.164   9.517  2.4074 -3.1204  3.9795
  431MOL0     H58156  10.810  12.098   9.363  0.8341  2.7252  1.3522
  431MOL0     H58157  10.920  11.873   9.443 -2.0578 -0.2052 -0.1169
  431MOL0     H58158  10.987  11.974   9.572  1.0939 -0.7312 -0.6476
  431MOL0     H58159  11.127  11.966   9.356 -0.2199 -0.5414  0.0816
  431MOL0     H58160  11.003  12.049   9.261  1.9675 -2.0873 -0.3527
  431MOL0     H58161  11.163  12.177   9.492 -1.2033 -3.1245  0.6446
  431MOL0     H58162  11.022  12.253   9.423 -0.3557  0.8014 -0.7676
  431MOL0     H58163  11.223  12.341   9.320  0.6173  0.1959 -0.9269
  431MOL0     H58164  11.240  12.180   9.238  0.3376 -1.5756  2.2790
  431MOL0     H58165  10.171  12.298   9.525 -0.4677 -0.4279 -1.2582
  431MOL0     H58166   9.948  12.303   9.646  1.9124  2.0194 -0.1366
  431MOL0     H58167   9.527  12.313   9.847  1.3309  0.2744  0.1128
  431MOL0     H58168   9.340  12.250   9.986  0.1437 -1.0601 -0.6586
  431MOL0     H58169   7.725  11.529  10.548  0.7246 -2.9244  2.1897
  431MOL0     H58170   7.550  11.336  10.581 -0.5572  2.3775 -0.7465
  431MOL0     H58171   7.196  11.233  10.646 -3.6947  1.6414  0.0455
  431MOL0     H58172   7.025  11.078  10.720 -2.2535 -2.6061 -0.3109
  431MOL0     H58173   6.824  10.984  10.730 -4.8242 -1.3824 -0.1451
  431MOL0     H58174   6.901  10.834  10.785 -0.6358 -0.3368 -0.0026
  431MOL0     H58175   6.719  10.730  10.622 -2.7660 -0.6148  0.2067
  431MOL0     H58176   6.658  10.893  10.611 -1.7851 -1.3274  1.0801
  431MOL0     H58177   6.605  10.894  10.848 -2.4592 -1.0545  1.0243
  431MOL0     H58178   6.705  10.752  10.882  0.1258 -3.9165 -2.4583
  431MOL0     H58179   6.453  10.734  10.709  0.9506 -1.4180 -1.8460
  431MOL0     H58180   6.569  10.610  10.770  2.7392  0.5619  1.8773
  431MOL0     H58181   6.302  10.677  11.086 -1.4819 -3.6118 -1.0562
  431MOL0     H58182   7.050  10.850  10.371  3.0936 -0.9672 -0.0043
  431MOL0     H58183   7.359  10.919  10.293 -1.7135 -1.2623 -0.5038
  431MOL0     H58184   7.210  10.922  10.190 -3.6281  0.6079  2.0841
  431MOL0     H58185   7.314  11.068  10.205 -0.3152  1.3491  0.8270
  432MOL0     O58186   0.110  10.521   6.513  0.2842  0.5821 -0.1482
  432MOL0     C58187   0.026  10.570   6.442  0.1396  0.4311  0.3690
  432MOL0     O58188   0.053  10.623   6.309  0.5317 -0.2072  0.3047
  432MOL0     C58189   0.151  10.725   6.295  0.1011  0.2060 -0.0985
  432MOL0     C58190   0.176  10.762   6.161 -0.4748 -0.3825  0.0882
  432MOL0     C58191   0.259  10.867   6.128 -0.4730 -0.0213 -0.4403
  432MOL0     C58192   0.331  10.942   6.222 -0.1034 -0.4715 -1.1028
  432MOL0     O58193   0.410  11.051   6.191  0.1138  0.1425 -0.0188
  432MOL0     C58194   0.513  11.045   6.086 -0.0289  0.8765  0.5387
  432MOL0     C58195   0.575  11.174   6.053  0.4962 -0.1085  0.1437
  432MOL0     C58196   0.714  11.172   5.983  0.2719  0.1701 -0.4524
  432MOL0     C58197   0.756  11.309   5.959 -0.7080 -0.1585  0.6657
  432MOL0     C58198   0.880  11.332   5.882  0.0832 -1.1019  0.2698
  432MOL0     C58199   1.002  11.262   5.948  0.5885  0.2437 -0.5228
  432MOL0     C58200   1.126  11.292   5.867 -0.1106  0.4034 -0.6902
  432MOL0     C58201   1.230  11.192   5.917 -0.3901  0.4225  0.0542
  432MOL0     N58202   1.358  11.244   5.864  0.3219  0.0100 -0.2623
  432MOL0     C58203   1.407  11.219   5.738  0.0206 -0.1645 -0.7276
  432MOL0     C58204   1.534  11.274   5.735 -0.7426  0.5744 -0.3906
  432MOL0     C58205   1.607  11.280   5.604  0.7664 -0.4348  0.9264
  432MOL0     C58206   1.739  11.205   5.603  0.2862 -0.3503  0.6298
  432MOL0     C58207   1.715  11.053   5.617 -0.2451  0.3079 -0.7012
  432MOL0     C58208   1.855  10.987   5.589 -0.8859  0.6582 -0.7066
  432MOL0     O58209   1.909  11.000   5.458  0.3090  0.2013  0.1397
  432MOL0     C58210   2.027  10.935   5.428 -0.6489  0.0087 -0.3600
  432MOL0     C58211   2.065  10.952   5.299 -0.2220  0.0849 -0.0062
  432MOL0     C58212   2.181  10.906   5.247 -0.8721  0.8679 -0.7149
  432MOL0     C58213   2.270  10.824   5.334  0.4417  0.0690  0.7677
  432MOL0     C58214   2.401  10.774   5.278 -0.3585  0.1372  0.3431
  432MOL0     O58215   2.486  10.712   5.367  0.5598  1.0623  0.2521
  432MOL0     C58216   2.614  10.682   5.326  0.5591  0.4957 -0.1122
  432MOL0     C58217   2.653  10.559   5.260  0.5678  0.7287 -0.1075
  432MOL0     C58218   2.787  10.539   5.222 -0.3112  0.4244  0.4038
  432MOL0     C58219   2.887  10.631   5.241 -0.3574 -0.7205 -0.0785
  432MOL0     O58220   3.015  10.615   5.189 -0.1565  0.2342 -0.3647
  432MOL0     C58221   3.088  10.726   5.149 -0.5708  0.1460  0.2708
  432MOL0     C58222   3.203  10.687   5.055 -0.9183 -0.1968  0.5980
  432MOL0     C58223   3.284  10.573   5.108 -1.0063 -0.5861  0.1351
  432MOL0     C58224   3.382  10.523   5.001 -0.5064  0.1224 -0.1543
  432MOL0     C58225   3.470  10.404   5.054 -0.4881 -0.4039 -0.1692
  432MOL0     C58226   3.538  10.340   4.934 -0.3871  0.6752  0.1793
  432MOL0     C58227   3.608  10.218   4.998  0.3234  1.4929 -0.1521
  432MOL0     C58228   3.703  10.145   4.903 -0.0779  0.4297  0.4122
  432MOL0    Cl58229   3.605  10.094   4.763  0.3659  0.2234 -0.0781
  432MOL0     C58230   2.849  10.755   5.307  0.3971  0.7088  0.1385
  432MOL0     C58231   2.714  10.780   5.345 -0.4643 -0.1839  0.1999
  432MOL0     O58232   2.416  10.782   5.154 -0.0095 -0.0948 -0.0687
  432MOL0     C58233   2.210  10.776   5.452 -0.1115 -0.4479 -0.0001
  432MOL0     C58234   2.091  10.840   5.497  0.2066 -0.0130  0.1092
  432MOL0     N58235   1.571  11.313   5.863  0.5156 -0.2183 -0.0869
  432MOL0     N58236   1.462  11.298   5.934 -0.3919 -0.0949 -0.3111
  432MOL0     C58237   0.309  10.906   6.358  0.2886 -0.2838 -0.6878
  432MOL0     C58238   0.215  10.806   6.392 -0.9053  0.1888 -0.6199
  432MOL0     C58239  -0.111  10.596   6.503  0.8690  0.7602  0.4673
  432MOL0     C58240  -0.119  10.612   6.640 -1.0826  1.0632  1.0305
  432MOL0     C58241  -0.239  10.652   6.696  0.5974  0.0310 -0.3396
  432MOL0     C58242  -0.364  10.655   6.620 -0.7036 -0.0481 -0.6701
  432MOL0     O58243  -0.487  10.677   6.662  0.5128  0.1636  0.0936
  432MOL0     C58244  -0.498  10.717   6.800  0.1758 -0.1713 -0.2530
  432MOL0     C58245  -0.644  10.693   6.850 -0.1728  0.0707  0.9228
  432MOL0     C58246  -0.751  10.797   6.812  0.7479 -0.7649  0.2033
  432MOL0     C58247  -0.887  10.731   6.815 -0.0131  0.2825 -0.0027
  432MOL0     C58248  -0.916  10.673   6.946  0.6154  0.3817  1.1791
  432MOL0     C58249  -0.927  10.634   7.060  0.1497  0.1315 -0.9809
  432MOL0     C58250  -0.362  10.634   6.480 -0.5990  0.6686 -0.6427
  432MOL0     C58251  -0.234  10.603   6.422 -0.5586 -0.0877 -0.8515
  432MOL0     C58252  -0.237  10.576   6.272  0.7133  0.2031 -0.2675
  432MOL0     H58253   0.115  10.718   6.082  1.1467  1.6054 -2.4246
  432MOL0     H58254   0.257  10.902   6.025  2.4366  0.3610 -0.4420
  432MOL0     H58255   0.586  10.966   6.105 -0.1737  0.9762  1.5623
  432MOL0     H58256   0.469  10.997   5.998  2.2584  0.6150 -0.5471
  432MOL0     H58257   0.585  11.224   6.150  0.3874 -0.9008  0.5689
  432MOL0     H58258   0.505  11.229   5.990  0.8106  0.7479  0.5239
  432MOL0     H58259   0.704  11.121   5.887  1.1126  1.1574 -1.0852
  432MOL0     H58260   0.788  11.116   6.042  1.0216 -0.8138 -2.2570
  432MOL0     H58261   0.673  11.362   5.911 -1.6257 -1.4720  0.7376
  432MOL0     H58262   0.765  11.353   6.059  0.9244  0.7240  0.1500
  432MOL0     H58263   0.863  11.314   5.776 -1.6432  0.7434  0.1864
  432MOL0     H58264   0.910  11.437   5.885 -0.4771 -0.9315  3.3712
  432MOL0     H58265   1.007  11.295   6.052 -0.4348 -1.3291  0.0611
  432MOL0     H58266   0.990  11.153   5.950 -1.0017  0.3255 -2.4157
  432MOL0     H58267   1.153  11.396   5.891 -1.0492  0.1888  1.5890
  432MOL0     H58268   1.099  11.291   5.761 -3.5737  2.9931 -0.0194
  432MOL0     H58269   1.228  11.183   6.026  0.7088  1.5908  0.1929
  432MOL0     H58270   1.203  11.094   5.876  0.8513  0.1729 -0.2175
  432MOL0     H58271   1.362  11.173   5.651  2.6123 -1.5788 -1.4318
  432MOL0     H58272   1.548  11.249   5.517  0.8476  0.4126  0.5639
  432MOL0     H58273   1.629  11.386   5.594 -0.4781 -0.2805 -0.3452
  432MOL0     H58274   1.804  11.219   5.517 -0.2436  0.8371  0.3916
  432MOL0     H58275   1.787  11.237   5.696  0.2721  1.9388 -0.0957
  432MOL0     H58276   1.641  11.017   5.546  0.8321 -3.3423 -0.2211
  432MOL0     H58277   1.688  11.035   5.722  2.8142  3.6728  0.9090
  432MOL0     H58278   1.839  10.882   5.614  0.1571 -0.0366 -2.7135
  432MOL0     H58279   1.929  11.033   5.656  0.6976 -1.7828 -0.6272
  432MOL0     H58280   2.019  11.028   5.237  1.0353  0.9935  0.1457
  432MOL0     H58281   2.229  10.938   5.155  3.4164 -1.0642  0.5459
  432MOL0     H58282   2.583  10.479   5.244  1.1938 -0.3405  2.1444
  432MOL0     H58283   2.798  10.443   5.172 -3.5280 -0.5803  1.3858
  432MOL0     H58284   3.036  10.803   5.092  2.8123  1.5872 -1.1351
  432MOL0     H58285   3.137  10.771   5.236 -1.3340  0.5198  0.5148
  432MOL0     H58286   3.166  10.662   4.955  0.7346 -2.4632  0.4635
  432MOL0     H58287   3.258  10.782   5.046 -3.6493  1.8730  3.5963
  432MOL0     H58288   3.342  10.605   5.195 -0.0851 -0.6075 -0.4608
  432MOL0     H58289   3.224  10.488   5.142  2.6083 -2.3904  2.6844
  432MOL0     H58290   3.447  10.603   4.962 -0.0346 -0.3503 -0.3460
  432MOL0     H58291   3.321  10.496   4.914 -0.6647  2.3282 -0.8062
  432MOL0     H58292   3.407  10.337   5.113 -3.8326  1.3858 -1.3858
  432MOL0     H58293   3.539  10.449   5.126 -0.1254 -3.1256  1.3228
  432MOL0     H58294   3.464  10.313   4.857 -0.7589  2.4876 -0.1510
  432MOL0     H58295   3.608  10.412   4.889 -2.0903  2.3139  0.0073
  432MOL0     H58296   3.537  10.140   5.029  2.9239 -0.1305  2.1766
  432MOL0     H58297   3.680  10.250   5.073  2.2013 -1.5883 -0.4649
  432MOL0     H58298   3.796  10.188   4.867 -0.3039 -1.0186 -2.1237
  432MOL0     H58299   3.737  10.050   4.946  0.7300 -0.0957 -1.3211
  432MOL0     H58300   2.933  10.815   5.342  0.3594  0.1673  1.2058
  432MOL0     H58301   2.691  10.863   5.411  0.2888  0.0222  0.2106
  432MOL0     H58302   2.247  10.704   5.525 -0.5076  0.8202  1.5197
  432MOL0     H58303   2.065  10.791   5.590  2.4693 -3.8875 -1.0682
  432MOL0     H58304   0.349  10.956   6.446 -3.4053  3.7022 -0.9408
  432MOL0     H58305   0.198  10.783   6.496 -0.6448  0.7906 -0.4411
  432MOL0     H58306  -0.030  10.596   6.699  0.4210  0.3575 -1.2948
  432MOL0     H58307  -0.233  10.673   6.803 -1.0596 -0.0776 -0.2026
  432MOL0     H58308  -0.474  10.823   6.816 -2.1665  0.4399 -0.4002
  432MOL0     H58309  -0.437  10.652   6.864  0.9565  2.4334  1.8496
  432MOL0     H58310  -0.643  10.691   6.959 -2.0446  0.4107  0.9921
  432MOL0     H58311  -0.668  10.591   6.818 -0.8982 -0.1952  2.2535
  432MOL0     H58312  -0.742  10.832   6.709  3.5306  0.3500  0.7496
  432MOL0     H58313  -0.741  10.889   6.870  0.7982 -0.1160 -0.8139
  432MOL0     H58314  -0.965  10.800   6.782  0.3104  0.5490 -0.2174
  432MOL0     H58315  -0.893  10.657   6.735 -2.1125 -0.2444  0.5520
  432MOL0     H58316  -0.933  10.610   7.164  2.8627 -2.4253 -1.3053
  432MOL0     H58317  -0.449  10.641   6.415 -0.1565  2.1974 -1.1190
  432MOL0     H58318  -0.196  10.481   6.236 -2.7220 -0.3406 -3.2933
  432MOL0     H58319  -0.340  10.586   6.239  0.4710 -1.4371 -0.0949
  432MOL0     H58320  -0.178  10.646   6.212 -1.5883  1.4520 -1.2207
  433MOL0     O58321   6.694   6.564   8.082 -0.0303  0.0149 -0.3679
  433MOL0     C58322   6.800   6.543   8.024 -0.0422  0.0608  0.6257
  433MOL0     O58323   6.841   6.417   7.992  0.1213  0.3393 -0.6826
  433MOL0     C58324   6.749   6.314   7.975 -1.1966 -0.8300 -0.1643
  433MOL0     C58325   6.803   6.183   7.965 -0.8805 -0.6171  0.2989
  433MOL0     C58326   6.720   6.081   7.919  0.0475  0.6604 -0.2575
  433MOL0     C58327   6.586   6.092   7.896 -0.7770 -0.4831  0.1075
  433MOL0     O58328   6.507   5.985   7.862  0.2618  0.8006 -0.1658
  433MOL0     C58329   6.385   5.967   7.943  0.7755 -0.4963  0.6599
  433MOL0     C58330   6.421   5.937   8.096  1.0204 -0.2161  0.3337
  433MOL0     C58331   6.320   5.846   8.169  0.8716 -0.2887 -0.8641
  433MOL0     C58332   6.179   5.902   8.177  0.3307 -0.7128  0.9998
  433MOL0     C58333   6.095   5.862   8.063  0.0633 -0.1269 -0.5396
  433MOL0     C58334   5.953   5.920   8.059  0.1349 -0.3650 -0.4836
  433MOL0     C58335   5.864   5.886   8.171 -0.0456 -0.4883 -0.1469
  433MOL0     C58336   5.718   5.914   8.124  0.3917  0.4236  0.0237
  433MOL0     N58337   5.636   5.911   8.241 -0.0384  0.0232 -0.0399
  433MOL0     C58338   5.644   6.012   8.327  0.3907 -0.5880 -0.2545
  433MOL0     C58339   5.551   5.980   8.423  0.2267  0.2331  0.5422
  433MOL0     C58340   5.525   6.060   8.551 -0.3223 -0.4262  0.6937
  433MOL0     C58341   5.616   6.015   8.668  0.3295 -0.2046  0.9525
  433MOL0     C58342   5.761   6.020   8.647  0.0591  0.6336  0.5781
  433MOL0     C58343   5.833   6.165   8.644  0.3248 -0.2100 -0.0049
  433MOL0     O58344   5.976   6.159   8.649  0.3648 -0.5632 -0.2277
  433MOL0     C58345   6.035   6.173   8.771  0.3603  0.0692  0.3506
  433MOL0     C58346   5.971   6.186   8.894  0.6058 -0.2616 -0.5119
  433MOL0     C58347   6.053   6.197   9.008  0.0605 -0.2341 -0.5406
  433MOL0     C58348   6.200   6.179   9.004  0.3284  0.0358  0.3088
  433MOL0     C58349   6.276   6.180   9.128 -0.1991  1.3581 -0.2188
  433MOL0     O58350   6.412   6.190   9.119  0.2801  0.5331 -0.3690
  433MOL0     C58351   6.477   6.217   9.242  0.8421  0.6383  0.1500
  433MOL0     C58352   6.592   6.147   9.278 -1.1936 -0.4714 -0.6471
  433MOL0     C58353   6.676   6.194   9.384 -0.2710 -0.0568  0.4499
  433MOL0     C58354   6.629   6.300   9.466 -0.6124 -0.5370 -0.8701
  433MOL0     O58355   6.701   6.344   9.569  0.5029  0.8683  0.3650
  433MOL0     C58356   6.832   6.374   9.530  0.0385 -1.0788 -0.6327
  433MOL0     C58357   6.899   6.465   9.633 -0.8981 -0.3151 -0.2275
  433MOL0     C58358   7.040   6.493   9.593  0.1259  0.1048  0.3456
  433MOL0     C58359   7.143   6.376   9.606  0.3849  0.1886  0.0326
  433MOL0     C58360   7.289   6.431   9.607  0.5762  0.0998  0.7366
  433MOL0     C58361   7.326   6.512   9.734  0.2837  0.9244  0.4532
  433MOL0     C58362   7.478   6.514   9.771  0.1355  0.1749 -0.1169
  433MOL0     C58363   7.574   6.551   9.663 -0.2406  0.5962  0.2462
  433MOL0    Cl58364   7.744   6.547   9.740  0.1053 -0.0082 -0.4013
  433MOL0     C58365   6.505   6.364   9.437 -0.4169  0.0257  1.4304
  433MOL0     C58366   6.435   6.328   9.319  0.3607 -0.2590 -1.1030
  433MOL0     O58367   6.206   6.182   9.228 -0.5694  0.3769 -0.5120
  433MOL0     C58368   6.251   6.168   8.878  0.2538  0.4842  0.0936
  433MOL0     C58369   6.174   6.172   8.759 -0.1494 -0.3196  0.0184
  433MOL0     N58370   5.491   5.857   8.385 -0.0121 -0.0288  0.0770
  433MOL0     N58371   5.538   5.829   8.272  0.2024 -0.6158  0.1774
  433MOL0     C58372   6.533   6.221   7.903 -0.1945  0.0340 -0.1023
  433MOL0     C58373   6.610   6.332   7.937  0.0574  0.7034 -0.8822
  433MOL0     C58374   6.895   6.658   7.996  0.5976  0.4707 -0.0853
  433MOL0     C58375   7.019   6.634   7.931  0.3393  0.0297 -0.0008
  433MOL0     C58376   7.117   6.736   7.887  0.4325  0.8564 -0.2082
  433MOL0     C58377   7.090   6.867   7.926 -0.6747 -0.0662 -0.3576
  433MOL0     O58378   7.180   6.960   7.875  0.0916 -0.0040 -0.7224
  433MOL0     C58379   7.142   7.101   7.864  0.0720 -0.8994 -0.2466
  433MOL0     C58380   7.263   7.170   7.796  1.5858  0.2591  0.4642
  433MOL0     C58381   7.385   7.198   7.873  0.5561 -0.4022 -0.0655
  433MOL0     C58382   7.487   7.285   7.802  0.4435 -0.0056 -0.3818
  433MOL0     C58383   7.587   7.205   7.721 -0.0382  0.7695 -0.5375
  433MOL0     C58384   7.674   7.155   7.654  0.1032 -0.4213  0.3518
  433MOL0     C58385   6.967   6.896   7.991  0.3469  0.3266  0.1947
  433MOL0     C58386   6.875   6.794   8.021 -0.2070 -0.4275 -0.3314
  433MOL0     C58387   6.746   6.853   8.085  0.3672  0.1233  0.2318
  433MOL0     H58388   6.909   6.169   7.983 -1.1382 -0.6959  1.9251
  433MOL0     H58389   6.770   5.985   7.908  1.0955  1.0057  1.2312
  433MOL0     H58390   6.327   6.056   7.919  0.0312 -1.4917 -1.5690
  433MOL0     H58391   6.328   5.886   7.895  2.1864 -1.1919  0.0972
  433MOL0     H58392   6.429   6.034   8.147 -2.6063 -0.4682  1.6505
  433MOL0     H58393   6.516   5.883   8.104  0.3720 -1.4479 -0.0775
  433MOL0     H58394   6.351   5.829   8.272  1.2210  1.2121 -0.6936
  433MOL0     H58395   6.321   5.746   8.124  2.7687  0.2683 -2.2424
  433MOL0     H58396   6.138   5.863   8.271 -1.9800 -1.2105 -0.1298
  433MOL0     H58397   6.173   6.010   8.189 -1.4792 -0.5869 -0.4751
  433MOL0     H58398   6.137   5.887   7.965  2.1920 -1.5637 -0.0436
  433MOL0     H58399   6.087   5.753   8.070 -0.8070 -0.1461 -1.4888
  433MOL0     H58400   5.941   6.028   8.048 -3.3764 -0.3221  1.9200
  433MOL0     H58401   5.905   5.885   7.967  0.0995  0.5832 -0.8331
  433MOL0     H58402   5.890   5.940   8.263 -0.9525 -0.2895  0.0030
  433MOL0     H58403   5.871   5.781   8.201  0.6480 -1.0498 -2.1390
  433MOL0     H58404   5.716   6.009   8.070  0.9578  0.1020 -0.5726
  433MOL0     H58405   5.690   5.832   8.058  0.0068 -0.3507  1.1072
  433MOL0     H58406   5.713   6.093   8.308 -0.5740 -0.0615 -1.6571
  433MOL0     H58407   5.509   6.167   8.538  0.6829 -0.2161  1.1042
  433MOL0     H58408   5.424   6.039   8.587 -2.1813  2.4091 -2.2662
  433MOL0     H58409   5.608   6.079   8.757 -0.6312 -1.3247  1.7021
  433MOL0     H58410   5.575   5.916   8.690 -1.1643 -0.2100 -1.5234
  433MOL0     H58411   5.783   5.965   8.555  0.3868  0.8449  0.5292
  433MOL0     H58412   5.810   5.957   8.722 -2.1804 -4.2965 -1.6602
  433MOL0     H58413   5.786   6.230   8.718  1.4102 -1.3099  1.7328
  433MOL0     H58414   5.808   6.210   8.547  1.5865  0.3881 -0.0814
  433MOL0     H58415   5.863   6.194   8.905  0.6900 -0.3775  0.4634
  433MOL0     H58416   6.008   6.206   9.106  1.5257 -0.5895  0.1938
  433MOL0     H58417   6.633   6.057   9.233  1.2613  0.0598  0.3686
  433MOL0     H58418   6.764   6.137   9.410  0.1640  0.4235  0.0570
  433MOL0     H58419   6.895   6.284   9.527 -2.3338 -3.3735  4.7279
  433MOL0     H58420   6.832   6.424   9.433 -0.5483 -1.2926 -0.7505
  433MOL0     H58421   6.852   6.564   9.635 -1.1756 -0.4491  1.6618
  433MOL0     H58422   6.889   6.417   9.731  2.3670 -0.8517 -0.0605
  433MOL0     H58423   7.039   6.551   9.501 -3.5610  1.4247  1.0163
  433MOL0     H58424   7.080   6.573   9.656 -1.6777 -1.0031  3.1137
  433MOL0     H58425   7.133   6.297   9.532  1.0893  0.2261 -0.1099
  433MOL0     H58426   7.119   6.332   9.703 -0.6921 -1.3722 -0.8962
  433MOL0     H58427   7.315   6.493   9.520  0.1718 -1.2969 -0.4136
  433MOL0     H58428   7.352   6.343   9.593 -1.8388 -1.2736 -2.7588
  433MOL0     H58429   7.305   6.619   9.719  1.9201  1.0244 -1.5153
  433MOL0     H58430   7.270   6.466   9.816 -2.0133 -1.2449 -2.1408
  433MOL0     H58431   7.515   6.418   9.807  1.5069  1.2448  1.4838
  433MOL0     H58432   7.491   6.588   9.850 -3.1747  1.6109 -0.7363
  433MOL0     H58433   7.567   6.500   9.566  2.6796  0.6591 -0.1009
  433MOL0     H58434   7.550   6.650   9.624 -0.0705  1.1200  1.4586
  433MOL0     H58435   6.464   6.449   9.491  0.0146  3.2725 -2.8190
  433MOL0     H58436   6.347   6.388   9.296  1.7957  2.7192  0.6081
  433MOL0     H58437   6.360   6.169   8.875  0.2518  1.6028  0.2001
  433MOL0     H58438   6.227   6.173   8.665 -0.6543 -1.2379 -0.2828
  433MOL0     H58439   6.432   6.245   7.871  0.7035  2.1696 -1.5251
  433MOL0     H58440   6.566   6.431   7.940 -2.5888 -0.3071 -2.2079
  433MOL0     H58441   7.053   6.532   7.923 -1.5194 -0.5477 -1.0516
  433MOL0     H58442   7.210   6.715   7.835 -0.6613  0.1072 -1.9279
  433MOL0     H58443   7.120   7.136   7.965 -3.3522 -1.8166 -0.5570
  433MOL0     H58444   7.045   7.117   7.817 -0.5903  1.5009  1.7383
  433MOL0     H58445   7.222   7.267   7.768  1.0535 -0.2171 -0.4764
  433MOL0     H58446   7.286   7.121   7.701  2.9591  0.5891  0.6102
  433MOL0     H58447   7.449   7.113   7.899  0.1964 -1.8321 -3.3079
  433MOL0     H58448   7.368   7.260   7.961  2.9826  0.3251 -0.0371
  433MOL0     H58449   7.436   7.357   7.736 -0.1703 -0.5926 -0.5723
  433MOL0     H58450   7.547   7.340   7.874 -1.1154  2.7363 -1.0277
  433MOL0     H58451   7.738   7.118   7.576  1.5800 -0.6951  1.6450
  433MOL0     H58452   6.938   7.000   7.998 -0.4056  0.1562 -0.2920
  433MOL0     H58453   6.766   6.935   8.155 -1.5397 -0.6611  1.8137
  433MOL0     H58454   6.671   6.874   8.009  0.1889 -0.6952  0.1731
  433MOL0     H58455   6.700   6.782   8.154  0.4861  0.5602  0.7758
  434MOL0     O58456   7.965  11.134   9.436  0.1730  0.0547 -0.8809
  434MOL0     C58457   7.895  11.229   9.456  0.7426 -0.5265  0.3791
  434MOL0     O58458   7.940  11.359   9.425 -0.0196  0.5207 -0.4778
  434MOL0     C58459   8.032  11.372   9.323  0.6194 -0.2807 -0.2494
  434MOL0     C58460   8.161  11.312   9.331 -0.3648  0.2118 -0.1651
  434MOL0     C58461   8.265  11.345   9.238  0.6993 -0.3135  0.5083
  434MOL0     C58462   8.224  11.427   9.129  0.4780 -0.4966 -0.0600
  434MOL0     O58463   8.316  11.455   9.033 -0.7100  0.9892  0.5014
  434MOL0     C58464   8.450  11.486   9.079  0.5774  0.1656  0.8156
  434MOL0     C58465   8.532  11.526   8.958  0.8558  0.2810 -0.3604
  434MOL0     C58466   8.682  11.536   9.000 -0.2661 -0.3328  0.8587
  434MOL0     C58467   8.767  11.565   8.881  0.2886  0.5862  0.9475
  434MOL0     C58468   8.915  11.529   8.900  0.3589  0.3018  1.0082
  434MOL0     C58469   9.006  11.613   8.806 -0.5550  0.3001  0.1096
  434MOL0     C58470   8.996  11.757   8.829  0.7528 -0.6321 -0.7281
  434MOL0     C58471   9.113  11.828   8.779 -0.1198  0.1599  0.8878
  434MOL0     N58472   9.118  11.819   8.633  0.0665 -0.2515 -0.2760
  434MOL0     C58473   9.075  11.908   8.549  0.1502 -0.1701  0.7126
  434MOL0     C58474   9.140  11.890   8.430 -0.0082 -0.1696 -0.3769
  434MOL0     C58475   9.121  11.980   8.313 -0.3617  0.2275 -0.2421
  434MOL0     C58476   9.241  12.069   8.293 -0.1280  0.6468 -0.0799
  434MOL0     C58477   9.359  11.998   8.234 -0.9263  0.2924  0.1482
  434MOL0     C58478   9.452  11.938   8.345  0.2331 -0.5493  0.0764
  434MOL0     O58479   9.556  12.040   8.379 -1.1951 -0.0111 -0.5333
  434MOL0     C58480   9.692  12.021   8.340  0.1200  0.7046 -0.4369
  434MOL0     C58481   9.733  11.926   8.242 -0.7151 -0.3358  0.3243
  434MOL0     C58482   9.868  11.911   8.219 -0.9204 -0.4537 -0.2421
  434MOL0     C58483   9.969  11.983   8.294  0.2780 -0.0475  0.6282
  434MOL0     C58484  10.111  11.951   8.265  0.1281  0.1371 -0.6566
  434MOL0     O58485  10.141  11.858   8.166  1.0472 -0.1487  0.1441
  434MOL0     C58486  10.270  11.837   8.132  0.1329 -0.6973  0.7180
  434MOL0     C58487  10.369  11.933   8.099  0.7195 -0.4440 -0.1705
  434MOL0     C58488  10.494  11.896   8.060  1.0618 -0.1593  0.0289
  434MOL0     C58489  10.533  11.770   8.053 -0.1476 -0.6076  0.3439
  434MOL0     O58490  10.661  11.749   8.024  0.2357 -0.6574  0.3026
  434MOL0     C58491  10.667  11.721   7.883 -0.6158  0.0087 -0.1246
  434MOL0     C58492  10.804  11.665   7.848 -0.0648 -0.3492  0.1157
  434MOL0     C58493  10.918  11.763   7.882 -0.3627 -0.3332  0.1229
  434MOL0     C58494  11.046  11.709   7.820 -0.5298 -0.4783  0.4830
  434MOL0     C58495  11.168  11.776   7.877 -0.1248  0.4941  0.4074
  434MOL0     C58496  11.240  11.680   7.969 -0.3846  0.0465 -0.1837
  434MOL0     C58497  11.355  11.748   8.036  0.4874 -0.1450  0.1199
  434MOL0     C58498  11.488  11.743   7.952 -0.1612 -0.0315 -0.2044
  434MOL0    Cl58499  11.608  11.845   8.036  0.0735 -0.2017 -0.1966
  434MOL0     C58500  10.436  11.675   8.064  0.2959  0.8221 -0.5136
  434MOL0     C58501  10.302  11.705   8.112 -0.6044  0.4928 -0.6558
  434MOL0     O58502  10.191  12.011   8.339  1.1894 -0.1258 -0.0208
  434MOL0     C58503   9.920  12.073   8.393  0.4365  0.2406 -0.3773
  434MOL0     C58504   9.781  12.088   8.422  0.2036 -0.2973 -0.6202
  434MOL0     N58505   9.207  11.764   8.439  1.0056 -0.2620 -0.3310
  434MOL0     N58506   9.197  11.731   8.566  0.1761 -0.1223  0.5521
  434MOL0     C58507   8.098  11.487   9.127  0.3408  0.7739  0.3663
  434MOL0     C58508   8.004  11.463   9.224 -0.1723  0.3810 -0.6507
  434MOL0     C58509   7.785  11.215   9.556  0.5938  0.8905  0.0346
  434MOL0     C58510   7.809  11.137   9.674  0.2770  0.4376  0.7731
  434MOL0     C58511   7.708  11.135   9.767 -0.3846  0.4059  0.4211
  434MOL0     C58512   7.585  11.199   9.749  0.1448  0.0641 -0.6166
  434MOL0     O58513   7.480  11.181   9.833  0.0530 -0.7214 -0.3703
  434MOL0     C58514   7.474  11.082   9.936 -0.3358  0.2738  0.9786
  434MOL0     C58515   7.453  10.941   9.865  0.1132  0.6688  0.4704
  434MOL0     C58516   7.376  10.944   9.738  0.1553  0.0303  0.4958
  434MOL0     C58517   7.226  10.996   9.753  0.4555 -0.5252  0.0251
  434MOL0     C58518   7.140  10.910   9.835  0.3456 -0.1292 -0.0685
  434MOL0     C58519   7.073  10.833   9.903  0.4842  0.0400 -0.0256
  434MOL0     C58520   7.570  11.280   9.640 -0.6899  0.5062  0.2815
  434MOL0     C58521   7.665  11.285   9.538 -0.5213 -0.9101 -0.2812
  434MOL0     C58522   7.648  11.382   9.421  0.6532 -1.0067  0.0665
  434MOL0     H58523   8.182  11.250   9.418 -0.5913 -1.4574 -1.2429
  434MOL0     H58524   8.364  11.310   9.265 -0.4965 -1.7187  3.5127
  434MOL0     H58525   8.437  11.568   9.150 -2.5753  0.2346  0.3283
  434MOL0     H58526   8.506  11.402   9.122 -0.1447  0.0975  1.6515
  434MOL0     H58527   8.501  11.623   8.919  1.8024 -0.1273 -2.2832
  434MOL0     H58528   8.517  11.452   8.878  2.2881 -3.5421  2.6098
  434MOL0     H58529   8.707  11.438   9.041  1.9283  1.8667  5.4674
  434MOL0     H58530   8.703  11.610   9.077  0.1874  1.7828 -1.1797
  434MOL0     H58531   8.744  11.508   8.790  4.2812  0.8227 -0.4282
  434MOL0     H58532   8.738  11.668   8.859 -2.5747  0.2453  2.6929
  434MOL0     H58533   8.935  11.544   9.007 -0.1550 -0.5754  1.2338
  434MOL0     H58534   8.924  11.421   8.885 -1.4089  0.0520  1.5287
  434MOL0     H58535   9.111  11.583   8.816 -0.6855  0.3035  1.8807
  434MOL0     H58536   8.983  11.591   8.702  1.4307  3.8847 -1.2371
  434MOL0     H58537   8.991  11.768   8.938  0.0167 -0.5775 -0.7592
  434MOL0     H58538   8.906  11.796   8.780 -0.3163 -2.6267 -0.4786
  434MOL0     H58539   9.100  11.935   8.801  0.0216  0.1764  0.8937
  434MOL0     H58540   9.205  11.797   8.829 -0.8160  1.4605  3.1160
  434MOL0     H58541   8.996  11.979   8.568  0.9221  1.6685 -2.3569
  434MOL0     H58542   9.113  11.925   8.218  1.3717  2.3862 -1.7460
  434MOL0     H58543   9.025  12.031   8.318  0.3687  1.5396  1.2051
  434MOL0     H58544   9.222  12.156   8.229  1.6480  0.9995 -0.1854
  434MOL0     H58545   9.259  12.121   8.387 -0.0429  1.4208 -0.5131
  434MOL0     H58546   9.407  12.078   8.178 -0.9155 -0.5784 -1.1258
  434MOL0     H58547   9.332  11.919   8.163  1.9263 -2.5553  1.9488
  434MOL0     H58548   9.492  11.840   8.319  2.4241  0.3206 -0.0975
  434MOL0     H58549   9.407  11.926   8.444 -2.3598  2.9788 -0.4633
  434MOL0     H58550   9.658  11.871   8.186 -1.0092  1.2399 -0.8813
  434MOL0     H58551   9.902  11.845   8.139 -0.9948 -1.5371  0.5911
  434MOL0     H58552  10.333  12.035   8.108  0.1273 -0.6250 -0.4023
  434MOL0     H58553  10.561  11.975   8.030  0.8362  0.5071  1.1968
  434MOL0     H58554  10.587  11.657   7.845 -1.1554  1.3538 -1.3382
  434MOL0     H58555  10.671  11.807   7.816  0.8340 -1.1143 -1.5604
  434MOL0     H58556  10.821  11.576   7.910 -0.7605 -0.7056 -0.1907
  434MOL0     H58557  10.798  11.643   7.741 -0.8660 -0.4445  0.1767
  434MOL0     H58558  10.899  11.860   7.835  0.8718  0.3102  0.9237
  434MOL0     H58559  10.940  11.773   7.989  2.1017  0.7134 -0.4106
  434MOL0     H58560  11.042  11.728   7.713  0.6134 -1.2488  0.2845
  434MOL0     H58561  11.033  11.600   7.828 -2.6487 -0.3350 -0.4445
  434MOL0     H58562  11.146  11.873   7.922  2.8480  1.4014  0.1230
  434MOL0     H58563  11.229  11.799   7.789  0.2009 -2.6166 -0.2948
  434MOL0     H58564  11.166  11.654   8.044  0.8666  1.8982  1.8109
  434MOL0     H58565  11.269  11.585   7.923  1.9799  0.5771  0.0750
  434MOL0     H58566  11.375  11.702   8.134  0.1333 -0.3895  0.0797
  434MOL0     H58567  11.331  11.854   8.043  0.5995  0.0662 -1.9724
  434MOL0     H58568  11.525  11.640   7.941  1.2539 -0.0336  3.2784
  434MOL0     H58569  11.466  11.789   7.856 -4.2139 -1.1770 -0.0035
  434MOL0     H58570  10.463  11.573   8.040  1.1452  0.7930  0.4895
  434MOL0     H58571  10.225  11.633   8.137 -1.2216  1.4628  0.2884
  434MOL0     H58572  10.000  12.121   8.448  1.7369 -1.9477 -0.2582
  434MOL0     H58573   9.747  12.151   8.504 -1.4662 -0.3415 -1.2446
  434MOL0     H58574   8.066  11.547   9.042  1.6359  0.6598 -0.2221
  434MOL0     H58575   7.906  11.510   9.224 -0.6719 -0.6456 -0.7126
  434MOL0     H58576   7.898  11.077   9.690 -0.4049 -0.2786  2.0255
  434MOL0     H58577   7.731  11.072   9.852  0.1772  0.1910  0.1146
  434MOL0     H58578   7.397  11.096  10.013 -0.3660  0.3761  0.9292
  434MOL0     H58579   7.565  11.081   9.996  0.2474  0.0795  0.0963
  434MOL0     H58580   7.404  10.867   9.929 -0.2050  0.4262 -0.0444
  434MOL0     H58581   7.551  10.902   9.837  0.7440  1.5558  1.3751
  434MOL0     H58582   7.381  10.841   9.700  2.8807  0.6761 -1.1713
  434MOL0     H58583   7.431  11.006   9.667  2.1934  1.0078  2.7807
  434MOL0     H58584   7.227  11.094   9.802 -2.3143  0.8861 -2.4456
  434MOL0     H58585   7.184  11.009   9.653  1.3398  2.0640 -0.0877
  434MOL0     H58586   7.007  10.761   9.947 -2.9062  0.6115 -3.5746
  434MOL0     H58587   7.476  11.334   9.629 -2.0450 -1.6700  0.7000
  434MOL0     H58588   7.651  11.332   9.324 -0.7742 -2.5443  0.7665
  434MOL0     H58589   7.559  11.445   9.418  1.2965 -0.1040 -1.8334
  434MOL0     H58590   7.725  11.459   9.433 -1.2754  0.9956  0.0194
  435MOL0     O58591   0.511  10.609   9.355 -0.1435  0.5455 -0.4969
  435MOL0     C58592   0.570  10.508   9.388  0.1566 -0.1305  0.4091
  435MOL0     O58593   0.528  10.390   9.355 -0.0891  0.9882 -0.4266
  435MOL0     C58594   0.399  10.378   9.322  0.9882  0.5452 -0.1574
  435MOL0     C58595   0.306  10.327   9.407  0.4225 -0.1721  0.5711
  435MOL0     C58596   0.172  10.317   9.360 -0.6400  0.3267  0.2971
  435MOL0     C58597   0.133  10.338   9.223 -0.7394 -0.5807  0.1568
  435MOL0     O58598   0.007  10.308   9.192  0.2299 -0.6025  0.8900
  435MOL0     C58599  -0.064  10.370   9.069 -0.8997  0.8627 -0.6251
  435MOL0     C58600  -0.212  10.383   9.106 -0.2883  0.4801  0.1411
  435MOL0     C58601  -0.275  10.243   9.110 -0.2709  1.0415 -0.8601
  435MOL0     C58602  -0.426  10.245   9.141 -0.1299 -0.0415  0.6994
  435MOL0     C58603  -0.506  10.114   9.121 -0.1412 -0.5965  0.4994
  435MOL0     C58604  -0.496  10.024   9.237 -0.4841  0.5341  0.1480
  435MOL0     C58605  -0.602   9.925   9.223  0.6310  0.9853 -0.7543
  435MOL0     C58606  -0.726   9.958   9.302 -0.3216 -0.0467  0.1264
  435MOL0     N58607  -0.835   9.863   9.273  0.5007 -0.2012 -0.4352
  435MOL0     C58608  -0.951   9.900   9.204 -0.8526 -1.1949 -0.2207
  435MOL0     C58609  -1.044   9.804   9.237  0.3500 -0.0748 -1.2358
  435MOL0     C58610  -1.185   9.793   9.203 -0.2963 -0.0523  0.9095
  435MOL0     C58611  -1.271   9.860   9.305  0.0652 -0.3913  0.2673
  435MOL0     C58612  -1.420   9.862   9.258  0.3465  0.1266  0.1518
  435MOL0     C58613  -1.496   9.730   9.288 -0.8236 -0.0141  0.0732
  435MOL0     O58614  -1.506   9.714   9.429  0.1181 -0.0895  0.3768
  435MOL0     C58615  -1.577   9.617   9.489  0.8255 -0.0257  0.9323
  435MOL0     C58616  -1.596   9.645   9.623 -0.4077  0.6057  0.5498
  435MOL0     C58617  -1.674   9.550   9.697  0.7628  0.1769  0.4500
  435MOL0     C58618  -1.725   9.434   9.639  0.4519  0.1454 -0.2434
  435MOL0     C58619  -1.773   9.331   9.730  0.2379 -0.1223  0.2503
  435MOL0     O58620  -1.743   9.201   9.697 -0.2781  0.1544  0.4033
  435MOL0     C58621  -1.754   9.101   9.791 -0.6038  0.1946  0.3848
  435MOL0     C58622  -1.638   9.027   9.834 -0.2477  0.0024  1.0198
  435MOL0     C58623  -1.646   8.943   9.942 -0.0392 -0.3139 -0.2906
  435MOL0     C58624  -1.770   8.912  10.002  0.7428 -0.5691  0.4598
  435MOL0     O58625  -1.776   8.829  10.115 -0.7384 -1.3055  0.6563
  435MOL0     C58626  -1.910   8.796  10.172 -0.0082  0.0682  0.5553
  435MOL0     C58627  -1.897   8.707  10.297  0.3204  0.7324  0.0931
  435MOL0     C58628  -2.035   8.674  10.348  1.2658  0.0599 -0.0130
  435MOL0     C58629  -2.022   8.590  10.472 -0.4182  0.6702 -0.3247
  435MOL0     C58630  -2.159   8.584  10.553 -0.1723  0.2309  0.7720
  435MOL0     C58631  -2.135   8.501  10.684  0.6277 -0.6731  0.3445
  435MOL0     C58632  -2.240   8.511  10.789  1.5126  0.6000  0.5052
  435MOL0     C58633  -2.228   8.406  10.903 -0.4876  0.2670 -0.2428
  435MOL0    Cl58634  -2.077   8.449  10.993  0.5892  0.2392 -0.2777
  435MOL0     C58635  -1.889   8.972   9.955 -0.1644 -1.5470  0.1418
  435MOL0     C58636  -1.877   9.070   9.855 -0.2930  0.0991 -0.1515
  435MOL0     O58637  -1.845   9.363   9.824 -0.2579 -0.1492  0.2387
  435MOL0     C58638  -1.703   9.410   9.502  1.2622  0.0833 -0.3260
  435MOL0     C58639  -1.634   9.504   9.429  0.2423 -0.2966  0.2070
  435MOL0     N58640  -0.984   9.713   9.322 -0.1051 -1.2072  0.3539
  435MOL0     N58641  -0.854   9.744   9.337  0.4156 -0.0088  0.8361
  435MOL0     C58642   0.240  10.374   9.134 -0.2253  0.1281 -0.6701
  435MOL0     C58643   0.365  10.399   9.187 -0.3496 -0.6433 -0.1145
  435MOL0     C58644   0.712  10.530   9.430  0.1359  0.2236  0.0294
  435MOL0     C58645   0.807  10.420   9.409 -1.0028  0.4907  0.3026
  435MOL0     C58646   0.942  10.440   9.424  0.8597 -0.4093  1.0142
  435MOL0     C58647   0.986  10.560   9.480  0.4694  0.1389 -0.6225
  435MOL0     O58648   1.118  10.590   9.504 -1.1128  0.5272 -0.4511
  435MOL0     C58649   1.220  10.538   9.417 -0.5112 -0.3749  0.1678
  435MOL0     C58650   1.345  10.625   9.455  1.2109  0.2652 -0.3712
  435MOL0     C58651   1.387  10.579   9.600  1.0989  0.4700  0.5215
  435MOL0     C58652   1.501  10.667   9.662  0.0637 -1.0349  0.2284
  435MOL0     C58653   1.630  10.646   9.602 -0.1984 -0.1290  0.1429
  435MOL0     C58654   1.740  10.620   9.548 -0.3661 -0.0710  0.7885
  435MOL0     C58655   0.891  10.657   9.517 -0.4876 -0.1090  0.1721
  435MOL0     C58656   0.760  10.641   9.498 -0.3493 -0.4031 -0.4294
  435MOL0     C58657   0.687  10.758   9.567 -0.4075  0.4337 -0.3420
  435MOL0     H58658   0.327  10.320   9.513  0.9144 -2.6677  0.3870
  435MOL0     H58659   0.094  10.277   9.424  0.3039 -1.5339  0.3423
  435MOL0     H58660  -0.033  10.472   9.047  0.8612 -0.1764 -3.4943
  435MOL0     H58661  -0.048  10.316   8.976  2.6869 -2.2875  1.5415
  435MOL0     H58662  -0.248  10.436   9.017 -2.3138  0.2224  0.7619
  435MOL0     H58663  -0.229  10.434   9.201  2.9207  0.0004  1.1179
  435MOL0     H58664  -0.238  10.185   9.195 -3.8851 -0.0251  0.1625
  435MOL0     H58665  -0.254  10.191   9.015  0.6167  2.0532 -1.2349
  435MOL0     H58666  -0.453  10.294   9.236  0.1506 -0.7677  1.1589
  435MOL0     H58667  -0.461  10.321   9.070 -1.2272 -1.4233 -0.2963
  435MOL0     H58668  -0.612  10.140   9.108  0.2387 -0.1362 -2.2741
  435MOL0     H58669  -0.482  10.065   9.026 -2.2168  1.3481 -1.1449
  435MOL0     H58670  -0.397   9.977   9.237 -1.5682 -1.9923  1.5698
  435MOL0     H58671  -0.520  10.088   9.323 -1.5854 -0.5363  0.6838
  435MOL0     H58672  -0.571   9.826   9.255  1.5468  1.5888  0.2775
  435MOL0     H58673  -0.632   9.911   9.118  0.7042 -1.1398 -0.5343
  435MOL0     H58674  -0.710   9.957   9.410  0.6848 -3.1793  0.0589
  435MOL0     H58675  -0.765  10.055   9.271 -0.3617 -0.9954 -3.2489
  435MOL0     H58676  -0.942   9.982   9.134 -0.1519 -0.5268  0.6220
  435MOL0     H58677  -1.209   9.853   9.115 -0.5940 -1.1482  0.2254
  435MOL0     H58678  -1.211   9.687   9.193 -0.1846 -0.2166  2.1280
  435MOL0     H58679  -1.266   9.807   9.401 -0.2551 -2.1436 -0.6336
  435MOL0     H58680  -1.241   9.964   9.316 -1.9155  0.5555 -2.4396
  435MOL0     H58681  -1.420   9.877   9.149  2.6146 -0.1080  0.0706
  435MOL0     H58682  -1.474   9.949   9.295 -0.2174  0.4959 -1.4306
  435MOL0     H58683  -1.444   9.644   9.244 -0.8458  0.9771 -2.0244
  435MOL0     H58684  -1.592   9.739   9.237 -0.2005 -1.1452 -1.3740
  435MOL0     H58685  -1.547   9.730   9.667 -0.5142  1.0622 -0.1877
  435MOL0     H58686  -1.693   9.566   9.802 -2.4376  1.2150 -0.1639
  435MOL0     H58687  -1.550   9.061   9.781 -0.5390  1.5098  1.4653
  435MOL0     H58688  -1.552   8.911   9.986  0.0825  1.5056  0.8732
  435MOL0     H58689  -1.970   8.886  10.190 -0.6258 -0.1213 -0.4830
  435MOL0     H58690  -1.963   8.738  10.097 -4.0833  0.2440  3.0137
  435MOL0     H58691  -1.840   8.615  10.281  0.7185  0.8547  0.7529
  435MOL0     H58692  -1.849   8.766  10.376 -0.2882  1.3080  0.0341
  435MOL0     H58693  -2.075   8.771  10.378  2.1283  0.3943  0.0877
  435MOL0     H58694  -2.092   8.634  10.264  2.2398  0.4326 -0.8665
  435MOL0     H58695  -1.955   8.641  10.542 -0.2770 -2.8430  2.3649
  435MOL0     H58696  -1.982   8.491  10.450  0.8168  0.2201  3.2887
  435MOL0     H58697  -2.229   8.526  10.493 -1.1382 -0.1911  2.2540
  435MOL0     H58698  -2.195   8.685  10.574 -0.8579 -0.3356  2.4206
  435MOL0     H58699  -2.132   8.401  10.641  2.4081 -0.6211  0.2818
  435MOL0     H58700  -2.037   8.533  10.720  0.3031 -0.2628  0.8959
  435MOL0     H58701  -2.342   8.505  10.751  1.1778  0.2014  1.4547
  435MOL0     H58702  -2.241   8.607  10.840 -1.4125 -0.1904  2.1720
  435MOL0     H58703  -2.310   8.412  10.975 -1.4094  0.3288 -1.2626
  435MOL0     H58704  -2.220   8.302  10.871  2.9786  1.1405 -2.8761
  435MOL0     H58705  -1.985   8.967  10.005 -1.5110  7.2413  0.0687
  435MOL0     H58706  -1.967   9.118   9.817 -1.5184 -1.3513  0.8112
  435MOL0     H58707  -1.753   9.324   9.457 -0.2775  0.0834  1.2503
  435MOL0     H58708  -1.620   9.500   9.322 -1.5743  0.5762 -0.1131
  435MOL0     H58709   0.220  10.389   9.029  1.0170  2.6242 -0.6256
  435MOL0     H58710   0.435  10.443   9.116 -0.0903 -2.1292 -0.8123
  435MOL0     H58711   0.778  10.320   9.380 -1.8583  0.8613 -0.1568
  435MOL0     H58712   1.009  10.366   9.382  0.0768  1.0960 -3.3888
  435MOL0     H58713   1.194  10.562   9.313  0.2267  2.4430  0.5479
  435MOL0     H58714   1.244  10.432   9.410 -1.4586 -0.5948  0.1024
  435MOL0     H58715   1.318  10.731   9.455  2.7287  0.6777  0.3736
  435MOL0     H58716   1.422  10.611   9.379  0.0468 -1.0475 -1.3817
  435MOL0     H58717   1.420  10.474   9.594 -1.1125 -0.2892  0.8330
  435MOL0     H58718   1.294  10.587   9.656  0.9432  0.8076  0.2198
  435MOL0     H58719   1.464  10.769   9.649  0.5343 -1.0397 -1.3112
  435MOL0     H58720   1.509  10.658   9.771 -1.0790  1.6261  0.6237
  435MOL0     H58721   1.827  10.602   9.488 -1.4680 -0.2726 -0.8137
  435MOL0     H58722   0.934  10.740   9.573  0.7459  0.0311 -0.9185
  435MOL0     H58723   0.699  10.855   9.519  0.7526  2.2350  3.2597
  435MOL0     H58724   0.581  10.731   9.562  0.0249 -1.1909 -3.0628
  435MOL0     H58725   0.714  10.770   9.672  0.0033 -2.3093 -0.0455
  436MOL0     O58726   2.340   9.907   4.720  0.0514 -0.1881  0.8038
  436MOL0     C58727   2.228   9.871   4.668 -0.4246  0.5896 -0.2959
  436MOL0     O58728   2.210   9.745   4.613  0.2302 -0.3818 -0.4985
  436MOL0     C58729   2.296   9.638   4.638  0.2313 -0.3710  0.2954
  436MOL0     C58730   2.362   9.611   4.760 -0.0484 -0.4752  0.0437
  436MOL0     C58731   2.440   9.501   4.774  1.0769 -0.3939 -0.6845
  436MOL0     C58732   2.461   9.407   4.671  0.4495 -0.3704  0.0020
  436MOL0     O58733   2.544   9.304   4.702  0.0550 -0.7866 -0.2866
  436MOL0     C58734   2.591   9.226   4.596  0.6223 -0.0886 -0.0522
  436MOL0     C58735   2.693   9.304   4.509 -0.5803  0.4177  0.5667
  436MOL0     C58736   2.735   9.223   4.385 -1.4410  0.0686  0.6400
  436MOL0     C58737   2.862   9.288   4.326  0.3119  1.0019  0.3083
  436MOL0     C58738   2.989   9.192   4.323 -0.1026  0.0600  0.3822
  436MOL0     C58739   3.099   9.253   4.233 -0.2155  0.1797  0.4992
  436MOL0     C58740   3.245   9.200   4.265 -0.8044 -1.2682  0.0013
  436MOL0     C58741   3.347   9.275   4.174  0.3802  0.0539 -0.1395
  436MOL0     N58742   3.479   9.257   4.228 -0.3306  0.2526  0.4044
  436MOL0     C58743   3.547   9.308   4.337 -0.2928  0.0524 -0.1105
  436MOL0     C58744   3.670   9.258   4.326  0.0343 -0.1959 -0.5809
  436MOL0     C58745   3.769   9.290   4.439  0.6194  0.2082  0.1821
  436MOL0     C58746   3.907   9.323   4.377 -0.4919 -0.1954 -0.3582
  436MOL0     C58747   3.994   9.347   4.495 -0.2100 -0.4402 -1.1474
  436MOL0     C58748   4.120   9.395   4.435 -0.4495 -0.2158 -0.1531
  436MOL0     O58749   4.093   9.514   4.357 -0.1495  1.0373 -0.2106
  436MOL0     C58750   4.197   9.567   4.283 -1.1488  0.5456 -0.5393
  436MOL0     C58751   4.333   9.539   4.293 -0.4453 -0.2984  0.5634
  436MOL0     C58752   4.435   9.593   4.202  0.2956 -0.5256  0.1822
  436MOL0     C58753   4.396   9.688   4.102  0.1888 -0.2635 -0.2167
  436MOL0     C58754   4.499   9.755   4.024  0.0782 -0.6160  0.7494
  436MOL0     O58755   4.624   9.695   4.020 -0.4917 -0.4334 -0.5357
  436MOL0     C58756   4.705   9.704   3.908  0.2180 -0.4521  0.3321
  436MOL0     C58757   4.708   9.797   3.806  0.4421 -0.0583  0.0425
  436MOL0     C58758   4.820   9.791   3.723  0.0922 -0.4091  0.6764
  436MOL0     C58759   4.920   9.687   3.733 -0.9980 -0.6252  0.1520
  436MOL0     O58760   5.026   9.692   3.644 -0.3725  0.8147 -0.3732
  436MOL0     C58761   5.129   9.790   3.673 -0.0601 -0.2863  0.2148
  436MOL0     C58762   5.105   9.917   3.584 -0.9167 -0.9807  0.2787
  436MOL0     C58763   5.215  10.018   3.589  0.5361  0.7474 -0.1043
  436MOL0     C58764   5.350   9.963   3.548 -0.2643  0.3806 -0.2425
  436MOL0     C58765   5.459  10.036   3.626  0.2669 -0.1015  0.5548
  436MOL0     C58766   5.600  10.025   3.571 -0.6779  0.0182 -0.4634
  436MOL0     C58767   5.660   9.899   3.639 -0.6697 -0.5768  0.5654
  436MOL0     C58768   5.802   9.876   3.595  0.8979  0.4099  0.2954
  436MOL0    Cl58769   5.857   9.722   3.671 -0.4088 -0.6211  0.1323
  436MOL0     C58770   4.900   9.587   3.821 -0.5014 -0.5988  0.6296
  436MOL0     C58771   4.804   9.600   3.912  0.7625 -0.1165  0.0367
  436MOL0     O58772   4.456   9.841   3.944 -0.4500  0.2849 -0.0021
  436MOL0     C58773   4.262   9.716   4.096 -0.3937 -0.1225  0.8314
  436MOL0     C58774   4.171   9.662   4.189  0.1845 -0.8464  0.7742
  436MOL0     N58775   3.680   9.177   4.213 -0.2321 -0.5013  0.1759
  436MOL0     N58776   3.564   9.177   4.155  0.3538  0.0180  0.0099
  436MOL0     C58777   2.386   9.432   4.547  0.1546 -0.5231  0.1350
  436MOL0     C58778   2.304   9.544   4.535  0.6294  0.0101 -0.4214
  436MOL0     C58779   2.126   9.975   4.643  0.7291 -0.1055  0.0762
  436MOL0     C58780   2.024   9.942   4.557  0.8217 -0.4096  0.4242
  436MOL0     C58781   1.921  10.024   4.524 -0.0786 -0.3469 -0.5151
  436MOL0     C58782   1.898  10.139   4.596  0.0611 -1.0097 -0.3523
  436MOL0     O58783   1.790  10.227   4.587 -0.9560 -0.0040  0.5207
  436MOL0     C58784   1.678  10.186   4.511 -0.6920 -0.2235 -0.0788
  436MOL0     C58785   1.567  10.254   4.574 -0.0568  0.6397  0.0049
  436MOL0     C58786   1.440  10.218   4.490  0.5348  0.5506 -0.0081
  436MOL0     C58787   1.299  10.248   4.556  0.4387  1.1117  0.2267
  436MOL0     C58788   1.273  10.389   4.565 -0.6902  0.5156 -0.5967
  436MOL0     C58789   1.257  10.506   4.591  0.3737 -0.0217  0.4007
  436MOL0     C58790   1.998  10.177   4.692 -0.7422  0.6693  0.0661
  436MOL0     C58791   2.110  10.102   4.719 -0.2927  0.7180  0.4293
  436MOL0     C58792   2.192  10.145   4.830 -0.6854 -0.5581  0.7656
  436MOL0     H58793   2.364   9.676   4.847 -2.1577  0.2711 -0.4107
  436MOL0     H58794   2.500   9.481   4.862  0.9778  1.3602 -0.1814
  436MOL0     H58795   2.629   9.132   4.636  1.2779  1.2850  2.8242
  436MOL0     H58796   2.514   9.200   4.523  2.3396  0.3799 -2.1505
  436MOL0     H58797   2.786   9.332   4.558  1.2625 -3.6771 -0.1366
  436MOL0     H58798   2.639   9.395   4.480 -2.0554  0.3085  2.7434
  436MOL0     H58799   2.650   9.224   4.317 -2.9847 -3.1349  2.3037
  436MOL0     H58800   2.752   9.119   4.412 -0.6180  0.4156  1.5011
  436MOL0     H58801   2.838   9.309   4.222 -0.3780 -0.4781  0.1503
  436MOL0     H58802   2.895   9.379   4.378  1.3915 -0.3999  2.2450
  436MOL0     H58803   3.032   9.189   4.423 -0.0758  3.1148  0.5631
  436MOL0     H58804   2.969   9.088   4.295 -1.9828 -0.2120  2.4176
  436MOL0     H58805   3.081   9.221   4.130  0.8662  2.7329 -0.5725
  436MOL0     H58806   3.089   9.359   4.255 -3.2616 -0.1116  0.8982
  436MOL0     H58807   3.258   9.092   4.251 -1.3480 -1.4449  0.8314
  436MOL0     H58808   3.260   9.229   4.369 -5.1314 -0.6280  0.6332
  436MOL0     H58809   3.316   9.245   4.073  1.1058 -2.1045  0.2435
  436MOL0     H58810   3.322   9.381   4.189 -0.0862 -0.3466  2.3679
  436MOL0     H58811   3.499   9.376   4.406 -1.4816  0.6042 -1.4275
  436MOL0     H58812   3.735   9.377   4.497  0.3836 -0.9287  1.8231
  436MOL0     H58813   3.790   9.207   4.507  0.6550  1.0784  1.2628
  436MOL0     H58814   3.943   9.245   4.310  1.4970  1.7077 -1.6506
  436MOL0     H58815   3.892   9.410   4.311 -0.7774 -1.1640 -1.5972
  436MOL0     H58816   4.018   9.259   4.554  1.7031 -1.4537 -3.2687
  436MOL0     H58817   3.964   9.435   4.553 -1.6770 -0.5121 -1.7580
  436MOL0     H58818   4.168   9.317   4.376  1.4267  1.0419 -0.4067
  436MOL0     H58819   4.189   9.420   4.516 -0.1123 -0.8452 -0.2374
  436MOL0     H58820   4.366   9.459   4.357  2.1642 -0.0215 -0.3400
  436MOL0     H58821   4.538   9.565   4.222  0.1158 -0.1594  1.8163
  436MOL0     H58822   4.638   9.872   3.772 -0.3889 -2.0079 -2.9829
  436MOL0     H58823   4.805   9.855   3.637 -3.1815  0.1088  1.4901
  436MOL0     H58824   5.125   9.824   3.777 -0.3059 -1.4075  0.5829
  436MOL0     H58825   5.220   9.734   3.655 -0.7059 -1.6923  1.1560
  436MOL0     H58826   5.093   9.891   3.478 -2.3166 -0.4207  0.2739
  436MOL0     H58827   5.006   9.958   3.607 -1.8158 -4.0603  2.5675
  436MOL0     H58828   5.189  10.100   3.522  0.3929  1.0071  0.2682
  436MOL0     H58829   5.223  10.044   3.695 -1.6064 -3.6039  1.3806
  436MOL0     H58830   5.368   9.988   3.443 -1.9537  4.2273  0.2081
  436MOL0     H58831   5.353   9.856   3.572 -3.3123  0.6718  2.0400
  436MOL0     H58832   5.455  10.000   3.729 -0.8715 -1.8539 -0.0403
  436MOL0     H58833   5.431  10.141   3.622 -2.4708 -0.7036 -4.5962
  436MOL0     H58834   5.609  10.000   3.465  2.7907  0.4508 -0.3779
  436MOL0     H58835   5.646  10.122   3.594 -2.4012  0.5252  1.0865
  436MOL0     H58836   5.603   9.813   3.600  0.0621 -1.0866  0.6032
  436MOL0     H58837   5.660   9.910   3.747  0.0664 -3.1880  0.9051
  436MOL0     H58838   5.807   9.879   3.486  0.8698  0.7315  0.3036
  436MOL0     H58839   5.871   9.956   3.623 -0.5610  1.0196  2.4930
  436MOL0     H58840   4.965   9.501   3.812  1.9264  1.2815 -0.9540
  436MOL0     H58841   4.794   9.530   3.995  3.3975 -0.6260  0.0014
  436MOL0     H58842   4.218   9.772   4.014 -0.8430 -2.8564 -0.9546
  436MOL0     H58843   4.064   9.672   4.173  0.5178  0.1172 -1.1312
  436MOL0     H58844   2.401   9.379   4.453  1.9089 -0.3231  0.2861
  436MOL0     H58845   2.245   9.567   4.448  0.2232  0.1154 -0.1181
  436MOL0     H58846   2.028   9.843   4.514 -2.4081 -0.7048  0.5400
  436MOL0     H58847   1.852   9.990   4.448 -1.3469  3.2489 -1.1896
  436MOL0     H58848   1.654  10.081   4.525 -0.9711  0.0262  1.6294
  436MOL0     H58849   1.686  10.210   4.405 -0.6037  2.7517  0.4902
  436MOL0     H58850   1.582  10.361   4.591  0.9392  0.3408  1.1489
  436MOL0     H58851   1.569  10.229   4.680  2.0209  0.1427 -0.0981
  436MOL0     H58852   1.443  10.111   4.470  2.0367  1.0139 -2.9524
  436MOL0     H58853   1.445  10.260   4.389  3.6037 -3.8237 -2.0138
  436MOL0     H58854   1.218  10.211   4.492  1.7520 -0.2340 -0.7195
  436MOL0     H58855   1.305  10.196   4.653 -1.3237 -1.1961 -0.7860
  436MOL0     H58856   1.246  10.610   4.616 -1.2794 -0.2821  0.8895
  436MOL0     H58857   2.001  10.277   4.734  1.0402  0.5842  0.2191
  436MOL0     H58858   2.298  10.128   4.808 -0.3530  1.4595  0.5580
  436MOL0     H58859   2.179  10.254   4.835  1.1834 -0.3212  1.0867
  436MOL0     H58860   2.146  10.106   4.921  0.5230 -2.0192  0.7845
  437MOL0     O58861   8.196   6.869   8.633 -0.2836 -0.4969  0.1782
  437MOL0     C58862   8.157   6.965   8.692  0.3506 -0.0048 -0.1823
  437MOL0     O58863   8.200   7.096   8.684 -0.1213  1.2275  0.1565
  437MOL0     C58864   8.324   7.106   8.612  0.3558 -0.1543  0.1998
  437MOL0     C58865   8.328   7.198   8.509  0.0477 -0.5970 -0.1468
  437MOL0     C58866   8.454   7.225   8.445  0.0348 -0.4447  0.9286
  437MOL0     C58867   8.570   7.158   8.479  0.3644  0.0158 -0.1494
  437MOL0     O58868   8.691   7.174   8.422  0.2889  0.1153 -0.4164
  437MOL0     C58869   8.719   7.295   8.363  0.2157 -0.1489  0.6507
  437MOL0     C58870   8.870   7.300   8.330  0.5567  0.0230  0.2275
  437MOL0     C58871   8.967   7.335   8.449 -0.5484 -0.3922  0.7071
  437MOL0     C58872   8.936   7.480   8.486 -0.9846 -0.1889  1.0867
  437MOL0     C58873   9.044   7.538   8.581 -0.2955 -0.2734 -0.5517
  437MOL0     C58874   9.009   7.681   8.626 -0.3702  0.2205 -0.2961
  437MOL0     C58875   9.065   7.723   8.763  0.0306  1.0206 -0.3948
  437MOL0     C58876   9.223   7.690   8.783 -0.8025 -0.2613  0.4936
  437MOL0     N58877   9.310   7.793   8.726  0.0760  0.2079  0.4639
  437MOL0     C58878   9.333   7.922   8.777 -0.0286  0.3835  0.5521
  437MOL0     C58879   9.433   7.979   8.696  0.0053  0.3299 -0.0737
  437MOL0     C58880   9.474   8.124   8.697  0.0060  1.2785 -0.3259
  437MOL0     C58881   9.604   8.146   8.778 -0.1747 -0.9072  0.1611
  437MOL0     C58882   9.718   8.065   8.719  1.4298  0.4931  0.1739
  437MOL0     C58883   9.848   8.103   8.783  0.0205  0.3683  0.2694
  437MOL0     O58884   9.953   8.014   8.745  0.6032  0.1228  0.0480
  437MOL0     C58885  10.079   8.037   8.779 -0.7002  0.0324  0.4867
  437MOL0     C58886  10.170   7.940   8.730 -0.5040 -1.0015  0.1513
  437MOL0     C58887  10.308   7.946   8.757 -0.0890 -0.5027 -0.1798
  437MOL0     C58888  10.357   8.059   8.843  0.6019  0.6209 -0.1338
  437MOL0     C58889  10.494   8.066   8.894  0.1952 -0.2728  0.3315
  437MOL0     O58890  10.575   7.962   8.853 -0.0951 -0.4654 -0.1994
  437MOL0     C58891  10.710   7.958   8.873  0.1869 -0.2438  0.3539
  437MOL0     C58892  10.788   7.953   8.759 -0.5520 -0.9535  0.0997
  437MOL0     C58893  10.919   7.936   8.768 -0.4104 -0.1943  0.9779
  437MOL0     C58894  10.982   7.926   8.890  0.0512 -0.5149 -0.1840
  437MOL0     O58895  11.109   7.885   8.903 -0.8120  0.5157 -0.0382
  437MOL0     C58896  11.203   7.964   8.833  0.8889 -0.4790  0.0101
  437MOL0     C58897  11.337   7.923   8.888  0.2004 -0.2897  0.0703
  437MOL0     C58898  11.382   8.009   9.005 -0.0029  0.4249  0.2378
  437MOL0     C58899  11.507   7.970   9.071 -0.5335 -0.1994 -0.5369
  437MOL0     C58900  11.576   8.084   9.146 -1.0677 -0.4904  0.1422
  437MOL0     C58901  11.729   8.060   9.143  0.3827 -0.1284 -0.0900
  437MOL0     C58902  11.802   8.174   9.217  0.6056  0.8911 -0.3743
  437MOL0     C58903  11.952   8.148   9.220  1.0760 -1.4847 -0.6527
  437MOL0    Cl58904  12.016   8.009   9.302 -0.2986 -0.2688 -0.3645
  437MOL0     C58905  10.902   7.945   9.007 -0.6670  0.0523 -0.1666
  437MOL0     C58906  10.766   7.964   9.002 -0.0744 -0.3646 -0.1258
  437MOL0     O58907  10.537   8.158   8.957 -0.4835  0.6792 -0.3699
  437MOL0     C58908  10.265   8.160   8.887 -0.2608 -0.0509  0.0321
  437MOL0     C58909  10.129   8.145   8.857  0.0508  0.0635 -0.3639
  437MOL0     N58910   9.478   7.873   8.616  0.1174  0.7336  0.6004
  437MOL0     N58911   9.403   7.766   8.634 -0.5447 -0.6649  0.4938
  437MOL0     C58912   8.555   7.066   8.581 -0.5390  0.1495  0.2469
  437MOL0     C58913   8.440   7.037   8.651 -0.2037  0.4619  0.4756
  437MOL0     C58914   8.057   6.932   8.790 -0.1796 -0.4485 -0.0891
  437MOL0     C58915   8.073   6.824   8.876  0.0065 -0.2608  0.0737
  437MOL0     C58916   7.979   6.798   8.969  0.2057 -0.8709  0.1690
  437MOL0     C58917   7.853   6.865   8.975 -0.2340  0.1657  0.4878
  437MOL0     O58918   7.754   6.830   9.070 -0.2564  0.2475 -0.0544
  437MOL0     C58919   7.615   6.833   9.025 -0.2184 -0.7393  0.1267
  437MOL0     C58920   7.519   6.750   9.109  0.3507  0.4628 -0.9480
  437MOL0     C58921   7.526   6.814   9.249 -0.2023  0.2529  0.1823
  437MOL0     C58922   7.464   6.736   9.367 -0.8332 -1.0208  0.3987
  437MOL0     C58923   7.322   6.763   9.362 -0.0431  0.2181  0.4377
  437MOL0     C58924   7.203   6.789   9.334 -1.2686 -0.6527 -0.9658
  437MOL0     C58925   7.844   6.976   8.892 -0.3646 -0.0516 -0.7441
  437MOL0     C58926   7.940   7.012   8.796 -0.3082  0.3111  0.8844
  437MOL0     C58927   7.905   7.106   8.683  0.0654 -0.0138 -0.7784
  437MOL0     H58928   8.233   7.234   8.469  0.9594  0.6740 -1.2542
  437MOL0     H58929   8.463   7.298   8.365 -1.1832 -2.3151 -1.0050
  437MOL0     H58930   8.661   7.319   8.274  2.5757  1.9917 -0.4274
  437MOL0     H58931   8.703   7.375   8.436 -1.0126  2.9939 -2.7517
  437MOL0     H58932   8.890   7.377   8.254  0.7695 -3.0562 -3.1098
  437MOL0     H58933   8.891   7.199   8.293  0.5822 -1.0196  2.8603
  437MOL0     H58934   9.074   7.331   8.425 -0.6138 -1.1084  0.4936
  437MOL0     H58935   8.963   7.264   8.533 -0.2565 -1.1274  0.1148
  437MOL0     H58936   8.932   7.547   8.399  2.0901 -0.6965  0.4239
  437MOL0     H58937   8.839   7.475   8.537 -1.7344 -2.9843 -0.4162
  437MOL0     H58938   9.051   7.468   8.664 -1.7380 -1.2429 -1.2203
  437MOL0     H58939   9.139   7.541   8.527 -1.2826  1.8167 -2.3520
  437MOL0     H58940   9.043   7.740   8.541  3.4294 -2.4112 -0.8607
  437MOL0     H58941   8.903   7.693   8.650  0.6476  2.1570  4.5655
  437MOL0     H58942   9.004   7.659   8.828  1.4837  1.8190  1.8582
  437MOL0     H58943   9.039   7.826   8.787 -1.7945  0.3083  0.9329
  437MOL0     H58944   9.249   7.683   8.889 -0.6459  2.0180  0.6527
  437MOL0     H58945   9.252   7.600   8.727 -0.0583  1.7657 -2.6077
  437MOL0     H58946   9.275   7.969   8.855 -2.3202 -0.4092 -0.5782
  437MOL0     H58947   9.486   8.151   8.592 -2.0304 -1.9849 -1.5466
  437MOL0     H58948   9.392   8.182   8.740 -1.4278 -0.5650 -0.4539
  437MOL0     H58949   9.632   8.251   8.777  1.1814 -1.2497  0.2493
  437MOL0     H58950   9.580   8.114   8.879  1.4135 -1.0094  0.5311
  437MOL0     H58951   9.744   8.074   8.613  2.7781  1.7349  0.5725
  437MOL0     H58952   9.689   7.960   8.734 -0.7426  1.3248  2.4147
  437MOL0     H58953   9.829   8.101   8.891 -2.6671 -0.3575 -0.1435
  437MOL0     H58954   9.870   8.204   8.746  1.7028 -0.5997 -1.4913
  437MOL0     H58955  10.131   7.859   8.669 -1.5216  0.2299 -0.8841
  437MOL0     H58956  10.391   7.882   8.728  0.6720 -0.1232  1.0788
  437MOL0     H58957  10.742   7.962   8.661  1.6810  5.7448 -0.8638
  437MOL0     H58958  10.970   7.934   8.672 -2.6236 -0.3888 -0.2425
  437MOL0     H58959  11.197   7.952   8.725  1.4648  1.4150 -0.2615
  437MOL0     H58960  11.175   8.066   8.858 -0.1863 -0.6305 -0.5294
  437MOL0     H58961  11.345   7.816   8.908  5.1159 -0.0240  0.8009
  437MOL0     H58962  11.398   7.950   8.802 -0.0047  0.9693  0.3004
  437MOL0     H58963  11.388   8.114   8.976 -2.8377  0.8882  1.0140
  437MOL0     H58964  11.310   8.013   9.088  1.5599  1.2930  1.6244
  437MOL0     H58965  11.564   7.928   8.988  2.0633  0.7628  0.6769
  437MOL0     H58966  11.499   7.888   9.144  0.8222  0.4912  0.4180
  437MOL0     H58967  11.540   8.087   9.249  0.8875  2.2425  0.8474
  437MOL0     H58968  11.551   8.182   9.105  1.5734  0.3246  0.2725
  437MOL0     H58969  11.766   7.972   9.196  0.5385  0.1466  0.2608
  437MOL0     H58970  11.769   8.053   9.042  1.7641 -0.1894  0.4378
  437MOL0     H58971  11.772   8.170   9.321 -0.3363  0.1603 -0.6661
  437MOL0     H58972  11.780   8.261   9.154 -1.1439 -0.1794 -1.3244
  437MOL0     H58973  11.999   8.161   9.122 -1.5975  0.6696 -1.7953
  437MOL0     H58974  11.975   8.235   9.284  1.8981  0.3882 -3.3276
  437MOL0     H58975  10.965   7.928   9.095  1.9546  1.3645 -1.6541
  437MOL0     H58976  10.706   7.978   9.091 -2.2025  1.3139 -1.6917
  437MOL0     H58977  10.284   8.240   8.958 -1.7594  1.2612 -0.9632
  437MOL0     H58978  10.060   8.216   8.901 -0.4417 -1.3656  1.2657
  437MOL0     H58979   8.649   7.023   8.613  1.0171  1.7324 -1.8962
  437MOL0     H58980   8.445   6.965   8.732  0.2389 -0.4474 -0.3356
  437MOL0     H58981   8.160   6.761   8.861 -1.6933 -2.5611 -0.7163
  437MOL0     H58982   7.996   6.721   9.044  1.5657  1.9756  3.0449
  437MOL0     H58983   7.609   6.787   8.925 -1.5935  1.2808 -0.7650
  437MOL0     H58984   7.579   6.936   9.022  0.6783 -0.4142 -2.4524
  437MOL0     H58985   7.555   6.647   9.111  3.8213  1.5527 -0.3030
  437MOL0     H58986   7.419   6.753   9.065  0.7174  0.0531 -1.8380
  437MOL0     H58987   7.473   6.909   9.247 -0.7082 -0.0368 -0.9989
  437MOL0     H58988   7.633   6.828   9.269  0.0683  0.2534 -1.1924
  437MOL0     H58989   7.472   6.628   9.356  1.8549 -0.9841  1.3598
  437MOL0     H58990   7.518   6.771   9.456  2.9142  0.8985 -2.3333
  437MOL0     H58991   7.101   6.822   9.321 -1.4585  0.4237  2.3586
  437MOL0     H58992   7.751   7.030   8.882 -0.7038 -0.9778 -3.2125
  437MOL0     H58993   7.959   7.201   8.684  0.1800  0.0829 -4.1977
  437MOL0     H58994   7.908   7.060   8.584 -4.1764 -0.3877 -0.9267
  437MOL0     H58995   7.802   7.133   8.708  0.5100  1.5821 -0.5632
  438MOL0     O58996   9.390   4.624   1.361  0.3820  0.0561  0.0298
  438MOL0     C58997   9.315   4.685   1.287 -0.1095 -0.4540 -0.5143
  438MOL0     O58998   9.344   4.776   1.195 -0.4224 -0.5891  0.1509
  438MOL0     C58999   9.452   4.858   1.213  0.0764 -1.4647  0.4677
  438MOL0     C59000   9.511   4.881   1.340 -0.2477  1.4462  0.9053
  438MOL0     C59001   9.635   4.948   1.359 -0.7076 -0.4886  0.2838
  438MOL0     C59002   9.691   5.019   1.244 -0.0914 -0.0818 -0.3907
  438MOL0     O59003   9.814   5.072   1.237  0.0606  0.1546  0.1530
  438MOL0     C59004   9.903   5.019   1.323 -0.5552  0.0636 -0.1119
  438MOL0     C59005  10.029   5.090   1.283 -0.3841  0.4511 -0.2999
  438MOL0     C59006  10.153   5.052   1.356  0.7338 -0.0092  0.3733
  438MOL0     C59007  10.268   5.104   1.263 -0.5637  1.0266 -0.7135
  438MOL0     C59008  10.399   5.119   1.336 -0.0007  0.1099 -0.7870
  438MOL0     C59009  10.444   4.989   1.402 -0.2109 -0.2291 -0.3211
  438MOL0     C59010  10.588   4.970   1.388  0.8530  0.1808  0.1620
  438MOL0     C59011  10.670   5.047   1.488 -0.4592  0.4754 -0.7547
  438MOL0     N59012  10.693   4.975   1.609 -0.5787  0.0947 -0.1547
  438MOL0     C59013  10.763   4.849   1.622  0.3273 -1.0483 -0.9658
  438MOL0     C59014  10.765   4.818   1.760  0.7730 -0.0042  0.6864
  438MOL0     C59015  10.829   4.693   1.816 -0.0269 -0.4164 -0.6083
  438MOL0     C59016  10.981   4.686   1.825 -0.1690 -0.7827  0.3034
  438MOL0     C59017  11.056   4.802   1.885 -0.2455  0.5356  0.6000
  438MOL0     C59018  10.995   4.851   2.014 -0.6988  0.3815 -0.3231
  438MOL0     O59019  11.085   4.933   2.086 -0.7352  0.1988 -0.2461
  438MOL0     C59020  11.169   4.889   2.181  0.2052  0.5559 -0.2788
  438MOL0     C59021  11.188   4.753   2.222  0.9673 -0.5476 -0.2187
  438MOL0     C59022  11.288   4.723   2.313  0.0673  0.9682 -0.4345
  438MOL0     C59023  11.369   4.820   2.372 -0.5767 -0.3923 -0.2100
  438MOL0     C59024  11.476   4.781   2.476 -0.3494 -0.4286  0.1115
  438MOL0     O59025  11.459   4.656   2.533 -0.3978  0.0165 -0.3855
  438MOL0     C59026  11.538   4.619   2.645  0.0273  0.0435 -0.0088
  438MOL0     C59027  11.485   4.592   2.770 -0.0259 -0.8091 -0.4745
  438MOL0     C59028  11.565   4.549   2.880 -0.7731  0.7441  0.1222
  438MOL0     C59029  11.705   4.529   2.868 -0.5320  0.6131 -0.6271
  438MOL0     O59030  11.781   4.472   2.976  0.1094  0.2282 -0.0119
  438MOL0     C59031  11.925   4.482   2.974  0.9989 -0.1853 -0.5309
  438MOL0     C59032  11.969   4.396   3.093  0.2289 -0.0737 -0.4495
  438MOL0     C59033  12.115   4.405   3.115 -0.1396 -0.9085  0.7047
  438MOL0     C59034  12.159   4.341   3.249  0.4049  0.1440 -0.4884
  438MOL0     C59035  12.308   4.328   3.254 -0.5463  0.1108 -0.3140
  438MOL0     C59036  12.357   4.270   3.388  0.5419  0.8117  0.2246
  438MOL0     C59037  12.504   4.307   3.418 -0.3838  0.4069  0.8325
  438MOL0     C59038  12.609   4.228   3.343  0.0412  1.9679 -0.0256
  438MOL0    Cl59039  12.780   4.270   3.369 -0.3131  0.1164 -0.3043
  438MOL0     C59040  11.754   4.549   2.741 -0.6248 -0.4986  0.3567
  438MOL0     C59041  11.675   4.606   2.631  0.2784 -1.0005 -1.0683
  438MOL0     O59042  11.574   4.850   2.498 -1.2356  0.0757 -0.1294
  438MOL0     C59043  11.361   4.951   2.323  0.4761  0.4708 -0.5352
  438MOL0     C59044  11.264   4.983   2.233  0.3955  0.1728  0.1223
  438MOL0     N59045  10.713   4.923   1.825  0.6840 -0.0068  0.2265
  438MOL0     N59046  10.659   5.012   1.737  0.6479 -0.5066  0.0815
  438MOL0     C59047   9.629   5.010   1.118  0.4188  0.5490  0.6304
  438MOL0     C59048   9.514   4.929   1.103  0.7367  0.4410 -0.5525
  438MOL0     C59049   9.177   4.647   1.291  0.1301 -0.0623  0.5289
  438MOL0     C59050   9.108   4.647   1.166  0.7803  0.2345 -0.1174
  438MOL0     C59051   8.976   4.607   1.167  0.4458 -0.7176 -0.1325
  438MOL0     C59052   8.903   4.575   1.286  0.0020 -0.2091 -0.9511
  438MOL0     O59053   8.772   4.542   1.282  0.3470  0.6774 -0.7263
  438MOL0     C59054   8.734   4.396   1.288 -0.6039  0.9211 -0.2416
  438MOL0     C59055   8.590   4.401   1.315  0.4456 -0.0254 -0.0185
  438MOL0     C59056   8.502   4.434   1.196  0.6195 -0.2366  1.1482
  438MOL0     C59057   8.357   4.448   1.236  0.2975  0.8770  0.1465
  438MOL0     C59058   8.275   4.546   1.158 -0.4154 -0.1687 -0.9089
  438MOL0     C59059   8.223   4.633   1.089  0.5129 -0.1866 -0.1921
  438MOL0     C59060   8.973   4.576   1.406 -0.1523  0.0857  0.2615
  438MOL0     C59061   9.106   4.615   1.410 -0.4018 -0.7673  0.1478
  438MOL0     C59062   9.173   4.635   1.547  0.3959  0.0909  0.2706
  438MOL0     H59063   9.472   4.836   1.431 -0.4438 -1.5869 -0.5344
  438MOL0     H59064   9.680   4.944   1.458 -0.8528 -2.6780  0.3276
  438MOL0     H59065   9.884   5.041   1.428 -2.0159  0.7502 -0.4864
  438MOL0     H59066   9.913   4.911   1.306 -2.1661 -0.2301  0.5625
  438MOL0     H59067  10.009   5.197   1.297 -1.4095  0.4114 -1.3429
  438MOL0     H59068  10.049   5.070   1.178  1.5734  3.6186 -0.6606
  438MOL0     H59069  10.160   4.945   1.379  3.5211 -0.3437 -1.6388
  438MOL0     H59070  10.152   5.122   1.440 -1.1244 -0.2068  0.5739
  438MOL0     H59071  10.278   5.033   1.180 -2.1597 -2.9100  2.1341
  438MOL0     H59072  10.251   5.207   1.232  2.2961  3.0306  3.5173
  438MOL0     H59073  10.474   5.157   1.266  0.6602  0.9359  0.3193
  438MOL0     H59074  10.385   5.195   1.414  0.9474  0.8891 -1.3500
  438MOL0     H59075  10.409   4.988   1.505 -2.6396  0.4514 -1.0631
  438MOL0     H59076  10.387   4.910   1.352 -0.4885  0.7022 -1.5206
  438MOL0     H59077  10.611   5.000   1.286  2.3313 -2.3035 -0.3318
  438MOL0     H59078  10.620   4.866   1.402  0.5602  0.3164  2.0512
  438MOL0     H59079  10.772   5.070   1.456  0.1768 -1.1891 -0.0405
  438MOL0     H59080  10.619   5.143   1.502 -2.8880 -0.8166 -0.2419
  438MOL0     H59081  10.810   4.788   1.545  1.7865 -0.7598 -0.3394
  438MOL0     H59082  10.797   4.679   1.920 -1.7626 -1.1129 -1.1937
  438MOL0     H59083  10.794   4.603   1.763 -1.4433 -0.1548 -0.1740
  438MOL0     H59084  11.014   4.598   1.880  0.7195 -0.7792 -0.1902
  438MOL0     H59085  11.016   4.669   1.722  1.5158 -2.1648  1.0421
  438MOL0     H59086  11.076   4.884   1.814  2.7604 -0.2403  0.4021
  438MOL0     H59087  11.156   4.761   1.902  1.3205  2.0650 -3.6148
  438MOL0     H59088  10.963   4.771   2.080 -1.2893  0.5438 -0.4108
  438MOL0     H59089  10.908   4.907   1.979 -1.3188  0.7332  1.6578
  438MOL0     H59090  11.125   4.689   2.161 -1.4408  0.9253  0.5847
  438MOL0     H59091  11.295   4.622   2.349  2.0267  1.6438  1.2989
  438MOL0     H59092  11.380   4.599   2.795  0.6269 -0.4709  2.6568
  438MOL0     H59093  11.516   4.519   2.973 -0.9342 -0.9225 -0.4551
  438MOL0     H59094  11.974   4.438   2.887  0.7158  0.4381 -1.0168
  438MOL0     H59095  11.951   4.587   2.993 -2.3534  0.3016  2.4189
  438MOL0     H59096  11.918   4.419   3.187 -1.9799  1.3124 -1.8951
  438MOL0     H59097  11.950   4.291   3.068  0.0337  0.0886 -0.9956
  438MOL0     H59098  12.176   4.363   3.035  2.2833  3.0436  0.1875
  438MOL0     H59099  12.142   4.511   3.118 -1.1720 -0.5343 -1.5791
  438MOL0     H59100  12.120   4.240   3.264  1.9628 -0.2009  1.6598
  438MOL0     H59101  12.116   4.405   3.326  2.7363  3.4659 -1.7209
  438MOL0     H59102  12.353   4.424   3.227  0.5255 -0.9810 -2.6940
  438MOL0     H59103  12.340   4.264   3.171  2.3137 -1.2060  1.6726
  438MOL0     H59104  12.300   4.320   3.466  1.3564  2.0539  0.0520
  438MOL0     H59105  12.348   4.161   3.395  2.9175  0.6661  2.2799
  438MOL0     H59106  12.503   4.278   3.523 -1.2496 -3.1232 -0.0046
  438MOL0     H59107  12.521   4.413   3.402 -0.8253  0.3876  0.1525
  438MOL0     H59108  12.595   4.120   3.361  1.2355  1.9333  0.7774
  438MOL0     H59109  12.592   4.251   3.238 -1.7115 -1.2197 -0.5931
  438MOL0     H59110  11.859   4.523   2.729 -1.0255 -1.4118 -1.3832
  438MOL0     H59111  11.730   4.618   2.538  0.8897  0.5710 -0.5406
  438MOL0     H59112  11.423   5.031   2.364  0.3083 -0.6876  2.1760
  438MOL0     H59113  11.266   5.086   2.199 -1.4445 -0.0709 -0.8539
  438MOL0     H59114   9.658   5.073   1.035 -2.5196  1.9242  0.5415
  438MOL0     H59115   9.472   4.916   1.004 -2.4980  0.4511  0.7192
  438MOL0     H59116   9.156   4.667   1.071 -0.8690 -2.4411 -1.6630
  438MOL0     H59117   8.920   4.592   1.075 -0.9639 -1.6427  0.8246
  438MOL0     H59118   8.780   4.349   1.376 -1.1969  1.0025  0.1121
  438MOL0     H59119   8.753   4.334   1.200  1.7326 -0.7157  1.2730
  438MOL0     H59120   8.578   4.483   1.387  0.8124  1.4637 -1.6158
  438MOL0     H59121   8.550   4.312   1.365  1.8189 -2.4845 -2.9986
  438MOL0     H59122   8.506   4.374   1.105 -0.1476  0.0851  0.8986
  438MOL0     H59123   8.541   4.532   1.165  0.2143 -0.3523  0.2546
  438MOL0     H59124   8.321   4.345   1.238  2.4835  0.0719  0.6025
  438MOL0     H59125   8.346   4.485   1.339  0.8254  1.1099  0.1273
  438MOL0     H59126   8.195   4.704   1.014 -0.3181 -1.0591 -0.7206
  438MOL0     H59127   8.913   4.553   1.494  0.8106 -0.1189  0.8760
  438MOL0     H59128   9.233   4.546   1.569  0.1789  0.6874  3.7040
  438MOL0     H59129   9.241   4.719   1.529  1.5713 -1.0200 -0.7313
  438MOL0     H59130   9.109   4.647   1.634 -0.4079 -1.5072 -0.0538
  439MOL0     O59131  10.483   8.108   3.980 -0.2770  0.3793  0.7062
  439MOL0     C59132  10.452   8.210   3.920  0.2650  0.3998 -0.3114
  439MOL0     O59133  10.539   8.287   3.846 -0.3213 -0.0454  0.5291
  439MOL0     C59134  10.679   8.267   3.866  0.4487 -0.4005 -0.0121
  439MOL0     C59135  10.752   8.213   3.765 -0.3014 -0.3456  0.6618
  439MOL0     C59136  10.886   8.214   3.781 -0.3861 -0.6888  0.6775
  439MOL0     C59137  10.948   8.248   3.902 -0.4609  0.3863  0.5286
  439MOL0     O59138  11.086   8.234   3.911 -0.0965 -0.2983 -0.4007
  439MOL0     C59139  11.147   8.325   4.006 -0.4943  0.2895  0.1138
  439MOL0     C59140  11.291   8.336   3.983 -0.7001 -0.0432 -0.0641
  439MOL0     C59141  11.325   8.403   3.855 -0.5623 -0.2723  0.3884
  439MOL0     C59142  11.476   8.433   3.842  0.0382 -0.5494  0.8429
  439MOL0     C59143  11.502   8.482   3.700 -1.0148 -0.0538 -0.2178
  439MOL0     C59144  11.650   8.496   3.660 -0.6304  0.0794 -0.7762
  439MOL0     C59145  11.652   8.555   3.518 -0.7267  0.3525 -0.6183
  439MOL0     C59146  11.791   8.601   3.452 -0.3653 -0.9490 -0.2166
  439MOL0     N59147  11.897   8.505   3.426 -0.6162  0.4062  0.4550
  439MOL0     C59148  11.885   8.373   3.422 -0.4194  0.5094 -0.3978
  439MOL0     C59149  12.001   8.325   3.372  0.0419 -0.2388  0.2424
  439MOL0     C59150  12.025   8.181   3.334 -1.1335 -0.8361 -0.1612
  439MOL0     C59151  12.169   8.140   3.380  1.0160  0.7712 -0.1801
  439MOL0     C59152  12.198   7.999   3.319 -0.1568  0.3600  0.4361
  439MOL0     C59153  12.343   7.937   3.344  0.9608 -0.5572  0.6374
  439MOL0     O59154  12.382   7.968   3.476 -0.2670  0.7484  0.2628
  439MOL0     C59155  12.511   7.977   3.521  0.3017 -0.2589  0.4649
  439MOL0     C59156  12.516   8.015   3.657 -0.9505  2.0790 -0.0454
  439MOL0     C59157  12.639   8.008   3.724 -0.0222 -0.0301  0.3123
  439MOL0     C59158  12.759   7.985   3.658  0.9038  0.0579 -0.4453
  439MOL0     C59159  12.884   7.979   3.728 -0.7734 -0.0983 -0.1451
  439MOL0     O59160  12.992   7.937   3.648 -0.2831 -0.3695 -0.3896
  439MOL0     C59161  13.116   7.977   3.681  0.1120 -0.0294  0.8764
  439MOL0     C59162  13.165   8.097   3.638  0.0495  0.0294 -0.1679
  439MOL0     C59163  13.287   8.149   3.691 -0.4416 -0.6956  0.2417
  439MOL0     C59164  13.351   8.080   3.796  0.5411 -0.4200  0.5393
  439MOL0     O59165  13.469   8.126   3.854  0.0391  0.3708 -0.4341
  439MOL0     C59166  13.577   8.150   3.765 -0.5171  0.0178 -0.5035
  439MOL0     C59167  13.708   8.128   3.847  0.6476  0.2613  0.4314
  439MOL0     C59168  13.825   8.084   3.748 -0.4246 -0.5714  0.0542
  439MOL0     C59169  13.842   8.187   3.641  0.7464  0.5275  0.0073
  439MOL0     C59170  13.972   8.189   3.562  0.8652 -0.4211  0.5573
  439MOL0     C59171  14.094   8.231   3.623  0.8656  0.0250 -0.1453
  439MOL0     C59172  14.217   8.217   3.528  0.1712  0.2875  0.5919
  439MOL0     C59173  14.351   8.238   3.588 -0.5105 -0.6869 -0.3790
  439MOL0    Cl59174  14.473   8.185   3.472  0.4638 -0.5911 -0.1569
  439MOL0     C59175  13.292   7.967   3.838  0.3460 -0.5590  0.1305
  439MOL0     C59176  13.188   7.915   3.784  1.0425  0.5704  0.1228
  439MOL0     O59177  12.895   8.046   3.833 -0.6057  0.4806 -0.2886
  439MOL0     C59178  12.751   7.942   3.521 -0.1173 -0.8274 -0.1104
  439MOL0     C59179  12.624   7.949   3.456 -0.1447  1.1959 -1.3094
  439MOL0     N59180  12.087   8.433   3.341  0.4328 -0.8130  0.1341
  439MOL0     N59181  12.025   8.538   3.380 -0.3218 -0.1725 -0.6595
  439MOL0     C59182  10.869   8.281   4.018 -0.3483 -0.0563 -0.5033
  439MOL0     C59183  10.732   8.287   3.991  0.4930  0.3291 -0.7492
  439MOL0     C59184  10.306   8.251   3.932 -0.1807 -0.8135  0.4202
  439MOL0     C59185  10.263   8.344   3.846  0.2288 -0.5994 -0.0850
  439MOL0     C59186  10.133   8.388   3.845  0.2165 -0.4260  0.9007
  439MOL0     C59187  10.039   8.332   3.928 -0.4502 -0.2361 -1.3725
  439MOL0     O59188   9.912   8.377   3.913 -0.1429 -0.4981  0.4387
  439MOL0     C59189   9.812   8.277   3.947 -0.7686 -0.9059 -0.5776
  439MOL0     C59190   9.669   8.319   3.918  1.1718  0.0146 -0.1013
  439MOL0     C59191   9.643   8.349   3.769  0.2770  1.1172  0.0124
  439MOL0     C59192   9.529   8.453   3.742  0.1534  0.0055 -0.6461
  439MOL0     C59193   9.394   8.402   3.768  0.5156  0.2072 -0.0823
  439MOL0     C59194   9.282   8.366   3.792  0.5359 -0.0939 -0.0983
  439MOL0     C59195  10.089   8.251   4.031  0.2858  0.6776 -0.1335
  439MOL0     C59196  10.217   8.203   4.033  0.8610  0.0724 -0.0965
  439MOL0     C59197  10.256   8.083   4.120  1.2456 -0.1692 -0.3350
  439MOL0     H59198  10.695   8.193   3.675  2.6402  0.2449 -1.4811
  439MOL0     H59199  10.934   8.175   3.691  0.9706 -3.5377  2.5036
  439MOL0     H59200  11.120   8.430   3.993  0.7520  0.6976  0.6892
  439MOL0     H59201  11.130   8.292   4.109  4.9758 -0.8464  0.9325
  439MOL0     H59202  11.339   8.237   3.983 -0.1552  0.2170  0.0379
  439MOL0     H59203  11.337   8.395   4.063 -0.5752  2.8035 -2.1053
  439MOL0     H59204  11.272   8.496   3.831  1.8650  0.9700 -0.5135
  439MOL0     H59205  11.308   8.329   3.776  3.0118  0.0383 -0.8757
  439MOL0     H59206  11.506   8.511   3.913  0.0184 -1.1962  1.5758
  439MOL0     H59207  11.533   8.344   3.870  0.6888 -0.4282 -0.0546
  439MOL0     H59208  11.470   8.403   3.631  1.9506 -0.3801 -1.3185
  439MOL0     H59209  11.449   8.574   3.673  4.6729  2.2993 -5.5873
  439MOL0     H59210  11.702   8.567   3.725 -2.4009  2.1422 -1.4832
  439MOL0     H59211  11.706   8.402   3.662 -0.7399  0.0135  0.4117
  439MOL0     H59212  11.595   8.647   3.533 -0.5858  0.0987  1.8782
  439MOL0     H59213  11.604   8.490   3.445  0.1462  0.6744 -1.5145
  439MOL0     H59214  11.752   8.642   3.359  1.1867  0.5033 -0.2812
  439MOL0     H59215  11.832   8.692   3.497  5.3818 -1.2581 -3.8668
  439MOL0     H59216  11.794   8.319   3.447  1.0629 -0.8240  2.6234
  439MOL0     H59217  11.963   8.110   3.391  2.4184 -1.3509  3.4910
  439MOL0     H59218  12.014   8.169   3.226 -0.1255  1.2374 -0.5416
  439MOL0     H59219  12.247   8.214   3.355  0.3359  1.2579 -0.9236
  439MOL0     H59220  12.169   8.137   3.489 -2.7617  1.4785 -0.0210
  439MOL0     H59221  12.214   8.011   3.211 -1.4950 -3.8700 -0.3929
  439MOL0     H59222  12.117   7.931   3.343  0.1465  0.0492  0.5817
  439MOL0     H59223  12.410   7.961   3.261 -2.3401  0.0296 -2.0926
  439MOL0     H59224  12.322   7.829   3.338  0.6777 -0.4649 -0.1127
  439MOL0     H59225  12.426   8.018   3.718 -1.5010 -0.4534 -0.6002
  439MOL0     H59226  12.634   8.021   3.831 -1.2842  0.4437  0.2168
  439MOL0     H59227  13.116   8.154   3.559  0.5983  0.4864 -0.1859
  439MOL0     H59228  13.329   8.242   3.654  0.7014 -0.3895  2.1924
  439MOL0     H59229  13.580   8.074   3.686 -1.7330  0.1841 -0.7361
  439MOL0     H59230  13.577   8.246   3.714 -0.2671  0.1956 -0.1744
  439MOL0     H59231  13.742   8.211   3.909  0.7247 -0.1607  0.9654
  439MOL0     H59232  13.701   8.039   3.911  1.5231 -1.0800 -1.2777
  439MOL0     H59233  13.922   8.085   3.799  0.9159  0.7804 -2.3463
  439MOL0     H59234  13.795   7.991   3.699 -1.9774  0.4045 -0.9209
  439MOL0     H59235  13.827   8.287   3.683 -1.8514 -0.6248  2.1333
  439MOL0     H59236  13.765   8.184   3.564  2.0266 -1.3388 -1.2861
  439MOL0     H59237  13.954   8.260   3.481  0.6092 -0.4591  0.5796
  439MOL0     H59238  13.988   8.091   3.517  1.5824 -0.4499  0.8642
  439MOL0     H59239  14.084   8.336   3.655 -1.9935  0.1155 -0.9992
  439MOL0     H59240  14.113   8.174   3.714 -0.2572 -1.1461 -0.6105
  439MOL0     H59241  14.208   8.288   3.444 -0.4895 -1.6440 -1.0518
  439MOL0     H59242  14.221   8.113   3.495  0.6835 -0.0207  1.5974
  439MOL0     H59243  14.352   8.342   3.624  0.3678 -0.4176 -1.1493
  439MOL0     H59244  14.373   8.174   3.674  1.8078 -0.7460 -0.9664
  439MOL0     H59245  13.332   7.923   3.929 -2.3315 -3.1646  0.2137
  439MOL0     H59246  13.137   7.836   3.838 -0.5047  0.4473 -1.4258
  439MOL0     H59247  12.837   7.906   3.466 -1.4788 -2.2057 -1.4297
  439MOL0     H59248  12.608   7.902   3.359  0.7142 -0.5634 -0.6397
  439MOL0     H59249  10.911   8.312   4.113 -3.4443 -0.3071  1.0920
  439MOL0     H59250  10.673   8.308   4.080  1.3200 -1.9638  0.4023
  439MOL0     H59251  10.331   8.386   3.773  2.2176 -2.5710  0.5198
  439MOL0     H59252  10.101   8.452   3.763 -0.5757 -1.2869  0.5209
  439MOL0     H59253   9.831   8.245   4.050  1.8261  0.3143 -0.5991
  439MOL0     H59254   9.830   8.190   3.884  0.1269 -1.5564  0.5343
  439MOL0     H59255   9.656   8.410   3.977  1.5624  0.1824 -0.2692
  439MOL0     H59256   9.589   8.253   3.953  1.8352 -0.6554  0.1613
  439MOL0     H59257   9.616   8.256   3.717 -0.5169  0.6257  1.2744
  439MOL0     H59258   9.733   8.389   3.720 -0.0942  1.3399 -0.4900
  439MOL0     H59259   9.549   8.538   3.808  1.4403 -1.8306  1.4344
  439MOL0     H59260   9.537   8.467   3.633 -0.0445 -1.1284 -0.8211
  439MOL0     H59261   9.182   8.336   3.815 -0.5385  2.4044 -1.0977
  439MOL0     H59262  10.027   8.205   4.107  4.4634 -0.6666  2.7833
  439MOL0     H59263  10.339   8.114   4.185 -0.3243 -0.4739  1.9526
  439MOL0     H59264  10.179   8.055   4.192  0.8353 -1.9946 -1.4310
  439MOL0     H59265  10.285   7.999   4.056  2.1618 -0.3091  0.2331
  440MOL0     O59266   1.882   6.796   0.757 -0.2383 -0.0738  0.2788
  440MOL0     C59267   1.792   6.726   0.723 -0.0953 -0.4731 -0.9060
  440MOL0     O59268   1.802   6.615   0.645  0.5936  0.2413 -1.2481
  440MOL0     C59269   1.921   6.573   0.599 -0.0335  0.9123 -0.6214
  440MOL0     C59270   1.940   6.572   0.462  0.6459  0.3774  0.0236
  440MOL0     C59271   2.055   6.515   0.410 -0.4125  1.5286 -0.2760
  440MOL0     C59272   2.158   6.460   0.497 -0.1983 -0.6861  0.0300
  440MOL0     O59273   2.280   6.404   0.458 -0.0726  0.5801  0.0517
  440MOL0     C59274   2.280   6.351   0.321 -0.4504  0.2906 -0.0440
  440MOL0     C59275   2.412   6.271   0.295  0.6595 -0.2935 -0.4129
  440MOL0     C59276   2.528   6.362   0.253 -0.1235 -0.4881 -0.1441
  440MOL0     C59277   2.537   6.377   0.101 -0.4302  1.2796 -0.1116
  440MOL0     C59278   2.637   6.478   0.054 -0.1218 -0.4920  0.0541
  440MOL0     C59279   2.785   6.440   0.107  0.4823  0.4311  0.0826
  440MOL0     C59280   2.883   6.511   0.018  0.5826  0.3800 -0.7636
  440MOL0     C59281   3.023   6.538   0.071  0.2939  0.6152 -0.3769
  440MOL0     N59282   3.103   6.433   0.136  0.1707 -0.4802 -0.4517
  440MOL0     C59283   3.231   6.466   0.178 -0.1214 -0.7623 -0.4712
  440MOL0     C59284   3.275   6.352   0.240 -0.4910  0.1908 -0.9739
  440MOL0     C59285   3.405   6.350   0.325  0.1728 -0.5014 -0.0721
  440MOL0     C59286   3.528   6.366   0.237 -0.1354 -0.6763  0.3786
  440MOL0     C59287   3.661   6.358   0.325 -0.3321  0.5204  0.4077
  440MOL0     C59288   3.780   6.346   0.229  0.8376 -0.3426  0.5155
  440MOL0     O59289   3.894   6.335   0.309  0.3029 -0.1808 -0.6692
  440MOL0     C59290   4.020   6.365   0.254  0.3109 -0.1093 -0.1480
  440MOL0     C59291   4.121   6.417   0.329 -0.4016 -0.4756 -0.4786
  440MOL0     C59292   4.249   6.451   0.275  0.0567  0.4687  0.3199
  440MOL0     C59293   4.272   6.430   0.135  0.6276 -0.2318 -0.6133
  440MOL0     C59294   4.410   6.449   0.081  0.1805  1.0988  0.2271
  440MOL0     O59295   4.502   6.507   0.163 -0.1432  0.2255  0.1967
  440MOL0     C59296   4.609   6.571   0.103  0.1588 -0.6060  0.2167
  440MOL0     C59297   4.716   6.565   0.186 -0.5228 -1.0658 -0.9798
  440MOL0     C59298   4.843   6.628   0.152 -0.7619 -0.3720  0.2885
  440MOL0     C59299   4.858   6.684   0.024 -0.3378 -0.0976  0.3461
  440MOL0     O59300   4.980   6.735  -0.014 -0.4606 -0.3877  0.0709
  440MOL0     C59301   4.999   6.878  -0.010 -0.8945 -0.1155 -0.5316
  440MOL0     C59302   5.120   6.906  -0.110 -0.3871  0.5730  0.0395
  440MOL0     C59303   5.099   6.875  -0.264  0.6054 -1.0619  0.6852
  440MOL0     C59304   4.983   6.960  -0.300 -0.0473  0.2700  0.5016
  440MOL0     C59305   4.963   6.968  -0.444 -0.0608 -0.6005  0.0427
  440MOL0     C59306   4.950   6.833  -0.515  0.4935  0.5056  1.3032
  440MOL0     C59307   4.859   6.718  -0.449 -0.2783 -0.0735 -0.2216
  440MOL0     C59308   4.845   6.602  -0.547  0.1059  0.2615  0.2755
  440MOL0    Cl59309   4.779   6.450  -0.460  0.7320  0.5834  0.1054
  440MOL0     C59310   4.749   6.687  -0.060  0.4216  0.6822  0.3254
  440MOL0     C59311   4.618   6.641  -0.022 -0.6583  0.4146  0.2077
  440MOL0     O59312   4.424   6.417  -0.040 -0.9273 -0.2148 -0.0631
  440MOL0     C59313   4.168   6.385   0.060  0.2790  0.6567 -0.0169
  440MOL0     C59314   4.049   6.344   0.118 -1.0808  0.1236  0.4896
  440MOL0     N59315   3.176   6.259   0.230  0.0149  0.1614 -0.9661
  440MOL0     N59316   3.077   6.306   0.161  0.4579  0.9726 -0.0830
  440MOL0     C59317   2.141   6.474   0.632 -0.8570  0.4941 -0.4050
  440MOL0     C59318   2.022   6.516   0.684 -0.4404 -0.4973 -1.4033
  440MOL0     C59319   1.651   6.764   0.764 -0.0884 -0.0444  0.4116
  440MOL0     C59320   1.554   6.654   0.766  0.8955 -0.5999  0.6915
  440MOL0     C59321   1.420   6.674   0.772  0.0032 -0.1892  0.2311
  440MOL0     C59322   1.368   6.801   0.794 -1.1275 -0.7127  0.1792
  440MOL0     O59323   1.237   6.832   0.812 -0.1995 -0.0515 -0.2738
  440MOL0     C59324   1.146   6.723   0.828  0.1521  1.0680 -0.1734
  440MOL0     C59325   1.074   6.700   0.702  0.5690  0.8086  0.3236
  440MOL0     C59326   0.924   6.751   0.718  0.0859 -0.0397 -0.4354
  440MOL0     C59327   0.839   6.748   0.591  0.4782 -0.0560 -0.2734
  440MOL0     C59328   0.695   6.801   0.612  0.2970  0.5835  0.4798
  440MOL0     C59329   0.584   6.857   0.625  0.3068  0.1565  0.3386
  440MOL0     C59330   1.460   6.908   0.784 -0.3413 -0.3435 -0.2167
  440MOL0     C59331   1.599   6.891   0.780  0.1927 -0.6481 -0.1666
  440MOL0     C59332   1.680   7.014   0.790 -0.6665 -0.3957  0.6537
  440MOL0     H59333   1.867   6.615   0.394  1.4363 -1.0665 -1.8199
  440MOL0     H59334   2.045   6.517   0.302 -3.1019 -1.4062 -0.2346
  440MOL0     H59335   2.197   6.282   0.302  0.5796 -0.2572 -3.1681
  440MOL0     H59336   2.273   6.425   0.242 -2.4720  0.3522  0.1507
  440MOL0     H59337   2.400   6.198   0.215 -0.9620 -1.4306  0.7994
  440MOL0     H59338   2.441   6.209   0.381  0.0443 -0.7622 -0.5380
  440MOL0     H59339   2.619   6.320   0.296 -1.2553 -1.7953  1.0543
  440MOL0     H59340   2.515   6.461   0.296  2.0472 -0.8290  1.4557
  440MOL0     H59341   2.556   6.277   0.062 -0.2313  0.6952  1.4263
  440MOL0     H59342   2.440   6.413   0.065 -1.2890 -0.3042  0.5444
  440MOL0     H59343   2.644   6.483  -0.055  0.1353  2.2297  0.1359
  440MOL0     H59344   2.600   6.576   0.086  0.6165 -0.0448 -0.4228
  440MOL0     H59345   2.798   6.467   0.212  0.2110 -2.9149  1.1087
  440MOL0     H59346   2.799   6.331   0.100  0.2457  0.3598  0.6899
  440MOL0     H59347   2.839   6.608  -0.008 -0.8783 -0.1653 -0.4171
  440MOL0     H59348   2.887   6.460  -0.079 -0.6347 -2.7735  0.7163
  440MOL0     H59349   3.084   6.572  -0.013  2.6602 -2.8466 -0.2526
  440MOL0     H59350   3.012   6.628   0.133  1.0008  1.6801 -1.7565
  440MOL0     H59351   3.286   6.558   0.158  1.2925 -1.1187  1.4697
  440MOL0     H59352   3.406   6.439   0.390  1.3195  0.4452 -1.3265
  440MOL0     H59353   3.408   6.258   0.384  1.1837  0.1481  0.9521
  440MOL0     H59354   3.519   6.294   0.154 -2.0825  0.7160 -0.7013
  440MOL0     H59355   3.525   6.462   0.186  1.9452 -0.9947 -0.4264
  440MOL0     H59356   3.654   6.269   0.388 -1.4736 -1.6151 -2.4866
  440MOL0     H59357   3.665   6.451   0.382 -1.9502  1.6669 -1.2438
  440MOL0     H59358   3.776   6.419   0.147  0.4280 -2.5881 -1.5918
  440MOL0     H59359   3.767   6.251   0.176 -1.3498 -0.1325  0.5663
  440MOL0     H59360   4.101   6.418   0.435 -1.0393  1.7199 -0.5751
  440MOL0     H59361   4.337   6.472   0.335  0.8233  0.7341 -0.8523
  440MOL0     H59362   4.691   6.532   0.287 -0.9636 -0.7809 -0.9944
  440MOL0     H59363   4.928   6.637   0.218 -0.7160 -2.2423  0.5348
  440MOL0     H59364   4.912   6.940  -0.034 -3.0377 -3.4122 -2.1782
  440MOL0     H59365   5.032   6.904   0.091  1.8059 -1.2946 -1.0323
  440MOL0     H59366   5.151   7.008  -0.089  1.2498 -0.0286  0.7058
  440MOL0     H59367   5.198   6.843  -0.066 -1.7666 -1.1355  0.1508
  440MOL0     H59368   5.185   6.893  -0.328 -0.4270 -1.5383 -0.9130
  440MOL0     H59369   5.075   6.770  -0.282  1.0584 -1.0586  0.0504
  440MOL0     H59370   4.977   7.065  -0.271 -0.6283  0.1551  0.8178
  440MOL0     H59371   4.899   6.913  -0.247  0.6758 -2.4048 -0.5596
  440MOL0     H59372   5.046   7.017  -0.495 -1.9681  0.3474 -2.3967
  440MOL0     H59373   4.874   7.028  -0.468  2.1584  1.8233 -2.9317
  440MOL0     H59374   4.911   6.864  -0.612  1.8355 -4.0461 -0.9357
  440MOL0     H59375   5.043   6.787  -0.548  0.1266  0.4605  0.3051
  440MOL0     H59376   4.763   6.753  -0.410  0.3711 -0.4626  1.8168
  440MOL0     H59377   4.907   6.681  -0.358  1.3280  2.8492  0.2461
  440MOL0     H59378   4.768   6.624  -0.622 -1.2720  0.1209  1.5898
  440MOL0     H59379   4.931   6.574  -0.608  1.0942  0.4244  1.5435
  440MOL0     H59380   4.766   6.729  -0.159  2.5711  1.6226  1.0256
  440MOL0     H59381   4.531   6.645  -0.086 -1.4226  3.1327  1.2780
  440MOL0     H59382   4.185   6.371  -0.047  2.1329  2.2453  0.0366
  440MOL0     H59383   3.973   6.297   0.057 -1.2825 -2.1023  2.2946
  440MOL0     H59384   2.215   6.434   0.701 -0.5431  0.3926 -0.7972
  440MOL0     H59385   2.010   6.516   0.792 -1.3210 -0.4226 -1.4894
  440MOL0     H59386   1.595   6.555   0.748  2.4772  0.2592 -0.7701
  440MOL0     H59387   1.367   6.579   0.775  3.6305 -2.3712  2.1930
  440MOL0     H59388   1.067   6.752   0.898 -1.0927 -0.8357 -0.7117
  440MOL0     H59389   1.187   6.631   0.870 -1.6301 -0.1768 -1.0485
  440MOL0     H59390   1.065   6.593   0.681  0.3079  0.2665  2.8988
  440MOL0     H59391   1.112   6.756   0.616  0.9664  0.4099  0.2326
  440MOL0     H59392   0.927   6.852   0.758  0.0980 -0.7035  1.3100
  440MOL0     H59393   0.875   6.689   0.794  1.3655 -0.2255  0.2626
  440MOL0     H59394   0.887   6.823   0.528  1.3173  2.2666  2.8596
  440MOL0     H59395   0.837   6.644   0.557  0.0601 -0.5674  1.1933
  440MOL0     H59396   0.496   6.919   0.622  0.0417 -0.2055  0.5506
  440MOL0     H59397   1.422   7.008   0.802 -0.8869 -0.6854  0.6293
  440MOL0     H59398   1.615   7.102   0.782 -0.9975 -0.7325 -0.5441
  440MOL0     H59399   1.727   7.019   0.889  2.7884 -0.8567 -0.8218
  440MOL0     H59400   1.762   7.021   0.717  1.6078  0.7219  3.1291
  441MOL0     O59401   9.173   0.514   7.436 -0.1569  0.4428  0.0828
  441MOL0     C59402   9.152   0.527   7.318  0.4128 -1.2695  0.4192
  441MOL0     O59403   9.238   0.558   7.216  0.7190  0.4112  0.3972
  441MOL0     C59404   9.364   0.587   7.256  0.5458 -0.4416  0.0299
  441MOL0     C59405   9.451   0.483   7.296  0.2183  0.3404 -0.1417
  441MOL0     C59406   9.587   0.504   7.310 -0.5685 -0.5140 -0.1602
  441MOL0     C59407   9.642   0.634   7.281 -0.1152  0.5363 -0.1086
  441MOL0     O59408   9.774   0.673   7.290  0.4927  0.4342  0.0803
  441MOL0     C59409   9.872   0.584   7.338  0.3323  0.0898  0.0158
  441MOL0     C59410   9.995   0.656   7.372 -0.2390 -0.0184 -0.2824
  441MOL0     C59411  10.116   0.570   7.399  0.3002  0.1795 -0.5912
  441MOL0     C59412  10.240   0.651   7.440  0.6935 -0.3688  0.8092
  441MOL0     C59413  10.359   0.579   7.518 -0.0173 -0.0755 -0.0641
  441MOL0     C59414  10.498   0.658   7.508  0.1359 -0.2524 -0.5504
  441MOL0     C59415  10.569   0.637   7.368  0.0987 -0.0359 -0.2985
  441MOL0     C59416  10.708   0.702   7.345  0.4087  0.3438 -0.7596
  441MOL0     N59417  10.775   0.667   7.217  0.3681  0.3807  0.7212
  441MOL0     C59418  10.797   0.532   7.178 -0.1353 -0.0391 -0.4911
  441MOL0     C59419  10.874   0.546   7.071  0.7932  0.5425  0.3302
  441MOL0     C59420  10.925   0.422   7.000 -0.1495 -0.9086  0.5159
  441MOL0     C59421  10.837   0.381   6.885  0.0822  0.1304  0.4383
  441MOL0     C59422  10.728   0.285   6.934  0.4836 -0.3038 -0.7172
  441MOL0     C59423  10.642   0.253   6.813  0.8612  0.0651 -0.1958
  441MOL0     O59424  10.541   0.155   6.843  0.2269 -0.2049  0.2919
  441MOL0     C59425  10.419   0.174   6.779 -0.2856 -1.0946  0.5766
  441MOL0     C59426  10.320   0.094   6.827 -0.1261  0.3917  0.4387
  441MOL0     C59427  10.197   0.089   6.773  0.3740 -0.4571  1.3843
  441MOL0     C59428  10.160   0.169   6.656 -0.0041 -0.1223 -0.4481
  441MOL0     C59429  10.030   0.164   6.591  0.3350 -0.3643 -0.3041
  441MOL0     O59430   9.991   0.275   6.527 -0.3709 -0.5554 -0.1254
  441MOL0     C59431   9.873   0.283   6.461 -0.1034  0.4787 -0.1096
  441MOL0     C59432   9.752   0.250   6.526 -0.1366  0.1786 -0.3671
  441MOL0     C59433   9.632   0.266   6.456 -0.3356 -0.4758 -0.2371
  441MOL0     C59434   9.628   0.316   6.325  0.6860 -1.0435  0.8990
  441MOL0     O59435   9.505   0.326   6.253 -0.7347 -0.1968 -0.2349
  441MOL0     C59436   9.386   0.365   6.317  0.6401  0.3578  0.2043
  441MOL0     C59437   9.269   0.337   6.222  0.0458 -0.4018  0.6114
  441MOL0     C59438   9.135   0.407   6.257  0.3478  0.3773 -0.1514
  441MOL0     C59439   9.063   0.300   6.347  0.6432 -0.9796 -0.0965
  441MOL0     C59440   8.942   0.373   6.407 -0.6804 -1.1882 -0.0382
  441MOL0     C59441   8.834   0.427   6.312 -0.1845  0.0578 -0.4642
  441MOL0     C59442   8.802   0.335   6.197 -0.5245  0.2864  0.2101
  441MOL0     C59443   8.670   0.368   6.124 -0.0528 -0.4424  0.1607
  441MOL0    Cl59444   8.675   0.523   6.047 -0.1139  0.1011  0.1263
  441MOL0     C59445   9.745   0.345   6.263 -0.5329  0.2617  0.5098
  441MOL0     C59446   9.866   0.323   6.328 -0.3293 -0.0030  0.3258
  441MOL0     O59447   9.978   0.055   6.593  0.2602  0.2299 -0.7869
  441MOL0     C59448  10.264   0.244   6.610 -0.2735  0.0697  0.3954
  441MOL0     C59449  10.389   0.253   6.672 -0.3922 -0.1102 -0.0878
  441MOL0     N59450  10.890   0.680   7.036 -0.2883  0.8180 -0.6847
  441MOL0     N59451  10.841   0.745   7.132 -0.2335  0.4495  0.1020
  441MOL0     C59452   9.548   0.731   7.242  0.3638  0.1673 -0.0961
  441MOL0     C59453   9.413   0.721   7.224 -0.6680  1.2339  0.5218
  441MOL0     C59454   9.011   0.503   7.269 -1.0136  0.5324  0.6400
  441MOL0     C59455   8.978   0.433   7.145 -0.7667  0.2017  0.0296
  441MOL0     C59456   8.847   0.392   7.124  0.1580 -0.6527 -0.4994
  441MOL0     C59457   8.746   0.411   7.226 -0.2806 -0.0030  0.6375
  441MOL0     O59458   8.611   0.370   7.222 -0.1908 -0.3296 -0.1183
  441MOL0     C59459   8.543   0.329   7.105  0.5443 -0.0031 -0.4421
  441MOL0     C59460   8.385   0.343   7.110 -0.3708 -0.5942 -0.5788
  441MOL0     C59461   8.341   0.481   7.159  0.0344  0.5020 -0.0451
  441MOL0     C59462   8.362   0.585   7.047  0.5987  0.3519  0.5816
  441MOL0     C59463   8.258   0.572   6.939 -0.8145  0.0247 -0.0111
  441MOL0     C59464   8.169   0.572   6.859  0.0021  0.4109  0.3494
  441MOL0     C59465   8.776   0.485   7.335 -0.3258 -0.7961 -0.2710
  441MOL0     C59466   8.904   0.535   7.359  0.3655  0.4434 -0.1115
  441MOL0     C59467   8.918   0.611   7.493  0.4561 -0.2356  0.2131
  441MOL0     H59468   9.407   0.386   7.319  1.6968 -0.0570  1.2446
  441MOL0     H59469   9.646   0.416   7.333  1.5807  1.3408  1.9163
  441MOL0     H59470   9.833   0.538   7.430  0.5597 -2.2898 -1.0129
  441MOL0     H59471   9.885   0.505   7.264  1.1822 -1.0125  1.2821
  441MOL0     H59472   9.967   0.715   7.460  1.1963 -1.3470  1.1335
  441MOL0     H59473  10.017   0.717   7.284  3.4494  1.6686  1.5900
  441MOL0     H59474  10.126   0.504   7.312 -0.7228 -0.7534 -0.0220
  441MOL0     H59475  10.084   0.519   7.491 -2.9119  3.0878  0.1002
  441MOL0     H59476  10.284   0.715   7.363  0.8853 -0.7038  0.6366
  441MOL0     H59477  10.200   0.732   7.501 -1.0321  0.9845 -1.8923
  441MOL0     H59478  10.326   0.568   7.622  2.1649  2.3497  0.9940
  441MOL0     H59479  10.387   0.483   7.472  3.5268  0.5213  0.5066
  441MOL0     H59480  10.479   0.765   7.521 -2.3625 -0.1257 -3.9551
  441MOL0     H59481  10.564   0.608   7.579 -1.6705 -1.1943  0.5315
  441MOL0     H59482  10.510   0.676   7.285 -2.8795 -1.6596  0.9149
  441MOL0     H59483  10.563   0.529   7.351 -1.8982  0.1106 -0.7702
  441MOL0     H59484  10.703   0.811   7.358  2.6380  0.4448 -0.3906
  441MOL0     H59485  10.770   0.679   7.432  0.6770  2.8133 -0.2265
  441MOL0     H59486  10.780   0.435   7.225  1.0183  0.5725  1.2688
  441MOL0     H59487  11.020   0.456   6.960 -1.4466 -0.4993 -2.4647
  441MOL0     H59488  10.953   0.331   7.055  3.5787  0.1077  0.5617
  441MOL0     H59489  10.796   0.462   6.824 -1.9455 -2.9822 -2.7547
  441MOL0     H59490  10.901   0.322   6.818  0.4830  2.3658 -1.2677
  441MOL0     H59491  10.665   0.341   7.004  0.3269 -0.1278 -0.9955
  441MOL0     H59492  10.775   0.198   6.981  2.0206  1.6861  1.7184
  441MOL0     H59493  10.705   0.225   6.727  0.2328  1.9241 -1.3158
  441MOL0     H59494  10.594   0.348   6.788  0.9145 -0.1524 -1.1691
  441MOL0     H59495  10.342   0.036   6.916 -0.2552  0.6246  0.6254
  441MOL0     H59496  10.121   0.024   6.815 -2.4319  0.5352 -1.7651
  441MOL0     H59497   9.760   0.217   6.629  1.0746  3.0346  0.5594
  441MOL0     H59498   9.543   0.236   6.511 -0.4224 -1.7012 -0.9995
  441MOL0     H59499   9.367   0.312   6.411 -1.5767 -2.1297 -1.4894
  441MOL0     H59500   9.386   0.473   6.336  0.0541  0.1369  1.6042
  441MOL0     H59501   9.301   0.376   6.125 -0.6217 -0.5977  0.3109
  441MOL0     H59502   9.260   0.228   6.217 -1.5755 -0.2572 -3.5156
  441MOL0     H59503   9.151   0.494   6.321 -0.3256  0.8142 -0.5707
  441MOL0     H59504   9.083   0.445   6.168  0.2529  0.2476 -0.1521
  441MOL0     H59505   9.124   0.290   6.437  0.9251  3.3737  0.4044
  441MOL0     H59506   9.037   0.206   6.297 -2.7783  0.3131 -1.0611
  441MOL0     H59507   8.987   0.450   6.471  2.7314 -3.6740  0.8602
  441MOL0     H59508   8.896   0.304   6.478  0.3546 -0.9514  0.8957
  441MOL0     H59509   8.743   0.437   6.372  0.0374  0.1015 -0.1347
  441MOL0     H59510   8.868   0.525   6.278  1.9289 -0.1304  0.9466
  441MOL0     H59511   8.788   0.231   6.228 -0.6220  0.6853  1.5914
  441MOL0     H59512   8.881   0.342   6.123 -0.4524 -1.1442  0.1384
  441MOL0     H59513   8.637   0.301   6.044 -0.6439  0.1918 -0.1375
  441MOL0     H59514   8.588   0.367   6.196 -0.1373  0.1697  0.0785
  441MOL0     H59515   9.756   0.372   6.159  1.1601 -1.3177  0.2453
  441MOL0     H59516   9.962   0.352   6.285 -0.2969 -0.6477 -0.0353
  441MOL0     H59517  10.252   0.302   6.519 -1.3832 -0.3199  0.2699
  441MOL0     H59518  10.470   0.315   6.635 -0.2351  0.0606  0.5358
  441MOL0     H59519   9.597   0.825   7.221  1.7718 -0.5383 -0.0440
  441MOL0     H59520   9.371   0.812   7.184 -1.2125  0.5585 -0.4999
  441MOL0     H59521   9.050   0.407   7.068  1.1614 -0.8037  2.0482
  441MOL0     H59522   8.824   0.328   7.039 -0.3179 -1.1906  0.0201
  441MOL0     H59523   8.558   0.222   7.085  0.4416  0.3851 -2.8954
  441MOL0     H59524   8.582   0.370   7.011 -2.2991 -0.3542 -1.9033
  441MOL0     H59525   8.355   0.271   7.186 -0.2293  0.2936  0.3248
  441MOL0     H59526   8.325   0.324   7.020 -2.4615  2.3036  0.0838
  441MOL0     H59527   8.389   0.518   7.250 -2.5137  2.9620  0.4522
  441MOL0     H59528   8.232   0.477   7.173 -0.0061 -1.8369 -0.6496
  441MOL0     H59529   8.378   0.683   7.091  0.7793  0.3111  0.6071
  441MOL0     H59530   8.459   0.577   6.997 -0.4480 -3.6333 -1.2648
  441MOL0     H59531   8.075   0.569   6.807  0.6522 -1.2581 -0.8433
  441MOL0     H59532   8.700   0.508   7.410 -2.0679  1.4819 -2.5459
  441MOL0     H59533   8.833   0.679   7.506 -1.0700 -1.7174 -1.4341
  441MOL0     H59534   8.922   0.547   7.582 -1.1066 -1.9763 -0.8765
  441MOL0     H59535   9.008   0.670   7.481 -0.1239  0.4128 -1.1836
  442MOL0     O59536   4.282   1.483  10.189 -0.0864  0.6019 -0.1489
  442MOL0     C59537   4.254   1.389  10.259  0.2487 -0.3612  0.7810
  442MOL0     O59538   4.324   1.357  10.371  0.3166 -0.0799 -0.8407
  442MOL0     C59539   4.387   1.444  10.455  0.1388  0.4967 -0.4547
  442MOL0     C59540   4.513   1.484  10.414  0.1212 -0.5573  0.7188
  442MOL0     C59541   4.595   1.568  10.495 -0.4967 -0.2011  0.4111
  442MOL0     C59542   4.541   1.618  10.618 -0.2055  0.9422  0.3490
  442MOL0     O59543   4.617   1.698  10.700 -0.2817  0.4849 -0.0073
  442MOL0     C59544   4.743   1.746  10.666  0.3106 -0.6788 -0.3409
  442MOL0     C59545   4.800   1.827  10.786  0.1520 -0.0517  0.1999
  442MOL0     C59546   4.719   1.962  10.803  0.6769 -0.8437 -0.0261
  442MOL0     C59547   4.829   2.075  10.838  0.3458  0.2937  0.5097
  442MOL0     C59548   4.745   2.208  10.867 -0.9518 -0.2882 -0.1331
  442MOL0     C59549   4.775   2.272  11.005  0.6100  0.6618 -0.1585
  442MOL0     C59550   4.915   2.316  11.004  0.2693 -0.1197 -1.0620
  442MOL0     C59551   4.940   2.442  10.921 -0.6455  0.4713  0.0967
  442MOL0     N59552   5.071   2.497  10.966 -0.0294  0.0776 -0.2024
  442MOL0     C59553   5.197   2.443  10.942 -0.8866 -0.2184  0.3174
  442MOL0     C59554   5.285   2.526  10.997 -0.1748 -0.1921  0.6054
  442MOL0     C59555   5.440   2.504  11.000  0.1980 -0.5902 -0.3453
  442MOL0     C59556   5.514   2.622  10.925  0.0148  0.6618  1.0383
  442MOL0     C59557   5.666   2.598  10.947  0.1879 -0.0672  0.4431
  442MOL0     C59558   5.745   2.689  10.855  0.8664 -0.2896 -0.5904
  442MOL0     O59559   5.890   2.685  10.875 -0.0945 -0.0003  0.6011
  442MOL0     C59560   5.975   2.736  10.784 -0.2532  0.6165 -0.3810
  442MOL0     C59561   5.946   2.836  10.695 -0.0152 -1.1096 -0.0599
  442MOL0     C59562   6.040   2.891  10.609 -0.3999  0.0096 -1.0334
  442MOL0     C59563   6.175   2.847  10.620 -0.8905 -0.0304  0.3325
  442MOL0     C59564   6.274   2.903  10.522  0.3983  0.6140  0.7003
  442MOL0     O59565   6.388   2.826  10.498  0.6760  0.7727  0.7562
  442MOL0     C59566   6.484   2.879  10.422 -1.4101 -0.1686 -0.7776
  442MOL0     C59567   6.478   2.904  10.290  0.2159 -0.0589 -1.3309
  442MOL0     C59568   6.585   2.944  10.215  0.2895  0.5551 -0.7535
  442MOL0     C59569   6.712   2.972  10.279 -0.0476  0.1139 -0.5337
  442MOL0     O59570   6.838   2.995  10.237 -0.1988  0.1266 -0.3096
  442MOL0     C59571   6.862   3.031  10.101 -0.3145  0.0744  0.2552
  442MOL0     C59572   7.014   3.035  10.059  0.5189  0.7272  0.2269
  442MOL0     C59573   7.076   3.161  10.109 -0.0984  0.2748  0.8641
  442MOL0     C59574   7.221   3.156  10.050  0.2188 -0.9311 -0.5304
  442MOL0     C59575   7.336   3.235  10.114  1.1050 -0.0564  0.6976
  442MOL0     C59576   7.446   3.260  10.015  0.5209  0.0950 -0.0444
  442MOL0     C59577   7.571   3.319  10.081 -0.2013  0.6426  0.3225
  442MOL0     C59578   7.682   3.326   9.974  0.3482 -0.0428 -1.7088
  442MOL0    Cl59579   7.838   3.363  10.034 -0.0637  0.0335 -0.1763
  442MOL0     C59580   6.708   2.961  10.419 -0.3195 -0.0830 -0.1586
  442MOL0     C59581   6.596   2.908  10.485 -0.5135 -0.2722  0.0112
  442MOL0     O59582   6.257   3.013  10.473 -0.1461  0.2851  0.7186
  442MOL0     C59583   6.204   2.742  10.711 -0.4424  0.5282  0.7611
  442MOL0     C59584   6.103   2.679  10.779  0.4724  0.0467 -0.1323
  442MOL0     N59585   5.207   2.612  11.071 -0.5053 -0.5468 -0.2627
  442MOL0     N59586   5.091   2.613  11.042  0.5358 -0.3304 -0.0733
  442MOL0     C59587   4.400   1.585  10.657 -0.2001 -0.7669  0.0997
  442MOL0     C59588   4.331   1.493  10.574 -0.1736 -0.8864  0.2501
  442MOL0     C59589   4.134   1.306  10.207 -0.4209 -0.4158 -0.3568
  442MOL0     C59590   4.069   1.345  10.084 -0.2130  0.4387 -0.6814
  442MOL0     C59591   3.940   1.296  10.056 -0.2956  0.5922 -0.7441
  442MOL0     C59592   3.878   1.203  10.136 -0.0508  0.4317  0.0479
  442MOL0     O59593   3.756   1.142  10.116 -0.0977 -1.2073  0.3167
  442MOL0     C59594   3.675   1.156   9.997  0.1768 -0.8821 -0.4124
  442MOL0     C59595   3.745   1.093   9.876 -0.6455 -0.3112 -0.4251
  442MOL0     C59596   3.775   0.945   9.887  0.2780 -0.1741 -1.1561
  442MOL0     C59597   3.906   0.901   9.806  0.0652  0.2751  0.0871
  442MOL0     C59598   3.941   0.760   9.836 -1.0412  0.4555 -0.0131
  442MOL0     C59599   3.979   0.649   9.847 -0.1657 -0.2528  1.0625
  442MOL0     C59600   3.940   1.160  10.244 -0.3375 -0.1671  0.3984
  442MOL0     C59601   4.061   1.214  10.286 -0.0218  0.8928  0.1163
  442MOL0     C59602   4.119   1.148  10.409  0.0163  0.0990  0.0052
  442MOL0     H59603   4.550   1.441  10.322 -1.5790 -0.8558  0.1273
  442MOL0     H59604   4.696   1.585  10.457  0.3274 -3.8025  0.6170
  442MOL0     H59605   4.817   1.671  10.638  1.8144  0.4550  0.4404
  442MOL0     H59606   4.733   1.811  10.578 -2.0266  0.4207  0.6377
  442MOL0     H59607   4.905   1.839  10.756 -0.5387  0.7141 -2.0612
  442MOL0     H59608   4.798   1.763  10.875  2.2747  0.1090  0.4313
  442MOL0     H59609   4.634   1.967  10.871  2.3396  2.8349  2.0150
  442MOL0     H59610   4.678   1.993  10.706  0.6270 -0.2619  0.1804
  442MOL0     H59611   4.885   2.040  10.925  2.0446  2.3076  0.2881
  442MOL0     H59612   4.902   2.083  10.758  1.9738 -2.3646  1.6072
  442MOL0     H59613   4.768   2.268  10.779 -0.8784 -1.7844 -1.1695
  442MOL0     H59614   4.640   2.180  10.856 -1.0349 -0.9588  1.9299
  442MOL0     H59615   4.715   2.362  11.020  0.0951  0.6837 -2.1144
  442MOL0     H59616   4.755   2.198  11.083  0.8068 -0.3771 -1.0651
  442MOL0     H59617   4.994   2.243  10.980 -0.1107 -1.0949  0.4960
  442MOL0     H59618   4.933   2.331  11.111 -1.1224 -0.2022 -0.8075
  442MOL0     H59619   4.941   2.418  10.814 -2.7775 -1.1096  0.3592
  442MOL0     H59620   4.874   2.529  10.927  1.0589  1.9657 -1.5621
  442MOL0     H59621   5.222   2.355  10.884  0.8963 -0.4985  1.4183
  442MOL0     H59622   5.474   2.511  11.103 -0.1467 -0.7782 -0.2174
  442MOL0     H59623   5.466   2.404  10.964  0.4315 -0.2528 -1.1413
  442MOL0     H59624   5.492   2.623  10.818 -0.6874  1.7161  1.1746
  442MOL0     H59625   5.478   2.715  10.970 -0.9656 -0.2817  2.2891
  442MOL0     H59626   5.692   2.495  10.919 -0.0936 -0.6822  2.2637
  442MOL0     H59627   5.686   2.616  11.053 -5.4533  1.3305  1.6039
  442MOL0     H59628   5.704   2.790  10.863  1.2394 -0.0456 -1.6387
  442MOL0     H59629   5.735   2.655  10.751  1.6350 -2.0566 -0.1270
  442MOL0     H59630   5.849   2.886  10.697  1.4065  1.9121 -0.3698
  442MOL0     H59631   6.011   2.974  10.545  0.5814  0.8851 -0.3899
  442MOL0     H59632   6.380   2.901  10.245  0.0700  0.6098 -1.0744
  442MOL0     H59633   6.579   2.947  10.106  1.4655 -1.0697 -0.9031
  442MOL0     H59634   6.828   2.951  10.035  1.4169  1.1011 -2.0036
  442MOL0     H59635   6.818   3.127  10.072 -0.0226  0.3758  0.7788
  442MOL0     H59636   7.066   2.944  10.093  2.1564  0.5752 -2.3765
  442MOL0     H59637   7.021   3.039   9.950  0.0301  0.0975  0.1677
  442MOL0     H59638   7.015   3.248  10.084 -1.2635  0.0997  2.8554
  442MOL0     H59639   7.082   3.158  10.219  2.0919 -0.4850  0.7698
  442MOL0     H59640   7.214   3.184   9.944 -4.1905  1.3871  0.1309
  442MOL0     H59641   7.257   3.053  10.051 -0.9226 -1.3530 -0.8002
  442MOL0     H59642   7.374   3.177  10.199  1.2897  0.0072  0.6588
  442MOL0     H59643   7.299   3.331  10.152  0.0308 -0.1221 -0.1299
  442MOL0     H59644   7.461   3.165   9.963  0.9163 -1.3521  2.5390
  442MOL0     H59645   7.403   3.332   9.945 -1.2770 -0.3458  0.5629
  442MOL0     H59646   7.590   3.259  10.170 -1.4518  0.4680  0.4919
  442MOL0     H59647   7.537   3.413  10.126 -4.6497 -0.5054 -0.1362
  442MOL0     H59648   7.691   3.237   9.912  2.4863 -2.3257  1.5397
  442MOL0     H59649   7.651   3.410   9.911 -1.9142  0.0995 -0.5219
  442MOL0     H59650   6.805   2.986  10.460 -0.3673  0.1397 -0.1809
  442MOL0     H59651   6.607   2.879  10.589 -4.5049 -1.8462  0.1573
  442MOL0     H59652   6.303   2.702  10.725 -0.2778  0.5386 -0.2948
  442MOL0     H59653   6.123   2.593  10.842 -2.2718 -1.1377 -0.7139
  442MOL0     H59654   4.358   1.638  10.743  0.0314  1.8648 -1.2882
  442MOL0     H59655   4.236   1.449  10.602  0.8402 -2.5051  1.3492
  442MOL0     H59656   4.125   1.414  10.021 -1.0367  0.0270 -1.9067
  442MOL0     H59657   3.886   1.320   9.965  1.7090 -3.5315 -3.2991
  442MOL0     H59658   3.657   1.261   9.973  0.0432 -0.4514  1.4443
  442MOL0     H59659   3.580   1.107  10.018 -0.5490  0.4959 -0.3559
  442MOL0     H59660   3.840   1.145   9.859 -1.8220  1.5024 -1.9370
  442MOL0     H59661   3.688   1.113   9.784  0.6515 -1.4723 -1.5157
  442MOL0     H59662   3.691   0.894   9.840 -1.4215  1.6334 -0.2506
  442MOL0     H59663   3.783   0.912   9.991  2.5334  0.8924 -0.9453
  442MOL0     H59664   3.896   0.907   9.697  0.6823 -0.6700 -0.0283
  442MOL0     H59665   3.988   0.966   9.839  0.4752  0.0718 -0.5189
  442MOL0     H59666   4.023   0.552   9.850 -1.2948 -1.0666 -2.8702
  442MOL0     H59667   3.895   1.088  10.312  2.2349 -2.9306 -0.5764
  442MOL0     H59668   4.057   1.064  10.439  0.8068  0.5156  3.1576
  442MOL0     H59669   4.218   1.104  10.392 -0.9707 -2.2357 -0.0376
  442MOL0     H59670   4.123   1.216  10.495 -0.5861 -0.9025  0.8453
  443MOL0     O59671   3.133   3.575   5.143  0.1735 -0.2929 -0.4515
  443MOL0     C59672   3.054   3.580   5.052  0.2998 -0.0302  0.9778
  443MOL0     O59673   3.091   3.588   4.912 -0.2308 -0.2021 -0.5691
  443MOL0     C59674   3.220   3.597   4.859 -0.3591  0.1420 -0.1770
  443MOL0     C59675   3.226   3.574   4.729 -0.2831  0.2554  0.3074
  443MOL0     C59676   3.350   3.596   4.667  0.9002  0.1272 -0.4513
  443MOL0     C59677   3.467   3.641   4.737  0.3219  0.3744  0.4509
  443MOL0     O59678   3.587   3.667   4.675  0.1610 -0.3810  0.0334
  443MOL0     C59679   3.598   3.639   4.533 -0.5906  0.6207 -0.1670
  443MOL0     C59680   3.735   3.668   4.475  0.1711  0.0194  0.5805
  443MOL0     C59681   3.847   3.602   4.553 -0.0316  0.1771 -0.5308
  443MOL0     C59682   3.986   3.613   4.487 -0.5416  0.9678  0.1876
  443MOL0     C59683   4.043   3.749   4.501  0.3501 -0.7586  0.7068
  443MOL0     C59684   4.167   3.785   4.419  0.9998  0.5896 -0.7874
  443MOL0     C59685   4.278   3.685   4.442  0.8426 -0.0184  0.4835
  443MOL0     C59686   4.421   3.749   4.390  0.0366 -0.4332 -0.4462
  443MOL0     N59687   4.521   3.649   4.418  0.6782  0.0176  0.3484
  443MOL0     C59688   4.587   3.644   4.536  0.2943 -0.8176 -0.3679
  443MOL0     C59689   4.687   3.555   4.510  0.0306  0.4471 -0.5730
  443MOL0     C59690   4.781   3.477   4.602 -0.0775  0.1354  0.0869
  443MOL0     C59691   4.926   3.531   4.583 -0.8046  0.4728  0.2100
  443MOL0     C59692   4.945   3.670   4.626  0.3495 -0.3634  0.4671
  443MOL0     C59693   5.089   3.720   4.612 -0.9352  0.8306 -0.3220
  443MOL0     O59694   5.180   3.645   4.693  0.3829 -0.1666  0.3486
  443MOL0     C59695   5.310   3.684   4.698  0.9452  0.3563 -0.0647
  443MOL0     C59696   5.392   3.753   4.603  0.7416  0.3433 -0.1670
  443MOL0     C59697   5.522   3.795   4.628 -0.1390 -0.3777  0.1280
  443MOL0     C59698   5.573   3.761   4.750  0.5640 -0.4462  0.4477
  443MOL0     C59699   5.710   3.814   4.773  0.3378 -0.2818  1.2649
  443MOL0     O59700   5.785   3.859   4.664  0.3875  0.1308 -0.3114
  443MOL0     C59701   5.922   3.863   4.680  0.4494 -0.7441 -0.5898
  443MOL0     C59702   5.968   3.976   4.762  0.1131 -0.4889 -0.4885
  443MOL0     C59703   6.100   4.003   4.781 -0.9948 -1.0008 -0.4788
  443MOL0     C59704   6.189   3.914   4.717  0.7994  0.2710 -0.1034
  443MOL0     O59705   6.321   3.948   4.750  0.1808  0.6305 -0.2407
  443MOL0     C59706   6.430   3.863   4.700 -0.5217 -0.4263  0.8557
  443MOL0     C59707   6.568   3.894   4.760 -0.4514 -1.1899 -0.4497
  443MOL0     C59708   6.684   3.834   4.684 -0.5582  0.2170  0.2347
  443MOL0     C59709   6.821   3.897   4.724  0.1626  0.5812  1.1823
  443MOL0     C59710   6.919   3.799   4.672  0.2570  1.0735 -0.1581
  443MOL0     C59711   7.057   3.842   4.718 -0.0462 -0.7901 -0.7388
  443MOL0     C59712   7.150   3.857   4.602  0.0092  0.5320  1.5108
  443MOL0     C59713   7.119   3.987   4.515  0.2037  0.1333 -0.6943
  443MOL0    Cl59714   7.123   4.133   4.630  0.4205 -0.5797 -0.1218
  443MOL0     C59715   6.148   3.805   4.638  0.1663  0.6142  0.2725
  443MOL0     C59716   6.010   3.780   4.618 -0.1899  0.6055  0.0788
  443MOL0     O59717   5.749   3.808   4.887 -0.3638 -0.2103  0.3504
  443MOL0     C59718   5.500   3.685   4.846  0.1424  0.2250 -0.7636
  443MOL0     C59719   5.369   3.645   4.815  0.4187  0.0715 -0.5504
  443MOL0     N59720   4.684   3.513   4.378 -0.3918 -0.0589  0.0656
  443MOL0     N59721   4.580   3.572   4.325 -0.0485 -0.4658  0.1771
  443MOL0     C59722   3.457   3.674   4.870 -0.1238  0.6919  0.3789
  443MOL0     C59723   3.337   3.635   4.932  0.8309 -0.4833  0.3787
  443MOL0     C59724   2.913   3.561   5.081  0.6174  0.3418 -0.2475
  443MOL0     C59725   2.835   3.502   4.975 -0.4646  0.4911 -0.5841
  443MOL0     C59726   2.693   3.489   4.995 -0.0217 -0.7930  0.0489
  443MOL0     C59727   2.628   3.536   5.104 -0.1212  0.3516 -0.2987
  443MOL0     O59728   2.498   3.503   5.119  0.1433  0.2850  0.6020
  443MOL0     C59729   2.429   3.583   5.214  0.2795  0.0573  0.1235
  443MOL0     C59730   2.281   3.569   5.189 -0.0528  0.4269  0.1245
  443MOL0     C59731   2.222   3.453   5.260  0.2850  0.0699 -0.4582
  443MOL0     C59732   2.068   3.468   5.265  0.3725 -0.0656  0.5054
  443MOL0     C59733   2.010   3.462   5.124 -0.2825 -0.1725  0.2607
  443MOL0     C59734   1.946   3.450   5.022 -0.1765  0.2337 -0.4021
  443MOL0     C59735   2.703   3.602   5.201  0.8197  0.0088  0.1670
  443MOL0     C59736   2.841   3.627   5.189  0.1663  0.3940  0.8169
  443MOL0     C59737   2.908   3.713   5.291 -0.0760 -0.0389  0.5434
  443MOL0     H59738   3.135   3.552   4.674 -0.0920 -1.3675  0.6009
  443MOL0     H59739   3.345   3.566   4.563  2.5710 -1.3471 -0.1562
  443MOL0     H59740   3.582   3.532   4.513  4.9430 -0.5655  0.2301
  443MOL0     H59741   3.519   3.690   4.477  0.3750  0.1085 -2.0740
  443MOL0     H59742   3.760   3.774   4.469  0.8577 -0.1862 -0.6906
  443MOL0     H59743   3.717   3.621   4.378  0.1602  1.4067 -0.1052
  443MOL0     H59744   3.818   3.498   4.568 -2.8626  0.9035 -0.3998
  443MOL0     H59745   3.855   3.657   4.647  2.1250  1.2383 -1.2653
  443MOL0     H59746   4.050   3.535   4.530 -2.6427 -0.6866  0.4822
  443MOL0     H59747   3.977   3.586   4.381  1.7368 -0.1813  0.2195
  443MOL0     H59748   3.968   3.826   4.481  0.7527  0.0017  2.0658
  443MOL0     H59749   4.067   3.753   4.607 -0.1086 -1.3671  0.8408
  443MOL0     H59750   4.126   3.787   4.317  0.7651 -0.1399 -0.7127
  443MOL0     H59751   4.190   3.887   4.451 -1.1206  1.2043 -1.0354
  443MOL0     H59752   4.260   3.587   4.396 -0.8129  0.3993  0.1811
  443MOL0     H59753   4.283   3.655   4.547 -0.9710 -1.4012  0.2213
  443MOL0     H59754   4.412   3.775   4.284  1.3697  0.8680 -0.2808
  443MOL0     H59755   4.433   3.839   4.451  0.9788 -2.0396  1.8611
  443MOL0     H59756   4.561   3.691   4.631  1.9784 -3.8028  1.7474
  443MOL0     H59757   4.753   3.491   4.707 -0.3539 -2.2958  0.3866
  443MOL0     H59758   4.789   3.371   4.579 -1.3228  0.4993 -2.3731
  443MOL0     H59759   4.996   3.473   4.643  0.1303  2.3267  0.9853
  443MOL0     H59760   4.952   3.511   4.479 -1.4624  0.0538  0.1158
  443MOL0     H59761   4.918   3.673   4.732  0.3640 -0.4873  0.4754
  443MOL0     H59762   4.873   3.745   4.590  0.0573  0.5567  2.7962
  443MOL0     H59763   5.084   3.826   4.639 -1.5368  1.2043 -1.8067
  443MOL0     H59764   5.119   3.705   4.508 -1.7535  1.8002 -0.7150
  443MOL0     H59765   5.355   3.767   4.502 -1.5259  1.1645  0.6928
  443MOL0     H59766   5.570   3.845   4.545  1.6614 -0.7609  0.8876
  443MOL0     H59767   5.890   4.047   4.788  1.2656  1.6983 -2.7096
  443MOL0     H59768   6.128   4.093   4.835 -2.1075 -1.0091  0.1373
  443MOL0     H59769   6.406   3.762   4.733 -0.2458 -1.4207 -1.7867
  443MOL0     H59770   6.436   3.876   4.592  2.0774  0.5591  1.0591
  443MOL0     H59771   6.575   4.003   4.765 -1.3673 -1.0952 -0.9633
  443MOL0     H59772   6.572   3.856   4.863  1.0208  0.8082  0.2849
  443MOL0     H59773   6.676   3.727   4.704  0.7208  0.4584  2.4202
  443MOL0     H59774   6.672   3.854   4.577  1.0277  5.5690  0.7166
  443MOL0     H59775   6.825   3.910   4.832 -0.9530  0.6225  1.2249
  443MOL0     H59776   6.844   3.994   4.679 -0.9196  0.0116 -0.6875
  443MOL0     H59777   6.897   3.791   4.565 -2.4126  0.4422  0.3796
  443MOL0     H59778   6.900   3.700   4.715  1.5502  0.9713  0.2233
  443MOL0     H59779   7.048   3.933   4.777 -0.6424 -1.3227  0.0158
  443MOL0     H59780   7.108   3.769   4.782  0.1227 -0.4961 -0.5383
  443MOL0     H59781   7.146   3.769   4.536 -3.5588  0.9730  0.9273
  443MOL0     H59782   7.258   3.858   4.616  0.9706  0.0624 -3.6054
  443MOL0     H59783   7.190   4.010   4.435 -1.6619  0.2819 -2.4083
  443MOL0     H59784   7.019   3.979   4.470 -0.2054 -1.0195  0.3906
  443MOL0     H59785   6.219   3.732   4.601  1.1028  0.8695  1.5085
  443MOL0     H59786   5.984   3.694   4.557  1.8611  0.7363 -1.0485
  443MOL0     H59787   5.549   3.668   4.941  4.7106 -1.3675 -3.0780
  443MOL0     H59788   5.306   3.588   4.883 -0.0242 -1.6276 -2.3187
  443MOL0     H59789   3.547   3.696   4.926  0.8363  2.7384 -1.8206
  443MOL0     H59790   3.339   3.637   5.041 -1.1685 -0.7027  0.4495
  443MOL0     H59791   2.877   3.453   4.888  1.5458 -1.8554  1.5603
  443MOL0     H59792   2.632   3.432   4.925 -1.3919 -0.1471  0.6898
  443MOL0     H59793   2.453   3.690   5.215  0.2371  0.1822 -2.9000
  443MOL0     H59794   2.450   3.547   5.315 -0.9190 -0.2737  0.2633
  443MOL0     H59795   2.276   3.569   5.080  0.9903 -0.8170  0.0525
  443MOL0     H59796   2.234   3.665   5.213  1.1668  1.3652 -1.0658
  443MOL0     H59797   2.258   3.465   5.362 -1.5553  2.4576  0.0022
  443MOL0     H59798   2.244   3.355   5.217  1.2250 -0.0116  0.1939
  443MOL0     H59799   2.026   3.383   5.319 -0.8659  0.5591  0.5797
  443MOL0     H59800   2.041   3.565   5.308  3.2337  1.9515 -1.8463
  443MOL0     H59801   1.906   3.423   4.927  2.1813 -4.0740 -0.4343
  443MOL0     H59802   2.657   3.640   5.292 -2.4496  1.3629 -1.8740
  443MOL0     H59803   2.993   3.656   5.329 -0.4182 -1.2164 -0.3962
  443MOL0     H59804   2.935   3.811   5.250  1.1920 -0.5917  0.0189
  443MOL0     H59805   2.848   3.739   5.378 -1.4235  1.5379 -0.7838
  444MOL0     O59806   3.714   0.367   5.200 -0.1162  0.0187 -0.8467
  444MOL0     C59807   3.600   0.372   5.252 -0.5581 -0.3372  0.4505
  444MOL0     O59808   3.537   0.270   5.325 -0.5509 -0.7781 -0.4842
  444MOL0     C59809   3.621   0.204   5.405  0.0533 -0.3516  0.4303
  444MOL0     C59810   3.666   0.282   5.511 -0.1203  0.2830  0.4642
  444MOL0     C59811   3.726   0.221   5.618 -0.8295 -0.3123 -0.1952
  444MOL0     C59812   3.756   0.086   5.610 -0.5961  0.6148 -0.6289
  444MOL0     O59813   3.807   0.020   5.722 -0.4051 -0.1726  0.0048
  444MOL0     C59814   3.846   0.090   5.850 -0.2436  0.8321  0.6234
  444MOL0     C59815   3.990   0.139   5.830  0.1355  0.3304 -0.9075
  444MOL0     C59816   4.090   0.022   5.801 -0.3344 -0.5045  0.4691
  444MOL0     C59817   4.237   0.068   5.796  0.5298  0.9098  0.2640
  444MOL0     C59818   4.326  -0.057   5.777  0.3927 -0.2077  0.5684
  444MOL0     C59819   4.338  -0.080   5.623 -0.0527 -0.5685 -0.2189
  444MOL0     C59820   4.448  -0.190   5.600  0.0865 -0.5649  0.3629
  444MOL0     C59821   4.457  -0.254   5.461  0.0873  0.5411 -0.7394
  444MOL0     N59822   4.576  -0.349   5.461 -0.0794 -0.1637  0.3760
  444MOL0     C59823   4.597  -0.457   5.544  0.3166  0.0806  0.1909
  444MOL0     C59824   4.716  -0.517   5.509  0.6263  0.5062 -1.0038
  444MOL0     C59825   4.758  -0.656   5.537 -0.3255 -0.5794 -0.9319
  444MOL0     C59826   4.918  -0.658   5.510  1.4837  0.3644 -0.0359
  444MOL0     C59827   4.989  -0.778   5.580  0.3716 -0.4276 -0.7363
  444MOL0     C59828   5.136  -0.793   5.545  0.1951 -0.1176 -0.0049
  444MOL0     O59829   5.190  -0.902   5.610 -0.4057 -0.3206 -0.1346
  444MOL0     C59830   5.323  -0.939   5.564  0.1942  0.2541 -0.0278
  444MOL0     C59831   5.395  -0.879   5.460 -0.5794  0.4350 -0.0048
  444MOL0     C59832   5.517  -0.936   5.421  0.0550 -0.0561 -0.5447
  444MOL0     C59833   5.580  -1.053   5.485  0.0249 -0.5617  0.1096
  444MOL0     C59834   5.723  -1.081   5.441  0.3924 -0.6177 -0.3869
  444MOL0     O59835   5.788  -1.159   5.537  0.4376 -0.4018 -0.1495
  444MOL0     C59836   5.919  -1.193   5.506 -0.3491  0.6736 -0.7465
  444MOL0     C59837   5.947  -1.335   5.515  0.0325 -0.5037  0.6538
  444MOL0     C59838   6.076  -1.387   5.515  0.7300 -0.9865 -0.7773
  444MOL0     C59839   6.180  -1.298   5.493  0.0035 -0.5048 -0.1762
  444MOL0     O59840   6.314  -1.325   5.490 -0.0675 -0.0960  0.0318
  444MOL0     C59841   6.365  -1.454   5.447  0.4857  0.3192  0.6448
  444MOL0     C59842   6.514  -1.449   5.437 -0.0282 -0.2747  0.0586
  444MOL0     C59843   6.567  -1.555   5.337 -0.7926  1.0390  0.0422
  444MOL0     C59844   6.723  -1.568   5.357  0.0046 -1.5653 -0.4675
  444MOL0     C59845   6.786  -1.647   5.245 -0.5222 -0.8801  0.1074
  444MOL0     C59846   6.940  -1.636   5.252  0.1865 -0.8386 -0.6026
  444MOL0     C59847   6.998  -1.705   5.129  0.0740 -0.6485  0.1141
  444MOL0     C59848   7.137  -1.761   5.161 -0.3661  0.3627 -0.1323
  444MOL0    Cl59849   7.220  -1.801   5.014  0.3670 -0.3878 -0.1059
  444MOL0     C59850   6.152  -1.155   5.496 -0.3775  0.3661 -0.1389
  444MOL0     C59851   6.022  -1.106   5.491 -0.5755  0.7245  0.4592
  444MOL0     O59852   5.773  -1.027   5.339 -0.5488 -0.0429  0.0746
  444MOL0     C59853   5.514  -1.107   5.592  0.5722  0.1064  0.4664
  444MOL0     C59854   5.382  -1.054   5.620  0.7307 -0.5905 -0.1819
  444MOL0     N59855   4.767  -0.443   5.403  0.3987 -0.5026 -0.8098
  444MOL0     N59856   4.681  -0.342   5.374 -0.8028  0.9348  0.2628
  444MOL0     C59857   3.721   0.010   5.500 -2.3548 -0.1825 -0.1712
  444MOL0     C59858   3.656   0.070   5.391 -0.1813  0.4807 -0.3432
  444MOL0     C59859   3.519   0.479   5.205  0.8759  0.7093 -0.6236
  444MOL0     C59860   3.378   0.454   5.178 -0.4876  0.2648 -0.7056
  444MOL0     C59861   3.302   0.556   5.134  0.0913 -0.1942 -0.3591
  444MOL0     C59862   3.359   0.674   5.101 -0.2210  0.1053  0.6266
  444MOL0     O59863   3.281   0.760   5.027  0.5828 -0.2877  0.4876
  444MOL0     C59864   3.237   0.875   5.096 -0.1236  0.2598  0.0400
  444MOL0     C59865   3.085   0.896   5.059  0.0305 -1.0034  0.3379
  444MOL0     C59866   3.036   1.043   5.093  0.2377  0.8581  0.1151
  444MOL0     C59867   2.884   1.070   5.061 -0.1521 -0.0425 -0.4503
  444MOL0     C59868   2.843   1.206   5.100  0.1996 -0.3066  0.5628
  444MOL0     C59869   2.806   1.323   5.108  0.1535  0.1512 -0.8446
  444MOL0     C59870   3.491   0.698   5.127  0.4225 -0.0641  0.6120
  444MOL0     C59871   3.574   0.604   5.191  0.2791  0.4550 -0.8273
  444MOL0     C59872   3.710   0.656   5.244  0.5274 -0.1670 -0.5293
  444MOL0     H59873   3.640   0.387   5.519  1.6264  0.8041 -0.2770
  444MOL0     H59874   3.763   0.278   5.703 -1.7412 -1.3974  0.9821
  444MOL0     H59875   3.775   0.172   5.862 -0.9253  0.5191 -0.9170
  444MOL0     H59876   3.844   0.021   5.935  2.5444  0.8770  0.8236
  444MOL0     H59877   4.024   0.185   5.923  4.3346 -0.2794 -1.9586
  444MOL0     H59878   3.982   0.212   5.749 -1.2131  1.1464 -0.0986
  444MOL0     H59879   4.065  -0.019   5.702 -0.1206  2.8781 -1.1253
  444MOL0     H59880   4.081  -0.053   5.880  1.4923  0.4901  1.6982
  444MOL0     H59881   4.254   0.136   5.711  0.7570 -1.7292 -1.9263
  444MOL0     H59882   4.252   0.115   5.894  0.5108  0.2655  0.5778
  444MOL0     H59883   4.427  -0.039   5.815  0.6008 -2.4577  1.2614
  444MOL0     H59884   4.289  -0.146   5.828  0.0417 -1.9443 -2.4343
  444MOL0     H59885   4.243  -0.112   5.580  0.7207 -0.7629 -1.8691
  444MOL0     H59886   4.358   0.016   5.575 -1.1156 -1.5823 -2.9090
  444MOL0     H59887   4.429  -0.269   5.674  0.1234 -1.6528 -0.7451
  444MOL0     H59888   4.546  -0.147   5.622 -1.3297  2.2836  1.5962
  444MOL0     H59889   4.361  -0.306   5.447  1.3804 -1.7027 -1.8675
  444MOL0     H59890   4.466  -0.183   5.379  2.4621 -1.1898 -2.0977
  444MOL0     H59891   4.520  -0.503   5.605  0.8776  0.7351  1.4503
  444MOL0     H59892   4.727  -0.672   5.641  2.0970  3.0030  0.5539
  444MOL0     H59893   4.706  -0.730   5.476 -2.6671 -1.8487  2.3128
  444MOL0     H59894   4.936  -0.663   5.402 -1.4771 -0.2863 -0.5725
  444MOL0     H59895   4.944  -0.558   5.546 -2.8192  0.8987  2.1001
  444MOL0     H59896   4.937  -0.862   5.533  0.3272  0.5551 -2.5293
  444MOL0     H59897   4.965  -0.792   5.686  1.0723 -1.9394 -0.7590
  444MOL0     H59898   5.191  -0.703   5.571  1.5381 -0.4138 -1.6373
  444MOL0     H59899   5.136  -0.797   5.435  0.6475  3.3018 -0.2283
  444MOL0     H59900   5.359  -0.790   5.410  3.0980  1.8748 -0.4594
  444MOL0     H59901   5.570  -0.883   5.343  0.1376  3.5503  1.7102
  444MOL0     H59902   5.861  -1.400   5.531 -0.5652 -0.3120 -1.4349
  444MOL0     H59903   6.102  -1.491   5.530  2.5259 -0.5537 -0.6516
  444MOL0     H59904   6.322  -1.523   5.519 -0.8432 -0.6419 -0.9942
  444MOL0     H59905   6.319  -1.473   5.350  1.3298  1.5803 -0.0360
  444MOL0     H59906   6.532  -1.347   5.402  0.0423 -0.0497  0.7244
  444MOL0     H59907   6.561  -1.455   5.536 -2.2535 -1.6362  1.1166
  444MOL0     H59908   6.532  -1.657   5.354 -0.1570  0.4504 -1.8899
  444MOL0     H59909   6.548  -1.516   5.236 -0.0204  0.4451 -0.3394
  444MOL0     H59910   6.737  -1.605   5.459  0.3769 -0.6818 -0.1953
  444MOL0     H59911   6.772  -1.471   5.350 -0.5212 -1.1428  1.1402
  444MOL0     H59912   6.763  -1.600   5.149 -2.8523  1.2274  1.5781
  444MOL0     H59913   6.752  -1.751   5.246  2.3648 -1.9715 -2.0499
  444MOL0     H59914   6.963  -1.529   5.253  0.0906 -0.8184 -0.1253
  444MOL0     H59915   6.976  -1.684   5.344 -0.5647 -1.4730 -0.6333
  444MOL0     H59916   7.010  -1.629   5.050 -3.9480  1.2399  1.0688
  444MOL0     H59917   6.930  -1.785   5.100 -1.3886  1.1403 -1.7217
  444MOL0     H59918   7.190  -1.684   5.218 -0.0601  1.4277 -1.8108
  444MOL0     H59919   7.135  -1.853   5.221  1.6722  1.1768  1.2564
  444MOL0     H59920   6.234  -1.085   5.497  0.1312 -0.2103 -0.6050
  444MOL0     H59921   5.993  -1.002   5.495 -0.4617  0.7364  0.9897
  444MOL0     H59922   5.553  -1.196   5.640 -1.5903 -2.4256 -2.0450
  444MOL0     H59923   5.337  -1.119   5.694 -2.4170 -0.9824 -2.2474
  444MOL0     H59924   3.731  -0.098   5.502 -1.1654 -0.0833  0.1439
  444MOL0     H59925   3.613   0.015   5.308 -0.4984  1.0586 -0.5715
  444MOL0     H59926   3.325   0.359   5.189 -3.4896  2.0167  1.4081
  444MOL0     H59927   3.196   0.547   5.117 -0.1497 -0.5350  1.1444
  444MOL0     H59928   3.299   0.958   5.060  1.6863 -0.8453  0.4533
  444MOL0     H59929   3.263   0.862   5.202  1.7679  0.2536 -0.3801
  444MOL0     H59930   3.017   0.823   5.103 -4.0427  0.9058 -2.2275
  444MOL0     H59931   3.080   0.896   4.950  0.0184  0.6958  0.3056
  444MOL0     H59932   3.091   1.113   5.030  0.1392  0.6317 -0.2232
  444MOL0     H59933   3.064   1.079   5.192 -0.1496 -1.1007  0.9863
  444MOL0     H59934   2.863   1.060   4.954 -0.7052  3.4407 -0.7641
  444MOL0     H59935   2.812   1.005   5.113 -0.4070  1.8256  1.6835
  444MOL0     H59936   2.790   1.429   5.110 -3.9094 -0.2959  1.2497
  444MOL0     H59937   3.544   0.782   5.083  1.2422 -0.5834  0.5930
  444MOL0     H59938   3.721   0.764   5.260  3.3067 -0.8525  4.0418
  444MOL0     H59939   3.723   0.620   5.347  0.4647  3.2868  0.8321
  444MOL0     H59940   3.784   0.621   5.172  2.1647 -1.7020  1.7956
  445MOL0     O59941   7.304   0.170  11.273  0.1071 -0.3066 -0.1336
  445MOL0     C59942   7.402   0.249  11.250 -0.9440  0.6255 -0.0239
  445MOL0     O59943   7.528   0.224  11.291 -0.2643  0.4376 -0.0340
  445MOL0     C59944   7.547   0.100  11.353  0.8103  0.3351  1.0959
  445MOL0     C59945   7.612  -0.003  11.281  0.3049  0.1983 -0.8917
  445MOL0     C59946   7.633  -0.128  11.332  0.2156 -0.4055 -0.1361
  445MOL0     C59947   7.587  -0.154  11.462  0.1585  0.2675  0.2270
  445MOL0     O59948   7.632  -0.270  11.518  0.1464  0.7771  0.2238
  445MOL0     C59949   7.534  -0.349  11.592  0.4337  0.1147 -0.6346
  445MOL0     C59950   7.516  -0.482  11.518  1.3876 -0.2104  0.7957
  445MOL0     C59951   7.428  -0.580  11.604 -0.4046  0.2533 -0.2059
  445MOL0     C59952   7.485  -0.624  11.743 -0.2420  0.3526 -0.6809
  445MOL0     C59953   7.400  -0.740  11.800  0.1299  0.0651  0.1277
  445MOL0     C59954   7.259  -0.690  11.836  0.0251  0.5120  0.6091
  445MOL0     C59955   7.183  -0.795  11.921  0.3580 -0.2037 -0.5231
  445MOL0     C59956   7.227  -0.783  12.068 -0.0563  0.4506  0.6759
  445MOL0     N59957   7.144  -0.867  12.151 -0.6341 -0.4527 -0.2348
  445MOL0     C59958   7.195  -0.973  12.223 -0.0669  0.6586 -0.2871
  445MOL0     C59959   7.103  -1.005  12.321 -0.0040 -0.2590  0.1303
  445MOL0     C59960   7.113  -1.125  12.420 -0.1103 -0.5241 -0.4051
  445MOL0     C59961   7.052  -1.249  12.356 -0.6838 -0.1140 -0.0506
  445MOL0     C59962   6.905  -1.271  12.375  0.8081  1.0376  1.1281
  445MOL0     C59963   6.821  -1.184  12.286 -0.1322  0.3501 -0.0188
  445MOL0     O59964   6.878  -1.187  12.160 -0.7286 -0.4031  0.0441
  445MOL0     C59965   6.852  -1.086  12.072  0.5613 -0.1994  0.4046
  445MOL0     C59966   6.895  -1.104  11.940  0.7238  0.6401  0.2533
  445MOL0     C59967   6.867  -1.011  11.839  0.4486  0.6856 -0.2548
  445MOL0     C59968   6.805  -0.888  11.866 -0.2563  0.0422 -0.2573
  445MOL0     C59969   6.806  -0.771  11.774 -0.1892  0.3066  0.5976
  445MOL0     O59970   6.910  -0.778  11.682  0.1684  0.6722  0.3016
  445MOL0     C59971   6.966  -0.672  11.623  0.0364  0.6382  0.3073
  445MOL0     C59972   7.042  -0.688  11.508 -0.6092  0.6942  0.2534
  445MOL0     C59973   7.098  -0.582  11.445  0.6039 -0.1752  0.0157
  445MOL0     C59974   7.076  -0.451  11.493 -0.7827  0.3273  0.4718
  445MOL0     O59975   7.118  -0.332  11.450  0.2572 -0.8120  0.5441
  445MOL0     C59976   7.183  -0.320  11.319 -0.2448  0.9997 -0.0790
  445MOL0     C59977   7.205  -0.170  11.291  0.0923  0.8020 -0.6486
  445MOL0     C59978   7.065  -0.082  11.277 -0.2610  0.3805  0.1752
  445MOL0     C59979   6.988  -0.050  11.410 -0.6518 -0.6071 -0.0119
  445MOL0     C59980   6.953   0.102  11.416  0.2398  0.9651 -0.1674
  445MOL0     C59981   6.863   0.145  11.540 -1.1416 -0.2017  0.1027
  445MOL0     C59982   6.841   0.288  11.544  0.1955 -0.4470  0.1219
  445MOL0     C59983   6.976   0.369  11.573  0.8373 -0.2616 -0.1903
  445MOL0    Cl59984   6.944   0.551  11.560 -0.0537  0.1688  0.1070
  445MOL0     C59985   7.008  -0.435  11.605  0.1111 -0.2968 -0.2044
  445MOL0     C59986   6.948  -0.539  11.673 -0.2516 -0.0783  0.4009
  445MOL0     O59987   6.709  -0.689  11.775 -0.0148 -0.5554 -0.2775
  445MOL0     C59988   6.741  -0.876  11.997  0.0760 -0.0298 -0.4053
  445MOL0     C59989   6.771  -0.970  12.095  0.7938 -0.5102 -0.0467
  445MOL0     N59990   7.013  -0.910  12.302 -0.3188 -0.3599  0.4196
  445MOL0     N59991   7.029  -0.832  12.206 -0.2526 -0.5492 -0.2440
  445MOL0     C59992   7.520  -0.052  11.532  0.0534 -0.1994 -0.1070
  445MOL0     C59993   7.492   0.067  11.476 -0.7719 -0.2602  0.9181
  445MOL0     C59994   7.390   0.354  11.151  0.0282  0.1507 -0.2371
  445MOL0     C59995   7.509   0.395  11.087  0.8125  0.0587  0.3118
  445MOL0     C59996   7.501   0.489  10.982 -0.2922  0.3195  1.7438
  445MOL0     C59997   7.375   0.535  10.929  0.3620  0.2641 -0.3770
  445MOL0     O59998   7.385   0.621  10.827 -0.7032  0.3193 -0.0805
  445MOL0     C59999   7.260   0.659  10.769 -0.3539 -0.3775  0.1169
  445MOL0     C60000   7.275   0.733  10.633 -0.0774 -0.3224  0.4124
  445MOL0     C60001   7.360   0.857  10.643  0.3937 -0.8655  0.2943
  445MOL0     C60002   7.388   0.916  10.503 -0.6611  0.0022  0.7326
  445MOL0     C60003   7.264   0.917  10.420 -0.2528  0.2079 -0.1495
  445MOL0     C60004   7.164   0.896  10.358  0.0847 -0.6433  0.0345
  445MOL0     C60005   7.257   0.491  10.991 -0.3344 -0.2515  0.0627
  445MOL0     C60006   7.265   0.404  11.108 -0.0329  0.3821 -0.8938
  445MOL0     C60007   7.137   0.371  11.171  0.4128  0.1170 -0.0668
  445MOL0     H60008   7.635   0.030  11.180  2.2102  0.2093 -0.4832
  445MOL0     H60009   7.690  -0.207  11.284 -0.0193 -1.7563  1.6828
  445MOL0     H60010   7.576  -0.369  11.690 -3.2043  1.6573  1.4568
  445MOL0     H60011   7.443  -0.292  11.613  0.9211  0.6404  0.0990
  445MOL0     H60012   7.611  -0.525  11.483  2.0120  1.2288  0.6400
  445MOL0     H60013   7.471  -0.449  11.424  2.5041  0.6848  0.5476
  445MOL0     H60014   7.410  -0.670  11.544  1.6735  2.5150 -4.7478
  445MOL0     H60015   7.331  -0.528  11.603  0.7305  2.5575 -2.4415
  445MOL0     H60016   7.586  -0.663  11.727 -0.1946 -0.9064  2.0857
  445MOL0     H60017   7.494  -0.538  11.810  0.6611  0.4594 -0.9355
  445MOL0     H60018   7.398  -0.825  11.731 -0.1964 -1.3514  1.8123
  445MOL0     H60019   7.452  -0.780  11.888  0.3336  1.5264  0.7032
  445MOL0     H60020   7.266  -0.599  11.896 -1.0622 -0.4084  2.1944
  445MOL0     H60021   7.201  -0.674  11.745  0.2446 -0.0285  0.3683
  445MOL0     H60022   7.174  -0.892  11.870 -1.9423 -0.5372  0.3707
  445MOL0     H60023   7.081  -0.756  11.918 -1.3106 -3.9878  0.6388
  445MOL0     H60024   7.326  -0.826  12.080 -0.7819 -1.0284  1.6485
  445MOL0     H60025   7.224  -0.677  12.097  3.0346  0.4386  1.3504
  445MOL0     H60026   7.288  -1.025  12.206 -0.0147  0.9659 -1.0125
  445MOL0     H60027   7.219  -1.139  12.443 -0.7303 -1.2260  2.3658
  445MOL0     H60028   7.067  -1.108  12.518  0.6227 -2.6380  0.3672
  445MOL0     H60029   7.096  -1.244  12.256  1.1999  2.5314  0.8191
  445MOL0     H60030   7.103  -1.327  12.413  0.8702  3.4100  3.9203
  445MOL0     H60031   6.865  -1.255  12.476 -0.6739  1.8278  0.4322
  445MOL0     H60032   6.889  -1.376  12.350  0.4826  1.1639  0.8050
  445MOL0     H60033   6.827  -1.084  12.332  1.8194  0.6589 -0.8508
  445MOL0     H60034   6.723  -1.228  12.272  0.5212 -1.2365  0.2253
  445MOL0     H60035   6.943  -1.198  11.914 -0.5804 -0.0662  0.2778
  445MOL0     H60036   6.892  -1.039  11.737  1.9587 -1.7746  0.7057
  445MOL0     H60037   7.055  -0.787  11.466  1.6029  0.5879  1.0385
  445MOL0     H60038   7.130  -0.593  11.342 -0.3864  0.0175 -0.3208
  445MOL0     H60039   7.284  -0.361  11.328 -0.3088  1.0774  1.1329
  445MOL0     H60040   7.126  -0.364  11.237  0.1113  1.8181 -0.7903
  445MOL0     H60041   7.269  -0.134  11.372 -0.0809 -1.0458  0.3573
  445MOL0     H60042   7.266  -0.159  11.200  4.0128 -0.6372  1.5564
  445MOL0     H60043   7.081   0.010  11.220  1.7742  0.0499  0.1388
  445MOL0     H60044   7.006  -0.150  11.214  0.7135  0.4278 -0.8230
  445MOL0     H60045   7.057  -0.068  11.493 -0.0381  1.1026 -0.1185
  445MOL0     H60046   6.897  -0.109  11.424 -1.8070  1.1740  0.3158
  445MOL0     H60047   6.916   0.138  11.320  2.0893  2.1585 -0.4730
  445MOL0     H60048   7.048   0.152  11.437 -0.1614  0.4523  3.5332
  445MOL0     H60049   6.766   0.093  11.537 -1.0807 -0.2867 -0.3978
  445MOL0     H60050   6.914   0.106  11.628 -0.7168 -0.8172 -0.4062
  445MOL0     H60051   6.773   0.307  11.628  0.1624 -1.5528  0.3594
  445MOL0     H60052   6.790   0.327  11.456 -0.0621 -0.0648  0.4375
  445MOL0     H60053   7.008   0.346  11.676 -0.2127 -3.6168 -0.4643
  445MOL0     H60054   7.060   0.339  11.510  0.5310 -1.6522  0.0212
  445MOL0     H60055   6.999  -0.339  11.655  0.8425 -0.8003  0.9155
  445MOL0     H60056   6.902  -0.506  11.766  3.0437 -1.1231  2.5848
  445MOL0     H60057   6.686  -0.784  12.016  3.4053  2.6286 -2.4636
  445MOL0     H60058   6.728  -0.953  12.194  1.1076 -2.9318  0.5730
  445MOL0     H60059   7.487  -0.081  11.631 -2.9044 -2.9128 -1.7377
  445MOL0     H60060   7.445   0.142  11.539 -3.7549 -2.5135  1.5789
  445MOL0     H60061   7.605   0.354  11.118  1.6464  0.9812 -0.9357
  445MOL0     H60062   7.594   0.513  10.931 -0.2149 -3.2061 -0.0438
  445MOL0     H60063   7.205   0.715  10.845  0.2934  0.6708 -0.1758
  445MOL0     H60064   7.205   0.566  10.751  0.3929 -0.3471 -2.7638
  445MOL0     H60065   7.177   0.766  10.597 -0.4594 -2.8084 -1.0415
  445MOL0     H60066   7.314   0.664  10.557 -0.3499 -1.1767  1.0273
  445MOL0     H60067   7.454   0.830  10.693  0.9553  1.8862  0.8848
  445MOL0     H60068   7.306   0.924  10.710  0.2189 -1.3975  0.6848
  445MOL0     H60069   7.422   1.019  10.515  1.4389 -0.3238 -1.7118
  445MOL0     H60070   7.471   0.857  10.463  1.7357  3.8271 -0.4706
  445MOL0     H60071   7.086   0.864  10.293 -0.2823 -2.7433  1.4136
  445MOL0     H60072   7.162   0.537  10.969 -0.5769 -1.7286 -2.2449
  445MOL0     H60073   7.112   0.268  11.146  0.7444 -0.7849  2.8805
  445MOL0     H60074   7.134   0.382  11.280 -2.6331 -2.4908  0.2433
  445MOL0     H60075   7.063   0.433  11.120  1.4889  0.5274 -1.1901
  446MOL0     O60076   4.830   1.780  10.332 -0.2047 -0.5486 -1.3126
  446MOL0     C60077   4.917   1.790  10.246  0.3960  0.0338 -0.2468
  446MOL0     O60078   4.896   1.775  10.109  0.1815  0.3092  0.2863
  446MOL0     C60079   4.781   1.728  10.046 -0.7871 -0.8418 -0.0522
  446MOL0     C60080   4.785   1.718   9.906 -0.7882  0.6346  0.2837
  446MOL0     C60081   4.676   1.685   9.831 -0.2593 -0.5331 -0.8255
  446MOL0     C60082   4.550   1.673   9.889 -0.3130  0.7694 -0.0854
  446MOL0     O60083   4.442   1.648   9.811  0.4993  0.8703  0.3738
  446MOL0     C60084   4.331   1.574   9.874 -0.5827  0.0621  0.3546
  446MOL0     C60085   4.228   1.514   9.767  0.4753 -0.3269  0.2115
  446MOL0     C60086   4.311   1.424   9.670  0.8092 -0.2846 -0.6882
  446MOL0     C60087   4.225   1.321   9.608  0.1133  0.5109  0.2430
  446MOL0     C60088   4.282   1.229   9.500 -0.3622  0.5260 -0.4405
  446MOL0     C60089   4.389   1.304   9.408 -0.4428 -0.0971 -0.7571
  446MOL0     C60090   4.421   1.251   9.267  0.1038  0.7655 -1.4270
  446MOL0     C60091   4.307   1.257   9.177  0.1738  0.5664  0.1987
  446MOL0     N60092   4.326   1.174   9.054  0.5068 -0.1607 -0.4428
  446MOL0     C60093   4.309   1.032   9.050 -0.3737 -0.9366 -0.3879
  446MOL0     C60094   4.321   1.006   8.917  0.1023  0.3319  0.4915
  446MOL0     C60095   4.322   0.869   8.867 -0.1425  0.3067 -0.2226
  446MOL0     C60096   4.459   0.794   8.877 -0.3227  0.3678  0.3858
  446MOL0     C60097   4.568   0.856   8.784  0.0140 -0.6468 -0.5634
  446MOL0     C60098   4.599   0.773   8.665  0.1319 -0.0880  0.0798
  446MOL0     O60099   4.677   0.853   8.561 -0.2421  0.4260  0.2332
  446MOL0     C60100   4.731   0.782   8.456  0.2239  0.7043 -0.0121
  446MOL0     C60101   4.691   0.654   8.404 -0.2742 -0.6461  0.3937
  446MOL0     C60102   4.756   0.597   8.298 -0.1646  0.3422  0.7410
  446MOL0     C60103   4.868   0.663   8.241  0.6497  0.4150 -0.8881
  446MOL0     C60104   4.943   0.587   8.134  0.9373  0.1321 -0.5977
  446MOL0     O60105   5.025   0.669   8.067 -0.1854 -0.4291 -0.6408
  446MOL0     C60106   5.088   0.617   7.962  0.2998  0.0366 -0.7566
  446MOL0     C60107   5.214   0.562   7.986  0.8468  0.5277 -0.3693
  446MOL0     C60108   5.289   0.515   7.878  0.2605  0.8012 -0.5961
  446MOL0     C60109   5.236   0.518   7.747  0.3405  0.2054  0.0137
  446MOL0     O60110   5.323   0.499   7.643 -1.0255  0.4116  0.1006
  446MOL0     C60111   5.263   0.493   7.505  1.4153 -0.0515  0.8069
  446MOL0     C60112   5.385   0.461   7.403  0.2649 -0.4314 -0.4266
  446MOL0     C60113   5.451   0.588   7.342  0.8567  0.7762  0.7678
  446MOL0     C60114   5.566   0.561   7.256 -0.6221 -0.2067 -0.2201
  446MOL0     C60115   5.630   0.687   7.210  0.6585  0.9589  0.2282
  446MOL0     C60116   5.780   0.664   7.188  1.4468 -0.1630 -0.3709
  446MOL0     C60117   5.859   0.784   7.115 -0.0777 -0.3026  0.2276
  446MOL0     C60118   6.009   0.753   7.104 -0.0547 -0.6043  0.5339
  446MOL0    Cl60119   6.029   0.602   7.018  0.1700 -0.0030 -0.4279
  446MOL0     C60120   5.104   0.569   7.725 -0.6562  0.3454  0.4603
  446MOL0     C60121   5.031   0.616   7.832 -0.5385 -0.2950 -0.5232
  446MOL0     O60122   4.915   0.475   8.099 -0.0158 -0.5366  0.9039
  446MOL0     C60123   4.919   0.778   8.310  1.2732 -0.2247  0.9796
  446MOL0     C60124   4.839   0.841   8.401 -0.1749  0.2873 -0.8227
  446MOL0     N60125   4.350   1.124   8.851  0.0428  0.6708  1.1579
  446MOL0     N60126   4.354   1.225   8.936 -0.1399  0.0331  1.0263
  446MOL0     C60127   4.540   1.688  10.028 -0.0310  0.5151 -0.3017
  446MOL0     C60128   4.652   1.720  10.104  0.1567  0.1587 -0.0594
  446MOL0     C60129   5.048   1.822  10.290 -0.9045 -0.3712 -0.2932
  446MOL0     C60130   5.161   1.745  10.237  0.6791 -0.2082  0.2710
  446MOL0     C60131   5.283   1.759  10.295 -0.2286 -0.9892  0.0722
  446MOL0     C60132   5.314   1.853  10.394  0.2782  0.6701  0.2325
  446MOL0     O60133   5.451   1.858  10.441  0.8595  0.1838  0.7355
  446MOL0     C60134   5.491   1.745  10.514 -0.8548 -0.6926  0.9265
  446MOL0     C60135   5.608   1.790  10.594  0.5572  0.3589 -0.0337
  446MOL0     C60136   5.674   1.667  10.667  0.6548 -0.5409  0.0435
  446MOL0     C60137   5.802   1.684  10.752  0.5973 -0.6674 -0.3199
  446MOL0     C60138   5.899   1.772  10.685  0.0626  0.7778 -0.0378
  446MOL0     C60139   5.970   1.853  10.621  0.0542 -1.0028  0.1221
  446MOL0     C60140   5.212   1.936  10.438 -1.2407  0.3529  0.1407
  446MOL0     C60141   5.079   1.920  10.388  0.6252  0.2532  0.0627
  446MOL0     C60142   4.976   2.009  10.456 -0.5075 -0.1312 -0.2313
  446MOL0     H60143   4.873   1.737   9.846 -0.2994  1.0608  1.1105
  446MOL0     H60144   4.675   1.657   9.726  0.5904 -1.5683 -0.5735
  446MOL0     H60145   4.365   1.502   9.949  1.2281  0.0789 -0.3881
  446MOL0     H60146   4.274   1.646   9.934  0.0571  0.8057  0.0890
  446MOL0     H60147   4.184   1.600   9.715  1.1048  1.7993  2.8923
  446MOL0     H60148   4.153   1.453   9.818 -1.1377  2.3465  1.2665
  446MOL0     H60149   4.385   1.374   9.732  1.0831  3.2626  2.2104
  446MOL0     H60150   4.364   1.485   9.596  3.9122  0.3149  1.8382
  446MOL0     H60151   4.187   1.256   9.687 -0.5401  0.8671  0.2251
  446MOL0     H60152   4.138   1.371   9.565 -1.0527 -1.6358 -0.0579
  446MOL0     H60153   4.336   1.149   9.552 -0.9374 -0.1820 -0.9170
  446MOL0     H60154   4.202   1.179   9.445 -0.0585 -4.5485  3.0248
  446MOL0     H60155   4.359   1.407   9.389  3.3964  1.4120  0.5061
  446MOL0     H60156   4.485   1.314   9.460 -1.3663 -1.2249  1.3239
  446MOL0     H60157   4.451   1.146   9.279 -3.1694 -0.2566 -1.2952
  446MOL0     H60158   4.508   1.310   9.235 -0.3639  2.2252 -0.1186
  446MOL0     H60159   4.219   1.229   9.235  0.2731  1.6517  0.8934
  446MOL0     H60160   4.295   1.362   9.147 -1.1988  0.1097 -0.9885
  446MOL0     H60161   4.286   0.978   9.142  0.3436  2.0051  1.6879
  446MOL0     H60162   4.246   0.812   8.920  1.6339 -2.5055 -0.4542
  446MOL0     H60163   4.297   0.856   8.761 -0.0632 -1.7888 -0.0284
  446MOL0     H60164   4.489   0.804   8.982 -0.6930 -0.5292  0.5748
  446MOL0     H60165   4.463   0.688   8.851  2.3872 -0.5737  3.8419
  446MOL0     H60166   4.662   0.866   8.840 -0.6454 -1.6049  0.7600
  446MOL0     H60167   4.541   0.957   8.749  0.1783 -0.2212  0.5070
  446MOL0     H60168   4.511   0.725   8.620 -1.5365  0.7450  2.2947
  446MOL0     H60169   4.667   0.695   8.699 -0.9385 -0.8877  0.4413
  446MOL0     H60170   4.591   0.614   8.418  0.1761 -2.0471 -0.1644
  446MOL0     H60171   4.706   0.512   8.252  0.2773 -0.0957  1.0540
  446MOL0     H60172   5.251   0.546   8.087 -0.1916 -1.4382 -0.2719
  446MOL0     H60173   5.388   0.480   7.905 -0.9465 -1.2913  1.4090
  446MOL0     H60174   5.191   0.410   7.509  2.2084 -0.7038  2.0594
  446MOL0     H60175   5.229   0.594   7.483  1.5332 -0.2819 -0.5659
  446MOL0     H60176   5.465   0.413   7.460  1.5454  3.7573  1.7464
  446MOL0     H60177   5.348   0.402   7.319 -0.1142 -1.2479  0.2928
  446MOL0     H60178   5.372   0.640   7.287 -1.1405 -2.9770 -0.2738
  446MOL0     H60179   5.484   0.649   7.427  0.6698  1.0247  0.6622
  446MOL0     H60180   5.530   0.503   7.171 -1.3007 -1.3927  0.8505
  446MOL0     H60181   5.644   0.506   7.308 -2.0872 -1.9340  0.2568
  446MOL0     H60182   5.623   0.764   7.287 -2.0452 -1.4946  2.7094
  446MOL0     H60183   5.579   0.709   7.115 -2.2395 -0.5019  1.3130
  446MOL0     H60184   5.818   0.662   7.290 -2.0090 -1.0632  1.0598
  446MOL0     H60185   5.790   0.565   7.142  0.6014 -0.8181  0.7917
  446MOL0     H60186   5.848   0.872   7.178 -0.3751  0.5908 -1.0219
  446MOL0     H60187   5.816   0.809   7.017 -0.8762  2.3788  1.1839
  446MOL0     H60188   6.059   0.835   7.052  0.7613  0.1171  2.3653
  446MOL0     H60189   6.046   0.738   7.206 -4.0519 -1.3102  2.0380
  446MOL0     H60190   5.065   0.567   7.623 -1.3631 -0.1051  0.7334
  446MOL0     H60191   4.941   0.675   7.817  0.7128  2.1791  0.8878
  446MOL0     H60192   5.008   0.832   8.276  0.1104  1.6720  0.7924
  446MOL0     H60193   4.865   0.939   8.440 -2.9956  0.5262  0.6717
  446MOL0     H60194   4.443   1.702  10.075 -1.3188 -2.0176 -1.9586
  446MOL0     H60195   4.639   1.727  10.212  0.9839 -2.5408  0.3136
  446MOL0     H60196   5.142   1.664  10.168  1.4481 -0.6609  0.5802
  446MOL0     H60197   5.354   1.684  10.262 -2.2100 -2.3792 -1.2485
  446MOL0     H60198   5.531   1.669  10.445 -2.7425 -1.7341  0.9161
  446MOL0     H60199   5.415   1.700  10.578 -0.2028 -1.1017  1.4353
  446MOL0     H60200   5.578   1.857  10.674  0.6791  0.8705 -0.4137
  446MOL0     H60201   5.678   1.841  10.527 -1.3964 -3.2083 -5.5320
  446MOL0     H60202   5.688   1.591  10.590  1.0728  0.2268 -0.6513
  446MOL0     H60203   5.604   1.627  10.741  1.1063 -2.4386 -0.4922
  446MOL0     H60204   5.785   1.732  10.849  0.9337 -0.2690 -0.4586
  446MOL0     H60205   5.843   1.583  10.763  0.2014 -0.6872  1.2715
  446MOL0     H60206   6.021   1.923  10.558 -1.6731 -0.1375 -0.3748
  446MOL0     H60207   5.240   2.006  10.515  0.6785  1.1324 -1.1805
  446MOL0     H60208   4.929   1.952  10.536  1.8302  0.2827  1.5459
  446MOL0     H60209   5.018   2.096  10.508 -3.7510 -0.8277  4.1037
  446MOL0     H60210   4.900   2.036  10.383  0.8264  0.1995 -1.5560
  447MOL0     O60211   4.767   4.140  10.429 -0.5501  0.3600 -0.3477
  447MOL0     C60212   4.726   4.207  10.523 -0.2236  0.3506 -0.0088
  447MOL0     O60213   4.807   4.272  10.609  0.2638  0.0708 -0.7859
  447MOL0     C60214   4.945   4.248  10.600  0.4249  0.5160  0.4743
  447MOL0     C60215   5.040   4.338  10.547 -1.4874 -0.1739 -0.3075
  447MOL0     C60216   5.173   4.315  10.567  0.7283 -0.6278 -0.5474
  447MOL0     C60217   5.217   4.196  10.634 -0.5726 -0.6766 -0.1910
  447MOL0     O60218   5.356   4.175  10.661  0.9391 -0.0603  0.3935
  447MOL0     C60219   5.443   4.238  10.576  0.0109 -0.5320 -0.3645
  447MOL0     C60220   5.584   4.169  10.596  0.5257  0.3341 -0.0449
  447MOL0     C60221   5.694   4.254  10.526  0.0727 -0.5717 -0.2152
  447MOL0     C60222   5.828   4.187  10.523  0.0528  0.2640  0.4612
  447MOL0     C60223   5.940   4.278  10.460 -0.0469  0.9577  0.2703
  447MOL0     C60224   6.065   4.195  10.438 -0.2005 -0.6347 -0.3690
  447MOL0     C60225   6.182   4.276  10.394 -0.6262 -0.4204 -0.3134
  447MOL0     C60226   6.315   4.193  10.401  0.5738  0.6897  0.4185
  447MOL0     N60227   6.423   4.259  10.331  0.8297 -0.1316 -0.3875
  447MOL0     C60228   6.527   4.312  10.390  0.3335 -0.4271 -0.2802
  447MOL0     C60229   6.611   4.346  10.292 -0.8406  0.8754 -0.6724
  447MOL0     C60230   6.743   4.422  10.308 -0.5107 -0.5170  0.2441
  447MOL0     C60231   6.856   4.344  10.379 -0.3386  0.3309  0.0515
  447MOL0     C60232   6.895   4.222  10.300 -0.3641  0.2528  1.1364
  447MOL0     C60233   7.022   4.154  10.350  0.0664 -1.6188  0.6432
  447MOL0     O60234   7.136   4.247  10.329  1.8024  0.7793 -0.7630
  447MOL0     C60235   7.250   4.233  10.403  0.6989 -0.2846  0.9123
  447MOL0     C60236   7.348   4.326  10.366  0.8172 -0.2049  0.7089
  447MOL0     C60237   7.465   4.333  10.441 -0.1551  0.4263 -0.2500
  447MOL0     C60238   7.484   4.261  10.554  0.4912 -0.2029  0.2128
  447MOL0     C60239   7.606   4.274  10.635 -0.3974 -0.4132 -0.2945
  447MOL0     O60240   7.718   4.314  10.568  0.2636 -0.8092 -0.0409
  447MOL0     C60241   7.842   4.295  10.622  0.3299 -0.4223 -0.1051
  447MOL0     C60242   7.931   4.225  10.545 -0.6451 -0.4619 -0.3348
  447MOL0     C60243   8.060   4.209  10.594  0.3659  0.5889 -0.0997
  447MOL0     C60244   8.102   4.277  10.711  0.1076 -0.3205 -0.7509
  447MOL0     O60245   8.238   4.282  10.742  0.0273  0.3854 -0.4530
  447MOL0     C60246   8.333   4.252  10.646  0.4713 -0.5964  0.3037
  447MOL0     C60247   8.470   4.265  10.717  0.3973  0.0090 -0.7061
  447MOL0     C60248   8.586   4.241  10.615 -0.2671  0.6016  0.2015
  447MOL0     C60249   8.728   4.279  10.673  0.4637  0.0558 -0.2416
  447MOL0     C60250   8.843   4.250  10.574  0.5666 -0.1482  0.7244
  447MOL0     C60251   8.848   4.345  10.451  0.4608 -0.1129  0.5681
  447MOL0     C60252   8.964   4.302  10.355 -0.4262  0.5824  0.3512
  447MOL0     C60253   8.980   4.409  10.255 -0.0057 -0.6186 -1.0627
  447MOL0    Cl60254   8.831   4.450  10.165  0.1565  0.3497  0.0897
  447MOL0     C60255   8.014   4.351  10.790 -0.2108  0.4848 -0.8421
  447MOL0     C60256   7.879   4.351  10.749 -0.6953 -0.2803 -0.0989
  447MOL0     O60257   7.604   4.257  10.761  0.2449  1.1969  0.4688
  447MOL0     C60258   7.388   4.171  10.600 -0.1415  0.5364  0.0084
  447MOL0     C60259   7.279   4.149  10.517  0.1465 -0.7407 -0.6147
  447MOL0     N60260   6.558   4.290  10.176  0.3293  0.4556  0.3497
  447MOL0     N60261   6.447   4.232  10.202 -0.3100  0.6368  0.3488
  447MOL0     C60262   5.124   4.107  10.684 -0.4337  1.0724  0.7201
  447MOL0     C60263   4.992   4.130  10.670 -0.1621 -1.0687 -0.1646
  447MOL0     C60264   4.575   4.214  10.545 -0.1654 -1.1536 -0.5805
  447MOL0     C60265   4.535   4.256  10.675 -1.1137 -0.5187  0.0910
  447MOL0     C60266   4.403   4.254  10.713  0.7071  0.6798  1.1617
  447MOL0     C60267   4.302   4.214  10.619  0.3353  0.3865  0.1218
  447MOL0     O60268   4.172   4.191  10.656  0.0883 -0.5530  0.0668
  447MOL0     C60269   4.068   4.189  10.559 -0.2585  0.3007  1.0635
  447MOL0     C60270   3.930   4.208  10.618  0.0375  0.4689  0.5888
  447MOL0     C60271   3.807   4.216  10.523  0.2978  0.6167 -0.4879
  447MOL0     C60272   3.774   4.083  10.446  0.1175  0.1101 -0.7217
  447MOL0     C60273   3.650   4.105  10.370 -0.8625  0.7063  0.0828
  447MOL0     C60274   3.554   4.118  10.298 -0.6611  0.8756 -0.2500
  447MOL0     C60275   4.348   4.172  10.490  0.8283 -0.0771  0.1487
  447MOL0     C60276   4.478   4.166  10.455 -0.5823 -0.1093  0.2226
  447MOL0     C60277   4.518   4.121  10.312 -0.0559  0.2002  0.9354
  447MOL0     H60278   5.015   4.433  10.501  1.5580  1.2983  0.7724
  447MOL0     H60279   5.241   4.394  10.540  0.4511 -0.1748  0.0623
  447MOL0     H60280   5.415   4.237  10.471  3.2865  3.0725 -1.5210
  447MOL0     H60281   5.463   4.338  10.616 -0.2610 -1.2252  1.6316
  447MOL0     H60282   5.578   4.064  10.567 -2.0580  0.0727  1.1471
  447MOL0     H60283   5.613   4.162  10.701 -1.7835 -0.5848  0.5991
  447MOL0     H60284   5.709   4.342  10.589 -1.1990 -0.3846 -0.1655
  447MOL0     H60285   5.671   4.293  10.426 -3.8121 -1.8419  0.0447
  447MOL0     H60286   5.848   4.146  10.622  0.2233 -2.0284 -0.4619
  447MOL0     H60287   5.828   4.104  10.452  4.5852 -0.0575  0.5333
  447MOL0     H60288   5.903   4.316  10.365 -0.9080  2.0436  1.0184
  447MOL0     H60289   5.962   4.364  10.525 -1.8304  2.3988 -0.9480
  447MOL0     H60290   6.087   4.137  10.528  1.4432 -3.0689 -2.2332
  447MOL0     H60291   6.049   4.118  10.362  2.0207 -0.2352 -1.3144
  447MOL0     H60292   6.191   4.358  10.466 -0.4355 -1.6770  1.1389
  447MOL0     H60293   6.169   4.324  10.296  1.0165 -0.2083 -0.4572
  447MOL0     H60294   6.333   4.174  10.507 -3.2944 -3.2273  0.6300
  447MOL0     H60295   6.321   4.097  10.350  3.7416  0.3044  1.2905
  447MOL0     H60296   6.534   4.334  10.496 -2.8644  1.0452 -0.2673
  447MOL0     H60297   6.780   4.472  10.218  1.6765 -1.0262  0.8019
  447MOL0     H60298   6.712   4.501  10.376 -4.4452 -0.7453 -1.0002
  447MOL0     H60299   6.945   4.406  10.397  0.9310 -1.1671 -0.8250
  447MOL0     H60300   6.824   4.311  10.478 -2.1311 -0.0093 -0.6035
  447MOL0     H60301   6.903   4.258  10.197  1.0949  2.2295  1.8698
  447MOL0     H60302   6.819   4.144  10.307 -1.7520  1.4587  0.2887
  447MOL0     H60303   7.030   4.054  10.304 -2.4423 -0.5112 -2.5781
  447MOL0     H60304   7.019   4.126  10.455  1.4583 -3.3870  0.2741
  447MOL0     H60305   7.349   4.396  10.283 -1.3886  1.4040  1.9218
  447MOL0     H60306   7.524   4.420  10.416 -2.1508  2.0393  0.3833
  447MOL0     H60307   7.891   4.186  10.451  2.7891 -1.7391 -1.4184
  447MOL0     H60308   8.125   4.148  10.532 -1.3105 -0.9092 -0.4687
  447MOL0     H60309   8.323   4.149  10.609  3.4206 -0.9998  0.3571
  447MOL0     H60310   8.319   4.325  10.566  0.6495 -0.4589  0.3965
  447MOL0     H60311   8.475   4.355  10.779  1.2628 -1.7466  1.9233
  447MOL0     H60312   8.468   4.186  10.793  1.4798 -0.1441 -0.8187
  447MOL0     H60313   8.582   4.133  10.598 -1.6068  0.3203  1.9686
  447MOL0     H60314   8.559   4.284  10.518 -0.7485 -0.6678 -0.2476
  447MOL0     H60315   8.745   4.214  10.759  2.7312 -1.6298 -1.8203
  447MOL0     H60316   8.737   4.385  10.697  0.4473  0.5855 -2.3353
  447MOL0     H60317   8.837   4.148  10.536 -0.3209  0.8402 -1.9790
  447MOL0     H60318   8.942   4.255  10.622  1.4047  1.1194 -1.0340
  447MOL0     H60319   8.755   4.334  10.393  1.0280 -0.2530 -0.3345
  447MOL0     H60320   8.864   4.450  10.476 -0.9463  0.1688  0.4039
  447MOL0     H60321   8.949   4.209  10.299  1.2791  1.6029 -1.9687
  447MOL0     H60322   9.062   4.296  10.402  0.0286  1.6838 -0.4208
  447MOL0     H60323   9.025   4.491  10.312 -1.4847  0.8322 -1.8917
  447MOL0     H60324   9.047   4.375  10.175  1.3394 -3.0008  0.9490
  447MOL0     H60325   8.067   4.372  10.881 -1.3929  0.6209 -0.1640
  447MOL0     H60326   7.802   4.390  10.816  0.1735 -1.4615  1.6451
  447MOL0     H60327   7.410   4.118  10.692 -4.0685  0.7365  1.2500
  447MOL0     H60328   7.212   4.074  10.557 -3.1461  2.5402  0.6788
  447MOL0     H60329   5.149   4.017  10.740  0.9663  0.3788 -0.9167
  447MOL0     H60330   4.922   4.063  10.718 -1.5522 -0.0520 -0.7036
  447MOL0     H60331   4.611   4.281  10.749 -0.3511 -1.0811 -0.4975
  447MOL0     H60332   4.372   4.280  10.814  1.6001 -1.8541  2.1862
  447MOL0     H60333   4.080   4.096  10.502  1.7687  1.0785  0.0869
  447MOL0     H60334   4.088   4.272  10.490 -2.6004  1.0030  1.1470
  447MOL0     H60335   3.926   4.301  10.676 -2.2854 -0.0863  1.4207
  447MOL0     H60336   3.904   4.123  10.682  1.7042 -0.7269 -0.2414
  447MOL0     H60337   3.816   4.302  10.456 -1.8829  0.1894 -1.4295
  447MOL0     H60338   3.721   4.240  10.587 -0.4357 -2.0917 -0.3568
  447MOL0     H60339   3.854   4.062  10.373 -1.4886  1.3095 -2.9451
  447MOL0     H60340   3.770   4.002  10.519  0.1792 -0.6499 -1.5421
  447MOL0     H60341   3.475   4.125  10.225  0.0996  0.4899 -1.1331
  447MOL0     H60342   4.279   4.128  10.419  0.3415  1.1427 -0.1482
  447MOL0     H60343   4.554   4.018  10.303 -1.3316 -0.0975 -2.2100
  447MOL0     H60344   4.434   4.130  10.242  1.8295 -0.8935 -1.6518
  447MOL0     H60345   4.590   4.186  10.261 -0.8747 -1.1799 -2.2523
  448MOL0     O60346   2.006   7.984   5.110  0.1623 -0.2817  0.2567
  448MOL0     C60347   2.032   7.882   5.182  0.5288 -0.1964 -0.1578
  448MOL0     O60348   2.141   7.803   5.174  0.4963  0.3752  0.3693
  448MOL0     C60349   2.248   7.832   5.092 -0.6736 -0.5035  0.1318
  448MOL0     C60350   2.320   7.730   5.033 -0.6783 -0.6214 -0.0734
  448MOL0     C60351   2.443   7.768   4.979  0.4389 -0.2173 -0.4227
  448MOL0     C60352   2.487   7.900   4.966 -0.3042  0.4825  0.1163
  448MOL0     O60353   2.615   7.926   4.914  0.1428 -0.2670  0.9789
  448MOL0     C60354   2.727   7.841   4.951 -0.1485  0.6392  0.6557
  448MOL0     C60355   2.856   7.897   4.924 -0.5445  0.1456  0.9853
  448MOL0     C60356   2.869   8.030   5.001 -0.3310  0.6747  0.5613
  448MOL0     C60357   3.007   8.093   4.967  0.5257  0.3019 -0.2754
  448MOL0     C60358   3.023   8.232   5.016  0.9891 -0.2982 -0.0253
  448MOL0     C60359   3.042   8.329   4.894  0.5800  0.3972  0.0585
  448MOL0     C60360   2.912   8.351   4.826  0.2221 -0.5914  0.0879
  448MOL0     C60361   2.897   8.490   4.773 -0.6303 -0.5043 -0.6625
  448MOL0     N60362   3.000   8.521   4.666  0.4794 -0.6003  0.0451
  448MOL0     C60363   3.132   8.559   4.671  0.1532  0.0599 -0.4557
  448MOL0     C60364   3.172   8.583   4.547  1.2137  0.0385  0.5682
  448MOL0     C60365   3.313   8.580   4.512 -0.8972  0.2779  0.1831
  448MOL0     C60366   3.355   8.648   4.381  0.2974 -0.3773 -0.6756
  448MOL0     C60367   3.508   8.632   4.354  0.9204 -0.3320  0.0768
  448MOL0     C60368   3.526   8.660   4.201 -0.2834  0.2991 -0.3381
  448MOL0     O60369   3.647   8.605   4.155  0.2333  0.4731  0.0027
  448MOL0     C60370   3.769   8.672   4.178  0.0612 -0.0510 -0.1138
  448MOL0     C60371   3.888   8.606   4.151 -0.1074 -0.3613 -0.5607
  448MOL0     C60372   4.012   8.679   4.156 -0.1697 -0.0312 -0.8797
  448MOL0     C60373   4.020   8.811   4.177 -0.6015 -0.3084  0.2613
  448MOL0     C60374   4.143   8.887   4.183  0.0426  0.0199 -0.1280
  448MOL0     O60375   4.129   9.021   4.172  0.3907 -0.1298  0.3230
  448MOL0     C60376   4.241   9.098   4.196  0.4662  1.3290  0.1595
  448MOL0     C60377   4.301   9.082   4.313  0.2928  0.0546 -1.0413
  448MOL0     C60378   4.419   9.157   4.345 -0.5961 -0.0192 -0.2544
  448MOL0     C60379   4.495   9.227   4.248 -0.4656 -0.1197 -1.1924
  448MOL0     O60380   4.606   9.297   4.288 -0.7825  0.6652 -0.0942
  448MOL0     C60381   4.705   9.223   4.367 -0.7273  0.2603  0.5526
  448MOL0     C60382   4.852   9.275   4.372  0.0250  0.2309  0.0131
  448MOL0     C60383   4.909   9.280   4.230  0.0051 -0.6162  0.3463
  448MOL0     C60384   5.053   9.327   4.222 -0.0785  0.0281 -0.1399
  448MOL0     C60385   5.100   9.386   4.083  1.0530 -0.4719  0.1351
  448MOL0     C60386   5.248   9.425   4.085 -0.3426  0.1654 -0.0534
  448MOL0     C60387   5.279   9.530   3.979 -0.6031  0.2595  0.2379
  448MOL0     C60388   5.426   9.580   3.954  0.0103 -0.0411 -0.2672
  448MOL0    Cl60389   5.476   9.671   4.103 -0.5842 -0.3203  0.3177
  448MOL0     C60390   4.434   9.233   4.120 -0.0256 -0.2657 -0.7506
  448MOL0     C60391   4.306   9.164   4.098  0.2134 -1.0757  0.0041
  448MOL0     O60392   4.253   8.827   4.184 -0.4414 -0.1542 -0.8449
  448MOL0     C60393   3.899   8.879   4.193  0.0235  0.1448 -0.3947
  448MOL0     C60394   3.776   8.811   4.193  0.3224 -0.1769  0.2463
  448MOL0     N60395   3.070   8.553   4.464 -0.6047 -0.6346  0.4117
  448MOL0     N60396   2.962   8.529   4.531  0.3448 -0.0521 -0.8481
  448MOL0     C60397   2.406   7.997   5.014 -0.3408  0.2557  0.0424
  448MOL0     C60398   2.283   7.966   5.070 -0.3446  0.7879 -0.5058
  448MOL0     C60399   1.929   7.857   5.292 -1.4808 -0.1805 -0.7001
  448MOL0     C60400   1.985   7.857   5.422  0.9308  1.3731 -0.0178
  448MOL0     C60401   1.906   7.823   5.526 -0.0141  0.0741 -0.3948
  448MOL0     C60402   1.772   7.782   5.505  0.1307  0.1830  0.7198
  448MOL0     O60403   1.707   7.726   5.612 -0.7386 -0.5979 -0.0730
  448MOL0     C60404   1.563   7.703   5.602  0.1440 -0.0703 -0.1951
  448MOL0     C60405   1.519   7.666   5.745 -0.0545 -0.7431  1.1059
  448MOL0     C60406   1.366   7.686   5.751  0.2790 -0.0854  0.2392
  448MOL0     C60407   1.320   7.655   5.892  0.0521  0.2137  0.1561
  448MOL0     C60408   1.189   7.712   5.897  0.6193 -0.0647 -0.1760
  448MOL0     C60409   1.079   7.765   5.915 -0.1308  0.1606  0.1809
  448MOL0     C60410   1.720   7.786   5.373 -0.0220 -0.3471 -0.1329
  448MOL0     C60411   1.803   7.829   5.268 -0.3157  0.1853 -0.0309
  448MOL0     C60412   1.748   7.839   5.131  0.2389  0.2179  0.1412
  448MOL0     H60413   2.306   7.622   5.035 -0.6666 -0.6130  0.8476
  448MOL0     H60414   2.507   7.684   4.953  1.1075  0.3948 -0.8202
  448MOL0     H60415   2.721   7.811   5.056 -2.0283 -2.2932 -0.1656
  448MOL0     H60416   2.721   7.755   4.884  0.8921  2.3819 -1.8506
  448MOL0     H60417   2.859   7.915   4.816 -0.7074  0.2220  0.9927
  448MOL0     H60418   2.941   7.840   4.961 -0.0316 -1.5054 -2.3952
  448MOL0     H60419   2.878   8.006   5.108 -0.3811 -0.6102  0.2945
  448MOL0     H60420   2.792   8.100   4.969  1.3838  2.0248 -0.8442
  448MOL0     H60421   3.085   8.029   5.009  0.3714 -0.0522 -0.5135
  448MOL0     H60422   3.024   8.078   4.860 -1.8100 -1.4834 -0.4900
  448MOL0     H60423   2.933   8.259   5.073  1.7353 -0.8721  1.4834
  448MOL0     H60424   3.114   8.237   5.076  2.2586 -0.3705 -1.8540
  448MOL0     H60425   3.077   8.422   4.940 -0.9491  0.4170  1.2805
  448MOL0     H60426   3.123   8.302   4.827 -0.7390  0.2242 -1.5312
  448MOL0     H60427   2.836   8.342   4.904  0.0079  1.5795  0.1995
  448MOL0     H60428   2.911   8.281   4.742  1.9779  0.2354 -0.6732
  448MOL0     H60429   2.798   8.501   4.728 -1.1201  0.8748  0.6757
  448MOL0     H60430   2.906   8.562   4.855 -1.0776 -1.9982  0.7496
  448MOL0     H60431   3.199   8.541   4.755 -1.4340 -2.6564  0.3685
  448MOL0     H60432   3.366   8.633   4.593  1.4688 -0.0739 -1.0491
  448MOL0     H60433   3.333   8.473   4.528 -3.6765 -0.0939  1.9654
  448MOL0     H60434   3.295   8.615   4.296 -0.6427  2.0946 -1.0483
  448MOL0     H60435   3.326   8.753   4.388 -1.9101 -1.0517  2.6538
  448MOL0     H60436   3.537   8.531   4.384 -0.6387 -1.2513 -1.3925
  448MOL0     H60437   3.553   8.710   4.417 -2.0623  2.3772 -0.9112
  448MOL0     H60438   3.522   8.767   4.177 -2.0477  0.3730  0.1267
  448MOL0     H60439   3.445   8.612   4.146  1.3752 -1.5215 -1.3087
  448MOL0     H60440   3.886   8.499   4.132  0.4549 -0.4859  0.0630
  448MOL0     H60441   4.105   8.624   4.152 -0.2194 -0.1603 -0.3611
  448MOL0     H60442   4.262   9.018   4.391  0.2042  0.7766 -0.4855
  448MOL0     H60443   4.463   9.151   4.444 -1.5847 -1.9912  0.1081
  448MOL0     H60444   4.676   9.238   4.471 -0.7898 -1.1396  0.7495
  448MOL0     H60445   4.706   9.115   4.347  0.8318  0.6779 -2.2667
  448MOL0     H60446   4.848   9.372   4.421  0.0768  0.9815 -1.4322
  448MOL0     H60447   4.909   9.209   4.438  1.0697  2.4106  1.4109
  448MOL0     H60448   4.919   9.183   4.180  0.6860 -0.0050 -0.7389
  448MOL0     H60449   4.845   9.351   4.178  1.2886  1.2895  1.2557
  448MOL0     H60450   5.121   9.250   4.261 -0.2890 -1.4549 -2.4934
  448MOL0     H60451   5.056   9.403   4.300 -0.5184  0.1765 -0.2696
  448MOL0     H60452   5.047   9.482   4.085 -0.4585 -1.2749  1.8748
  448MOL0     H60453   5.083   9.335   3.988 -0.2501 -2.8554  1.5502
  448MOL0     H60454   5.270   9.453   4.189 -1.9897  1.5334 -0.0345
  448MOL0     H60455   5.314   9.345   4.051  2.3536  1.8163  0.9892
  448MOL0     H60456   5.218   9.619   3.999 -0.7337 -0.2366  2.2551
  448MOL0     H60457   5.238   9.485   3.888 -1.4156  1.2716  0.0778
  448MOL0     H60458   5.498   9.499   3.944 -0.0358 -0.4848  2.4691
  448MOL0     H60459   5.423   9.643   3.864 -1.0573 -0.1977 -0.3534
  448MOL0     H60460   4.479   9.292   4.041  0.3020  1.5880  0.7604
  448MOL0     H60461   4.270   9.160   3.995 -2.8783  0.1127  0.9338
  448MOL0     H60462   3.888   8.986   4.206  0.9254  0.4220 -1.7990
  448MOL0     H60463   3.686   8.867   4.214  1.1675  2.0257 -1.5762
  448MOL0     H60464   2.440   8.098   4.997  0.7104  0.2050  1.6390
  448MOL0     H60465   2.220   8.049   5.101 -0.6886  1.0687 -1.9151
  448MOL0     H60466   2.087   7.883   5.446  0.9306  0.3204  1.2292
  448MOL0     H60467   1.945   7.817   5.627 -2.1909 -0.8367  0.4576
  448MOL0     H60468   1.532   7.627   5.530  0.4517 -1.3838  1.0152
  448MOL0     H60469   1.515   7.799   5.584  2.5565  2.1267  3.6116
  448MOL0     H60470   1.564   7.723   5.827  0.4987 -0.2341  0.4643
  448MOL0     H60471   1.544   7.561   5.758 -1.4950 -1.0954  1.2214
  448MOL0     H60472   1.312   7.630   5.674 -1.3560  0.3376  1.0307
  448MOL0     H60473   1.340   7.788   5.724 -2.1471 -1.3850 -3.0842
  448MOL0     H60474   1.321   7.547   5.910  0.0819  0.2451  0.3503
  448MOL0     H60475   1.367   7.706   5.977 -3.5703  1.1720  1.7541
  448MOL0     H60476   0.990   7.819   5.940  0.1406  1.2547 -1.0777
  448MOL0     H60477   1.620   7.751   5.347 -0.2304 -1.3559  1.8789
  448MOL0     H60478   1.735   7.944   5.105 -0.0288  0.6901  2.0284
  448MOL0     H60479   1.821   7.798   5.061 -1.1510  0.4130 -1.4856
  448MOL0     H60480   1.650   7.792   5.124  1.5602 -3.3014  2.6581
  449MOL0     O60481   2.379   7.173   2.302 -0.0284  0.0832  0.0704
  449MOL0     C60482   2.323   7.100   2.225  0.4426  0.3619  0.8119
  449MOL0     O60483   2.397   7.018   2.131  0.3628  0.2856 -0.1160
  449MOL0     C60484   2.534   7.035   2.132  0.1965  0.1903 -1.2388
  449MOL0     C60485   2.577   7.135   2.050 -1.2699  0.4272  0.2151
  449MOL0     C60486   2.717   7.149   2.028  0.2284 -0.6124  1.0070
  449MOL0     C60487   2.808   7.056   2.084  0.5312 -0.2662  0.7502
  449MOL0     O60488   2.947   7.069   2.073  0.3174 -0.2734  0.0049
  449MOL0     C60489   2.997   7.173   1.983 -0.9273  1.2182 -0.5312
  449MOL0     C60490   3.150   7.190   1.984  0.1495  0.1839  0.2879
  449MOL0     C60491   3.211   7.263   2.107  0.0624 -0.3619  0.4148
  449MOL0     C60492   3.352   7.317   2.090  0.9222  0.0679 -0.6515
  449MOL0     C60493   3.462   7.225   2.032  0.7455 -0.5113  0.3612
  449MOL0     C60494   3.600   7.304   2.023 -0.1371 -0.3000  0.4355
  449MOL0     C60495   3.681   7.321   2.161 -0.2718 -0.1925 -0.4673
  449MOL0     C60496   3.800   7.420   2.146  0.0586  0.2511 -0.2739
  449MOL0     N60497   3.902   7.378   2.042 -0.1999  0.4286  0.5226
  449MOL0     C60498   3.983   7.269   2.050  0.0360  0.8379  0.2720
  449MOL0     C60499   4.055   7.272   1.932  0.4422  0.2384 -0.5694
  449MOL0     C60500   4.156   7.172   1.886 -1.2989  0.1003 -0.5880
  449MOL0     C60501   4.267   7.152   1.994 -0.5168  0.3258 -0.2226
  449MOL0     C60502   4.335   7.288   2.028  0.0119  0.6418 -0.6951
  449MOL0     C60503   4.473   7.268   2.079 -0.4815 -1.3150 -0.0285
  449MOL0     O60504   4.557   7.210   1.977 -0.4757  0.0075  0.0570
  449MOL0     C60505   4.688   7.216   2.007 -0.7558  0.4292  0.0209
  449MOL0     C60506   4.753   7.339   1.984  0.4621  0.0875 -0.2967
  449MOL0     C60507   4.891   7.352   2.004 -0.4251  0.6566 -1.3072
  449MOL0     C60508   4.960   7.246   2.062  0.4996 -0.1123  0.3918
  449MOL0     C60509   5.103   7.254   2.105 -0.6117 -0.5977  0.1181
  449MOL0     O60510   5.179   7.361   2.060  0.4608 -0.1170  0.7628
  449MOL0     C60511   5.311   7.362   2.089  0.0114 -0.0460 -0.1205
  449MOL0     C60512   5.383   7.450   2.010  0.1531  0.1389 -0.1551
  449MOL0     C60513   5.515   7.492   2.048  0.1203 -0.2072 -0.5156
  449MOL0     C60514   5.586   7.428   2.152  0.4713 -0.3558  0.2583
  449MOL0     O60515   5.703   7.477   2.207 -0.0760  0.1284 -0.5832
  449MOL0     C60516   5.744   7.613   2.194 -1.1901 -0.0075  0.0293
  449MOL0     C60517   5.854   7.610   2.090 -0.2412  0.0075 -0.3143
  449MOL0     C60518   5.917   7.749   2.073 -0.5736  0.1702 -0.7559
  449MOL0     C60519   6.048   7.742   1.998 -0.4768  0.5129  0.0020
  449MOL0     C60520   6.143   7.857   1.999  0.3183  0.1143 -0.1663
  449MOL0     C60521   6.237   7.858   2.122 -0.2436  0.3502 -1.2946
  449MOL0     C60522   6.372   7.793   2.090 -0.4642 -0.0712 -0.1025
  449MOL0     C60523   6.448   7.752   2.219  0.0090  0.3208  0.2025
  449MOL0    Cl60524   6.623   7.732   2.174  0.0903  0.3263 -0.0239
  449MOL0     C60525   5.523   7.326   2.215 -0.0062 -0.0696 -1.3203
  449MOL0     C60526   5.388   7.297   2.189 -0.5429  0.8252 -0.0206
  449MOL0     O60527   5.141   7.170   2.180  0.3839  0.9474 -0.2370
  449MOL0     C60528   4.891   7.137   2.102 -0.7594 -0.1503  0.5481
  449MOL0     C60529   4.759   7.116   2.065 -0.2234 -0.4769  0.2667
  449MOL0     N60530   4.013   7.381   1.857 -0.3524 -0.2857  0.2573
  449MOL0     N60531   3.928   7.446   1.925  0.2045  0.0398 -0.1001
  449MOL0     C60532   2.757   6.951   2.159  0.0688 -0.2353 -0.7415
  449MOL0     C60533   2.619   6.936   2.188 -0.4449 -0.2959  0.5385
  449MOL0     C60534   2.176   7.110   2.222  0.3138  0.8464  0.1220
  449MOL0     C60535   2.114   7.096   2.093  0.4795  0.3473  0.0779
  449MOL0     C60536   1.987   7.146   2.059 -0.1104  0.2655  0.1134
  449MOL0     C60537   1.912   7.199   2.159 -0.4275 -1.0879  0.4131
  449MOL0     O60538   1.801   7.267   2.108 -0.5139 -0.6091 -0.0571
  449MOL0     C60539   1.756   7.375   2.187 -0.4931  0.1655 -0.1708
  449MOL0     C60540   1.642   7.448   2.120  0.0589 -1.1200  0.7752
  449MOL0     C60541   1.511   7.362   2.106 -0.2406  0.1294 -1.4185
  449MOL0     C60542   1.385   7.449   2.146  0.5482  0.7525  0.6827
  449MOL0     C60543   1.269   7.359   2.132 -0.8943 -0.6012  0.6267
  449MOL0     C60544   1.171   7.300   2.107 -0.4038  0.0040  0.1302
  449MOL0     C60545   1.953   7.192   2.292 -0.2174  0.1444  0.7334
  449MOL0     C60546   2.089   7.152   2.324 -0.5714 -0.2127 -1.1429
  449MOL0     C60547   2.133   7.160   2.472 -0.5621  0.7865  0.6548
  449MOL0     H60548   2.511   7.205   2.000 -2.1267 -0.8548 -0.5042
  449MOL0     H60549   2.762   7.222   1.961 -0.6344 -1.1729 -0.2294
  449MOL0     H60550   2.968   7.163   1.878  1.0566  1.7970 -1.1783
  449MOL0     H60551   2.953   7.266   2.022 -1.5145  0.1978  1.3432
  449MOL0     H60552   3.181   7.233   1.889  2.1099 -1.4571  0.1015
  449MOL0     H60553   3.196   7.091   1.973 -0.5949 -0.0974 -0.3325
  449MOL0     H60554   3.216   7.190   2.189 -0.1392 -1.4508 -0.5143
  449MOL0     H60555   3.143   7.343   2.138  2.4703  1.4099  1.4889
  449MOL0     H60556   3.344   7.400   2.019  0.5969 -0.5610 -1.3620
  449MOL0     H60557   3.381   7.363   2.185 -2.2189  0.8624  0.0471
  449MOL0     H60558   3.485   7.142   2.099 -0.0347 -0.9816  0.0643
  449MOL0     H60559   3.426   7.198   1.932  2.1297  1.4609 -0.7422
  449MOL0     H60560   3.672   7.257   1.956  0.6501  3.0563 -1.3141
  449MOL0     H60561   3.585   7.406   1.984 -3.5593 -0.3885  1.2096
  449MOL0     H60562   3.730   7.226   2.186  0.4593 -1.2973 -5.1154
  449MOL0     H60563   3.620   7.350   2.247 -2.1145  0.6058 -1.9631
  449MOL0     H60564   3.758   7.516   2.116 -0.4412 -0.7648 -3.1689
  449MOL0     H60565   3.847   7.422   2.245 -1.3498 -1.2495  0.4757
  449MOL0     H60566   3.986   7.190   2.124 -0.3886 -0.0688 -0.6546
  449MOL0     H60567   4.120   7.071   1.868 -2.1400  0.2996 -0.0874
  449MOL0     H60568   4.204   7.218   1.799 -3.7102  1.3026 -1.3486
  449MOL0     H60569   4.221   7.111   2.084  2.4915 -5.9212 -1.0127
  449MOL0     H60570   4.340   7.076   1.967  0.1328  0.0045  2.2319
  449MOL0     H60571   4.279   7.341   2.106  1.9385  1.6272  0.0845
  449MOL0     H60572   4.324   7.360   1.946 -1.8311 -0.0916 -1.1401
  449MOL0     H60573   4.468   7.208   2.170  3.7141  0.7563  1.8596
  449MOL0     H60574   4.518   7.359   2.120  1.3920 -2.5587  0.7763
  449MOL0     H60575   4.695   7.417   1.936 -0.9596 -0.0691  1.1013
  449MOL0     H60576   4.955   7.428   1.959 -0.4280  1.1407 -0.5203
  449MOL0     H60577   5.337   7.497   1.924 -1.7715  0.7225  1.1361
  449MOL0     H60578   5.559   7.571   1.988 -0.1208 -0.6152 -1.2429
  449MOL0     H60579   5.660   7.675   2.160 -0.4263 -0.1161 -2.1949
  449MOL0     H60580   5.776   7.657   2.289 -0.4400  3.0543 -1.5026
  449MOL0     H60581   5.910   7.525   2.130 -2.2113 -0.1247  2.4333
  449MOL0     H60582   5.824   7.579   1.989  1.8623 -2.2371 -0.3594
  449MOL0     H60583   5.851   7.814   2.016 -1.0206 -1.3416 -2.0466
  449MOL0     H60584   5.937   7.794   2.170 -0.9130  1.8447 -1.4332
  449MOL0     H60585   6.028   7.718   1.893  0.7828 -0.7348  0.0281
  449MOL0     H60586   6.103   7.654   2.033 -2.9170 -2.0140 -2.0913
  449MOL0     H60587   6.086   7.950   1.997 -0.0795 -0.1353 -0.7212
  449MOL0     H60588   6.211   7.858   1.913  0.6044  1.4635  0.0577
  449MOL0     H60589   6.254   7.963   2.148 -1.6065  0.5483 -1.1209
  449MOL0     H60590   6.187   7.823   2.213  3.0465  0.1204  0.5711
  449MOL0     H60591   6.439   7.851   2.026 -0.0287 -1.1192 -0.6141
  449MOL0     H60592   6.352   7.705   2.029  0.9031 -0.2809 -0.2827
  449MOL0     H60593   6.448   7.828   2.296 -0.7679  0.0193  0.5135
  449MOL0     H60594   6.414   7.652   2.249  1.4835 -0.9943 -2.1474
  449MOL0     H60595   5.563   7.260   2.292 -0.8143 -0.3483 -1.1276
  449MOL0     H60596   5.328   7.236   2.256 -0.6742 -0.5250 -1.3147
  449MOL0     H60597   4.927   7.042   2.143  0.6995 -0.5683 -1.5833
  449MOL0     H60598   4.709   7.026   2.099  0.7104 -1.6185 -1.2493
  449MOL0     H60599   2.806   6.863   2.199  3.5578  2.0218  0.3518
  449MOL0     H60600   2.598   6.848   2.249  2.0086 -0.8910  0.6297
  449MOL0     H60601   2.180   7.062   2.013  0.3059  1.9555 -0.8026
  449MOL0     H60602   1.955   7.130   1.956 -0.9973 -1.4059  0.6121
  449MOL0     H60603   1.847   7.434   2.196 -0.9618  1.0469 -1.0382
  449MOL0     H60604   1.721   7.354   2.289  2.7831 -1.1542  0.7980
  449MOL0     H60605   1.661   7.483   2.018 -2.1111  0.0102  0.6983
  449MOL0     H60606   1.622   7.541   2.174 -0.5280 -0.9734  0.3155
  449MOL0     H60607   1.520   7.280   2.178 -0.1036 -0.3488 -1.9775
  449MOL0     H60608   1.499   7.328   2.003  0.6221  0.7161 -1.7260
  449MOL0     H60609   1.376   7.476   2.251 -0.0392 -1.9881  1.4156
  449MOL0     H60610   1.386   7.531   2.073 -0.7915  0.4190  0.2711
  449MOL0     H60611   1.091   7.238   2.073  0.9045 -1.1164 -1.0560
  449MOL0     H60612   1.888   7.228   2.372 -2.3594 -0.0758 -0.8060
  449MOL0     H60613   2.045   7.137   2.534 -1.6219 -2.6756 -1.8019
  449MOL0     H60614   2.206   7.081   2.488 -0.2207  0.9987  0.1721
  449MOL0     H60615   2.184   7.254   2.495  1.3717 -0.0705  0.0779
  450MOL0     O60616   8.871   3.298   9.458 -0.0608  0.7099 -0.4072
  450MOL0     C60617   8.895   3.402   9.408 -0.4934 -1.0261  0.6635
  450MOL0     O60618   9.019   3.446   9.370  0.2704 -0.4616  0.6828
  450MOL0     C60619   9.113   3.361   9.323  0.9485 -0.4478 -0.4349
  450MOL0     C60620   9.237   3.378   9.376 -0.0784 -0.5733  0.2978
  450MOL0     C60621   9.347   3.290   9.344  0.6613  0.0661 -0.2976
  450MOL0     C60622   9.328   3.183   9.260  0.0415  0.3971 -0.7702
  450MOL0     O60623   9.434   3.103   9.218 -0.2837  0.4102 -0.5006
  450MOL0     C60624   9.562   3.131   9.292  0.2307  0.2936  0.4255
  450MOL0     C60625   9.670   3.052   9.228 -0.2662  0.0717 -0.2826
  450MOL0     C60626   9.718   3.109   9.102  0.4753 -0.2339  0.4709
  450MOL0     C60627   9.805   3.005   9.035  0.3537  0.4052  0.0541
  450MOL0     C60628   9.860   3.065   8.897  0.5711  0.4950  0.6673
  450MOL0     C60629   9.968   3.177   8.915 -0.0887  1.3850 -1.1288
  450MOL0     C60630  10.041   3.207   8.784 -0.3513  0.1500  0.0250
  450MOL0     C60631  10.139   3.322   8.783 -0.2030 -0.0335  0.0168
  450MOL0     N60632  10.227   3.313   8.671  0.1834  0.0132 -0.4446
  450MOL0     C60633  10.320   3.414   8.643 -0.4315  0.2189  0.0489
  450MOL0     C60634  10.369   3.370   8.523  0.0026 -0.9298 -0.8097
  450MOL0     C60635  10.484   3.438   8.445  0.2485  0.5110  0.7407
  450MOL0     C60636  10.474   3.590   8.436 -0.6501 -0.6166 -0.3026
  450MOL0     C60637  10.342   3.633   8.364  0.1800  0.9280 -0.5134
  450MOL0     C60638  10.312   3.595   8.222 -0.9467  0.1784  0.0235
  450MOL0     O60639  10.437   3.589   8.152 -0.4592  0.5164 -0.3336
  450MOL0     C60640  10.485   3.696   8.082 -0.0928 -0.8165 -0.1133
  450MOL0     C60641  10.539   3.667   7.959  0.3192 -0.3162 -0.1185
  450MOL0     C60642  10.579   3.768   7.874 -0.6058 -0.3719 -1.0642
  450MOL0     C60643  10.548   3.902   7.907 -0.6172  0.5619 -0.4890
  450MOL0     C60644  10.594   4.006   7.814 -0.1991  0.5875  0.5855
  450MOL0     O60645  10.577   3.970   7.685  0.6481 -0.0326 -0.1024
  450MOL0     C60646  10.641   4.052   7.591 -0.4799  0.2684 -0.0029
  450MOL0     C60647  10.552   4.129   7.505 -0.6260  0.2187 -0.4245
  450MOL0     C60648  10.601   4.206   7.405  0.2647 -0.9268  0.2850
  450MOL0     C60649  10.740   4.217   7.388  0.1436 -0.5266 -0.1276
  450MOL0     O60650  10.776   4.296   7.275  0.0223 -0.2521  0.2871
  450MOL0     C60651  10.913   4.323   7.254  1.3700  0.3410 -1.4414
  450MOL0     C60652  10.934   4.416   7.136 -0.0036 -0.2784  0.3851
  450MOL0     C60653  10.866   4.543   7.166 -0.5277 -0.3353 -0.2862
  450MOL0     C60654  10.906   4.671   7.090  0.0015 -0.9378  0.1614
  450MOL0     C60655  10.937   4.802   7.172 -0.3766 -0.0844  0.3704
  450MOL0     C60656  10.965   4.924   7.083  1.3195 -1.7847 -0.5730
  450MOL0     C60657  10.835   4.972   7.019  0.2073 -0.1597 -0.2791
  450MOL0     C60658  10.860   5.091   6.926 -0.7301 -0.6155  1.4638
  450MOL0    Cl60659  10.704   5.150   6.852  0.2198  0.8322  0.0106
  450MOL0     C60660  10.823   4.141   7.477 -0.1372 -0.4052  0.1265
  450MOL0     C60661  10.776   4.050   7.571  0.1793  0.1927 -0.2775
  450MOL0     O60662  10.618   4.120   7.852  0.1105 -0.1575  0.1881
  450MOL0     C60663  10.482   3.933   8.017  0.2772  1.2748 -0.4862
  450MOL0     C60664  10.459   3.828   8.108  0.5366  0.2970 -1.0586
  450MOL0     N60665  10.306   3.259   8.488  0.2710  0.0498 -0.6790
  450MOL0     N60666  10.224   3.221   8.574  0.2810  0.2372 -0.7739
  450MOL0     C60667   9.198   3.173   9.204 -0.1895  0.1592 -0.5342
  450MOL0     C60668   9.092   3.257   9.243  0.5453  0.4424  0.3672
  450MOL0     C60669   8.789   3.501   9.388 -0.3126  0.0799  0.9768
  450MOL0     C60670   8.825   3.640   9.365  0.3201  0.9524  0.4101
  450MOL0     C60671   8.722   3.733   9.345  0.1864 -0.6910  0.2608
  450MOL0     C60672   8.593   3.691   9.355 -0.5032  0.2175 -1.0604
  450MOL0     O60673   8.497   3.781   9.332 -0.1291  0.1572 -0.8827
  450MOL0     C60674   8.444   3.840   9.453 -0.8509 -0.8169  0.4282
  450MOL0     C60675   8.296   3.872   9.431  0.2842  0.3123  0.2823
  450MOL0     C60676   8.254   3.950   9.552  0.1313  0.4028  0.4275
  450MOL0     C60677   8.241   3.857   9.677  0.1473  0.6702  0.1284
  450MOL0     C60678   8.170   3.919   9.783  0.2760 -0.2034 -0.0670
  450MOL0     C60679   8.090   3.970   9.863  0.6511 -0.0363  0.7014
  450MOL0     C60680   8.561   3.558   9.384  0.6452 -0.6534  0.0704
  450MOL0     C60681   8.656   3.461   9.394 -0.7796  0.6087  0.5293
  450MOL0     C60682   8.593   3.323   9.403 -0.2142 -0.6097 -0.2207
  450MOL0     H60683   9.259   3.459   9.445  1.0861 -1.5498  1.1158
  450MOL0     H60684   9.443   3.324   9.382  0.2141  1.8115 -0.6177
  450MOL0     H60685   9.596   3.235   9.294 -2.6895  1.3131  1.5065
  450MOL0     H60686   9.542   3.110   9.397 -1.5360 -1.3348 -0.1728
  450MOL0     H60687   9.633   2.950   9.219 -1.2250  0.5040 -1.6235
  450MOL0     H60688   9.755   3.044   9.297 -1.6897 -1.0507  1.4265
  450MOL0     H60689   9.765   3.205   9.127 -2.7308  1.6249 -0.2111
  450MOL0     H60690   9.630   3.137   9.044 -0.8040  3.4187  3.7240
  450MOL0     H60691   9.880   2.959   9.101 -1.2626 -0.1440  1.6015
  450MOL0     H60692   9.738   2.922   9.010 -0.8282  1.5052 -0.5574
  450MOL0     H60693   9.896   2.977   8.843  0.0481  0.2686  0.6826
  450MOL0     H60694   9.774   3.104   8.842  1.2825  1.7834  0.4228
  450MOL0     H60695   9.925   3.264   8.965 -2.0463 -0.4055  0.4907
  450MOL0     H60696  10.039   3.121   8.977 -2.9444 -1.5392 -0.1949
  450MOL0     H60697   9.960   3.224   8.712  1.9010  2.9273 -2.1061
  450MOL0     H60698  10.095   3.117   8.754 -1.7083 -0.6457 -0.1076
  450MOL0     H60699  10.083   3.416   8.785  2.4767  1.8955  5.9449
  450MOL0     H60700  10.194   3.315   8.877 -0.8609 -0.7397  0.3558
  450MOL0     H60701  10.360   3.492   8.706  1.2532 -0.2162 -0.4078
  450MOL0     H60702  10.574   3.391   8.485  0.2822 -1.7005 -1.6573
  450MOL0     H60703  10.476   3.402   8.342  0.5045 -4.3505  2.1806
  450MOL0     H60704  10.470   3.651   8.527 -1.1766 -1.0069 -0.0607
  450MOL0     H60705  10.560   3.631   8.382 -1.1824  2.5645  1.0598
  450MOL0     H60706  10.335   3.742   8.365 -1.7596  0.8554  1.7376
  450MOL0     H60707  10.266   3.583   8.424 -0.2741  1.4580 -0.6448
  450MOL0     H60708  10.247   3.678   8.194 -1.4602 -0.0871  0.3989
  450MOL0     H60709  10.258   3.500   8.217 -0.6605  0.0986 -2.2415
  450MOL0     H60710  10.545   3.564   7.923 -0.0261 -0.1842 -0.5605
  450MOL0     H60711  10.640   3.749   7.786  0.7142  3.7424 -1.2564
  450MOL0     H60712  10.444   4.122   7.521 -0.3895 -1.6721  0.6830
  450MOL0     H60713  10.530   4.245   7.334  0.9640  1.2160  0.6884
  450MOL0     H60714  10.942   4.379   7.343 -0.3590 -0.4046 -0.3495
  450MOL0     H60715  10.968   4.234   7.220  1.0843  0.0575 -1.1653
  450MOL0     H60716  11.040   4.443   7.135  0.3702 -1.6463 -0.2867
  450MOL0     H60717  10.908   4.384   7.034  0.1466  1.0472 -0.0890
  450MOL0     H60718  10.758   4.532   7.152 -0.4800 -0.5277 -0.5164
  450MOL0     H60719  10.879   4.570   7.271 -1.1695 -0.3246 -0.2039
  450MOL0     H60720  10.830   4.697   7.015  1.4174 -0.1092 -1.0468
  450MOL0     H60721  11.000   4.674   7.033 -2.0805  1.3094 -3.5920
  450MOL0     H60722  11.026   4.783   7.233  0.8788 -1.9002 -1.8202
  450MOL0     H60723  10.860   4.823   7.246  0.1877 -0.2782  1.0229
  450MOL0     H60724  11.008   5.007   7.140 -1.1133  0.1068 -1.3282
  450MOL0     H60725  11.032   4.896   7.001  1.8264 -0.0455 -0.7883
  450MOL0     H60726  10.759   4.997   7.094  1.4813 -0.4118  1.1427
  450MOL0     H60727  10.788   4.901   6.950 -0.8542  1.6465 -1.5028
  450MOL0     H60728  10.910   5.173   6.978 -0.8408  0.8079 -0.5163
  450MOL0     H60729  10.929   5.077   6.842  1.4215  2.1639  2.6153
  450MOL0     H60730  10.928   4.166   7.488  0.3875 -0.5871 -3.2994
  450MOL0     H60731  10.857   4.001   7.623 -0.9050  2.6030  4.1760
  450MOL0     H60732  10.463   4.036   8.048 -0.0724  1.2493 -0.6060
  450MOL0     H60733  10.420   3.862   8.204 -0.7975 -0.9755 -1.1193
  450MOL0     H60734   9.169   3.089   9.140 -2.0426 -3.4539  4.4397
  450MOL0     H60735   8.995   3.250   9.194  1.1074 -0.9181 -0.6080
  450MOL0     H60736   8.929   3.670   9.361  0.9335 -1.0405 -0.0856
  450MOL0     H60737   8.733   3.837   9.319 -3.3444 -0.5919 -1.3367
  450MOL0     H60738   8.501   3.931   9.476  0.6917 -1.8673  0.9433
  450MOL0     H60739   8.449   3.777   9.542 -2.2848  0.4933  1.4966
  450MOL0     H60740   8.242   3.778   9.423  2.0964 -0.7162 -0.2507
  450MOL0     H60741   8.284   3.929   9.338 -3.4273 -1.7290 -0.6874
  450MOL0     H60742   8.155   3.982   9.517  0.5109  0.5337 -0.5382
  450MOL0     H60743   8.323   4.033   9.571 -0.3845  0.3473  2.9437
  450MOL0     H60744   8.204   3.759   9.648  2.6003  0.5240 -2.9829
  450MOL0     H60745   8.332   3.841   9.736 -0.0554  3.2433  1.2794
  450MOL0     H60746   8.029   4.013   9.939 -0.0181  0.4164 -0.0798
  450MOL0     H60747   8.456   3.537   9.399  0.7166 -0.2586  1.2290
  450MOL0     H60748   8.492   3.316   9.361 -0.6281  0.4340  0.5538
  450MOL0     H60749   8.652   3.245   9.355 -0.4504 -1.0097  0.1297
  450MOL0     H60750   8.595   3.278   9.503  1.8079 -1.1448 -0.4501
  451MOL0     O60751   8.595  10.058   8.148  0.0633  0.7298 -0.0276
  451MOL0     C60752   8.554  10.103   8.044 -1.0175  0.7498  0.2859
  451MOL0     O60753   8.636  10.141   7.940  0.2796 -0.3574 -0.0119
  451MOL0     C60754   8.774  10.184   7.956  0.6298 -0.4752 -1.0633
  451MOL0     C60755   8.861  10.142   8.056 -1.1288 -0.4996  0.9536
  451MOL0     C60756   8.998  10.189   8.048  0.9224 -0.4904  0.3624
  451MOL0     C60757   9.034  10.272   7.947 -1.2428  0.7837  0.4347
  451MOL0     O60758   9.171  10.276   7.936 -0.2664 -0.1463 -0.1210
  451MOL0     C60759   9.214  10.404   7.886  0.2255  0.1514  0.1926
  451MOL0     C60760   9.363  10.406   7.904  0.7140 -0.7626  0.1407
  451MOL0     C60761   9.427  10.514   7.835 -0.4769 -0.4060 -0.1489
  451MOL0     C60762   9.572  10.537   7.873 -1.3226  0.3387 -0.2377
  451MOL0     C60763   9.674  10.424   7.857 -0.5847  0.7683 -0.4329
  451MOL0     C60764   9.791  10.413   7.956 -0.2164  0.8218  0.0909
  451MOL0     C60765   9.927  10.458   7.908 -0.4540 -0.0375 -0.1428
  451MOL0     C60766   9.950  10.612   7.934 -0.0773  0.2036  0.0141
  451MOL0     N60767  10.084  10.652   7.948 -0.6240  0.1008 -0.9145
  451MOL0     C60768  10.136  10.741   8.037  0.7423 -0.0983 -0.8448
  451MOL0     C60769  10.253  10.785   7.982  0.2458  0.7982  0.6406
  451MOL0     C60770  10.331  10.901   8.028  0.1775 -0.1527 -0.4263
  451MOL0     C60771  10.385  10.873   8.164 -0.4643  0.3010 -0.2618
  451MOL0     C60772  10.476  10.998   8.194 -0.7650  0.0576 -0.1182
  451MOL0     C60773  10.628  10.979   8.174  0.0860 -1.3980 -0.1453
  451MOL0     O60774  10.708  10.931   8.286  0.5536  0.3203  0.6476
  451MOL0     C60775  10.812  10.855   8.253  0.1705 -0.6434 -0.1656
  451MOL0     C60776  10.898  10.886   8.143 -0.3958 -0.0212 -0.7547
  451MOL0     C60777  11.018  10.811   8.120  0.1905 -1.0402  0.9651
  451MOL0     C60778  11.047  10.699   8.197 -0.3784  0.0277 -0.5604
  451MOL0     C60779  11.156  10.604   8.170 -0.1245  0.0834 -0.9428
  451MOL0     O60780  11.236  10.636   8.070  0.4303  0.6436  0.1596
  451MOL0     C60781  11.362  10.589   8.055 -0.0146  0.9216 -0.3486
  451MOL0     C60782  11.384  10.454   8.048  0.2321  0.2084  0.1687
  451MOL0     C60783  11.505  10.395   8.025  0.4362  0.1203 -0.1446
  451MOL0     C60784  11.610  10.472   7.999 -0.4386  0.5799 -0.7577
  451MOL0     O60785  11.731  10.433   7.946 -0.2614  0.9705 -0.0379
  451MOL0     C60786  11.771  10.298   7.909 -0.0677  0.2067 -0.1208
  451MOL0     C60787  11.904  10.314   7.831 -0.3055 -0.3520  0.5625
  451MOL0     C60788  12.031  10.330   7.908 -0.7527  0.3785  0.3709
  451MOL0     C60789  12.145  10.307   7.806 -0.1688 -0.6618 -0.2905
  451MOL0     C60790  12.279  10.350   7.873 -0.5879 -0.9624  0.2020
  451MOL0     C60791  12.395  10.318   7.776  0.1145  0.0553  0.6206
  451MOL0     C60792  12.502  10.429   7.787 -0.3986  0.7786  0.2765
  451MOL0     C60793  12.592  10.454   7.669  1.8739 -0.3929  0.1711
  451MOL0    Cl60794  12.693  10.308   7.635 -0.4008 -0.1229 -0.5719
  451MOL0     C60795  11.596  10.612   8.011 -0.0387 -0.3826  0.2191
  451MOL0     C60796  11.470  10.666   8.038 -0.6136  0.5573 -0.1457
  451MOL0     O60797  11.178  10.520   8.260 -0.7658 -0.8984 -0.4629
  451MOL0     C60798  10.952  10.663   8.300 -0.0518  0.0779  0.1319
  451MOL0     C60799  10.838  10.736   8.319 -0.3236 -0.6533 -0.8027
  451MOL0     N60800  10.283  10.703   7.878  0.6633 -0.1742 -0.2687
  451MOL0     N60801  10.176  10.638   7.847 -1.1677 -0.5293  0.2359
  451MOL0     C60802   8.944  10.324   7.858  0.2536 -0.1406  0.1719
  451MOL0     C60803   8.814  10.276   7.861  0.1655  0.0426 -0.4627
  451MOL0     C60804   8.407  10.112   8.031 -0.5751 -1.0891  0.4213
  451MOL0     C60805   8.336  10.041   8.134  0.2511  0.3231  0.7134
  451MOL0     C60806   8.196  10.044   8.125  0.0274  0.1124 -0.3610
  451MOL0     C60807   8.132  10.121   8.032  1.0789  0.1199  0.1747
  451MOL0     O60808   7.998  10.108   8.038  0.2296  0.1043  0.4124
  451MOL0     C60809   7.912  10.158   7.936 -0.1392  0.4141  0.5558
  451MOL0     C60810   7.772  10.093   7.935  0.0322  0.1015 -0.1718
  451MOL0     C60811   7.796   9.949   7.886 -0.4501 -1.1096 -0.4746
  451MOL0     C60812   7.662   9.899   7.826 -0.4206 -0.4665 -0.3319
  451MOL0     C60813   7.661   9.761   7.797 -0.8976  0.3283  0.4906
  451MOL0     C60814   7.675   9.641   7.800  0.1857  0.6693 -0.2354
  451MOL0     C60815   8.200  10.190   7.936  0.4687  0.1416 -0.3004
  451MOL0     C60816   8.336  10.188   7.929 -0.5400 -0.0915 -0.3051
  451MOL0     C60817   8.403  10.263   7.815  0.0398 -0.1689 -0.2325
  451MOL0     H60818   8.829  10.059   8.119 -1.5603 -1.8188 -0.9165
  451MOL0     H60819   9.075  10.147   8.112  0.6548 -1.1872  0.2378
  451MOL0     H60820   9.199  10.419   7.779 -3.6856  1.7735  0.7877
  451MOL0     H60821   9.179  10.492   7.941  1.8452 -0.1566  1.8142
  451MOL0     H60822   9.420  10.316   7.878  1.5215 -0.8667  2.0896
  451MOL0     H60823   9.372  10.406   8.013  0.9523 -4.2822  0.2286
  451MOL0     H60824   9.367  10.603   7.855 -0.7691 -0.4557 -0.7843
  451MOL0     H60825   9.417  10.492   7.728 -1.2429 -1.4670  0.1163
  451MOL0     H60826   9.613  10.610   7.803 -1.4378  0.2133 -0.4349
  451MOL0     H60827   9.570  10.579   7.975 -2.3266  0.7926 -0.4273
  451MOL0     H60828   9.626  10.327   7.874 -0.3871  1.0094  1.7709
  451MOL0     H60829   9.697  10.416   7.750  1.3219 -3.8246  0.0838
  451MOL0     H60830   9.764  10.453   8.054 -0.1256  2.8962 -0.6653
  451MOL0     H60831   9.813  10.308   7.973 -1.0595 -0.0299 -3.2588
  451MOL0     H60832   9.943  10.432   7.803  0.2667 -0.1039 -0.0193
  451MOL0     H60833   9.999  10.404   7.969 -2.1689 -0.6606  1.4156
  451MOL0     H60834   9.910  10.678   7.857  1.4124 -1.6776 -2.5730
  451MOL0     H60835   9.901  10.641   8.027 -0.7401 -0.8428  0.0043
  451MOL0     H60836  10.075  10.774   8.121 -0.2402 -1.5738 -0.9591
  451MOL0     H60837  10.402  10.927   7.948 -0.7511  0.4501 -1.0737
  451MOL0     H60838  10.265  10.988   8.035  0.4958  0.1276 -0.8457
  451MOL0     H60839  10.311  10.857   8.243  0.6497 -1.6204  0.4726
  451MOL0     H60840  10.448  10.784   8.163  0.3938  0.8721 -2.1974
  451MOL0     H60841  10.471  11.030   8.299 -0.2085  1.0680 -0.3833
  451MOL0     H60842  10.438  11.087   8.142  1.3337  1.2266  0.2440
  451MOL0     H60843  10.680  11.074   8.158  1.3619 -2.2780 -1.3889
  451MOL0     H60844  10.652  10.922   8.084  5.4109 -2.0572  1.3326
  451MOL0     H60845  10.892  10.970   8.074  3.2641  1.8129  0.8593
  451MOL0     H60846  11.087  10.837   8.040 -0.4505 -2.7993 -0.2341
  451MOL0     H60847  11.308  10.380   8.070 -2.3161  1.6630 -2.8949
  451MOL0     H60848  11.509  10.287   8.029  1.9353  0.1591 -0.0468
  451MOL0     H60849  11.777  10.233   7.997 -2.2918  0.5203  0.3028
  451MOL0     H60850  11.689  10.261   7.848  1.6646 -1.1650 -1.7624
  451MOL0     H60851  11.915  10.231   7.760 -1.1932  2.5719 -3.3174
  451MOL0     H60852  11.894  10.404   7.769  4.3401  1.0319  1.3971
  451MOL0     H60853  12.043  10.430   7.952  0.3817  0.4104  0.0443
  451MOL0     H60854  12.057  10.258   7.985 -0.0435  0.3858  0.1500
  451MOL0     H60855  12.129  10.358   7.711  0.4999  1.1189  0.5028
  451MOL0     H60856  12.140  10.205   7.767  0.6623  0.3361 -3.2309
  451MOL0     H60857  12.309  10.299   7.965  0.3493  1.1445  1.1455
  451MOL0     H60858  12.261  10.455   7.900  0.9783 -0.0516 -1.9882
  451MOL0     H60859  12.428  10.213   7.775  1.8393  0.5490 -1.4574
  451MOL0     H60860  12.348  10.313   7.677  1.4018 -1.0393  0.0185
  451MOL0     H60861  12.567  10.400   7.870 -2.2524  1.0336  1.9050
  451MOL0     H60862  12.452  10.522   7.815 -1.0039  0.3483  0.6583
  451MOL0     H60863  12.535  10.464   7.577  1.1669 -4.7709 -0.0733
  451MOL0     H60864  12.648  10.546   7.688 -2.0292  2.3568 -0.3696
  451MOL0     H60865  11.678  10.679   7.990 -2.2155  2.1458 -0.7789
  451MOL0     H60866  11.464  10.773   8.052 -4.7378  0.6726 -1.3515
  451MOL0     H60867  10.961  10.572   8.358 -0.6203  0.2157  0.4493
  451MOL0     H60868  10.779  10.696   8.401 -1.5425 -2.6126 -2.5252
  451MOL0     H60869   8.964  10.394   7.777 -0.8642  0.2275  0.1980
  451MOL0     H60870   8.743  10.314   7.790 -0.7313  0.3395  0.5703
  451MOL0     H60871   8.386   9.981   8.209  3.5260  1.1064 -0.6397
  451MOL0     H60872   8.138   9.985   8.195  1.3484  0.2764  0.9240
  451MOL0     H60873   7.961  10.133   7.841 -0.4744 -3.1608  1.1899
  451MOL0     H60874   7.897  10.265   7.951  0.5722  0.7206 -0.7505
  451MOL0     H60875   7.709  10.146   7.863  1.0141  0.6439 -0.6582
  451MOL0     H60876   7.726  10.098   8.034  2.7473 -1.6197  1.3028
  451MOL0     H60877   7.819   9.887   7.973 -0.1357 -0.0125  0.2372
  451MOL0     H60878   7.878   9.916   7.821 -1.5314 -3.8166 -0.6347
  451MOL0     H60879   7.582   9.923   7.897  0.4965  0.5750  0.3891
  451MOL0     H60880   7.637   9.939   7.728  1.4854  2.7981  0.3730
  451MOL0     H60881   7.707   9.538   7.804 -3.3436 -0.6780 -2.1035
  451MOL0     H60882   8.143  10.248   7.864 -0.4802  0.5125  0.7158
  451MOL0     H60883   8.339  10.321   7.748  0.2547 -0.2716 -0.5280
  451MOL0     H60884   8.494  10.318   7.840 -0.0722  0.6451 -1.5014
  451MOL0     H60885   8.435  10.180   7.752  2.5074  0.7673 -0.3055
  452MOL0     O60886   9.560   8.263   6.741  0.5071  0.1316  0.1188
  452MOL0     C60887   9.474   8.204   6.810  0.8076  0.2933 -0.4146
  452MOL0     O60888   9.499   8.117   6.911  0.0979 -0.2722 -0.1013
  452MOL0     C60889   9.626   8.074   6.937  0.6439 -0.1118 -0.2074
  452MOL0     C60890   9.650   7.932   6.942  0.4385  0.1010 -0.1979
  452MOL0     C60891   9.779   7.886   6.959  0.2673 -0.5325  0.2371
  452MOL0     C60892   9.883   7.968   6.983  0.0252  0.0008 -0.2330
  452MOL0     O60893  10.011   7.918   7.013 -0.2358 -0.3819  0.3955
  452MOL0     C60894  10.118   8.010   7.016 -0.3030 -0.3595  0.9838
  452MOL0     C60895  10.245   7.929   7.048 -0.4240  0.4198 -0.7309
  452MOL0     C60896  10.334   7.984   7.163  0.1418  0.0223  0.0273
  452MOL0     C60897  10.442   7.889   7.208  0.4173  0.1381  0.1882
  452MOL0     C60898  10.528   7.937   7.324  0.2961 -0.0544  0.0116
  452MOL0     C60899  10.622   7.831   7.378  0.2880 -0.4198 -0.2421
  452MOL0     C60900  10.723   7.888   7.482  0.3382  0.8643  0.7041
  452MOL0     C60901  10.823   7.963   7.399  0.8254 -0.2661  0.1108
  452MOL0     N60902  10.947   7.966   7.472 -0.5034  0.7228 -0.2821
  452MOL0     C60903  11.037   7.864   7.474  0.7748 -0.2049 -0.1917
  452MOL0     C60904  11.162   7.918   7.506 -0.1777  0.6547  1.4625
  452MOL0     C60905  11.286   7.835   7.492 -0.0594 -0.4276 -0.3157
  452MOL0     C60906  11.409   7.887   7.560  0.1464  0.1119  0.7162
  452MOL0     C60907  11.386   7.940   7.707  0.6896 -1.1259  0.3484
  452MOL0     C60908  11.519   7.951   7.777 -0.5892 -0.1391  0.1360
  452MOL0     O60909  11.574   7.822   7.807 -0.3972 -0.3825 -0.0956
  452MOL0     C60910  11.675   7.834   7.896  0.5964  0.8847 -0.1979
  452MOL0     C60911  11.661   7.800   8.034 -0.5737 -0.6632  0.1511
  452MOL0     C60912  11.780   7.791   8.117 -1.2446  0.6614  0.4903
  452MOL0     C60913  11.906   7.814   8.062 -0.2410  0.0450 -0.4651
  452MOL0     C60914  12.018   7.808   8.146 -0.6935  0.5728  0.3205
  452MOL0     O60915  12.001   7.796   8.277  0.1581 -0.1758  0.6831
  452MOL0     C60916  12.107   7.776   8.359  0.4731  0.5353  0.3719
  452MOL0     C60917  12.103   7.654   8.438 -0.9223  0.3200 -1.2924
  452MOL0     C60918  12.207   7.620   8.531  0.2293 -0.0981  0.4574
  452MOL0     C60919  12.314   7.711   8.545  1.0221  0.2318 -0.6436
  452MOL0     O60920  12.406   7.662   8.631 -0.6385  0.4464  0.0074
  452MOL0     C60921  12.496   7.752   8.687 -0.1450  0.3969  0.2210
  452MOL0     C60922  12.562   7.670   8.790 -0.3156 -0.3363  0.1454
  452MOL0     C60923  12.657   7.749   8.877  0.0530  0.0199  0.4564
  452MOL0     C60924  12.620   7.889   8.909  0.1956 -0.2699  0.7790
  452MOL0     C60925  12.700   7.933   9.028  0.7419  0.0719 -0.0312
  452MOL0     C60926  12.840   7.973   8.990  0.0283 -0.0863 -0.3132
  452MOL0     C60927  12.915   8.060   9.093 -1.0534  0.4096  0.4179
  452MOL0     C60928  13.051   8.103   9.030  0.0485 -0.1548 -0.9740
  452MOL0    Cl60929  13.031   8.194   8.886 -0.2443  0.4444  0.0096
  452MOL0     C60930  12.318   7.824   8.457  0.1737 -0.4439 -0.0357
  452MOL0     C60931  12.215   7.852   8.372 -0.7106  0.0402  0.8286
  452MOL0     O60932  12.130   7.822   8.091  0.0456  0.0887 -1.0575
  452MOL0     C60933  11.916   7.858   7.929  0.1674  0.4769 -0.9721
  452MOL0     C60934  11.804   7.869   7.851 -0.2679 -0.3308  1.0431
  452MOL0     N60935  11.145   8.054   7.523 -0.0872  0.4280 -0.1184
  452MOL0     N60936  11.017   8.079   7.519  0.3428  0.5568  0.4467
  452MOL0     C60937   9.858   8.110   6.996  0.7383 -0.7614  0.0829
  452MOL0     C60938   9.735   8.164   6.961  1.1685  0.0598  0.4249
  452MOL0     C60939   9.335   8.219   6.763  0.0595  1.0794  0.1118
  452MOL0     C60940   9.238   8.133   6.807 -0.2010  0.3296 -0.7920
  452MOL0     C60941   9.103   8.145   6.773 -0.2504 -0.2960 -0.1222
  452MOL0     C60942   9.065   8.251   6.695  1.0270  0.0906 -0.9445
  452MOL0     O60943   8.923   8.259   6.684 -0.4116  0.1187 -0.2381
  452MOL0     C60944   8.863   8.366   6.600 -0.0009 -0.7939  0.0430
  452MOL0     C60945   8.717   8.362   6.574 -0.2460  0.2396 -0.1536
  452MOL0     C60946   8.640   8.346   6.700  0.1191  0.3690 -1.1113
  452MOL0     C60947   8.490   8.346   6.681  0.6340  0.2969 -0.2678
  452MOL0     C60948   8.444   8.471   6.621 -0.5249 -0.2506 -0.2553
  452MOL0     C60949   8.402   8.574   6.581 -1.5374  0.0885  0.4687
  452MOL0     C60950   9.152   8.342   6.650 -0.1685  0.2216 -1.0500
  452MOL0     C60951   9.289   8.336   6.685 -0.6513  0.2191  0.0875
  452MOL0     C60952   9.359   8.462   6.665 -0.6694  0.7485  0.4252
  452MOL0     H60953   9.572   7.857   6.935  0.3394  0.1318  0.5083
  452MOL0     H60954   9.794   7.779   6.952 -1.8597 -0.7748 -2.8231
  452MOL0     H60955  10.125   8.058   6.917 -0.5503 -0.7238  0.7866
  452MOL0     H60956  10.107   8.081   7.098  2.5947 -0.1436  1.2891
  452MOL0     H60957  10.312   7.931   6.961 -0.9000  2.3744 -1.0943
  452MOL0     H60958  10.201   7.839   7.091 -4.4919  1.7393 -1.7256
  452MOL0     H60959  10.277   8.003   7.254 -1.4227 -2.3713 -0.3821
  452MOL0     H60960  10.377   8.078   7.125  0.2727  0.9660  2.3604
  452MOL0     H60961  10.400   7.789   7.225 -2.2101  0.6060 -2.7026
  452MOL0     H60962  10.503   7.869   7.119  1.0189 -2.4192  1.0808
  452MOL0     H60963  10.576   8.026   7.281 -0.2676 -0.1812 -0.9172
  452MOL0     H60964  10.457   7.952   7.406 -1.2414 -1.4017 -1.0128
  452MOL0     H60965  10.550   7.766   7.427 -1.0843  1.2657  0.0607
  452MOL0     H60966  10.666   7.762   7.305 -2.1055 -4.3131  1.6695
  452MOL0     H60967  10.758   7.801   7.540 -4.2009 -2.7338 -1.2936
  452MOL0     H60968  10.672   7.942   7.562  0.6750 -1.7671  2.8487
  452MOL0     H60969  10.834   7.921   7.299 -1.3504 -1.1144  0.1589
  452MOL0     H60970  10.781   8.065   7.398 -1.3754 -1.1078  0.4592
  452MOL0     H60971  11.012   7.766   7.437 -0.1122 -0.2648  0.5189
  452MOL0     H60972  11.274   7.736   7.538  0.4553 -0.8851 -1.1510
  452MOL0     H60973  11.302   7.819   7.385 -3.9454  1.8618 -1.4666
  452MOL0     H60974  11.492   7.816   7.553  0.2971  0.3573 -0.1653
  452MOL0     H60975  11.434   7.976   7.501  0.7324  0.3280  1.2793
  452MOL0     H60976  11.320   7.880   7.771 -0.2920  2.2486  2.7442
  452MOL0     H60977  11.359   8.046   7.708 -0.3346 -1.3771  0.7897
  452MOL0     H60978  11.497   8.005   7.870  0.6774 -2.2341  1.7314
  452MOL0     H60979  11.590   8.005   7.714 -0.6867 -1.7512 -1.4131
  452MOL0     H60980  11.559   7.795   8.071 -0.8653 -0.5458 -0.6324
  452MOL0     H60981  11.775   7.763   8.221  1.1998 -0.0363  0.4604
  452MOL0     H60982  12.025   7.579   8.424  1.9269 -2.8543 -1.3497
  452MOL0     H60983  12.196   7.537   8.600 -0.1654 -2.8184 -2.6207
  452MOL0     H60984  12.569   7.794   8.618  0.5200 -1.1291 -0.0455
  452MOL0     H60985  12.445   7.835   8.737 -2.1572 -0.8722  0.3906
  452MOL0     H60986  12.488   7.632   8.861  0.3083 -1.0716  0.4231
  452MOL0     H60987  12.625   7.592   8.746  0.5159  1.0645 -1.2644
  452MOL0     H60988  12.643   7.704   8.976 -1.6439 -0.4993  0.0131
  452MOL0     H60989  12.761   7.743   8.846 -0.1482  1.0499 -0.4590
  452MOL0     H60990  12.517   7.900   8.943 -0.1106  6.2979 -0.8295
  452MOL0     H60991  12.636   7.957   8.825 -1.5339  0.0703  0.6950
  452MOL0     H60992  12.703   7.865   9.114  0.7434  1.6324  1.2414
  452MOL0     H60993  12.638   8.018   9.056 -0.1918  0.2788 -2.4437
  452MOL0     H60994  12.893   7.881   8.965  0.3405 -0.0539  0.1930
  452MOL0     H60995  12.830   8.027   8.896 -0.5547  1.7281  0.7286
  452MOL0     H60996  12.942   8.005   9.184  3.8235  0.4656 -0.7062
  452MOL0     H60997  12.846   8.142   9.114 -1.6363  0.4130 -1.3657
  452MOL0     H60998  13.100   8.158   9.111  0.1994 -1.7776  0.0729
  452MOL0     H60999  13.106   8.012   9.006 -1.7170 -1.3112 -0.7878
  452MOL0     H61000  12.396   7.899   8.473  0.0623 -0.7895  2.5624
  452MOL0     H61001  12.221   7.935   8.302 -5.1240 -1.5546 -1.8661
  452MOL0     H61002  12.009   7.894   7.886  2.8887 -0.5511  3.4343
  452MOL0     H61003  11.803   7.887   7.744 -0.0388  2.0884  1.4000
  452MOL0     H61004   9.939   8.182   7.006 -1.3376  1.4474  2.3286
  452MOL0     H61005   9.729   8.272   6.953 -0.7756 -0.0087  0.3778
  452MOL0     H61006   9.276   8.055   6.871 -2.2695  0.1489  0.3134
  452MOL0     H61007   9.026   8.072   6.795 -1.0232 -0.5894 -3.3161
  452MOL0     H61008   8.907   8.361   6.500 -1.2961 -1.3265 -0.5293
  452MOL0     H61009   8.876   8.461   6.652 -3.1167 -0.4981  0.4694
  452MOL0     H61010   8.692   8.276   6.511  0.5277 -0.6992  0.7843
  452MOL0     H61011   8.685   8.451   6.519 -1.4151 -0.9402 -1.4748
  452MOL0     H61012   8.672   8.411   6.782  1.3476  0.9542 -2.0235
  452MOL0     H61013   8.660   8.242   6.730  1.2044  1.2715  1.5268
  452MOL0     H61014   8.452   8.255   6.633  0.5237 -0.0386  0.4524
  452MOL0     H61015   8.441   8.345   6.779  4.0737 -0.1706  1.5983
  452MOL0     H61016   8.385   8.674   6.547 -0.2705 -0.2416 -1.3310
  452MOL0     H61017   9.113   8.433   6.605  1.8162  0.5894 -2.1783
  452MOL0     H61018   9.463   8.441   6.640 -0.3280 -0.5394  2.7152
  452MOL0     H61019   9.328   8.525   6.581  0.4352  0.1825 -0.4445
  452MOL0     H61020   9.358   8.516   6.760  1.0224  1.3875  0.1105
  453MOL0     O61021   9.437   1.052   7.201 -0.3354  0.0265  0.3208
  453MOL0     C61022   9.419   1.143   7.283 -0.4080  0.0524  0.0418
  453MOL0     O61023   9.509   1.240   7.311  0.5474 -0.0956 -0.6645
  453MOL0     C61024   9.641   1.208   7.328 -0.3389  0.2706  0.2589
  453MOL0     C61025   9.741   1.303   7.295  0.1668 -0.5358 -0.1187
  453MOL0     C61026   9.874   1.267   7.322  0.4376 -0.0715  0.6787
  453MOL0     C61027   9.905   1.149   7.387 -0.5699 -0.0461 -0.1987
  453MOL0     O61028  10.040   1.130   7.402 -0.0889  0.8597  0.5163
  453MOL0     C61029  10.101   1.004   7.445  0.3273  0.1928  0.1818
  453MOL0     C61030  10.240   1.039   7.481  0.3964  0.6644 -0.3437
  453MOL0     C61031  10.352   1.065   7.379 -0.0176 -0.1477  0.8982
  453MOL0     C61032  10.485   1.111   7.453  0.3214 -0.2563  1.0929
  453MOL0     C61033  10.587   1.182   7.362  0.1062 -0.1882  0.2471
  453MOL0     C61034  10.729   1.193   7.438  0.4705 -0.6200  0.2900
  453MOL0     C61035  10.857   1.211   7.343 -0.3324 -0.1149 -0.0526
  453MOL0     C61036  10.928   1.084   7.318  0.0229  0.7716  0.5307
  453MOL0     N61037  10.967   1.026   7.447  0.2569  0.3002 -0.1306
  453MOL0     C61038  11.067   1.049   7.532 -0.6844 -0.4131 -0.0285
  453MOL0     C61039  11.058   0.935   7.613  0.3747  0.1467 -0.9031
  453MOL0     C61040  11.144   0.924   7.741 -0.1673  0.4964  0.4997
  453MOL0     C61041  11.202   0.780   7.734 -0.1434 -0.3491  0.2146
  453MOL0     C61042  11.303   0.758   7.843 -0.5181  1.2522  0.4218
  453MOL0     C61043  11.430   0.837   7.823 -0.0072 -0.0911 -0.1718
  453MOL0     O61044  11.416   0.964   7.884  0.2768  0.8147 -0.5116
  453MOL0     C61045  11.516   1.053   7.851 -0.1498  0.0880 -0.9661
  453MOL0     C61046  11.489   1.193   7.838 -0.7991  0.4019 -0.7745
  453MOL0     C61047  11.596   1.287   7.823  0.4726  0.4649 -1.1244
  453MOL0     C61048  11.724   1.242   7.816 -0.9952  0.5030  0.3597
  453MOL0     C61049  11.833   1.344   7.801 -0.2298 -0.1626 -0.3794
  453MOL0     O61050  11.958   1.290   7.810 -0.2999  0.0924 -0.1372
  453MOL0     C61051  12.077   1.353   7.771 -0.4093  0.5892 -0.6547
  453MOL0     C61052  12.198   1.304   7.813  0.3759 -0.1240 -0.5456
  453MOL0     C61053  12.315   1.370   7.785  0.3948  0.7048  0.7838
  453MOL0     C61054  12.321   1.477   7.702 -0.5792 -0.0918  0.4420
  453MOL0     O61055  12.446   1.541   7.694 -0.2642  0.4615  0.2481
  453MOL0     C61056  12.486   1.589   7.567  0.2658 -0.0083 -0.2045
  453MOL0     C61057  12.564   1.490   7.488  0.4577 -1.1340  0.4226
  453MOL0     C61058  12.675   1.429   7.564 -0.9973 -0.3522  0.5511
  453MOL0     C61059  12.784   1.523   7.619 -0.6291 -0.3335 -0.3803
  453MOL0     C61060  12.875   1.578   7.508  0.2684  0.8706  0.6547
  453MOL0     C61061  12.996   1.651   7.573 -0.7142 -0.0007  0.9617
  453MOL0     C61062  13.104   1.694   7.472 -0.1975 -0.3651  0.0010
  453MOL0     C61063  13.223   1.759   7.543 -0.2435 -0.1501  0.3009
  453MOL0    Cl61064  13.377   1.734   7.436  0.0623  0.0443  0.2129
  453MOL0     C61065  12.197   1.528   7.658  0.0055 -0.6139  0.3304
  453MOL0     C61066  12.082   1.467   7.688 -0.1141  0.1203 -0.1673
  453MOL0     O61067  11.800   1.460   7.789  0.5681 -0.3559 -0.1556
  453MOL0     C61068  11.753   1.106   7.824  0.1321 -0.1509  0.0855
  453MOL0     C61069  11.647   1.010   7.831  0.0153 -0.0104  0.0648
  453MOL0     N61070  10.941   0.866   7.594 -0.3762 -0.3042 -0.1158
  453MOL0     N61071  10.898   0.916   7.489 -0.1244 -0.1654  0.0881
  453MOL0     C61072   9.808   1.061   7.420 -0.8564  0.1502  0.0984
  453MOL0     C61073   9.680   1.077   7.371  0.4231 -0.8692  0.8370
  453MOL0     C61074   9.287   1.164   7.353 -0.3570  0.5228  1.1395
  453MOL0     C61075   9.181   1.076   7.313  0.4795 -0.0229  0.0591
  453MOL0     C61076   9.054   1.093   7.368  0.4945  0.5657 -0.3939
  453MOL0     C61077   9.026   1.185   7.466  0.1626  0.3597 -0.2982
  453MOL0     O61078   8.899   1.179   7.521 -0.2865  0.8012  0.0821
  453MOL0     C61079   8.882   1.224   7.653  0.2699 -0.1998 -0.1594
  453MOL0     C61080   8.754   1.167   7.699 -0.0049 -0.5836  0.5392
  453MOL0     C61081   8.724   1.188   7.847  0.4406 -0.0235  0.1132
  453MOL0     C61082   8.595   1.118   7.885  0.1158 -0.3204 -0.2694
  453MOL0     C61083   8.595   1.111   8.029 -0.1258  0.8257 -0.0494
  453MOL0     C61084   8.582   1.114   8.153 -0.9626  0.2016 -0.0207
  453MOL0     C61085   9.130   1.264   7.512  0.0983  0.9196  0.6385
  453MOL0     C61086   9.258   1.264   7.454 -0.7791  0.3057  0.2326
  453MOL0     C61087   9.362   1.353   7.514  0.0324 -0.0435 -0.0566
  453MOL0     H61088   9.723   1.405   7.265 -1.2502 -0.0759  2.0752
  453MOL0     H61089   9.949   1.342   7.302 -0.5958  0.8056 -0.0296
  453MOL0     H61090  10.050   0.971   7.536  0.7064 -1.0687 -0.0438
  453MOL0     H61091  10.101   0.929   7.365  0.5304  0.3372  0.0461
  453MOL0     H61092  10.280   0.951   7.533 -1.6712 -0.0216  0.1628
  453MOL0     H61093  10.248   1.108   7.565 -2.4930  1.2485 -0.4480
  453MOL0     H61094  10.322   1.147   7.314  0.8518  0.7225  1.5635
  453MOL0     H61095  10.370   0.978   7.315  1.0559  0.5380  0.2306
  453MOL0     H61096  10.468   1.176   7.539  1.8576 -0.0042  1.2306
  453MOL0     H61097  10.536   1.024   7.495  0.2946 -1.8931 -1.9819
  453MOL0     H61098  10.604   1.129   7.267 -0.7478 -0.3548  0.1732
  453MOL0     H61099  10.560   1.283   7.329 -1.9014 -1.0679 -1.0512
  453MOL0     H61100  10.703   1.277   7.504  0.2706 -0.1916 -0.3203
  453MOL0     H61101  10.736   1.106   7.504 -0.1277  1.1819  2.8941
  453MOL0     H61102  10.934   1.269   7.395  2.2126 -2.6007 -0.8342
  453MOL0     H61103  10.817   1.268   7.258  0.6632  3.3314  1.5740
  453MOL0     H61104  10.878   1.010   7.255  0.8428  1.8632 -1.5010
  453MOL0     H61105  11.022   1.111   7.269  0.3020 -0.3290  0.4443
  453MOL0     H61106  11.148   1.121   7.536 -2.0528  1.1349  0.2453
  453MOL0     H61107  11.225   0.997   7.748  1.5755 -1.5128  3.6225
  453MOL0     H61108  11.083   0.931   7.832 -0.2050  1.3862  0.4119
  453MOL0     H61109  11.131   0.696   7.733  0.8527 -1.2443  1.2354
  453MOL0     H61110  11.269   0.770   7.648  0.9201  3.1758  0.4975
  453MOL0     H61111  11.337   0.655   7.831 -1.4189  1.1731 -1.7354
  453MOL0     H61112  11.253   0.764   7.941 -0.9051  1.9399  0.1900
  453MOL0     H61113  11.455   0.838   7.717 -2.0154  0.6746 -0.6645
  453MOL0     H61114  11.505   0.773   7.871  0.2944  2.2222  2.7807
  453MOL0     H61115  11.383   1.213   7.837 -1.2286 -1.4021  1.3286
  453MOL0     H61116  11.577   1.393   7.822  1.2679  0.7035  1.4463
  453MOL0     H61117  12.192   1.225   7.887  1.6047  0.9006  0.6999
  453MOL0     H61118  12.397   1.334   7.846 -1.5345 -3.7830  1.1009
  453MOL0     H61119  12.402   1.620   7.504  0.9868 -0.4726 -1.4509
  453MOL0     H61120  12.546   1.680   7.573  0.0100  0.0872  1.0124
  453MOL0     H61121  12.501   1.409   7.452 -0.3489  0.1917 -1.3396
  453MOL0     H61122  12.592   1.542   7.396 -0.9510 -1.4610 -0.2101
  453MOL0     H61123  12.631   1.375   7.648 -0.3367 -1.1405  0.3989
  453MOL0     H61124  12.725   1.361   7.495 -1.2697  1.0610 -1.1184
  453MOL0     H61125  12.845   1.474   7.694 -0.4759  3.5250  2.3374
  453MOL0     H61126  12.737   1.610   7.666 -1.0462  0.5580 -2.3346
  453MOL0     H61127  12.812   1.642   7.445 -1.3927 -0.8735  0.4721
  453MOL0     H61128  12.913   1.500   7.442 -0.3425 -1.1820  2.6279
  453MOL0     H61129  12.960   1.726   7.644 -1.8461 -0.6455  1.1056
  453MOL0     H61130  13.039   1.584   7.648 -1.1437  0.2072  1.4051
  453MOL0     H61131  13.060   1.765   7.401  2.4984  1.3419 -0.1011
  453MOL0     H61132  13.119   1.605   7.410  1.9043  1.8959 -3.0286
  453MOL0     H61133  13.204   1.864   7.568 -0.2824 -0.1493  0.2683
  453MOL0     H61134  13.243   1.700   7.633  2.3508 -0.3508 -0.3431
  453MOL0     H61135  12.199   1.629   7.621  0.0359 -0.9809 -0.7007
  453MOL0     H61136  11.992   1.501   7.638 -1.6921 -3.6751 -0.2779
  453MOL0     H61137  11.851   1.060   7.821 -0.5156 -1.5500 -1.1907
  453MOL0     H61138  11.671   0.904   7.835 -1.1370 -0.3293 -0.8140
  453MOL0     H61139   9.835   0.969   7.471 -1.7370 -2.1510 -3.2288
  453MOL0     H61140   9.600   1.009   7.399 -1.9835  0.2372 -2.6074
  453MOL0     H61141   9.191   0.994   7.243 -2.0212 -0.5281  0.2268
  453MOL0     H61142   8.986   1.016   7.332  1.7730 -1.1242  0.5964
  453MOL0     H61143   8.875   1.332   7.645  1.2185 -0.2305 -2.0042
  453MOL0     H61144   8.964   1.194   7.719  0.6114 -1.3489 -1.0589
  453MOL0     H61145   8.744   1.063   7.667 -0.1670  0.1662 -2.1152
  453MOL0     H61146   8.669   1.213   7.647  0.3643  0.8652  1.1529
  453MOL0     H61147   8.718   1.295   7.871  2.1627  0.0164  0.5674
  453MOL0     H61148   8.813   1.146   7.896  2.1205  1.5323 -1.4190
  453MOL0     H61149   8.514   1.177   7.843 -0.2091  2.0760  3.2688
  453MOL0     H61150   8.589   1.015   7.847 -0.1709 -0.4535  0.1301
  453MOL0     H61151   8.596   1.112   8.259  1.9803  4.0784 -0.1046
  453MOL0     H61152   9.108   1.330   7.596 -4.2151 -0.3054  0.7270
  453MOL0     H61153   9.330   1.406   7.604  2.4966  3.2645 -0.9655
  453MOL0     H61154   9.450   1.298   7.548  2.5881  1.5833 -3.4542
  453MOL0     H61155   9.390   1.432   7.445 -0.5222 -0.6569 -1.0098
  454MOL0     O61156   0.426   0.015   4.403 -0.4710  0.2661  0.3034
  454MOL0     C61157   0.310   0.065   4.407 -0.4991 -0.6053  0.4874
  454MOL0     O61158   0.260   0.128   4.513 -0.4020  0.1271 -0.2713
  454MOL0     C61159   0.328   0.119   4.629 -0.5679 -0.3626 -1.2457
  454MOL0     C61160   0.383   0.240   4.680 -0.3499 -0.6992 -0.5521
  454MOL0     C61161   0.467   0.238   4.795  0.6125 -0.0654 -0.1603
  454MOL0     C61162   0.474   0.119   4.867 -0.0418  0.4721  0.2194
  454MOL0     O61163   0.560   0.116   4.978  0.0397  0.0678  0.0926
  454MOL0     C61164   0.684   0.174   4.971 -1.2137 -0.4735 -0.2937
  454MOL0     C61165   0.755   0.097   5.082 -0.3902 -0.0974 -0.2686
  454MOL0     C61166   0.713   0.150   5.221  0.6557  0.1336 -0.2238
  454MOL0     C61167   0.760   0.057   5.334  0.6761 -0.9217 -0.4668
  454MOL0     C61168   0.640   0.035   5.432  0.2125  0.6144 -0.4619
  454MOL0     C61169   0.673  -0.090   5.523  0.4739  0.0168  0.5422
  454MOL0     C61170   0.564  -0.120   5.624  0.6218 -0.0966 -0.2716
  454MOL0     C61171   0.456  -0.196   5.547 -0.1671  0.0238 -0.8696
  454MOL0     N61172   0.353  -0.239   5.644 -0.1484 -0.3450  0.1927
  454MOL0     C61173   0.214  -0.243   5.627 -0.2203  0.2392  0.8567
  454MOL0     C61174   0.159  -0.306   5.735 -1.2195 -0.3586  0.2972
  454MOL0     C61175   0.016  -0.324   5.736  0.2506 -0.7663 -0.7880
  454MOL0     C61176  -0.028  -0.449   5.648 -0.5771 -0.7928  0.0197
  454MOL0     C61177  -0.177  -0.451   5.633 -0.1614 -0.9078 -0.1313
  454MOL0     C61178  -0.243  -0.342   5.537 -0.2660  0.2763  0.3744
  454MOL0     O61179  -0.275  -0.214   5.600  0.2407 -0.3405 -0.0971
  454MOL0     C61180  -0.402  -0.170   5.579 -0.2173  0.4964 -0.3742
  454MOL0     C61181  -0.474  -0.189   5.465  0.0060 -0.3868  1.0166
  454MOL0     C61182  -0.605  -0.132   5.452 -0.0766  1.1722  0.0808
  454MOL0     C61183  -0.657  -0.050   5.553  0.6906  0.4690 -0.5610
  454MOL0     C61184  -0.791   0.006   5.531 -0.2441 -0.4705  0.0904
  454MOL0     O61185  -0.869  -0.047   5.441  0.5693 -0.2407  0.4542
  454MOL0     C61186  -0.987   0.005   5.406  0.4033 -0.4351 -0.4407
  454MOL0     C61187  -1.015   0.140   5.396 -1.1680  0.4674  0.0847
  454MOL0     C61188  -1.137   0.191   5.349  0.5632 -0.4567  0.3257
  454MOL0     C61189  -1.242   0.106   5.310  0.6944  0.2489 -0.8429
  454MOL0     O61190  -1.376   0.143   5.270  0.0235  0.2178  0.1697
  454MOL0     C61191  -1.407   0.281   5.282  0.5805 -1.1933 -0.1717
  454MOL0     C61192  -1.364   0.362   5.155 -0.4803  0.0374 -0.2168
  454MOL0     C61193  -1.464   0.336   5.043  1.4466  0.0584 -0.3875
  454MOL0     C61194  -1.576   0.446   5.048 -0.5935  0.3214  0.2149
  454MOL0     C61195  -1.667   0.444   4.923 -0.7221 -0.0050  0.9642
  454MOL0     C61196  -1.613   0.516   4.795 -0.0540 -0.4258 -0.5585
  454MOL0     C61197  -1.716   0.512   4.684  0.1834  1.0520  0.3071
  454MOL0     C61198  -1.682   0.408   4.577  0.3045 -0.6598 -0.0706
  454MOL0    Cl61199  -1.529   0.443   4.487  0.3431 -0.4300 -0.3232
  454MOL0     C61200  -1.207  -0.030   5.305 -0.2882  0.2680 -0.5278
  454MOL0     C61201  -1.082  -0.078   5.352 -0.1903  0.5467 -0.2542
  454MOL0     O61202  -0.821   0.097   5.606  0.0139  0.5221  1.0377
  454MOL0     C61203  -0.576  -0.025   5.662  1.0023  0.1499  0.1828
  454MOL0     C61204  -0.462  -0.091   5.679 -0.7476  0.0211 -0.4451
  454MOL0     N61205   0.261  -0.340   5.818 -0.1712  1.3335  0.9735
  454MOL0     N61206   0.373  -0.314   5.761 -0.2652 -0.2056 -0.1038
  454MOL0     C61207   0.417   0.000   4.821  0.5794  0.6475  0.3414
  454MOL0     C61208   0.347  -0.000   4.700  0.6572  0.5326  0.1104
  454MOL0     C61209   0.225   0.075   4.281  0.5336 -0.3608  0.7345
  454MOL0     C61210   0.283   0.102   4.152  0.4150  0.3138  0.2171
  454MOL0     C61211   0.207   0.123   4.040  0.0565  0.6589  0.1596
  454MOL0     C61212   0.070   0.116   4.038 -0.7708 -0.9005 -0.2235
  454MOL0     O61213   0.004   0.133   3.919 -0.2514 -0.0932  0.2047
  454MOL0     C61214  -0.092   0.029   3.879 -1.1453 -0.4531 -0.0800
  454MOL0     C61215  -0.028  -0.109   3.844  0.8343 -0.0743 -0.6235
  454MOL0     C61216  -0.141  -0.209   3.859  0.6801  0.3613  0.0442
  454MOL0     C61217  -0.270  -0.180   3.779 -0.2521  0.4830 -0.2822
  454MOL0     C61218  -0.391  -0.268   3.780 -0.5371 -0.0694 -0.5618
  454MOL0     C61219  -0.490  -0.344   3.764  0.0481 -0.0767  0.3125
  454MOL0     C61220   0.003   0.091   4.158  0.7717 -0.5184  0.9544
  454MOL0     C61221   0.082   0.079   4.277  0.1943 -0.3657 -0.9366
  454MOL0     C61222   0.003   0.074   4.407 -0.7166 -0.1461 -0.0651
  454MOL0     H61223   0.368   0.338   4.637 -0.1836  0.4370  1.8570
  454MOL0     H61224   0.529   0.325   4.814 -0.9701  1.2362 -0.7682
  454MOL0     H61225   0.734   0.163   4.874  1.5469 -0.3249  1.0380
  454MOL0     H61226   0.691   0.282   4.990  2.1092 -0.5496 -0.6319
  454MOL0     H61227   0.863   0.112   5.076  0.1759 -2.5151  1.9130
  454MOL0     H61228   0.735  -0.010   5.069 -1.0344 -0.0840  0.5367
  454MOL0     H61229   0.603   0.153   5.220  0.4970 -0.7600 -4.1728
  454MOL0     H61230   0.759   0.248   5.214 -1.5718  1.1297 -3.6285
  454MOL0     H61231   0.804  -0.039   5.304  2.9042  0.5831 -2.3298
  454MOL0     H61232   0.842   0.106   5.388  1.0343 -0.0854 -1.7183
  454MOL0     H61233   0.629   0.126   5.492  1.2702  0.1736  0.4304
  454MOL0     H61234   0.543   0.019   5.383 -0.1672  0.5249  0.3086
  454MOL0     H61235   0.693  -0.182   5.468  1.4930  0.3137  0.3978
  454MOL0     H61236   0.757  -0.055   5.584 -1.1138  1.0766  2.2473
  454MOL0     H61237   0.533  -0.024   5.667  2.2721  2.3011 -3.9504
  454MOL0     H61238   0.602  -0.181   5.707  0.5358  0.2316  0.0142
  454MOL0     H61239   0.415  -0.137   5.465  0.7792  0.8819 -0.7342
  454MOL0     H61240   0.490  -0.290   5.502 -1.0086 -1.0089  0.5569
  454MOL0     H61241   0.167  -0.206   5.535 -0.3867 -0.6955  0.5519
  454MOL0     H61242  -0.027  -0.329   5.837 -0.4268 -1.5886 -1.1045
  454MOL0     H61243  -0.031  -0.238   5.688  0.2149 -1.4918 -2.1230
  454MOL0     H61244   0.016  -0.452   5.547  1.4616 -4.7384  0.8203
  454MOL0     H61245   0.013  -0.540   5.693  2.9049  0.0540 -1.1370
  454MOL0     H61246  -0.206  -0.445   5.738 -1.9556 -0.2379 -0.6257
  454MOL0     H61247  -0.209  -0.547   5.593  0.0602 -0.6131 -1.0465
  454MOL0     H61248  -0.337  -0.385   5.500 -0.5588 -0.2464  1.6661
  454MOL0     H61249  -0.179  -0.313   5.453  0.3543  0.2610  0.8338
  454MOL0     H61250  -0.434  -0.240   5.378 -0.9554 -0.4091  0.5728
  454MOL0     H61251  -0.647  -0.159   5.356  1.1405 -0.5617 -0.0218
  454MOL0     H61252  -0.962   0.218   5.450  2.6660 -1.2415 -0.9273
  454MOL0     H61253  -1.157   0.296   5.363  2.7883  0.2170 -0.9093
  454MOL0     H61254  -1.516   0.290   5.279  0.7743  1.9533 -0.1997
  454MOL0     H61255  -1.369   0.326   5.374  1.5745 -1.6713 -0.3344
  454MOL0     H61256  -1.363   0.469   5.174  2.0228 -0.2692  1.9879
  454MOL0     H61257  -1.266   0.324   5.126 -1.1244 -3.0992  1.2526
  454MOL0     H61258  -1.418   0.340   4.944  1.8881  2.1271 -0.1493
  454MOL0     H61259  -1.507   0.236   5.051 -0.8914  1.0113 -0.3834
  454MOL0     H61260  -1.538   0.548   5.050 -0.4012  0.2585  2.1188
  454MOL0     H61261  -1.625   0.428   5.144 -0.4556 -0.7522  0.0995
  454MOL0     H61262  -1.752   0.506   4.951 -0.3009  1.4316 -0.8064
  454MOL0     H61263  -1.695   0.347   4.879  0.7477  0.1207 -0.3050
  454MOL0     H61264  -1.572   0.613   4.825 -0.3447 -0.4508 -0.0563
  454MOL0     H61265  -1.527   0.462   4.754 -0.0519  1.8388 -3.8425
  454MOL0     H61266  -1.714   0.611   4.639 -0.1254  1.0515  0.2934
  454MOL0     H61267  -1.818   0.500   4.723  0.6315 -4.1433  0.6736
  454MOL0     H61268  -1.668   0.306   4.615  0.9496 -0.6807 -0.3342
  454MOL0     H61269  -1.769   0.404   4.511 -0.8677  0.9416  1.3076
  454MOL0     H61270  -1.278  -0.095   5.255 -1.9502 -1.7097  3.9579
  454MOL0     H61271  -1.043  -0.178   5.337  1.8585  1.1630  0.6390
  454MOL0     H61272  -0.604   0.038   5.746  0.8689 -1.7233  1.6139
  454MOL0     H61273  -0.404  -0.065   5.767  4.2308 -0.7009 -3.1287
  454MOL0     H61274   0.415  -0.092   4.879  0.6485  1.3899  1.5570
  454MOL0     H61275   0.305  -0.091   4.656  0.7988  1.0791 -1.1988
  454MOL0     H61276   0.389   0.123   4.141  0.3943  0.5359  0.4290
  454MOL0     H61277   0.254   0.153   3.947 -1.9833  3.0635 -0.1841
  454MOL0     H61278  -0.142   0.069   3.791 -2.7610  0.6357  1.2860
  454MOL0     H61279  -0.161   0.014   3.963 -0.3996  1.0693  0.8483
  454MOL0     H61280   0.064  -0.129   3.901  0.7355 -0.1868 -0.5045
  454MOL0     H61281   0.001  -0.104   3.739 -0.8239  1.2371 -1.0638
  454MOL0     H61282  -0.171  -0.217   3.964 -0.7870 -3.3891 -0.5302
  454MOL0     H61283  -0.109  -0.311   3.841  0.2185  0.0600  0.8438
  454MOL0     H61284  -0.301  -0.086   3.825 -1.7722 -0.5879  0.9759
  454MOL0     H61285  -0.246  -0.163   3.674 -0.4981  0.5581 -0.3252
  454MOL0     H61286  -0.571  -0.413   3.763 -0.9621  1.0575  0.8111
  454MOL0     H61287  -0.105   0.084   4.150  0.9534 -1.2192 -2.5793
  454MOL0     H61288   0.057   0.017   4.484  0.3949 -0.2191 -0.8802
  454MOL0     H61289  -0.004   0.178   4.438 -2.1403 -0.5566  1.1126
  454MOL0     H61290  -0.093   0.026   4.387 -0.0181 -1.7718  0.3334
  455MOL0     O61291   3.440   7.498   3.148  1.1279 -0.1820  0.3287
  455MOL0     C61292   3.403   7.379   3.148 -0.2903 -0.3585 -0.1478
  455MOL0     O61293   3.480   7.265   3.186  0.1904  0.0328 -0.2052
  455MOL0     C61294   3.617   7.278   3.207  0.2052 -0.2204 -0.1100
  455MOL0     C61295   3.714   7.211   3.133 -0.6542  0.0955  0.3380
  455MOL0     C61296   3.849   7.214   3.167 -0.0089  0.0682  1.0666
  455MOL0     C61297   3.896   7.293   3.266  0.3620 -0.1576  0.3259
  455MOL0     O61298   4.017   7.294   3.314  0.1839  0.2899 -1.3014
  455MOL0     C61299   4.133   7.267   3.235 -0.1171  0.7117  0.3913
  455MOL0     C61300   4.186   7.125   3.254  0.3843 -0.4052  0.4646
  455MOL0     C61301   4.325   7.118   3.182  0.0684 -0.3484 -0.2944
  455MOL0     C61302   4.441   7.199   3.263  0.0440 -1.0864  0.0399
  455MOL0     C61303   4.578   7.168   3.210  0.2873 -0.0239 -0.2278
  455MOL0     C61304   4.689   7.214   3.302 -0.6599 -0.1655  0.7873
  455MOL0     C61305   4.826   7.203   3.230  0.0213 -0.4219  0.1368
  455MOL0     C61306   4.944   7.280   3.296 -0.8480 -0.2909 -0.7374
  455MOL0     N61307   5.042   7.190   3.369 -0.5749  0.4456  0.2337
  455MOL0     C61308   5.092   7.073   3.312 -0.1633 -0.1026 -0.4768
  455MOL0     C61309   5.136   6.994   3.409  1.3669  0.1494 -0.8519
  455MOL0     C61310   5.203   6.856   3.391  0.2939 -0.3036 -0.0444
  455MOL0     C61311   5.355   6.874   3.420  0.5595 -0.1089  0.0662
  455MOL0     C61312   5.390   6.853   3.570  0.0255  0.5715  1.0783
  455MOL0     C61313   5.529   6.918   3.599 -0.2822 -0.3351  0.5794
  455MOL0     O61314   5.634   6.837   3.542 -0.5022 -0.1430  0.2669
  455MOL0     C61315   5.764   6.876   3.556  0.6057 -0.4977 -0.1621
  455MOL0     C61316   5.860   6.799   3.500  0.6211 -0.3594  0.1901
  455MOL0     C61317   5.993   6.823   3.522  0.0743 -0.4037 -0.2428
  455MOL0     C61318   6.035   6.935   3.595 -0.5187 -0.7069 -0.7605
  455MOL0     C61319   6.178   6.955   3.621 -1.4256 -0.7232 -0.5879
  455MOL0     O61320   6.267   6.878   3.549  0.3963 -0.3771  0.5474
  455MOL0     C61321   6.397   6.896   3.575 -0.0874  0.7331  0.6072
  455MOL0     C61322   6.472   6.777   3.574  0.0722  0.2178  0.2724
  455MOL0     C61323   6.613   6.792   3.579  0.9156  0.4910  0.5857
  455MOL0     C61324   6.675   6.912   3.578  0.4022 -0.4792  0.6320
  455MOL0     O61325   6.816   6.908   3.554  0.1209  0.1726  1.3361
  455MOL0     C61326   6.898   7.017   3.592 -0.4711  0.2914  0.2102
  455MOL0     C61327   7.020   7.022   3.505  0.6807 -0.4016 -0.1836
  455MOL0     C61328   7.065   7.163   3.472  0.3352 -0.3313 -0.3381
  455MOL0     C61329   7.132   7.234   3.595  0.1503  0.3670 -0.8228
  455MOL0     C61330   7.234   7.334   3.552 -0.1763  0.6048  0.6841
  455MOL0     C61331   7.369   7.276   3.494 -0.5439 -0.0754 -0.5212
  455MOL0     C61332   7.473   7.380   3.446 -0.5418  0.1798 -0.4293
  455MOL0     C61333   7.537   7.440   3.572  0.5204 -1.0568 -0.0301
  455MOL0    Cl61334   7.691   7.536   3.535 -0.1006  0.2633  0.2187
  455MOL0     C61335   6.595   7.025   3.600 -0.4344 -0.1001  0.2381
  455MOL0     C61336   6.457   7.014   3.600 -0.8033  0.6342  0.4715
  455MOL0     O61337   6.203   7.027   3.719  0.4255  0.4964  0.6076
  455MOL0     C61338   5.941   7.025   3.634  0.6100  0.4031 -0.1203
  455MOL0     C61339   5.802   6.989   3.627 -0.1258 -0.3065 -0.2922
  455MOL0     N61340   5.102   7.051   3.529 -0.7365  0.0525 -0.2450
  455MOL0     N61341   5.044   7.172   3.508  0.4189  0.3265  0.2174
  455MOL0     C61342   3.800   7.370   3.342  0.0250  0.3751  0.6623
  455MOL0     C61343   3.661   7.352   3.318  0.0366  0.4477  0.6984
  455MOL0     C61344   3.272   7.346   3.093 -0.1039 -0.2342 -0.1746
  455MOL0     C61345   3.150   7.378   3.158  0.0956  0.4001  0.2277
  455MOL0     C61346   3.023   7.344   3.107 -0.7667 -0.2568 -0.6066
  455MOL0     C61347   3.008   7.270   2.993 -0.6702  0.3009 -0.3052
  455MOL0     O61348   2.879   7.232   2.954  0.3340  0.4080  0.1459
  455MOL0     C61349   2.866   7.093   2.906  0.2348  0.2000 -0.7577
  455MOL0     C61350   2.736   7.025   2.958 -1.3224 -0.2398  0.4687
  455MOL0     C61351   2.695   7.039   3.104 -0.1215 -0.4013  0.9516
  455MOL0     C61352   2.799   6.986   3.214 -0.2469  0.5862  0.8078
  455MOL0     C61353   2.839   6.847   3.203 -0.3234 -0.2912 -0.3477
  455MOL0     C61354   2.858   6.732   3.196 -0.2990 -0.7665  0.0548
  455MOL0     C61355   3.127   7.234   2.928 -0.5181 -0.2438  0.1038
  455MOL0     C61356   3.252   7.270   2.981  0.2689 -0.8783  0.9804
  455MOL0     C61357   3.374   7.228   2.904  0.5755 -0.1122 -0.5434
  455MOL0     H61358   3.680   7.142   3.056  2.2980 -0.0494 -0.9656
  455MOL0     H61359   3.916   7.150   3.110  1.8850  3.6146 -1.0413
  455MOL0     H61360   4.107   7.281   3.129  3.3622 -0.9017 -0.8317
  455MOL0     H61361   4.219   7.329   3.263  1.6887 -1.8834  0.8812
  455MOL0     H61362   4.119   7.050   3.211 -1.9939  0.7171  2.0372
  455MOL0     H61363   4.202   7.117   3.362  3.5739  1.0114  0.2060
  455MOL0     H61364   4.320   7.145   3.076  0.8159 -0.2674 -0.3118
  455MOL0     H61365   4.360   7.015   3.173  1.3338  0.0397  0.0295
  455MOL0     H61366   4.434   7.308   3.252  3.0010 -0.9470 -1.2422
  455MOL0     H61367   4.438   7.167   3.367  4.0868 -0.4229  0.5007
  455MOL0     H61368   4.588   7.060   3.210 -1.1070 -0.1940  1.3550
  455MOL0     H61369   4.585   7.192   3.103  1.4961  0.8639  0.0147
  455MOL0     H61370   4.672   7.319   3.327 -1.0998 -0.3911  1.4852
  455MOL0     H61371   4.704   7.143   3.385  0.6521 -2.7708 -1.5268
  455MOL0     H61372   4.809   7.256   3.136 -0.2302 -0.8229 -0.0429
  455MOL0     H61373   4.848   7.096   3.222  0.7850 -0.7567  4.2034
  455MOL0     H61374   4.997   7.334   3.217 -0.6556 -1.2176 -1.2561
  455MOL0     H61375   4.901   7.358   3.360 -0.0617 -0.8669  0.5096
  455MOL0     H61376   5.092   7.061   3.204  1.8057  1.2119 -0.6722
  455MOL0     H61377   5.163   6.790   3.469 -0.1458  1.3525  1.1905
  455MOL0     H61378   5.177   6.822   3.291  0.5272 -1.6646  0.3310
  455MOL0     H61379   5.420   6.808   3.363  1.7460  2.8801 -2.3617
  455MOL0     H61380   5.386   6.972   3.382 -0.7367 -0.9318 -3.4800
  455MOL0     H61381   5.401   6.747   3.594  0.0777  0.8653  2.4638
  455MOL0     H61382   5.308   6.894   3.630 -0.0448  3.5121 -0.8582
  455MOL0     H61383   5.529   6.928   3.708 -3.0644  1.0556  0.5576
  455MOL0     H61384   5.531   7.021   3.562  0.2477  0.0924  1.7670
  455MOL0     H61385   5.843   6.707   3.444  0.8576 -0.2798 -0.0135
  455MOL0     H61386   6.059   6.752   3.472  0.4828  0.0699 -0.3906
  455MOL0     H61387   6.423   6.685   3.546 -0.9527  0.9859 -0.5510
  455MOL0     H61388   6.671   6.704   3.553  1.0314  0.0744  2.1545
  455MOL0     H61389   6.834   7.105   3.577 -1.4207  0.0691  2.5668
  455MOL0     H61390   6.931   7.027   3.696 -1.1635  0.8270  0.3844
  455MOL0     H61391   7.105   6.972   3.553  1.3121  2.9091  2.5545
  455MOL0     H61392   6.994   6.976   3.409  1.5348 -1.0501 -0.1190
  455MOL0     H61393   7.139   7.152   3.392 -0.4521  0.5875 -1.2347
  455MOL0     H61394   6.988   7.232   3.434  2.4716  0.1366 -4.4331
  455MOL0     H61395   7.181   7.148   3.641 -5.4090 -3.1760 -0.6127
  455MOL0     H61396   7.063   7.283   3.664  0.0609  1.4738 -1.6619
  455MOL0     H61397   7.255   7.410   3.628 -3.1185  5.0331 -2.3964
  455MOL0     H61398   7.183   7.397   3.478  0.4887  1.8238  1.2200
  455MOL0     H61399   7.411   7.209   3.570 -0.9930  0.4241  0.1710
  455MOL0     H61400   7.357   7.216   3.403  1.0737 -1.0196 -0.1596
  455MOL0     H61401   7.430   7.450   3.374 -1.9918  0.9712  1.1301
  455MOL0     H61402   7.551   7.326   3.392  0.9626 -0.1983  1.9824
  455MOL0     H61403   7.458   7.506   3.610 -0.6585 -1.0009 -2.4173
  455MOL0     H61404   7.564   7.362   3.644 -0.8670 -0.9845  0.6109
  455MOL0     H61405   6.630   7.128   3.596  0.6309 -0.4607 -0.1329
  455MOL0     H61406   6.395   7.103   3.603 -4.5546 -1.6575 -0.5732
  455MOL0     H61407   5.960   7.117   3.689 -2.9975 -0.0103  2.1471
  455MOL0     H61408   5.724   7.055   3.664 -2.0860 -1.7299 -1.6604
  455MOL0     H61409   3.839   7.443   3.413 -0.5173  1.3633 -0.0257
  455MOL0     H61410   3.590   7.413   3.373 -3.3931  0.4215 -3.2108
  455MOL0     H61411   3.154   7.432   3.252  0.8208 -1.3665  1.2745
  455MOL0     H61412   2.930   7.384   3.146 -0.3733 -0.7429  0.9285
  455MOL0     H61413   2.952   7.042   2.950 -1.3971 -2.0334  0.0126
  455MOL0     H61414   2.876   7.071   2.799 -0.1101  0.3796 -0.8329
  455MOL0     H61415   2.762   6.921   2.936  0.9814  0.4353 -0.3545
  455MOL0     H61416   2.652   7.063   2.899 -0.7956  0.8882  0.4211
  455MOL0     H61417   2.601   6.986   3.122  0.0199 -0.3370  1.9183
  455MOL0     H61418   2.683   7.146   3.121 -0.6913 -0.3520  0.2849
  455MOL0     H61419   2.893   7.041   3.206  0.3362 -0.5631 -0.5852
  455MOL0     H61420   2.753   7.005   3.312 -1.1898 -0.0026  0.4901
  455MOL0     H61421   2.871   6.626   3.192 -0.7874 -0.9027  1.3486
  455MOL0     H61422   3.112   7.181   2.834 -0.8271 -0.9910  0.5665
  455MOL0     H61423   3.404   7.124   2.917  0.4905 -0.1227 -0.4328
  455MOL0     H61424   3.354   7.230   2.797  0.6350  0.1476 -0.5520
  455MOL0     H61425   3.457   7.299   2.905  0.4165  0.1516 -2.3877
  456MOL0     O61426   3.304   5.468   4.585  0.2920  0.1897  0.4628
  456MOL0     C61427   3.325   5.577   4.533  0.0380 -0.4803 -0.4247
  456MOL0     O61428   3.441   5.653   4.563  0.3074 -0.2791  0.7373
  456MOL0     C61429   3.536   5.611   4.655  0.6771  2.0473 -0.5817
  456MOL0     C61430   3.506   5.636   4.786  0.9117  0.4727 -0.8710
  456MOL0     C61431   3.583   5.581   4.886 -0.2460  0.0672 -0.3747
  456MOL0     C61432   3.696   5.516   4.856 -0.7966 -0.3089 -0.3466
  456MOL0     O61433   3.779   5.464   4.951  0.4094  0.6527  0.1126
  456MOL0     C61434   3.791   5.547   5.070 -0.3549  0.1861  0.1413
  456MOL0     C61435   3.919   5.515   5.144 -0.2611 -0.4422  0.4619
  456MOL0     C61436   3.923   5.368   5.187  0.0295 -0.6624  0.0920
  456MOL0     C61437   4.064   5.322   5.231  0.1492  0.2207  0.4913
  456MOL0     C61438   4.069   5.197   5.320  0.0701  0.1516  0.1678
  456MOL0     C61439   4.193   5.122   5.317  0.4169  0.2368  0.0712
  456MOL0     C61440   4.311   5.200   5.385 -0.6742 -0.3618 -0.1400
  456MOL0     C61441   4.439   5.114   5.374 -0.1130 -0.2355 -0.8739
  456MOL0     N61442   4.555   5.173   5.447  0.0948 -0.0400  0.0747
  456MOL0     C61443   4.673   5.103   5.470  0.6500 -0.3463 -1.0806
  456MOL0     C61444   4.746   5.198   5.534 -0.3608  0.1126 -0.0951
  456MOL0     C61445   4.881   5.172   5.594 -0.1693  0.4036 -0.2303
  456MOL0     C61446   4.996   5.174   5.498 -0.1941  0.4614 -0.1267
  456MOL0     C61447   5.007   5.302   5.413 -1.0570 -0.1143  0.0447
  456MOL0     C61448   5.145   5.309   5.338  0.0437 -0.5220  0.4214
  456MOL0     O61449   5.246   5.337   5.433 -0.4540 -0.6364 -0.2534
  456MOL0     C61450   5.381   5.314   5.420  0.7089  0.4228  0.0086
  456MOL0     C61451   5.468   5.370   5.512  1.6998  0.2050  0.6362
  456MOL0     C61452   5.597   5.383   5.490 -0.9483  0.2792 -0.4207
  456MOL0     C61453   5.658   5.341   5.370  0.8025  0.5302  1.2650
  456MOL0     C61454   5.806   5.341   5.364  0.1333  0.1983  0.2778
  456MOL0     O61455   5.884   5.341   5.480  0.0633  0.1489 -0.2790
  456MOL0     C61456   6.025   5.343   5.488  0.1346  0.0528 -0.5510
  456MOL0     C61457   6.113   5.366   5.384 -0.1407 -0.0306  0.5891
  456MOL0     C61458   6.245   5.375   5.411  0.4167 -0.2705 -1.2367
  456MOL0     C61459   6.301   5.354   5.534 -0.4063  0.6448  0.8131
  456MOL0     O61460   6.436   5.378   5.536  0.4914 -0.2407 -0.2447
  456MOL0     C61461   6.499   5.403   5.665  0.5270  0.1442 -0.7865
  456MOL0     C61462   6.636   5.466   5.655 -1.0305 -0.1277 -0.2051
  456MOL0     C61463   6.728   5.364   5.597  0.2512  0.9988  0.1841
  456MOL0     C61464   6.874   5.397   5.629 -0.8661 -0.6253 -0.5221
  456MOL0     C61465   6.978   5.279   5.637  0.7449 -0.4716 -0.3354
  456MOL0     C61466   7.003   5.211   5.513  0.6166  0.2738 -0.0266
  456MOL0     C61467   7.084   5.088   5.546 -0.4107 -0.3701 -0.3969
  456MOL0     C61468   7.228   5.124   5.573  0.2075 -0.3984  1.0282
  456MOL0    Cl61469   7.315   4.972   5.624  0.1106  0.3348 -0.5486
  456MOL0     C61470   6.220   5.329   5.641  0.0634  0.3060  0.7647
  456MOL0     C61471   6.083   5.331   5.615  0.0926 -0.9793 -0.8888
  456MOL0     O61472   5.849   5.333   5.252 -0.4819 -0.4510  0.1760
  456MOL0     C61473   5.574   5.294   5.260  0.5851 -0.5191  0.4218
  456MOL0     C61474   5.433   5.272   5.292  0.2474  0.1175 -0.2904
  456MOL0     N61475   4.685   5.321   5.534  0.2089 -0.0559 -0.5499
  456MOL0     N61476   4.567   5.302   5.490  0.4053 -0.4528  0.0395
  456MOL0     C61477   3.741   5.511   4.723  0.7477  0.8216 -0.3980
  456MOL0     C61478   3.658   5.550   4.622  0.8116  0.3536  0.3203
  456MOL0     C61479   3.237   5.612   4.426  0.5535  0.1851 -0.9383
  456MOL0     C61480   3.294   5.665   4.306  0.4405 -0.2268 -0.1153
  456MOL0     C61481   3.215   5.699   4.192  0.5251  0.7008 -0.1091
  456MOL0     C61482   3.074   5.669   4.192 -0.8307  0.2596  0.7384
  456MOL0     O61483   3.005   5.704   4.075  0.0013 -0.5714 -0.7398
  456MOL0     C61484   2.879   5.648   4.057  0.5263  0.3672  0.2983
  456MOL0     C61485   2.835   5.678   3.915  0.1181 -1.3183  0.4977
  456MOL0     C61486   2.694   5.621   3.898 -0.0800  0.3765  0.6602
  456MOL0     C61487   2.639   5.624   3.755  0.4180 -0.2990  0.5662
  456MOL0     C61488   2.736   5.568   3.665 -0.4847 -0.5284  0.2703
  456MOL0     C61489   2.825   5.517   3.599  0.5627  0.6501 -0.3883
  456MOL0     C61490   3.009   5.602   4.299  0.1856 -0.8614  0.2042
  456MOL0     C61491   3.094   5.571   4.411  0.4851  0.1595 -0.7537
  456MOL0     C61492   3.030   5.461   4.506 -0.7081  0.0282  0.1188
  456MOL0     H61493   3.415   5.691   4.810  0.1146 -0.8149 -0.8531
  456MOL0     H61494   3.551   5.597   4.988 -0.5696  1.0164 -0.6193
  456MOL0     H61495   3.793   5.655   5.053  0.4048 -0.1874 -2.6684
  456MOL0     H61496   3.702   5.526   5.130 -1.2178 -0.0556 -1.2068
  456MOL0     H61497   3.930   5.582   5.230 -0.3501 -0.6207  0.6138
  456MOL0     H61498   4.001   5.538   5.077  0.2267  0.2686  1.2712
  456MOL0     H61499   3.881   5.294   5.119 -0.5999  0.1846 -0.4730
  456MOL0     H61500   3.864   5.368   5.280 -1.6108  0.8597 -0.8896
  456MOL0     H61501   4.121   5.296   5.142 -0.7678  2.3594 -0.7820
  456MOL0     H61502   4.111   5.400   5.292 -0.6447  0.9715  0.1558
  456MOL0     H61503   4.056   5.222   5.425  2.4714 -0.3183  0.6317
  456MOL0     H61504   3.988   5.132   5.284 -0.9183  0.9243  0.9447
  456MOL0     H61505   4.186   5.027   5.369  2.7380 -0.2425 -0.3866
  456MOL0     H61506   4.216   5.093   5.214  0.5183  1.0906 -0.1618
  456MOL0     H61507   4.272   5.210   5.487 -2.4149 -0.5543 -0.7448
  456MOL0     H61508   4.321   5.298   5.337  0.7691 -0.3415  0.1835
  456MOL0     H61509   4.419   5.016   5.417 -1.0988  0.2062 -0.2804
  456MOL0     H61510   4.454   5.112   5.266 -0.2280  1.9126 -0.9773
  456MOL0     H61511   4.703   4.998   5.468  1.0836 -0.4030  2.0412
  456MOL0     H61512   4.902   5.248   5.670 -0.4113 -1.1754  1.4728
  456MOL0     H61513   4.885   5.073   5.640  0.4519  0.4371 -0.2034
  456MOL0     H61514   5.091   5.155   5.549 -0.2823  0.7519  0.1463
  456MOL0     H61515   4.970   5.092   5.431 -1.5739  1.3816 -0.7765
  456MOL0     H61516   4.991   5.386   5.482  0.2784 -1.4888  2.1440
  456MOL0     H61517   4.918   5.298   5.349 -3.8692 -4.4336  3.5872
  456MOL0     H61518   5.140   5.383   5.257 -2.0861 -0.8548  0.1916
  456MOL0     H61519   5.157   5.214   5.285 -1.4640 -1.5913  1.8936
  456MOL0     H61520   5.435   5.407   5.608  0.0299 -2.6566  1.2936
  456MOL0     H61521   5.665   5.414   5.569 -3.0640  3.8306  0.2355
  456MOL0     H61522   6.092   5.380   5.279  1.0476 -2.5064 -0.0500
  456MOL0     H61523   6.304   5.400   5.324  0.8125 -0.7464 -1.1174
  456MOL0     H61524   6.436   5.471   5.722  1.0480  1.1428 -1.3691
  456MOL0     H61525   6.502   5.318   5.735 -2.2068  0.1706 -0.5214
  456MOL0     H61526   6.626   5.563   5.606  1.4279  1.4898  2.1878
  456MOL0     H61527   6.673   5.484   5.756  0.9051 -2.9634 -0.2881
  456MOL0     H61528   6.693   5.263   5.622  1.7036 -0.2964 -2.5530
  456MOL0     H61529   6.713   5.372   5.489 -0.0082  2.2676  0.2977
  456MOL0     H61530   6.879   5.443   5.728 -0.7152 -3.4586  0.8732
  456MOL0     H61531   6.907   5.472   5.556 -0.5149 -0.8162 -0.5593
  456MOL0     H61532   6.942   5.204   5.706 -0.1278  0.9226  0.7753
  456MOL0     H61533   7.075   5.320   5.667  1.6107 -2.1442 -0.7385
  456MOL0     H61534   6.903   5.187   5.476  0.6803  2.2909 -1.6629
  456MOL0     H61535   7.048   5.285   5.447 -0.7719  0.7156 -0.5123
  456MOL0     H61536   7.076   5.038   5.449  2.4114  1.1957 -1.5769
  456MOL0     H61537   7.034   5.030   5.623 -0.8197 -1.0886 -1.1828
  456MOL0     H61538   7.278   5.165   5.485 -0.7416 -0.4800  0.4263
  456MOL0     H61539   7.246   5.201   5.647  2.1020  1.5523 -1.2837
  456MOL0     H61540   6.267   5.313   5.738 -0.6724 -2.2286  0.7941
  456MOL0     H61541   6.016   5.303   5.695  0.4573  0.3880 -0.0623
  456MOL0     H61542   5.612   5.268   5.162  0.0261  0.7567 -0.1476
  456MOL0     H61543   5.370   5.233   5.213 -0.1837 -2.1354  1.0751
  456MOL0     H61544   3.835   5.466   4.691 -0.5469 -3.6925  1.2501
  456MOL0     H61545   3.700   5.526   4.525  2.8816 -0.5915  1.3977
  456MOL0     H61546   3.401   5.679   4.290  0.5080 -2.6002 -2.3546
  456MOL0     H61547   3.266   5.764   4.121  5.1751 -0.4606  1.8052
  456MOL0     H61548   2.804   5.688   4.126  0.5794  0.2080  0.4492
  456MOL0     H61549   2.893   5.540   4.062  2.3891  0.5053 -0.8690
  456MOL0     H61550   2.913   5.648   3.845  1.0893 -1.3341  1.5577
  456MOL0     H61551   2.828   5.786   3.897  2.6832 -0.7563  2.3591
  456MOL0     H61552   2.622   5.675   3.960  0.7236  3.1716 -0.6491
  456MOL0     H61553   2.694   5.515   3.925  1.6321  0.2630  0.3198
  456MOL0     H61554   2.548   5.563   3.755  0.9155 -1.5604 -4.7482
  456MOL0     H61555   2.611   5.725   3.725  1.4965 -0.2588 -0.3980
  456MOL0     H61556   2.896   5.449   3.554  0.7305  0.8808 -0.4756
  456MOL0     H61557   2.902   5.583   4.304 -0.8003  3.2974 -0.8784
  456MOL0     H61558   2.928   5.495   4.529 -0.4500 -0.1896  1.7385
  456MOL0     H61559   3.023   5.366   4.453 -1.4383 -0.1654  0.5546
  456MOL0     H61560   3.077   5.439   4.602 -0.4860 -0.7483 -0.1672
  457MOL0     O61561   6.748   4.723   1.356  0.1076  0.2886 -0.7029
  457MOL0     C61562   6.671   4.706   1.258 -0.1020 -0.2679 -0.4277
  457MOL0     O61563   6.686   4.624   1.157  0.0977 -0.4463 -0.4879
  457MOL0     C61564   6.750   4.509   1.162  0.0394 -0.0330  0.0798
  457MOL0     C61565   6.770   4.426   1.278  0.1704 -0.7504  0.7970
  457MOL0     C61566   6.838   4.300   1.271 -0.3786  1.2600  0.2253
  457MOL0     C61567   6.903   4.260   1.150  0.1222 -0.1280  0.2322
  457MOL0     O61568   6.969   4.147   1.131 -1.1628  0.4024 -0.0488
  457MOL0     C61569   6.996   4.064   1.247 -0.0068  0.0906 -0.0363
  457MOL0     C61570   7.094   3.944   1.195  0.1331 -0.0871  0.3549
  457MOL0     C61571   7.138   3.841   1.307  0.8754  0.5636 -1.0477
  457MOL0     C61572   7.244   3.742   1.260  0.6542  0.3508 -0.6255
  457MOL0     C61573   7.305   3.667   1.376 -0.3745  0.6320 -0.6054
  457MOL0     C61574   7.387   3.760   1.472  0.3455 -0.3053  1.2368
  457MOL0     C61575   7.476   3.689   1.561  0.7356  0.2987 -0.2947
  457MOL0     C61576   7.553   3.772   1.652  0.1912 -0.0939  0.3314
  457MOL0     N61577   7.652   3.868   1.592  0.5318 -0.1271  0.6975
  457MOL0     C61578   7.752   3.832   1.504  0.8253 -0.2763  0.2892
  457MOL0     C61579   7.816   3.945   1.470  0.9175 -0.4966 -0.6743
  457MOL0     C61580   7.943   3.952   1.382 -0.5572 -0.3723 -1.0342
  457MOL0     C61581   7.965   4.090   1.334 -0.1243 -0.2559  0.4791
  457MOL0     C61582   8.085   4.111   1.246 -0.7008 -0.2730  0.0009
  457MOL0     C61583   8.221   4.086   1.310 -0.1983  0.0650  0.4841
  457MOL0     O61584   8.318   4.108   1.217  0.4291  0.3715  0.1123
  457MOL0     C61585   8.447   4.064   1.245  1.1766  0.0120 -0.0805
  457MOL0     C61586   8.494   4.033   1.373  0.3967  0.5366  0.8861
  457MOL0     C61587   8.626   4.002   1.388 -0.3029  0.3103  0.0034
  457MOL0     C61588   8.718   4.016   1.280 -0.1614 -0.2114 -0.6779
  457MOL0     C61589   8.864   3.979   1.290  1.0311  0.0814 -0.5223
  457MOL0     O61590   8.895   3.861   1.345  0.2814  0.4579  1.0606
  457MOL0     C61591   9.023   3.816   1.369 -0.5855 -0.2837 -0.6381
  457MOL0     C61592   9.150   3.883   1.353 -0.1782 -0.8825 -0.7913
  457MOL0     C61593   9.271   3.823   1.401 -0.4489 -0.0012 -0.0393
  457MOL0     C61594   9.264   3.696   1.465 -0.4193 -0.6652 -0.1734
  457MOL0     O61595   9.383   3.645   1.507 -0.9233 -0.6391 -0.1881
  457MOL0     C61596   9.393   3.538   1.605 -0.1451  0.2944 -1.1649
  457MOL0     C61597   9.541   3.506   1.625 -0.8844  0.2517  0.4899
  457MOL0     C61598   9.629   3.626   1.661  0.1504  0.7210 -0.6284
  457MOL0     C61599   9.771   3.602   1.614  0.0090  0.2188 -0.1420
  457MOL0     C61600   9.851   3.728   1.635  0.0297 -1.0837 -0.2710
  457MOL0     C61601   9.979   3.748   1.554  0.1740  0.8587 -0.6373
  457MOL0     C61602  10.046   3.887   1.581  0.4129  0.3391 -0.3057
  457MOL0     C61603  10.196   3.899   1.545 -0.1285  0.1678  0.2364
  457MOL0    Cl61604  10.306   3.787   1.651  0.2592  0.0830  0.4300
  457MOL0     C61605   9.140   3.637   1.488  0.2029  0.1640  0.7729
  457MOL0     C61606   9.030   3.692   1.434  0.2118  1.0934 -0.1582
  457MOL0     O61607   8.940   4.066   1.255 -0.2202 -0.3697 -0.6163
  457MOL0     C61608   8.669   4.056   1.156 -0.1923  1.2745  0.4537
  457MOL0     C61609   8.536   4.071   1.142 -0.2445  0.3660 -0.3029
  457MOL0     N61610   7.761   4.048   1.541  0.5253  0.0675  0.4155
  457MOL0     N61611   7.658   4.002   1.613  0.3772 -0.9202  0.0910
  457MOL0     C61612   6.869   4.335   1.031 -0.7020 -0.0312 -0.2926
  457MOL0     C61613   6.808   4.462   1.043 -0.4534 -0.0810  0.3670
  457MOL0     C61614   6.587   4.819   1.226  0.4938  0.0609  0.3333
  457MOL0     C61615   6.550   4.838   1.088 -0.3117  0.5045 -0.0113
  457MOL0     C61616   6.471   4.945   1.043 -0.7893 -0.6691 -0.2937
  457MOL0     C61617   6.426   5.042   1.134  0.0499  0.4613  0.5306
  457MOL0     O61618   6.344   5.140   1.084 -0.1524  0.0917 -0.2440
  457MOL0     C61619   6.303   5.248   1.161  0.1194  0.5665 -0.3954
  457MOL0     C61620   6.265   5.368   1.075 -0.3823  0.2758 -1.1646
  457MOL0     C61621   6.161   5.471   1.147  0.2121  0.3774  0.3933
  457MOL0     C61622   6.098   5.570   1.053 -0.3579  0.2186 -0.4558
  457MOL0     C61623   6.200   5.636   0.967 -0.9167 -0.6099  0.8781
  457MOL0     C61624   6.288   5.689   0.902  1.0561 -0.2427 -0.8992
  457MOL0     C61625   6.447   5.012   1.269 -0.7714  0.0663 -0.6763
  457MOL0     C61626   6.539   4.913   1.319  0.2699 -0.4845  0.5512
  457MOL0     C61627   6.555   4.920   1.468 -0.7059  1.0380  0.5744
  457MOL0     H61628   6.718   4.468   1.364 -1.0720 -1.2143  0.2852
  457MOL0     H61629   6.847   4.238   1.360  1.6858  1.0160 -0.1064
  457MOL0     H61630   7.034   4.122   1.332 -0.0287 -1.9423  1.4185
  457MOL0     H61631   6.906   4.014   1.284  0.7188  0.1327  1.8928
  457MOL0     H61632   7.184   3.995   1.157  0.6321  0.9685  2.7385
  457MOL0     H61633   7.056   3.880   1.115  2.4774 -0.3824 -0.6210
  457MOL0     H61634   7.051   3.798   1.356  3.2767 -0.7301  2.4801
  457MOL0     H61635   7.182   3.905   1.384  0.5196 -2.9530  2.4070
  457MOL0     H61636   7.204   3.674   1.184 -0.1674  2.1383 -1.8576
  457MOL0     H61637   7.326   3.791   1.207  0.0800 -1.0585 -2.9752
  457MOL0     H61638   7.228   3.611   1.431  1.6764 -2.0632 -0.2628
  457MOL0     H61639   7.367   3.590   1.329 -5.3777 -2.5535 -2.9117
  457MOL0     H61640   7.449   3.826   1.411  1.2343  0.0410  2.4688
  457MOL0     H61641   7.312   3.813   1.531  0.8766 -0.3787  1.9891
  457MOL0     H61642   7.537   3.615   1.508  3.7231  2.7636 -0.6121
  457MOL0     H61643   7.410   3.629   1.623 -0.7453 -0.1081 -2.1720
  457MOL0     H61644   7.496   3.828   1.727  1.6460  0.2124  1.2449
  457MOL0     H61645   7.614   3.703   1.710 -0.3512 -1.5152 -0.7505
  457MOL0     H61646   7.777   3.729   1.479 -0.9102 -0.7258  0.2579
  457MOL0     H61647   8.029   3.920   1.440 -0.6502 -1.5619 -1.5230
  457MOL0     H61648   7.933   3.886   1.295  0.7974 -0.1008 -1.4277
  457MOL0     H61649   7.877   4.122   1.278  0.1997 -0.1346  0.0372
  457MOL0     H61650   7.986   4.151   1.422  1.7800  1.1992 -0.9053
  457MOL0     H61651   8.086   4.216   1.217 -2.0365  0.2178  1.5644
  457MOL0     H61652   8.072   4.037   1.166  4.0835 -1.7755  0.2805
  457MOL0     H61653   8.210   3.980   1.337 -2.9891 -0.5115 -2.3904
  457MOL0     H61654   8.226   4.146   1.401 -1.3819 -2.1438  2.1162
  457MOL0     H61655   8.435   4.027   1.465  3.5917  0.8568  3.1132
  457MOL0     H61656   8.659   3.973   1.487  2.1091 -2.0351 -1.3554
  457MOL0     H61657   9.154   3.989   1.332  1.0826 -0.7554  0.0633
  457MOL0     H61658   9.368   3.872   1.405 -0.6393  0.4688 -1.0533
  457MOL0     H61659   9.341   3.555   1.700 -2.2025 -1.1628 -1.9535
  457MOL0     H61660   9.347   3.449   1.560 -1.0958 -0.4959  1.2419
  457MOL0     H61661   9.552   3.430   1.703 -0.6484 -3.2090 -2.6304
  457MOL0     H61662   9.575   3.456   1.534 -0.0382  1.8062 -0.0904
  457MOL0     H61663   9.591   3.717   1.614 -1.0064  0.0601 -1.0080
  457MOL0     H61664   9.625   3.657   1.766 -0.4265 -0.8939 -0.1403
  457MOL0     H61665   9.775   3.570   1.509 -1.4928 -0.3251 -0.0525
  457MOL0     H61666   9.826   3.524   1.667  0.2066 -0.1062 -0.8100
  457MOL0     H61667   9.886   3.730   1.739  2.1007 -1.0760 -0.9176
  457MOL0     H61668   9.793   3.816   1.605  3.1161  0.3389 -2.6985
  457MOL0     H61669  10.041   3.670   1.598 -1.8263 -0.3421  0.1668
  457MOL0     H61670   9.961   3.726   1.448  1.4258 -1.5905 -0.3970
  457MOL0     H61671  10.023   3.902   1.687 -1.1015  1.0156 -0.7119
  457MOL0     H61672   9.990   3.964   1.528  1.2613  1.0066 -0.2513
  457MOL0     H61673  10.215   3.889   1.438  4.2566 -4.4869  1.0381
  457MOL0     H61674  10.240   3.996   1.569  3.0433 -0.7786 -1.1759
  457MOL0     H61675   9.135   3.533   1.519  3.0033  0.3749  2.2786
  457MOL0     H61676   8.940   3.631   1.442 -0.0874  1.4001 -1.1074
  457MOL0     H61677   8.740   4.059   1.074  1.3443 -0.1191  1.6727
  457MOL0     H61678   8.503   4.089   1.040  2.7021 -0.9324 -1.5893
  457MOL0     H61679   6.911   4.306   0.935  0.3072 -0.5668  0.2882
  457MOL0     H61680   6.787   4.533   0.963 -1.5321  0.4673  1.1126
  457MOL0     H61681   6.586   4.768   1.013  2.2497  1.2322  0.4581
  457MOL0     H61682   6.466   4.958   0.935  1.2855  0.8611 -0.2922
  457MOL0     H61683   6.382   5.283   1.228  1.2541  0.9874 -1.9064
  457MOL0     H61684   6.223   5.206   1.224  0.4562  1.7097  0.8499
  457MOL0     H61685   6.213   5.325   0.988 -2.4039 -1.1895  0.6719
  457MOL0     H61686   6.350   5.429   1.043 -0.7805  1.2611 -0.3888
  457MOL0     H61687   6.219   5.527   1.221  0.0107 -0.0001  0.8425
  457MOL0     H61688   6.084   5.412   1.197 -0.3882 -1.2018 -2.2068
  457MOL0     H61689   6.033   5.512   0.987 -1.1377  1.7449 -1.0754
  457MOL0     H61690   6.040   5.644   1.110  0.0177  0.7256 -0.7276
  457MOL0     H61691   6.357   5.753   0.849  1.9500 -0.1262  0.3795
  457MOL0     H61692   6.403   5.080   1.341 -1.3167 -0.9673 -0.0137
  457MOL0     H61693   6.576   4.819   1.506  0.7184  0.0325 -2.5782
  457MOL0     H61694   6.633   4.987   1.503  3.0829 -2.2046 -0.9014
  457MOL0     H61695   6.455   4.948   1.503 -1.1788  0.3418 -0.1720
  458MOL0     O61696   7.605  10.429   9.603  0.0973 -0.3516 -0.2074
  458MOL0     C61697   7.585  10.497   9.700  0.8590  1.0378 -0.2021
  458MOL0     O61698   7.640  10.621   9.730 -0.2501 -0.4020  1.1699
  458MOL0     C61699   7.768  10.650   9.688 -0.1689 -0.0220 -0.0096
  458MOL0     C61700   7.883  10.560   9.698  1.2255  0.1441  0.6079
  458MOL0     C61701   8.007  10.597   9.646  0.4813 -1.0247 -0.0922
  458MOL0     C61702   8.033  10.723   9.586 -0.1763 -0.7827  0.2710
  458MOL0     O61703   8.160  10.746   9.542 -0.3395 -0.4011 -0.3821
  458MOL0     C61704   8.173  10.868   9.469 -0.9665  1.8566  0.0649
  458MOL0     C61705   8.312  10.882   9.424 -0.4242 -1.4428  0.0741
  458MOL0     C61706   8.410  10.956   9.518 -0.4797  0.2073 -0.0688
  458MOL0     C61707   8.549  10.999   9.458  0.0189 -0.5913  0.3868
  458MOL0     C61708   8.544  11.108   9.352 -0.4288  0.1664  0.3129
  458MOL0     C61709   8.667  11.095   9.251  0.3812 -0.7763 -0.2150
  458MOL0     C61710   8.801  11.104   9.331  0.2575 -0.3263 -0.0066
  458MOL0     C61711   8.932  11.110   9.261 -0.0926 -0.3728 -0.3837
  458MOL0     N61712   8.937  11.064   9.125 -0.5067 -0.2239  0.3440
  458MOL0     C61713   8.899  11.132   9.010 -0.4682 -0.3584 -0.3418
  458MOL0     C61714   8.959  11.057   8.915 -0.6765 -0.4187  0.0576
  458MOL0     C61715   8.950  11.084   8.769  0.1183 -0.1772 -0.1051
  458MOL0     C61716   9.086  11.095   8.695 -0.0757 -0.8422 -0.0160
  458MOL0     C61717   9.161  11.224   8.750 -0.3398  0.1859  0.7336
  458MOL0     C61718   9.271  11.255   8.647  0.9882  0.0933  0.3701
  458MOL0     O61719   9.347  11.138   8.630  0.3876 -0.0246  0.0503
  458MOL0     C61720   9.479  11.151   8.659 -0.4236 -0.9854 -0.7484
  458MOL0     C61721   9.565  11.266   8.656 -0.5710 -0.1717  1.0322
  458MOL0     C61722   9.700  11.253   8.689 -0.9061 -0.5672 -1.1920
  458MOL0     C61723   9.762  11.138   8.745 -0.9004  0.9434 -0.6423
  458MOL0     C61724   9.899  11.145   8.801  0.1163  0.0735 -0.7285
  458MOL0     O61725   9.972  11.259   8.775 -0.1031  0.7219 -0.3779
  458MOL0     C61726  10.095  11.285   8.811 -0.5186 -0.0740 -1.1076
  458MOL0     C61727  10.142  11.410   8.799 -0.0822 -0.3909 -0.4769
  458MOL0     C61728  10.274  11.445   8.841 -0.0867  0.0241  0.1575
  458MOL0     C61729  10.362  11.359   8.903 -0.3984  0.3049  0.2298
  458MOL0     O61730  10.488  11.397   8.932  0.1539 -0.1431  0.6424
  458MOL0     C61731  10.582  11.371   8.821 -0.1317 -0.1239  0.1721
  458MOL0     C61732  10.608  11.501   8.753  0.4039 -0.2707  0.7678
  458MOL0     C61733  10.759  11.504   8.708 -0.3178 -0.6085 -0.0942
  458MOL0     C61734  10.809  11.643   8.668  0.8271  0.5477 -0.5345
  458MOL0     C61735  10.955  11.642   8.662 -0.0838  0.1714  0.2242
  458MOL0     C61736  11.018  11.738   8.556  0.2182 -0.5417  0.2295
  458MOL0     C61737  11.170  11.736   8.550 -0.4658 -0.3333  0.1141
  458MOL0     C61738  11.234  11.828   8.441  0.2495 -0.1331 -0.3860
  458MOL0    Cl61739  11.157  11.793   8.282 -0.5222 -0.1474  0.4670
  458MOL0     C61740  10.317  11.226   8.919  0.3678 -0.5386 -0.6435
  458MOL0     C61741  10.187  11.191   8.874  0.7351 -0.2298  0.6243
  458MOL0     O61742   9.934  11.048   8.870  0.4046  0.1175  1.2070
  458MOL0     C61743   9.673  11.029   8.758  0.1197 -0.3369 -0.1023
  458MOL0     C61744   9.536  11.036   8.711 -0.3905 -0.0526  0.1557
  458MOL0     N61745   9.006  10.936   8.965  0.3760  0.6695 -0.1905
  458MOL0     N61746   8.989  10.946   9.087  0.1576 -0.1264 -0.4752
  458MOL0     C61747   7.921  10.819   9.583  0.5374  0.1738 -0.7506
  458MOL0     C61748   7.791  10.779   9.637 -0.1946 -0.7977  0.0906
  458MOL0     C61749   7.494  10.440   9.800  0.1632 -0.3224  0.4453
  458MOL0     C61750   7.398  10.528   9.845  0.9706 -0.6574  0.0237
  458MOL0     C61751   7.288  10.473   9.916 -0.1321  0.2245 -0.2521
  458MOL0     C61752   7.273  10.337   9.956  0.3770  0.3613 -0.2350
  458MOL0     O61753   7.148  10.300  10.016 -0.0914 -0.7080 -0.4131
  458MOL0     C61754   7.135  10.159  10.052 -0.2993 -0.3569 -0.6178
  458MOL0     C61755   6.987  10.127  10.056  0.6793 -1.0023  0.4586
  458MOL0     C61756   6.917  10.166  10.190 -0.0331 -0.2050 -1.1373
  458MOL0     C61757   6.808  10.064  10.223 -0.6233  0.0112 -0.6542
  458MOL0     C61758   6.695  10.077  10.133 -0.2280  0.0438 -0.5899
  458MOL0     C61759   6.598  10.061  10.057  0.2342  0.2812  0.2502
  458MOL0     C61760   7.374  10.261   9.916 -0.0043  0.1722 -0.5723
  458MOL0     C61761   7.486  10.309   9.845 -0.0545 -0.0772 -0.0415
  458MOL0     C61762   7.603  10.208   9.840  0.4350 -0.4090  0.1785
  458MOL0     H61763   7.864  10.459   9.734 -0.2603  0.3515  0.4645
  458MOL0     H61764   8.097  10.538   9.657  1.9372  0.7987 -1.5206
  458MOL0     H61765   8.104  10.883   9.385 -1.4226  0.0748  0.0808
  458MOL0     H61766   8.165  10.955   9.534  1.1263  0.8553  1.7536
  458MOL0     H61767   8.307  10.937   9.330 -0.6003 -0.5521  0.5929
  458MOL0     H61768   8.353  10.782   9.408  0.9563 -0.5012 -2.9502
  458MOL0     H61769   8.420  10.895   9.608 -2.2771 -2.3309 -1.4837
  458MOL0     H61770   8.367  11.050   9.555  3.9463  2.8136 -0.8290
  458MOL0     H61771   8.612  11.015   9.546 -0.7405 -0.5784  0.9391
  458MOL0     H61772   8.587  10.912   9.403  1.5422  0.6265 -0.5924
  458MOL0     H61773   8.452  11.093   9.294 -0.6787 -0.4619  0.8566
  458MOL0     H61774   8.546  11.203   9.407 -2.1070 -0.7211  2.0305
  458MOL0     H61775   8.654  11.005   9.190  1.6283  0.2206 -2.0544
  458MOL0     H61776   8.672  11.175   9.177 -1.0843 -0.5826 -0.1265
  458MOL0     H61777   8.797  11.021   9.403  0.8509 -2.0681 -1.9005
  458MOL0     H61778   8.802  11.199   9.386  1.8436 -1.2277  1.6150
  458MOL0     H61779   8.989  11.203   9.277  4.9221 -3.1733  0.0502
  458MOL0     H61780   8.999  11.039   9.311  0.2278 -1.2324 -1.9530
  458MOL0     H61781   8.851  11.229   9.001  3.0374  1.5487 -0.2038
  458MOL0     H61782   8.875  11.018   8.724 -1.6941  1.3018  0.5957
  458MOL0     H61783   8.902  11.181   8.755  1.3321  0.2633 -1.4101
  458MOL0     H61784   9.143  11.009   8.730  3.3809  0.8298 -1.1314
  458MOL0     H61785   9.076  11.083   8.587 -1.5937 -1.7091  0.1837
  458MOL0     H61786   9.204  11.199   8.847 -1.3603  2.2619  1.7780
  458MOL0     H61787   9.101  11.313   8.771 -0.4474  0.4951 -0.7608
  458MOL0     H61788   9.331  11.336   8.691  1.1405  1.2145 -1.7537
  458MOL0     H61789   9.238  11.304   8.555 -0.2097 -3.0412 -0.9778
  458MOL0     H61790   9.529  11.361   8.617  1.3709 -0.3692 -1.5277
  458MOL0     H61791   9.760  11.343   8.681 -0.0317 -1.1616 -1.5241
  458MOL0     H61792  10.077  11.486   8.756  0.9697  0.6715 -0.2485
  458MOL0     H61793  10.311  11.543   8.813 -0.4825  0.3438  0.7402
  458MOL0     H61794  10.675  11.344   8.870 -0.4095 -0.5815  0.4512
  458MOL0     H61795  10.545  11.294   8.753  1.5202  1.4744 -2.7468
  458MOL0     H61796  10.537  11.511   8.670  2.3274 -4.8684 -1.7963
  458MOL0     H61797  10.595  11.586   8.820  1.7634  3.1073 -2.8615
  458MOL0     H61798  10.825  11.477   8.791 -1.5980  2.9790  2.3131
  458MOL0     H61799  10.776  11.431   8.628  2.0882  1.0756 -1.2493
  458MOL0     H61800  10.782  11.721   8.740 -0.2064  1.4528 -1.8564
  458MOL0     H61801  10.760  11.659   8.571  3.7652 -0.5970 -2.3285
  458MOL0     H61802  10.985  11.541   8.631 -2.4920 -0.4393 -0.3098
  458MOL0     H61803  11.004  11.651   8.760 -1.1437 -0.6086  0.8534
  458MOL0     H61804  10.976  11.708   8.459  0.2755  0.9230 -0.2771
  458MOL0     H61805  10.980  11.839   8.576  0.1820 -0.4286 -0.3858
  458MOL0     H61806  11.204  11.633   8.536  2.0391  0.3754  0.5079
  458MOL0     H61807  11.210  11.769   8.646 -1.5250 -0.8422  0.7466
  458MOL0     H61808  11.220  11.935   8.456  0.7248 -0.1763  0.4607
  458MOL0     H61809  11.339  11.797   8.434  0.8948  1.9608 -0.7101
  458MOL0     H61810  10.376  11.146   8.964  0.1564  0.4691  1.5801
  458MOL0     H61811  10.161  11.087   8.891 -2.6523  0.7904  2.4315
  458MOL0     H61812   9.706  10.947   8.820 -1.1412  1.2991  2.9789
  458MOL0     H61813   9.468  10.955   8.732 -0.3759  0.0908  0.7802
  458MOL0     H61814   7.927  10.912   9.528 -0.1203  0.4182 -0.4205
  458MOL0     H61815   7.707  10.848   9.635  0.5153  0.0997  0.0670
  458MOL0     H61816   7.393  10.636   9.832  0.0081 -0.7963 -0.9456
  458MOL0     H61817   7.205  10.537   9.946  1.7672  2.8961 -0.3359
  458MOL0     H61818   7.176  10.144  10.152 -2.0786  0.1114  0.2348
  458MOL0     H61819   7.183  10.090   9.982  1.6353 -1.2746  1.4630
  458MOL0     H61820   6.974  10.022  10.030 -0.8759 -0.6205 -0.4253
  458MOL0     H61821   6.941  10.186   9.977 -0.6608 -2.1806  0.3262
  458MOL0     H61822   6.870  10.264  10.173  2.0805  1.1050  0.0347
  458MOL0     H61823   6.997  10.179  10.263  1.7722  1.9207 -3.2883
  458MOL0     H61824   6.841   9.960  10.222 -3.2120 -0.9000 -2.5828
  458MOL0     H61825   6.780  10.078  10.328 -1.9092  1.6692 -1.1816
  458MOL0     H61826   6.524  10.051   9.980 -2.4773  2.3614  2.3660
  458MOL0     H61827   7.374  10.152   9.923  1.3233  0.0669 -1.6902
  458MOL0     H61828   7.618  10.178   9.736  0.1025  0.7236 -0.2158
  458MOL0     H61829   7.694  10.251   9.885  1.4285 -1.6683 -0.5663
  458MOL0     H61830   7.584  10.127   9.910  0.8970  0.9993  2.0109
  459MOL0     O61831   7.424   6.133   1.440 -0.5312 -0.6176 -0.3766
  459MOL0     C61832   7.351   6.231   1.449 -1.0365 -0.4124  0.2105
  459MOL0     O61833   7.370   6.358   1.403  0.7769  0.3349 -0.2927
  459MOL0     C61834   7.491   6.385   1.331  0.2612  0.5341  0.9223
  459MOL0     C61835   7.499   6.358   1.199 -0.1308 -0.0969  0.1577
  459MOL0     C61836   7.601   6.394   1.122 -0.8652  0.2707  0.5156
  459MOL0     C61837   7.716   6.458   1.179 -0.2782 -0.6257 -0.1206
  459MOL0     O61838   7.810   6.498   1.091  0.3042  0.0383  0.0504
  459MOL0     C61839   7.943   6.550   1.134 -1.0237  0.2882 -0.5201
  459MOL0     C61840   8.037   6.547   1.012 -0.4048  0.0906 -0.0346
  459MOL0     C61841   8.170   6.611   1.053 -0.5295  0.0612  0.3336
  459MOL0     C61842   8.291   6.589   0.961 -0.0207 -0.0698  0.9679
  459MOL0     C61843   8.421   6.586   1.032  0.1271  0.9783 -0.0422
  459MOL0     C61844   8.445   6.469   1.129 -0.2761 -0.4352 -0.8386
  459MOL0     C61845   8.582   6.484   1.195 -0.7371 -0.1832 -0.4926
  459MOL0     C61846   8.633   6.352   1.254  0.4254 -0.8672 -0.2129
  459MOL0     N61847   8.751   6.370   1.333  0.1857  0.0981 -0.2694
  459MOL0     C61848   8.770   6.295   1.445  0.1590  0.6358  0.2174
  459MOL0     C61849   8.902   6.307   1.467  0.0600 -0.1641  0.1520
  459MOL0     C61850   8.975   6.248   1.579  0.1021 -0.3370  0.0888
  459MOL0     C61851   9.010   6.328   1.704  0.1445  0.3749 -0.1480
  459MOL0     C61852   9.063   6.476   1.685 -0.0591  0.1592  0.3073
  459MOL0     C61853   9.166   6.510   1.794 -0.5233 -1.2366  0.0716
  459MOL0     O61854   9.274   6.415   1.783  0.1707  0.1637  0.0182
  459MOL0     C61855   9.405   6.438   1.746  0.3084 -0.4449 -0.2563
  459MOL0     C61856   9.484   6.328   1.710 -0.4648  0.4175  0.5589
  459MOL0     C61857   9.625   6.339   1.692  0.4627 -0.4358  0.0306
  459MOL0     C61858   9.686   6.457   1.708  0.5607 -0.1226  0.5853
  459MOL0     C61859   9.825   6.482   1.687 -0.3748  0.1373  0.3568
  459MOL0     O61860   9.877   6.597   1.743 -0.1181 -0.0812  1.0440
  459MOL0     C61861  10.003   6.648   1.715  0.7390  0.7575 -0.0289
  459MOL0     C61862  10.099   6.602   1.626  0.0876  0.2048  0.6043
  459MOL0     C61863  10.228   6.663   1.616 -0.3334 -0.6994  0.1727
  459MOL0     C61864  10.261   6.777   1.700  0.5276  0.1706 -1.5229
  459MOL0     O61865  10.378   6.839   1.725 -0.5339  0.2610  0.1497
  459MOL0     C61866  10.486   6.813   1.639  0.1581  0.3594 -0.2355
  459MOL0     C61867  10.617   6.862   1.702 -0.0283  0.1828 -0.2859
  459MOL0     C61868  10.734   6.808   1.614 -0.3607 -0.4562 -0.3290
  459MOL0     C61869  10.843   6.904   1.591 -0.2493  0.1150  0.1150
  459MOL0     C61870  10.964   6.849   1.519  0.8552 -0.1033 -0.0362
  459MOL0     C61871  11.083   6.952   1.508 -0.5550  0.0461  0.6233
  459MOL0     C61872  11.213   6.886   1.465 -0.4065  1.0903  0.6320
  459MOL0     C61873  11.323   6.990   1.460  0.4700  0.1816  0.9786
  459MOL0    Cl61874  11.470   6.897   1.424 -0.0994 -0.3105 -0.5249
  459MOL0     C61875  10.158   6.818   1.791  0.0407 -0.8880 -0.2292
  459MOL0     C61876  10.032   6.758   1.794 -0.3518  0.9868 -0.4492
  459MOL0     O61877   9.892   6.393   1.633 -0.0371 -0.1060  0.4827
  459MOL0     C61878   9.609   6.563   1.759 -0.1997  0.2321 -0.7241
  459MOL0     C61879   9.475   6.559   1.767  0.5027 -0.6811 -0.5257
  459MOL0     N61880   8.959   6.394   1.380  0.2707  0.7095 -0.3687
  459MOL0     N61881   8.867   6.428   1.298 -0.1862 -0.7459  0.4075
  459MOL0     C61882   7.711   6.488   1.321 -0.3003  0.2731  0.1213
  459MOL0     C61883   7.598   6.447   1.390  1.1535  0.0227 -0.7826
  459MOL0     C61884   7.226   6.195   1.501 -0.1059 -0.0169 -0.2101
  459MOL0     C61885   7.205   6.194   1.636 -0.0851  0.2687 -0.6080
  459MOL0     C61886   7.080   6.175   1.692 -0.1108  0.2054 -0.3030
  459MOL0     C61887   6.975   6.148   1.602 -0.2981 -1.6800 -0.0578
  459MOL0     O61888   6.854   6.121   1.665 -0.2439  0.0521 -0.3943
  459MOL0     C61889   6.727   6.141   1.603 -0.2169  0.2441  0.7421
  459MOL0     C61890   6.697   6.032   1.490 -0.6088  0.2649 -0.9987
  459MOL0     C61891   6.597   5.926   1.538  0.0754  0.2761  0.3327
  459MOL0     C61892   6.572   5.815   1.433 -0.1375  0.1617 -0.8325
  459MOL0     C61893   6.479   5.716   1.479 -0.7471  0.2266  0.1576
  459MOL0     C61894   6.391   5.637   1.506 -0.0945  0.8657 -0.9026
  459MOL0     C61895   6.996   6.176   1.463 -0.0335 -0.4520  0.0157
  459MOL0     C61896   7.121   6.195   1.416  0.6364  0.0099 -0.2177
  459MOL0     C61897   7.133   6.206   1.268 -0.0323  0.0604  0.3948
  459MOL0     H61898   7.418   6.298   1.158  1.2550 -1.5078 -0.6173
  459MOL0     H61899   7.600   6.356   1.020 -1.0881 -1.9105  1.2779
  459MOL0     H61900   7.937   6.654   1.168 -1.7730  0.1612 -0.2385
  459MOL0     H61901   7.984   6.476   1.203  2.5262  0.4349 -2.2578
  459MOL0     H61902   7.994   6.598   0.925 -0.1105 -0.5088 -0.5417
  459MOL0     H61903   8.063   6.445   0.982  0.6903  0.5967 -0.8914
  459MOL0     H61904   8.192   6.573   1.153  0.3681  2.3163  1.0672
  459MOL0     H61905   8.150   6.718   1.062 -2.1067 -0.2884  1.3515
  459MOL0     H61906   8.277   6.491   0.915 -0.6203 -0.3927  1.8184
  459MOL0     H61907   8.296   6.659   0.877  0.2842 -1.1262  0.0811
  459MOL0     H61908   8.504   6.591   0.961 -0.4088 -0.1563 -0.7688
  459MOL0     H61909   8.426   6.682   1.084  0.4953  1.4986 -1.0134
  459MOL0     H61910   8.368   6.478   1.206  1.2004  1.1162  0.5487
  459MOL0     H61911   8.428   6.372   1.082 -0.7219 -1.3344  1.0592
  459MOL0     H61912   8.575   6.559   1.274  2.6027  0.3538 -0.5768
  459MOL0     H61913   8.661   6.514   1.126  2.0094  0.1872  2.5653
  459MOL0     H61914   8.557   6.312   1.322  1.9699  0.2236  2.2757
  459MOL0     H61915   8.650   6.294   1.163 -0.6044  1.6848 -2.1733
  459MOL0     H61916   8.703   6.228   1.499  1.2635 -1.3338 -0.7305
  459MOL0     H61917   8.919   6.159   1.611 -0.9457 -0.2102 -1.2942
  459MOL0     H61918   9.071   6.207   1.545  0.9489  1.9539 -0.4348
  459MOL0     H61919   8.929   6.328   1.777  2.2175  1.1209  2.2741
  459MOL0     H61920   9.091   6.272   1.751  2.2679  2.7321 -0.8179
  459MOL0     H61921   8.968   6.530   1.687 -0.6922 -0.9426  0.5293
  459MOL0     H61922   9.109   6.484   1.586 -0.1082 -1.1300  0.1618
  459MOL0     H61923   9.124   6.513   1.895 -2.7079  0.2904 -0.8199
  459MOL0     H61924   9.204   6.603   1.751  0.5879 -1.8199 -0.2686
  459MOL0     H61925   9.451   6.225   1.719 -0.9478  0.6563  1.7137
  459MOL0     H61926   9.676   6.264   1.632 -1.5821  0.7325 -3.4824
  459MOL0     H61927  10.079   6.515   1.564 -0.4103 -0.9006  2.2443
  459MOL0     H61928  10.290   6.606   1.547 -1.8098  0.3854 -2.1869
  459MOL0     H61929  10.494   6.711   1.600 -1.8678  0.7848 -1.9449
  459MOL0     H61930  10.486   6.874   1.549  4.0352 -0.0835 -0.7190
  459MOL0     H61931  10.626   6.967   1.731  2.3122 -0.2787  0.8930
  459MOL0     H61932  10.617   6.802   1.794 -0.3313  0.3219 -0.1947
  459MOL0     H61933  10.761   6.721   1.675 -0.5385  2.6706  4.7775
  459MOL0     H61934  10.693   6.781   1.516 -0.8544 -0.1001 -0.2227
  459MOL0     H61935  10.876   6.941   1.688  0.1779 -0.3113  0.1339
  459MOL0     H61936  10.812   6.985   1.524 -1.2043 -0.6604 -0.4165
  459MOL0     H61937  10.929   6.819   1.420 -1.3693  0.6651  0.4405
  459MOL0     H61938  11.009   6.757   1.557  1.0505 -0.4202 -1.0043
  459MOL0     H61939  11.062   7.036   1.441  1.4506  1.1886  1.3517
  459MOL0     H61940  11.094   6.994   1.608  1.0337 -1.0263  0.9311
  459MOL0     H61941  11.214   6.826   1.373  0.2422  0.8980  0.7527
  459MOL0     H61942  11.249   6.816   1.541  0.2601  0.9479  0.1973
  459MOL0     H61943  11.289   7.058   1.382  2.7528  2.0240  1.5076
  459MOL0     H61944  11.325   7.041   1.557 -1.2017  0.3107  0.9729
  459MOL0     H61945  10.192   6.881   1.873 -0.3708 -0.5630 -0.3014
  459MOL0     H61946   9.957   6.775   1.871 -0.2714  3.8222 -0.8968
  459MOL0     H61947   9.634   6.659   1.804  0.9762 -0.7550  0.8624
  459MOL0     H61948   9.422   6.643   1.809 -0.0004 -0.7570 -1.0009
  459MOL0     H61949   7.772   6.565   1.365 -0.5535  0.8710 -0.5571
  459MOL0     H61950   7.583   6.477   1.493  2.8570  2.4364 -1.1505
  459MOL0     H61951   7.287   6.213   1.704 -0.0150 -0.9065 -0.3395
  459MOL0     H61952   7.079   6.191   1.800  1.2533  0.3179 -0.2881
  459MOL0     H61953   6.728   6.238   1.554 -0.5612  1.4436  2.9382
  459MOL0     H61954   6.649   6.137   1.681 -1.5772  2.8832 -0.3513
  459MOL0     H61955   6.788   5.985   1.452  0.4350 -0.5398  2.1661
  459MOL0     H61956   6.651   6.087   1.407  0.3986  1.0146 -1.0864
  459MOL0     H61957   6.502   5.968   1.574  0.0675 -1.0178  1.9454
  459MOL0     H61958   6.635   5.880   1.630 -1.3649  3.0257  2.4684
  459MOL0     H61959   6.526   5.846   1.339 -3.2604 -1.0943  0.1730
  459MOL0     H61960   6.665   5.771   1.396  0.4785 -0.3113  1.1508
  459MOL0     H61961   6.308   5.572   1.530 -1.0924  2.2422 -0.4612
  459MOL0     H61962   6.905   6.166   1.404 -0.2628  1.5997 -0.0518
  459MOL0     H61963   7.193   6.122   1.232  1.3448  0.4277  1.7253
  459MOL0     H61964   7.034   6.205   1.221 -0.0750 -3.3065  0.3039
  459MOL0     H61965   7.185   6.296   1.235  0.2952 -0.7020 -1.2676
  460MOL0     O61966   3.752   2.852   8.253  0.8134 -0.1137 -0.6146
  460MOL0     C61967   3.815   2.893   8.347 -0.5449  0.2016  0.7532
  460MOL0     O61968   3.948   2.868   8.368 -0.0948  0.6634 -0.1941
  460MOL0     C61969   4.036   2.808   8.288 -0.0985 -0.3251  0.4171
  460MOL0     C61970   4.025   2.790   8.145  0.9140  0.1817  0.2455
  460MOL0     C61971   4.133   2.748   8.075  0.0542  0.1417  0.5792
  460MOL0     C61972   4.260   2.721   8.131  0.1150 -0.3905  0.2915
  460MOL0     O61973   4.377   2.692   8.059 -0.7036  0.5366 -0.6374
  460MOL0     C61974   4.367   2.676   7.922 -0.2057  0.8084 -0.0578
  460MOL0     C61975   4.363   2.803   7.845  0.2280  0.4145  0.3380
  460MOL0     C61976   4.502   2.868   7.866  0.3818 -0.5196  0.3334
  460MOL0     C61977   4.602   2.823   7.755  0.2978 -0.4314  0.6189
  460MOL0     C61978   4.753   2.852   7.796 -0.7018 -0.0853 -0.0657
  460MOL0     C61979   4.795   2.790   7.927  0.2457  1.3166 -0.1844
  460MOL0     C61980   4.938   2.808   7.942 -0.3932 -0.2738 -1.1539
  460MOL0     C61981   4.993   2.735   8.064 -0.0824  0.2787  0.3390
  460MOL0     N61982   5.131   2.754   8.076  0.4129  0.0246  1.1255
  460MOL0     C61983   5.236   2.691   8.016  0.5137 -0.3334  0.1552
  460MOL0     C61984   5.343   2.755   8.064 -0.0550 -0.1036  0.9491
  460MOL0     C61985   5.485   2.725   8.013  0.2532  0.5226  0.3226
  460MOL0     C61986   5.578   2.693   8.134  0.2773  0.4756 -0.0078
  460MOL0     C61987   5.623   2.827   8.208 -0.0926  0.2649  0.0159
  460MOL0     C61988   5.739   2.811   8.315 -0.3105  0.1190  0.2313
  460MOL0     O61989   5.785   2.943   8.346 -0.1809 -0.2062 -0.5497
  460MOL0     C61990   5.922   2.979   8.334  0.4709 -0.4414 -0.5859
  460MOL0     C61991   6.028   2.889   8.343 -0.2310 -0.5320  0.0690
  460MOL0     C61992   6.157   2.936   8.338 -0.2338 -0.4008  0.2469
  460MOL0     C61993   6.179   3.069   8.322 -1.1664 -0.2560 -0.5391
  460MOL0     C61994   6.321   3.124   8.334 -0.4448 -0.2321  0.3653
  460MOL0     O61995   6.337   3.261   8.317  0.0149  0.0671 -0.0287
  460MOL0     C61996   6.464   3.309   8.320  0.2176  0.4504  0.1821
  460MOL0     C61997   6.503   3.378   8.207 -0.6087 -0.7385 -0.0147
  460MOL0     C61998   6.631   3.436   8.195  0.0230 -0.8779 -0.8991
  460MOL0     C61999   6.726   3.426   8.299 -0.7044  0.2074  0.0921
  460MOL0     O62000   6.854   3.479   8.299 -0.1550 -0.5426 -0.7474
  460MOL0     C62001   6.942   3.437   8.188 -0.3920  0.0120 -0.8023
  460MOL0     C62002   6.962   3.550   8.096 -1.1946 -0.4265  0.0311
  460MOL0     C62003   7.058   3.509   7.990  0.0271 -0.0003  0.8796
  460MOL0     C62004   7.164   3.607   7.931  0.4888 -0.1551  0.2552
  460MOL0     C62005   7.277   3.523   7.858  0.4661 -0.7262 -0.9974
  460MOL0     C62006   7.372   3.629   7.803  0.8099 -0.4913  0.0393
  460MOL0     C62007   7.503   3.573   7.735 -0.4507 -0.0208 -0.8691
  460MOL0     C62008   7.588   3.697   7.687 -0.3656  0.0501  0.6736
  460MOL0    Cl62009   7.717   3.638   7.579  0.1032  0.3938  0.4639
  460MOL0     C62010   6.688   3.352   8.411 -0.0995  0.0536 -0.7691
  460MOL0     C62011   6.555   3.301   8.424 -0.0544  0.4201  0.4648
  460MOL0     O62012   6.413   3.049   8.351  0.4795 -0.6289 -0.6897
  460MOL0     C62013   6.078   3.158   8.319  0.1424  1.5979  0.1239
  460MOL0     C62014   5.945   3.115   8.326 -0.0448  1.3589  0.4078
  460MOL0     N62015   5.296   2.860   8.145 -0.4005 -0.4890  0.1186
  460MOL0     N62016   5.171   2.868   8.144  0.4462  1.0126  0.3701
  460MOL0     C62017   4.273   2.744   8.261  0.0525 -1.3723 -0.8765
  460MOL0     C62018   4.164   2.793   8.340  0.5317  0.6269 -0.2588
  460MOL0     C62019   3.747   2.960   8.458 -1.0889  0.2670 -0.2145
  460MOL0     C62020   3.816   2.990   8.576 -0.7597  0.7680  0.0486
  460MOL0     C62021   3.749   3.050   8.688 -0.8216 -0.5473  0.1394
  460MOL0     C62022   3.616   3.086   8.675  0.3579 -0.0887  0.0548
  460MOL0     O62023   3.553   3.152   8.774 -0.0380  0.4102  1.0623
  460MOL0     C62024   3.571   3.110   8.910  0.9741  0.5329  0.3695
  460MOL0     C62025   3.465   3.165   8.994  0.5974 -0.6197 -0.8376
  460MOL0     C62026   3.493   3.311   9.029 -0.5409 -0.7740  0.2011
  460MOL0     C62027   3.397   3.353   9.141  0.7938  0.5024 -0.2931
  460MOL0     C62028   3.410   3.485   9.202  1.1883 -0.3413 -0.4897
  460MOL0     C62029   3.414   3.591   9.273  0.2303  0.6194  0.0129
  460MOL0     C62030   3.549   3.065   8.557 -0.2793  0.1712  1.5672
  460MOL0     C62031   3.609   2.996   8.446 -0.6428 -0.6751 -0.8527
  460MOL0     C62032   3.516   2.982   8.324 -0.0383 -0.1912 -0.6233
  460MOL0     H62033   3.930   2.798   8.094  0.7377 -1.3846  0.2771
  460MOL0     H62034   4.119   2.739   7.968  0.6996 -0.6837  0.5506
  460MOL0     H62035   4.453   2.620   7.884  2.5578  3.7889  1.3368
  460MOL0     H62036   4.283   2.609   7.902  1.2284 -2.6879  4.0938
  460MOL0     H62037   4.294   2.868   7.897 -0.6537 -3.3637  4.4994
  460MOL0     H62038   4.332   2.781   7.742 -3.0700 -1.3368  1.5754
  460MOL0     H62039   4.543   2.849   7.966 -0.4422 -2.9466  0.2908
  460MOL0     H62040   4.494   2.976   7.852  0.0976 -0.5981 -0.1316
  460MOL0     H62041   4.595   2.720   7.717 -2.9868  0.1078 -0.6254
  460MOL0     H62042   4.585   2.892   7.672 -0.4890  0.8493  1.8155
  460MOL0     H62043   4.817   2.835   7.709  2.9751  1.9820  1.9401
  460MOL0     H62044   4.764   2.961   7.801  0.5309 -0.1264 -1.2662
  460MOL0     H62045   4.746   2.843   8.009 -0.9915 -2.1763  1.5344
  460MOL0     H62046   4.769   2.683   7.929  3.3676  0.4572  2.8432
  460MOL0     H62047   4.970   2.912   7.954  2.8475 -1.1216 -1.4979
  460MOL0     H62048   4.993   2.774   7.853 -0.1793 -0.9077 -0.7869
  460MOL0     H62049   4.940   2.775   8.151  0.0150  2.5897 -0.6077
  460MOL0     H62050   4.973   2.628   8.055  1.5631 -0.1011  0.9418
  460MOL0     H62051   5.226   2.611   7.944  0.7449 -0.7639  0.5954
  460MOL0     H62052   5.475   2.642   7.942 -0.7482  0.7885  0.1351
  460MOL0     H62053   5.526   2.807   7.953 -1.9457 -0.0526 -2.1566
  460MOL0     H62054   5.526   2.635   8.212  0.2715 -3.3000 -2.5378
  460MOL0     H62055   5.660   2.626   8.106  1.2437  1.5281  0.2164
  460MOL0     H62056   5.536   2.880   8.248  0.8078  2.7218 -1.0591
  460MOL0     H62057   5.660   2.899   8.134  1.1489  0.7208  1.0409
  460MOL0     H62058   5.818   2.744   8.281  1.2116 -0.1891  3.8718
  460MOL0     H62059   5.697   2.756   8.400 -1.0186  2.4603  1.4709
  460MOL0     H62060   6.012   2.782   8.343 -0.2475 -0.5352 -0.8117
  460MOL0     H62061   6.247   2.878   8.359 -0.1387 -0.5952 -0.6592
  460MOL0     H62062   6.428   3.380   8.129 -1.5370 -3.1938  0.7265
  460MOL0     H62063   6.654   3.497   8.108 -0.3585  1.0815  0.3372
  460MOL0     H62064   7.040   3.413   8.228  0.3714  2.4132 -1.0555
  460MOL0     H62065   6.899   3.357   8.127 -4.6304  1.2602  0.1654
  460MOL0     H62066   6.865   3.580   8.057 -1.5096  0.4722  1.4508
  460MOL0     H62067   7.003   3.632   8.156 -0.8450  0.9627 -2.0012
  460MOL0     H62068   7.116   3.421   8.019 -1.0053 -1.6434 -1.6809
  460MOL0     H62069   7.002   3.472   7.904  1.2237 -1.7397  0.8110
  460MOL0     H62070   7.215   3.660   8.012  0.2749  1.2780 -0.5348
  460MOL0     H62071   7.109   3.679   7.870 -2.3971 -3.3998 -1.3638
  460MOL0     H62072   7.226   3.465   7.780 -3.6489  2.5069 -1.0389
  460MOL0     H62073   7.326   3.451   7.924  0.0320 -0.7322 -0.6795
  460MOL0     H62074   7.305   3.683   7.736 -2.6979 -0.8319  2.9511
  460MOL0     H62075   7.394   3.706   7.878 -0.1118  2.1454 -2.2269
  460MOL0     H62076   7.471   3.502   7.658 -1.0911 -0.3327 -0.3266
  460MOL0     H62077   7.558   3.514   7.808 -2.8623  0.1875  1.2670
  460MOL0     H62078   7.539   3.762   7.615 -0.0072 -0.2505  0.1549
  460MOL0     H62079   7.631   3.743   7.777  0.6317 -0.9371  0.7225
  460MOL0     H62080   6.752   3.356   8.499 -0.4039  4.3890 -0.5488
  460MOL0     H62081   6.541   3.248   8.517  2.6745 -1.3836 -0.0102
  460MOL0     H62082   6.094   3.265   8.306  1.1849  1.3706 -0.5632
  460MOL0     H62083   5.872   3.195   8.320  0.3314  1.6584 -0.2788
  460MOL0     H62084   4.371   2.725   8.302 -0.6387  0.3348  1.8089
  460MOL0     H62085   4.179   2.822   8.444 -1.6317 -0.8506  0.5304
  460MOL0     H62086   3.915   2.949   8.594 -0.8573 -0.7040 -2.2596
  460MOL0     H62087   3.798   3.076   8.781  0.8485  0.1321 -0.8908
  460MOL0     H62088   3.667   3.146   8.950  2.2093  0.2457 -2.1252
  460MOL0     H62089   3.574   3.001   8.911  0.3032  0.4768 -1.2725
  460MOL0     H62090   3.452   3.102   9.082  0.8226 -1.1310 -1.1639
  460MOL0     H62091   3.369   3.154   8.943 -0.2667 -0.8947  0.7764
  460MOL0     H62092   3.479   3.384   8.949  0.6706  1.3975  1.8514
  460MOL0     H62093   3.593   3.322   9.073 -0.7851 -1.7413  1.0307
  460MOL0     H62094   3.293   3.349   9.106  0.2511 -0.0553  1.2716
  460MOL0     H62095   3.398   3.283   9.226  1.4322 -0.2663 -0.9138
  460MOL0     H62096   3.440   3.680   9.325 -0.0494  1.0705 -0.6036
  460MOL0     H62097   3.448   3.105   8.559 -0.5396 -0.4723  1.7052
  460MOL0     H62098   3.542   3.057   8.249 -1.0234  1.3933  0.5413
  460MOL0     H62099   3.517   2.876   8.297 -1.3628 -0.7816  1.4141
  460MOL0     H62100   3.412   3.002   8.353  0.2196  0.6009 -0.1912
  461MOL0     O62101   4.976   8.637   7.530 -0.9530  0.2019  0.2720
  461MOL0     C62102   4.968   8.710   7.626 -0.0141 -0.5251 -0.6531
  461MOL0     O62103   4.876   8.701   7.718  0.4760 -1.2672 -0.6363
  461MOL0     C62104   4.777   8.611   7.700  0.2165  1.1989  0.2261
  461MOL0     C62105   4.789   8.476   7.732  0.5306  0.2732 -0.6845
  461MOL0     C62106   4.681   8.391   7.705 -0.3064  0.1195 -0.3588
  461MOL0     C62107   4.556   8.433   7.659 -0.2535 -1.0698 -0.1729
  461MOL0     O62108   4.454   8.361   7.620 -0.0823 -0.5106  0.4246
  461MOL0     C62109   4.365   8.310   7.721  0.2476 -0.0783  0.4046
  461MOL0     C62110   4.217   8.313   7.665  1.0226  0.1406 -0.0547
  461MOL0     C62111   4.123   8.276   7.783 -0.4250 -0.1824 -0.2063
  461MOL0     C62112   3.981   8.242   7.734 -0.3839  0.4098 -0.7677
  461MOL0     C62113   3.874   8.325   7.794  0.5596 -0.4654 -0.3897
  461MOL0     C62114   3.859   8.466   7.723  0.5018  0.5478  0.1435
  461MOL0     C62115   3.765   8.552   7.798  0.0911  0.7499 -0.3174
  461MOL0     C62116   3.732   8.670   7.703  0.3279 -0.0239 -0.2193
  461MOL0     N62117   3.655   8.645   7.570 -0.7850 -0.8433  0.8791
  461MOL0     C62118   3.540   8.586   7.551  0.3813  0.3817 -0.3072
  461MOL0     C62119   3.524   8.587   7.422 -0.1607 -0.2973 -0.4696
  461MOL0     C62120   3.406   8.531   7.360 -0.3830  0.1815 -0.4195
  461MOL0     C62121   3.319   8.632   7.280 -0.3338  0.3998 -0.0468
  461MOL0     C62122   3.243   8.732   7.369  0.1741 -0.0561  0.0414
  461MOL0     C62123   3.109   8.762   7.307 -0.0671  0.0509  0.5552
  461MOL0     O62124   3.031   8.644   7.328  0.1577 -0.5629 -0.8705
  461MOL0     C62125   2.896   8.647   7.319 -0.3041 -0.5739  1.4527
  461MOL0     C62126   2.823   8.729   7.235  1.3285  0.2241 -0.2679
  461MOL0     C62127   2.682   8.719   7.232  0.3099 -0.1641 -0.6130
  461MOL0     C62128   2.615   8.626   7.309 -0.5075  0.6308 -0.3655
  461MOL0     C62129   2.471   8.602   7.298  0.3958  0.0595  0.4303
  461MOL0     O62130   2.411   8.527   7.398  0.3188  0.1772  0.4902
  461MOL0     C62131   2.277   8.520   7.410 -0.0830 -0.8186  0.0801
  461MOL0     C62132   2.202   8.447   7.314  0.0180  0.2956 -0.5840
  461MOL0     C62133   2.064   8.441   7.323  0.1142 -0.3123  0.0828
  461MOL0     C62134   1.992   8.505   7.431 -0.1454 -0.8990  0.7380
  461MOL0     O62135   1.861   8.496   7.435 -0.2101  0.3433  0.1442
  461MOL0     C62136   1.785   8.381   7.389  0.4234  0.8210  0.2268
  461MOL0     C62137   1.661   8.373   7.474 -0.0339 -0.0153  0.9940
  461MOL0     C62138   1.561   8.278   7.410  0.4934 -1.3859  0.5682
  461MOL0     C62139   1.417   8.305   7.463  0.1612  0.1477  0.0570
  461MOL0     C62140   1.333   8.196   7.401  0.7699  0.0852 -0.3518
  461MOL0     C62141   1.220   8.187   7.502 -0.5434  1.3114 -0.3698
  461MOL0     C62142   1.109   8.086   7.460  0.6580 -0.0792  0.3636
  461MOL0     C62143   1.008   8.073   7.576  0.3012 -0.5381  0.0067
  461MOL0    Cl62144   1.082   7.996   7.720  0.2799  0.0950  0.3954
  461MOL0     C62145   2.070   8.569   7.529 -0.3437  1.1975  0.5485
  461MOL0     C62146   2.204   8.580   7.511 -0.8958  0.3644  0.5640
  461MOL0     O62147   2.409   8.665   7.210  0.0528 -0.3211  0.5330
  461MOL0     C62148   2.693   8.533   7.386  0.2462 -0.7845  0.1712
  461MOL0     C62149   2.833   8.556   7.395 -0.6264 -0.1621  0.3229
  461MOL0     N62150   3.636   8.634   7.360  0.3093 -0.1158 -0.2007
  461MOL0     N62151   3.726   8.665   7.453 -0.1458  0.1395  0.3294
  461MOL0     C62152   4.553   8.562   7.615 -0.3498  0.9367 -0.0956
  461MOL0     C62153   4.655   8.652   7.639 -0.5426 -0.2131  0.7976
  461MOL0     C62154   5.061   8.825   7.640  0.7330 -0.0990  0.2899
  461MOL0     C62155   5.122   8.875   7.524  0.2822 -0.2794  0.5598
  461MOL0     C62156   5.236   8.962   7.531 -0.8558 -0.2922  0.2616
  461MOL0     C62157   5.290   8.998   7.652 -0.1669  0.5962 -0.0442
  461MOL0     O62158   5.405   9.071   7.668 -0.0374 -0.1429  0.1684
  461MOL0     C62159   5.532   9.003   7.649 -0.1871  1.1836 -0.5843
  461MOL0     C62160   5.646   9.073   7.729 -0.0942 -1.0296  0.2070
  461MOL0     C62161   5.685   9.197   7.647 -0.2210 -0.3275  0.3728
  461MOL0     C62162   5.814   9.262   7.705 -0.5264  0.3644  0.1680
  461MOL0     C62163   5.937   9.186   7.663  0.1399  0.4903 -0.7359
  461MOL0     C62164   6.026   9.125   7.621 -0.5307 -0.2870  0.3771
  461MOL0     C62165   5.217   8.959   7.770  0.4395 -0.3786 -0.3957
  461MOL0     C62166   5.110   8.870   7.768 -0.6083 -0.1973  0.2204
  461MOL0     C62167   5.059   8.829   7.902  0.2409  0.6185  0.0184
  461MOL0     H62168   4.877   8.438   7.785  0.0408  1.3786  0.9955
  461MOL0     H62169   4.700   8.285   7.722  0.7168  0.4589  0.7304
  461MOL0     H62170   4.401   8.207   7.734  2.5249  0.6932  0.5805
  461MOL0     H62171   4.384   8.355   7.818 -0.3836 -0.7854  0.8740
  461MOL0     H62172   4.211   8.234   7.589 -1.5011 -1.1502  1.3664
  461MOL0     H62173   4.203   8.415   7.629  3.7646  0.2586 -1.0376
  461MOL0     H62174   4.126   8.361   7.852 -0.9722 -1.2242  1.1644
  461MOL0     H62175   4.142   8.182   7.837 -2.8967 -1.3293 -1.1839
  461MOL0     H62176   3.962   8.249   7.627 -2.4938  2.9633 -0.3257
  461MOL0     H62177   3.962   8.141   7.771 -2.4452  0.7967 -0.6357
  461MOL0     H62178   3.779   8.270   7.787  0.6372 -0.6034 -0.3640
  461MOL0     H62179   3.890   8.330   7.902 -3.4230  1.6509  0.2926
  461MOL0     H62180   3.955   8.516   7.706  1.5934 -0.3131  3.1617
  461MOL0     H62181   3.823   8.445   7.622 -0.7337 -1.3698  0.9253
  461MOL0     H62182   3.816   8.585   7.889  0.3752  3.0930 -1.2399
  461MOL0     H62183   3.673   8.494   7.808  0.8544 -0.3392  0.6089
  461MOL0     H62184   3.675   8.736   7.769  1.6774  2.9528 -1.8442
  461MOL0     H62185   3.824   8.723   7.677  0.4712  0.0529  0.4077
  461MOL0     H62186   3.471   8.550   7.628  2.6497 -2.5053  0.5414
  461MOL0     H62187   3.427   8.451   7.289 -0.8685 -0.8972  0.6131
  461MOL0     H62188   3.337   8.478   7.427 -1.5540  1.0470 -0.9184
  461MOL0     H62189   3.377   8.689   7.207  1.6521 -3.0739 -1.4393
  461MOL0     H62190   3.247   8.563   7.235 -0.2630 -0.8814  1.6574
  461MOL0     H62191   3.302   8.824   7.381 -2.5636  1.6962  1.0694
  461MOL0     H62192   3.238   8.694   7.471  1.0058  0.4758  0.3000
  461MOL0     H62193   3.117   8.778   7.199 -0.2191 -0.3126  0.4885
  461MOL0     H62194   3.054   8.848   7.347  0.6919  0.8590 -0.1102
  461MOL0     H62195   2.868   8.805   7.172  3.2492  0.4269  1.2758
  461MOL0     H62196   2.631   8.776   7.155 -2.7274 -2.0665 -0.1854
  461MOL0     H62197   2.249   8.383   7.241  0.3071  3.5130 -3.4652
  461MOL0     H62198   2.000   8.377   7.263 -0.8693  1.2288 -0.5825
  461MOL0     H62199   1.762   8.394   7.282  0.6761 -0.9414 -0.0675
  461MOL0     H62200   1.838   8.286   7.396 -0.1598  0.4750 -0.0488
  461MOL0     H62201   1.677   8.343   7.578 -0.9009 -1.5103  0.7167
  461MOL0     H62202   1.619   8.474   7.467 -0.3102 -0.1034  1.3811
  461MOL0     H62203   1.568   8.293   7.302  4.9490 -1.3794  0.6733
  461MOL0     H62204   1.595   8.176   7.433 -1.3019 -1.5437  2.9812
  461MOL0     H62205   1.378   8.406   7.447  0.8414  0.7464  1.8858
  461MOL0     H62206   1.424   8.287   7.571  0.1527 -1.9085 -0.2395
  461MOL0     H62207   1.385   8.100   7.403 -0.0467 -0.3637  1.6167
  461MOL0     H62208   1.304   8.228   7.300 -3.8409  3.6474  1.7002
  461MOL0     H62209   1.263   8.133   7.587 -2.0783 -3.6905 -2.4260
  461MOL0     H62210   1.178   8.284   7.532  1.7121  2.4990 -0.8365
  461MOL0     H62211   1.154   7.994   7.422  1.0634  1.0447 -2.0979
  461MOL0     H62212   1.060   8.136   7.375  1.7101 -0.5968 -0.5625
  461MOL0     H62213   0.956   8.166   7.601 -0.5081 -1.0033  0.1104
  461MOL0     H62214   0.932   8.007   7.533  1.9469 -2.3802 -0.2122
  461MOL0     H62215   2.021   8.598   7.621  0.3126  0.7524  1.0408
  461MOL0     H62216   2.265   8.626   7.588  0.1585 -0.5882  0.3125
  461MOL0     H62217   2.654   8.451   7.447  1.2013 -2.1567 -0.9974
  461MOL0     H62218   2.886   8.476   7.446  0.7898 -0.3666 -1.3690
  461MOL0     H62219   4.470   8.582   7.548  0.0516 -2.2442 -1.7360
  461MOL0     H62220   4.657   8.746   7.585  0.5329 -1.6368 -1.7884
  461MOL0     H62221   5.088   8.844   7.426 -0.0685  0.9593  0.2724
  461MOL0     H62222   5.290   8.996   7.443 -3.1296 -0.5799 -1.3195
  461MOL0     H62223   5.557   9.000   7.542  0.0648 -3.0884 -0.5669
  461MOL0     H62224   5.528   8.900   7.686  2.9815  0.5233 -1.6848
  461MOL0     H62225   5.730   9.004   7.734 -0.9247 -2.4100 -2.7759
  461MOL0     H62226   5.606   9.090   7.830 -0.1035 -2.2845  0.4348
  461MOL0     H62227   5.611   9.277   7.640  1.0626  0.8415 -0.3784
  461MOL0     H62228   5.702   9.170   7.542 -1.0102  0.2554  0.0855
  461MOL0     H62229   5.826   9.361   7.660 -0.7200  0.1038 -0.4684
  461MOL0     H62230   5.799   9.253   7.813 -0.8670 -1.9966 -0.0336
  461MOL0     H62231   6.116   9.072   7.597 -1.1905 -0.7647 -1.1485
  461MOL0     H62232   5.252   8.990   7.868 -0.2015 -1.2948  0.1386
  461MOL0     H62233   5.009   8.732   7.907 -0.9576  1.0875 -1.8599
  461MOL0     H62234   5.134   8.841   7.981  2.6991  1.5023 -2.3113
  461MOL0     H62235   4.977   8.895   7.931  1.3750  2.8201 -1.5422
  462MOL0     O62236   7.898   1.976  10.155  0.1296  0.3297 -0.3862
  462MOL0     C62237   7.807   1.959  10.230  0.1588 -0.1484  0.4298
  462MOL0     O62238   7.816   1.957  10.369 -0.0876  0.2581 -0.1457
  462MOL0     C62239   7.941   1.974  10.416  0.1975 -1.1251 -0.5409
  462MOL0     C62240   8.028   1.862  10.424  0.0346  0.7814 -0.4663
  462MOL0     C62241   8.157   1.881  10.473  0.0048  0.6815  0.5358
  462MOL0     C62242   8.196   2.000  10.532 -0.3823  0.8762  0.1185
  462MOL0     O62243   8.332   2.013  10.560  0.0768 -0.2234 -0.0318
  462MOL0     C62244   8.377   1.976  10.692 -0.7213  0.7594  0.5438
  462MOL0     C62245   8.506   2.041  10.725 -0.0512 -0.9793  0.7333
  462MOL0     C62246   8.504   2.189  10.746 -0.7575 -0.6586 -0.0604
  462MOL0     C62247   8.640   2.262  10.735  0.0830 -0.1002 -0.4342
  462MOL0     C62248   8.637   2.403  10.789  0.4653  0.3943 -0.5394
  462MOL0     C62249   8.774   2.473  10.792 -1.2312  0.7144 -1.0132
  462MOL0     C62250   8.771   2.615  10.819  0.4598 -0.4216 -0.0622
  462MOL0     C62251   8.847   2.711  10.725 -0.0948 -0.0556  0.3409
  462MOL0     N62252   8.990   2.684  10.728 -0.7605 -0.4995 -0.4806
  462MOL0     C62253   9.054   2.593  10.652 -0.6166  0.1927 -0.1858
  462MOL0     C62254   9.189   2.618  10.670 -0.6333  0.2528 -0.2400
  462MOL0     C62255   9.307   2.541  10.645  0.4514  0.2900  1.1070
  462MOL0     C62256   9.359   2.568  10.503 -0.1829  0.2251 -0.7052
  462MOL0     C62257   9.499   2.632  10.511  0.4248 -0.0083 -0.1623
  462MOL0     C62258   9.536   2.712  10.378 -0.2824  0.0023 -0.4398
  462MOL0     O62259   9.521   2.646  10.252  0.3537 -0.6600 -0.3284
  462MOL0     C62260   9.623   2.564  10.212  0.2718 -0.0439 -0.0619
  462MOL0     C62261   9.607   2.516  10.078  0.3558  0.7367 -0.1743
  462MOL0     C62262   9.703   2.420  10.030  0.0594 -0.0966  1.0929
  462MOL0     C62263   9.806   2.367  10.104 -0.3481 -0.5038  0.3866
  462MOL0     C62264   9.891   2.251  10.057  0.6573 -0.0763  0.3562
  462MOL0     O62265   9.878   2.219   9.925  0.4296 -0.0648 -0.4622
  462MOL0     C62266   9.920   2.105   9.864  0.8947 -0.3380  0.8111
  462MOL0     C62267   9.831   2.047   9.770  0.7106 -0.1207 -0.2581
  462MOL0     C62268   9.862   1.918   9.713  0.9408 -1.2854 -1.1781
  462MOL0     C62269   9.980   1.853   9.741 -0.7030 -0.0641  0.2942
  462MOL0     O62270   9.985   1.728   9.686  0.2928  1.3189 -0.1383
  462MOL0     C62271  10.110   1.666   9.662  0.1540 -0.3079 -0.2603
  462MOL0     C62272  10.093   1.582   9.543 -0.0285 -0.3669  0.2305
  462MOL0     C62273  10.232   1.550   9.475  0.0398 -0.2590 -0.7267
  462MOL0     C62274  10.307   1.448   9.559 -0.9125 -0.1807 -0.4671
  462MOL0     C62275  10.437   1.393   9.500  0.3461 -0.3537 -0.4751
  462MOL0     C62276  10.536   1.498   9.467 -0.4255  0.4160  0.3656
  462MOL0     C62277  10.584   1.572   9.595  0.8927  0.1939 -0.6760
  462MOL0     C62278  10.713   1.646   9.574 -0.4016 -0.0145 -0.2000
  462MOL0    Cl62279  10.713   1.774   9.454  0.5497  0.0477 -0.5411
  462MOL0     C62280  10.075   1.917   9.826  0.0006 -0.3113 -0.4550
  462MOL0     C62281  10.041   2.041   9.889  0.9392 -0.4682  0.2341
  462MOL0     O62282   9.954   2.198  10.141 -0.3137  0.4016  0.2927
  462MOL0     C62283   9.824   2.432  10.232 -0.0005 -0.6997 -0.5552
  462MOL0     C62284   9.732   2.524  10.280 -0.6088 -0.1643  0.3220
  462MOL0     N62285   9.199   2.713  10.771 -0.4305  0.6358  0.3246
  462MOL0     N62286   9.084   2.754  10.802 -0.4766 -0.0472 -0.1160
  462MOL0     C62287   8.105   2.118  10.533  0.0477  0.2135 -0.7919
  462MOL0     C62288   7.986   2.103  10.462 -0.3636  0.1279 -0.4274
  462MOL0     C62289   7.674   1.915  10.167  0.8000 -0.4257 -0.5927
  462MOL0     C62290   7.626   1.995  10.067 -0.1043  0.0960 -0.4551
  462MOL0     C62291   7.498   1.973  10.005 -0.2802  0.1302  1.0875
  462MOL0     C62292   7.413   1.875  10.056 -0.3224  0.1182  0.4768
  462MOL0     O62293   7.296   1.866   9.991 -0.1162  0.3368 -0.1459
  462MOL0     C62294   7.187   1.799  10.066 -0.0280 -0.6248  0.1089
  462MOL0     C62295   7.048   1.818  10.002 -0.3371  0.2938 -0.2485
  462MOL0     C62296   7.047   1.755   9.855 -0.4806  0.9196 -0.4808
  462MOL0     C62297   6.903   1.764   9.798 -0.1469 -0.3886 -0.1388
  462MOL0     C62298   6.876   1.676   9.686  0.5557 -0.8956 -0.3161
  462MOL0     C62299   6.824   1.594   9.602 -0.5834 -0.4791 -0.1337
  462MOL0     C62300   7.467   1.789  10.161 -0.5053  0.8951 -0.7003
  462MOL0     C62301   7.595   1.811  10.217 -0.5380 -0.2642 -0.3766
  462MOL0     C62302   7.640   1.716  10.323  0.0814 -0.0538  0.3498
  462MOL0     H62303   7.992   1.763  10.399 -1.6779  1.1479  0.4041
  462MOL0     H62304   8.229   1.799  10.472 -1.5950 -0.7889  0.1915
  462MOL0     H62305   8.297   2.008  10.759 -1.5032 -2.6517  1.4379
  462MOL0     H62306   8.389   1.869  10.708 -1.7706  0.9880  3.3032
  462MOL0     H62307   8.577   2.014  10.646 -0.8926  1.4558 -0.9674
  462MOL0     H62308   8.531   2.008  10.826 -2.3236 -0.8369  1.3982
  462MOL0     H62309   8.461   2.208  10.845  0.0838  0.4422  0.1080
  462MOL0     H62310   8.438   2.236  10.672  1.9149 -1.3608 -3.1193
  462MOL0     H62311   8.701   2.196  10.798 -1.0612 -1.7892 -1.0232
  462MOL0     H62312   8.684   2.255  10.635  0.2314 -1.8274 -0.2870
  462MOL0     H62313   8.566   2.454  10.723  0.7499 -1.9249 -2.8194
  462MOL0     H62314   8.589   2.395  10.887  2.1390 -1.9656  0.1849
  462MOL0     H62315   8.841   2.443  10.873 -1.0709  3.8892  0.1754
  462MOL0     H62316   8.811   2.450  10.691 -0.7384 -0.3508 -0.6088
  462MOL0     H62317   8.788   2.640  10.924  1.0830  0.2830 -0.3232
  462MOL0     H62318   8.666   2.642  10.801  0.3332 -0.9290 -0.1168
  462MOL0     H62319   8.800   2.695  10.628  1.0476  0.3892 -0.3079
  462MOL0     H62320   8.823   2.813  10.754 -0.5091  0.5825 -2.0473
  462MOL0     H62321   9.027   2.499  10.605  0.0774 -0.1533  0.0904
  462MOL0     H62322   9.385   2.563  10.719 -0.2973  1.5010  1.5488
  462MOL0     H62323   9.298   2.432  10.654  0.2244  0.2232  0.1967
  462MOL0     H62324   9.374   2.474  10.449  0.7002 -0.9020  1.4012
  462MOL0     H62325   9.289   2.639  10.457 -0.2956  1.4317  1.1909
  462MOL0     H62326   9.577   2.566  10.549 -0.0371  0.9214  2.5917
  462MOL0     H62327   9.503   2.717  10.580  1.7569 -0.9626  0.9734
  462MOL0     H62328   9.639   2.745  10.392 -0.0870 -0.0706 -1.6110
  462MOL0     H62329   9.482   2.807  10.373  1.7165  1.3572  1.8192
  462MOL0     H62330   9.520   2.543  10.019  0.1478  0.9377  0.2238
  462MOL0     H62331   9.675   2.369   9.938 -3.2857 -0.9988  2.4851
  462MOL0     H62332   9.749   2.112   9.741  0.7742  1.7998  3.3097
  462MOL0     H62333   9.787   1.869   9.651  0.2034  1.9519 -3.0745
  462MOL0     H62334  10.182   1.742   9.632 -0.0016  0.2375  0.7129
  462MOL0     H62335  10.149   1.626   9.756 -0.8001 -1.3065 -0.2624
  462MOL0     H62336  10.050   1.486   9.573  0.7134 -0.9277 -0.4452
  462MOL0     H62337  10.025   1.634   9.475 -3.0258 -2.2137  1.5754
  462MOL0     H62338  10.200   1.526   9.373 -0.5037  3.1045 -1.4881
  462MOL0     H62339  10.285   1.643   9.451 -1.3213  0.5350 -0.8050
  462MOL0     H62340  10.238   1.365   9.577  0.9669 -1.3752  1.7242
  462MOL0     H62341  10.327   1.493   9.656  1.8280  2.2563 -1.9993
  462MOL0     H62342  10.422   1.352   9.400  2.3554 -1.7621 -0.2552
  462MOL0     H62343  10.478   1.315   9.565 -2.3907 -1.6019 -0.0635
  462MOL0     H62344  10.627   1.459   9.421 -0.1409  3.4024 -1.8317
  462MOL0     H62345  10.504   1.574   9.395  1.2687  2.5560  1.7484
  462MOL0     H62346  10.599   1.491   9.667 -0.4988  0.6451  0.1819
  462MOL0     H62347  10.508   1.648   9.619 -0.0692 -0.4276 -1.6380
  462MOL0     H62348  10.747   1.690   9.668 -0.7976 -0.6346  0.2465
  462MOL0     H62349  10.789   1.570   9.549 -1.3074 -0.8690 -0.4128
  462MOL0     H62350  10.162   1.858   9.852 -0.0988 -1.0444 -1.7011
  462MOL0     H62351  10.120   2.075   9.955  1.9487 -1.6333 -0.3337
  462MOL0     H62352   9.901   2.402  10.302 -0.2023  0.0089 -0.0139
  462MOL0     H62353   9.746   2.556  10.383  1.2340  0.5358 -0.1215
  462MOL0     H62354   8.138   2.211  10.578 -0.6607  0.1226 -0.0601
  462MOL0     H62355   7.933   2.195  10.442  2.6512  1.9932 -0.4385
  462MOL0     H62356   7.686   2.074  10.022  1.3992 -1.1388 -0.6655
  462MOL0     H62357   7.480   2.025   9.912 -0.2224  1.0663  1.5842
  462MOL0     H62358   7.184   1.854  10.161  2.0035  0.6159 -0.4786
  462MOL0     H62359   7.198   1.691  10.075 -0.4708 -0.7573 -0.8413
  462MOL0     H62360   7.029   1.926  10.003  1.4490  0.6200  0.3310
  462MOL0     H62361   6.973   1.770  10.065 -1.8749 -1.7800 -3.3853
  462MOL0     H62362   7.069   1.648   9.864  0.9461  1.1276 -1.2758
  462MOL0     H62363   7.127   1.796   9.793 -1.1875 -0.5829 -2.4835
  462MOL0     H62364   6.842   1.726   9.881 -1.2503 -1.1019 -1.2398
  462MOL0     H62365   6.880   1.868   9.773  0.8171 -0.3596 -0.9484
  462MOL0     H62366   6.783   1.520   9.537  1.5570  0.1069 -2.3297
  462MOL0     H62367   7.410   1.703  10.195  3.7212 -1.3205  1.6256
  462MOL0     H62368   7.594   1.741  10.420  2.0640  3.9003  0.4675
  462MOL0     H62369   7.618   1.612  10.295  2.9616 -0.1511 -1.9598
  462MOL0     H62370   7.749   1.721  10.332  0.1698 -0.7285 -0.2580
  463MOL0     O62371   4.314   3.316   5.298  0.3042  0.1950  0.4397
  463MOL0     C62372   4.404   3.400   5.307 -0.5354  0.4436  0.2085
  463MOL0     O62373   4.536   3.379   5.280 -0.1873  0.6997 -0.5542
  463MOL0     C62374   4.565   3.255   5.229 -0.0309 -0.3066 -0.5123
  463MOL0     C62375   4.647   3.272   5.119  0.0087 -0.3265  0.0004
  463MOL0     C62376   4.708   3.163   5.060  0.6676 -0.7365 -0.4113
  463MOL0     C62377   4.680   3.031   5.115  0.4983 -0.4684 -1.0403
  463MOL0     O62378   4.728   2.914   5.065 -0.1556 -0.7947 -0.0832
  463MOL0     C62379   4.763   2.920   4.926 -0.0644  0.4240 -0.1359
  463MOL0     C62380   4.780   2.785   4.864 -0.3873  1.3514 -0.3464
  463MOL0     C62381   4.896   2.708   4.926  0.3412  0.3264  0.6535
  463MOL0     C62382   4.923   2.580   4.842 -0.7656 -0.5884  0.0560
  463MOL0     C62383   5.050   2.513   4.885 -0.2121  0.1840 -0.3834
  463MOL0     C62384   5.087   2.395   4.796 -0.5570  0.1384 -0.7192
  463MOL0     C62385   5.219   2.333   4.829 -1.2970  1.2198 -0.1815
  463MOL0     C62386   5.330   2.413   4.757 -0.0837 -0.1787  1.1420
  463MOL0     N62387   5.463   2.346   4.756  0.3792  0.8420  0.0715
  463MOL0     C62388   5.589   2.398   4.765 -0.7367  0.9337  0.8007
  463MOL0     C62389   5.666   2.299   4.808 -0.3413  0.9170  0.0387
  463MOL0     C62390   5.816   2.312   4.839 -0.2703  0.2260  0.6265
  463MOL0     C62391   5.908   2.291   4.716  0.3759 -0.3356  0.6901
  463MOL0     C62392   5.963   2.157   4.696 -0.9621  0.1473 -0.6962
  463MOL0     C62393   6.056   2.106   4.806  0.2507 -0.3546 -0.1095
  463MOL0     O62394   6.151   2.217   4.834 -0.1292  1.0219  0.2025
  463MOL0     C62395   6.280   2.189   4.875 -0.4319 -0.4931 -0.3093
  463MOL0     C62396   6.391   2.256   4.826  0.4809  1.4017  1.6918
  463MOL0     C62397   6.524   2.245   4.869  0.0544  0.0671  0.0857
  463MOL0     C62398   6.553   2.146   4.966 -0.4302 -0.1288  0.1432
  463MOL0     C62399   6.698   2.123   5.003 -0.4451 -0.6993 -0.1270
  463MOL0     O62400   6.800   2.183   4.926  0.2769 -0.1755 -0.4642
  463MOL0     C62401   6.930   2.178   4.976 -0.1300 -0.4228 -0.2104
  463MOL0     C62402   6.984   2.055   5.002  0.4695 -0.2842 -0.5272
  463MOL0     C62403   7.113   2.036   5.066 -0.1716 -0.3888  0.3958
  463MOL0     C62404   7.181   2.147   5.109  0.1063 -0.1381  0.2187
  463MOL0     O62405   7.303   2.128   5.163 -0.2067  0.2380  0.1962
  463MOL0     C62406   7.368   2.242   5.223  0.5465  0.0651  0.0889
  463MOL0     C62407   7.500   2.173   5.253  0.0917  0.1074 -0.1870
  463MOL0     C62408   7.602   2.275   5.302 -0.8758  0.1693  0.7366
  463MOL0     C62409   7.742   2.227   5.317 -0.1776 -0.2214 -0.2715
  463MOL0     C62410   7.817   2.350   5.366  0.1078  0.1099 -0.4903
  463MOL0     C62411   7.960   2.340   5.397 -0.2408  0.2373  0.3278
  463MOL0     C62412   8.041   2.354   5.252 -0.5458 -0.1624  0.1776
  463MOL0     C62413   8.183   2.310   5.266 -1.1088 -0.4868 -0.0689
  463MOL0    Cl62414   8.254   2.401   5.414 -0.1828  0.0999  0.2896
  463MOL0     C62415   7.127   2.273   5.071  0.7756 -0.4792  0.1304
  463MOL0     C62416   7.005   2.294   5.011  0.5742  0.9386  0.0094
  463MOL0     O62417   6.729   2.049   5.105 -0.2301 -0.5509 -0.0962
  463MOL0     C62418   6.443   2.073   5.024  0.2909  0.0092 -0.0928
  463MOL0     C62419   6.311   2.100   4.980 -0.3821  0.5778  0.3182
  463MOL0     N62420   5.603   2.186   4.841 -0.5413 -0.3000  0.1455
  463MOL0     N62421   5.482   2.216   4.804  0.6306 -0.3954 -0.0891
  463MOL0     C62422   4.602   3.020   5.227 -0.4806 -0.6533 -0.1176
  463MOL0     C62423   4.541   3.128   5.288 -0.8806 -0.1048  0.4280
  463MOL0     C62424   4.373   3.548   5.322  0.3338 -0.4040  0.3564
  463MOL0     C62425   4.267   3.600   5.253  0.4394  0.6448  0.2273
  463MOL0     C62426   4.264   3.733   5.220  1.0069 -0.4436 -0.3757
  463MOL0     C62427   4.335   3.827   5.297  0.6659 -0.2059  0.5226
  463MOL0     O62428   4.323   3.959   5.287 -1.2521 -0.7921  0.3835
  463MOL0     C62429   4.196   4.018   5.250 -0.1899 -0.7018 -0.0439
  463MOL0     C62430   4.098   3.971   5.357  0.3861  0.2285  0.1460
  463MOL0     C62431   3.981   4.064   5.357  0.4393 -0.4714  0.2573
  463MOL0     C62432   3.891   4.041   5.486 -0.5106  0.2590  0.0494
  463MOL0     C62433   3.959   4.055   5.616 -0.2660 -0.9665  0.6199
  463MOL0     C62434   3.999   4.078   5.730 -0.4270  0.6618  0.3921
  463MOL0     C62435   4.426   3.784   5.391  0.3147 -0.1946  0.3617
  463MOL0     C62436   4.454   3.644   5.392  0.7265 -0.2435  0.1836
  463MOL0     C62437   4.571   3.598   5.472  0.0415  0.0947 -0.0949
  463MOL0     H62438   4.657   3.372   5.076  2.0858 -0.7294 -0.5488
  463MOL0     H62439   4.782   3.175   4.982  0.7752 -2.3047 -0.5959
  463MOL0     H62440   4.686   2.964   4.862 -3.7692  3.1159  5.4067
  463MOL0     H62441   4.862   2.965   4.911 -0.5823  0.9679 -2.2803
  463MOL0     H62442   4.798   2.807   4.758 -2.0631 -0.3455 -1.0359
  463MOL0     H62443   4.686   2.735   4.888  0.1310  0.8334  0.6630
  463MOL0     H62444   4.881   2.678   5.030 -0.7500 -0.5732  0.2616
  463MOL0     H62445   4.987   2.768   4.921  1.7392 -1.3255  3.4164
  463MOL0     H62446   4.848   2.501   4.856 -0.4367 -1.1069 -1.0347
  463MOL0     H62447   4.932   2.604   4.736 -1.5278 -0.0802  0.1024
  463MOL0     H62448   5.128   2.587   4.866  0.9558 -0.3910  1.8467
  463MOL0     H62449   5.045   2.488   4.992 -0.8793  0.7131 -0.2819
  463MOL0     H62450   5.014   2.317   4.816  0.2446 -0.4758 -0.0956
  463MOL0     H62451   5.076   2.414   4.689  0.3194 -1.8341 -1.2012
  463MOL0     H62452   5.231   2.232   4.788  3.5912  1.8421 -0.8890
  463MOL0     H62453   5.236   2.309   4.934  0.3854 -0.8463 -0.8480
  463MOL0     H62454   5.304   2.437   4.654 -0.2565  1.7141  1.5776
  463MOL0     H62455   5.332   2.506   4.816 -1.7813  1.3160 -0.9877
  463MOL0     H62456   5.618   2.499   4.736  1.0391  0.1107 -0.4095
  463MOL0     H62457   5.836   2.415   4.870  1.5051  0.0186  0.2651
  463MOL0     H62458   5.841   2.250   4.926 -0.0544  0.1751  0.5299
  463MOL0     H62459   5.854   2.322   4.626  1.1802 -0.0271  0.3036
  463MOL0     H62460   5.995   2.358   4.714  0.5572 -0.5712  0.5364
  463MOL0     H62461   6.030   2.166   4.609  1.7369  1.2810  1.3557
  463MOL0     H62462   5.883   2.086   4.673  0.1379 -2.4285  2.6640
  463MOL0     H62463   6.105   2.011   4.780  2.2794  0.4274  0.6951
  463MOL0     H62464   6.012   2.073   4.901  1.7632 -0.1685  0.6796
  463MOL0     H62465   6.372   2.316   4.738  0.5563 -0.8299  0.0570
  463MOL0     H62466   6.613   2.287   4.824 -0.5012 -1.8639 -3.1113
  463MOL0     H62467   6.925   1.967   4.976 -0.1373 -0.3713  1.0426
  463MOL0     H62468   7.154   1.936   5.072  0.1987 -0.1785  1.5587
  463MOL0     H62469   7.390   2.318   5.148 -1.8662 -1.6658 -2.5942
  463MOL0     H62470   7.311   2.284   5.307 -1.7040 -1.3754 -0.6258
  463MOL0     H62471   7.488   2.091   5.325  0.6310  0.0712 -0.1292
  463MOL0     H62472   7.536   2.148   5.153  0.9045  1.1840 -0.1809
  463MOL0     H62473   7.612   2.356   5.230  2.0996  1.1543  2.1205
  463MOL0     H62474   7.563   2.315   5.397 -1.4126  0.6933  0.3025
  463MOL0     H62475   7.774   2.193   5.218  1.1058 -0.2467  0.1263
  463MOL0     H62476   7.736   2.139   5.382 -3.0991 -0.7983 -1.1726
  463MOL0     H62477   7.766   2.382   5.458  0.4864 -0.2783 -0.1389
  463MOL0     H62478   7.807   2.424   5.286 -2.1124  1.2589  0.7250
  463MOL0     H62479   7.993   2.416   5.468  0.8521 -1.3502  1.5978
  463MOL0     H62480   7.981   2.240   5.436  0.0915  0.5840  1.0405
  463MOL0     H62481   8.042   2.457   5.215 -0.8710  0.5191  1.9283
  463MOL0     H62482   7.986   2.298   5.176  0.3490 -1.3313  0.3551
  463MOL0     H62483   8.197   2.204   5.287 -0.9095 -0.5420 -0.4632
  463MOL0     H62484   8.246   2.329   5.178  1.2689  0.2455  1.6918
  463MOL0     H62485   7.173   2.364   5.110  1.0603  0.8311 -2.9351
  463MOL0     H62486   6.951   2.388   5.005 -3.1439 -0.9159  0.6737
  463MOL0     H62487   6.461   2.001   5.103  2.7880  2.1431  1.4577
  463MOL0     H62488   6.226   2.049   5.023  1.2917 -0.8079  2.1547
  463MOL0     H62489   4.585   2.916   5.251  1.7795 -0.7309  1.4446
  463MOL0     H62490   4.478   3.113   5.375 -1.2920 -4.2917 -0.4154
  463MOL0     H62491   4.193   3.525   5.225  0.9878 -0.6996  2.1535
  463MOL0     H62492   4.192   3.762   5.145  0.9785 -1.5524 -0.7984
  463MOL0     H62493   4.165   3.989   5.150  0.4773 -3.7571  0.5352
  463MOL0     H62494   4.208   4.126   5.253  1.1572 -0.8485  1.8499
  463MOL0     H62495   4.152   3.977   5.451  1.1982  1.1963 -0.3580
  463MOL0     H62496   4.057   3.872   5.333 -1.2836  0.4437  1.9139
  463MOL0     H62497   3.921   4.052   5.266 -0.5091 -0.9165  0.9139
  463MOL0     H62498   4.036   4.158   5.356 -0.0350 -0.1931  0.2472
  463MOL0     H62499   3.811   4.115   5.489 -4.0902 -3.0326 -2.5036
  463MOL0     H62500   3.840   3.947   5.462  0.9580 -0.8172  1.0032
  463MOL0     H62501   4.043   4.106   5.823  2.7699 -0.8081 -0.5193
  463MOL0     H62502   4.491   3.848   5.450 -0.3570  1.1631 -0.3144
  463MOL0     H62503   4.631   3.670   5.529  1.1671 -1.3094  0.5632
  463MOL0     H62504   4.558   3.515   5.542  3.9145  1.1817  2.2333
  463MOL0     H62505   4.645   3.574   5.394 -0.4794  0.4997 -0.7224
  464MOL0     O62506   7.712   2.375   7.785 -0.5138  0.0994 -0.6159
  464MOL0     C62507   7.632   2.330   7.704 -0.3690 -0.0330 -1.0048
  464MOL0     O62508   7.670   2.254   7.604  0.2159 -0.3041  0.8283
  464MOL0     C62509   7.800   2.202   7.615 -0.1862  1.1607  0.7725
  464MOL0     C62510   7.837   2.117   7.718 -0.5039  0.5217 -0.2808
  464MOL0     C62511   7.969   2.072   7.730 -0.7484 -0.3390  0.1402
  464MOL0     C62512   8.060   2.096   7.629  1.1757  0.1364 -0.0769
  464MOL0     O62513   8.188   2.046   7.639  0.0902 -0.1458 -0.2273
  464MOL0     C62514   8.283   2.095   7.545  0.5317 -0.5217 -0.6431
  464MOL0     C62515   8.425   2.061   7.593 -0.0313 -0.8373 -0.0634
  464MOL0     C62516   8.534   2.157   7.531 -0.3002 -0.7576  0.0941
  464MOL0     C62517   8.530   2.142   7.369  0.1543  0.0359  0.0478
  464MOL0     C62518   8.664   2.176   7.302  0.4432  0.1734  0.1353
  464MOL0     C62519   8.644   2.189   7.147 -0.1746  1.1741 -0.2743
  464MOL0     C62520   8.765   2.246   7.068 -0.0602  1.1532  0.0407
  464MOL0     C62521   8.733   2.250   6.912  0.2361  0.1693 -0.3611
  464MOL0     N62522   8.844   2.289   6.829  0.1650  0.4620  0.3128
  464MOL0     C62523   8.935   2.202   6.779  0.5670 -0.1664  0.4828
  464MOL0     C62524   9.024   2.293   6.731 -0.9054 -0.9470  0.0761
  464MOL0     C62525   9.150   2.250   6.646 -0.0595  0.2477 -0.6834
  464MOL0     C62526   9.267   2.196   6.737  1.2364 -0.5386 -1.3373
  464MOL0     C62527   9.293   2.267   6.872 -0.5003 -0.8202  0.2728
  464MOL0     C62528   9.344   2.407   6.843 -0.0252 -0.8283  0.7298
  464MOL0     O62529   9.476   2.417   6.789  0.1759  0.2643 -0.5400
  464MOL0     C62530   9.590   2.437   6.862 -0.4809  0.2932 -0.6362
  464MOL0     C62531   9.602   2.423   6.998  0.4214  0.1523  0.1444
  464MOL0     C62532   9.731   2.424   7.060  0.2845  0.6449  0.1653
  464MOL0     C62533   9.848   2.457   6.984  0.6146 -0.3190  0.0090
  464MOL0     C62534   9.984   2.459   7.039 -0.3276  0.7497 -0.2504
  464MOL0     O62535  10.082   2.459   6.952  0.1190 -0.6941  0.1172
  464MOL0     C62536  10.203   2.417   6.984 -1.4231  0.6181  0.1573
  464MOL0     C62537  10.277   2.338   6.890 -0.9789  0.3181  0.0213
  464MOL0     C62538  10.416   2.305   6.921 -0.2340 -0.2621  0.6584
  464MOL0     C62539  10.479   2.352   7.034  0.1456 -1.2365  0.1141
  464MOL0     O62540  10.605   2.309   7.062  0.2094 -0.5676  1.1154
  464MOL0     C62541  10.700   2.385   7.142  1.0231  0.0473 -0.4588
  464MOL0     C62542  10.764   2.513   7.079  0.2162 -0.4196  0.9614
  464MOL0     C62543  10.879   2.566   7.160 -0.2990 -0.1063  0.5466
  464MOL0     C62544  10.930   2.698   7.106  0.0768  0.1929 -0.2940
  464MOL0     C62545  11.044   2.737   7.194 -0.0307 -0.4335 -0.5289
  464MOL0     C62546  11.100   2.880   7.150  1.2078 -0.0230  0.0396
  464MOL0     C62547  11.231   2.901   7.227  0.3003  0.1220  0.7974
  464MOL0     C62548  11.299   3.027   7.189 -0.3147  0.3385  0.5149
  464MOL0    Cl62549  11.203   3.162   7.268 -0.1681 -0.1756  0.3288
  464MOL0     C62550  10.399   2.427   7.116  0.1868 -0.4497  0.3021
  464MOL0     C62551  10.265   2.465   7.099  0.7748 -0.1138 -0.0259
  464MOL0     O62552   9.997   2.429   7.153 -0.6188 -0.1202  0.3446
  464MOL0     C62553   9.826   2.477   6.839  0.0071  0.6208  0.2922
  464MOL0     C62554   9.704   2.453   6.787  0.2103 -0.7959 -0.1015
  464MOL0     N62555   8.988   2.418   6.760 -0.1943 -0.2095 -0.3017
  464MOL0     N62556   8.873   2.418   6.823 -1.2317 -0.0286 -0.0804
  464MOL0     C62557   8.013   2.169   7.516 -0.8313 -0.1078 -0.2347
  464MOL0     C62558   7.888   2.220   7.506  0.0368 -0.1576 -0.1955
  464MOL0     C62559   7.492   2.386   7.695 -0.2594  0.1530 -0.0017
  464MOL0     C62560   7.414   2.364   7.574 -0.6441  0.0715 -0.1915
  464MOL0     C62561   7.296   2.418   7.550  1.2140  0.8742  0.5135
  464MOL0     C62562   7.235   2.488   7.650 -0.0477  0.6445  0.0348
  464MOL0     O62563   7.116   2.555   7.651 -0.3477 -0.1038 -0.3562
  464MOL0     C62564   7.050   2.588   7.532  0.8323 -0.1774 -0.2466
  464MOL0     C62565   7.121   2.693   7.440  0.2966  0.4190  0.3456
  464MOL0     C62566   7.017   2.746   7.334  0.1134  0.2066 -0.2141
  464MOL0     C62567   7.068   2.872   7.270 -0.4459  0.2432 -0.0855
  464MOL0     C62568   7.053   2.986   7.363 -0.0834  0.7699  0.1619
  464MOL0     C62569   7.038   3.083   7.427 -0.8460  1.2081 -0.7691
  464MOL0     C62570   7.292   2.493   7.778 -1.0181  0.7942 -0.2205
  464MOL0     C62571   7.430   2.441   7.801  0.5352  0.1429 -0.6455
  464MOL0     C62572   7.491   2.466   7.937  0.1426 -1.0122  0.2859
  464MOL0     H62573   7.774   2.096   7.804  1.0559  1.5230  1.1900
  464MOL0     H62574   8.008   2.016   7.815 -0.4830  0.5716  0.6233
  464MOL0     H62575   8.260   2.057   7.444  1.0926 -0.8816 -0.6375
  464MOL0     H62576   8.271   2.203   7.543  2.0039 -0.3437 -1.9119
  464MOL0     H62577   8.439   1.958   7.560 -0.4964 -0.3776 -1.8302
  464MOL0     H62578   8.427   2.079   7.701 -0.3775  2.9794 -0.5210
  464MOL0     H62579   8.638   2.130   7.554  0.2612  0.0242 -1.3614
  464MOL0     H62580   8.523   2.257   7.574 -0.7149 -1.0084  0.5726
  464MOL0     H62581   8.502   2.040   7.341 -1.5793  0.3442  0.5214
  464MOL0     H62582   8.447   2.208   7.340  2.1969  2.5598 -0.3685
  464MOL0     H62583   8.684   2.274   7.347 -1.0207  0.5124  0.0883
  464MOL0     H62584   8.732   2.096   7.333 -1.0806 -1.2459 -0.0830
  464MOL0     H62585   8.605   2.095   7.106  1.6766 -0.2548  1.0448
  464MOL0     H62586   8.563   2.262   7.133  0.4195  1.7164 -0.9805
  464MOL0     H62587   8.857   2.188   7.077 -0.9466 -0.7066 -2.1504
  464MOL0     H62588   8.783   2.352   7.090 -0.8393  1.0959  0.9912
  464MOL0     H62589   8.702   2.155   6.868 -0.0355  0.5827 -1.0900
  464MOL0     H62590   8.648   2.316   6.891  1.9587  2.1551 -1.5236
  464MOL0     H62591   8.940   2.093   6.777  2.5744 -0.1412 -2.1764
  464MOL0     H62592   9.123   2.165   6.583  2.4545 -1.3533  0.2807
  464MOL0     H62593   9.177   2.339   6.587 -0.0353  0.6124 -0.1299
  464MOL0     H62594   9.239   2.092   6.759  0.3751 -0.2207 -0.8894
  464MOL0     H62595   9.364   2.183   6.688  2.4458 -0.2589  0.8490
  464MOL0     H62596   9.365   2.216   6.937  0.2304  1.2830  1.2132
  464MOL0     H62597   9.202   2.282   6.932 -0.8115  2.7518 -0.8744
  464MOL0     H62598   9.324   2.471   6.930 -0.7425  0.9764 -0.6881
  464MOL0     H62599   9.285   2.460   6.768  0.1923 -1.9733 -0.2662
  464MOL0     H62600   9.521   2.390   7.061  1.9854 -0.3190  2.0241
  464MOL0     H62601   9.745   2.397   7.164  0.3198 -3.1058 -0.6647
  464MOL0     H62602  10.223   2.301   6.803 -2.2730 -0.6056  1.1830
  464MOL0     H62603  10.456   2.235   6.849 -3.8846 -1.0986 -0.8093
  464MOL0     H62604  10.664   2.408   7.243  2.9398 -1.3264  0.5855
  464MOL0     H62605  10.777   2.309   7.158 -0.3754 -1.8601 -2.2303
  464MOL0     H62606  10.803   2.493   6.979  1.8591  0.8097  1.3133
  464MOL0     H62607  10.685   2.586   7.062  0.1717 -0.6670  0.0632
  464MOL0     H62608  10.847   2.575   7.264  0.5603 -1.2784  0.9352
  464MOL0     H62609  10.958   2.491   7.155  1.0935  1.3473 -0.1399
  464MOL0     H62610  10.846   2.768   7.104 -0.4558 -0.2844  2.2270
  464MOL0     H62611  10.968   2.670   7.007 -0.1276 -5.3812  0.8616
  464MOL0     H62612  11.121   2.666   7.163  1.6807  0.9621  0.3175
  464MOL0     H62613  11.022   2.729   7.301 -1.6182  1.7195 -0.6330
  464MOL0     H62614  11.116   2.880   7.042  1.0230  0.9067  0.0003
  464MOL0     H62615  11.035   2.966   7.171  0.8883 -0.2067 -0.1940
  464MOL0     H62616  11.294   2.815   7.204 -0.2435 -0.2132  0.5541
  464MOL0     H62617  11.213   2.897   7.335 -0.2813 -1.2692  0.6692
  464MOL0     H62618  11.400   3.028   7.231  0.4108  0.5857 -1.1225
  464MOL0     H62619  11.316   3.052   7.083  2.1777  1.0431  1.0280
  464MOL0     H62620  10.441   2.455   7.213 -0.7444 -0.9855  0.8750
  464MOL0     H62621  10.224   2.536   7.170  4.5201 -0.1481  2.4094
  464MOL0     H62622   9.913   2.477   6.774 -1.0392  0.2256 -1.1436
  464MOL0     H62623   9.701   2.439   6.679  1.0630  0.6321 -0.3407
  464MOL0     H62624   8.078   2.192   7.432 -1.7367  1.1734 -0.6166
  464MOL0     H62625   7.875   2.282   7.418  1.4439  0.6635  0.1384
  464MOL0     H62626   7.462   2.320   7.487 -0.7460  0.4202 -0.4266
  464MOL0     H62627   7.248   2.391   7.457  0.5242 -0.5692  1.2543
  464MOL0     H62628   6.946   2.614   7.555  0.9667 -0.0600  0.2376
  464MOL0     H62629   7.047   2.495   7.475  1.7745 -0.0186 -0.5807
  464MOL0     H62630   7.208   2.648   7.391  0.3784  1.2689 -0.3186
  464MOL0     H62631   7.158   2.773   7.506  0.5898  0.6268 -0.0615
  464MOL0     H62632   6.915   2.770   7.365 -0.3841  0.3322 -1.8649
  464MOL0     H62633   7.008   2.669   7.256  0.6912  0.3329 -0.4058
  464MOL0     H62634   7.171   2.873   7.235 -0.7150  0.7609 -0.8933
  464MOL0     H62635   7.009   2.897   7.181 -0.4143  0.0135 -0.1715
  464MOL0     H62636   7.034   3.180   7.473 -1.9945  2.1722 -2.7672
  464MOL0     H62637   7.231   2.548   7.849 -0.9820 -1.3585  1.6144
  464MOL0     H62638   7.514   2.369   7.982  0.3585 -0.6682  0.9293
  464MOL0     H62639   7.580   2.527   7.917 -0.2671 -0.9680 -1.5812
  464MOL0     H62640   7.414   2.515   7.997 -1.8160 -0.5289 -2.4229
  465MOL0     O62641   2.026   2.497   9.423  0.6304  0.6224  0.1391
  465MOL0     C62642   1.953   2.395   9.423 -0.3617 -0.1858  0.0753
  465MOL0     O62643   1.999   2.276   9.409  0.0218  0.4463  0.3061
  465MOL0     C62644   2.126   2.226   9.416 -0.5199 -0.2826 -0.1596
  465MOL0     C62645   2.245   2.290   9.446  0.4468 -0.4756  0.4080
  465MOL0     C62646   2.367   2.221   9.445  0.0745  0.6499  0.1025
  465MOL0     C62647   2.371   2.088   9.410  0.2187  0.0837 -0.5472
  465MOL0     O62648   2.485   2.021   9.421 -0.3106 -0.1660 -0.9824
  465MOL0     C62649   2.589   2.079   9.333  0.8257 -0.3406  0.4748
  465MOL0     C62650   2.709   1.982   9.362  0.7385  0.4735 -1.0596
  465MOL0     C62651   2.835   2.033   9.291 -1.1147  0.6924 -0.1683
  465MOL0     C62652   2.962   1.939   9.284 -0.4367 -0.0081  0.1404
  465MOL0     C62653   3.075   2.027   9.251 -0.6454 -0.4475  0.2945
  465MOL0     C62654   3.188   1.932   9.201 -0.3927 -0.3280 -0.2113
  465MOL0     C62655   3.171   1.887   9.053  0.2810 -0.2632 -0.2547
  465MOL0     C62656   3.283   1.945   8.975  0.3215  0.2345 -0.7473
  465MOL0     N62657   3.290   1.887   8.838 -0.7359 -0.8631 -0.4849
  465MOL0     C62658   3.339   1.959   8.730 -0.0337 -0.7000 -0.2550
  465MOL0     C62659   3.359   1.874   8.626  0.4239 -0.2237 -0.6786
  465MOL0     C62660   3.418   1.892   8.488  0.6509 -0.1573 -0.0774
  465MOL0     C62661   3.564   1.955   8.502  0.7353  1.5067  0.3486
  465MOL0     C62662   3.632   1.933   8.366  0.1038  0.2424  0.0008
  465MOL0     C62663   3.701   1.799   8.359  1.2806  0.3462 -0.6676
  465MOL0     O62664   3.778   1.791   8.243  0.4315 -0.3509  0.7248
  465MOL0     C62665   3.888   1.710   8.256 -1.5595 -0.5590 -0.4364
  465MOL0     C62666   3.894   1.595   8.186  0.5601 -0.4957  0.6682
  465MOL0     C62667   4.004   1.512   8.174 -0.1083 -0.5893 -0.5000
  465MOL0     C62668   4.125   1.542   8.243  0.7330 -0.5300  0.1079
  465MOL0     C62669   4.250   1.457   8.244  0.6285 -0.1731  0.4341
  465MOL0     O62670   4.354   1.516   8.309  0.2919  0.8134  0.8663
  465MOL0     C62671   4.480   1.464   8.330  1.3089  0.4066  0.4213
  465MOL0     C62672   4.559   1.553   8.405 -0.3961  0.4070  0.1986
  465MOL0     C62673   4.696   1.530   8.436 -0.5624 -0.6441  0.5360
  465MOL0     C62674   4.756   1.411   8.386 -0.5413  0.2749  0.1765
  465MOL0     O62675   4.896   1.402   8.422 -0.6246  0.7439 -0.0875
  465MOL0     C62676   4.966   1.288   8.370  0.2545  0.3240 -0.2261
  465MOL0     C62677   5.116   1.307   8.395  0.2058  0.3473  0.2934
  465MOL0     C62678   5.189   1.363   8.270  0.7486 -0.0694 -0.5414
  465MOL0     C62679   5.337   1.397   8.288 -0.0894 -0.0072 -0.1679
  465MOL0     C62680   5.414   1.405   8.152  0.5915  0.2583  0.1877
  465MOL0     C62681   5.563   1.409   8.192  0.0702 -0.8336 -0.2545
  465MOL0     C62682   5.661   1.458   8.091  0.4073  0.6288  0.4106
  465MOL0     C62683   5.800   1.476   8.145 -0.3991  0.4144  0.6333
  465MOL0    Cl62684   5.914   1.467   7.998  0.1167  0.3387  0.0818
  465MOL0     C62685   4.678   1.313   8.312  0.8178 -0.9739 -0.1971
  465MOL0     C62686   4.543   1.348   8.290  0.6145  0.1003  0.3744
  465MOL0     O62687   4.262   1.355   8.175 -0.2808  0.1233 -0.0202
  465MOL0     C62688   4.115   1.666   8.324 -0.4852 -0.1668  0.0307
  465MOL0     C62689   4.001   1.739   8.333  0.7918 -0.5378  0.3271
  465MOL0     N62690   3.291   1.750   8.669 -0.7351  0.7223  0.0532
  465MOL0     N62691   3.254   1.767   8.798  0.8703 -0.2952  0.6614
  465MOL0     C62692   2.250   2.031   9.365 -0.3691 -0.1722  0.3428
  465MOL0     C62693   2.130   2.098   9.369  0.4555  0.3373 -0.2744
  465MOL0     C62694   1.803   2.412   9.420 -0.4546  0.5862  0.6143
  465MOL0     C62695   1.758   2.527   9.488 -0.5726  0.9302 -0.7742
  465MOL0     C62696   1.620   2.545   9.514 -0.5925 -0.8461  0.0756
  465MOL0     C62697   1.531   2.462   9.448  1.2690  0.0025 -0.3400
  465MOL0     O62698   1.396   2.479   9.459 -0.4300 -0.3577 -0.2474
  465MOL0     C62699   1.323   2.358   9.491 -0.2736 -0.2546  0.6276
  465MOL0     C62700   1.188   2.407   9.531 -0.5388  0.2824  0.7954
  465MOL0     C62701   1.117   2.484   9.421 -0.4535 -0.5619 -0.1740
  465MOL0     C62702   1.037   2.386   9.343  0.5523  0.0424 -0.5689
  465MOL0     C62703   0.973   2.435   9.224 -0.8584 -0.5344 -0.1080
  465MOL0     C62704   0.923   2.460   9.123  0.1558 -0.0283  0.0914
  465MOL0     C62705   1.575   2.352   9.379  0.6571  0.5083 -0.0150
  465MOL0     C62706   1.711   2.313   9.370  0.0870  0.3809  0.4004
  465MOL0     C62707   1.750   2.194   9.287 -0.1675  0.0401  0.1680
  465MOL0     H62708   2.245   2.396   9.468  3.5216 -0.6676  1.9485
  465MOL0     H62709   2.452   2.274   9.485 -0.7480  1.3145  1.0220
  465MOL0     H62710   2.558   2.067   9.229  2.3700  1.5430 -0.2509
  465MOL0     H62711   2.624   2.181   9.349  2.3539 -1.0325  1.8127
  465MOL0     H62712   2.696   1.878   9.331  0.0037  0.1203  0.3623
  465MOL0     H62713   2.702   1.983   9.471 -1.0637  2.9573 -1.1145
  465MOL0     H62714   2.854   2.127   9.343 -2.9361  1.3061 -0.5364
  465MOL0     H62715   2.811   2.043   9.185  2.4187 -0.3769 -1.2110
  465MOL0     H62716   2.972   1.879   9.374 -1.8120 -0.5057 -0.0160
  465MOL0     H62717   2.958   1.874   9.196  1.1983  0.6018 -0.4158
  465MOL0     H62718   3.051   2.096   9.170  0.0799 -0.0302  0.4279
  465MOL0     H62719   3.105   2.093   9.333  0.0668 -0.2171 -0.1428
  465MOL0     H62720   3.284   1.984   9.212 -0.1350 -0.8534  0.0568
  465MOL0     H62721   3.186   1.843   9.265 -1.6457 -0.6440 -0.6693
  465MOL0     H62722   3.088   1.927   8.994  1.1843  1.2012 -0.5672
  465MOL0     H62723   3.168   1.778   9.056  3.7715 -0.4663  0.0978
  465MOL0     H62724   3.262   2.052   8.966  2.7303  0.7173 -1.5566
  465MOL0     H62725   3.377   1.935   9.031 -0.6822 -0.4823  0.8898
  465MOL0     H62726   3.366   2.064   8.729  1.3106 -1.0381 -1.0666
  465MOL0     H62727   3.416   1.787   8.454  1.5422 -0.4667  0.7923
  465MOL0     H62728   3.357   1.950   8.418  0.9532  0.3009  0.0376
  465MOL0     H62729   3.548   2.058   8.535  1.5243  1.7787 -0.1073
  465MOL0     H62730   3.619   1.911   8.585  1.4331  2.0061  0.1566
  465MOL0     H62731   3.712   2.007   8.358 -1.8848  2.5374  0.1625
  465MOL0     H62732   3.557   1.945   8.287 -2.1593 -2.2380  1.5786
  465MOL0     H62733   3.620   1.727   8.350 -0.3409  1.9006  0.8688
  465MOL0     H62734   3.752   1.781   8.454 -0.9468  2.3674  1.0363
  465MOL0     H62735   3.809   1.569   8.123 -1.3791  3.9887  1.0782
  465MOL0     H62736   3.992   1.428   8.106 -0.1516 -0.0423 -1.1661
  465MOL0     H62737   4.528   1.649   8.447 -0.4099  0.9554 -1.0278
  465MOL0     H62738   4.767   1.602   8.473  0.7565 -1.0859 -1.0234
  465MOL0     H62739   4.924   1.202   8.423  1.5032 -0.3508 -0.3028
  465MOL0     H62740   4.945   1.263   8.266 -1.3801 -4.1461  0.9493
  465MOL0     H62741   5.138   1.363   8.486  1.7688  2.2510 -1.1557
  465MOL0     H62742   5.148   1.204   8.414 -1.2585 -0.0343  0.8122
  465MOL0     H62743   5.184   1.291   8.188  1.9031 -0.6418 -0.1278
  465MOL0     H62744   5.132   1.449   8.235 -0.3393 -2.1778 -4.6418
  465MOL0     H62745   5.390   1.322   8.347  1.3336  0.5018 -0.7389
  465MOL0     H62746   5.350   1.488   8.348 -3.4559  0.8827 -0.5980
  465MOL0     H62747   5.386   1.495   8.096 -2.1426  1.2004  2.7397
  465MOL0     H62748   5.385   1.325   8.084 -1.4219 -0.9729  2.3296
  465MOL0     H62749   5.575   1.484   8.271  0.1358 -1.0497 -0.0577
  465MOL0     H62750   5.592   1.311   8.231  2.8273  0.8800  2.6351
  465MOL0     H62751   5.635   1.551   8.038 -2.4757 -0.7587 -0.8093
  465MOL0     H62752   5.667   1.379   8.016  2.5474  1.2958 -0.1866
  465MOL0     H62753   5.812   1.577   8.186  0.2471  0.2425  0.8943
  465MOL0     H62754   5.828   1.412   8.230 -3.8584  0.5319  2.0227
  465MOL0     H62755   4.719   1.217   8.282 -0.3890 -1.1197 -1.4883
  465MOL0     H62756   4.488   1.278   8.228  0.2361  1.1874 -0.5426
  465MOL0     H62757   4.202   1.703   8.378 -0.9507 -1.1006  1.4791
  465MOL0     H62758   3.978   1.835   8.378 -0.2370 -0.8562  0.4964
  465MOL0     H62759   2.245   1.930   9.325  1.0951 -1.1118  2.3262
  465MOL0     H62760   2.035   2.050   9.348  0.0614  0.9303  0.1172
  465MOL0     H62761   1.814   2.611   9.529 -0.2669 -0.3897  1.7131
  465MOL0     H62762   1.593   2.639   9.561  2.2362  0.2989 -0.3767
  465MOL0     H62763   1.370   2.290   9.563  0.2483 -1.0964 -0.4865
  465MOL0     H62764   1.304   2.302   9.400  0.9013  1.7660 -0.9409
  465MOL0     H62765   1.197   2.480   9.612 -0.7810  0.4082  0.7088
  465MOL0     H62766   1.124   2.326   9.567  0.3315 -0.2952  1.0735
  465MOL0     H62767   1.184   2.528   9.347 -0.2669 -2.7400 -1.3774
  465MOL0     H62768   1.052   2.562   9.462 -0.1914 -1.2371  1.6268
  465MOL0     H62769   1.095   2.298   9.315 -3.0999 -2.4291 -1.1019
  465MOL0     H62770   0.964   2.374   9.424  3.4390  2.4957  2.7368
  465MOL0     H62771   0.891   2.486   9.024 -0.2670  2.2955  0.7878
  465MOL0     H62772   1.512   2.283   9.324  1.2513 -2.2690  2.5312
  465MOL0     H62773   1.826   2.207   9.209  0.5343 -0.9447  0.6583
  465MOL0     H62774   1.806   2.127   9.353  1.0201  1.4254  0.6492
  465MOL0     H62775   1.662   2.147   9.244 -1.1928  1.5557  0.5116
  466MOL0     O62776   9.127   8.173   8.867 -0.1267  0.3940  0.6847
  466MOL0     C62777   9.106   8.148   8.985  0.1336 -0.5445 -0.2020
  466MOL0     O62778   9.193   8.181   9.094 -0.6422 -0.0343  0.0489
  466MOL0     C62779   9.305   8.249   9.072  0.0761 -0.5163 -0.7819
  466MOL0     C62780   9.296   8.368   9.003 -0.1015  0.1948 -0.2672
  466MOL0     C62781   9.410   8.447   8.993  0.6650 -1.1218 -0.0844
  466MOL0     C62782   9.527   8.402   9.048 -0.5874 -0.1949  0.4704
  466MOL0     O62783   9.633   8.484   9.021 -0.7784  0.5056 -0.6303
  466MOL0     C62784   9.763   8.437   9.037 -0.4677  0.2164 -0.3114
  466MOL0     C62785   9.859   8.552   9.011  0.0539  0.4747 -0.1201
  466MOL0     C62786   9.987   8.516   8.940 -0.2119  0.2706  0.6070
  466MOL0     C62787  10.065   8.638   8.891  1.1171 -0.5636  0.0540
  466MOL0     C62788  10.215   8.626   8.894 -0.0424 -0.8186  0.8577
  466MOL0     C62789  10.287   8.558   8.782  0.8255  0.2757  0.0668
  466MOL0     C62790  10.422   8.499   8.817 -1.6783  0.0877 -0.2487
  466MOL0     C62791  10.501   8.571   8.921 -0.0114  0.0572  0.0629
  466MOL0     N62792  10.639   8.532   8.914  0.6109 -0.5044  0.8834
  466MOL0     C62793  10.698   8.433   8.988  0.7594 -0.4924  0.9841
  466MOL0     C62794  10.817   8.420   8.936 -0.4957  0.0033  0.2592
  466MOL0     C62795  10.894   8.293   8.955  0.3802 -0.8031  0.4358
  466MOL0     C62796  11.026   8.317   9.035  0.6016 -0.2464  0.5866
  466MOL0     C62797  11.012   8.343   9.179 -0.6369 -0.2718 -0.5630
  466MOL0     C62798  11.156   8.316   9.242 -0.1416  0.0436 -0.4008
  466MOL0     O62799  11.231   8.428   9.213  0.2530 -0.9425  0.0276
  466MOL0     C62800  11.349   8.459   9.280 -0.1470  0.3061  0.2601
  466MOL0     C62801  11.399   8.380   9.387  0.0349  0.7503 -0.1282
  466MOL0     C62802  11.514   8.425   9.460  0.4655  0.6218 -0.7358
  466MOL0     C62803  11.566   8.551   9.439  0.4169 -0.4965 -0.5896
  466MOL0     C62804  11.696   8.578   9.488 -0.4821  0.1655 -0.2150
  466MOL0     O62805  11.722   8.713   9.482  0.4134 -0.0970  0.5387
  466MOL0     C62806  11.839   8.772   9.527  0.1054 -0.3814 -0.2586
  466MOL0     C62807  11.904   8.856   9.436 -0.0059  0.1445 -0.1265
  466MOL0     C62808  12.009   8.934   9.489 -0.4539  0.0112 -0.0768
  466MOL0     C62809  12.060   8.906   9.614 -0.6283  0.5800  0.3585
  466MOL0     O62810  12.184   8.957   9.653  0.1672 -0.0622 -0.1356
  466MOL0     C62811  12.286   8.852   9.636  1.1036  0.8604  0.7712
  466MOL0     C62812  12.389   8.867   9.745 -0.3218 -0.2755 -0.1975
  466MOL0     C62813  12.467   8.993   9.744 -1.0923 -0.6797 -0.2066
  466MOL0     C62814  12.552   8.999   9.869  0.2420  0.3999  0.4359
  466MOL0     C62815  12.650   9.108   9.862 -0.3845 -0.9429  0.0112
  466MOL0     C62816  12.737   9.103   9.991 -0.3322  0.4249 -0.4442
  466MOL0     C62817  12.843   8.984   9.991  0.5339  0.3781  0.2405
  466MOL0     C62818  12.949   9.030  10.090 -0.3016  0.5289 -0.1635
  466MOL0    Cl62819  13.082   8.918  10.094  0.2828  0.0728  0.1119
  466MOL0     C62820  12.001   8.816   9.703  0.4061  0.1747  0.7737
  466MOL0     C62821  11.886   8.755   9.654 -0.0620 -0.2349 -0.2825
  466MOL0     O62822  11.771   8.494   9.538  0.9988 -0.5965  0.3730
  466MOL0     C62823  11.512   8.627   9.338 -0.1761 -0.2032 -0.1687
  466MOL0     C62824  11.409   8.584   9.261  0.1928 -0.0107  0.9921
  466MOL0     N62825  10.837   8.515   8.836  0.4213 -0.4801  0.8514
  466MOL0     N62826  10.722   8.570   8.816 -0.2393 -0.2735  0.5314
  466MOL0     C62827   9.533   8.277   9.109 -0.3531  0.0161  1.2567
  466MOL0     C62828   9.427   8.198   9.116  0.3300  0.5994 -0.5815
  466MOL0     C62829   8.981   8.072   9.010 -0.4381  0.6737 -1.0710
  466MOL0     C62830   8.865   8.090   8.927  0.5279  1.1572 -0.1235
  466MOL0     C62831   8.757   7.996   8.944 -0.0483 -0.0693  0.4641
  466MOL0     C62832   8.763   7.892   9.037  0.1656  0.9831  0.9984
  466MOL0     O62833   8.656   7.808   9.047 -0.4668 -0.0607  0.9831
  466MOL0     C62834   8.525   7.834   9.003  0.3415  0.5064 -0.0949
  466MOL0     C62835   8.457   7.960   9.065 -0.0550  0.1867  0.4222
  466MOL0     C62836   8.439   7.943   9.223 -0.7656  0.2684  0.1379
  466MOL0     C62837   8.310   7.872   9.263 -0.7972 -0.1384  1.1712
  466MOL0     C62838   8.185   7.944   9.252  0.5206  1.1464  0.4391
  466MOL0     C62839   8.089   8.015   9.239  0.3465  0.3235  0.3329
  466MOL0     C62840   8.867   7.884   9.126  0.0762 -0.2834  0.5405
  466MOL0     C62841   8.979   7.970   9.107  0.3836 -0.1006  0.2690
  466MOL0     C62842   9.087   7.948   9.213 -0.0415 -0.6578  0.6559
  466MOL0     H62843   9.199   8.405   8.972  0.0449  1.1258  0.3526
  466MOL0     H62844   9.401   8.547   8.951  3.3493 -0.1589  1.3518
  466MOL0     H62845   9.764   8.401   9.140  0.5684  0.5925 -0.1744
  466MOL0     H62846   9.783   8.358   8.964  4.1818  3.1856 -2.7678
  466MOL0     H62847   9.880   8.614   9.099 -0.0547 -0.6008  0.6820
  466MOL0     H62848   9.796   8.622   8.956  0.1180  1.2310  0.7384
  466MOL0     H62849   9.968   8.454   8.852  2.2185  0.4579 -0.1232
  466MOL0     H62850  10.064   8.466   9.001  1.1630  0.5181 -0.8472
  466MOL0     H62851  10.039   8.668   8.790 -0.3849 -0.5986  0.4120
  466MOL0     H62852  10.048   8.724   8.956 -1.0675  0.1818 -1.4028
  466MOL0     H62853  10.254   8.728   8.902 -0.1910 -0.4600 -1.9518
  466MOL0     H62854  10.244   8.578   8.988 -1.4921 -0.2921  1.5937
  466MOL0     H62855  10.224   8.481   8.736  0.1285  1.8715 -1.7766
  466MOL0     H62856  10.287   8.631   8.701  1.4774 -1.0335 -1.1487
  466MOL0     H62857  10.484   8.492   8.728 -0.9718 -1.5059  0.3301
  466MOL0     H62858  10.417   8.397   8.858  2.2828  0.3629  1.3102
  466MOL0     H62859  10.486   8.678   8.908 -0.7363 -0.1078 -0.5579
  466MOL0     H62860  10.460   8.541   9.017 -0.6963 -0.4089 -0.3633
  466MOL0     H62861  10.649   8.347   9.033 -0.7706 -1.7507 -2.7729
  466MOL0     H62862  10.827   8.227   9.010 -2.6171  3.2298  2.1525
  466MOL0     H62863  10.934   8.251   8.861  1.8398  0.8424  0.2661
  466MOL0     H62864  11.077   8.223   9.014 -2.0269 -1.2513 -1.9497
  466MOL0     H62865  11.068   8.400   8.977 -3.9737  2.0592  0.1179
  466MOL0     H62866  10.944   8.270   9.225 -0.1417  1.7907  3.9901
  466MOL0     H62867  10.987   8.447   9.198  1.8424  0.0832  1.2639
  466MOL0     H62868  11.195   8.222   9.201 -1.0777 -1.2536  1.5449
  466MOL0     H62869  11.161   8.298   9.349  1.4445  0.9030 -0.3076
  466MOL0     H62870  11.358   8.282   9.405  3.4481 -0.9751 -0.9968
  466MOL0     H62871  11.549   8.361   9.540 -2.3831  0.1001  0.1916
  466MOL0     H62872  11.871   8.862   9.333 -2.6746  2.7298  0.7177
  466MOL0     H62873  12.068   8.994   9.421  0.9286  0.5361  1.5114
  466MOL0     H62874  12.248   8.750   9.647  0.5974  1.2545  3.0295
  466MOL0     H62875  12.328   8.862   9.535  1.1824  1.0346  0.8204
  466MOL0     H62876  12.328   8.865   9.836  0.8537  0.2898  0.6251
  466MOL0     H62877  12.458   8.782   9.738 -1.6778 -1.4552  0.2309
  466MOL0     H62878  12.537   9.010   9.662  0.0844  1.5926  1.1762
  466MOL0     H62879  12.396   9.076   9.731  0.6744  1.0733  0.7844
  466MOL0     H62880  12.599   8.900   9.876 -1.3976 -0.4117  0.3527
  466MOL0     H62881  12.486   9.028   9.950  0.9708  1.7225  0.5871
  466MOL0     H62882  12.601   9.205   9.852  2.9671  0.7409 -2.0196
  466MOL0     H62883  12.717   9.110   9.776 -2.9401  0.2829 -2.1007
  466MOL0     H62884  12.789   9.198  10.004  0.2175  0.2949 -1.5609
  466MOL0     H62885  12.671   9.083  10.075 -0.5145  0.1054 -0.6595
  466MOL0     H62886  12.883   8.971   9.889  2.9991  0.4619  1.1302
  466MOL0     H62887  12.799   8.888  10.020  0.1522  0.8017  1.0740
  466MOL0     H62888  12.985   9.133  10.082 -1.5658  0.8867 -1.4302
  466MOL0     H62889  12.905   9.021  10.190  2.2274  0.5338  1.0447
  466MOL0     H62890  12.038   8.788   9.800 -0.5704 -0.6240  0.9291
  466MOL0     H62891  11.820   8.685   9.704 -0.0114  0.6923  1.1467
  466MOL0     H62892  11.556   8.723   9.312 -0.8394 -0.0604 -0.7836
  466MOL0     H62893  11.381   8.622   9.163 -0.6000 -3.2067 -0.1437
  466MOL0     H62894   9.630   8.246   9.148  0.1581  0.3139  0.2464
  466MOL0     H62895   9.426   8.095   9.150  0.0760  1.5419  2.6118
  466MOL0     H62896   8.867   8.175   8.860  0.5877  1.7276  0.5908
  466MOL0     H62897   8.680   8.031   8.876  1.1243 -0.4751 -1.1509
  466MOL0     H62898   8.459   7.748   9.014 -0.8153  1.0925 -1.9846
  466MOL0     H62899   8.531   7.850   8.895  0.6813 -0.1652 -0.1812
  466MOL0     H62900   8.360   7.974   9.016  0.1883  2.3921  0.4947
  466MOL0     H62901   8.510   8.055   9.063  0.6382 -0.0915  2.4146
  466MOL0     H62902   8.434   8.044   9.267 -0.2693  0.8611 -1.1186
  466MOL0     H62903   8.518   7.879   9.263 -2.4369 -1.4186  0.8983
  466MOL0     H62904   8.306   7.774   9.215 -1.6446  1.0970 -1.4648
  466MOL0     H62905   8.328   7.856   9.370 -3.2781 -0.8827  1.5352
  466MOL0     H62906   8.007   8.083   9.229  1.3007  1.5098  0.3329
  466MOL0     H62907   8.878   7.806   9.201  0.7251 -1.0139 -0.2853
  466MOL0     H62908   9.188   7.949   9.172  0.4437 -1.7561  1.7682
  466MOL0     H62909   9.076   8.021   9.293 -0.4154 -1.3826  1.2806
  466MOL0     H62910   9.066   7.845   9.243 -0.5380 -1.6306 -2.5607
  467MOL0     O62911   8.816  10.186   1.782 -0.1871 -0.8009  0.7215
  467MOL0     C62912   8.735  10.278   1.768 -0.1618 -0.5867 -0.3197
  467MOL0     O62913   8.772  10.411   1.748 -0.3035  0.0570  0.6935
  467MOL0     C62914   8.900  10.445   1.733 -0.4370  0.2822  0.5169
  467MOL0     C62915   8.937  10.533   1.628  0.7835  0.6008 -1.0584
  467MOL0     C62916   9.065  10.588   1.613  0.4200  0.0231 -0.7927
  467MOL0     C62917   9.157  10.556   1.711 -1.0172 -1.5161  0.4527
  467MOL0     O62918   9.274  10.630   1.684 -0.0684  0.0161 -0.3783
  467MOL0     C62919   9.378  10.617   1.784  0.9436  0.1043 -0.4913
  467MOL0     C62920   9.469  10.732   1.780  0.4668 -0.4531 -0.4105
  467MOL0     C62921   9.578  10.697   1.880  0.6455 -0.5697  0.0166
  467MOL0     C62922   9.690  10.805   1.891  0.3901  0.5428 -0.3568
  467MOL0     C62923   9.809  10.742   1.968 -0.4830 -0.0730  0.6492
  467MOL0     C62924   9.924  10.851   2.000 -0.6695 -0.8948 -0.1639
  467MOL0     C62925  10.047  10.778   2.042 -0.2446  0.4621 -0.4333
  467MOL0     C62926  10.117  10.714   1.919  0.5197  0.4081  0.0601
  467MOL0     N62927  10.199  10.824   1.859  1.5128 -0.0703 -0.2808
  467MOL0     C62928  10.313  10.885   1.910 -0.9293  0.1738 -0.2982
  467MOL0     C62929  10.330  10.997   1.834  0.7693  0.4736 -0.9308
  467MOL0     C62930  10.440  11.102   1.851  0.3977  0.6784  0.5268
  467MOL0     C62931  10.544  11.098   1.733  0.2085  0.1537  0.3940
  467MOL0     C62932  10.601  11.231   1.698 -0.8945  0.3797 -0.2555
  467MOL0     C62933  10.721  11.223   1.607 -0.6024  1.2611 -1.1591
  467MOL0     O62934  10.840  11.197   1.688  0.3586  0.2216  0.6251
  467MOL0     C62935  10.960  11.220   1.630  0.2418 -0.4422 -0.5183
  467MOL0     C62936  11.003  11.279   1.514 -0.1059 -0.1919 -0.3166
  467MOL0     C62937  11.145  11.276   1.477 -0.1656 -0.8809  0.3930
  467MOL0     C62938  11.239  11.218   1.566 -0.2049  0.6782 -0.1073
  467MOL0     C62939  11.379  11.239   1.537 -0.3614  0.1334  0.4808
  467MOL0     O62940  11.411  11.325   1.436  0.5258 -0.1760 -1.6104
  467MOL0     C62941  11.542  11.345   1.417 -0.5732 -0.0612 -0.5212
  467MOL0     C62942  11.584  11.476   1.401  0.5318  0.0284  0.7600
  467MOL0     C62943  11.715  11.501   1.348  0.8675 -0.6889  0.1996
  467MOL0     C62944  11.811  11.394   1.327 -0.0445 -2.0126  0.6053
  467MOL0     O62945  11.926  11.435   1.264  0.5540 -0.1935 -0.9141
  467MOL0     C62946  12.032  11.339   1.274 -0.1976 -0.0171 -0.0121
  467MOL0     C62947  12.171  11.410   1.242  0.3320  0.0741  0.4838
  467MOL0     C62948  12.279  11.301   1.253 -0.1661 -0.6903  0.7495
  467MOL0     C62949  12.420  11.363   1.234 -0.6431 -0.2455  1.2370
  467MOL0     C62950  12.474  11.357   1.090  0.6749 -0.6240  0.0126
  467MOL0     C62951  12.626  11.327   1.080  0.4748 -0.9912 -0.1020
  467MOL0     C62952  12.698  11.448   1.141 -0.7441  0.2498 -0.3429
  467MOL0     C62953  12.715  11.554   1.029  1.0595 -0.8814  0.9161
  467MOL0    Cl62954  12.830  11.496   0.897 -0.3742  0.1420  0.0905
  467MOL0     C62955  11.763  11.265   1.321 -0.2590  0.7631 -0.8296
  467MOL0     C62956  11.636  11.245   1.376  0.5792  0.3127 -0.2682
  467MOL0     O62957  11.453  11.170   1.601  0.5049 -0.3185 -0.5862
  467MOL0     C62958  11.197  11.153   1.686  0.0205 -0.1230  0.3016
  467MOL0     C62959  11.061  11.158   1.709  0.6368  0.3865 -0.1154
  467MOL0     N62960  10.246  10.987   1.727 -0.2627 -0.3057  0.7939
  467MOL0     N62961  10.161  10.896   1.748 -0.9183  1.0770  0.6440
  467MOL0     C62962   9.131  10.461   1.815  0.5436  0.3736  0.6875
  467MOL0     C62963   9.001  10.407   1.828  0.8337  0.4567  0.5509
  467MOL0     C62964   8.587  10.247   1.762  0.7913  0.2578  0.1230
  467MOL0     C62965   8.505  10.323   1.678 -0.2905  0.1185  0.2615
  467MOL0     C62966   8.367  10.296   1.670 -0.0330 -0.4032 -0.5057
  467MOL0     C62967   8.304  10.195   1.737  0.0275 -0.2766  0.0101
  467MOL0     O62968   8.166  10.186   1.746 -0.3579 -0.6115  0.4240
  467MOL0     C62969   8.116  10.049   1.714 -0.3134  0.8058  0.6673
  467MOL0     C62970   7.958  10.042   1.724  0.3794 -0.2282  0.0607
  467MOL0     C62971   7.899   9.982   1.603 -0.5046  0.0168  0.2056
  467MOL0     C62972   7.754   9.959   1.620 -0.3343 -0.3702 -0.8908
  467MOL0     C62973   7.687  10.086   1.625 -0.4011 -0.0317  0.3743
  467MOL0     C62974   7.630  10.188   1.615 -0.0425 -1.1572 -0.3421
  467MOL0     C62975   8.380  10.113   1.816 -0.0407 -0.4903 -0.4641
  467MOL0     C62976   8.521  10.147   1.837  0.1319 -0.9297 -0.0743
  467MOL0     C62977   8.609  10.051   1.919 -0.6169 -0.5532 -0.5124
  467MOL0     H62978   8.857  10.559   1.560 -0.0751  0.1411 -0.2555
  467MOL0     H62979   9.083  10.654   1.529  0.6687 -1.9111 -2.3208
  467MOL0     H62980   9.335  10.631   1.884  0.9468  0.6071 -0.5606
  467MOL0     H62981   9.416  10.514   1.776 -4.8898 -2.4053 -0.8127
  467MOL0     H62982   9.425  10.822   1.823  2.8822 -0.3541  2.1290
  467MOL0     H62983   9.515  10.739   1.681 -1.1941 -0.5912 -1.2331
  467MOL0     H62984   9.621  10.600   1.854 -0.9542 -1.6984  1.3027
  467MOL0     H62985   9.529  10.680   1.977  1.2039 -0.3997  0.3305
  467MOL0     H62986   9.707  10.851   1.793 -1.5071 -0.0948 -1.0315
  467MOL0     H62987   9.660  10.885   1.959 -0.9072 -0.1025 -0.1392
  467MOL0     H62988   9.776  10.687   2.057  0.0671 -0.0884  0.8477
  467MOL0     H62989   9.845  10.662   1.901  0.3678  0.3258  0.6159
  467MOL0     H62990   9.932  10.911   1.909 -0.1110 -1.3209 -0.3973
  467MOL0     H62991   9.891  10.912   2.084 -1.2504 -0.9661 -0.3294
  467MOL0     H62992  10.010  10.698   2.107  1.4674  3.0047  4.1103
  467MOL0     H62993  10.102  10.849   2.105 -1.2662  1.3040 -0.4501
  467MOL0     H62994  10.177  10.631   1.959  2.0368 -0.7991 -4.1828
  467MOL0     H62995  10.041  10.674   1.851  0.1339  0.6487  0.3465
  467MOL0     H62996  10.381  10.856   1.990 -2.6579  1.4296  1.7532
  467MOL0     H62997  10.385  11.197   1.846  3.3790  2.4580 -0.6204
  467MOL0     H62998  10.497  11.082   1.942  0.0368  0.0272  0.6130
  467MOL0     H62999  10.621  11.028   1.769  0.3031 -0.1337 -0.3503
  467MOL0     H63000  10.489  11.055   1.649 -1.6295  3.0628 -0.0307
  467MOL0     H63001  10.639  11.273   1.792 -0.0552 -0.7752 -0.0610
  467MOL0     H63002  10.526  11.305   1.666  0.5335  1.4344 -1.2877
  467MOL0     H63003  10.730  11.322   1.561  0.2762  2.9062  2.2506
  467MOL0     H63004  10.702  11.149   1.529 -2.0905  2.3554 -1.8685
  467MOL0     H63005  10.927  11.320   1.448 -2.0564 -0.5727  1.5842
  467MOL0     H63006  11.166  11.321   1.380 -3.3012 -2.5248 -1.2116
  467MOL0     H63007  11.517  11.561   1.413 -2.7904 -1.6833 -2.9456
  467MOL0     H63008  11.752  11.601   1.325 -0.1454  0.3302  2.6487
  467MOL0     H63009  12.032  11.302   1.377 -1.2492 -1.8810 -0.6376
  467MOL0     H63010  12.014  11.261   1.200  2.0930  2.3686 -3.3682
  467MOL0     H63011  12.168  11.458   1.144  0.0622 -0.9137  0.0044
  467MOL0     H63012  12.180  11.487   1.319  3.1831 -0.4621  0.7972
  467MOL0     H63013  12.278  11.243   1.346  4.3719  0.5665  1.8456
  467MOL0     H63014  12.254  11.222   1.181  0.2144  0.5552 -0.7993
  467MOL0     H63015  12.475  11.291   1.295 -2.9016 -0.5559  3.0365
  467MOL0     H63016  12.429  11.459   1.285 -1.9550  1.6912 -1.8797
  467MOL0     H63017  12.453  11.450   1.037  0.7616 -1.3214 -1.2989
  467MOL0     H63018  12.418  11.275   1.043 -2.0690  0.5292  1.0771
  467MOL0     H63019  12.650  11.236   1.136  2.2112  0.3939  1.5135
  467MOL0     H63020  12.654  11.315   0.975 -1.7806  3.3192 -1.4384
  467MOL0     H63021  12.794  11.408   1.175 -0.3934  1.1280 -0.2766
  467MOL0     H63022  12.653  11.483   1.234 -0.5930  0.8504 -0.4919
  467MOL0     H63023  12.614  11.575   0.991  0.2463  1.0515  3.7937
  467MOL0     H63024  12.741  11.653   1.068  0.3679 -0.1435 -0.3787
  467MOL0     H63025  11.812  11.177   1.281  0.4951  1.1634 -0.8055
  467MOL0     H63026  11.601  11.142   1.367  0.6687  0.3267 -0.7826
  467MOL0     H63027  11.264  11.110   1.760  0.3187  0.1184  0.1759
  467MOL0     H63028  11.027  11.112   1.801  0.7666 -1.2747 -0.8617
  467MOL0     H63029   9.207  10.446   1.891 -2.3908  0.1288  3.8119
  467MOL0     H63030   8.962  10.341   1.905  0.0062 -0.3298 -0.5027
  467MOL0     H63031   8.559  10.392   1.614  1.5753 -3.0475 -1.8661
  467MOL0     H63032   8.301  10.362   1.615 -1.1821 -2.7390 -2.0535
  467MOL0     H63033   8.158   9.977   1.784 -1.9935 -1.7737 -0.8162
  467MOL0     H63034   8.154  10.029   1.613  0.0954 -2.1156  1.3180
  467MOL0     H63035   7.911  10.140   1.729 -2.2527 -0.9359 -4.6594
  467MOL0     H63036   7.936   9.982   1.812  2.4372  2.1289  2.3316
  467MOL0     H63037   7.943   9.884   1.583 -1.3989 -0.1708 -1.0323
  467MOL0     H63038   7.915  10.032   1.506  3.1006 -2.5271 -0.7230
  467MOL0     H63039   7.708   9.902   1.539 -3.2256  3.5249 -2.3450
  467MOL0     H63040   7.740   9.908   1.716  0.4369  1.7732  0.4500
  467MOL0     H63041   7.568  10.272   1.589  0.4758 -0.0238  1.8776
  467MOL0     H63042   8.348  10.027   1.874 -1.1058 -0.1604 -0.5530
  467MOL0     H63043   8.647   9.979   1.846  0.3595  1.1553 -1.7731
  467MOL0     H63044   8.692  10.089   1.979 -0.5623  1.3221 -1.6801
  467MOL0     H63045   8.540   9.994   1.981  0.2169 -0.9958  0.0361
  468MOL0     O63046  10.897   3.305   4.987 -0.1947 -0.1155  0.3667
  468MOL0     C63047  10.906   3.277   4.866  0.4364 -0.3400  0.8832
  468MOL0     O63048  11.023   3.266   4.792  1.1273 -0.2341  0.1517
  468MOL0     C63049  11.137   3.249   4.857 -0.7555  0.6162 -0.5502
  468MOL0     C63050  11.178   3.130   4.910  0.2959 -0.0256  1.1013
  468MOL0     C63051  11.295   3.115   4.980 -0.2064  0.4880 -0.9378
  468MOL0     C63052  11.375   3.227   5.001 -0.4533 -0.2920 -0.4526
  468MOL0     O63053  11.478   3.225   5.091  0.6090 -0.2648  0.8291
  468MOL0     C63054  11.593   3.137   5.067 -0.7268  0.1576 -0.6323
  468MOL0     C63055  11.675   3.177   4.939  0.4860 -0.0018  0.1340
  468MOL0     C63056  11.814   3.115   4.942  0.6000  0.8158 -0.2611
  468MOL0     C63057  11.913   3.181   5.037  0.7905 -0.4549  0.6789
  468MOL0     C63058  12.056   3.126   5.006  0.3208  0.8392 -0.7616
  468MOL0     C63059  12.152   3.190   5.107 -0.1764  0.4921  0.3579
  468MOL0     C63060  12.296   3.117   5.109  0.4354  0.2212 -0.8369
  468MOL0     C63061  12.388   3.193   5.019 -1.0318 -0.8880 -0.1294
  468MOL0     N63062  12.523   3.137   5.026 -0.5470  0.0940  0.8321
  468MOL0     C63063  12.594   3.110   4.914  0.8026  0.2177  0.7822
  468MOL0     C63064  12.702   3.047   4.955  0.0206 -0.1765  0.3385
  468MOL0     C63065  12.818   3.002   4.863  0.2598  0.7985  0.9826
  468MOL0     C63066  12.941   2.948   4.946 -0.0229 -0.6817 -0.1185
  468MOL0     C63067  13.043   2.851   4.876 -0.5913  0.3628  0.0723
  468MOL0     C63068  13.113   2.928   4.761  0.5198  0.2718 -1.1564
  468MOL0     O63069  13.196   3.033   4.816  0.1502  0.0837 -0.4077
  468MOL0     C63070  13.316   3.001   4.872  0.2328 -0.3291  0.1989
  468MOL0     C63071  13.388   3.101   4.934  0.3573 -0.5283  0.4952
  468MOL0     C63072  13.507   3.074   5.009 -0.6674 -0.5786 -0.1925
  468MOL0     C63073  13.560   2.943   5.026 -0.2020  0.4143  1.4302
  468MOL0     C63074  13.671   2.924   5.111  0.0748  0.4746  0.1836
  468MOL0     O63075  13.672   2.801   5.165 -0.3223 -0.0693 -0.0897
  468MOL0     C63076  13.763   2.767   5.261  0.0516  0.3138 -1.0204
  468MOL0     C63077  13.835   2.643   5.249  1.4537  0.0026 -0.5937
  468MOL0     C63078  13.929   2.603   5.345  0.5662  0.5148  0.1942
  468MOL0     C63079  13.952   2.686   5.457 -0.6190  0.7503  0.1459
  468MOL0     O63080  14.043   2.640   5.549 -0.3969  0.9408  0.1749
  468MOL0     C63081  14.108   2.740   5.629 -0.5601 -0.1531 -0.1520
  468MOL0     C63082  14.209   2.672   5.726  0.9156 -0.0160  0.2532
  468MOL0     C63083  14.280   2.783   5.805 -0.0792 -0.4132 -0.3397
  468MOL0     C63084  14.367   2.737   5.919  0.5005  0.6177  0.3427
  468MOL0     C63085  14.427   2.854   6.002  0.1939  0.4369  0.5480
  468MOL0     C63086  14.523   2.795   6.113  0.9635 -0.6729  0.7298
  468MOL0     C63087  14.651   2.727   6.058  0.2544 -0.0940  0.2122
  468MOL0     C63088  14.765   2.725   6.155  0.3270 -0.3997  0.5769
  468MOL0    Cl63089  14.898   2.625   6.091  0.1652  0.3529  0.4471
  468MOL0     C63090  13.880   2.804   5.466 -0.6094  0.2579  0.0691
  468MOL0     C63091  13.785   2.850   5.375  0.0788  0.9994  0.0257
  468MOL0     O63092  13.742   3.014   5.145 -0.4636 -0.3044  0.2241
  468MOL0     C63093  13.480   2.842   4.969 -0.2389  0.2921  0.5264
  468MOL0     C63094  13.371   2.864   4.890 -0.0460 -0.6530  0.4734
  468MOL0     N63095  12.708   3.050   5.090 -0.1881  0.5850 -0.5406
  468MOL0     N63096  12.599   3.092   5.133  0.4863  0.2071 -0.8892
  468MOL0     C63097  11.342   3.343   4.944  0.6436 -0.4343  0.0660
  468MOL0     C63098  11.228   3.361   4.859 -0.2272 -0.0386  0.0663
  468MOL0     C63099  10.771   3.257   4.806  0.9447  0.4385  0.4247
  468MOL0     C63100  10.764   3.268   4.666  0.1028 -0.6624 -0.8308
  468MOL0     C63101  10.641   3.272   4.586 -0.0723 -0.1671 -0.7096
  468MOL0     C63102  10.522   3.242   4.653 -0.0991 -0.5377  0.8062
  468MOL0     O63103  10.401   3.246   4.599  0.0601  1.1224 -0.0507
  468MOL0     C63104  10.383   3.332   4.487 -0.3203  0.0177  0.1368
  468MOL0     C63105  10.345   3.477   4.528  1.1450  1.1934 -0.0508
  468MOL0     C63106  10.189   3.477   4.553  0.2798 -0.1374  0.2936
  468MOL0     C63107  10.154   3.438   4.701  0.2889  0.9159 -1.5161
  468MOL0     C63108  10.191   3.533   4.808 -0.3888 -0.0569  0.5365
  468MOL0     C63109  10.224   3.598   4.906  0.6100  0.4314 -0.0369
  468MOL0     C63110  10.528   3.226   4.790  0.5256  0.4099  0.1414
  468MOL0     C63111  10.645   3.231   4.871  0.4136  1.1092 -0.6761
  468MOL0     C63112  10.617   3.205   5.022  0.7405  0.0597 -0.5553
  468MOL0     H63113  11.111   3.046   4.899  0.6775 -0.5487  2.5765
  468MOL0     H63114  11.324   3.020   5.024 -0.4421  0.7974 -0.0911
  468MOL0     H63115  11.652   3.144   5.159 -0.3810  0.8073 -0.9050
  468MOL0     H63116  11.571   3.030   5.064  3.9762 -1.0196 -0.1130
  468MOL0     H63117  11.680   3.286   4.930 -3.3933  0.3365  0.3891
  468MOL0     H63118  11.616   3.138   4.855 -1.7600  1.2897  1.0123
  468MOL0     H63119  11.858   3.107   4.842  1.8167  0.9460  0.2375
  468MOL0     H63120  11.799   3.012   4.976 -2.8344  0.2727 -2.8459
  468MOL0     H63121  11.899   3.289   5.029  1.6407 -0.4019 -0.3471
  468MOL0     H63122  11.878   3.160   5.138 -1.0395  1.3290  0.4665
  468MOL0     H63123  12.048   3.018   5.028 -3.2762  1.3190  1.1231
  468MOL0     H63124  12.085   3.157   4.906  0.8909  2.8522 -0.0220
  468MOL0     H63125  12.165   3.293   5.075  0.5887  0.1836 -0.3473
  468MOL0     H63126  12.105   3.186   5.206 -1.8044  1.8951 -0.3103
  468MOL0     H63127  12.281   3.012   5.085  0.8074  0.3749 -1.7760
  468MOL0     H63128  12.327   3.133   5.213  1.6426  1.1445 -1.3161
  468MOL0     H63129  12.349   3.175   4.918  1.2642 -0.7642 -1.1087
  468MOL0     H63130  12.384   3.297   5.052  1.0657 -0.9162  0.3152
  468MOL0     H63131  12.570   3.125   4.809 -0.0284 -0.0790  0.9225
  468MOL0     H63132  12.772   2.934   4.791 -1.7533  0.2857  2.6782
  468MOL0     H63133  12.862   3.081   4.800  2.7588 -1.7236 -0.6503
  468MOL0     H63134  12.989   3.038   4.987  0.3152  0.6824 -3.2387
  468MOL0     H63135  12.907   2.893   5.034 -0.6464 -0.9628 -0.5325
  468MOL0     H63136  12.979   2.769   4.843 -2.3160  2.9567 -3.8010
  468MOL0     H63137  13.121   2.821   4.946 -0.1451  1.0185 -0.1311
  468MOL0     H63138  13.048   2.964   4.681 -3.0128 -0.2680  1.2915
  468MOL0     H63139  13.183   2.859   4.712  2.8867  1.4288  0.3712
  468MOL0     H63140  13.358   3.205   4.924 -1.4240 -1.1174 -0.8552
  468MOL0     H63141  13.548   3.151   5.074 -1.0203 -1.7748  1.5199
  468MOL0     H63142  13.814   2.585   5.159 -1.8518 -1.0099  0.6835
  468MOL0     H63143  13.992   2.518   5.320  0.4836  0.3661  0.4942
  468MOL0     H63144  14.155   2.811   5.560 -0.5122  1.4970  1.4928
  468MOL0     H63145  14.044   2.790   5.703  0.4467  0.1564  0.5328
  468MOL0     H63146  14.155   2.605   5.793 -0.1707 -0.8100 -1.3396
  468MOL0     H63147  14.284   2.610   5.675 -0.6260 -1.8523  0.1065
  468MOL0     H63148  14.336   2.847   5.736 -1.3937  0.7013 -0.4009
  468MOL0     H63149  14.201   2.849   5.840 -0.3106 -0.9315  0.1382
  468MOL0     H63150  14.441   2.659   5.895  0.8598  0.6879  1.1947
  468MOL0     H63151  14.305   2.674   5.983  0.8755 -0.0742  0.0393
  468MOL0     H63152  14.341   2.903   6.049 -0.5360 -0.4359  0.1522
  468MOL0     H63153  14.468   2.932   5.938 -0.4420 -1.7895 -2.8719
  468MOL0     H63154  14.555   2.876   6.180  4.2412 -1.1825 -0.0829
  468MOL0     H63155  14.471   2.723   6.178  0.4587 -0.8092  0.1896
  468MOL0     H63156  14.683   2.770   5.962  1.0942 -0.0652  0.5020
  468MOL0     H63157  14.623   2.625   6.032  2.9028  0.0907 -4.2683
  468MOL0     H63158  14.799   2.828   6.175 -4.0278  1.9431 -2.5005
  468MOL0     H63159  14.728   2.686   6.250  0.6099  1.8605  1.6983
  468MOL0     H63160  13.897   2.870   5.551 -0.7536  0.8651 -0.3658
  468MOL0     H63161  13.740   2.948   5.382  1.2427  1.5779 -0.4924
  468MOL0     H63162  13.502   2.737   4.984 -0.6692  0.0911 -0.2108
  468MOL0     H63163  13.321   2.786   4.833 -2.9651  0.0696  1.8894
  468MOL0     H63164  11.394   3.434   4.972 -1.4872  0.1980  2.3209
  468MOL0     H63165  11.189   3.455   4.823  2.1829  0.9902 -0.0201
  468MOL0     H63166  10.851   3.281   4.602  0.6814 -1.0894 -0.1518
  468MOL0     H63167  10.652   3.284   4.479  1.2661 -0.7453 -0.6591
  468MOL0     H63168  10.302   3.287   4.429  1.2971 -0.9158 -1.5146
  468MOL0     H63169  10.470   3.314   4.423 -0.0051 -3.6966  1.4284
  468MOL0     H63170  10.356   3.550   4.447 -0.2086 -1.6742 -3.0976
  468MOL0     H63171  10.406   3.511   4.612  3.4181 -0.2751 -0.9985
  468MOL0     H63172  10.125   3.411   4.495 -0.8598  2.2287 -1.2952
  468MOL0     H63173  10.170   3.583   4.532  1.1827  0.2615  1.3716
  468MOL0     H63174  10.046   3.426   4.707  0.4670  0.1520  1.5952
  468MOL0     H63175  10.197   3.343   4.735  0.6514  1.9401  1.0625
  468MOL0     H63176  10.248   3.645   4.999  3.0323  0.3723 -0.5636
  468MOL0     H63177  10.436   3.210   4.844  1.3583  0.3337  1.5777
  468MOL0     H63178  10.690   3.135   5.065  0.3847 -1.3886 -2.1591
  468MOL0     H63179  10.615   3.300   5.075  4.0217  0.6946 -1.3113
  468MOL0     H63180  10.519   3.162   5.044  0.1789  1.9313  0.7873
  469MOL0     O63181   6.240   5.729   5.815 -0.1093  0.7369 -1.0643
  469MOL0     C63182   6.225   5.637   5.895 -0.5884  0.7904  0.8863
  469MOL0     O63183   6.324   5.573   5.974 -0.2506  0.1483 -0.9682
  469MOL0     C63184   6.456   5.612   5.974 -0.3936  0.0369  0.6470
  469MOL0     C63185   6.543   5.525   6.049  0.3083 -0.2054 -0.5616
  469MOL0     C63186   6.678   5.546   6.043  0.5583 -0.4694 -0.8493
  469MOL0     C63187   6.734   5.652   5.982 -0.2788 -0.4188 -0.0010
  469MOL0     O63188   6.875   5.666   6.010  0.4161 -0.1659 -0.1674
  469MOL0     C63189   6.960   5.719   5.906 -0.8554  0.1800  0.8950
  469MOL0     C63190   7.089   5.640   5.899 -0.4542  0.0417  0.7328
  469MOL0     C63191   7.193   5.736   5.841  0.8576  0.1567 -1.1012
  469MOL0     C63192   7.321   5.666   5.791 -0.0247 -0.7208 -0.1233
  469MOL0     C63193   7.397   5.761   5.703  0.1369 -0.2540  0.4685
  469MOL0     C63194   7.545   5.737   5.677  0.2148 -0.0452  0.5361
  469MOL0     C63195   7.628   5.833   5.592 -0.4643 -0.0341  0.4105
  469MOL0     C63196   7.788   5.838   5.598  0.5210 -0.2794 -0.0309
  469MOL0     N63197   7.854   5.895   5.720  0.3942 -0.5866  0.0463
  469MOL0     C63198   7.860   5.820   5.829  0.0030 -0.2552 -0.4340
  469MOL0     C63199   7.927   5.901   5.920  0.4633  0.5443  0.1136
  469MOL0     C63200   7.966   5.848   6.059  0.6872 -0.1730  0.2910
  469MOL0     C63201   8.105   5.792   6.063 -0.0875  1.1088  0.1602
  469MOL0     C63202   8.208   5.902   6.014  0.0722 -0.4408 -0.0173
  469MOL0     C63203   8.355   5.869   6.023 -0.2674  0.2653 -0.1895
  469MOL0     O63204   8.419   5.952   5.928  0.3708  0.8706  0.1798
  469MOL0     C63205   8.554   5.946   5.940 -0.3023 -0.0856 -0.0829
  469MOL0     C63206   8.618   6.034   5.850  0.0834  0.0539 -0.2770
  469MOL0     C63207   8.756   6.051   5.857  0.4812 -0.3721 -0.1728
  469MOL0     C63208   8.828   5.988   5.955 -0.2613  0.4582 -0.5875
  469MOL0     C63209   8.977   6.001   5.947  0.4343 -0.5551 -0.6136
  469MOL0     O63210   9.054   5.921   6.043  0.3937 -0.3239  0.8042
  469MOL0     C63211   9.190   5.959   6.052  0.5918  1.3708  0.4925
  469MOL0     C63212   9.233   6.090   6.079  0.8202 -0.0330 -0.2476
  469MOL0     C63213   9.370   6.115   6.085 -0.4927  1.2179  0.1479
  469MOL0     C63214   9.467   6.016   6.062  0.0567 -0.2724  0.5167
  469MOL0     O63215   9.606   6.041   6.058  0.3932 -0.6805 -0.4314
  469MOL0     C63216   9.629   6.170   5.999  0.1233 -0.2661  0.6826
  469MOL0     C63217   9.771   6.180   5.935 -0.0158 -0.2666  0.9145
  469MOL0     C63218   9.789   6.102   5.800  0.5818  0.2148  0.1216
  469MOL0     C63219   9.930   6.040   5.782  0.3661 -0.1595 -0.9041
  469MOL0     C63220   9.920   5.969   5.645  0.0170 -0.3370  0.0094
  469MOL0     C63221  10.020   5.855   5.642  0.6557 -0.3622  0.2357
  469MOL0     C63222  10.015   5.762   5.521  0.3935 -1.2529  0.3505
  469MOL0     C63223  10.138   5.669   5.513  0.7017 -0.6687  0.4351
  469MOL0    Cl63224  10.293   5.763   5.543  0.1320 -0.2160 -0.3068
  469MOL0     C63225   9.420   5.901   6.018 -0.4130 -0.5496 -0.2646
  469MOL0     C63226   9.290   5.861   6.031 -0.2052  0.0775  0.2480
  469MOL0     O63227   9.027   6.080   5.865 -0.5400  0.6106  0.5910
  469MOL0     C63228   8.773   5.896   6.051 -0.4570 -0.8729 -0.0656
  469MOL0     C63229   8.631   5.875   6.039  0.2229  1.0414 -0.3875
  469MOL0     N63230   7.948   6.028   5.870 -1.0316  0.6375  0.1136
  469MOL0     N63231   7.913   6.019   5.738 -0.8296 -0.2790 -0.8314
  469MOL0     C63232   6.656   5.742   5.912 -0.6591  0.1091  0.1099
  469MOL0     C63233   6.517   5.723   5.907 -0.0487 -0.5545 -0.2895
  469MOL0     C63234   6.095   5.573   5.894  0.0511  0.7257 -0.9432
  469MOL0     C63235   6.068   5.472   5.989 -0.4154 -0.7131 -0.8611
  469MOL0     C63236   5.945   5.398   6.007  0.2913 -1.2075 -0.3990
  469MOL0     C63237   5.836   5.437   5.918 -0.6184 -0.1447 -0.0615
  469MOL0     O63238   5.719   5.360   5.889 -0.8591 -0.7245 -0.3306
  469MOL0     C63239   5.705   5.231   5.952 -0.5544  0.7094 -0.2897
  469MOL0     C63240   5.578   5.158   5.908 -0.3245 -0.1784 -0.3329
  469MOL0     C63241   5.585   5.102   5.768 -0.8758  0.4533  0.1229
  469MOL0     C63242   5.445   5.054   5.705 -0.8356 -0.0000 -0.3317
  469MOL0     C63243   5.389   4.952   5.792  0.1776  0.5124 -0.4444
  469MOL0     C63244   5.327   4.872   5.853  0.6411  0.1810 -1.2249
  469MOL0     C63245   5.865   5.538   5.830 -0.3012  1.0567  0.0469
  469MOL0     C63246   5.988   5.607   5.809 -0.7517 -0.3660  0.5950
  469MOL0     C63247   5.981   5.725   5.714  0.0647  1.2483  0.4803
  469MOL0     H63248   6.501   5.437   6.097  0.5386 -0.6083 -1.0884
  469MOL0     H63249   6.758   5.497   6.098  1.3321  1.6833  0.0872
  469MOL0     H63250   6.901   5.724   5.814 -0.1314  0.7848  0.4594
  469MOL0     H63251   6.996   5.821   5.916 -0.3181  0.3786 -2.1416
  469MOL0     H63252   7.077   5.550   5.838 -0.7944 -0.9528  2.2137
  469MOL0     H63253   7.126   5.608   5.997  1.8195 -0.2017 -0.1472
  469MOL0     H63254   7.225   5.813   5.912 -0.2260 -1.6540  1.5114
  469MOL0     H63255   7.142   5.782   5.756 -3.4740 -1.4677  0.3443
  469MOL0     H63256   7.388   5.626   5.868 -1.2070  1.0832  1.9459
  469MOL0     H63257   7.281   5.583   5.732 -5.4823  0.2508  1.6497
  469MOL0     H63258   7.353   5.761   5.602  2.2316  1.5487 -0.5350
  469MOL0     H63259   7.379   5.863   5.738 -1.3835 -0.1416 -0.5294
  469MOL0     H63260   7.594   5.737   5.775  0.3914  0.6832  0.4501
  469MOL0     H63261   7.557   5.637   5.633 -3.6033 -0.4990  0.1892
  469MOL0     H63262   7.584   5.931   5.615 -2.7829 -0.7974 -0.4608
  469MOL0     H63263   7.608   5.812   5.486  4.0216 -0.8288 -0.4741
  469MOL0     H63264   7.825   5.736   5.586  1.0989  0.0313 -0.9747
  469MOL0     H63265   7.819   5.899   5.512  0.9266  0.6351  0.7457
  469MOL0     H63266   7.835   5.715   5.841  0.4128 -0.4784 -1.4416
  469MOL0     H63267   7.956   5.930   6.131  0.4382 -1.5686  1.9177
  469MOL0     H63268   7.892   5.775   6.091  0.4429 -0.3201 -0.6003
  469MOL0     H63269   8.140   5.757   6.161  2.1126  0.6376 -0.7480
  469MOL0     H63270   8.115   5.706   5.997  1.0310  1.4026 -0.0692
  469MOL0     H63271   8.190   5.986   6.081 -3.7880 -1.9229  1.0823
  469MOL0     H63272   8.188   5.934   5.912 -1.1752  2.5489  1.0545
  469MOL0     H63273   8.367   5.761   6.008 -0.6529 -0.1756  2.2818
  469MOL0     H63274   8.391   5.890   6.124  2.5613 -5.7630  0.4960
  469MOL0     H63275   8.553   6.071   5.771 -2.0750 -1.9408  0.4559
  469MOL0     H63276   8.805   6.111   5.781  1.0832  0.0306  0.5238
  469MOL0     H63277   9.160   6.169   6.095  1.9497  1.2881 -1.3343
  469MOL0     H63278   9.409   6.214   6.108 -0.1405  0.6761  2.0690
  469MOL0     H63279   9.564   6.174   5.911 -1.1714 -1.7036  1.5404
  469MOL0     H63280   9.616   6.255   6.066  2.4464 -0.9358  2.1097
  469MOL0     H63281   9.798   6.280   5.901  3.4314 -1.2253  0.5113
  469MOL0     H63282   9.845   6.157   6.013  0.6908  1.5953  0.8335
  469MOL0     H63283   9.715   6.021   5.797 -1.8236  2.2334  1.3550
  469MOL0     H63284   9.765   6.172   5.719  1.8556 -0.7823 -1.1743
  469MOL0     H63285   9.956   5.964   5.857 -1.5282 -0.8485 -0.9057
  469MOL0     H63286  10.006   6.118   5.773 -2.1349  2.2031 -3.8096
  469MOL0     H63287   9.927   6.036   5.559 -0.0333 -2.2445 -1.5808
  469MOL0     H63288   9.827   5.911   5.641 -1.1458  1.4792 -0.2086
  469MOL0     H63289  10.121   5.895   5.657  0.7779 -0.8716  0.8024
  469MOL0     H63290   9.998   5.795   5.731 -0.5919 -0.2977 -0.0143
  469MOL0     H63291   9.999   5.815   5.426  0.3597 -0.1786  0.9354
  469MOL0     H63292   9.931   5.694   5.537  0.4928 -0.9477  2.4825
  469MOL0     H63293  10.124   5.592   5.588  0.4381 -0.7742  0.2800
  469MOL0     H63294  10.150   5.611   5.421 -1.4668 -1.1369  0.3956
  469MOL0     H63295   9.493   5.830   5.982 -0.3091  0.2513 -1.7022
  469MOL0     H63296   9.263   5.762   5.998  0.7864 -0.9274  2.2537
  469MOL0     H63297   8.841   5.845   6.119  2.0377  1.1409 -0.8969
  469MOL0     H63298   8.587   5.799   6.103  2.4281 -0.4786 -0.5818
  469MOL0     H63299   6.711   5.821   5.861 -0.9190 -0.4076 -0.9984
  469MOL0     H63300   6.456   5.795   5.853 -0.1407  2.5285  3.4934
  469MOL0     H63301   6.147   5.429   6.051 -1.5892 -1.6455  0.0354
  469MOL0     H63302   5.940   5.321   6.083  2.4528 -1.6827 -0.6816
  469MOL0     H63303   5.691   5.264   6.055  0.8096 -0.4053  0.2744
  469MOL0     H63304   5.793   5.167   5.943 -0.6630  0.8418 -3.3655
  469MOL0     H63305   5.506   5.240   5.902 -2.0550 -1.3121  2.7893
  469MOL0     H63306   5.538   5.090   5.984 -1.1977  1.4991  0.7696
  469MOL0     H63307   5.644   5.010   5.772 -2.9194 -0.9636 -0.2988
  469MOL0     H63308   5.626   5.172   5.694 -2.2040  1.8214  0.6161
  469MOL0     H63309   5.369   5.133   5.708  1.4324  2.3260  2.3674
  469MOL0     H63310   5.468   5.018   5.604 -0.4895 -1.3955  0.2213
  469MOL0     H63311   5.276   4.793   5.905 -2.1011  1.7357 -1.3583
  469MOL0     H63312   5.785   5.573   5.765 -0.7920 -1.5484 -0.8432
  469MOL0     H63313   6.043   5.704   5.627  1.2518  0.2805  1.5176
  469MOL0     H63314   5.883   5.752   5.674  0.1356  0.2070 -0.4031
  469MOL0     H63315   6.023   5.812   5.767  2.5285  0.7744 -0.5462
  470MOL0     O63316   9.636   9.333   8.081  0.1752  0.5157  1.0168
  470MOL0     C63317   9.585   9.223   8.052  0.1337  0.1185 -0.2827
  470MOL0     O63318   9.624   9.140   7.955  0.0897  0.3362  0.2913
  470MOL0     C63319   9.739   9.161   7.892  0.3328  0.7854  0.3370
  470MOL0     C63320   9.850   9.096   7.943 -0.2405  0.1082 -0.2158
  470MOL0     C63321   9.971   9.122   7.894 -0.5741 -0.0575  0.5171
  470MOL0     C63322   9.985   9.200   7.781 -1.1249  0.5198 -0.3727
  470MOL0     O63323  10.108   9.202   7.715  0.0622 -0.1938  0.2844
  470MOL0     C63324  10.109   9.244   7.575  0.3683 -0.3051 -0.2609
  470MOL0     C63325  10.252   9.239   7.516 -0.5022 -1.1035  0.0108
  470MOL0     C63326  10.351   9.326   7.595 -0.2208  0.3433 -0.8115
  470MOL0     C63327  10.486   9.338   7.521  0.2931  0.3524  0.1800
  470MOL0     C63328  10.489   9.398   7.380  0.3128 -0.1232  0.0580
  470MOL0     C63329  10.434   9.535   7.381 -0.2723  0.2156  0.2046
  470MOL0     C63330  10.467   9.601   7.243  0.7516  0.2098 -0.1688
  470MOL0     C63331  10.389   9.729   7.220  0.2159  0.9293  0.7283
  470MOL0     N63332  10.437   9.850   7.287  0.5046  0.1349  0.3877
  470MOL0     C63333  10.541   9.930   7.254 -0.2255 -0.1462  0.3213
  470MOL0     C63334  10.541  10.024   7.343  0.0031  0.7128  0.2248
  470MOL0     C63335  10.634  10.143   7.344 -0.4187  0.0223 -0.8283
  470MOL0     C63336  10.735  10.136   7.456 -1.0307  0.2121  0.7980
  470MOL0     C63337  10.845  10.025   7.423 -0.1723  0.1064 -0.5272
  470MOL0     C63338  10.953  10.013   7.537 -0.5343 -0.5255  0.4353
  470MOL0     O63339  11.068   9.952   7.475 -0.0445 -1.1264  0.0189
  470MOL0     C63340  11.182   9.959   7.558 -0.8556 -0.7495  0.4702
  470MOL0     C63341  11.194  10.038   7.676 -0.9961 -0.4522 -0.1961
  470MOL0     C63342  11.313  10.031   7.755  0.5584 -0.7671 -0.0893
  470MOL0     C63343  11.421   9.940   7.720 -0.0546  0.4526 -0.3981
  470MOL0     C63344  11.533   9.918   7.817  0.4130 -0.5369 -1.0723
  470MOL0     O63345  11.633   9.832   7.788  0.3016 -0.0828  0.4672
  470MOL0     C63346  11.770   9.859   7.812 -0.2498  0.5216 -1.5010
  470MOL0     C63347  11.863   9.763   7.776 -0.0818 -0.1220  1.0723
  470MOL0     C63348  12.003   9.762   7.804 -0.2048 -1.3621 -0.0534
  470MOL0     C63349  12.044   9.873   7.890 -0.4057  0.0076  0.4847
  470MOL0     O63350  12.177   9.869   7.926 -0.0846  0.0831  0.0971
  470MOL0     C63351  12.245   9.974   8.006 -0.0574  1.2464 -0.7413
  470MOL0     C63352  12.397   9.948   8.034  1.2346  0.2336  0.0701
  470MOL0     C63353  12.471  10.066   8.097 -0.1429 -0.5624  0.3716
  470MOL0     C63354  12.622  10.044   8.116 -0.1230  0.4220 -0.6664
  470MOL0     C63355  12.691  10.174   8.155 -0.1112 -0.0610 -0.4071
  470MOL0     C63356  12.841  10.174   8.126 -0.4733 -0.1324 -0.6685
  470MOL0     C63357  12.900  10.307   8.165  0.7238 -0.2470 -0.6316
  470MOL0     C63358  13.050  10.299   8.163  0.6769 -0.3214  0.1364
  470MOL0    Cl63359  13.112  10.247   8.317 -0.1127  0.3777  0.0302
  470MOL0     C63360  11.956   9.971   7.930  0.6542 -0.0652 -0.4488
  470MOL0     C63361  11.817   9.956   7.901 -0.0656 -0.6237  0.0543
  470MOL0     O63362  11.542  10.006   7.902  0.1121  0.1832 -0.0574
  470MOL0     C63363  11.403   9.855   7.605 -0.0272 -0.3269 -0.2743
  470MOL0     C63364  11.288   9.877   7.524 -0.7600 -0.1096  0.9192
  470MOL0     N63365  10.435  10.001   7.432  0.3602 -0.7756 -0.6217
  470MOL0     N63366  10.377   9.893   7.401  0.0671  0.9923  0.2639
  470MOL0     C63367   9.875   9.266   7.731  0.0956 -1.3307 -0.1425
  470MOL0     C63368   9.751   9.238   7.777 -0.4819 -0.3926  0.1922
  470MOL0     C63369   9.458   9.183   8.116  0.3935  0.5194 -0.0342
  470MOL0     C63370   9.460   9.184   8.258  0.2317 -0.9905  0.2095
  470MOL0     C63371   9.355   9.139   8.329  1.0155  0.0189  0.3350
  470MOL0     C63372   9.243   9.098   8.259  0.3572  0.7550  0.6807
  470MOL0     O63373   9.119   9.056   8.310 -0.1619  0.2832  0.3821
  470MOL0     C63374   9.092   9.081   8.443 -0.8056  0.1842 -0.3592
  470MOL0     C63375   8.949   9.084   8.466  0.1771 -0.3021  0.0514
  470MOL0     C63376   8.877   9.200   8.388 -0.6552 -0.2526  0.0898
  470MOL0     C63377   8.900   9.331   8.461 -0.4219 -0.8235 -0.6325
  470MOL0     C63378   8.792   9.430   8.443 -0.3209 -0.2498 -0.5128
  470MOL0     C63379   8.700   9.505   8.450  0.1272 -0.0025 -0.2541
  470MOL0     C63380   9.233   9.096   8.118 -0.1552 -0.4721 -0.2570
  470MOL0     C63381   9.342   9.139   8.050  0.5719 -0.5574  1.0794
  470MOL0     C63382   9.325   9.137   7.900  0.8709 -0.3739  0.1551
  470MOL0     H63383   9.846   9.035   8.033  3.6209 -1.8384 -1.1432
  470MOL0     H63384  10.069   9.092   7.931 -0.9008 -1.3245  0.3869
  470MOL0     H63385  10.037   9.192   7.509  0.0965  1.9935 -1.9047
  470MOL0     H63386  10.077   9.348   7.576 -0.1186 -0.4441  1.4159
  470MOL0     H63387  10.253   9.267   7.411 -2.1163  0.4073  0.3530
  470MOL0     H63388  10.282   9.134   7.523 -0.8444 -1.1216  1.7507
  470MOL0     H63389  10.353   9.284   7.696 -3.5500 -0.0423 -0.7809
  470MOL0     H63390  10.310   9.427   7.599  0.2224  0.5197 -0.6526
  470MOL0     H63391  10.554   9.399   7.581 -1.0052  1.9534  0.1232
  470MOL0     H63392  10.515   9.235   7.500 -3.3740 -1.0166  1.0093
  470MOL0     H63393  10.597   9.399   7.363  0.4232 -0.3933  0.7195
  470MOL0     H63394  10.436   9.333   7.310  2.4455 -0.0080 -1.7500
  470MOL0     H63395  10.326   9.544   7.399 -0.7424 -1.5357 -1.4310
  470MOL0     H63396  10.478   9.605   7.453 -2.9735  1.0424  1.1962
  470MOL0     H63397  10.444   9.529   7.165  3.7771  0.4966 -1.4615
  470MOL0     H63398  10.573   9.629   7.239  0.8572 -0.3381 -2.6646
  470MOL0     H63399  10.402   9.766   7.118 -1.6452  2.5542  1.0007
  470MOL0     H63400  10.281   9.720   7.241 -0.1331 -0.6829 -1.4505
  470MOL0     H63401  10.619   9.932   7.179 -0.1638  1.4064  0.3943
  470MOL0     H63402  10.674  10.150   7.242  2.7938 -2.1519  0.1338
  470MOL0     H63403  10.569  10.229   7.360  0.6413  0.4445  1.5235
  470MOL0     H63404  10.774  10.238   7.472 -1.4109  0.0712  2.9639
  470MOL0     H63405  10.690  10.109   7.552 -1.5398 -3.5697 -0.3734
  470MOL0     H63406  10.895  10.059   7.332 -0.2248  0.2133 -0.5167
  470MOL0     H63407  10.801   9.929   7.395  2.5533 -1.1465 -0.7766
  470MOL0     H63408  10.903   9.946   7.608 -2.3794  0.3381  0.0077
  470MOL0     H63409  10.960  10.116   7.573 -2.4047  1.3147 -3.8471
  470MOL0     H63410  11.116  10.112   7.692 -1.5170 -0.6404 -1.7308
  470MOL0     H63411  11.316  10.096   7.842 -1.1025 -3.6489  2.2943
  470MOL0     H63412  11.815   9.687   7.714 -1.8626  2.1294 -0.4906
  470MOL0     H63413  12.079   9.693   7.768 -1.0332 -1.8410 -0.8983
  470MOL0     H63414  12.237  10.063   7.943  0.7242  1.9874  0.1732
  470MOL0     H63415  12.199   9.995   8.103  2.2132  1.8642  0.2731
  470MOL0     H63416  12.406   9.859   8.096 -2.5418 -1.0121 -0.8975
  470MOL0     H63417  12.438   9.917   7.937  1.8236 -0.3595  0.5073
  470MOL0     H63418  12.452  10.148   8.026 -0.9294 -1.2517 -0.2403
  470MOL0     H63419  12.414  10.101   8.184  1.2279  4.1182 -0.2979
  470MOL0     H63420  12.655  10.002   8.021 -2.5980  0.3754 -1.5966
  470MOL0     H63421  12.642   9.973   8.197 -1.4466 -1.4502 -1.9068
  470MOL0     H63422  12.671  10.198   8.259  2.5738 -0.8608  0.3715
  470MOL0     H63423  12.646  10.258   8.101 -0.5687 -1.1056 -1.7214
  470MOL0     H63424  12.890  10.089   8.175 -0.1567  0.2530 -0.3102
  470MOL0     H63425  12.856  10.160   8.019 -3.0426  0.3614 -1.1559
  470MOL0     H63426  12.870  10.328   8.268  0.5782  0.2796 -0.7784
  470MOL0     H63427  12.869  10.391   8.101  2.2016 -1.0940 -2.5677
  470MOL0     H63428  13.092  10.236   8.084 -1.4914 -0.2417 -1.1955
  470MOL0     H63429  13.084  10.402   8.150 -1.1393  0.2675 -0.3652
  470MOL0     H63430  11.976  10.042   8.010  1.1012 -1.0763  0.3434
  470MOL0     H63431  11.755  10.029   7.951  1.0553 -0.1596  0.8012
  470MOL0     H63432  11.482   9.782   7.591 -0.9370 -2.0187  2.6123
  470MOL0     H63433  11.280   9.821   7.431  0.3737  2.0270 -0.5211
  470MOL0     H63434   9.889   9.343   7.656  1.1310 -0.3127  1.0429
  470MOL0     H63435   9.664   9.299   7.753 -0.2580  0.5975  1.7365
  470MOL0     H63436   9.547   9.218   8.314  1.5308 -1.7268 -1.2884
  470MOL0     H63437   9.362   9.135   8.438 -0.1616 -2.3173  0.4073
  470MOL0     H63438   9.129   9.179   8.475  0.7463 -1.4334  3.2744
  470MOL0     H63439   9.138   9.012   8.513  0.7520 -1.9480 -3.2723
  470MOL0     H63440   8.936   9.109   8.572 -2.2038 -0.2438 -0.2137
  470MOL0     H63441   8.912   8.982   8.454  2.0814 -1.0446  0.1330
  470MOL0     H63442   8.770   9.188   8.375 -0.5497  0.4264 -1.6909
  470MOL0     H63443   8.907   9.218   8.284  0.5637  0.6193  0.5766
  470MOL0     H63444   8.909   9.318   8.569  3.5905  1.7010 -0.4756
  470MOL0     H63445   8.993   9.379   8.428 -0.5606 -1.4548 -2.0325
  470MOL0     H63446   8.607   9.558   8.448  0.6158  0.8830  0.0096
  470MOL0     H63447   9.135   9.062   8.083 -1.1516 -0.5445  2.4084
  470MOL0     H63448   9.384   9.056   7.858  2.0266  2.4454 -4.4153
  470MOL0     H63449   9.222   9.147   7.864  0.8756  2.1188  0.6343
  470MOL0     H63450   9.364   9.234   7.866  0.4431 -0.0468  0.5736
  471MOL0     O63451  10.671  10.907  10.771 -0.0421 -0.4320 -0.4294
  471MOL0     C63452  10.640  10.852  10.878 -0.3920 -0.8592  0.3376
  471MOL0     O63453  10.721  10.755  10.930  0.2601 -0.6132 -0.0793
  471MOL0     C63454  10.846  10.723  10.887 -0.4358  0.0951  0.3058
  471MOL0     C63455  10.869  10.588  10.861  0.1193 -0.0647  0.0636
  471MOL0     C63456  10.995  10.547  10.833  1.0245  0.1781 -0.1831
  471MOL0     C63457  11.101  10.638  10.821  0.2222  0.1450 -0.6055
  471MOL0     O63458  11.222  10.589  10.764  0.0912 -0.2671 -0.3565
  471MOL0     C63459  11.320  10.665  10.691 -0.7564 -0.7234 -0.1604
  471MOL0     C63460  11.439  10.715  10.776  0.5246  0.1783 -0.3732
  471MOL0     C63461  11.521  10.596  10.840 -0.4037 -0.1745 -0.1514
  471MOL0     C63462  11.556  10.612  10.989 -0.0744  0.0567 -0.4618
  471MOL0     C63463  11.643  10.740  11.013  0.0050 -0.6587 -0.1086
  471MOL0     C63464  11.785  10.737  10.966 -0.3692 -0.0227 -0.1479
  471MOL0     C63465  11.874  10.828  11.052  0.0630  0.9029  0.6420
  471MOL0     C63466  12.016  10.829  10.992  0.5540  0.5345 -0.1599
  471MOL0     N63467  12.087  10.952  11.037  0.5553  0.5775  0.0567
  471MOL0     C63468  12.202  10.939  11.121  0.3240  0.4716  0.4454
  471MOL0     C63469  12.242  11.074  11.115  0.0337  0.2374 -0.4723
  471MOL0     C63470  12.355  11.129  11.196  0.0352  0.0777 -0.4707
  471MOL0     C63471  12.377  11.283  11.186  0.0747 -0.0317 -0.9365
  471MOL0     C63472  12.468  11.328  11.306  1.3323  0.3231  0.1835
  471MOL0     C63473  12.454  11.478  11.314 -0.2633 -0.5279 -0.1271
  471MOL0     O63474  12.552  11.537  11.411  0.2719 -0.0329 -0.0831
  471MOL0     C63475  12.680  11.549  11.379  0.5558  0.0772 -0.1863
  471MOL0     C63476  12.741  11.517  11.252  0.1034 -0.6475  0.1512
  471MOL0     C63477  12.884  11.519  11.251  0.8167 -0.1174 -0.1804
  471MOL0     C63478  12.959  11.567  11.365  0.0194  0.7166 -0.3047
  471MOL0     C63479  13.104  11.570  11.369  0.2334  0.2012  0.1670
  471MOL0     O63480  13.164  11.680  11.431  0.1907 -0.0286 -0.9040
  471MOL0     C63481  13.296  11.692  11.426  0.7210 -0.0465  0.9041
  471MOL0     C63482  13.373  11.629  11.528 -0.4697  0.0635  0.2085
  471MOL0     C63483  13.509  11.647  11.537  0.3833 -0.2941  0.2563
  471MOL0     C63484  13.567  11.737  11.448 -0.7096 -0.8488 -0.6418
  471MOL0     O63485  13.705  11.756  11.440  0.2241  0.6085  0.0997
  471MOL0     C63486  13.790  11.723  11.553 -0.3814  1.0623 -0.2508
  471MOL0     C63487  13.930  11.779  11.517 -0.4898  0.4923  0.2129
  471MOL0     C63488  13.964  11.720  11.383  0.5608  0.6208 -0.0080
  471MOL0     C63489  14.114  11.720  11.364  0.5787  0.2170 -0.2744
  471MOL0     C63490  14.138  11.655  11.229  0.0979  0.0803  0.3520
  471MOL0     C63491  14.117  11.511  11.191 -0.2984  0.6210 -0.1254
  471MOL0     C63492  14.203  11.406  11.263 -0.3117 -0.0512 -0.2370
  471MOL0     C63493  14.344  11.441  11.291  0.9654 -0.5408 -0.3234
  471MOL0    Cl63494  14.422  11.326  11.417 -0.1408 -0.0927  0.0684
  471MOL0     C63495  13.493  11.820  11.371  0.3631  0.2551 -0.4533
  471MOL0     C63496  13.356  11.790  11.342 -0.0324  0.9371 -0.8750
  471MOL0     O63497  13.168  11.490  11.300  0.8884  0.7167  0.2386
  471MOL0     C63498  12.888  11.619  11.469  0.6661 -0.5103  0.1217
  471MOL0     C63499  12.750  11.607  11.480  0.3137  1.0230  0.4559
  471MOL0     N63500  12.149  11.154  11.053 -0.1275 -0.0739  0.3505
  471MOL0     N63501  12.048  11.084  11.007  0.8374  0.2159  0.4391
  471MOL0     C63502  11.090  10.779  10.841  1.2893 -0.4165 -0.1088
  471MOL0     C63503  10.961  10.819  10.875  1.0918  0.1884  0.2893
  471MOL0     C63504  10.534  10.909  10.960 -0.5105  0.5543  0.0747
  471MOL0     C63505  10.499  10.832  11.074 -0.4334 -0.5973  1.1298
  471MOL0     C63506  10.419  10.885  11.172  0.2904 -0.1195 -0.3448
  471MOL0     C63507  10.353  10.998  11.155  0.1332 -0.5967  0.3106
  471MOL0     O63508  10.267  11.044  11.249  0.0592  0.2216  0.2485
  471MOL0     C63509  10.128  11.060  11.207  0.2895  0.3860 -0.5015
  471MOL0     C63510  10.036  11.111  11.320 -0.2792  0.2838  0.1349
  471MOL0     C63511  10.006  11.022  11.440 -0.4047  0.3104 -0.3670
  471MOL0     C63512   9.883  11.079  11.522  0.2724  0.3442 -0.4082
  471MOL0     C63513   9.836  10.973  11.610  0.2179  0.1296 -0.2775
  471MOL0     C63514   9.793  10.880  11.677 -0.1019  0.3044  0.3485
  471MOL0     C63515  10.388  11.074  11.040 -0.0442  0.5459 -0.1812
  471MOL0     C63516  10.487  11.035  10.949  0.8793  0.1572 -0.8054
  471MOL0     C63517  10.532  11.132  10.840  0.9233  0.1438  0.1523
  471MOL0     H63518  10.798  10.508  10.881  1.3236 -1.4310 -0.9033
  471MOL0     H63519  11.017  10.444  10.808  0.6202 -0.6442  2.5272
  471MOL0     H63520  11.361  10.604  10.610 -0.4337 -0.0691 -0.4977
  471MOL0     H63521  11.276  10.758  10.656  0.2178 -0.5079 -0.8434
  471MOL0     H63522  11.397  10.770  10.861 -2.8659 -1.7308 -0.6114
  471MOL0     H63523  11.500  10.781  10.715  0.9543  0.8109  0.7120
  471MOL0     H63524  11.614  10.598  10.783  0.7796  1.0267  1.7525
  471MOL0     H63525  11.478  10.496  10.825  0.1449 -0.0109 -3.5768
  471MOL0     H63526  11.465  10.611  11.048 -0.5288  2.1655 -1.0473
  471MOL0     H63527  11.604  10.520  11.024  0.6427  0.4317 -0.4458
  471MOL0     H63528  11.592  10.828  10.972 -0.5747 -0.5967  0.6958
  471MOL0     H63529  11.657  10.770  11.118  2.8498  0.7045 -0.7788
  471MOL0     H63530  11.807  10.630  10.980 -3.4941 -0.8610 -0.7199
  471MOL0     H63531  11.778  10.771  10.862 -1.1702  0.5428  0.0872
  471MOL0     H63532  11.889  10.788  11.153  2.7361 -1.1827 -0.4521
  471MOL0     H63533  11.837  10.931  11.049 -2.5344  0.0148 -1.1067
  471MOL0     H63534  12.074  10.742  11.024 -2.2759 -2.0959 -1.6125
  471MOL0     H63535  12.016  10.842  10.883  1.1142 -2.8356 -0.6794
  471MOL0     H63536  12.240  10.853  11.175 -3.4709 -0.0628  2.6220
  471MOL0     H63537  12.320  11.116  11.298 -0.2653  3.8560  0.0426
  471MOL0     H63538  12.447  11.070  11.186 -0.3613 -0.3735 -1.5491
  471MOL0     H63539  12.414  11.302  11.085 -0.1987  1.7584 -0.7306
  471MOL0     H63540  12.279  11.327  11.207  0.1835 -0.9448  1.9093
  471MOL0     H63541  12.570  11.308  11.273  0.3829  0.8279 -3.5163
  471MOL0     H63542  12.431  11.272  11.392  2.2626  2.7097  2.2605
  471MOL0     H63543  12.355  11.503  11.355  0.7383  0.4843  1.8005
  471MOL0     H63544  12.456  11.546  11.228 -2.2132  1.5465  1.3436
  471MOL0     H63545  12.698  11.467  11.166  2.6593  0.3011 -1.8374
  471MOL0     H63546  12.939  11.475  11.168  3.6014 -2.2427  2.5197
  471MOL0     H63547  13.334  11.551  11.592 -3.2732  1.8574  0.8766
  471MOL0     H63548  13.566  11.576  11.596 -0.3598 -1.2117 -0.0841
  471MOL0     H63549  13.748  11.776  11.639 -1.5361 -0.9954  0.5268
  471MOL0     H63550  13.789  11.616  11.577 -0.8797  0.8535 -1.1466
  471MOL0     H63551  13.920  11.887  11.516 -1.5546  0.5111 -3.7211
  471MOL0     H63552  14.003  11.758  11.596 -1.8380  1.6130  1.8049
  471MOL0     H63553  13.940  11.614  11.372  0.4141  0.5659  0.8283
  471MOL0     H63554  13.915  11.780  11.306  0.2802  1.0058  0.4659
  471MOL0     H63555  14.165  11.666  11.444  0.3220  1.8215  1.0110
  471MOL0     H63556  14.150  11.823  11.368  1.5363 -0.1641  2.0838
  471MOL0     H63557  14.240  11.689  11.210  1.0927 -2.6816  0.3353
  471MOL0     H63558  14.077  11.709  11.156  0.1769  0.6892  0.7311
  471MOL0     H63559  14.015  11.475  11.202  0.5980 -2.9396 -1.9999
  471MOL0     H63560  14.145  11.500  11.086 -1.2508 -0.5676 -0.2684
  471MOL0     H63561  14.199  11.314  11.203  1.9880  0.3606 -1.0835
  471MOL0     H63562  14.149  11.385  11.356 -0.4026  0.0865 -0.2585
  471MOL0     H63563  14.388  11.450  11.191 -1.9683  0.5254 -1.6273
  471MOL0     H63564  14.334  11.538  11.339  0.0311  0.3135 -2.1438
  471MOL0     H63565  13.530  11.903  11.311  0.0442 -0.2246 -1.3402
  471MOL0     H63566  13.282  11.844  11.284 -0.2979  0.0060 -1.4259
  471MOL0     H63567  12.947  11.661  11.549 -0.0550  2.6858 -0.8837
  471MOL0     H63568  12.696  11.625  11.573  0.2292  3.3586  0.0102
  471MOL0     H63569  11.171  10.850  10.834  2.0890 -0.8839  2.7705
  471MOL0     H63570  10.956  10.926  10.895 -0.6824  0.6660 -2.2443
  471MOL0     H63571  10.540  10.734  11.095  1.1032 -0.0509  0.7851
  471MOL0     H63572  10.400  10.836  11.267 -1.2022  3.2392  1.2664
  471MOL0     H63573  10.093  10.961  11.176  3.4788 -0.7028 -0.9655
  471MOL0     H63574  10.117  11.122  11.118 -0.7296 -2.2381 -2.3518
  471MOL0     H63575   9.940  11.133  11.272 -0.7385 -0.5920  0.6255
  471MOL0     H63576  10.077  11.204  11.362  1.8687  0.0523 -1.2701
  471MOL0     H63577  10.095  11.013  11.504 -1.0432 -1.4422  0.3501
  471MOL0     H63578   9.996  10.920  11.402  1.3397 -0.1995  0.4198
  471MOL0     H63579   9.925  11.155  11.589 -0.3764  0.0846  0.3053
  471MOL0     H63580   9.795  11.118  11.470 -0.4832 -0.6833  0.0779
  471MOL0     H63581   9.750  10.794  11.723  0.8731 -0.5631 -0.2993
  471MOL0     H63582  10.334  11.165  11.015  1.2061  0.8391 -2.0497
  471MOL0     H63583  10.513  11.085  10.744 -0.3946 -0.9045  0.8987
  471MOL0     H63584  10.474  11.225  10.844 -1.2149 -1.1485  0.8943
  471MOL0     H63585  10.639  11.155  10.838  0.5017  2.3823  0.3748
  472MOL0     O63586   4.776   5.131   9.414 -0.7125 -0.4631  0.4269
  472MOL0     C63587   4.695   5.210   9.367 -0.3994 -0.3147  1.2898
  472MOL0     O63588   4.720   5.294   9.259 -0.1994 -0.1256  0.1942
  472MOL0     C63589   4.847   5.304   9.209  0.5803 -0.2684  0.0833
  472MOL0     C63590   4.952   5.364   9.282 -0.6658 -0.0430  0.0444
  472MOL0     C63591   5.081   5.387   9.230  0.4800 -0.2042  0.4376
  472MOL0     C63592   5.115   5.330   9.106  0.5534  0.2636 -0.1609
  472MOL0     O63593   5.240   5.337   9.050 -0.0596 -0.4430 -0.4064
  472MOL0     C63594   5.300   5.211   9.027 -0.0023 -0.1350 -1.0410
  472MOL0     C63595   5.434   5.214   9.097 -0.1376 -0.1072 -0.1015
  472MOL0     C63596   5.427   5.260   9.240 -0.2501  0.6836  0.3295
  472MOL0     C63597   5.332   5.178   9.338 -0.4607 -0.4639  0.9557
  472MOL0     C63598   5.304   5.258   9.469 -0.2301  0.0369 -0.1225
  472MOL0     C63599   5.217   5.168   9.573  0.1603 -0.5809  0.7943
  472MOL0     C63600   5.175   5.251   9.691  0.4662  0.5881 -0.2290
  472MOL0     C63601   5.163   5.171   9.821 -0.7270 -0.2042 -0.6937
  472MOL0     N63602   5.099   5.043   9.812 -0.0178 -0.0217  0.3254
  472MOL0     C63603   4.966   5.013   9.786 -0.1646  0.0656  0.7756
  472MOL0     C63604   4.957   4.881   9.767  0.2350 -0.0649  0.8360
  472MOL0     C63605   4.829   4.809   9.731 -0.2878  0.5586  0.3055
  472MOL0     C63606   4.712   4.840   9.828  0.1614  0.2809  0.5369
  472MOL0     C63607   4.595   4.741   9.820  0.0713 -0.3305 -0.1274
  472MOL0     C63608   4.498   4.792   9.925  0.4502 -0.0516 -0.1373
  472MOL0     O63609   4.444   4.915   9.881  0.6157  0.3643 -0.3384
  472MOL0     C63610   4.319   4.948   9.914 -0.1916 -0.0921 -0.4354
  472MOL0     C63611   4.249   5.022   9.823 -0.0314 -0.5085 -0.2931
  472MOL0     C63612   4.125   5.076   9.852 -0.4554  0.2140 -0.5199
  472MOL0     C63613   4.054   5.041   9.969  0.6203 -0.6102 -1.4244
  472MOL0     C63614   3.913   5.076  10.000  1.1661  0.2971 -0.3078
  472MOL0     O63615   3.825   5.099   9.903  0.2808 -0.2733  0.2608
  472MOL0     C63616   3.690   5.108   9.934 -0.1223  0.7772  0.0262
  472MOL0     C63617   3.653   5.217  10.010  0.4845 -0.0074  0.2056
  472MOL0     C63618   3.523   5.234  10.050 -0.2734  0.8680 -0.5754
  472MOL0     C63619   3.428   5.142  10.017 -0.8771  0.4027 -0.3328
  472MOL0     O63620   3.304   5.157  10.064 -0.4726 -0.2371  0.0188
  472MOL0     C63621   3.278   5.079  10.184 -0.3162  0.2107 -0.4768
  472MOL0     C63622   3.130   5.114  10.230  0.4845  0.8608 -0.1968
  472MOL0     C63623   3.029   5.051  10.132 -1.3677 -0.3286 -0.6769
  472MOL0     C63624   2.890   5.085  10.180  0.3195 -0.4070 -0.3545
  472MOL0     C63625   2.792   5.018  10.076 -0.6588 -0.3128  0.6845
  472MOL0     C63626   2.645   5.050  10.082 -0.7385 -0.4272 -0.4390
  472MOL0     C63627   2.565   4.932  10.014 -0.1665 -0.3040 -0.6567
  472MOL0     C63628   2.413   4.960  10.023 -0.3880  0.2539 -0.2665
  472MOL0    Cl63629   2.384   5.096   9.915 -0.0554  0.1031 -0.3343
  472MOL0     C63630   3.467   5.037   9.935  0.3763  0.8576  0.2474
  472MOL0     C63631   3.602   5.016   9.888 -0.5571 -0.2060 -0.2481
  472MOL0     O63632   3.878   5.078  10.117  0.6228  0.2350  0.3362
  472MOL0     C63633   4.128   4.963  10.060  0.7481  0.7894 -0.0500
  472MOL0     C63634   4.256   4.917  10.042 -0.0927  0.5542  0.1503
  472MOL0     N63635   5.084   4.824   9.779 -0.1781 -0.1969  0.1501
  472MOL0     N63636   5.165   4.922   9.799 -0.6793  0.1670 -0.6291
  472MOL0     C63637   5.014   5.278   9.033 -0.0783  0.7686  0.5060
  472MOL0     C63638   4.877   5.264   9.081 -0.4277 -0.2432 -1.0423
  472MOL0     C63639   4.556   5.211   9.406  0.0614  0.2495 -0.2507
  472MOL0     C63640   4.479   5.100   9.376 -0.1620  0.0293  0.3353
  472MOL0     C63641   4.345   5.088   9.414  0.0638 -0.0262 -0.6135
  472MOL0     C63642   4.282   5.207   9.461  0.3474 -0.4409 -1.2020
  472MOL0     O63643   4.151   5.218   9.497  0.2409  0.6192 -0.0784
  472MOL0     C63644   4.068   5.134   9.419 -0.0678  0.6983  0.2360
  472MOL0     C63645   3.926   5.186   9.416 -0.5086 -0.0923  0.6266
  472MOL0     C63646   3.860   5.125   9.539 -0.6086 -0.2327 -0.3523
  472MOL0     C63647   3.727   5.201   9.572  0.2983  0.3910 -0.0794
  472MOL0     C63648   3.620   5.169   9.478  0.3799  0.1760  1.5649
  472MOL0     C63649   3.525   5.145   9.408  0.6315 -0.4516  0.3382
  472MOL0     C63650   4.363   5.322   9.486  0.7065  0.4343 -0.4156
  472MOL0     C63651   4.497   5.326   9.466  0.0273  0.0900 -0.3040
  472MOL0     C63652   4.578   5.452   9.518 -0.1714 -0.0321  0.0740
  472MOL0     H63653   4.922   5.420   9.370 -0.1011  3.3169 -1.7312
  472MOL0     H63654   5.156   5.443   9.285  0.7541 -1.2604  1.1847
  472MOL0     H63655   5.240   5.133   9.076  1.0068 -0.3166 -0.0617
  472MOL0     H63656   5.306   5.187   8.920  0.5761  2.7114 -1.7048
  472MOL0     H63657   5.503   5.281   9.044  0.9549 -0.0117  1.3613
  472MOL0     H63658   5.474   5.113   9.087 -1.4318 -0.5337 -1.3192
  472MOL0     H63659   5.393   5.364   9.243  4.7026  2.5586  0.0402
  472MOL0     H63660   5.530   5.267   9.275  0.0896 -2.2393  0.1301
  472MOL0     H63661   5.239   5.150   9.287  0.5746  1.4062 -2.2669
  472MOL0     H63662   5.388   5.091   9.373  2.2966  0.9540  0.3655
  472MOL0     H63663   5.402   5.292   9.504  0.0141 -0.3739 -0.3911
  472MOL0     H63664   5.239   5.344   9.453 -0.4082  0.5872  3.0151
  472MOL0     H63665   5.128   5.128   9.525 -0.1131  0.5628  0.3031
  472MOL0     H63666   5.276   5.082   9.607 -1.2627 -2.0074 -0.2134
  472MOL0     H63667   5.080   5.299   9.670  1.1409  1.4972 -1.3210
  472MOL0     H63668   5.249   5.330   9.708 -0.4531  1.4597 -0.1638
  472MOL0     H63669   5.267   5.161   9.855 -0.8087  0.4495 -0.2151
  472MOL0     H63670   5.121   5.241   9.894  3.3828  0.6430  1.1851
  472MOL0     H63671   4.882   5.074   9.753 -0.4914 -1.3818 -1.2606
  472MOL0     H63672   4.794   4.836   9.631 -1.6653 -1.7778  0.1052
  472MOL0     H63673   4.856   4.704   9.717  1.1305  1.1561 -1.7736
  472MOL0     H63674   4.747   4.840   9.931  0.1977 -1.0262  0.5490
  472MOL0     H63675   4.675   4.939   9.800 -1.2727 -0.3926 -0.1091
  472MOL0     H63676   4.624   4.642   9.856  0.7659  1.1840  4.0807
  472MOL0     H63677   4.552   4.743   9.719  1.8526 -0.0181 -0.9128
  472MOL0     H63678   4.548   4.824  10.016 -0.6304  1.7621 -0.1148
  472MOL0     H63679   4.418   4.721   9.950 -2.2034  2.0679 -1.9591
  472MOL0     H63680   4.299   5.032   9.727 -3.4187 -0.6037 -2.2158
  472MOL0     H63681   4.084   5.150   9.785 -1.0188  2.0291  1.7043
  472MOL0     H63682   3.723   5.297  10.035  1.6292 -0.6242 -0.8767
  472MOL0     H63683   3.495   5.318  10.113  1.2892 -1.8861  4.3304
  472MOL0     H63684   3.285   4.970  10.187  1.4946  0.3180  0.9335
  472MOL0     H63685   3.342   5.119  10.262  1.2445  1.2359 -2.2065
  472MOL0     H63686   3.114   5.074  10.330  0.2133  3.4301  0.8615
  472MOL0     H63687   3.113   5.222  10.229 -1.2595  0.6300 -2.0626
  472MOL0     H63688   3.061   5.099  10.039 -2.0193  1.7447  0.1086
  472MOL0     H63689   3.050   4.945  10.119  1.4032  0.3327 -2.8177
  472MOL0     H63690   2.870   5.192  10.169  0.3590 -0.4901 -1.3841
  472MOL0     H63691   2.869   5.047  10.280  1.5154 -0.3667 -0.0759
  472MOL0     H63692   2.808   4.911  10.094 -0.2782 -0.8935 -2.5182
  472MOL0     H63693   2.827   5.048   9.977  2.3502 -2.7850  0.8597
  472MOL0     H63694   2.621   5.046  10.188 -2.7989 -2.8820 -0.8867
  472MOL0     H63695   2.629   5.152  10.046  0.1549  0.1918  0.8480
  472MOL0     H63696   2.576   4.838  10.070 -1.9332  0.5481  1.2296
  472MOL0     H63697   2.600   4.922   9.911 -0.7516 -1.3022 -0.7748
  472MOL0     H63698   2.358   4.876   9.980 -0.9375  1.6512 -2.4507
  472MOL0     H63699   2.386   4.987  10.126  4.2863  3.2692  0.4740
  472MOL0     H63700   3.392   4.975   9.887 -0.4530  2.9476 -1.2834
  472MOL0     H63701   3.622   4.933   9.821 -2.0957  0.3717 -1.4874
  472MOL0     H63702   4.062   4.950  10.145  0.1176  1.8861 -0.3462
  472MOL0     H63703   4.313   4.865  10.119  1.3379  0.9918 -0.5757
  472MOL0     H63704   5.026   5.239   8.933  0.5501  0.3541  0.7377
  472MOL0     H63705   4.792   5.235   9.019 -0.1795 -1.4812 -0.8212
  472MOL0     H63706   4.541   5.015   9.349  2.8224  2.0346  0.3401
  472MOL0     H63707   4.293   4.992   9.412  0.0615 -0.0163 -1.1423
  472MOL0     H63708   4.070   5.028   9.446  0.0660  1.1671  2.2247
  472MOL0     H63709   4.099   5.124   9.315 -0.1888 -2.2148  0.3948
  472MOL0     H63710   3.886   5.149   9.321  0.9549 -2.5434  0.8876
  472MOL0     H63711   3.925   5.295   9.413 -1.5693 -0.1151 -0.8956
  472MOL0     H63712   3.923   5.136   9.628 -1.2856  3.3894 -0.1934
  472MOL0     H63713   3.832   5.020   9.526  0.7521 -1.1953  3.2318
  472MOL0     H63714   3.688   5.166   9.668  0.6030  2.0337  0.6768
  472MOL0     H63715   3.738   5.308   9.594 -1.1485  0.1636  2.0723
  472MOL0     H63716   3.451   5.119   9.335  0.9637  1.7867 -0.8909
  472MOL0     H63717   4.325   5.410   9.537 -0.5284  0.0107 -0.5769
  472MOL0     H63718   4.581   5.529   9.440  0.8268 -0.0937  0.0464
  472MOL0     H63719   4.535   5.493   9.610 -0.5613  2.2761 -1.0377
  472MOL0     H63720   4.684   5.427   9.526  0.1774  1.7197  1.6568
  473MOL0     O63721   8.740   1.898   6.925  0.1049  0.0179 -0.4204
  473MOL0     C63722   8.735   1.849   7.043  0.2449 -0.2343  0.3837
  473MOL0     O63723   8.836   1.828   7.133 -0.0576  0.1591  0.3656
  473MOL0     C63724   8.967   1.874   7.099  0.5871  1.0507 -0.1501
  473MOL0     C63725   9.026   1.970   7.177 -1.5246  0.0797 -0.1243
  473MOL0     C63726   9.164   2.011   7.149 -0.3562 -0.2643 -0.6893
  473MOL0     C63727   9.237   1.948   7.045  0.9582 -0.0235  0.3878
  473MOL0     O63728   9.370   1.974   7.042  0.0255  0.0569  0.9289
  473MOL0     C63729   9.459   1.907   6.944  0.8918 -0.1269 -0.4618
  473MOL0     C63730   9.589   1.991   6.935 -0.1956 -0.3234 -0.7263
  473MOL0     C63731   9.702   1.907   6.860  0.4815  0.6444  1.3269
  473MOL0     C63732   9.834   1.895   6.937 -0.6132  0.5218 -0.1756
  473MOL0     C63733   9.890   2.030   6.999 -0.3888 -1.2232  0.7261
  473MOL0     C63734  10.023   2.016   7.053 -0.1477  0.1088  0.5054
  473MOL0     C63735  10.139   2.007   6.956 -0.7969  0.3127 -1.4714
  473MOL0     C63736  10.270   1.998   7.036 -0.5908 -0.1818 -0.2707
  473MOL0     N63737  10.395   1.986   6.957 -0.2399  0.5585  0.9963
  473MOL0     C63738  10.524   1.962   7.005  0.0037 -0.2970  0.3125
  473MOL0     C63739  10.609   1.940   6.899 -0.3039  0.2186  0.4357
  473MOL0     C63740  10.755   1.912   6.908  0.3368  0.2012 -0.0484
  473MOL0     C63741  10.838   2.039   6.933 -0.9723  0.5317  0.0222
  473MOL0     C63742  10.829   2.135   6.816 -0.3353 -0.2425 -0.2124
  473MOL0     C63743  10.921   2.255   6.849  0.1589 -1.0367 -0.1465
  473MOL0     O63744  11.055   2.235   6.802  0.2148  0.4315 -0.1725
  473MOL0     C63745  11.129   2.341   6.761 -0.1780  0.3294  0.0177
  473MOL0     C63746  11.112   2.468   6.807 -0.7789 -0.1675  0.9199
  473MOL0     C63747  11.207   2.568   6.774  0.1688  0.3014 -1.0283
  473MOL0     C63748  11.317   2.545   6.685  0.7940  0.0762  0.7978
  473MOL0     C63749  11.406   2.647   6.642  0.3947  0.3770 -1.2487
  473MOL0     O63750  11.492   2.629   6.533  0.2062  0.0032  0.1025
  473MOL0     C63751  11.608   2.707   6.511  1.0592  0.0785 -0.2307
  473MOL0     C63752  11.679   2.673   6.405  0.3395  0.1337  0.3497
  473MOL0     C63753  11.806   2.728   6.385  0.8263  0.1959  0.6501
  473MOL0     C63754  11.858   2.827   6.468  0.0126  0.5170 -0.9259
  473MOL0     O63755  11.972   2.893   6.423  0.0125 -0.0518 -0.2007
  473MOL0     C63756  11.990   3.036   6.450  0.3228 -0.7527 -0.2987
  473MOL0     C63757  12.083   3.107   6.362  0.3383  0.6327  0.3650
  473MOL0     C63758  12.208   3.032   6.333  0.1172  0.6896 -0.0561
  473MOL0     C63759  12.277   2.961   6.451 -0.4236 -0.7890 -0.8376
  473MOL0     C63760  12.326   3.065   6.555 -0.5100 -0.0706  0.3144
  473MOL0     C63761  12.428   3.013   6.657 -0.3157  0.4008 -0.5589
  473MOL0     C63762  12.361   2.901   6.750 -0.6400 -1.0599  0.4570
  473MOL0     C63763  12.250   2.961   6.825  1.1976 -0.4468  0.1376
  473MOL0    Cl63764  12.176   2.854   6.932  0.4605 -0.0166 -0.4731
  473MOL0     C63765  11.787   2.860   6.579 -0.1805 -0.3227 -1.2181
  473MOL0     C63766  11.667   2.803   6.598  0.2380 -0.4255  0.5617
  473MOL0     O63767  11.395   2.752   6.701 -0.5422 -0.0665 -0.3064
  473MOL0     C63768  11.323   2.412   6.628  0.2897  0.5962 -0.0851
  473MOL0     C63769  11.241   2.312   6.682  0.7190 -0.7121  0.9612
  473MOL0     N63770  10.527   1.956   6.787  0.0940 -0.0961  0.4789
  473MOL0     N63771  10.401   1.963   6.820  0.2989  0.1201  0.1592
  473MOL0     C63772   9.171   1.850   6.962 -0.2998 -0.0650  0.1595
  473MOL0     C63773   9.037   1.820   6.995  0.3179 -0.6970  0.1445
  473MOL0     C63774   8.598   1.817   7.089 -0.5143  0.2913  0.3761
  473MOL0     C63775   8.586   1.748   7.209  0.2919  0.2587 -0.5307
  473MOL0     C63776   8.463   1.747   7.281 -0.1965  0.6347 -0.9173
  473MOL0     C63777   8.346   1.802   7.226 -0.6397 -0.5804  0.9998
  473MOL0     O63778   8.225   1.802   7.290  0.1464  0.9144  0.2314
  473MOL0     C63779   8.224   1.734   7.414 -0.0701 -0.1510 -0.1485
  473MOL0     C63780   8.081   1.763   7.466 -0.5596  0.5877  0.4663
  473MOL0     C63781   7.988   1.636   7.455  0.1787 -0.5060 -1.1530
  473MOL0     C63782   7.853   1.669   7.516  0.5798  0.6619 -0.1208
  473MOL0     C63783   7.863   1.680   7.665 -0.5259 -0.2872  0.0214
  473MOL0     C63784   7.878   1.699   7.784  0.1643 -0.2482 -0.6582
  473MOL0     C63785   8.357   1.867   7.105 -1.0186  0.3953 -0.3499
  473MOL0     C63786   8.478   1.863   7.028 -0.4233 -0.4796  0.1003
  473MOL0     C63787   8.459   1.929   6.892  0.2959  0.1363 -0.2437
  473MOL0     H63788   8.973   2.019   7.258  2.1189  1.6847  1.5640
  473MOL0     H63789   9.216   2.082   7.213  2.8458 -3.6255  0.8201
  473MOL0     H63790   9.474   1.810   6.992  1.1262 -0.5776 -1.4243
  473MOL0     H63791   9.410   1.895   6.847  2.1608 -0.1579 -1.1177
  473MOL0     H63792   9.613   2.023   7.037 -1.6177  0.8467 -0.7364
  473MOL0     H63793   9.569   2.073   6.864 -0.4036 -1.6961 -2.3096
  473MOL0     H63794   9.728   1.940   6.759  0.9006 -0.8676  0.9252
  473MOL0     H63795   9.678   1.802   6.839  4.2205  0.1175 -1.3731
  473MOL0     H63796   9.834   1.821   7.017  0.2868  0.6351 -0.0545
  473MOL0     H63797   9.907   1.847   6.871 -2.3540 -1.6103 -0.6462
  473MOL0     H63798   9.884   2.110   6.925 -0.3229  0.1091  2.1349
  473MOL0     H63799   9.828   2.064   7.082 -1.9607  0.8637 -1.1834
  473MOL0     H63800  10.038   2.118   7.089 -2.1275  1.8433 -3.0958
  473MOL0     H63801  10.017   1.941   7.133 -0.6697 -0.1249  0.2483
  473MOL0     H63802  10.118   2.090   6.888 -5.7130 -0.5396 -1.3729
  473MOL0     H63803  10.117   1.919   6.894 -1.8096  1.6784 -3.1536
  473MOL0     H63804  10.272   2.090   7.095 -2.7993 -0.5199  0.4304
  473MOL0     H63805  10.260   1.919   7.110 -2.1483  0.7868  0.6043
  473MOL0     H63806  10.549   1.961   7.110 -4.3821  1.4554  1.5860
  473MOL0     H63807  10.761   1.844   6.994 -0.5730  1.6707  1.2268
  473MOL0     H63808  10.795   1.856   6.822  0.8434 -0.2008  0.4421
  473MOL0     H63809  10.803   2.076   7.029 -1.6030  2.0758 -0.7639
  473MOL0     H63810  10.943   2.011   6.944 -0.2833  3.1334  0.5460
  473MOL0     H63811  10.722   2.155   6.810 -0.2122  0.6372  0.3082
  473MOL0     H63812  10.860   2.086   6.723  1.6726 -0.7226  0.6496
  473MOL0     H63813  10.915   2.279   6.956 -2.4170 -1.1292 -0.2163
  473MOL0     H63814  10.871   2.344   6.810 -1.5659  0.0736  4.0472
  473MOL0     H63815  11.033   2.507   6.870 -0.7397  2.0802 -0.2969
  473MOL0     H63816  11.185   2.667   6.812 -0.9860 -0.5722  0.7300
  473MOL0     H63817  11.642   2.586   6.352  1.1664 -0.7225  1.1478
  473MOL0     H63818  11.864   2.699   6.297 -0.3337  1.3821 -0.5588
  473MOL0     H63819  11.890   3.080   6.444  1.4386  1.8536 -1.0419
  473MOL0     H63820  12.029   3.045   6.552  2.7976  0.8371 -1.2975
  473MOL0     H63821  12.039   3.140   6.268  0.7407 -3.1457 -1.3334
  473MOL0     H63822  12.112   3.196   6.418 -0.6629  0.8618  0.5321
  473MOL0     H63823  12.175   2.959   6.259 -2.2651  2.4477 -0.8647
  473MOL0     H63824  12.276   3.100   6.280  1.5110 -2.6533 -2.9718
  473MOL0     H63825  12.350   2.891   6.408 -1.6025 -2.4579 -0.2400
  473MOL0     H63826  12.204   2.895   6.499 -0.7079 -0.5850 -0.9856
  473MOL0     H63827  12.241   3.112   6.604 -1.8245 -0.7950 -1.1693
  473MOL0     H63828  12.388   3.139   6.503  3.4256 -0.0256  4.4091
  473MOL0     H63829  12.522   2.975   6.615  1.3179 -0.0596  3.1341
  473MOL0     H63830  12.461   3.093   6.725 -1.7682 -0.7559  1.6232
  473MOL0     H63831  12.443   2.855   6.806  2.3108  2.5371 -0.5136
  473MOL0     H63832  12.323   2.822   6.685 -1.5283 -2.0405  2.1027
  473MOL0     H63833  12.286   3.041   6.891 -2.0094 -1.2254  3.1492
  473MOL0     H63834  12.176   2.990   6.749  0.9939 -1.3176 -0.0123
  473MOL0     H63835  11.820   2.943   6.641 -1.4927 -0.6970  0.0328
  473MOL0     H63836  11.613   2.846   6.682  0.4307 -0.7621  0.8594
  473MOL0     H63837  11.406   2.390   6.562  1.8576  0.8974  1.7000
  473MOL0     H63838  11.255   2.210   6.646 -0.1144 -0.3716 -0.3697
  473MOL0     H63839   9.216   1.795   6.880 -2.1262 -0.5489 -0.5688
  473MOL0     H63840   8.992   1.740   6.938  1.1146  0.5887 -2.4559
  473MOL0     H63841   8.666   1.695   7.259 -0.0537 -2.8412 -2.9674
  473MOL0     H63842   8.460   1.680   7.366 -2.1018  0.4202 -1.1314
  473MOL0     H63843   8.292   1.780   7.486  0.7910  0.1905 -1.1471
  473MOL0     H63844   8.253   1.628   7.412 -1.6738 -0.6102 -1.1371
  473MOL0     H63845   8.034   1.839   7.402 -0.9753  0.3457  0.4843
  473MOL0     H63846   8.075   1.800   7.568 -2.4061  0.2512  0.5044
  473MOL0     H63847   8.044   1.554   7.502  0.4509  1.0511  1.4029
  473MOL0     H63848   7.972   1.603   7.352  0.9488 -0.6399 -1.2400
  473MOL0     H63849   7.805   1.756   7.470 -4.7085 -0.2503  2.8115
  473MOL0     H63850   7.789   1.583   7.495  0.2366  1.1722 -1.2903
  473MOL0     H63851   7.887   1.708   7.891 -0.5895 -2.2295 -0.3797
  473MOL0     H63852   8.275   1.920   7.057  1.3175  4.1094 -0.5597
  473MOL0     H63853   8.485   1.847   6.825  0.5312 -0.8348  0.9790
  473MOL0     H63854   8.355   1.960   6.881  0.8083  2.8433  1.4652
  473MOL0     H63855   8.518   2.021   6.884  0.5296  0.1365  1.1312
  474MOL0     O63856   8.580   1.629  10.820 -0.8103  0.0086 -0.6054
  474MOL0     C63857   8.502   1.618  10.913 -0.1062  0.7625  0.7233
  474MOL0     O63858   8.505   1.686  11.034 -0.7100 -0.1796 -0.4965
  474MOL0     C63859   8.612   1.765  11.079  0.1601 -0.0918 -0.7338
  474MOL0     C63860   8.601   1.831  11.197  0.0566  0.3857 -0.1985
  474MOL0     C63861   8.702   1.899  11.265  0.0257 -0.2054  0.3731
  474MOL0     C63862   8.821   1.924  11.202  0.6767  0.0561 -0.2848
  474MOL0     O63863   8.924   1.981  11.277  0.9063  0.3103  0.0175
  474MOL0     C63864   9.061   1.981  11.236 -0.7287 -0.2663  0.0994
  474MOL0     C63865   9.136   2.083  11.326  0.8759  0.3726 -0.2074
  474MOL0     C63866   9.286   2.091  11.300  0.4313  0.1117  0.5241
  474MOL0     C63867   9.376   2.010  11.400 -0.1626  0.5324  0.2082
  474MOL0     C63868   9.516   2.042  11.366  0.3233 -0.1601  0.2326
  474MOL0     C63869   9.603   1.940  11.454  0.0405  0.0158  0.0924
  474MOL0     C63870   9.751   1.986  11.448 -0.1677  0.6845  0.3713
  474MOL0     C63871   9.839   1.878  11.512 -0.2363 -0.5764 -0.2071
  474MOL0     N63872   9.844   1.892  11.664  0.1121  0.1101  0.3411
  474MOL0     C63873   9.931   1.967  11.732 -0.0398 -0.7848 -0.3173
  474MOL0     C63874   9.890   1.964  11.859 -0.3170  0.4898 -0.5128
  474MOL0     C63875   9.955   2.041  11.966 -0.1623 -0.1239 -0.7998
  474MOL0     C63876  10.109   1.999  11.984 -0.1860  0.3976  0.5353
  474MOL0     C63877  10.152   2.058  12.122  0.0145 -1.0415 -0.0090
  474MOL0     C63878  10.304   2.089  12.137 -0.0202 -0.4719 -0.9734
  474MOL0     O63879  10.375   1.966  12.113  0.3624  0.2742  0.1521
  474MOL0     C63880  10.510   1.980  12.087 -0.0602  0.4385 -0.4318
  474MOL0     C63881  10.552   1.893  11.995  0.9221 -0.2940 -0.0994
  474MOL0     C63882  10.689   1.881  11.982  0.1546 -0.4127 -0.2276
  474MOL0     C63883  10.784   1.958  12.050  1.1557 -0.0260 -0.3124
  474MOL0     C63884  10.931   1.931  12.046  1.0595  0.2670 -0.0796
  474MOL0     O63885  10.967   1.835  11.962 -0.3198  0.7445  0.1060
  474MOL0     C63886  11.093   1.794  11.979  0.1570  0.0408  0.1545
  474MOL0     C63887  11.115   1.667  12.032 -0.1211 -0.3807 -0.3246
  474MOL0     C63888  11.242   1.614  12.048 -0.4964 -0.5994 -0.7550
  474MOL0     C63889  11.356   1.687  12.010  0.5447 -0.2731  0.1462
  474MOL0     O63890  11.478   1.631  12.016 -0.5358 -0.6555 -0.5656
  474MOL0     C63891  11.511   1.566  12.141 -1.2402  0.4749 -0.3193
  474MOL0     C63892  11.660   1.543  12.170  0.3052 -0.6608 -0.6020
  474MOL0     C63893  11.735   1.665  12.209 -0.2888 -0.7808 -0.2689
  474MOL0     C63894  11.883   1.650  12.224 -0.5084  0.2902  0.2559
  474MOL0     C63895  11.919   1.544  12.336 -0.0113  0.8379  0.0868
  474MOL0     C63896  12.060   1.557  12.378 -0.6822  0.0670 -0.3987
  474MOL0     C63897  12.161   1.507  12.265 -0.3069  0.5791 -0.1532
  474MOL0     C63898  12.293   1.469  12.321 -0.4338  0.5899  0.0557
  474MOL0    Cl63899  12.377   1.608  12.398 -0.9723  0.2341 -0.2312
  474MOL0     C63900  11.334   1.816  11.950  1.0362  1.2525 -0.0392
  474MOL0     C63901  11.202   1.873  11.928  0.6716 -0.1682 -1.5348
  474MOL0     O63902  11.000   2.000  12.118 -0.9994  0.2911 -0.2501
  474MOL0     C63903  10.736   2.055  12.129 -0.2412 -0.3845  0.4776
  474MOL0     C63904  10.597   2.062  12.158  0.8904 -0.1098 -0.1011
  474MOL0     N63905   9.779   1.882  11.867  0.3193  0.5595 -0.1678
  474MOL0     N63906   9.752   1.837  11.747 -0.7445 -0.1235  0.0922
  474MOL0     C63907   8.836   1.871  11.074 -0.5997 -0.7786 -0.4201
  474MOL0     C63908   8.739   1.784  11.014  0.7016 -0.6163 -0.2867
  474MOL0     C63909   8.376   1.540  10.888  0.6869 -0.4088  0.0343
  474MOL0     C63910   8.301   1.498  11.002 -0.4255 -0.3924 -0.2755
  474MOL0     C63911   8.181   1.430  10.994 -0.2100 -0.5477 -0.1292
  474MOL0     C63912   8.133   1.403  10.864  0.3754 -0.4788 -0.1122
  474MOL0     O63913   8.017   1.329  10.864  0.1695 -0.2473 -0.3819
  474MOL0     C63914   7.987   1.246  10.751 -0.3627  0.3960 -0.2831
  474MOL0     C63915   7.886   1.135  10.779  0.2607 -0.5927 -0.2224
  474MOL0     C63916   7.805   1.110  10.649 -0.4497  0.7014 -0.8206
  474MOL0     C63917   7.716   0.985  10.644  0.7890  0.2613 -0.4785
  474MOL0     C63918   7.621   1.007  10.755  0.6209  0.0052  0.3190
  474MOL0     C63919   7.556   1.023  10.858 -0.0647  0.7750 -0.3799
  474MOL0     C63920   8.203   1.441  10.753 -0.3079 -0.0608  0.7833
  474MOL0     C63921   8.328   1.501  10.759  0.9467 -0.0036  0.0453
  474MOL0     C63922   8.404   1.531  10.630 -0.8965  0.1039 -1.1700
  474MOL0     H63923   8.513   1.825  11.261 -0.1318 -0.4300 -0.5221
  474MOL0     H63924   8.681   1.942  11.363 -1.6689  0.4767 -0.2642
  474MOL0     H63925   9.108   1.884  11.254 -3.1597 -1.2644  1.6998
  474MOL0     H63926   9.063   2.011  11.131  0.6866  3.1144  0.9320
  474MOL0     H63927   9.120   2.063  11.432  0.9418 -2.3510 -0.6449
  474MOL0     H63928   9.099   2.184  11.305  0.2912  0.2432  0.1769
  474MOL0     H63929   9.321   2.191  11.328  0.3218  0.0583  0.8540
  474MOL0     H63930   9.311   2.069  11.196 -1.9648  0.6511 -0.2253
  474MOL0     H63931   9.350   2.034  11.503 -1.5999 -0.9177  0.2256
  474MOL0     H63932   9.363   1.905  11.372  4.0640 -0.4782  1.2948
  474MOL0     H63933   9.529   2.023  11.259  0.4155  1.4373 -0.0639
  474MOL0     H63934   9.535   2.144  11.399 -1.1676  0.2685 -0.2017
  474MOL0     H63935   9.562   1.952  11.555  0.0550 -0.0480  0.1056
  474MOL0     H63936   9.595   1.835  11.426  0.5373 -0.2253  0.8331
  474MOL0     H63937   9.755   2.083  11.499  1.2821 -1.0187  3.7757
  474MOL0     H63938   9.785   1.987  11.344 -2.3543 -0.5788 -0.4078
  474MOL0     H63939   9.795   1.780  11.487  0.0387 -0.4018 -1.4652
  474MOL0     H63940   9.944   1.877  11.481 -0.0785  1.1416  0.1944
  474MOL0     H63941  10.020   2.016  11.692 -0.4294  0.7786  0.6427
  474MOL0     H63942   9.954   2.147  11.937  1.5202  0.3706  0.7383
  474MOL0     H63943   9.910   2.018  12.063  0.5846 -0.1859 -0.4596
  474MOL0     H63944  10.111   1.890  11.993 -0.5632  0.2719 -0.6823
  474MOL0     H63945  10.161   2.044  11.898  0.6464 -0.3300  0.6439
  474MOL0     H63946  10.111   1.985  12.192 -0.7800 -1.2947 -0.7172
  474MOL0     H63947  10.102   2.154  12.139 -0.4371 -0.9224 -1.8316
  474MOL0     H63948  10.332   2.115  12.240  1.0901 -3.4827 -0.3964
  474MOL0     H63949  10.328   2.172  12.071 -0.9999  1.9827  1.5781
  474MOL0     H63950  10.489   1.824  11.940 -0.3556 -1.6338  2.8014
  474MOL0     H63951  10.720   1.815  11.901  3.5152  0.9562 -0.2168
  474MOL0     H63952  11.034   1.596  12.048 -0.7435  0.8648  2.6440
  474MOL0     H63953  11.250   1.512  12.084 -1.4600 -0.0232  1.2384
  474MOL0     H63954  11.477   1.630  12.223 -0.3121  0.5903 -0.0133
  474MOL0     H63955  11.466   1.466  12.138  1.0949 -0.8206  2.5982
  474MOL0     H63956  11.664   1.480  12.259  2.1248  2.9489  2.1402
  474MOL0     H63957  11.709   1.496  12.084 -0.2077  1.2026 -1.9650
  474MOL0     H63958  11.707   1.732  12.127 -1.6772 -0.3317  0.5433
  474MOL0     H63959  11.696   1.712  12.300 -1.6435 -0.7876 -0.8277
  474MOL0     H63960  11.931   1.743  12.256  2.5662 -1.4437  1.1170
  474MOL0     H63961  11.930   1.640  12.126 -3.2837 -1.2404 -1.0591
  474MOL0     H63962  11.897   1.442  12.303  0.5067  0.6655  0.2636
  474MOL0     H63963  11.867   1.560  12.431  2.9235 -1.7373  2.3494
  474MOL0     H63964  12.085   1.661  12.399  0.3403 -0.4932  1.4263
  474MOL0     H63965  12.073   1.518  12.480 -1.5527 -0.3769 -0.4430
  474MOL0     H63966  12.169   1.586  12.189  0.1116 -0.4000 -1.1574
  474MOL0     H63967  12.113   1.419  12.220 -3.3784  2.4923 -0.9120
  474MOL0     H63968  12.288   1.389  12.395  1.9678 -0.4315 -0.8005
  474MOL0     H63969  12.354   1.440  12.235  0.6772 -0.2722  1.1183
  474MOL0     H63970  11.416   1.876  11.911  0.6129 -0.5762 -4.4250
  474MOL0     H63971  11.198   1.971  11.881  1.1757 -0.4166 -2.1104
  474MOL0     H63972  10.809   2.114  12.183  1.2034  1.0471 -2.7712
  474MOL0     H63973  10.561   2.140  12.224  2.1427 -0.3202  0.8674
  474MOL0     H63974   8.927   1.883  11.015  0.1469 -2.6550  0.2827
  474MOL0     H63975   8.766   1.734  10.921  0.2489  0.8388 -1.2320
  474MOL0     H63976   8.345   1.506  11.101 -2.0423 -1.4459  0.5580
  474MOL0     H63977   8.128   1.416  11.088 -0.3048  2.4707  0.3594
  474MOL0     H63978   8.078   1.202  10.711  1.5722  1.5966  2.4782
  474MOL0     H63979   7.939   1.308  10.675 -0.9011  1.9873  1.2759
  474MOL0     H63980   7.823   1.164  10.863 -1.2592 -2.1723 -0.7541
  474MOL0     H63981   7.946   1.048  10.806  1.1101 -0.2137 -0.8438
  474MOL0     H63982   7.881   1.088  10.573  1.7431  1.2992  1.0683
  474MOL0     H63983   7.742   1.196  10.623  0.8717  1.8172 -0.5110
  474MOL0     H63984   7.667   0.976  10.547 -0.0587  2.8925 -0.3526
  474MOL0     H63985   7.768   0.892  10.669  0.5687 -0.3763 -2.2264
  474MOL0     H63986   7.501   1.026  10.950 -1.8396  0.0018 -1.3666
  474MOL0     H63987   8.165   1.412  10.655  0.0308  1.2867  0.2314
  474MOL0     H63988   8.483   1.456  10.626 -3.1036 -2.4352 -0.3536
  474MOL0     H63989   8.343   1.517  10.541 -1.2305  1.2345 -1.1312
  474MOL0     H63990   8.459   1.625  10.620  0.0682 -0.3646 -0.4658
  475MOL0     O63991   5.801   1.037   6.082  0.4177 -0.2141 -0.3946
  475MOL0     C63992   5.717   1.036   6.171  1.3640  0.6235 -0.7165
  475MOL0     O63993   5.719   0.959   6.279 -0.5610  0.6253  0.4644
  475MOL0     C63994   5.811   0.856   6.274  0.3037 -0.0759 -0.5026
  475MOL0     C63995   5.949   0.882   6.268 -0.4963  0.9061  0.4115
  475MOL0     C63996   6.040   0.777   6.253  0.4253 -0.0289 -0.1800
  475MOL0     C63997   5.999   0.649   6.254 -0.0748  0.3033 -0.0619
  475MOL0     O63998   6.076   0.531   6.243  0.2957 -1.2563 -0.6822
  475MOL0     C63999   6.218   0.549   6.224  0.5121 -0.1229 -0.6581
  475MOL0     C64000   6.288   0.412   6.222  0.4556 -0.6884 -0.5978
  475MOL0     C64001   6.431   0.433   6.283  0.0272 -0.0167  0.2517
  475MOL0     C64002   6.513   0.312   6.233 -0.2154 -0.4542 -0.2716
  475MOL0     C64003   6.666   0.324   6.269 -0.6163  0.6591 -1.8696
  475MOL0     C64004   6.689   0.318   6.426 -0.0543 -0.1069  0.0704
  475MOL0     C64005   6.834   0.346   6.462  0.1108 -0.1377 -1.1250
  475MOL0     C64006   6.941   0.239   6.421 -0.5419 -0.3935 -0.0584
  475MOL0     N64007   7.064   0.248   6.505  0.5216 -0.3060 -0.3780
  475MOL0     C64008   7.152   0.351   6.494  1.1416  0.1151 -0.7566
  475MOL0     C64009   7.252   0.323   6.576 -0.8393  0.1426 -0.1250
  475MOL0     C64010   7.370   0.421   6.606  0.0323 -0.9300 -0.7104
  475MOL0     C64011   7.506   0.354   6.598 -0.8599  0.6108  0.6433
  475MOL0     C64012   7.540   0.252   6.710 -0.5231 -0.2293  0.0905
  475MOL0     C64013   7.689   0.259   6.743  1.2695 -0.1547 -0.5031
  475MOL0     O64014   7.764   0.230   6.632  0.3038  0.0686 -0.0752
  475MOL0     C64015   7.904   0.238   6.641 -0.1890 -0.4686  0.5261
  475MOL0     C64016   7.975   0.211   6.529 -0.6343  0.0565 -0.1546
  475MOL0     C64017   8.116   0.223   6.521 -0.3274  0.2293  0.3091
  475MOL0     C64018   8.192   0.253   6.630  0.5813  0.6178 -0.9673
  475MOL0     C64019   8.339   0.268   6.634  0.0967  0.5690  0.0784
  475MOL0     O64020   8.399   0.285   6.756 -0.2397 -0.7084  0.2597
  475MOL0     C64021   8.537   0.285   6.756 -0.5416  1.1239 -0.4061
  475MOL0     C64022   8.590   0.408   6.724 -0.2541 -0.2598  0.6794
  475MOL0     C64023   8.729   0.426   6.723 -0.2654  0.2829 -0.4867
  475MOL0     C64024   8.819   0.322   6.750 -0.5666 -0.3074 -0.1723
  475MOL0     O64025   8.948   0.361   6.742  0.2797  0.2137  0.0995
  475MOL0     C64026   9.049   0.260   6.775  0.2404 -0.3997  0.1581
  475MOL0     C64027   9.179   0.320   6.730  0.3390  0.3490  0.1101
  475MOL0     C64028   9.246   0.426   6.824 -0.3506 -0.5557  1.2368
  475MOL0     C64029   9.361   0.504   6.755 -0.6637 -0.4544  0.9521
  475MOL0     C64030   9.406   0.628   6.843  0.1499 -0.0917 -0.5817
  475MOL0     C64031   9.476   0.728   6.760  0.3123 -0.4226 -0.6248
  475MOL0     C64032   9.531   0.841   6.849 -0.2324 -0.4642  0.9083
  475MOL0     C64033   9.440   0.958   6.895 -0.1996 -0.6076  0.5105
  475MOL0    Cl64034   9.367   1.011   6.743  0.1133 -0.1782 -0.1877
  475MOL0     C64035   8.775   0.201   6.796  0.0325 -0.5470 -0.9364
  475MOL0     C64036   8.637   0.180   6.784 -0.0324 -0.5848 -1.2872
  475MOL0     O64037   8.399   0.250   6.526 -0.2519  0.1416  0.5895
  475MOL0     C64038   8.124   0.274   6.758 -0.5609  1.0311 -0.0502
  475MOL0     C64039   7.978   0.273   6.758 -0.1707 -0.2291 -0.0931
  475MOL0     N64040   7.229   0.195   6.625  0.4153 -0.6190  0.0199
  475MOL0     N64041   7.118   0.154   6.589 -0.0333 -0.4128  0.4649
  475MOL0     C64042   5.865   0.621   6.261 -0.2417  0.5149 -0.4556
  475MOL0     C64043   5.769   0.723   6.281  0.1940  0.8270  1.1291
  475MOL0     C64044   5.594   1.119   6.148 -0.1415  0.5117  0.6666
  475MOL0     C64045   5.472   1.044   6.126 -1.2685  0.2452 -0.5056
  475MOL0     C64046   5.353   1.112   6.093  0.1569  0.4704 -0.2349
  475MOL0     C64047   5.355   1.249   6.093 -0.4774 -1.2533 -0.1327
  475MOL0     O64048   5.251   1.343   6.075  0.1367 -0.0023 -0.3233
  475MOL0     C64049   5.124   1.288   6.068  0.0545  0.0007 -0.4193
  475MOL0     C64050   5.035   1.392   6.135 -0.2241 -0.0707 -0.4238
  475MOL0     C64051   5.027   1.517   6.058  0.2121 -0.0635  0.3773
  475MOL0     C64052   4.915   1.616   6.112 -0.6658  0.2470  0.5922
  475MOL0     C64053   4.778   1.564   6.107  0.6214  0.5107 -0.5698
  475MOL0     C64054   4.662   1.519   6.113 -0.7170 -0.3360  0.2674
  475MOL0     C64055   5.472   1.321   6.108 -0.2273  0.2212 -0.9080
  475MOL0     C64056   5.595   1.258   6.140  0.2335 -0.3316  0.6355
  475MOL0     C64057   5.724   1.341   6.156 -0.4242  0.0554 -0.1406
  475MOL0     H64058   5.968   0.989   6.278 -0.1481  1.0967 -1.8535
  475MOL0     H64059   6.144   0.808   6.242  0.7545 -1.3282 -0.8803
  475MOL0     H64060   6.229   0.618   6.140  0.3315  1.1118  0.2930
  475MOL0     H64061   6.248   0.601   6.316 -0.1131 -2.1714  0.7681
  475MOL0     H64062   6.297   0.370   6.121  0.5827  0.2910 -1.0124
  475MOL0     H64063   6.229   0.343   6.282  0.8636 -2.9437 -2.6120
  475MOL0     H64064   6.434   0.431   6.393 -0.7716  0.6486  0.2983
  475MOL0     H64065   6.461   0.524   6.231 -3.0371  0.5559 -0.7355
  475MOL0     H64066   6.477   0.219   6.278 -2.2758 -0.5033 -1.8850
  475MOL0     H64067   6.489   0.303   6.126 -0.2742 -0.9643 -0.2208
  475MOL0     H64068   6.720   0.244   6.219  2.2517 -0.0346  1.8751
  475MOL0     H64069   6.704   0.422   6.237 -1.5064  0.6727 -2.9506
  475MOL0     H64070   6.625   0.396   6.468  1.4739 -0.0196  2.4002
  475MOL0     H64071   6.651   0.220   6.454 -3.9839  0.5033 -2.3560
  475MOL0     H64072   6.825   0.361   6.570 -4.2681  1.8990 -1.5609
  475MOL0     H64073   6.872   0.443   6.429  1.6319 -0.3165 -0.0123
  475MOL0     H64074   6.902   0.137   6.431  0.1785 -0.5159  2.0422
  475MOL0     H64075   6.973   0.254   6.318  0.8829  1.3419  0.5894
  475MOL0     H64076   7.137   0.442   6.437 -1.9887 -1.4154 -2.6466
  475MOL0     H64077   7.370   0.507   6.538  1.2963 -0.1548  0.2361
  475MOL0     H64078   7.356   0.459   6.707 -1.3201 -4.1316  0.4463
  475MOL0     H64079   7.513   0.302   6.502  2.9731 -1.9845  2.0690
  475MOL0     H64080   7.588   0.426   6.599 -0.8805  0.9802 -3.7119
  475MOL0     H64081   7.510   0.150   6.681  1.4810 -0.1811 -2.4430
  475MOL0     H64082   7.478   0.293   6.790  0.4972  0.5715  0.4835
  475MOL0     H64083   7.700   0.192   6.829 -0.7960 -0.2042 -0.2126
  475MOL0     H64084   7.716   0.361   6.773 -4.3870  1.3341  0.7665
  475MOL0     H64085   7.925   0.188   6.435  3.0135 -1.0344 -2.0149
  475MOL0     H64086   8.157   0.216   6.421  1.5984  0.3564  1.0475
  475MOL0     H64087   8.537   0.492   6.683  0.8800  0.2497  0.2060
  475MOL0     H64088   8.772   0.523   6.701 -0.0713 -0.0445 -1.6172
  475MOL0     H64089   9.053   0.236   6.882 -1.5529 -4.3288 -0.4655
  475MOL0     H64090   9.034   0.165   6.723 -0.2493 -0.6385  0.7273
  475MOL0     H64091   9.243   0.234   6.708 -2.4042 -2.5469  2.6501
  475MOL0     H64092   9.159   0.363   6.631 -1.3167 -1.7674 -0.5588
  475MOL0     H64093   9.181   0.506   6.862  0.7502  0.4201  1.1199
  475MOL0     H64094   9.275   0.384   6.920  0.1960  0.9392  1.7637
  475MOL0     H64095   9.324   0.546   6.661 -0.7021 -0.9998  0.7171
  475MOL0     H64096   9.449   0.440   6.739  0.5392  1.3630 -0.0243
  475MOL0     H64097   9.476   0.595   6.920  0.8254  4.2185  0.8947
  475MOL0     H64098   9.321   0.677   6.893  0.0630 -2.0729  1.4031
  475MOL0     H64099   9.565   0.679   6.720  2.1078 -0.0702  2.6559
  475MOL0     H64100   9.415   0.762   6.676  0.1354 -1.2342 -0.8394
  475MOL0     H64101   9.604   0.889   6.783 -1.1323 -1.1006 -0.6121
  475MOL0     H64102   9.572   0.803   6.943  0.3378 -0.7614  0.5434
  475MOL0     H64103   9.358   0.933   6.963 -1.4730  0.3880 -0.6124
  475MOL0     H64104   9.508   1.029   6.945 -0.9728 -1.6751  3.2636
  475MOL0     H64105   8.851   0.127   6.821  2.3791  2.2352  0.8706
  475MOL0     H64106   8.608   0.078   6.808  0.1754 -0.2326  0.5861
  475MOL0     H64107   8.165   0.303   6.854  0.7818 -2.4774  0.5908
  475MOL0     H64108   7.926   0.295   6.850  0.2240  0.1710  0.0357
  475MOL0     H64109   5.837   0.516   6.270  0.2235  0.4816  0.7248
  475MOL0     H64110   5.665   0.695   6.285  1.1084 -3.4123  0.2619
  475MOL0     H64111   5.480   0.937   6.143 -0.0194  0.7681  3.0160
  475MOL0     H64112   5.263   1.053   6.078 -0.9166  1.8411  0.5667
  475MOL0     H64113   5.113   1.204   6.136 -0.9796 -0.5441 -1.2287
  475MOL0     H64114   5.110   1.271   5.960  3.0268 -0.0761 -0.8855
  475MOL0     H64115   5.082   1.410   6.232 -0.7555 -4.8547  1.0115
  475MOL0     H64116   4.935   1.354   6.157  0.0807 -0.4121  0.4132
  475MOL0     H64117   5.005   1.480   5.957 -1.9290 -0.8874  1.0850
  475MOL0     H64118   5.126   1.564   6.051  0.1918  0.1594  1.4496
  475MOL0     H64119   4.934   1.655   6.213  2.8239  0.6466 -0.1035
  475MOL0     H64120   4.930   1.706   6.051 -0.9891 -0.1120 -0.0244
  475MOL0     H64121   4.562   1.481   6.102 -0.7841 -0.8522  2.2937
  475MOL0     H64122   5.473   1.429   6.091  0.3674  0.1727 -1.2008
  475MOL0     H64123   5.725   1.379   6.259 -2.4312  0.5639 -0.2593
  475MOL0     H64124   5.817   1.287   6.135 -1.4191 -1.8524  0.1005
  475MOL0     H64125   5.722   1.426   6.087  0.6973  0.2871  0.0901
  476MOL0     O64126   8.557   1.488   5.822  0.0743  0.6242 -0.8411
  476MOL0     C64127   8.468   1.480   5.742 -1.3402 -0.0801 -0.8579
  476MOL0     O64128   8.474   1.432   5.612 -0.1976  0.4193  0.1567
  476MOL0     C64129   8.602   1.390   5.571  1.5017  0.0656 -0.2641
  476MOL0     C64130   8.672   1.473   5.473 -0.5050 -0.0041  0.4345
  476MOL0     C64131   8.796   1.433   5.420 -0.1409 -1.0211 -0.8199
  476MOL0     C64132   8.857   1.308   5.460 -0.2305  0.2581  0.1908
  476MOL0     O64133   8.982   1.259   5.429  0.5987  0.0391 -0.1521
  476MOL0     C64134   9.080   1.340   5.368 -0.1618 -0.5564 -1.0784
  476MOL0     C64135   9.202   1.256   5.369 -0.2921 -0.5014  0.4034
  476MOL0     C64136   9.303   1.311   5.269 -0.3211  0.1939 -0.5883
  476MOL0     C64137   9.439   1.293   5.309 -0.5573 -0.1916 -0.5242
  476MOL0     C64138   9.538   1.336   5.198 -0.1358 -0.1745 -0.3760
  476MOL0     C64139   9.687   1.320   5.237  0.5569  0.1137  0.4968
  476MOL0     C64140   9.796   1.377   5.145  0.1122  0.6406  0.3170
  476MOL0     C64141   9.772   1.323   4.998 -0.0929 -0.1246  0.0511
  476MOL0     N64142   9.867   1.384   4.899  0.1530 -0.1664 -0.6483
  476MOL0     C64143   9.969   1.470   4.927  0.3704 -0.8270  0.6588
  476MOL0     C64144  10.032   1.486   4.810  0.0624  0.6567  0.7009
  476MOL0     C64145  10.156   1.567   4.787  0.8844  0.8739 -0.1644
  476MOL0     C64146  10.120   1.717   4.780 -0.3407  0.4951 -0.4766
  476MOL0     C64147  10.236   1.796   4.695 -0.6847  0.0816  0.2464
  476MOL0     C64148  10.332   1.867   4.795 -0.0232  0.4955 -0.4199
  476MOL0     O64149  10.382   1.782   4.895  0.1796  0.2967  0.2012
  476MOL0     C64150  10.513   1.796   4.917 -0.2343  0.2593  0.3523
  476MOL0     C64151  10.591   1.679   4.880 -0.7479 -0.6114 -0.4824
  476MOL0     C64152  10.727   1.677   4.917  0.7879  0.0154 -0.9815
  476MOL0     C64153  10.783   1.796   4.979 -0.2373 -0.1167  0.1637
  476MOL0     C64154  10.926   1.805   4.987  0.1806 -1.1669 -0.1440
  476MOL0     O64155  10.999   1.716   4.919  0.2008  0.1616 -0.7890
  476MOL0     C64156  11.128   1.743   4.915 -0.4379 -0.2557  0.2144
  476MOL0     C64157  11.183   1.822   4.803  0.0737  1.0685  0.2553
  476MOL0     C64158  11.313   1.849   4.793  0.0071 -0.3792  0.2355
  476MOL0     C64159  11.408   1.807   4.887 -0.1586 -0.3029  0.2749
  476MOL0     O64160  11.544   1.834   4.881 -0.2302 -0.0734 -0.6329
  476MOL0     C64161  11.600   1.876   4.762  0.1381 -0.4166  0.7215
  476MOL0     C64162  11.752   1.863   4.748  0.3724  0.5945  0.2330
  476MOL0     C64163  11.832   1.777   4.839 -0.3220 -0.0093  0.0798
  476MOL0     C64164  11.806   1.628   4.819 -0.7861 -0.2946  0.2365
  476MOL0     C64165  11.867   1.539   4.930 -0.1838 -0.2946 -0.4520
  476MOL0     C64166  12.020   1.568   4.955 -0.0748 -0.0384 -0.9810
  476MOL0     C64167  12.064   1.485   5.076 -0.4541 -0.4526 -0.6315
  476MOL0     C64168  12.122   1.565   5.196  0.8254 -0.1060 -0.4821
  476MOL0    Cl64169  12.273   1.653   5.175 -0.2387  0.2707 -0.2425
  476MOL0     C64170  11.361   1.713   4.984 -0.2170 -0.0406 -0.4420
  476MOL0     C64171  11.226   1.675   4.993 -0.6212 -0.7362  0.0608
  476MOL0     O64172  10.969   1.901   5.056  0.9774  0.5440 -0.2051
  476MOL0     C64173  10.702   1.901   5.027  0.3452 -0.4520  0.4647
  476MOL0     C64174  10.569   1.902   4.995  0.4616 -0.5613  0.0076
  476MOL0     N64175   9.960   1.415   4.709 -0.2244 -0.2603 -0.6408
  476MOL0     N64176   9.859   1.364   4.767  0.4221 -0.5932  1.1997
  476MOL0     C64177   8.782   1.231   5.557 -0.6083  0.4663 -0.0673
  476MOL0     C64178   8.665   1.274   5.611 -0.1900  0.9663  0.5144
  476MOL0     C64179   8.349   1.531   5.801  1.0126  0.2498 -0.0473
  476MOL0     C64180   8.310   1.496   5.929 -0.4345 -0.2340  0.8035
  476MOL0     C64181   8.215   1.564   6.005 -0.1828  0.6126  0.1841
  476MOL0     C64182   8.140   1.660   5.942  0.2868  0.2821 -0.7073
  476MOL0     O64183   8.050   1.754   5.999 -0.0289  0.3267  0.2931
  476MOL0     C64184   8.030   1.745   6.138  0.6166 -0.6745 -0.6833
  476MOL0     C64185   7.917   1.838   6.180  0.8329  0.3468  0.1362
  476MOL0     C64186   7.954   1.978   6.153  0.4285  0.2941  0.3153
  476MOL0     C64187   7.847   2.085   6.198  0.5819 -0.5203 -0.4936
  476MOL0     C64188   7.906   2.217   6.181 -0.0047 -1.0465  0.7280
  476MOL0     C64189   7.944   2.330   6.169 -0.0391 -0.1962  0.3960
  476MOL0     C64190   8.158   1.683   5.805  0.0083  0.0796 -0.6356
  476MOL0     C64191   8.259   1.612   5.728  0.0202  0.2811 -0.2153
  476MOL0     C64192   8.254   1.615   5.580  0.2613  0.7954  0.2651
  476MOL0     H64193   8.616   1.562   5.448 -1.3998 -0.8347 -0.6253
  476MOL0     H64194   8.837   1.499   5.344 -2.4843 -0.2472 -1.5121
  476MOL0     H64195   9.052   1.366   5.265 -1.6010 -1.3216 -0.9064
  476MOL0     H64196   9.098   1.431   5.427 -0.2727  0.0378 -1.9380
  476MOL0     H64197   9.175   1.154   5.340 -2.4416 -0.0179  0.5121
  476MOL0     H64198   9.247   1.245   5.469  0.4779  1.1155  0.2614
  476MOL0     H64199   9.286   1.418   5.252  0.4706  0.1436 -1.8612
  476MOL0     H64200   9.293   1.269   5.168 -0.0460 -0.3658 -0.3859
  476MOL0     H64201   9.461   1.349   5.401 -0.4200 -0.7054 -0.2335
  476MOL0     H64202   9.471   1.193   5.340  2.0332  0.9478  0.8640
  476MOL0     H64203   9.522   1.282   5.104 -0.2503 -1.2802  0.2670
  476MOL0     H64204   9.528   1.442   5.174  1.9404 -0.0139 -0.7712
  476MOL0     H64205   9.692   1.359   5.339 -1.4722 -3.0377  1.9493
  476MOL0     H64206   9.705   1.212   5.242 -1.0494 -0.2832 -1.2645
  476MOL0     H64207   9.896   1.356   5.185  0.0983 -0.8774 -0.3616
  476MOL0     H64208   9.787   1.486   5.139 -1.3425  0.5919  1.3030
  476MOL0     H64209   9.798   1.217   4.998 -0.4891 -0.2274  0.6265
  476MOL0     H64210   9.668   1.337   4.967 -1.1469 -2.9943  1.8716
  476MOL0     H64211   9.992   1.520   5.021 -1.2409 -2.1895  1.8461
  476MOL0     H64212  10.222   1.549   4.872  1.6949  0.4485 -0.8765
  476MOL0     H64213  10.209   1.523   4.702 -3.1579  0.6509 -2.9050
  476MOL0     H64214  10.027   1.735   4.725 -1.2854 -1.5255  0.3781
  476MOL0     H64215  10.112   1.749   4.885  1.5899  1.2158 -0.4942
  476MOL0     H64216  10.182   1.858   4.623 -0.8256 -1.2658 -0.8532
  476MOL0     H64217  10.284   1.723   4.630 -0.8420 -0.6159  0.9018
  476MOL0     H64218  10.286   1.948   4.854 -0.7249 -1.6161  2.0941
  476MOL0     H64219  10.418   1.887   4.731 -0.0993 -1.8762 -1.3333
  476MOL0     H64220  10.542   1.599   4.826 -1.5487 -0.9146  0.6356
  476MOL0     H64221  10.782   1.587   4.893 -0.1179 -1.0247  0.6668
  476MOL0     H64222  11.104   1.857   4.738 -1.0985  0.5092  1.3537
  476MOL0     H64223  11.343   1.913   4.710  1.8952 -1.1336  0.2939
  476MOL0     H64224  11.556   1.838   4.669  0.5075  0.9854 -0.0440
  476MOL0     H64225  11.571   1.981   4.760 -0.5041 -0.5934  0.3235
  476MOL0     H64226  11.776   1.822   4.650 -0.9857  2.0514 -0.7827
  476MOL0     H64227  11.777   1.970   4.755 -0.9429  1.1678 -2.4850
  476MOL0     H64228  11.938   1.796   4.817 -0.6851 -0.0770 -1.8528
  476MOL0     H64229  11.808   1.804   4.943  1.7739 -1.6175  1.0673
  476MOL0     H64230  11.853   1.585   4.730 -0.2241 -1.3028  0.9896
  476MOL0     H64231  11.698   1.619   4.806 -0.9304  0.9868  0.4754
  476MOL0     H64232  11.858   1.435   4.896  0.4839  0.8182 -4.6614
  476MOL0     H64233  11.809   1.555   5.022  0.5460  1.5691 -0.2787
  476MOL0     H64234  12.084   1.544   4.869 -0.1501 -1.3667 -0.6896
  476MOL0     H64235  12.040   1.673   4.976  0.4756 -0.5835  1.4992
  476MOL0     H64236  12.141   1.410   5.053  1.6866  1.7139 -0.9298
  476MOL0     H64237  11.991   1.416   5.120  0.5651 -1.1754  0.0073
  476MOL0     H64238  12.045   1.638   5.225  0.2490 -0.7996 -0.2413
  476MOL0     H64239  12.121   1.499   5.283 -2.4619 -0.5806 -0.7603
  476MOL0     H64240  11.432   1.668   5.052 -1.5968 -0.3361  0.8616
  476MOL0     H64241  11.188   1.604   5.066  0.5342 -1.7482 -0.2980
  476MOL0     H64242  10.745   1.985   5.080  0.6029 -0.4610  0.2725
  476MOL0     H64243  10.502   1.983   5.023 -1.9368 -2.1322 -0.8751
  476MOL0     H64244   8.807   1.135   5.601 -0.3471  0.9435  0.8520
  476MOL0     H64245   8.622   1.195   5.671  1.3349  0.9866  1.6949
  476MOL0     H64246   8.361   1.412   5.974 -1.4058  0.4317  3.3076
  476MOL0     H64247   8.216   1.543   6.112  4.3278 -1.1846  0.0316
  476MOL0     H64248   8.119   1.773   6.196 -1.2720 -0.1234  2.1084
  476MOL0     H64249   8.023   1.641   6.171  2.1171 -1.2869 -2.1301
  476MOL0     H64250   7.881   1.830   6.283  0.8310 -0.6970  0.0740
  476MOL0     H64251   7.834   1.823   6.111  2.4597 -1.2303 -1.5874
  476MOL0     H64252   7.973   1.983   6.046 -0.5853 -0.9224  0.0505
  476MOL0     H64253   8.053   1.989   6.199  1.3872 -1.2856 -1.2305
  476MOL0     H64254   7.745   2.086   6.159 -0.4621  1.8407  2.0220
  476MOL0     H64255   7.840   2.081   6.307  0.9847  3.7289 -0.1748
  476MOL0     H64256   7.975   2.431   6.153  1.7791 -0.6703  0.6067
  476MOL0     H64257   8.088   1.753   5.759  0.1355  1.1414  0.6971
  476MOL0     H64258   8.326   1.686   5.537 -0.5833  0.5007 -1.7239
  476MOL0     H64259   8.266   1.516   5.535 -1.9299  0.4443  0.3405
  476MOL0     H64260   8.156   1.653   5.550 -0.9970 -1.2252  1.5880
  477MOL0     O64261   9.707   9.029   8.358  0.2804  0.7986 -0.5202
  477MOL0     C64262   9.805   9.079   8.417 -0.1097  0.1245  0.1076
  477MOL0     O64263   9.791   9.112   8.555 -0.4955  0.5794 -0.8098
  477MOL0     C64264   9.668   9.107   8.613  0.1040  0.6710 -0.2562
  477MOL0     C64265   9.613   9.228   8.652  0.3584 -0.2916  0.1720
  477MOL0     C64266   9.480   9.239   8.708 -0.5005  0.1835 -0.3735
  477MOL0     C64267   9.412   9.124   8.745  0.6480 -0.2437 -0.0964
  477MOL0     O64268   9.284   9.125   8.798  0.2658 -0.5527  0.0066
  477MOL0     C64269   9.216   9.253   8.792  0.4351 -0.1405 -0.7940
  477MOL0     C64270   9.077   9.219   8.841  0.6315  0.2238 -0.2668
  477MOL0     C64271   9.095   9.247   8.987 -0.3448  0.1985 -0.3043
  477MOL0     C64272   8.970   9.193   9.053 -0.5849  0.1726  0.2736
  477MOL0     C64273   8.965   9.241   9.202 -0.2988  0.8771  0.2175
  477MOL0     C64274   8.862   9.164   9.283 -0.0906  0.5468  0.1962
  477MOL0     C64275   8.852   9.218   9.420  0.4993 -0.1159  0.0074
  477MOL0     C64276   8.767   9.134   9.513  0.2785  0.5004  0.2635
  477MOL0     N64277   8.769   9.195   9.643 -0.8165 -0.1255  0.4599
  477MOL0     C64278   8.871   9.189   9.731  0.5018  1.2745  0.6465
  477MOL0     C64279   8.821   9.250   9.839  0.7622  0.0570  0.0564
  477MOL0     C64280   8.891   9.272   9.965  0.1899 -0.4923 -1.1952
  477MOL0     C64281   9.025   9.335   9.949 -0.5834  0.7177 -1.1556
  477MOL0     C64282   9.037   9.468   9.874  0.3482 -0.2533 -0.1184
  477MOL0     C64283   9.173   9.546   9.903 -0.0789 -0.1075  0.2417
  477MOL0     O64284   9.180   9.661   9.821  0.1741  0.2320  0.9878
  477MOL0     C64285   9.304   9.732   9.820  0.1599  0.4913 -0.5209
  477MOL0     C64286   9.315   9.825   9.716 -0.8532  0.5731  0.3217
  477MOL0     C64287   9.429   9.899   9.709 -0.0492  0.4672  0.9668
  477MOL0     C64288   9.531   9.880   9.798 -0.4555 -0.0343 -0.1108
  477MOL0     C64289   9.655   9.958   9.775  0.1526 -0.7424  0.0267
  477MOL0     O64290   9.641  10.084   9.706  0.2430 -0.5649 -0.1596
  477MOL0     C64291   9.752  10.156   9.680 -0.0453  0.6920  1.2147
  477MOL0     C64292   9.743  10.296   9.681  0.8890 -0.4786  0.9957
  477MOL0     C64293   9.853  10.370   9.641  0.3059 -0.3869 -0.8829
  477MOL0     C64294   9.972  10.315   9.589 -0.1255  0.4033  0.1814
  477MOL0     O64295  10.075  10.384   9.529 -0.0278 -0.0438  0.3865
  477MOL0     C64296  10.080  10.521   9.557  0.1159  0.1095  0.1516
  477MOL0     C64297  10.219  10.571   9.507  0.3371 -0.7295 -0.1372
  477MOL0     C64298  10.218  10.723   9.533  1.1878  0.1956  0.5815
  477MOL0     C64299  10.358  10.776   9.514  0.0148  0.0942  0.0149
  477MOL0     C64300  10.367  10.925   9.486 -0.5756 -0.1575 -0.9680
  477MOL0     C64301  10.510  10.950   9.449 -0.1903 -0.3325  0.4424
  477MOL0     C64302  10.540  11.102   9.415  0.6062 -0.2038 -0.1310
  477MOL0     C64303  10.650  11.114   9.301  0.4955  0.1646 -0.1969
  477MOL0    Cl64304  10.583  11.138   9.134 -0.0493 -0.2739 -0.6667
  477MOL0     C64305   9.985  10.179   9.588 -0.0801 -0.5209 -0.3731
  477MOL0     C64306   9.874  10.098   9.623 -0.3618  0.0118  0.2141
  477MOL0     O64307   9.758   9.903   9.807 -0.0907  0.7511  0.6931
  477MOL0     C64308   9.522   9.784   9.897 -0.6342 -0.0117 -0.2726
  477MOL0     C64309   9.411   9.708   9.905 -0.1375  0.6216 -1.2674
  477MOL0     N64310   8.706   9.308   9.801 -0.0661 -0.6215 -0.1163
  477MOL0     N64311   8.669   9.273   9.684  0.8095  0.0503  0.9201
  477MOL0     C64312   9.485   9.007   8.719 -0.1621 -0.2440 -0.4841
  477MOL0     C64313   9.608   8.995   8.651 -0.6851  0.7573  0.3815
  477MOL0     C64314   9.939   9.111   8.354  0.0999  0.4310  1.2622
  477MOL0     C64315   9.953   9.232   8.272 -0.7179 -0.2968 -0.2666
  477MOL0     C64316  10.070   9.244   8.198  0.5514  0.2555 -0.4066
  477MOL0     C64317  10.169   9.149   8.214  0.6289  0.3952  0.4552
  477MOL0     O64318  10.282   9.185   8.150 -1.3198 -0.2862 -0.3367
  477MOL0     C64319  10.355   9.085   8.077  0.4334  0.2315 -0.6386
  477MOL0     C64320  10.412   9.142   7.959  0.1530  0.2672  0.3835
  477MOL0     C64321  10.509   9.044   7.895  0.7337 -0.5178  0.4818
  477MOL0     C64322  10.629   9.108   7.824 -0.2106 -0.3895 -0.6282
  477MOL0     C64323  10.735   9.009   7.798  0.3385  0.6168  0.6600
  477MOL0     C64324  10.814   8.913   7.795 -0.0143 -0.4279  0.0299
  477MOL0     C64325  10.155   9.024   8.283  0.0195  0.1995 -0.4045
  477MOL0     C64326  10.035   9.010   8.355  0.6989  0.5596  0.4394
  477MOL0     C64327  10.014   8.890   8.448 -0.3235 -0.5243  0.5769
  477MOL0     H64328   9.664   9.322   8.632  1.9737 -0.9702  0.8937
  477MOL0     H64329   9.450   9.340   8.735 -0.2932 -0.3563  2.1122
  477MOL0     H64330   9.270   9.326   8.854 -1.2760  1.7717 -1.4596
  477MOL0     H64331   9.217   9.284   8.688  0.5544  2.8283  0.0055
  477MOL0     H64332   9.049   9.115   8.820 -0.4004  0.1420  1.3265
  477MOL0     H64333   9.000   9.281   8.793  0.4088  1.7098  1.8579
  477MOL0     H64334   9.103   9.353   9.009  4.9864  0.6639 -2.8693
  477MOL0     H64335   9.181   9.199   9.034 -1.8072 -2.3942 -0.0883
  477MOL0     H64336   8.879   9.216   8.996 -1.9977 -2.6908  1.2149
  477MOL0     H64337   8.968   9.084   9.050 -1.7590  0.1217  1.8110
  477MOL0     H64338   9.063   9.213   9.239 -0.3671 -3.4252 -2.2157
  477MOL0     H64339   8.953   9.350   9.194  3.3102  1.3094 -5.5075
  477MOL0     H64340   8.768   9.166   9.227 -0.3167 -0.2875  0.5390
  477MOL0     H64341   8.892   9.059   9.291 -3.7064 -0.5929  0.3243
  477MOL0     H64342   8.802   9.314   9.405  1.2706 -0.0957 -3.3215
  477MOL0     H64343   8.950   9.239   9.465 -0.2624 -1.5143  2.4928
  477MOL0     H64344   8.662   9.121   9.485  0.1245  1.4156  0.3927
  477MOL0     H64345   8.813   9.035   9.526  0.6698  0.8254  1.5605
  477MOL0     H64346   8.968   9.142   9.719 -0.6117 -1.0582  0.2990
  477MOL0     H64347   8.835   9.328  10.040 -2.3614 -3.2962 -0.7707
  477MOL0     H64348   8.906   9.174  10.012 -1.8254 -0.6724 -0.8228
  477MOL0     H64349   9.051   9.362  10.052 -0.9710 -1.8554 -0.3027
  477MOL0     H64350   9.103   9.272   9.904  0.9529  1.2631  0.5988
  477MOL0     H64351   8.953   9.534   9.897 -0.3341 -0.8591 -0.8052
  477MOL0     H64352   9.031   9.459   9.765  0.7188  3.8333 -0.6304
  477MOL0     H64353   9.256   9.478   9.884 -0.9829 -1.6049  1.4354
  477MOL0     H64354   9.185   9.578  10.008  1.5174 -0.7785  0.2922
  477MOL0     H64355   9.241   9.841   9.638  1.7146 -0.8867 -2.6241
  477MOL0     H64356   9.443   9.967   9.626  0.5181  0.2791  0.9025
  477MOL0     H64357   9.645  10.331   9.711 -0.2750 -0.1117 -2.7134
  477MOL0     H64358   9.827  10.474   9.624 -1.9236 -0.5163  1.2702
  477MOL0     H64359  10.004  10.581   9.507 -0.0556 -0.9293 -0.8578
  477MOL0     H64360  10.067  10.540   9.664  0.6932  0.4287  0.1711
  477MOL0     H64361  10.299  10.514   9.555 -2.0534 -2.2491  2.3092
  477MOL0     H64362  10.231  10.562   9.399 -0.5123  2.6484 -0.6327
  477MOL0     H64363  10.156  10.776   9.460  4.3905  1.0100 -1.8034
  477MOL0     H64364  10.185  10.749   9.633 -1.3126 -1.6713  0.3246
  477MOL0     H64365  10.409  10.723   9.433  1.8179  1.1104  0.4365
  477MOL0     H64366  10.426  10.758   9.599 -0.6479  0.0237  0.5400
  477MOL0     H64367  10.348  10.978   9.579  2.1626  0.5030 -0.7112
  477MOL0     H64368  10.301  10.969   9.411  2.6216  1.5619 -3.0168
  477MOL0     H64369  10.563  10.919   9.540  0.4035 -1.2653 -0.1947
  477MOL0     H64370  10.552  10.892   9.366 -0.7676  0.2822 -0.2886
  477MOL0     H64371  10.568  11.150   9.509  0.1255 -1.2129  0.5407
  477MOL0     H64372  10.445  11.143   9.380 -0.3894 -1.6056  0.8289
  477MOL0     H64373  10.707  11.204   9.322  0.3500 -0.4427  3.4949
  477MOL0     H64374  10.715  11.026   9.310 -2.1875 -2.2665 -2.4530
  477MOL0     H64375  10.085  10.142   9.570 -0.8022 -2.9485  0.2213
  477MOL0     H64376   9.894   9.993   9.607  5.0621  0.6114  1.3289
  477MOL0     H64377   9.605   9.781   9.968 -0.4809  1.2550 -0.3713
  477MOL0     H64378   9.414   9.631   9.981  0.2554  2.3018  0.5148
  477MOL0     H64379   9.430   8.914   8.730 -0.1597 -0.2816 -0.7815
  477MOL0     H64380   9.638   8.898   8.614 -3.5051 -0.5805  1.3052
  477MOL0     H64381   9.875   9.303   8.247 -1.7094 -0.0153  3.1950
  477MOL0     H64382  10.089   9.332   8.137 -0.1174  1.0617  0.5103
  477MOL0     H64383  10.291   9.002   8.045 -1.5496  1.5118 -0.2243
  477MOL0     H64384  10.434   9.057   8.146 -1.2719 -2.2797  0.4780
  477MOL0     H64385  10.475   9.228   7.985  3.1774 -1.8734  0.6294
  477MOL0     H64386  10.332   9.170   7.889  0.4192 -1.5930 -0.7246
  477MOL0     H64387  10.454   8.975   7.829  0.2509  0.4781 -0.1853
  477MOL0     H64388  10.552   8.989   7.978  1.6454 -2.1424 -0.9980
  477MOL0     H64389  10.584   9.147   7.732 -2.2545 -1.5046 -0.1663
  477MOL0     H64390  10.670   9.186   7.889 -0.5083 -2.0134  1.6312
  477MOL0     H64391  10.878   8.829   7.810 -0.8429 -1.4626 -1.8915
  477MOL0     H64392  10.233   8.948   8.284 -0.7589 -0.6045  0.5912
  477MOL0     H64393  10.090   8.817   8.419  1.2160  1.8974 -2.0161
  477MOL0     H64394  10.043   8.938   8.542  1.1867  0.1689 -0.2014
  477MOL0     H64395   9.918   8.839   8.453  1.4884 -4.1569  2.3268
  478MOL0     O64396   5.264   8.384   4.233  0.5907 -0.0420 -0.2174
  478MOL0     C64397   5.327   8.373   4.333  0.0301  0.0658 -0.3983
  478MOL0     O64398   5.460   8.403   4.344  0.0493 -0.5069 -0.3922
  478MOL0     C64399   5.528   8.452   4.235 -0.5472  0.6864  0.7067
  478MOL0     C64400   5.482   8.544   4.140  0.4835  0.7971  0.5683
  478MOL0     C64401   5.566   8.583   4.032  0.1117 -0.5697  0.4785
  478MOL0     C64402   5.699   8.546   4.020 -0.1442  0.2726 -0.2865
  478MOL0     O64403   5.786   8.590   3.918  0.6268 -0.1321 -0.1422
  478MOL0     C64404   5.904   8.658   3.964  0.9236  1.0170  0.4635
  478MOL0     C64405   5.898   8.810   3.927  0.9281 -0.1447 -0.2154
  478MOL0     C64406   5.784   8.895   3.984  0.8269 -0.5000 -0.2673
  478MOL0     C64407   5.753   9.037   3.917  0.3016  0.0833  0.2346
  478MOL0     C64408   5.628   9.111   3.980  0.1752 -0.6334  0.1437
  478MOL0     C64409   5.631   9.132   4.132  0.2422 -0.1616  0.0019
  478MOL0     C64410   5.549   9.246   4.192 -0.3409 -0.5426 -0.2637
  478MOL0     C64411   5.607   9.292   4.329 -0.7122 -0.2027 -0.0716
  478MOL0     N64412   5.508   9.375   4.405 -0.2351 -0.1578  1.1074
  478MOL0     C64413   5.508   9.511   4.390 -0.0492 -0.3903 -0.2719
  478MOL0     C64414   5.395   9.564   4.451  0.4459  0.5289  0.0617
  478MOL0     C64415   5.339   9.703   4.446 -0.5596 -0.8889  0.4511
  478MOL0     C64416   5.190   9.713   4.459  0.3840 -0.8490 -0.4990
  478MOL0     C64417   5.145   9.704   4.605 -0.3344  0.6053 -0.1521
  478MOL0     C64418   5.198   9.813   4.691  0.3274 -0.0065  0.7516
  478MOL0     O64419   5.151   9.941   4.642  0.0932 -0.2597 -0.0476
  478MOL0     C64420   5.026   9.994   4.670  0.2880 -0.1714  0.2832
  478MOL0     C64421   4.923   9.923   4.737  0.1181 -0.7881  0.0002
  478MOL0     C64422   4.811   9.997   4.793 -1.5497 -0.8099  0.1469
  478MOL0     C64423   4.802  10.139   4.761 -0.3890  0.0095  0.2322
  478MOL0     C64424   4.685  10.215   4.793  0.5688 -0.1230  0.1363
  478MOL0     O64425   4.689  10.348   4.763 -0.2702 -0.0004 -0.2277
  478MOL0     C64426   4.572  10.432   4.775 -0.2131 -0.4058  0.8505
  478MOL0     C64427   4.585  10.576   4.769 -0.0588 -0.3888 -0.4138
  478MOL0     C64428   4.480  10.666   4.762 -0.3612  0.0815 -0.3634
  478MOL0     C64429   4.351  10.606   4.756 -0.3457  0.5613 -0.5222
  478MOL0     O64430   4.238  10.685   4.752  0.3784  0.1604  0.2314
  478MOL0     C64431   4.253  10.824   4.720 -0.3537 -0.6455  0.6631
  478MOL0     C64432   4.125  10.906   4.725  1.0296  1.0041  0.0886
  478MOL0     C64433   4.027  10.894   4.609 -0.5083  0.4355  0.3732
  478MOL0     C64434   3.924  10.999   4.599 -0.5769 -0.0534  1.1716
  478MOL0     C64435   3.788  10.945   4.535 -1.0374 -0.4435  0.5049
  478MOL0     C64436   3.806  10.893   4.391  0.2277 -0.3630  0.0818
  478MOL0     C64437   3.674  10.853   4.329 -0.2561  0.9174 -0.7651
  478MOL0     C64438   3.670  10.786   4.193  0.5847  0.3510  0.4905
  478MOL0    Cl64439   3.786  10.658   4.179  0.0293 -0.3974 -0.1331
  478MOL0     C64440   4.332  10.465   4.769  0.0493 -0.4225  0.6430
  478MOL0     C64441   4.445  10.386   4.775  0.2640  0.0161 -0.3412
  478MOL0     O64442   4.599  10.152   4.853 -0.3339  0.3121 -0.4124
  478MOL0     C64443   4.896  10.192   4.676 -0.1466 -0.2192 -1.2937
  478MOL0     C64444   5.005  10.125   4.627 -1.1019 -0.7417  0.7155
  478MOL0     N64445   5.336   9.455   4.505 -0.1478  0.1302  0.1210
  478MOL0     N64446   5.399   9.339   4.472  0.2168 -0.4935  0.1861
  478MOL0     C64447   5.753   8.458   4.116 -0.4244 -0.1260 -0.6163
  478MOL0     C64448   5.667   8.418   4.222  0.6104 -0.9369  0.1982
  478MOL0     C64449   5.251   8.352   4.462 -0.0437  0.0628  0.5016
  478MOL0     C64450   5.317   8.396   4.573  0.3197  0.0861 -0.2311
  478MOL0     C64451   5.254   8.402   4.701 -0.3395  0.1703 -0.3721
  478MOL0     C64452   5.126   8.354   4.716  0.1231 -0.3691  0.9972
  478MOL0     O64453   5.067   8.376   4.837 -0.1370 -0.1449 -0.7760
  478MOL0     C64454   4.925   8.349   4.860  0.0886 -0.0273  0.2296
  478MOL0     C64455   4.837   8.458   4.804 -0.1248  0.4234  0.8491
  478MOL0     C64456   4.687   8.438   4.847 -0.2765  0.1974 -0.1011
  478MOL0     C64457   4.623   8.312   4.798 -0.3935 -0.1446  0.3458
  478MOL0     C64458   4.483   8.324   4.820  0.3989 -0.1529  0.1847
  478MOL0     C64459   4.368   8.324   4.866  0.1282  0.2207 -0.0313
  478MOL0     C64460   5.059   8.307   4.609  0.5366 -0.1355 -0.5932
  478MOL0     C64461   5.120   8.303   4.484  0.4212  0.4385 -0.3810
  478MOL0     C64462   5.033   8.248   4.373  0.4720  0.3117 -0.4880
  478MOL0     H64463   5.384   8.590   4.133  0.6936  1.1272 -0.2748
  478MOL0     H64464   5.515   8.642   3.956 -0.9745 -4.0280 -1.7187
  478MOL0     H64465   5.921   8.643   4.071 -0.1994  3.7092  1.1203
  478MOL0     H64466   5.989   8.618   3.907  0.8235 -2.3147  2.4050
  478MOL0     H64467   5.906   8.820   3.818 -1.5046 -1.4974 -0.5926
  478MOL0     H64468   5.987   8.849   3.977 -0.8132  1.2504  1.9815
  478MOL0     H64469   5.795   8.903   4.092  0.2991 -0.2121 -0.2278
  478MOL0     H64470   5.693   8.836   3.969  0.1844  0.4872 -0.3444
  478MOL0     H64471   5.839   9.102   3.934 -0.8804  1.0157  3.6773
  478MOL0     H64472   5.746   9.020   3.809  1.2005 -0.1560  0.2043
  478MOL0     H64473   5.628   9.212   3.937  0.0971 -0.8003 -0.2514
  478MOL0     H64474   5.538   9.057   3.948 -0.3691 -0.1681  0.8358
  478MOL0     H64475   5.584   9.045   4.178 -0.9664  0.5379  0.1082
  478MOL0     H64476   5.731   9.149   4.174  0.8678 -0.2049 -1.3984
  478MOL0     H64477   5.447   9.211   4.213 -0.3874 -0.4108 -0.2649
  478MOL0     H64478   5.544   9.322   4.113 -1.2484 -0.5184 -0.1911
  478MOL0     H64479   5.618   9.200   4.387  0.2016  0.1342  0.2987
  478MOL0     H64480   5.703   9.340   4.313 -0.2619 -0.8290  0.6981
  478MOL0     H64481   5.575   9.567   4.325  0.5094 -0.3287  0.3529
  478MOL0     H64482   5.389   9.769   4.516 -2.1123  0.3940  0.4173
  478MOL0     H64483   5.370   9.744   4.349  2.1014  1.4843  2.1378
  478MOL0     H64484   5.155   9.805   4.412 -0.5895 -1.6248 -1.3395
  478MOL0     H64485   5.141   9.637   4.398  0.5420  0.0623 -1.8064
  478MOL0     H64486   5.158   9.605   4.649 -2.9191 -0.0486 -0.6923
  478MOL0     H64487   5.037   9.705   4.591 -0.1611 -0.4294 -1.7685
  478MOL0     H64488   5.306   9.806   4.707  1.1202  0.9008 -3.1559
  478MOL0     H64489   5.149   9.794   4.787 -0.3534  0.2704  0.4656
  478MOL0     H64490   4.922   9.817   4.758  3.3932 -0.2434  4.1513
  478MOL0     H64491   4.735   9.956   4.858 -2.1452  1.7117  1.1742
  478MOL0     H64492   4.683  10.623   4.774 -0.1291 -0.3866  2.0210
  478MOL0     H64493   4.489  10.774   4.758  0.1086  0.0266 -1.1497
  478MOL0     H64494   4.312  10.867   4.801 -0.4049  1.0378 -0.1439
  478MOL0     H64495   4.298  10.830   4.620 -0.0210 -2.2367  0.6913
  478MOL0     H64496   4.077  10.889   4.822 -0.7560  2.0186 -0.5591
  478MOL0     H64497   4.155  11.011   4.739  1.6472  1.1138 -1.8090
  478MOL0     H64498   4.091  10.898   4.520  0.5394 -1.6769  0.9518
  478MOL0     H64499   3.975  10.799   4.622 -1.0153  0.5182 -0.9289
  478MOL0     H64500   3.968  11.071   4.529 -3.2513 -0.0892 -0.6646
  478MOL0     H64501   3.924  11.039   4.700  1.4480 -0.2409  1.2891
  478MOL0     H64502   3.711  11.023   4.537  0.3270  1.1554 -2.5595
  478MOL0     H64503   3.746  10.867   4.600  0.4384 -1.0169  0.8007
  478MOL0     H64504   3.843  10.977   4.332 -1.7214 -0.4522 -1.3649
  478MOL0     H64505   3.876  10.810   4.379  1.3794  0.6307 -0.2600
  478MOL0     H64506   3.607  10.939   4.318  1.6901  2.4412 -1.2411
  478MOL0     H64507   3.626  10.774   4.387 -1.2408  0.2666 -2.4243
  478MOL0     H64508   3.572  10.743   4.167  0.2100 -1.7142  4.5237
  478MOL0     H64509   3.701  10.867   4.127 -0.2433  0.0118 -0.3450
  478MOL0     H64510   4.235  10.417   4.774 -0.5257  0.0288 -3.3429
  478MOL0     H64511   4.438  10.278   4.790  4.3227 -0.3468  0.2322
  478MOL0     H64512   4.894  10.298   4.652  2.1569  0.2521  0.3225
  478MOL0     H64513   5.083  10.175   4.569 -1.3082  0.3983  1.3792
  478MOL0     H64514   5.859   8.434   4.122 -0.1524  1.2566  0.8414
  478MOL0     H64515   5.708   8.343   4.289  0.2211 -0.8072  0.5813
  478MOL0     H64516   5.416   8.440   4.575 -0.5193  2.0748  2.3188
  478MOL0     H64517   5.316   8.437   4.783  1.2513  0.4406 -1.6441
  478MOL0     H64518   4.916   8.344   4.969 -0.7936  2.7595  0.3469
  478MOL0     H64519   4.893   8.254   4.816 -0.7856  1.1422 -1.7764
  478MOL0     H64520   4.837   8.446   4.695 -3.0889 -0.9123  0.9050
  478MOL0     H64521   4.870   8.559   4.830  1.1648 -0.4662  2.9488
  478MOL0     H64522   4.643   8.528   4.803  2.6019 -0.0435 -4.0222
  478MOL0     H64523   4.684   8.438   4.956  0.2221 -2.1801 -0.0305
  478MOL0     H64524   4.642   8.301   4.691 -2.6883 -2.4012  0.0891
  478MOL0     H64525   4.639   8.221   4.856 -3.8698 -1.2163 -0.1297
  478MOL0     H64526   4.269   8.330   4.905 -0.7532  1.2663 -2.2830
  478MOL0     H64527   4.956   8.275   4.599 -0.6532  2.5786  1.5895
  478MOL0     H64528   4.978   8.159   4.406  2.4718 -1.0273 -0.5366
  478MOL0     H64529   4.966   8.325   4.335 -0.0727 -0.7224 -1.7343
  478MOL0     H64530   5.094   8.218   4.287  1.7060 -2.3165  1.1697
  479MOL0     O64531   2.601   8.547   0.986 -0.2487 -0.1457 -0.0405
  479MOL0     C64532   2.525   8.529   1.076 -0.9135  0.4374 -0.0046
  479MOL0     O64533   2.569   8.529   1.203  0.1438 -0.4275  0.1153
  479MOL0     C64534   2.700   8.562   1.232 -0.3513 -0.2400  0.2308
  479MOL0     C64535   2.810   8.519   1.156  0.4081 -0.1901  1.7192
  479MOL0     C64536   2.940   8.550   1.193 -0.2775  0.6187 -0.0405
  479MOL0     C64537   2.967   8.638   1.291  0.4919  0.0422  0.5681
  479MOL0     O64538   3.087   8.704   1.322 -0.2691  0.3538  0.1218
  479MOL0     C64539   3.200   8.696   1.239 -0.2160 -0.3368 -0.7736
  479MOL0     C64540   3.310   8.764   1.321  0.0723  0.2394  0.5515
  479MOL0     C64541   3.450   8.713   1.274  0.5884 -0.3475  0.1253
  479MOL0     C64542   3.550   8.820   1.320  0.3745 -0.1154 -0.2907
  479MOL0     C64543   3.688   8.791   1.266  0.0372 -0.1010  0.3180
  479MOL0     C64544   3.757   8.664   1.321  0.0861 -0.2117  0.2975
  479MOL0     C64545   3.903   8.656   1.268 -0.4538 -0.4927 -0.2700
  479MOL0     C64546   3.987   8.566   1.359 -0.6609  0.9096 -0.5521
  479MOL0     N64547   4.122   8.542   1.306 -0.5988 -0.5962  0.2675
  479MOL0     C64548   4.179   8.414   1.305 -0.0309  0.4932 -0.1170
  479MOL0     C64549   4.297   8.442   1.243 -0.4713  0.0436  0.2471
  479MOL0     C64550   4.404   8.334   1.209 -0.3152  0.1578  0.2921
  479MOL0     C64551   4.490   8.277   1.328 -0.0111 -1.1832 -0.1249
  479MOL0     C64552   4.576   8.379   1.403  0.3510  0.4650 -0.1107
  479MOL0     C64553   4.698   8.424   1.330 -0.0482  0.0083 -0.3287
  479MOL0     O64554   4.777   8.491   1.420 -0.4348  0.1063  0.1935
  479MOL0     C64555   4.912   8.465   1.423 -0.9443  0.0937  0.2035
  479MOL0     C64556   4.990   8.442   1.308  0.6033  0.4295 -0.6319
  479MOL0     C64557   5.127   8.450   1.307 -0.5008 -0.2963  0.3717
  479MOL0     C64558   5.199   8.466   1.431 -0.0522 -0.7985  0.2332
  479MOL0     C64559   5.345   8.458   1.429 -0.2252 -0.2959  1.0047
  479MOL0     O64560   5.418   8.499   1.543  0.4398  0.3918  1.0253
  479MOL0     C64561   5.550   8.494   1.539  0.0306 -0.1931 -0.5265
  479MOL0     C64562   5.607   8.403   1.622 -0.5332  0.9188 -0.4805
  479MOL0     C64563   5.744   8.397   1.630 -0.0442  0.6383  0.8402
  479MOL0     C64564   5.826   8.459   1.524 -0.5343 -0.0142 -1.0228
  479MOL0     O64565   5.960   8.456   1.523 -0.6058 -0.6218  0.1293
  479MOL0     C64566   6.028   8.374   1.609 -0.0067  0.1615 -0.0065
  479MOL0     C64567   6.183   8.376   1.578 -0.5194 -0.6129  0.4459
  479MOL0     C64568   6.261   8.276   1.668  0.3453  0.3380  0.1960
  479MOL0     C64569   6.406   8.276   1.632  0.3984  0.7208 -0.8766
  479MOL0     C64570   6.491   8.173   1.718  0.6442 -0.5850 -0.5637
  479MOL0     C64571   6.639   8.196   1.685  0.4785  0.1966  0.6004
  479MOL0     C64572   6.740   8.101   1.747 -0.1072  0.0337  0.0652
  479MOL0     C64573   6.885   8.121   1.715 -0.6070  0.7681 -0.5488
  479MOL0    Cl64574   6.930   8.079   1.544  0.4670 -0.2899  0.2561
  479MOL0     C64575   5.762   8.551   1.436  0.4451  0.0507 -0.4940
  479MOL0     C64576   5.628   8.564   1.445  0.3655 -0.1620 -0.3083
  479MOL0     O64577   5.404   8.410   1.331  0.6123  0.2777 -0.0483
  479MOL0     C64578   5.124   8.484   1.545  0.1813 -0.1597  0.3929
  479MOL0     C64579   4.983   8.480   1.547 -0.1126  0.3252  0.4528
  479MOL0     N64580   4.320   8.575   1.212 -0.6288  0.0968 -0.0004
  479MOL0     N64581   4.215   8.640   1.250  0.1228 -0.3399 -0.5479
  479MOL0     C64582   2.859   8.689   1.366 -0.1882  0.3918 -0.0572
  479MOL0     C64583   2.729   8.648   1.337  0.5565  0.2948  0.2385
  479MOL0     C64584   2.381   8.494   1.052  0.1169 -0.2800 -0.9855
  479MOL0     C64585   2.322   8.411   1.147 -0.3631  0.8204 -0.1887
  479MOL0     C64586   2.185   8.368   1.122 -0.3479  0.3340  0.2635
  479MOL0     C64587   2.104   8.403   1.019 -0.1191 -0.8759  0.1171
  479MOL0     O64588   1.983   8.359   0.977 -0.4400  0.0474 -0.7657
  479MOL0     C64589   1.930   8.245   1.045  0.3076  0.5595  0.7184
  479MOL0     C64590   1.997   8.110   1.002 -0.4639  0.1194  0.4987
  479MOL0     C64591   1.910   7.990   1.014  0.8144  0.1854 -0.4687
  479MOL0     C64592   1.823   7.974   0.892 -0.5257  0.8499  0.0350
  479MOL0     C64593   1.690   7.929   0.923 -0.1239  0.3228  0.8463
  479MOL0     C64594   1.571   7.911   0.934  0.6794  0.5533  0.2218
  479MOL0     C64595   2.162   8.502   0.929  0.7472  0.3710  0.3134
  479MOL0     C64596   2.295   8.546   0.946 -0.4306 -0.4285 -0.3705
  479MOL0     C64597   2.344   8.663   0.859  1.2389 -0.1708  0.0794
  479MOL0     H64598   2.795   8.468   1.062  1.2804  1.6327  0.5407
  479MOL0     H64599   3.021   8.523   1.126 -0.0083  1.9502 -0.2870
  479MOL0     H64600   3.231   8.596   1.207  0.3711  0.5977 -3.3397
  479MOL0     H64601   3.173   8.754   1.151  4.3774 -0.2776 -2.4301
  479MOL0     H64602   3.298   8.730   1.424  0.4976 -4.3694 -0.6675
  479MOL0     H64603   3.295   8.871   1.307  0.9484  0.1222 -1.6673
  479MOL0     H64604   3.449   8.690   1.167 -0.9131 -0.9447  0.2455
  479MOL0     H64605   3.475   8.619   1.324 -0.1506 -1.4794 -1.5347
  479MOL0     H64606   3.515   8.920   1.293 -0.0258  1.8208  5.8675
  479MOL0     H64607   3.562   8.824   1.429  1.9985  0.3603 -0.4567
  479MOL0     H64608   3.674   8.788   1.157 -1.3241 -3.0236  0.4567
  479MOL0     H64609   3.747   8.877   1.299  0.7789 -0.8433  0.9825
  479MOL0     H64610   3.765   8.659   1.430  3.0614  1.0693  0.2260
  479MOL0     H64611   3.708   8.570   1.292  0.3555  0.5330 -2.9211
  479MOL0     H64612   3.945   8.758   1.266  1.1243 -0.9690  2.6182
  479MOL0     H64613   3.897   8.617   1.166  1.1696 -0.1020 -0.5558
  479MOL0     H64614   3.988   8.598   1.464 -2.0281 -0.1357 -0.1902
  479MOL0     H64615   3.944   8.466   1.372  2.3155 -0.1557  2.5615
  479MOL0     H64616   4.139   8.316   1.327  0.7258  0.0994 -0.4627
  479MOL0     H64617   4.359   8.251   1.154  1.4799  0.3850 -1.6498
  479MOL0     H64618   4.474   8.381   1.139 -0.3152 -1.1342 -0.6009
  479MOL0     H64619   4.424   8.234   1.405 -0.6204  0.2955  0.2242
  479MOL0     H64620   4.543   8.190   1.289  0.5870 -1.1906  0.6819
  479MOL0     H64621   4.616   8.325   1.489 -1.5282 -1.8278 -0.5699
  479MOL0     H64622   4.523   8.469   1.436  3.3105  2.3617 -0.1385
  479MOL0     H64623   4.671   8.484   1.242  1.5269  0.0318 -0.8319
  479MOL0     H64624   4.738   8.332   1.287 -3.3021 -0.8267 -1.8959
  479MOL0     H64625   4.945   8.416   1.213  0.6686 -0.4131 -0.4395
  479MOL0     H64626   5.174   8.423   1.213  0.3282 -1.4025  1.0811
  479MOL0     H64627   5.545   8.359   1.700  2.3367  1.1717  2.1155
  479MOL0     H64628   5.796   8.344   1.710 -0.9290 -2.2236 -0.3342
  479MOL0     H64629   6.022   8.406   1.714  0.1456 -0.8345  0.3133
  479MOL0     H64630   6.001   8.269   1.597 -2.3110  0.8665 -1.5118
  479MOL0     H64631   6.186   8.340   1.474 -0.4186 -2.9940  1.2067
  479MOL0     H64632   6.227   8.475   1.592 -1.4748 -0.2187  0.7522
  479MOL0     H64633   6.248   8.294   1.775  1.1832 -1.9127  0.7354
  479MOL0     H64634   6.213   8.183   1.636  1.2320  0.1333 -0.5871
  479MOL0     H64635   6.444   8.376   1.654  2.5853 -0.8029  3.4539
  479MOL0     H64636   6.428   8.254   1.527  3.0998 -1.2215 -0.0096
  479MOL0     H64637   6.457   8.071   1.699  0.4779 -0.5082 -0.6772
  479MOL0     H64638   6.468   8.209   1.819  0.6739  0.5394 -0.9348
  479MOL0     H64639   6.647   8.168   1.580  3.7646  0.0048  0.7885
  479MOL0     H64640   6.669   8.301   1.698  0.7986  0.3795 -1.3015
  479MOL0     H64641   6.719   7.995   1.729  1.5709  0.1501 -3.6284
  479MOL0     H64642   6.733   8.127   1.853  1.7496 -2.3583  0.8600
  479MOL0     H64643   6.915   8.223   1.741  2.1332 -0.0964  0.0029
  479MOL0     H64644   6.947   8.054   1.776  0.2313  0.4733 -1.6833
  479MOL0     H64645   5.825   8.612   1.372  1.7281 -0.3014  0.3871
  479MOL0     H64646   5.568   8.624   1.377 -1.1467  0.8174  1.7616
  479MOL0     H64647   5.167   8.498   1.644  2.8405  0.8098 -0.8112
  479MOL0     H64648   4.941   8.512   1.642 -0.3667 -0.6177  0.6665
  479MOL0     H64649   2.893   8.752   1.448  4.0926 -3.6417  1.6883
  479MOL0     H64650   2.648   8.694   1.395 -0.6070 -1.6173  0.2218
  479MOL0     H64651   2.373   8.366   1.231  0.3858  1.7363 -0.1406
  479MOL0     H64652   2.137   8.302   1.195 -0.0417 -0.8373 -0.5594
  479MOL0     H64653   1.823   8.239   1.023 -0.0035 -3.1399  2.5536
  479MOL0     H64654   1.924   8.260   1.153 -0.3355  3.5726  0.3606
  479MOL0     H64655   2.086   8.093   1.062 -1.3087 -0.0944  1.7267
  479MOL0     H64656   2.026   8.109   0.896 -0.5850  0.1936  0.4648
  479MOL0     H64657   1.849   8.000   1.105 -1.8608 -0.1678 -2.1025
  479MOL0     H64658   1.976   7.904   1.030 -1.0836 -1.1224  0.7613
  479MOL0     H64659   1.812   8.072   0.845 -1.7357 -0.6655 -3.0937
  479MOL0     H64660   1.879   7.908   0.825 -0.2857  0.5227  0.5414
  479MOL0     H64661   1.466   7.893   0.950  1.0848 -2.0965  0.3462
  479MOL0     H64662   2.108   8.544   0.845 -1.1373 -1.5546  0.4732
  479MOL0     H64663   2.447   8.694   0.882  1.6549 -1.4989  0.0611
  479MOL0     H64664   2.331   8.635   0.754  0.0671  1.8985 -0.3952
  479MOL0     H64665   2.286   8.755   0.872 -0.8334 -0.9348 -2.8787
  480MOL0     O64666   3.905   4.722   0.978 -0.2323  0.2804  0.1770
  480MOL0     C64667   3.901   4.605   0.947  0.2989 -0.5292 -0.1385
  480MOL0     O64668   4.001   4.519   0.965  0.3926  0.6602  0.2688
  480MOL0     C64669   4.109   4.528   1.051 -0.8463 -0.4646  0.4972
  480MOL0     C64670   4.122   4.601   1.164 -0.0745  0.7245 -0.3403
  480MOL0     C64671   4.250   4.600   1.239  0.2325 -0.8152  0.0519
  480MOL0     C64672   4.357   4.522   1.202  0.2144  0.3043 -0.1857
  480MOL0     O64673   4.478   4.519   1.266 -0.2722  0.2539 -0.1575
  480MOL0     C64674   4.501   4.616   1.368  0.4432  0.0395  0.4441
  480MOL0     C64675   4.644   4.627   1.404 -0.2015  0.7506  0.3696
  480MOL0     C64676   4.693   4.751   1.475  0.1984  0.2471 -0.4366
  480MOL0     C64677   4.839   4.768   1.445  0.5214 -0.0743 -0.3440
  480MOL0     C64678   4.889   4.891   1.521  0.8317 -0.7550 -0.3363
  480MOL0     C64679   5.035   4.894   1.516 -0.9644 -0.4206 -0.0941
  480MOL0     C64680   5.089   5.008   1.607 -0.0312 -0.9179  0.7131
  480MOL0     C64681   5.115   4.974   1.753  0.4707 -0.4109  0.3550
  480MOL0     N64682   5.002   4.982   1.855 -0.7581 -0.4347 -0.3907
  480MOL0     C64683   4.911   5.082   1.864 -0.2237 -0.2636 -0.3376
  480MOL0     C64684   4.836   5.061   1.973 -1.4325  0.8241  0.9997
  480MOL0     C64685   4.739   5.153   2.032  0.2034  0.0975  0.2766
  480MOL0     C64686   4.604   5.087   2.035 -0.5120  0.0543 -0.7891
  480MOL0     C64687   4.500   5.167   2.114 -0.7054  0.0670  0.8333
  480MOL0     C64688   4.360   5.116   2.086  0.0750  0.7853 -0.1068
  480MOL0     O64689   4.351   4.977   2.113  0.3361  0.1852 -0.0486
  480MOL0     C64690   4.220   4.929   2.098 -0.4681 -0.2153 -0.8087
  480MOL0     C64691   4.118   4.993   2.035  0.4937  0.7473  0.5926
  480MOL0     C64692   3.985   4.933   2.018  0.5520 -0.3596  0.5134
  480MOL0     C64693   3.959   4.804   2.071 -0.8083 -0.2200  0.0796
  480MOL0     C64694   3.833   4.729   2.045  0.1041  0.3443  0.0603
  480MOL0     O64695   3.749   4.774   1.950  0.1009 -0.1647 -0.0014
  480MOL0     C64696   3.623   4.711   1.947  0.0338  0.4254  0.2991
  480MOL0     C64697   3.612   4.590   1.877  0.1745  0.8907 -0.0969
  480MOL0     C64698   3.481   4.526   1.868 -0.1709 -0.7124  0.0009
  480MOL0     C64699   3.364   4.598   1.919 -0.0922 -0.5798  0.2699
  480MOL0     O64700   3.231   4.555   1.920 -0.4647  0.4425 -0.4114
  480MOL0     C64701   3.217   4.412   1.915  0.1245  0.1561 -0.6225
  480MOL0     C64702   3.068   4.389   1.906 -0.9554  0.1791  0.5906
  480MOL0     C64703   3.026   4.259   1.977  0.4174  0.3142 -0.4899
  480MOL0     C64704   2.866   4.233   1.975  0.8720  0.1298  0.4063
  480MOL0     C64705   2.833   4.087   2.013  0.1902 -0.7142 -0.1206
  480MOL0     C64706   2.817   4.077   2.167 -0.0984  0.9229  0.5680
  480MOL0     C64707   2.830   3.932   2.212 -0.0300  0.1434  0.4482
  480MOL0     C64708   2.823   3.913   2.369  0.9971  0.3891  0.4650
  480MOL0    Cl64709   2.973   3.977   2.435  0.5267 -0.4240  0.0411
  480MOL0     C64710   3.381   4.717   1.986 -0.8759 -0.7539 -0.7474
  480MOL0     C64711   3.511   4.769   2.000  0.1034 -0.4884  0.2288
  480MOL0     O64712   3.820   4.620   2.110 -0.4770 -0.1026  0.3645
  480MOL0     C64713   4.068   4.738   2.138 -0.0504 -0.4534  0.6281
  480MOL0     C64714   4.196   4.797   2.144 -0.5701 -0.9269  0.1236
  480MOL0     N64715   4.889   4.947   2.043  0.2015 -0.1232  0.6353
  480MOL0     N64716   4.991   4.908   1.970 -1.0520  0.8308  0.4400
  480MOL0     C64717   4.340   4.447   1.093 -0.3530 -0.1786 -0.0331
  480MOL0     C64718   4.217   4.442   1.022 -0.6044  0.3551 -0.0191
  480MOL0     C64719   3.782   4.562   0.870 -0.5573 -0.3969  0.7360
  480MOL0     C64720   3.812   4.469   0.770 -0.1548  1.1533  0.7399
  480MOL0     C64721   3.702   4.426   0.689  0.9802 -0.2018  0.1396
  480MOL0     C64722   3.578   4.483   0.704  0.0934  0.3266  0.7266
  480MOL0     O64723   3.478   4.450   0.620  0.8055  0.3837 -0.7633
  480MOL0     C64724   3.347   4.401   0.665 -0.3525 -0.2591 -0.5983
  480MOL0     C64725   3.370   4.260   0.732 -0.3253 -0.2728  0.8670
  480MOL0     C64726   3.395   4.146   0.622  0.0932 -0.0428 -0.4672
  480MOL0     C64727   3.428   4.010   0.686 -0.0376  0.7017  0.4457
  480MOL0     C64728   3.320   3.967   0.771  0.8390 -0.4227  0.0378
  480MOL0     C64729   3.232   3.942   0.850 -0.3393  0.9888 -1.0546
  480MOL0     C64730   3.555   4.580   0.801  0.3778 -0.0374 -0.9013
  480MOL0     C64731   3.652   4.617   0.886 -0.5370 -0.6573 -0.4224
  480MOL0     C64732   3.626   4.731   0.981  0.1955  0.1337  0.1066
  480MOL0     H64733   4.047   4.675   1.189 -2.5430 -0.9802 -2.2495
  480MOL0     H64734   4.258   4.652   1.334 -0.7768 -3.6334  1.7963
  480MOL0     H64735   4.471   4.716   1.337 -2.3991 -0.1805  2.0721
  480MOL0     H64736   4.436   4.599   1.455 -1.4348  0.1072 -0.8832
  480MOL0     H64737   4.702   4.629   1.311  2.5224 -1.4636  1.8599
  480MOL0     H64738   4.676   4.536   1.455  0.3006 -1.0170 -2.8474
  480MOL0     H64739   4.682   4.751   1.584 -1.3948  1.2440 -0.5608
  480MOL0     H64740   4.633   4.838   1.444 -0.7193 -0.6340 -1.2241
  480MOL0     H64741   4.886   4.674   1.477 -2.0656 -0.4911  2.7788
  480MOL0     H64742   4.864   4.774   1.339  0.2591  0.6519 -0.3709
  480MOL0     H64743   4.843   4.977   1.472  1.3693  1.2163  2.3670
  480MOL0     H64744   4.849   4.898   1.622 -1.2883  1.8383 -1.2352
  480MOL0     H64745   5.081   4.802   1.555 -0.8916  0.1477  1.2140
  480MOL0     H64746   5.077   4.904   1.416  2.4410 -0.5256  1.1597
  480MOL0     H64747   5.032   5.099   1.588  0.7886 -0.1972  1.6224
  480MOL0     H64748   5.186   5.029   1.561 -0.9902  0.2333 -0.8829
  480MOL0     H64749   5.186   4.892   1.765 -0.0235 -0.8974  0.0049
  480MOL0     H64750   5.172   5.055   1.800 -2.0756  2.6228 -1.4258
  480MOL0     H64751   4.916   5.178   1.813 -0.2505  1.3309  2.4377
  480MOL0     H64752   4.780   5.173   2.131 -0.6147 -2.3462  1.1980
  480MOL0     H64753   4.728   5.248   1.979  1.3662  0.7788  1.2263
  480MOL0     H64754   4.566   5.081   1.933  1.3761  0.3364 -1.5611
  480MOL0     H64755   4.614   4.985   2.073 -1.5021 -0.5059 -1.9782
  480MOL0     H64756   4.493   5.269   2.075 -0.1605 -0.6235 -1.1798
  480MOL0     H64757   4.507   5.152   2.222  0.2911 -2.2082  0.5001
  480MOL0     H64758   4.343   5.128   1.979 -2.1439  0.2177  0.1330
  480MOL0     H64759   4.283   5.161   2.148 -1.3643 -2.3883  0.6493
  480MOL0     H64760   4.132   5.093   1.995  0.5405  1.6153  2.6463
  480MOL0     H64761   3.909   5.000   1.981 -0.9492 -2.0458  0.3975
  480MOL0     H64762   3.698   4.549   1.825 -1.3902 -3.4056  0.2889
  480MOL0     H64763   3.476   4.422   1.838  2.3932 -2.0006  3.3946
  480MOL0     H64764   3.273   4.359   1.838 -1.0659 -2.0944 -0.0159
  480MOL0     H64765   3.247   4.368   2.010 -2.0416  0.6916  0.3837
  480MOL0     H64766   3.027   4.472   1.964  2.0118  2.0869  0.1577
  480MOL0     H64767   3.022   4.395   1.807 -1.1549 -1.9483  0.5100
  480MOL0     H64768   3.076   4.178   1.923  1.4464 -0.7410  1.8939
  480MOL0     H64769   3.062   4.252   2.081 -1.8016  1.1491  0.3965
  480MOL0     H64770   2.831   4.253   1.873  0.6800  1.4133  0.7012
  480MOL0     H64771   2.818   4.295   2.052 -1.9508  0.7336 -1.6616
  480MOL0     H64772   2.913   4.019   1.984  1.2742  1.4257 -2.4503
  480MOL0     H64773   2.740   4.063   1.962 -0.9856  0.4486  1.3761
  480MOL0     H64774   2.886   4.141   2.223 -0.4433  0.3766  1.6431
  480MOL0     H64775   2.718   4.103   2.204 -1.2879 -1.7206 -0.5714
  480MOL0     H64776   2.927   3.889   2.185 -1.5046 -2.5906 -0.8597
  480MOL0     H64777   2.755   3.875   2.156  0.1454 -1.3564  1.6768
  480MOL0     H64778   2.736   3.958   2.418  1.5507  1.3468  0.5842
  480MOL0     H64779   2.819   3.808   2.400  0.3144  1.0111  2.6400
  480MOL0     H64780   3.290   4.751   2.034 -1.0888  0.2969 -1.8535
  480MOL0     H64781   3.532   4.862   2.052  0.1298 -0.7268  0.6537
  480MOL0     H64782   4.070   4.632   2.165 -0.6788 -0.6725 -0.1536
  480MOL0     H64783   4.278   4.741   2.188  1.5021  1.8574  0.0802
  480MOL0     H64784   4.417   4.376   1.065 -1.0139 -0.2953 -1.6533
  480MOL0     H64785   4.212   4.381   0.932  2.6612 -0.4485  0.2252
  480MOL0     H64786   3.908   4.427   0.744 -0.8411 -1.3750  1.9782
  480MOL0     H64787   3.735   4.347   0.622 -1.4167 -1.5475  0.3953
  480MOL0     H64788   3.275   4.392   0.584 -2.3106 -2.9207  1.2451
  480MOL0     H64789   3.306   4.470   0.739 -1.7896 -0.7651 -0.9065
  480MOL0     H64790   3.275   4.230   0.775 -0.0098 -2.2593  0.2921
  480MOL0     H64791   3.447   4.270   0.809  1.9061  1.9173 -1.4287
  480MOL0     H64792   3.482   4.169   0.560  0.4521 -0.0263  0.0342
  480MOL0     H64793   3.308   4.125   0.558  1.6742 -2.0164 -2.1216
  480MOL0     H64794   3.445   3.937   0.606  0.3159 -0.2778  1.3960
  480MOL0     H64795   3.520   4.021   0.745 -0.3569  1.1158  0.8670
  480MOL0     H64796   3.136   3.916   0.891  0.0534 -0.2226 -0.8568
  480MOL0     H64797   3.459   4.627   0.813  0.4219 -0.1149 -0.1979
  480MOL0     H64798   3.645   4.830   0.937 -1.3808  1.0824  1.4331
  480MOL0     H64799   3.523   4.724   1.017  0.1494 -5.2010 -0.3706
  480MOL0     H64800   3.683   4.724   1.074 -0.3884  0.1904  0.4743
  481MOL0     O64801   6.156   5.957   9.893  0.1054 -0.1545  0.6296
  481MOL0     C64802   6.164   6.043   9.809  0.3770 -0.2488  0.4263
  481MOL0     O64803   6.236   6.163   9.819 -0.5181  0.1642  0.6346
  481MOL0     C64804   6.349   6.166   9.905  0.9703  0.0860  0.1305
  481MOL0     C64805   6.360   6.129  10.035 -0.0599  0.1989  0.4541
  481MOL0     C64806   6.474   6.129  10.109  0.8019 -0.5176 -0.8453
  481MOL0     C64807   6.596   6.152  10.052  0.2333  0.6442  0.2207
  481MOL0     O64808   6.718   6.131  10.115 -0.3427 -0.4939 -0.2680
  481MOL0     C64809   6.787   6.247  10.138  0.1944  0.4459  0.3657
  481MOL0     C64810   6.927   6.224  10.196  0.2620  0.6804 -0.7344
  481MOL0     C64811   7.014   6.347  10.177 -0.9306 -0.2703 -0.2331
  481MOL0     C64812   7.157   6.335  10.239  0.7947 -0.5595 -0.0884
  481MOL0     C64813   7.234   6.475  10.235 -0.4181 -0.4144 -0.0203
  481MOL0     C64814   7.379   6.466  10.261  0.3293 -0.3309  0.0571
  481MOL0     C64815   7.454   6.593  10.214  0.9385  0.0822 -0.1808
  481MOL0     C64816   7.604   6.600  10.265 -0.9275  0.8784  0.3480
  481MOL0     N64817   7.674   6.707  10.191 -0.4207  0.0381  0.6173
  481MOL0     C64818   7.758   6.686  10.087  0.7593 -0.3828  1.0646
  481MOL0     C64819   7.816   6.806  10.070  0.0025  0.2900 -0.4425
  481MOL0     C64820   7.912   6.859   9.976 -0.1433  0.2814 -0.2213
  481MOL0     C64821   8.063   6.870  10.028 -1.1719 -0.5957 -0.1895
  481MOL0     C64822   8.114   7.019  10.033 -0.5217 -0.3847 -0.4744
  481MOL0     C64823   8.236   7.054  10.121 -0.6439 -0.1506  0.1592
  481MOL0     O64824   8.208   7.022  10.258  0.6384 -0.4075 -0.1640
  481MOL0     C64825   8.316   7.024  10.349  0.0207 -0.0589  0.2422
  481MOL0     C64826   8.417   7.125  10.346 -1.0199 -0.1972  0.5612
  481MOL0     C64827   8.520   7.130  10.420 -0.2623 -0.1912 -0.3265
  481MOL0     C64828   8.554   7.017  10.502  0.0743 -0.4052 -0.7002
  481MOL0     C64829   8.683   7.010  10.579  0.1802 -0.6092 -0.2404
  481MOL0     O64830   8.696   6.903  10.659 -0.1963  0.1056 -0.4333
  481MOL0     C64831   8.804   6.897  10.747  0.4348 -0.0777  0.1333
  481MOL0     C64832   8.782   6.828  10.874  0.0590  0.4351  0.0283
  481MOL0     C64833   8.894   6.810  10.961  0.2597  0.3173  0.1546
  481MOL0     C64834   9.022   6.857  10.924 -0.9134 -0.0458  0.2186
  481MOL0     O64835   9.139   6.855  11.001  0.4761  0.1949 -0.7840
  481MOL0     C64836   9.150   6.765  11.116  0.0850  0.0163 -0.2810
  481MOL0     C64837   9.276   6.682  11.091  0.2250 -0.9014  0.0595
  481MOL0     C64838   9.405   6.756  11.152 -0.0279  0.4625  0.1337
  481MOL0     C64839   9.531   6.682  11.122 -0.2743  0.5776  0.0701
  481MOL0     C64840   9.654   6.729  11.194 -0.6817 -0.1934  0.3680
  481MOL0     C64841   9.662   6.675  11.335 -0.5387 -0.2615 -0.6253
  481MOL0     C64842   9.799   6.701  11.401  0.3879 -1.4121  0.7898
  481MOL0     C64843   9.788   6.690  11.553  0.1509 -0.1423 -0.2782
  481MOL0    Cl64844   9.933   6.683  11.655 -0.0889  0.1258  0.2588
  481MOL0     C64845   9.039   6.919  10.798  0.8494 -0.3235 -0.0137
  481MOL0     C64846   8.935   6.937  10.710  0.3653 -0.9030 -0.2612
  481MOL0     O64847   8.752   7.108  10.576 -0.0512  0.5258 -0.3619
  481MOL0     C64848   8.454   6.914  10.508 -0.0202 -0.7600  0.2993
  481MOL0     C64849   8.334   6.920  10.431 -0.0798 -0.7077 -0.1464
  481MOL0     N64850   7.772   6.894  10.163  0.4146 -0.0426  0.7280
  481MOL0     N64851   7.690   6.836  10.235  0.0299 -0.4388 -1.5715
  481MOL0     C64852   6.595   6.198   9.913 -0.0388  0.0829 -0.7981
  481MOL0     C64853   6.474   6.207   9.845 -0.7696 -0.2284 -0.5719
  481MOL0     C64854   6.067   6.012   9.699  0.1435  0.0553  0.0391
  481MOL0     C64855   5.991   5.886   9.698  0.1889 -0.7691  0.1856
  481MOL0     C64856   5.902   5.874   9.591  0.3119  0.3374  0.4106
  481MOL0     C64857   5.872   5.977   9.502 -0.2485 -1.1202  0.0991
  481MOL0     O64858   5.783   5.944   9.408  0.0586  0.3424  0.4755
  481MOL0     C64859   5.752   6.014   9.287  0.2484  0.8521  1.0079
  481MOL0     C64860   5.652   6.129   9.312 -0.1667  1.4897  0.4509
  481MOL0     C64861   5.527   6.071   9.377 -0.7127 -0.9352 -0.3650
  481MOL0     C64862   5.435   6.185   9.401  0.2754 -0.0777 -0.2075
  481MOL0     C64863   5.300   6.133   9.412  0.2511 -0.2668  0.9780
  481MOL0     C64864   5.190   6.085   9.410 -0.3357  0.0569  1.1735
  481MOL0     C64865   5.947   6.099   9.504  0.4542  0.7791 -0.0160
  481MOL0     C64866   6.039   6.117   9.612 -0.4354  0.8595  1.2290
  481MOL0     C64867   6.111   6.258   9.601 -0.6385 -0.1005 -0.2763
  481MOL0     H64868   6.274   6.106  10.097 -0.9726  0.0792 -0.8182
  481MOL0     H64869   6.479   6.101  10.214 -1.7073 -0.0285 -0.5273
  481MOL0     H64870   6.786   6.312  10.049  0.3845  0.6508  0.5108
  481MOL0     H64871   6.733   6.311  10.209  1.5066 -0.2179  2.0054
  481MOL0     H64872   6.972   6.143  10.139  0.5091  1.2081 -1.3090
  481MOL0     H64873   6.917   6.200  10.302 -0.8335  0.4977 -0.8675
  481MOL0     H64874   6.966   6.425  10.237 -0.5309 -3.5863  5.1451
  481MOL0     H64875   7.019   6.376  10.072  0.5393 -0.9662 -0.3877
  481MOL0     H64876   7.144   6.297  10.341 -2.6893 -0.3347 -0.3144
  481MOL0     H64877   7.208   6.262  10.175 -1.8331 -1.2851 -1.4912
  481MOL0     H64878   7.223   6.528  10.140  0.2511  2.6757  1.5104
  481MOL0     H64879   7.190   6.543  10.308 -0.5441  1.0376 -1.4003
  481MOL0     H64880   7.403   6.435  10.363 -0.8493 -3.8734 -0.5861
  481MOL0     H64881   7.422   6.380  10.209 -0.8126 -0.2881 -0.9981
  481MOL0     H64882   7.411   6.690  10.240 -0.0271 -0.0055 -1.3847
  481MOL0     H64883   7.462   6.591  10.105  2.1567  4.1206 -0.3309
  481MOL0     H64884   7.607   6.620  10.372 -0.2832 -1.4674  0.8362
  481MOL0     H64885   7.654   6.503  10.254 -0.0116  1.5184 -1.4482
  481MOL0     H64886   7.773   6.594  10.030  0.5088 -0.1337  0.5911
  481MOL0     H64887   7.914   6.788   9.892  1.4844  0.8529 -0.7153
  481MOL0     H64888   7.886   6.959   9.940 -0.4439 -0.2613 -1.5753
  481MOL0     H64889   8.056   6.834  10.131 -2.7416 -0.9148 -0.3780
  481MOL0     H64890   8.122   6.801   9.966 -2.0752 -1.1390 -0.4733
  481MOL0     H64891   8.028   7.080  10.062  1.3879  2.3100 -0.1091
  481MOL0     H64892   8.130   7.050   9.929 -0.5265  0.3073 -0.2751
  481MOL0     H64893   8.260   7.160  10.129 -0.1000 -0.4185  5.1401
  481MOL0     H64894   8.326   6.998  10.092 -0.9132 -0.3023 -0.4011
  481MOL0     H64895   8.398   7.194  10.265 -3.7931 -1.3956  0.0537
  481MOL0     H64896   8.582   7.217  10.401 -2.9523  1.1501 -4.0593
  481MOL0     H64897   8.682   6.800  10.907  0.2497 -0.3271 -0.0157
  481MOL0     H64898   8.887   6.770  11.061  0.7708  1.1352  0.5334
  481MOL0     H64899   9.150   6.823  11.209  1.0191  0.2591 -0.4194
  481MOL0     H64900   9.064   6.699  11.103  0.8754 -1.1770  0.3881
  481MOL0     H64901   9.246   6.584  11.128 -5.9118 -0.1712 -1.7887
  481MOL0     H64902   9.298   6.664  10.985  3.3623 -3.9460  1.0617
  481MOL0     H64903   9.413   6.857  11.110 -0.9191  1.3529  1.9732
  481MOL0     H64904   9.396   6.771  11.260 -2.4846 -0.7635  0.1833
  481MOL0     H64905   9.557   6.686  11.015  1.7985 -2.2581  0.3442
  481MOL0     H64906   9.513   6.577  11.144  0.2681  0.9940  2.9517
  481MOL0     H64907   9.665   6.837  11.210  1.8150 -0.3616  0.1548
  481MOL0     H64908   9.739   6.698  11.132 -1.9920  0.8193 -2.0539
  481MOL0     H64909   9.590   6.727  11.399  0.7083 -0.2517  0.8236
  481MOL0     H64910   9.640   6.568  11.347 -1.6405  0.0277  0.0855
  481MOL0     H64911   9.844   6.796  11.371 -1.8764  0.8049  3.8117
  481MOL0     H64912   9.861   6.621  11.361  0.6300 -1.6305  1.5744
  481MOL0     H64913   9.728   6.773  11.590 -1.1180 -1.1075 -0.1105
  481MOL0     H64914   9.727   6.602  11.575  0.0722  0.4347  2.0699
  481MOL0     H64915   9.137   6.951  10.763  1.8582 -2.4085  0.7305
  481MOL0     H64916   8.961   6.987  10.617 -2.0453 -0.8943 -0.9984
  481MOL0     H64917   8.469   6.825  10.567 -0.5577 -1.0819 -0.0336
  481MOL0     H64918   8.262   6.839  10.431 -1.4601  0.4776 -0.8492
  481MOL0     H64919   6.687   6.225   9.862  0.1417  1.4712  0.2191
  481MOL0     H64920   6.482   6.249   9.745 -2.3069 -0.1526 -0.6869
  481MOL0     H64921   6.006   5.799   9.760  1.9628 -2.0720 -1.9162
  481MOL0     H64922   5.861   5.774   9.580 -2.9843  1.5888 -0.1041
  481MOL0     H64923   5.720   5.938   9.215  1.6099  1.1455  0.0491
  481MOL0     H64924   5.848   6.054   9.252  0.0884  2.3289  2.1491
  481MOL0     H64925   5.616   6.165   9.215  0.5710  1.5853  0.1977
  481MOL0     H64926   5.700   6.213   9.363  3.1208  0.2652 -0.3653
  481MOL0     H64927   5.542   6.010   9.466 -0.9869  0.1898  0.4628
  481MOL0     H64928   5.480   6.001   9.307 -1.6988  1.4780 -2.2732
  481MOL0     H64929   5.448   6.230   9.500 -2.1645  0.4472 -0.0602
  481MOL0     H64930   5.435   6.269   9.332 -2.9743  1.0733  1.0123
  481MOL0     H64931   5.101   6.025   9.415  0.7133 -2.2524 -3.1991
  481MOL0     H64932   5.920   6.182   9.440  2.0090  1.3028 -0.0153
  481MOL0     H64933   6.100   6.306   9.504  0.0672  0.2419 -0.1887
  481MOL0     H64934   6.071   6.322   9.680  3.7133 -1.9671  3.9986
  481MOL0     H64935   6.219   6.251   9.612 -0.2875  1.0138 -2.5739
  482MOL0     O64936   4.069   2.716  10.146  0.5207  0.8385  0.0119
  482MOL0     C64937   4.075   2.603  10.190  0.1446  0.2507  0.0480
  482MOL0     O64938   4.189   2.548  10.256  0.0541 -0.2886  0.8176
  482MOL0     C64939   4.306   2.606  10.238 -0.9335  0.7354 -0.0829
  482MOL0     C64940   4.355   2.707  10.322 -0.1652 -0.8275  0.4819
  482MOL0     C64941   4.472   2.769  10.299  0.2903  0.2558 -0.2540
  482MOL0     C64942   4.548   2.741  10.186 -0.6006 -0.1100 -0.5554
  482MOL0     O64943   4.669   2.797  10.159 -0.7336 -0.1815 -0.0881
  482MOL0     C64944   4.745   2.854  10.268 -0.6179 -0.7802 -0.7782
  482MOL0     C64945   4.872   2.889  10.202  0.2556 -0.4968  0.2719
  482MOL0     C64946   4.973   2.946  10.299  0.7419 -0.6371 -0.0387
  482MOL0     C64947   5.112   2.923  10.241  0.7795  0.3271 -0.6027
  482MOL0     C64948   5.228   3.008  10.307  0.3298 -0.5212 -0.4510
  482MOL0     C64949   5.365   2.982  10.239  0.3107 -0.1449 -0.1964
  482MOL0     C64950   5.474   3.050  10.316 -0.2490 -0.4451  0.1989
  482MOL0     C64951   5.608   3.024  10.246  0.4826 -0.8375  0.1590
  482MOL0     N64952   5.719   3.113  10.303  0.1225 -0.1892  0.7360
  482MOL0     C64953   5.774   3.222  10.236 -1.1043 -0.2184 -0.9331
  482MOL0     C64954   5.866   3.276  10.323  0.5726 -0.1007  0.1877
  482MOL0     C64955   5.941   3.399  10.296  0.5642 -0.0919 -0.0871
  482MOL0     C64956   6.086   3.374  10.237 -0.4325 -0.9141  0.0202
  482MOL0     C64957   6.185   3.342  10.351  0.3474 -0.7741 -0.0305
  482MOL0     C64958   6.322   3.311  10.294  0.6281 -0.1942 -0.0306
  482MOL0     O64959   6.382   3.429  10.224 -0.7189 -0.0209 -0.0775
  482MOL0     C64960   6.518   3.440  10.237  0.3181  0.5124  0.4140
  482MOL0     C64961   6.562   3.566  10.241 -0.0849 -0.9499 -0.0629
  482MOL0     C64962   6.700   3.595  10.275  1.0267  0.0421  0.8367
  482MOL0     C64963   6.789   3.491  10.290  0.7312 -0.9724  0.7516
  482MOL0     C64964   6.928   3.531  10.309  0.0625  0.0684  0.1014
  482MOL0     O64965   6.962   3.631  10.398  0.3395 -0.7217  0.4517
  482MOL0     C64966   7.092   3.667  10.421 -0.0902 -0.9406 -0.0405
  482MOL0     C64967   7.129   3.706  10.553  0.2413 -0.4098  0.1536
  482MOL0     C64968   7.255   3.753  10.591 -0.1731 -0.0956 -0.0645
  482MOL0     C64969   7.351   3.761  10.490 -0.0905 -0.5172 -0.1728
  482MOL0     O64970   7.471   3.811  10.529  0.0903  0.7614  0.8763
  482MOL0     C64971   7.553   3.867  10.424 -1.1534  0.3783  0.1866
  482MOL0     C64972   7.694   3.920  10.464 -0.6375 -0.9048 -0.5721
  482MOL0     C64973   7.788   3.805  10.514 -0.0064  0.3750  0.5485
  482MOL0     C64974   7.925   3.876  10.545  1.3009 -0.8558  0.7632
  482MOL0     C64975   8.041   3.779  10.577 -0.5297 -0.2102  0.4971
  482MOL0     C64976   8.156   3.862  10.617 -0.2314 -0.5905 -0.4809
  482MOL0     C64977   8.272   3.776  10.672  0.2948 -0.5554 -0.0426
  482MOL0     C64978   8.401   3.860  10.705  0.0577  0.6472 -0.2987
  482MOL0    Cl64979   8.385   3.911  10.889 -0.6054 -0.0032  0.2690
  482MOL0     C64980   7.321   3.720  10.355 -0.1744  0.0441 -0.1777
  482MOL0     C64981   7.193   3.671  10.324  0.4556  0.1757 -0.6373
  482MOL0     O64982   7.014   3.466  10.244  0.1455  0.0056 -0.6164
  482MOL0     C64983   6.744   3.364  10.268  0.0288  0.7925  0.3415
  482MOL0     C64984   6.612   3.336  10.244  1.3020 -1.1489  0.1540
  482MOL0     N64985   5.870   3.200  10.439 -0.1157  0.4700 -0.4472
  482MOL0     N64986   5.789   3.092  10.415 -0.4217 -0.9307  0.3781
  482MOL0     C64987   4.505   2.633  10.106 -0.0489  0.4332  0.3861
  482MOL0     C64988   4.381   2.568  10.126  0.0949 -1.0386  0.5373
  482MOL0     C64989   3.962   2.517  10.188  0.3278 -0.2257  0.1498
  482MOL0     C64990   3.985   2.378  10.205  0.4357 -1.1417  0.4403
  482MOL0     C64991   3.872   2.291  10.225  0.0940  0.2517  0.4016
  482MOL0     C64992   3.741   2.351  10.206 -0.3067  1.1408 -0.8511
  482MOL0     O64993   3.629   2.277  10.218  0.6417  0.1109 -0.4766
  482MOL0     C64994   3.639   2.136  10.242  0.6527  0.1958 -0.5580
  482MOL0     C64995   3.504   2.064  10.230 -0.2596  0.2926  1.1737
  482MOL0     C64996   3.400   2.112  10.322  0.0898  0.3507 -0.6472
  482MOL0     C64997   3.262   2.072  10.270 -0.6385 -0.2623  0.0847
  482MOL0     C64998   3.151   2.047  10.365  0.8822 -0.1310  0.5826
  482MOL0     C64999   3.051   2.028  10.434 -0.0682 -0.4606 -0.1683
  482MOL0     C65000   3.729   2.478  10.171  0.8725 -0.9460 -0.5645
  482MOL0     C65001   3.833   2.562  10.162  0.0664 -0.3727 -0.4463
  482MOL0     C65002   3.800   2.696  10.114 -0.3775 -0.4891 -0.2182
  482MOL0     H65003   4.309   2.744  10.413  1.1197  0.1804  0.7603
  482MOL0     H65004   4.515   2.837  10.371 -1.8389  1.0162  0.3626
  482MOL0     H65005   4.707   2.946  10.316 -0.1016 -0.5289 -0.8473
  482MOL0     H65006   4.765   2.775  10.341 -0.5325 -1.2668 -1.3259
  482MOL0     H65007   4.860   2.958  10.117  1.8591 -0.3847  0.1066
  482MOL0     H65008   4.909   2.796  10.159 -0.8337  0.2583 -2.5567
  482MOL0     H65009   4.969   2.900  10.399  0.8349 -1.7343 -0.5224
  482MOL0     H65010   4.958   3.054  10.302  2.1735 -0.2601 -2.9106
  482MOL0     H65011   5.146   2.821  10.261  1.6789  0.2151 -2.5173
  482MOL0     H65012   5.105   2.936  10.133 -1.0922 -1.3830 -0.7417
  482MOL0     H65013   5.206   3.114  10.299 -0.6451 -0.6745  0.0465
  482MOL0     H65014   5.251   2.993  10.413  3.1853  3.2233 -0.3445
  482MOL0     H65015   5.376   2.874  10.229 -0.7854 -0.3353  0.4180
  482MOL0     H65016   5.353   3.025  10.139 -1.5583  0.8383  0.3941
  482MOL0     H65017   5.481   3.014  10.419  1.0705 -0.5343  0.0909
  482MOL0     H65018   5.453   3.157  10.323  1.1223 -0.1990  0.8172
  482MOL0     H65019   5.635   2.922  10.272 -3.4028 -1.8474  0.9886
  482MOL0     H65020   5.606   3.029  10.137  1.4635 -1.2440  0.1147
  482MOL0     H65021   5.741   3.263  10.141 -1.0589  1.7132 -0.1508
  482MOL0     H65022   5.885   3.454  10.220  0.1292 -2.3366 -1.4829
  482MOL0     H65023   5.952   3.454  10.390  1.2846 -0.8723  0.3053
  482MOL0     H65024   6.092   3.291  10.165  2.1767 -2.0704  1.4399
  482MOL0     H65025   6.111   3.470  10.192  0.1370 -0.5549  1.0770
  482MOL0     H65026   6.153   3.261  10.418 -2.8193  2.9516  3.5430
  482MOL0     H65027   6.200   3.431  10.412  0.9690 -0.3368 -0.8140
  482MOL0     H65028   6.317   3.228  10.223  0.9860  0.0405 -0.3390
  482MOL0     H65029   6.388   3.286  10.377  0.2609 -2.2598 -0.3030
  482MOL0     H65030   6.491   3.647  10.227  1.0315 -0.0591 -0.7523
  482MOL0     H65031   6.735   3.696  10.292 -1.0654  0.3317  5.0302
  482MOL0     H65032   7.045   3.718  10.620 -2.4962 -2.3623 -2.6101
  482MOL0     H65033   7.280   3.790  10.690  1.2727  2.6142 -1.3168
  482MOL0     H65034   7.571   3.785  10.354  0.1863 -0.3846  1.3586
  482MOL0     H65035   7.493   3.945  10.376 -1.1312 -0.9228 -2.0958
  482MOL0     H65036   7.730   3.989  10.388  1.7185 -0.4076  0.9032
  482MOL0     H65037   7.686   3.981  10.554  1.2736 -0.3740 -0.7197
  482MOL0     H65038   7.750   3.736  10.589  1.3741 -1.7698 -0.6086
  482MOL0     H65039   7.808   3.741  10.427  0.2671  0.7238  0.3501
  482MOL0     H65040   7.899   3.932  10.635 -1.5036  0.0856 -0.5040
  482MOL0     H65041   7.961   3.950  10.474  0.9789 -0.9713  0.4760
  482MOL0     H65042   8.066   3.720  10.488  0.4133 -2.1933  2.0029
  482MOL0     H65043   8.005   3.710  10.654  0.2074  0.9706  1.9669
  482MOL0     H65044   8.190   3.931  10.539  0.3810  1.3454  1.3834
  482MOL0     H65045   8.132   3.937  10.693  0.3044  2.0587 -2.7827
  482MOL0     H65046   8.294   3.691  10.607 -3.8334  0.2084 -2.8576
  482MOL0     H65047   8.238   3.738  10.769  1.0698  0.4966  0.6660
  482MOL0     H65048   8.486   3.794  10.686 -0.0817  1.2870 -3.7556
  482MOL0     H65049   8.410   3.946  10.638 -0.0419  0.8973  0.0042
  482MOL0     H65050   7.396   3.712  10.277 -0.3561  1.7162 -0.5728
  482MOL0     H65051   7.173   3.638  10.223 -2.0085  0.3593 -0.2783
  482MOL0     H65052   6.816   3.285  10.286 -0.9271  0.1716  1.6818
  482MOL0     H65053   6.580   3.236  10.218  1.5810 -1.4430  0.9278
  482MOL0     H65054   4.561   2.572  10.037 -0.4726 -3.4282  3.1244
  482MOL0     H65055   4.346   2.493  10.056 -0.1879 -0.6363  0.2415
  482MOL0     H65056   4.084   2.334  10.204  1.5197  1.0712 -1.8545
  482MOL0     H65057   3.881   2.182  10.226  2.0609  0.3413 -1.2687
  482MOL0     H65058   3.681   2.116  10.341  0.8513  5.0264  0.5527
  482MOL0     H65059   3.705   2.101  10.163  0.8829 -1.4696  0.3240
  482MOL0     H65060   3.525   1.957  10.239  2.0518  0.3046 -2.2336
  482MOL0     H65061   3.475   2.081  10.126  1.7782 -2.0633  0.1246
  482MOL0     H65062   3.405   2.221  10.330 -0.5829  0.3135  0.5142
  482MOL0     H65063   3.422   2.075  10.423  1.5437  0.3343 -0.9414
  482MOL0     H65064   3.233   2.130  10.182  3.5804  0.6439 -0.9556
  482MOL0     H65065   3.272   1.968  10.236  0.1413 -0.0789 -0.2879
  482MOL0     H65066   2.972   2.015  10.505  0.8948  0.2818  1.0797
  482MOL0     H65067   3.629   2.519  10.157  1.1028  0.7366  2.0507
  482MOL0     H65068   3.814   2.770  10.194  1.6406  0.7935 -1.6357
  482MOL0     H65069   3.864   2.729  10.032 -1.1558  2.4348  0.2278
  482MOL0     H65070   3.699   2.717  10.079  0.3810  2.6637 -0.8360
  483MOL0     O65071   7.626   6.759   1.891  0.3423  0.0067 -0.9703
  483MOL0     C65072   7.630   6.857   1.816 -0.1367 -0.1336 -0.1760
  483MOL0     O65073   7.741   6.913   1.762  0.4607 -0.8295 -0.3745
  483MOL0     C65074   7.877   6.884   1.799 -0.6897 -0.2291 -0.3793
  483MOL0     C65075   7.977   6.958   1.738 -0.0723 -0.1131 -0.6089
  483MOL0     C65076   8.109   6.943   1.772 -0.6398 -0.2716 -0.2289
  483MOL0     C65077   8.143   6.843   1.859 -0.1309 -0.1586 -0.2687
  483MOL0     O65078   8.273   6.790   1.870 -0.3412  0.3840 -0.7477
  483MOL0     C65079   8.381   6.866   1.817  0.5751 -0.5495 -0.3144
  483MOL0     C65080   8.506   6.819   1.885  0.3875  0.0217  0.4204
  483MOL0     C65081   8.632   6.876   1.816  0.3173 -0.7092 -0.7549
  483MOL0     C65082   8.752   6.814   1.885 -0.1925  0.4035 -0.3176
  483MOL0     C65083   8.879   6.886   1.841 -0.3247 -0.9873 -0.8461
  483MOL0     C65084   9.006   6.827   1.904 -0.1984 -1.1047 -0.4435
  483MOL0     C65085   9.130   6.897   1.842  0.5360 -0.0110 -0.2104
  483MOL0     C65086   9.243   6.856   1.939 -0.0512 -0.4195  0.6311
  483MOL0     N65087   9.381   6.894   1.899  0.6398  0.0641 -0.1140
  483MOL0     C65088   9.426   6.987   1.812  0.3243 -1.3891  0.1803
  483MOL0     C65089   9.556   6.998   1.832  1.0000  0.7074  0.2718
  483MOL0     C65090   9.636   7.092   1.755  0.1027  0.0114 -0.3143
  483MOL0     C65091   9.754   7.132   1.837  0.0920 -0.0828 -0.2977
  483MOL0     C65092   9.803   7.268   1.786  1.0108  0.6348 -0.7366
  483MOL0     C65093   9.927   7.311   1.869  0.7693 -0.1740  1.3405
  483MOL0     O65094  10.028   7.209   1.854  1.0434 -0.5863 -0.5738
  483MOL0     C65095  10.130   7.215   1.765 -1.1224 -1.0766  0.9782
  483MOL0     C65096  10.118   7.301   1.654  0.2682 -0.4260  0.3008
  483MOL0     C65097  10.224   7.339   1.562 -0.0117 -0.1344 -0.0339
  483MOL0     C65098  10.344   7.270   1.579 -0.2018 -0.2131 -1.7254
  483MOL0     C65099  10.450   7.297   1.482 -0.5799  0.3641 -0.2443
  483MOL0     O65100  10.574   7.256   1.508  0.1828  0.1312  1.1000
  483MOL0     C65101  10.654   7.212   1.402 -0.1262  0.6415 -0.8253
  483MOL0     C65102  10.637   7.076   1.353  0.6306 -0.1984 -0.3192
  483MOL0     C65103  10.727   7.025   1.259 -0.0268 -0.1229  0.4066
  483MOL0     C65104  10.827   7.096   1.201 -0.0842 -0.5507  0.6543
  483MOL0     O65105  10.909   7.059   1.099  0.3006 -0.4368 -0.0401
  483MOL0     C65106  10.949   6.923   1.098  0.3207  0.9441  0.8016
  483MOL0     C65107  11.061   6.900   0.993  1.2439  0.0822  0.5988
  483MOL0     C65108  11.193   6.902   1.059 -1.3883  0.0704 -0.4633
  483MOL0     C65109  11.297   6.946   0.955  0.0157 -0.1822 -0.6398
  483MOL0     C65110  11.433   6.918   1.021  0.2369 -0.3765 -0.1658
  483MOL0     C65111  11.546   6.945   0.930  0.6070  0.9268  0.6386
  483MOL0     C65112  11.686   6.926   1.006 -0.3842 -1.1750 -0.2233
  483MOL0     C65113  11.811   6.939   0.925 -0.0276  0.1818  0.3127
  483MOL0    Cl65114  11.932   6.990   1.054  0.4121 -0.1487 -0.4292
  483MOL0     C65115  10.834   7.225   1.239 -0.1494  0.1108  0.0034
  483MOL0     C65116  10.746   7.283   1.328  0.0435  0.1151 -0.6045
  483MOL0     O65117  10.411   7.344   1.374 -0.0552  0.5220 -0.9709
  483MOL0     C65118  10.364   7.198   1.703  0.7247  0.0714 -0.1869
  483MOL0     C65119  10.256   7.161   1.783 -0.1962  0.1085  0.1300
  483MOL0     N65120   9.595   6.905   1.922 -0.3464  0.3123  0.4452
  483MOL0     N65121   9.490   6.839   1.959 -0.2276 -0.1366 -0.2127
  483MOL0     C65122   8.042   6.772   1.924 -0.3398  0.7435  0.0843
  483MOL0     C65123   7.908   6.786   1.893 -0.1554 -0.7258 -0.0058
  483MOL0     C65124   7.512   6.925   1.772  0.2049 -0.8379 -0.1693
  483MOL0     C65125   7.491   6.952   1.632 -0.0580 -0.2791 -0.2606
  483MOL0     C65126   7.374   6.995   1.584  0.1937  0.5857  0.8446
  483MOL0     C65127   7.279   7.038   1.678 -0.1081  0.7105 -0.0730
  483MOL0     O65128   7.166   7.092   1.615 -0.1958 -0.5912 -0.4348
  483MOL0     C65129   7.045   7.127   1.682  0.0397 -0.2297  0.8228
  483MOL0     C65130   6.980   7.249   1.611 -0.9344  0.2460 -0.4786
  483MOL0     C65131   6.830   7.279   1.638 -0.2550  0.0494  0.5975
  483MOL0     C65132   6.733   7.164   1.593 -0.6005 -0.6026  0.1585
  483MOL0     C65133   6.599   7.227   1.580  0.1860 -0.5323 -0.2398
  483MOL0     C65134   6.488   7.272   1.572 -0.4524  0.1718  0.5395
  483MOL0     C65135   7.287   7.006   1.810  0.1885  0.3074  0.6501
  483MOL0     C65136   7.409   6.962   1.861 -0.3806 -0.0166  0.3018
  483MOL0     C65137   7.417   6.951   2.015  0.4948 -0.8868 -0.5165
  483MOL0     H65138   7.952   7.038   1.668 -0.1653 -0.6526 -1.2027
  483MOL0     H65139   8.179   7.006   1.717 -1.2515  1.9934  1.4678
  483MOL0     H65140   8.404   6.844   1.712  2.2441  4.2965 -1.2089
  483MOL0     H65141   8.368   6.974   1.825 -0.4589 -0.6376 -0.6544
  483MOL0     H65142   8.498   6.711   1.871  1.2851 -0.0617  0.4874
  483MOL0     H65143   8.500   6.839   1.992 -0.0414  1.0332  0.2192
  483MOL0     H65144   8.624   6.985   1.820 -2.1096 -0.7418 -2.8064
  483MOL0     H65145   8.632   6.850   1.710 -0.9292  1.6745 -1.4255
  483MOL0     H65146   8.745   6.824   1.994  0.8005 -0.5128 -0.1509
  483MOL0     H65147   8.761   6.709   1.857  1.0592  0.3677  0.1330
  483MOL0     H65148   8.896   6.895   1.733 -0.6650 -2.8772 -1.0789
  483MOL0     H65149   8.878   6.988   1.882  3.0727 -1.3144  0.3752
  483MOL0     H65150   8.998   6.845   2.012 -2.2507  1.3142 -0.9039
  483MOL0     H65151   9.004   6.723   1.872 -1.9120 -0.8386 -1.3062
  483MOL0     H65152   9.111   7.004   1.852 -1.2270 -0.4395  1.5276
  483MOL0     H65153   9.138   6.876   1.734 -1.9378 -0.2784 -0.3979
  483MOL0     H65154   9.227   6.899   2.038 -0.9033  2.9203 -0.8160
  483MOL0     H65155   9.237   6.747   1.948  0.3937 -0.5304 -0.3663
  483MOL0     H65156   9.362   7.044   1.747  0.3421  2.3678  3.0775
  483MOL0     H65157   9.666   7.043   1.662  3.2685  2.0787 -0.5608
  483MOL0     H65158   9.569   7.176   1.740  1.8696  2.1127  2.5116
  483MOL0     H65159   9.719   7.143   1.940 -2.8712  1.3478 -1.3706
  483MOL0     H65160   9.830   7.053   1.830 -1.5634 -1.8013  0.2901
  483MOL0     H65161   9.720   7.338   1.796 -2.2335 -2.4691 -3.1970
  483MOL0     H65162   9.827   7.254   1.680  0.0856 -0.3311 -0.8433
  483MOL0     H65163   9.890   7.313   1.972 -2.4833 -0.2284  0.3162
  483MOL0     H65164   9.962   7.409   1.837 -3.3100  1.0647  0.0658
  483MOL0     H65165  10.020   7.341   1.631  0.5760 -0.3519 -0.9317
  483MOL0     H65166  10.201   7.413   1.485  0.5862  0.4576  0.3382
  483MOL0     H65167  10.555   7.023   1.400 -0.6362  2.4593  0.6406
  483MOL0     H65168  10.709   6.920   1.238  0.1663 -0.7611  3.1180
  483MOL0     H65169  10.984   6.902   1.200  0.7795  1.6505  0.7982
  483MOL0     H65170  10.859   6.863   1.079 -1.3415  1.6578  5.2753
  483MOL0     H65171  11.042   6.805   0.943 -1.8463  0.4245  0.9401
  483MOL0     H65172  11.054   6.982   0.921  0.2822 -0.1471  0.4242
  483MOL0     H65173  11.195   6.959   1.152  3.0475 -0.0595 -0.2758
  483MOL0     H65174  11.213   6.797   1.082  0.5895  0.2637 -1.1393
  483MOL0     H65175  11.285   7.051   0.928 -2.6044  0.2903  1.8792
  483MOL0     H65176  11.299   6.872   0.874  2.8349 -2.3850  1.2096
  483MOL0     H65177  11.450   6.817   1.059 -0.4337 -0.4633 -0.0826
  483MOL0     H65178  11.446   6.987   1.105  0.7418 -0.1501 -0.4227
  483MOL0     H65179  11.542   6.876   0.845  1.0067 -1.3050  2.3361
  483MOL0     H65180  11.540   7.048   0.895 -0.8449  1.6303  2.7523
  483MOL0     H65181  11.704   6.831   1.057  2.4325 -0.8025 -0.4165
  483MOL0     H65182  11.676   6.994   1.091  0.1475 -1.1803 -0.1588
  483MOL0     H65183  11.838   6.844   0.879 -1.6063 -1.0041  1.6967
  483MOL0     H65184  11.788   7.021   0.856 -1.1171 -0.2765  0.1050
  483MOL0     H65185  10.905   7.292   1.193 -0.4370  3.0504  3.3825
  483MOL0     H65186  10.762   7.388   1.350 -1.1501 -0.4239  3.9458
  483MOL0     H65187  10.459   7.155   1.734  0.3909 -2.6712 -2.5767
  483MOL0     H65188  10.261   7.091   1.865  1.1180 -0.4444 -0.3881
  483MOL0     H65189   8.071   6.695   1.995  0.7646  0.4402 -0.6664
  483MOL0     H65190   7.833   6.732   1.950  2.9049 -1.9991  3.2090
  483MOL0     H65191   7.562   6.903   1.566 -2.3790 -4.3039 -0.0629
  483MOL0     H65192   7.361   6.997   1.477 -0.7277 -0.4692  0.9135
  483MOL0     H65193   7.068   7.166   1.782  1.0389  2.7105 -0.4575
  483MOL0     H65194   6.972   7.045   1.679 -2.4951  1.7685  2.7180
  483MOL0     H65195   6.989   7.238   1.502  0.5328  3.3772 -0.7753
  483MOL0     H65196   7.045   7.331   1.640 -0.6923  0.1256 -0.6826
  483MOL0     H65197   6.805   7.369   1.583  0.1687 -0.9895 -1.3862
  483MOL0     H65198   6.810   7.295   1.745  0.8013 -0.3625  0.8699
  483MOL0     H65199   6.759   7.134   1.491  1.3257  0.3247  0.3306
  483MOL0     H65200   6.747   7.071   1.649  1.2462  0.5488  1.7239
  483MOL0     H65201   6.396   7.325   1.562 -2.5991 -2.4331  3.9535
  483MOL0     H65202   7.214   7.034   1.885 -1.6584 -0.7398 -0.6604
  483MOL0     H65203   7.378   6.856   2.052 -0.3965  1.0710  4.3132
  483MOL0     H65204   7.515   6.962   2.062  1.7467  0.3850 -3.1900
  483MOL0     H65205   7.351   7.029   2.056  0.9524 -0.4017 -0.6850
  484MOL0     O65206   6.984   1.221   0.460  0.0307 -0.3312  0.5867
  484MOL0     C65207   6.954   1.297   0.369 -0.2270 -0.2083  0.2454
  484MOL0     O65208   7.037   1.375   0.303 -0.1802 -0.2085  0.7940
  484MOL0     C65209   7.165   1.337   0.316 -0.4470  0.2643 -0.5280
  484MOL0     C65210   7.222   1.265   0.215 -0.7783 -0.5616 -0.1866
  484MOL0     C65211   7.354   1.222   0.228  0.3458 -0.6325 -0.3778
  484MOL0     C65212   7.432   1.240   0.343  0.0504  0.2234 -0.4913
  484MOL0     O65213   7.552   1.184   0.371 -0.1049  0.7834  0.4576
  484MOL0     C65214   7.618   1.124   0.258 -0.6943 -0.1522 -0.5816
  484MOL0     C65215   7.737   1.067   0.327  0.7019  0.4828 -0.3177
  484MOL0     C65216   7.832   1.020   0.220  0.0355  0.3884 -1.1346
  484MOL0     C65217   7.976   0.996   0.277  0.6588 -0.3921 -0.6795
  484MOL0     C65218   8.082   0.977   0.172  0.0443  0.6122 -0.0830
  484MOL0     C65219   8.211   1.041   0.216  0.2904 -0.6140 -0.7980
  484MOL0     C65220   8.269   0.958   0.337  0.4759 -0.0082  0.7855
  484MOL0     C65221   8.405   1.011   0.387  0.5478 -0.3680 -0.0959
  484MOL0     N65222   8.387   1.131   0.462 -0.7393  0.0770 -0.4570
  484MOL0     C65223   8.486   1.218   0.498 -0.8996 -1.1264  0.4951
  484MOL0     C65224   8.429   1.315   0.572 -0.2393 -0.2752 -0.0403
  484MOL0     C65225   8.502   1.427   0.649 -1.0714 -0.0014  0.2230
  484MOL0     C65226   8.629   1.389   0.721 -0.0200  0.6322 -0.1862
  484MOL0     C65227   8.598   1.285   0.828  0.8173 -0.8692  0.0732
  484MOL0     C65228   8.731   1.234   0.882  0.1844 -0.5878  0.7371
  484MOL0     O65229   8.783   1.122   0.806  0.3579  0.2362 -0.8354
  484MOL0     C65230   8.908   1.076   0.833 -0.2345  0.8670  0.6699
  484MOL0     C65231   8.988   1.101   0.947 -0.5079 -0.3770 -0.1415
  484MOL0     C65232   9.119   1.056   0.952 -0.2216 -0.2142 -0.0680
  484MOL0     C65233   9.179   0.984   0.841  0.5823  0.1926 -0.1218
  484MOL0     C65234   9.324   0.932   0.846  0.6391  0.2724 -0.8435
  484MOL0     O65235   9.364   0.907   0.978  0.3078  1.0483 -0.4407
  484MOL0     C65236   9.489   0.857   1.008 -0.4686  0.0091 -0.2555
  484MOL0     C65237   9.606   0.859   0.928 -0.3585 -0.2255 -0.0465
  484MOL0     C65238   9.728   0.803   0.978 -0.2139 -0.4713  0.0840
  484MOL0     C65239   9.732   0.733   1.104  0.5262 -0.3931 -0.3996
  484MOL0     O65240   9.846   0.678   1.158 -0.7372  1.2511  0.5837
  484MOL0     C65241   9.937   0.626   1.060 -0.1143  0.2205  0.5096
  484MOL0     C65242  10.040   0.542   1.119  0.3057 -1.0292 -0.6087
  484MOL0     C65243   9.989   0.394   1.145  0.1420 -0.3687  0.4103
  484MOL0     C65244   9.869   0.379   1.236  0.0892 -0.3725  0.0414
  484MOL0     C65245   9.814   0.236   1.227 -0.0689 -0.1897  0.7400
  484MOL0     C65246   9.669   0.224   1.301  0.0437  0.1891 -0.9046
  484MOL0     C65247   9.706   0.191   1.450  0.4509 -0.5968  0.5080
  484MOL0     C65248   9.591   0.113   1.517 -0.1960  0.2170 -1.0973
  484MOL0    Cl65249   9.456   0.235   1.558  0.2628  0.1099 -0.4080
  484MOL0     C65250   9.618   0.736   1.184 -0.0937 -0.0423 -1.0015
  484MOL0     C65251   9.503   0.794   1.132  0.2889  0.1957  0.1809
  484MOL0     O65252   9.384   0.899   0.748 -0.0179 -0.2750  0.3709
  484MOL0     C65253   9.107   0.958   0.730  0.8055 -0.2981 -0.0200
  484MOL0     C65254   8.979   1.017   0.726  0.5981  0.0733  0.0622
  484MOL0     N65255   8.295   1.279   0.585  0.1724  0.4184 -0.3160
  484MOL0     N65256   8.273   1.176   0.518  0.6743  0.0998  0.3301
  484MOL0     C65257   7.365   1.302   0.447  0.0055 -1.4293 -0.3585
  484MOL0     C65258   7.241   1.364   0.433  0.4621 -0.7491 -0.4327
  484MOL0     C65259   6.800   1.317   0.335 -0.1107  0.3668 -0.0118
  484MOL0     C65260   6.767   1.428   0.252 -1.0269  1.0561 -0.3031
  484MOL0     C65261   6.635   1.464   0.211  0.0790  0.0523 -0.7534
  484MOL0     C65262   6.526   1.391   0.259 -0.9782 -0.6667  0.5334
  484MOL0     O65263   6.397   1.416   0.228 -0.4445 -0.6600 -0.2298
  484MOL0     C65264   6.350   1.528   0.148 -0.0247 -0.3846 -0.1072
  484MOL0     C65265   6.225   1.487   0.072  0.5548 -0.6733  0.5151
  484MOL0     C65266   6.147   1.603   0.001 -0.3928  0.0587  0.3856
  484MOL0     C65267   6.036   1.567  -0.090  0.2571 -0.4445 -0.4213
  484MOL0     C65268   5.933   1.492  -0.016 -0.2353 -0.0428 -0.7819
  484MOL0     C65269   5.836   1.448   0.049 -0.2426 -0.5946  0.2461
  484MOL0     C65270   6.551   1.293   0.350 -0.3143 -0.8028  1.0691
  484MOL0     C65271   6.684   1.255   0.391 -0.9000 -0.6761 -1.5340
  484MOL0     C65272   6.698   1.138   0.482 -0.8393  0.1916  0.4298
  484MOL0     H65273   7.162   1.252   0.125  2.1052 -0.5216 -2.2557
  484MOL0     H65274   7.393   1.182   0.135  0.3469 -3.5040  0.7348
  484MOL0     H65275   7.560   1.052   0.199  2.6055 -0.8809 -3.2374
  484MOL0     H65276   7.641   1.202   0.186  0.3216 -1.2426 -1.4743
  484MOL0     H65277   7.711   0.979   0.388  0.2525  1.7544  1.3902
  484MOL0     H65278   7.791   1.142   0.385  2.7264 -2.2342  1.6345
  484MOL0     H65279   7.843   1.103   0.150  2.3791  2.7766  1.7803
  484MOL0     H65280   7.797   0.932   0.166 -1.5608  0.2696  0.0277
  484MOL0     H65281   7.995   1.068   0.357  0.7954 -2.3741  1.1774
  484MOL0     H65282   7.970   0.904   0.336  1.1643  0.2616  0.4318
  484MOL0     H65283   8.096   0.870   0.154 -1.8419 -0.0171  1.7326
  484MOL0     H65284   8.044   1.029   0.083 -0.8423 -0.8050 -0.5743
  484MOL0     H65285   8.277   1.061   0.132 -1.1416  3.4368 -1.1687
  484MOL0     H65286   8.181   1.140   0.252 -1.5694 -1.2309 -0.5387
  484MOL0     H65287   8.282   0.851   0.319 -1.0885 -0.2334  0.7849
  484MOL0     H65288   8.193   0.956   0.416 -0.0078 -1.6867  0.3282
  484MOL0     H65289   8.452   0.943   0.458 -1.3389  1.9830  3.7493
  484MOL0     H65290   8.472   1.034   0.304 -1.2413  1.2198 -1.2009
  484MOL0     H65291   8.593   1.214   0.478 -0.5578  2.7267  0.6640
  484MOL0     H65292   8.537   1.496   0.572  1.2402 -0.9749  0.3148
  484MOL0     H65293   8.437   1.473   0.724 -0.7524 -0.1231  0.5769
  484MOL0     H65294   8.687   1.345   0.639 -1.1101 -1.3452  0.0186
  484MOL0     H65295   8.680   1.477   0.762  2.1687 -2.0759  3.5929
  484MOL0     H65296   8.532   1.210   0.784  2.9775 -0.1056 -5.2378
  484MOL0     H65297   8.546   1.334   0.911 -1.0647  1.9919 -2.5642
  484MOL0     H65298   8.719   1.202   0.986 -4.7046 -0.8003  0.3607
  484MOL0     H65299   8.797   1.321   0.878 -0.1892 -0.3497 -1.0700
  484MOL0     H65300   8.952   1.163   1.029 -0.4017 -1.9005  1.0986
  484MOL0     H65301   9.183   1.071   1.038 -3.4912 -0.5537  2.6379
  484MOL0     H65302   9.612   0.902   0.828  0.4474 -0.5564 -0.1490
  484MOL0     H65303   9.823   0.815   0.926 -0.4489  0.3021 -0.1757
  484MOL0     H65304   9.883   0.575   0.979  2.0556 -0.0321 -0.8575
  484MOL0     H65305   9.989   0.710   1.013  2.3660  0.4211  3.3358
  484MOL0     H65306  10.131   0.548   1.058  0.0516  2.1172 -0.8614
  484MOL0     H65307  10.065   0.589   1.214 -1.4063 -0.7634 -0.2531
  484MOL0     H65308   9.970   0.356   1.045  1.5620 -3.3771  1.1739
  484MOL0     H65309  10.069   0.332   1.186 -0.1678 -0.4746  0.8690
  484MOL0     H65310   9.783   0.442   1.211 -0.0548 -1.1823 -1.6215
  484MOL0     H65311   9.892   0.391   1.342 -0.0230  1.1819 -0.0908
  484MOL0     H65312   9.899   0.179   1.265  0.4845 -1.3283 -1.9288
  484MOL0     H65313   9.804   0.200   1.124 -2.7087 -1.2824  1.2881
  484MOL0     H65314   9.614   0.319   1.302  1.8341  1.3054  1.4037
  484MOL0     H65315   9.607   0.148   1.253  0.7061  0.8140 -2.8756
  484MOL0     H65316   9.733   0.281   1.507  1.0813 -0.7782  0.4986
  484MOL0     H65317   9.787   0.117   1.450  1.2452  0.2436  1.2774
  484MOL0     H65318   9.550   0.031   1.457 -0.5845 -1.0889  0.8512
  484MOL0     H65319   9.625   0.066   1.610  0.3337 -0.7491 -1.7500
  484MOL0     H65320   9.635   0.703   1.286  1.8926 -2.6725 -2.0551
  484MOL0     H65321   9.416   0.788   1.198 -0.6286 -0.9139 -1.0737
  484MOL0     H65322   9.150   0.901   0.648  1.9021  1.1861 -0.5245
  484MOL0     H65323   8.921   1.014   0.634 -0.6718  1.7160  0.7592
  484MOL0     H65324   7.420   1.321   0.538  0.6805  2.5834 -1.3992
  484MOL0     H65325   7.206   1.421   0.518 -1.5662 -1.7172 -0.5727
  484MOL0     H65326   6.855   1.469   0.204  0.9088 -1.9952  0.3699
  484MOL0     H65327   6.619   1.538   0.133 -2.1730  2.5004  1.8102
  484MOL0     H65328   6.417   1.560   0.068 -1.2312 -2.1556 -1.9352
  484MOL0     H65329   6.325   1.612   0.214  4.7546 -0.7079  2.6515
  484MOL0     H65330   6.154   1.446   0.145 -0.1824  1.9088  1.3677
  484MOL0     H65331   6.253   1.415  -0.005 -2.5843 -1.5404  0.0543
  484MOL0     H65332   6.222   1.658  -0.056  0.0541  0.3373  1.2339
  484MOL0     H65333   6.121   1.687   0.066 -1.1601  0.6720 -0.6857
  484MOL0     H65334   5.989   1.647  -0.147  1.0373 -0.7355 -1.5120
  484MOL0     H65335   6.088   1.507  -0.165  3.6361 -0.0638  1.3734
  484MOL0     H65336   5.757   1.393   0.096  1.4435 -2.9580  0.5000
  484MOL0     H65337   6.470   1.241   0.403  0.8012 -0.9304  2.7384
  484MOL0     H65338   6.753   1.171   0.571  0.7099  0.2488 -0.5139
  484MOL0     H65339   6.601   1.099   0.514 -1.9386  1.6583 -0.9601
  484MOL0     H65340   6.743   1.054   0.429 -0.9462  0.2771  0.2025
  485MOL0     O65341   8.762   6.868   3.018 -0.0683 -0.0149  0.0705
  485MOL0     C65342   8.730   6.950   2.930  0.8171  0.0104 -0.1412
  485MOL0     O65343   8.814   7.021   2.850  0.1691 -0.0082 -0.6287
  485MOL0     C65344   8.956   7.018   2.879 -0.2585 -0.1833  0.5567
  485MOL0     C65345   9.023   7.068   2.769 -0.0152 -0.4079  0.2192
  485MOL0     C65346   9.159   7.101   2.778 -0.1908 -0.7216 -0.1887
  485MOL0     C65347   9.241   7.067   2.891  0.2140  0.3758  0.4954
  485MOL0     O65348   9.376   7.084   2.902 -0.5662  0.1614 -0.4110
  485MOL0     C65349   9.440   7.162   2.805 -0.0410 -0.0924  0.1072
  485MOL0     C65350   9.587   7.169   2.828  0.1372 -0.7746  0.4120
  485MOL0     C65351   9.642   7.240   2.955 -0.4598 -0.4735 -0.0693
  485MOL0     C65352   9.797   7.257   2.948  0.7481  0.2317 -0.0975
  485MOL0     C65353   9.850   7.281   3.090 -0.2473  0.3009 -0.7732
  485MOL0     C65354   9.845   7.151   3.165  0.1046 -0.8818 -0.1885
  485MOL0     C65355   9.967   7.132   3.256  0.4957 -0.9395  0.0185
  485MOL0     C65356  10.012   7.254   3.342 -0.1800  1.0903  0.0077
  485MOL0     N65357  10.128   7.200   3.418  0.4120  0.1984  0.4061
  485MOL0     C65358  10.226   7.280   3.464 -0.9998 -0.0903  0.2043
  485MOL0     C65359  10.299   7.199   3.553 -0.0354 -0.5499  0.2728
  485MOL0     C65360  10.419   7.241   3.631 -0.5790  0.5469 -0.5530
  485MOL0     C65361  10.533   7.269   3.536  0.1265 -0.7513 -0.1943
  485MOL0     C65362  10.664   7.303   3.604  0.5363  0.2068  0.2485
  485MOL0     C65363  10.782   7.300   3.508  0.2736 -0.2335 -0.1581
  485MOL0     O65364  10.844   7.174   3.511 -0.3236  0.1238 -0.3191
  485MOL0     C65365  10.985   7.190   3.501  0.3379 -0.1436 -0.3725
  485MOL0     C65366  11.062   7.176   3.386  0.0343  0.3166  0.5160
  485MOL0     C65367  11.205   7.191   3.385 -0.4372 -0.3654  0.2223
  485MOL0     C65368  11.263   7.223   3.510 -0.0522 -0.4574 -0.3581
  485MOL0     C65369  11.414   7.225   3.517 -0.1086  0.2766  0.3272
  485MOL0     O65370  11.472   7.270   3.645  0.2174  0.1254  0.5760
  485MOL0     C65371  11.611   7.268   3.656  0.0278 -0.0251  0.3873
  485MOL0     C65372  11.650   7.367   3.739  0.7269  0.0285 -0.0795
  485MOL0     C65373  11.788   7.388   3.765  0.6436  0.2460 -0.2785
  485MOL0     C65374  11.881   7.287   3.719  0.3961 -0.1630 -0.2369
  485MOL0     O65375  12.012   7.304   3.760  0.7101  0.0974  0.1450
  485MOL0     C65376  12.082   7.186   3.804 -1.2853 -0.5694  0.0612
  485MOL0     C65377  12.210   7.230   3.882 -0.3936 -0.2027  0.5399
  485MOL0     C65378  12.284   7.101   3.924 -0.4219 -0.5056 -0.6920
  485MOL0     C65379  12.393   7.128   4.025 -0.1417 -0.3002 -0.9351
  485MOL0     C65380  12.479   7.004   4.051  0.5459 -0.1558 -0.1603
  485MOL0     C65381  12.610   7.044   4.121 -0.1455 -0.2584 -0.1762
  485MOL0     C65382  12.699   6.921   4.125 -0.5164  1.1063 -0.1261
  485MOL0     C65383  12.698   6.824   4.002  0.9007  0.3487  0.1143
  485MOL0    Cl65384  12.811   6.698   4.043  0.2238 -0.0071 -0.0231
  485MOL0     C65385  11.833   7.189   3.622 -0.0120 -0.0527  0.2521
  485MOL0     C65386  11.700   7.180   3.591  0.4233  0.2924 -0.1088
  485MOL0     O65387  11.482   7.209   3.408  0.5398 -0.0818 -0.0925
  485MOL0     C65388  11.179   7.258   3.619 -0.6570  0.6445 -0.1669
  485MOL0     C65389  11.046   7.227   3.616  0.6495 -0.4227  0.4823
  485MOL0     N65390  10.252   7.072   3.542 -0.6701 -0.1405 -0.2316
  485MOL0     N65391  10.147   7.074   3.471 -0.0534  0.0859 -0.4876
  485MOL0     C65392   9.167   7.013   3.006  0.0314  0.2489 -0.0350
  485MOL0     C65393   9.025   6.990   3.000  0.3593 -0.5856  0.4660
  485MOL0     C65394   8.583   6.970   2.916  0.6038 -0.0564  0.6395
  485MOL0     C65395   8.536   7.015   2.795  0.0194  0.4192 -0.8960
  485MOL0     C65396   8.394   7.040   2.778 -0.2213 -0.0810 -0.1550
  485MOL0     C65397   8.302   7.009   2.881  0.2970  0.3297  0.1071
  485MOL0     O65398   8.167   7.031   2.887  0.4571 -0.3032 -0.8942
  485MOL0     C65399   8.097   7.004   2.759 -0.1077  0.7740  0.2280
  485MOL0     C65400   7.963   6.947   2.798 -0.4900 -0.3894 -0.4514
  485MOL0     C65401   7.863   7.051   2.851 -0.6639  0.7152  0.7691
  485MOL0     C65402   7.714   7.022   2.826  0.0895  0.7574 -0.5341
  485MOL0     C65403   7.682   6.908   2.919 -0.2196  0.2872  0.1920
  485MOL0     C65404   7.652   6.825   3.009 -0.3755  0.2470  1.6819
  485MOL0     C65405   8.355   6.964   2.998  0.9226 -0.4204  1.2100
  485MOL0     C65406   8.486   6.934   3.018 -0.7140 -0.3659 -0.1941
  485MOL0     C65407   8.514   6.862   3.148  0.2467  0.0257 -0.4816
  485MOL0     H65408   8.970   7.093   2.677 -1.0507  0.7064  1.0765
  485MOL0     H65409   9.204   7.145   2.689 -3.1006 -0.7320 -1.7853
  485MOL0     H65410   9.432   7.122   2.704  1.2099  1.3785 -0.6286
  485MOL0     H65411   9.399   7.264   2.808 -0.7612 -0.2929 -1.5500
  485MOL0     H65412   9.632   7.233   2.751 -1.1565 -0.6552 -0.2766
  485MOL0     H65413   9.630   7.069   2.818  1.8767 -0.1677  1.3003
  485MOL0     H65414   9.616   7.174   3.038  1.0569  0.5961  1.3128
  485MOL0     H65415   9.599   7.339   2.970  0.4726  0.0843 -0.9285
  485MOL0     H65416   9.849   7.171   2.905  0.3669  0.6590 -1.4562
  485MOL0     H65417   9.829   7.342   2.887  1.2744  0.6814  0.7825
  485MOL0     H65418   9.949   7.326   3.081 -0.0389 -0.4389 -2.9576
  485MOL0     H65419   9.791   7.350   3.150  1.3970  0.2619  0.9620
  485MOL0     H65420   9.762   7.150   3.236  0.1534 -0.7072 -0.1279
  485MOL0     H65421   9.851   7.059   3.106  3.7658 -2.0597  1.7211
  485MOL0     H65422  10.053   7.094   3.201  1.4259  1.3217 -0.2278
  485MOL0     H65423   9.939   7.061   3.334  1.4905  1.6860  2.9955
  485MOL0     H65424  10.036   7.347   3.290 -2.7378  3.6717  2.9616
  485MOL0     H65425   9.926   7.279   3.405  0.0181  1.1098  0.2732
  485MOL0     H65426  10.231   7.388   3.464  0.9626 -0.1428  0.3788
  485MOL0     H65427  10.401   7.335   3.684 -0.1819  1.3419 -1.7786
  485MOL0     H65428  10.440   7.164   3.706  0.2263  1.6700  0.4210
  485MOL0     H65429  10.550   7.185   3.468 -1.0867 -1.1633 -0.0036
  485MOL0     H65430  10.504   7.345   3.462 -1.4565 -2.9867 -2.0089
  485MOL0     H65431  10.684   7.234   3.686 -0.1489 -0.5628 -0.2125
  485MOL0     H65432  10.657   7.408   3.632 -1.0418 -0.1252  1.2767
  485MOL0     H65433  10.841   7.385   3.545  1.2304 -1.5041  1.3447
  485MOL0     H65434  10.738   7.323   3.410  0.1215  1.2766  0.2259
  485MOL0     H65435  11.012   7.164   3.291  0.7623  2.7251 -0.2273
  485MOL0     H65436  11.261   7.177   3.294 -1.1922  0.5440 -0.4005
  485MOL0     H65437  11.568   7.434   3.763 -1.7916 -3.2658  1.1574
  485MOL0     H65438  11.817   7.473   3.825 -2.4705  1.6053 -0.4807
  485MOL0     H65439  12.008   7.134   3.866 -0.7182 -1.7319 -0.2239
  485MOL0     H65440  12.100   7.119   3.720 -3.3842 -1.7048  0.4473
  485MOL0     H65441  12.265   7.289   3.809  0.5457 -2.1581 -0.4141
  485MOL0     H65442  12.166   7.285   3.965  0.0456 -0.0358  0.6651
  485MOL0     H65443  12.210   7.028   3.959  0.5514 -1.2000 -0.0429
  485MOL0     H65444  12.324   7.061   3.830  2.0175  0.0963  0.0185
  485MOL0     H65445  12.350   7.148   4.124  0.0731 -1.0943 -0.6733
  485MOL0     H65446  12.448   7.218   3.996  1.5987 -0.9886  0.0369
  485MOL0     H65447  12.510   6.979   3.949 -2.7913  1.5280 -1.7551
  485MOL0     H65448  12.431   6.918   4.098 -0.3772  0.0765 -0.6426
  485MOL0     H65449  12.674   7.109   4.061  0.8168 -1.1611 -0.1580
  485MOL0     H65450  12.597   7.100   4.214 -0.1907  5.5421 -3.1806
  485MOL0     H65451  12.685   6.863   4.217  3.6354  0.3514  0.2445
  485MOL0     H65452  12.806   6.946   4.120  0.1867 -0.6749  3.1703
  485MOL0     H65453  12.596   6.785   3.996  1.4187 -0.9739 -0.2656
  485MOL0     H65454  12.730   6.876   3.911  2.2903  0.0089  0.3843
  485MOL0     H65455  11.910   7.131   3.573  0.2008  3.1752 -3.7164
  485MOL0     H65456  11.661   7.096   3.535  3.3054 -0.9478 -0.4396
  485MOL0     H65457  11.226   7.299   3.708  2.0766  1.7648 -1.9967
  485MOL0     H65458  10.976   7.239   3.698  0.0839 -1.1051  0.1133
  485MOL0     H65459   9.225   6.993   3.095  1.5539 -2.3883 -1.4898
  485MOL0     H65460   8.973   6.949   3.086 -2.1606 -0.5780 -0.9456
  485MOL0     H65461   8.607   7.033   2.714  1.1402 -4.1648 -1.2061
  485MOL0     H65462   8.356   7.097   2.694  1.0396  0.7794 -0.1537
  485MOL0     H65463   8.149   6.923   2.707 -1.3556 -0.1188  0.3319
  485MOL0     H65464   8.099   7.087   2.688  0.6480  0.1359 -0.5153
  485MOL0     H65465   7.984   6.871   2.874  1.4491  0.2095 -0.3448
  485MOL0     H65466   7.915   6.888   2.718  1.0402  0.4363 -2.0474
  485MOL0     H65467   7.888   7.139   2.791 -0.2678 -0.4833 -0.9001
  485MOL0     H65468   7.876   7.073   2.957 -0.9905  1.9590  0.5697
  485MOL0     H65469   7.650   7.102   2.861 -1.6806 -0.9976  0.4420
  485MOL0     H65470   7.687   7.001   2.721  0.9555 -0.1639 -0.5930
  485MOL0     H65471   7.629   6.750   3.083 -1.1580  0.0456  1.2538
  485MOL0     H65472   8.276   6.943   3.069 -0.8806 -0.1360 -0.6465
  485MOL0     H65473   8.421   6.834   3.198  0.3328  2.6798  1.4003
  485MOL0     H65474   8.573   6.770   3.140  3.2104  1.7327  0.1068
  485MOL0     H65475   8.570   6.931   3.212  4.4424 -2.3728 -1.1659
  486MOL0     O65476   7.670   0.876   0.601 -0.2462 -0.0440 -0.7843
  486MOL0     C65477   7.640   0.892   0.720 -0.0253 -0.5918 -0.0599
  486MOL0     O65478   7.730   0.917   0.822 -0.3514  0.0573  0.1303
  486MOL0     C65479   7.864   0.916   0.788 -0.4425 -0.5735 -0.9404
  486MOL0     C65480   7.955   0.823   0.848 -0.4014  0.3501  0.1374
  486MOL0     C65481   8.093   0.832   0.835  0.7527 -0.8106  0.3962
  486MOL0     C65482   8.141   0.943   0.760 -0.2571 -0.0944  0.0939
  486MOL0     O65483   8.273   0.957   0.739  0.0853 -1.1700 -0.1568
  486MOL0     C65484   8.373   0.970   0.845  0.3812  0.2931 -0.2794
  486MOL0     C65485   8.512   0.926   0.802 -0.9360  0.3329  0.0307
  486MOL0     C65486   8.534   0.774   0.787  0.3936  0.7002  0.5181
  486MOL0     C65487   8.655   0.732   0.703  0.0940 -0.4059 -0.0500
  486MOL0     C65488   8.650   0.586   0.680  0.1237  0.4567  0.5126
  486MOL0     C65489   8.777   0.540   0.604  0.7087  0.9220  0.1754
  486MOL0     C65490   8.878   0.519   0.707 -0.6483  0.1283  0.1222
  486MOL0     C65491   8.997   0.441   0.656  0.4593 -0.9105  0.7175
  486MOL0     N65492   9.076   0.514   0.557 -1.0556  0.3986  0.1096
  486MOL0     C65493   9.166   0.624   0.574 -0.0531  0.6909 -0.8364
  486MOL0     C65494   9.195   0.649   0.445 -0.2987 -0.6655  0.8700
  486MOL0     C65495   9.303   0.753   0.418  0.2673 -0.0984 -0.1019
  486MOL0     C65496   9.430   0.680   0.443 -0.5619 -1.1040  0.5297
  486MOL0     C65497   9.558   0.766   0.432  0.9037 -0.4792 -0.4175
  486MOL0     C65498   9.686   0.705   0.499 -0.5264 -0.0170  0.0125
  486MOL0     O65499   9.715   0.571   0.449  0.0409 -1.0356  0.2211
  486MOL0     C65500   9.736   0.549   0.313  0.0606 -0.4180  0.3178
  486MOL0     C65501   9.807   0.651   0.236  0.1379  0.3055  0.9169
  486MOL0     C65502   9.813   0.642   0.095 -0.1800 -0.5934  0.4517
  486MOL0     C65503   9.745   0.535   0.032  0.1214  0.1216 -0.1112
  486MOL0     C65504   9.774   0.521  -0.115 -0.1668 -0.1170  0.7204
  486MOL0     O65505   9.841   0.618  -0.174  0.0462 -0.5033  0.4673
  486MOL0     C65506   9.888   0.590  -0.307  0.0981 -0.2717 -0.8656
  486MOL0     C65507   9.960   0.466  -0.332  0.0036 -0.0618 -0.1006
  486MOL0     C65508  10.002   0.433  -0.460 -0.4055 -0.4816 -0.5798
  486MOL0     C65509   9.990   0.525  -0.563 -0.1938  0.4872  0.9753
  486MOL0     O65510  10.033   0.522  -0.692 -0.1140  0.3825  0.4398
  486MOL0     C65511  10.105   0.406  -0.729  0.6764  0.1295 -0.0486
  486MOL0     C65512  10.142   0.412  -0.882  0.4564  0.1954 -0.0388
  486MOL0     C65513  10.251   0.310  -0.917  0.3525  0.3302 -0.0308
  486MOL0     C65514  10.234   0.252  -1.061 -0.2769  0.5737  0.0582
  486MOL0     C65515  10.363   0.172  -1.102  0.3566  0.4789 -0.2503
  486MOL0     C65516  10.365   0.118  -1.240  0.8886 -0.1856  0.2069
  486MOL0     C65517  10.506   0.084  -1.287 -0.0919 -0.4482  1.0160
  486MOL0     C65518  10.591   0.211  -1.313  0.6977 -0.2792  1.2760
  486MOL0    Cl65519  10.725   0.141  -1.407  0.0738 -0.2162  0.2396
  486MOL0     C65520   9.921   0.642  -0.537  0.6758  0.7369 -0.2337
  486MOL0     C65521   9.871   0.677  -0.409  0.3469 -0.3917 -0.0798
  486MOL0     O65522   9.739   0.414  -0.173  0.0269  0.2487 -1.1153
  486MOL0     C65523   9.679   0.438   0.107 -0.5989 -0.5108 -0.0491
  486MOL0     C65524   9.677   0.444   0.246  0.2619 -0.7582  0.5897
  486MOL0     N65525   9.096   0.593   0.358  0.1690  0.4047 -0.6134
  486MOL0     N65526   9.031   0.506   0.427 -0.5332  0.3801 -1.2041
  486MOL0     C65527   8.056   1.025   0.693  0.7587 -0.5464 -0.4218
  486MOL0     C65528   7.914   1.014   0.712  0.5432  0.2097  0.2904
  486MOL0     C65529   7.494   0.914   0.748  0.2380 -0.5720  0.1095
  486MOL0     C65530   7.420   0.987   0.653  0.1370 -0.0231 -0.2410
  486MOL0     C65531   7.287   1.029   0.673  0.1080  0.3305  0.8194
  486MOL0     C65532   7.221   0.990   0.798 -0.0794  0.2851 -0.0672
  486MOL0     O65533   7.087   1.007   0.841  0.2085 -0.1295  0.7015
  486MOL0     C65534   6.983   1.061   0.757 -0.4783 -0.2101 -0.8715
  486MOL0     C65535   6.952   1.197   0.809  0.3859  0.3397 -0.0211
  486MOL0     C65536   7.068   1.289   0.837  0.3897 -0.4946  0.2376
  486MOL0     C65537   7.035   1.440   0.862  0.2493  0.2319 -0.5423
  486MOL0     C65538   6.995   1.509   0.743  0.9170 -1.1610 -0.7479
  486MOL0     C65539   6.954   1.567   0.638  0.0685  0.3033 -0.5987
  486MOL0     C65540   7.297   0.919   0.897  0.6174 -0.5527  0.5686
  486MOL0     C65541   7.431   0.885   0.869  0.1047 -0.1351  0.6253
  486MOL0     C65542   7.505   0.793   0.967  0.3975 -0.5404  0.4761
  486MOL0     H65543   7.920   0.747   0.917 -1.1456  0.9275  0.4019
  486MOL0     H65544   8.169   0.770   0.882 -0.2011 -0.0426  3.1864
  486MOL0     H65545   8.364   1.076   0.871  0.1657  0.5873 -1.4890
  486MOL0     H65546   8.350   0.927   0.943  1.7909  2.1176  0.9153
  486MOL0     H65547   8.586   0.964   0.873  0.2086 -0.8309 -0.5171
  486MOL0     H65548   8.528   0.970   0.703 -2.8125  2.2759  0.4927
  486MOL0     H65549   8.444   0.746   0.732 -0.2337  1.2072  1.2630
  486MOL0     H65550   8.535   0.722   0.883  1.7924  2.5267  1.5677
  486MOL0     H65551   8.655   0.788   0.609  1.0964  0.0463  0.2122
  486MOL0     H65552   8.749   0.752   0.754 -0.0859  2.1975 -0.6193
  486MOL0     H65553   8.623   0.521   0.764 -3.0226 -2.8439 -2.6746
  486MOL0     H65554   8.568   0.577   0.608  0.4782  0.9745  0.0367
  486MOL0     H65555   8.758   0.443   0.558  4.6187  0.5450 -1.0400
  486MOL0     H65556   8.811   0.609   0.527  2.7580 -1.0381 -0.7936
  486MOL0     H65557   8.837   0.474   0.798 -2.1901  2.5592  0.7256
  486MOL0     H65558   8.916   0.614   0.744  2.1545  0.9739 -4.1869
  486MOL0     H65559   9.066   0.421   0.739  0.7877 -3.3772 -0.0557
  486MOL0     H65560   8.961   0.345   0.618  0.0918 -1.2275  1.8163
  486MOL0     H65561   9.201   0.667   0.667 -1.9721 -0.3606  0.4602
  486MOL0     H65562   9.291   0.783   0.313  0.1403 -0.2105 -0.1203
  486MOL0     H65563   9.294   0.838   0.487  1.3800 -1.3916  1.7022
  486MOL0     H65564   9.431   0.637   0.544  0.4597 -0.4914  0.7948
  486MOL0     H65565   9.451   0.595   0.378 -1.2664  0.0950 -1.3603
  486MOL0     H65566   9.542   0.856   0.491 -0.0569 -0.2575 -0.9944
  486MOL0     H65567   9.566   0.796   0.327 -2.5014  0.5237 -0.4993
  486MOL0     H65568   9.670   0.702   0.607 -1.0955 -1.1967 -0.0937
  486MOL0     H65569   9.772   0.769   0.478 -0.5883  0.5432  1.3886
  486MOL0     H65570   9.860   0.728   0.290 -1.4099  0.9879  1.5440
  486MOL0     H65571   9.865   0.719   0.040 -0.5395 -0.9044 -0.3522
  486MOL0     H65572   9.973   0.399  -0.248 -0.0003 -1.0830 -0.8906
  486MOL0     H65573  10.062   0.343  -0.469 -1.0903 -1.6612  4.0791
  486MOL0     H65574  10.193   0.414  -0.664  0.5126 -2.5017  0.5837
  486MOL0     H65575  10.050   0.315  -0.705  1.6645 -0.5388 -0.2692
  486MOL0     H65576  10.049   0.382  -0.931 -0.3777 -0.7859  2.0051
  486MOL0     H65577  10.179   0.510  -0.911  0.7306 -0.4095 -1.8522
  486MOL0     H65578  10.353   0.347  -0.899  0.5119  1.1707 -2.2797
  486MOL0     H65579  10.234   0.226  -0.849 -0.2206  0.1388 -0.4081
  486MOL0     H65580  10.219   0.336  -1.130 -1.3156  1.6798  1.5759
  486MOL0     H65581  10.141   0.195  -1.072 -0.2267  0.0048  2.2606
  486MOL0     H65582  10.372   0.084  -1.038 -0.4892  0.4117 -0.2103
  486MOL0     H65583  10.456   0.226  -1.088  2.4493 -2.6567 -0.9469
  486MOL0     H65584  10.304   0.027  -1.243  1.8389 -0.8044 -1.9812
  486MOL0     H65585  10.318   0.196  -1.300 -0.7884 -1.1186  0.2588
  486MOL0     H65586  10.477   0.032  -1.378 -3.7115  1.0415  1.1171
  486MOL0     H65587  10.554   0.011  -1.222 -1.0773  0.2875  2.6292
  486MOL0     H65588  10.529   0.284  -1.366  2.8928 -0.7926 -2.2754
  486MOL0     H65589  10.638   0.252  -1.223  3.0114 -2.5920  1.2097
  486MOL0     H65590   9.914   0.720  -0.612 -3.2109 -0.1670 -1.0156
  486MOL0     H65591   9.815   0.770  -0.409 -2.6116 -1.9965  2.0687
  486MOL0     H65592   9.646   0.353   0.048 -0.0913 -0.6032 -0.1996
  486MOL0     H65593   9.610   0.379   0.302 -1.6944 -0.1314 -0.9207
  486MOL0     H65594   8.089   1.102   0.623 -1.1985  1.4730  0.7611
  486MOL0     H65595   7.844   1.077   0.658  0.9249 -1.5847 -2.4834
  486MOL0     H65596   7.467   1.009   0.558  0.0722  3.0092  0.3334
  486MOL0     H65597   7.240   1.077   0.588  0.8752 -1.2413 -0.5509
  486MOL0     H65598   6.889   1.004   0.754  0.4896 -1.8677 -0.7513
  486MOL0     H65599   7.026   1.071   0.657  1.2439  1.4429 -0.0366
  486MOL0     H65600   6.895   1.171   0.900 -0.2977  2.7625  0.3338
  486MOL0     H65601   6.879   1.243   0.741  1.7757 -0.6281 -2.2545
  486MOL0     H65602   7.138   1.279   0.754 -2.4572 -2.6744 -2.0919
  486MOL0     H65603   7.117   1.243   0.923 -1.0982  1.7531  2.4546
  486MOL0     H65604   6.956   1.437   0.938 -0.9935 -0.0731 -1.7857
  486MOL0     H65605   7.121   1.492   0.905 -1.0162  3.1430 -1.2803
  486MOL0     H65606   6.916   1.611   0.548  0.7714 -0.8140 -1.4676
  486MOL0     H65607   7.265   0.885   0.995  6.5016  0.7019  3.3526
  486MOL0     H65608   7.450   0.783   1.061 -3.6095  0.3865 -1.5311
  486MOL0     H65609   7.522   0.692   0.929 -0.6648 -0.0391 -1.4967
  486MOL0     H65610   7.602   0.834   0.994 -0.1093 -1.1815  3.6879
  487MOL0     O65611   5.740   1.237   9.585 -0.0013  0.1897  0.5739
  487MOL0     C65612   5.691   1.199   9.697 -0.2049 -0.0782 -0.5640
  487MOL0     O65613   5.753   1.216   9.827  0.2765 -0.2578  0.3113
  487MOL0     C65614   5.860   1.298   9.823 -0.2035 -0.9949  0.4724
  487MOL0     C65615   5.985   1.244   9.814  0.9070 -1.1964  0.2763
  487MOL0     C65616   6.103   1.324   9.822  0.4508 -0.1839 -0.3081
  487MOL0     C65617   6.091   1.463   9.849 -0.3847  0.4955 -0.8078
  487MOL0     O65618   6.202   1.547   9.857  0.5809 -0.4422  0.5044
  487MOL0     C65619   6.186   1.681   9.918 -0.2316  0.2585  0.1013
  487MOL0     C65620   6.329   1.742   9.907  0.9260  0.0010 -0.3139
  487MOL0     C65621   6.361   1.741   9.757 -0.2124  0.0010 -0.2660
  487MOL0     C65622   6.502   1.811   9.726  0.2554 -0.1843 -0.6051
  487MOL0     C65623   6.530   1.818   9.580  0.2412  0.0293 -0.8068
  487MOL0     C65624   6.660   1.907   9.544 -0.1935  0.0188 -0.0484
  487MOL0     C65625   6.692   1.899   9.398 -0.0528  0.1855 -0.6587
  487MOL0     C65626   6.771   2.018   9.352  0.5940 -0.1854 -0.2916
  487MOL0     N65627   6.891   2.042   9.432  0.7474  0.8745 -0.4831
  487MOL0     C65628   7.000   1.961   9.434 -0.1401  0.5540  0.0827
  487MOL0     C65629   7.092   2.039   9.506 -0.0902  0.3911  0.0185
  487MOL0     C65630   7.222   2.006   9.549  0.2032  0.0138  0.2078
  487MOL0     C65631   7.334   2.091   9.496  0.4495 -0.2737  0.2375
  487MOL0     C65632   7.350   2.231   9.561 -0.4276 -0.1377 -0.3442
  487MOL0     C65633   7.417   2.230   9.697 -0.6787 -0.2187 -0.4230
  487MOL0     O65634   7.550   2.176   9.688  0.8245 -0.4051 -0.5203
  487MOL0     C65635   7.667   2.208   9.758 -0.1027 -1.0322  0.8125
  487MOL0     C65636   7.770   2.114   9.767  0.0099 -0.6942 -0.5189
  487MOL0     C65637   7.886   2.133   9.841 -0.8555  0.1466  0.1131
  487MOL0     C65638   7.909   2.256   9.906  0.2190  0.7753  0.0739
  487MOL0     C65639   8.029   2.283   9.985  0.8999 -0.3414  0.0110
  487MOL0     O65640   8.126   2.190   9.967 -0.5229 -0.4246 -1.1366
  487MOL0     C65641   8.233   2.202  10.047 -0.5887  0.1228 -0.6890
  487MOL0     C65642   8.360   2.225   9.973 -0.4484  0.5372  0.5602
  487MOL0     C65643   8.480   2.232  10.036 -0.2260 -0.3276  0.4431
  487MOL0     C65644   8.488   2.228  10.180  0.7347  0.4078  0.6398
  487MOL0     O65645   8.607   2.220  10.255  0.9989 -0.6963 -0.4077
  487MOL0     C65646   8.727   2.220  10.176 -0.3693  0.4111 -0.6107
  487MOL0     C65647   8.837   2.205  10.274  0.2733 -0.9111 -0.6967
  487MOL0     C65648   8.969   2.248  10.220 -0.1152  0.0723  0.1777
  487MOL0     C65649   9.091   2.196  10.300 -0.5938  0.2298  0.0510
  487MOL0     C65650   9.226   2.241  10.242 -0.9291 -0.2123  0.4678
  487MOL0     C65651   9.340   2.143  10.274 -0.8347  0.0022  0.2024
  487MOL0     C65652   9.402   2.167  10.417  1.6810 -1.0663  0.0447
  487MOL0     C65653   9.497   2.057  10.466  0.0860 -1.2123 -0.8070
  487MOL0    Cl65654   9.575   2.093  10.620 -0.4696 -0.6481 -0.2305
  487MOL0     C65655   8.365   2.205  10.250  0.3667  0.4329 -0.2588
  487MOL0     C65656   8.236   2.189  10.189  0.5663 -0.1789 -0.4674
  487MOL0     O65657   8.038   2.393  10.041 -0.7253 -0.0455 -0.3214
  487MOL0     C65658   7.816   2.355   9.886  1.1344  0.0334 -0.1072
  487MOL0     C65659   7.691   2.339   9.821 -0.2827  0.7728  0.4655
  487MOL0     N65660   7.038   2.157   9.538  0.8934  0.4165  0.8209
  487MOL0     N65661   6.921   2.165   9.480 -0.2359  0.8779 -0.1578
  487MOL0     C65662   5.963   1.514   9.851  0.3349 -0.5019  0.4991
  487MOL0     C65663   5.848   1.435   9.834 -0.4823  0.1978 -0.0571
  487MOL0     C65664   5.558   1.139   9.683 -0.7509 -0.3985  0.1622
  487MOL0     C65665   5.478   1.180   9.570 -0.3165 -0.5142  0.5877
  487MOL0     C65666   5.374   1.101   9.538  1.0894 -0.8666 -0.0539
  487MOL0     C65667   5.332   0.983   9.603 -0.7804 -0.5729 -0.6662
  487MOL0     O65668   5.235   0.908   9.550  0.6224  0.0115 -0.0200
  487MOL0     C65669   5.099   0.953   9.569 -0.1134 -0.1866 -0.8557
  487MOL0     C65670   4.995   0.844   9.616 -0.6303  0.5869  0.2773
  487MOL0     C65671   4.855   0.900   9.642  0.4551  0.0795  0.0118
  487MOL0     C65672   4.829   0.926   9.794 -0.0692  0.1718  0.2098
  487MOL0     C65673   4.914   1.024   9.859  0.6280  0.2884  0.0767
  487MOL0     C65674   4.994   1.096   9.912 -0.3983  0.3917  0.9921
  487MOL0     C65675   5.404   0.952   9.713  0.4737  0.6680  0.7951
  487MOL0     C65676   5.512   1.031   9.753 -0.8539 -0.0261 -0.4672
  487MOL0     C65677   5.581   0.982   9.878  0.1252  0.1925  0.6909
  487MOL0     H65678   5.986   1.135   9.815  0.9688 -1.2044 -0.3713
  487MOL0     H65679   6.199   1.275   9.815  0.7565 -0.2929  2.9299
  487MOL0     H65680   6.112   1.746   9.871 -0.1026  0.3287 -0.0064
  487MOL0     H65681   6.159   1.676  10.024  0.8774 -3.4267  0.3580
  487MOL0     H65682   6.402   1.686   9.967 -0.9807 -2.5243 -0.1786
  487MOL0     H65683   6.325   1.848   9.932 -0.7387 -0.1860  0.3315
  487MOL0     H65684   6.283   1.781   9.692 -0.0930 -0.8598 -0.9564
  487MOL0     H65685   6.373   1.638   9.722 -0.5738 -0.2846  0.4161
  487MOL0     H65686   6.506   1.908   9.775 -1.0046  0.5707 -1.9304
  487MOL0     H65687   6.588   1.753   9.761  0.1079  0.2588  0.4999
  487MOL0     H65688   6.555   1.718   9.544 -0.8417 -0.4935 -0.1445
  487MOL0     H65689   6.443   1.857   9.526  0.5954  0.0943 -1.3455
  487MOL0     H65690   6.639   2.012   9.567 -1.7609  0.0185 -1.3344
  487MOL0     H65691   6.745   1.871   9.602 -0.7875 -2.4246 -0.5710
  487MOL0     H65692   6.605   1.897   9.332  0.7726  1.0713 -1.8143
  487MOL0     H65693   6.746   1.809   9.371 -0.4208 -0.4259  0.5620
  487MOL0     H65694   6.791   2.010   9.245  0.0208  0.8571 -0.4819
  487MOL0     H65695   6.696   2.097   9.358  2.2456  1.3873  1.0476
  487MOL0     H65696   7.007   1.860   9.395 -0.9230  0.6442 -0.3183
  487MOL0     H65697   7.226   2.012   9.658 -3.6111  3.2203  0.4447
  487MOL0     H65698   7.238   1.905   9.511  1.5919 -0.3512  1.6838
  487MOL0     H65699   7.429   2.037   9.509  0.8197 -0.1339 -1.5395
  487MOL0     H65700   7.323   2.109   9.388  1.3429 -1.6804 -0.1160
  487MOL0     H65701   7.250   2.275   9.567  0.0314  1.1536 -1.4660
  487MOL0     H65702   7.402   2.299   9.492 -0.8726  1.8765  1.1925
  487MOL0     H65703   7.359   2.160   9.758  0.8411  0.2657  1.6616
  487MOL0     H65704   7.431   2.327   9.745  1.0740 -1.6323  2.1498
  487MOL0     H65705   7.747   2.020   9.717 -5.0149  0.1669 -0.3549
  487MOL0     H65706   7.963   2.058   9.855  1.1801  1.9819 -0.5998
  487MOL0     H65707   8.359   2.230   9.865 -0.0794 -1.0193  0.4650
  487MOL0     H65708   8.572   2.234   9.977  2.2263 -0.6996  3.9491
  487MOL0     H65709   8.719   2.128  10.117 -0.0966 -1.3305  1.9069
  487MOL0     H65710   8.727   2.309  10.112 -4.1648 -0.1388 -1.6248
  487MOL0     H65711   8.810   2.259  10.365  0.0790  0.6436 -1.6357
  487MOL0     H65712   8.847   2.099  10.295  1.3233 -0.5607  0.7720
  487MOL0     H65713   8.978   2.204  10.120 -1.0019 -0.8791  0.4876
  487MOL0     H65714   8.984   2.353  10.196 -1.3832  0.1149 -0.5331
  487MOL0     H65715   9.087   2.087  10.311  1.4338 -0.5942 -4.7376
  487MOL0     H65716   9.085   2.241  10.399 -0.8006  0.7930 -0.2146
  487MOL0     H65717   9.256   2.340  10.276  1.0492 -0.9194  0.9210
  487MOL0     H65718   9.211   2.243  10.134  0.9315  1.7599  0.1920
  487MOL0     H65719   9.300   2.041  10.273  0.7306 -0.6553  0.6965
  487MOL0     H65720   9.420   2.148  10.200 -0.3450  1.1068  0.7834
  487MOL0     H65721   9.321   2.164  10.490  1.4403  0.6326 -0.1162
  487MOL0     H65722   9.443   2.268  10.427 -0.4299 -0.2612  1.1617
  487MOL0     H65723   9.446   1.961  10.479  1.9691 -2.1546  0.1915
  487MOL0     H65724   9.581   2.032  10.400  3.1777 -2.0013  3.0362
  487MOL0     H65725   8.392   2.175  10.351  0.2222 -1.1914 -0.6820
  487MOL0     H65726   8.151   2.156  10.248  0.6834  0.6097  0.1660
  487MOL0     H65727   7.834   2.457   9.918 -2.4428  0.0491  2.3645
  487MOL0     H65728   7.612   2.413   9.828 -3.5568 -2.2659 -0.8241
  487MOL0     H65729   5.941   1.620   9.845 -2.2014 -0.9960 -0.3933
  487MOL0     H65730   5.753   1.485   9.814 -1.7591 -1.9832  0.2089
  487MOL0     H65731   5.502   1.270   9.514 -0.0083 -2.9402 -3.6043
  487MOL0     H65732   5.316   1.127   9.449 -1.6403 -2.3485  1.1608
  487MOL0     H65733   5.061   0.985   9.471 -0.7475 -1.7434 -1.1412
  487MOL0     H65734   5.102   1.032   9.644  0.2780 -1.9445  1.0518
  487MOL0     H65735   5.044   0.804   9.705 -0.8229 -2.3064 -0.8181
  487MOL0     H65736   4.988   0.764   9.542  0.0323 -0.2376  1.0758
  487MOL0     H65737   4.787   0.826   9.597  1.2969 -1.4536  1.1586
  487MOL0     H65738   4.845   0.987   9.576  1.8651 -0.3219 -0.7688
  487MOL0     H65739   4.724   0.951   9.809 -0.4482  0.1015 -1.9540
  487MOL0     H65740   4.848   0.832   9.845 -0.5406 -1.6803 -2.7624
  487MOL0     H65741   5.064   1.157   9.966  1.4573 -0.5998 -0.1709
  487MOL0     H65742   5.360   0.865   9.761  1.7638 -0.0830  0.6741
  487MOL0     H65743   5.678   0.941   9.849  0.9220  0.4014  2.8726
  487MOL0     H65744   5.586   1.058   9.956  1.0349  0.0992  0.7318
  487MOL0     H65745   5.529   0.895   9.920  1.7067 -0.5471  1.1968
  488MOL0     O65746  10.256   2.541   6.557  0.8888  0.6108 -0.2432
  488MOL0     C65747  10.325   2.594   6.645  0.7548  0.0908  0.3769
  488MOL0     O65748  10.270   2.677   6.749 -0.8490 -0.2318 -0.2713
  488MOL0     C65749  10.145   2.738   6.744  0.8366 -0.2329  0.2782
  488MOL0     C65750  10.074   2.768   6.623 -0.4121 -0.0763 -0.7567
  488MOL0     C65751   9.954   2.842   6.624 -0.2030  0.2224 -0.7217
  488MOL0     C65752   9.910   2.898   6.743 -0.1813  0.1032 -0.6395
  488MOL0     O65753   9.792   2.966   6.758  0.1184  0.3933 -0.5976
  488MOL0     C65754   9.697   2.891   6.841  0.5958  0.3566  0.7355
  488MOL0     C65755   9.604   2.785   6.778 -0.5255 -0.0511 -0.5793
  488MOL0     C65756   9.529   2.843   6.658 -0.1490  0.6434 -0.2670
  488MOL0     C65757   9.446   2.733   6.586  0.3063 -1.1864 -0.6220
  488MOL0     C65758   9.410   2.746   6.443 -0.0328  0.2210 -0.0892
  488MOL0     C65759   9.527   2.781   6.353 -0.9397  0.7737 -0.3708
  488MOL0     C65760   9.653   2.694   6.376 -0.0436  0.2758 -0.0230
  488MOL0     C65761   9.632   2.553   6.316  0.0154  0.5330  0.1575
  488MOL0     N65762   9.691   2.434   6.387  0.6803  0.5285 -0.2913
  488MOL0     C65763   9.830   2.420   6.412 -0.0140 -0.3135 -0.0464
  488MOL0     C65764   9.833   2.308   6.490 -0.0392 -0.6436  0.3435
  488MOL0     C65765   9.940   2.266   6.587  0.0697  0.5166 -0.6151
  488MOL0     C65766   9.987   2.121   6.552 -0.1385  0.5259  0.4982
  488MOL0     C65767  10.074   2.138   6.425 -0.2368 -0.0831  0.1853
  488MOL0     C65768  10.096   1.985   6.370 -0.4460 -0.3560 -0.3293
  488MOL0     O65769  10.190   1.967   6.269 -0.0930  0.0871 -0.0759
  488MOL0     C65770  10.316   2.009   6.297  0.2308 -0.3101  0.0573
  488MOL0     C65771  10.369   2.004   6.423 -1.0669  1.2131 -0.7172
  488MOL0     C65772  10.507   2.038   6.441  0.3437 -0.1807  0.6837
  488MOL0     C65773  10.580   2.081   6.329  0.0006  0.3335  0.3170
  488MOL0     C65774  10.722   2.131   6.347  0.2604  0.6626  0.0006
  488MOL0     O65775  10.792   2.123   6.234 -0.0089  0.5049  0.2164
  488MOL0     C65776  10.931   2.123   6.251 -0.5858 -0.3459  0.4712
  488MOL0     C65777  11.009   2.027   6.314 -0.4375 -0.7113  0.5838
  488MOL0     C65778  11.141   2.052   6.347 -0.2373 -0.1524  1.0684
  488MOL0     C65779  11.203   2.173   6.297  0.6900  0.6382 -0.0439
  488MOL0     O65780  11.321   2.220   6.341  0.3762  0.2375  0.6327
  488MOL0     C65781  11.424   2.129   6.399 -0.3687  0.0561  0.9059
  488MOL0     C65782  11.563   2.190   6.397 -0.3814 -0.4260  0.3100
  488MOL0     C65783  11.676   2.090   6.443  0.7335 -0.0010  0.7980
  488MOL0     C65784  11.805   2.143   6.405 -0.1016  0.1495  1.3746
  488MOL0     C65785  11.920   2.065   6.479 -0.1717 -0.1672  0.3321
  488MOL0     C65786  12.046   2.145   6.452  0.3994  0.2903 -0.0543
  488MOL0     C65787  12.167   2.089   6.519 -0.7486  0.1310  0.1326
  488MOL0     C65788  12.292   2.102   6.422  0.3623  0.0337 -0.7657
  488MOL0    Cl65789  12.436   2.083   6.530  0.1531  0.0243  0.3339
  488MOL0     C65790  11.117   2.259   6.231 -0.3379 -0.3935  0.0094
  488MOL0     C65791  10.984   2.243   6.218 -0.2434  0.0062  0.4606
  488MOL0     O65792  10.776   2.129   6.463  0.0855  0.2194 -0.1753
  488MOL0     C65793  10.526   2.082   6.205 -0.0989 -0.6403 -0.0265
  488MOL0     C65794  10.396   2.039   6.192  0.3677  0.5459  0.0119
  488MOL0     N65795   9.703   2.254   6.501  0.2410 -0.7654 -0.2094
  488MOL0     N65796   9.622   2.330   6.437  0.1756  0.2483 -0.1243
  488MOL0     C65797   9.988   2.880   6.862 -0.2278  0.6927  0.0245
  488MOL0     C65798  10.097   2.798   6.862  0.0667  0.3583  0.1850
  488MOL0     C65799  10.474   2.579   6.640 -0.1310 -0.0194 -0.2191
  488MOL0     C65800  10.544   2.518   6.532 -0.4182  0.2135  1.0069
  488MOL0     C65801  10.680   2.529   6.512  0.0543 -0.0302 -0.9854
  488MOL0     C65802  10.759   2.575   6.615  0.3017  0.6484  0.1545
  488MOL0     O65803  10.896   2.567   6.608 -0.6626 -0.4264 -0.4275
  488MOL0     C65804  10.975   2.574   6.490  0.5924  0.3041  0.1167
  488MOL0     C65805  11.047   2.711   6.474 -0.2869  0.0357  0.5503
  488MOL0     C65806  11.084   2.737   6.329  0.0665 -0.4382 -0.7022
  488MOL0     C65807  11.145   2.882   6.292 -0.4101 -0.1830 -0.2973
  488MOL0     C65808  11.288   2.903   6.319  0.4619 -0.3708 -0.2828
  488MOL0     C65809  11.400   2.931   6.349 -0.6231  0.4502  0.7616
  488MOL0     C65810  10.689   2.622   6.727  0.1412  0.8843  0.8079
  488MOL0     C65811  10.559   2.626   6.741  0.7281  0.4060  0.7469
  488MOL0     C65812  10.512   2.705   6.862 -0.4456  0.2820 -0.5042
  488MOL0     H65813  10.104   2.737   6.524 -0.8420 -2.8269 -0.1209
  488MOL0     H65814   9.898   2.859   6.532  0.2481 -0.6875 -1.1800
  488MOL0     H65815   9.747   2.825   6.912  1.3890 -1.1247 -1.1052
  488MOL0     H65816   9.636   2.968   6.889  0.2372  0.2868  0.3985
  488MOL0     H65817   9.539   2.738   6.852  0.8312  1.8772  2.0331
  488MOL0     H65818   9.658   2.697   6.744 -4.3761 -1.8947 -2.5393
  488MOL0     H65819   9.600   2.888   6.588 -0.0858 -0.2019 -0.7594
  488MOL0     H65820   9.466   2.924   6.694  0.7297  0.8478  0.8635
  488MOL0     H65821   9.489   2.634   6.605  0.9407 -0.6726  0.7140
  488MOL0     H65822   9.354   2.742   6.645 -1.0996  0.7059 -2.8894
  488MOL0     H65823   9.368   2.654   6.400  0.1074 -0.0290  0.3012
  488MOL0     H65824   9.339   2.828   6.433 -1.7893 -1.4006 -1.5814
  488MOL0     H65825   9.505   2.774   6.246 -0.1130 -2.0899 -0.4341
  488MOL0     H65826   9.556   2.883   6.380  1.8508  0.0204 -0.1984
  488MOL0     H65827   9.680   2.685   6.481  0.7619 -1.1029 -0.3325
  488MOL0     H65828   9.748   2.734   6.339 -0.4921  1.2187 -0.2107
  488MOL0     H65829   9.524   2.532   6.319  0.2082 -0.9591  4.2091
  488MOL0     H65830   9.653   2.548   6.209 -0.8592  1.3840 -0.0616
  488MOL0     H65831   9.910   2.492   6.399 -2.1761  2.0506 -0.9617
  488MOL0     H65832  10.020   2.340   6.576  1.5890 -1.3797 -3.2833
  488MOL0     H65833   9.894   2.261   6.686 -1.8709 -1.2720 -1.5356
  488MOL0     H65834  10.043   2.073   6.632 -1.2733 -0.2372  0.8533
  488MOL0     H65835   9.902   2.058   6.524 -0.1747  0.1081  1.5159
  488MOL0     H65836  10.167   2.192   6.444  0.1156 -0.8328  0.6731
  488MOL0     H65837  10.031   2.195   6.343  1.3240 -0.2640 -0.8170
  488MOL0     H65838  10.002   1.944   6.334 -0.5515  0.0652 -0.5391
  488MOL0     H65839  10.119   1.929   6.461 -0.3695 -1.6847 -1.1445
  488MOL0     H65840  10.325   1.956   6.509  2.4841  1.4516  1.4684
  488MOL0     H65841  10.548   2.042   6.542  1.2836  0.6092  0.2896
  488MOL0     H65842  10.956   1.940   6.353 -0.5657 -1.6978 -1.6328
  488MOL0     H65843  11.206   1.982   6.398  1.5290 -0.1393 -0.9980
  488MOL0     H65844  11.391   2.102   6.500  0.6398  1.0260  1.5229
  488MOL0     H65845  11.433   2.035   6.344 -0.6679  0.1946  0.6152
  488MOL0     H65846  11.574   2.233   6.297 -1.6401  1.1273  0.7923
  488MOL0     H65847  11.575   2.282   6.456  1.5122  1.4250 -2.6635
  488MOL0     H65848  11.668   2.085   6.552  0.8486  1.7345  0.9236
  488MOL0     H65849  11.655   1.996   6.392 -1.2200  0.9261 -0.2249
  488MOL0     H65850  11.810   2.251   6.425 -1.3036  0.1264  1.8687
  488MOL0     H65851  11.808   2.132   6.296  1.8522 -1.0918  1.5029
  488MOL0     H65852  11.935   1.963   6.441  3.6461  0.4589 -0.2552
  488MOL0     H65853  11.897   2.048   6.584 -0.5180 -1.6539  0.0442
  488MOL0     H65854  12.062   2.152   6.344 -3.2239 -1.2895 -0.8401
  488MOL0     H65855  12.019   2.244   6.491 -2.7169 -0.4539 -0.0039
  488MOL0     H65856  12.163   1.985   6.552 -0.2383 -0.8771 -2.6669
  488MOL0     H65857  12.167   2.150   6.610  0.5565 -1.5868  1.3423
  488MOL0     H65858  12.285   2.030   6.340 -2.4380 -0.6318 -0.0404
  488MOL0     H65859  12.304   2.203   6.382  1.7966 -0.3987 -1.5043
  488MOL0     H65860  11.148   2.358   6.202 -2.2495  1.1160  2.5981
  488MOL0     H65861  10.911   2.313   6.178 -0.6315 -2.4226 -3.6019
  488MOL0     H65862  10.575   2.120   6.116  1.8164  0.8213  1.5577
  488MOL0     H65863  10.349   2.037   6.095  1.4139 -2.2705 -0.5407
  488MOL0     H65864   9.966   2.939   6.950  1.9526 -0.6889  1.5787
  488MOL0     H65865  10.150   2.774   6.954  0.4014  0.9856  0.1592
  488MOL0     H65866  10.488   2.475   6.450  1.7538  1.3627 -1.1952
  488MOL0     H65867  10.727   2.482   6.426 -0.4783 -2.0133 -0.2465
  488MOL0     H65868  10.910   2.562   6.403  1.2507 -1.2847 -0.2013
  488MOL0     H65869  11.045   2.490   6.495 -2.0776 -2.0847  0.5787
  488MOL0     H65870  11.138   2.713   6.535  1.0250 -0.8677 -1.2481
  488MOL0     H65871  10.976   2.788   6.505  0.0775  1.3520 -1.6302
  488MOL0     H65872  10.987   2.743   6.280  0.2285 -0.8906 -1.0893
  488MOL0     H65873  11.128   2.654   6.273  0.0354 -0.2540 -1.0001
  488MOL0     H65874  11.128   2.886   6.184 -0.4030 -1.0310 -0.3366
  488MOL0     H65875  11.084   2.959   6.339 -4.5523 -2.9721 -0.5727
  488MOL0     H65876  11.502   2.949   6.377  0.9772 -2.1237 -2.6931
  488MOL0     H65877  10.755   2.677   6.794  1.0828 -0.5610  1.1086
  488MOL0     H65878  10.452   2.790   6.827 -1.1680  0.9756  2.1783
  488MOL0     H65879  10.469   2.646   6.943  1.5323  0.6330  0.8722
  488MOL0     H65880  10.598   2.750   6.913 -0.7576  2.1326 -1.5065
  489MOL0     O65881   7.912   3.778   4.556  0.2534 -0.5087  0.4608
  489MOL0     C65882   7.870   3.893   4.542  0.0186  0.8975  0.6729
  489MOL0     O65883   7.919   4.001   4.614  0.3130  0.7327  0.4057
  489MOL0     C65884   8.039   3.983   4.671  0.0611 -0.3567 -1.2069
  489MOL0     C65885   8.048   3.977   4.808 -0.4368 -0.2092 -0.2948
  489MOL0     C65886   8.174   3.978   4.872  0.8997  0.4065  0.1123
  489MOL0     C65887   8.290   4.003   4.801 -0.0299 -0.4960  0.0461
  489MOL0     O65888   8.406   4.026   4.869 -0.1672  0.1196 -0.3536
  489MOL0     C65889   8.524   4.046   4.788 -0.0311 -0.0532 -0.4648
  489MOL0     C65890   8.645   4.061   4.885  0.5422  0.1219 -0.4794
  489MOL0     C65891   8.781   4.095   4.820  0.0335  0.0357  0.3848
  489MOL0     C65892   8.789   4.238   4.774  0.2311  0.3368  0.4592
  489MOL0     C65893   8.928   4.257   4.708  0.1385 -1.4713  0.1786
  489MOL0     C65894   8.968   4.417   4.692 -0.0139 -0.0401  0.4128
  489MOL0     C65895   9.120   4.429   4.662  0.1002  0.0157 -0.2219
  489MOL0     C65896   9.133   4.580   4.658 -0.1572  0.2089  0.1327
  489MOL0     N65897   9.139   4.658   4.781  0.7045  0.0706  0.1876
  489MOL0     C65898   9.158   4.598   4.906  0.5704 -0.2509  0.1413
  489MOL0     C65899   9.151   4.705   4.992 -0.1545 -0.1835 -0.2098
  489MOL0     C65900   9.165   4.693   5.139  0.2639 -0.4500  0.1260
  489MOL0     C65901   9.304   4.747   5.183 -0.3258 -0.3331 -0.1833
  489MOL0     C65902   9.430   4.688   5.113  0.3299  0.2063 -0.7160
  489MOL0     C65903   9.562   4.696   5.186 -0.7602 -0.3433 -0.9892
  489MOL0     O65904   9.678   4.653   5.101 -0.2664  0.3309  0.1425
  489MOL0     C65905   9.782   4.601   5.164 -0.5428  0.2419 -0.4561
  489MOL0     C65906   9.800   4.576   5.309 -0.2149  0.6119 -0.2392
  489MOL0     C65907   9.916   4.510   5.352  0.0036 -0.3075 -0.1829
  489MOL0     C65908  10.022   4.476   5.261  0.4410  0.5515  0.6472
  489MOL0     C65909  10.152   4.428   5.303  0.3878 -0.5132 -0.6509
  489MOL0     O65910  10.160   4.410   5.441  0.3866 -0.1763 -0.0679
  489MOL0     C65911  10.280   4.374   5.495  0.3830  0.3772 -0.0565
  489MOL0     C65912  10.363   4.470   5.558 -0.2207  0.0301  0.5826
  489MOL0     C65913  10.499   4.454   5.577  0.7312  0.0202 -0.6361
  489MOL0     C65914  10.553   4.328   5.548  0.0774  0.0277 -0.4975
  489MOL0     O65915  10.687   4.293   5.566 -0.3632 -0.0132 -0.7942
  489MOL0     C65916  10.779   4.388   5.616  1.3927 -0.1853  0.1074
  489MOL0     C65917  10.919   4.357   5.637 -0.2820  0.2212  1.0376
  489MOL0     C65918  10.932   4.272   5.765  0.2475  1.0037  0.2189
  489MOL0     C65919  11.082   4.227   5.777 -0.0485 -0.2486  0.2152
  489MOL0     C65920  11.129   4.200   5.916  0.5597  1.0006  0.0709
  489MOL0     C65921  11.279   4.184   5.933  0.0289 -1.2797 -0.4205
  489MOL0     C65922  11.327   4.054   5.860 -0.3979 -0.6666  0.5063
  489MOL0     C65923  11.477   4.031   5.843 -0.7672  0.4329 -0.2641
  489MOL0    Cl65924  11.533   4.013   6.015 -0.1580  0.2028 -0.3243
  489MOL0     C65925  10.471   4.225   5.495  0.2414  0.2057  0.6026
  489MOL0     C65926  10.332   4.253   5.465 -0.3102 -0.5386  0.1875
  489MOL0     O65927  10.232   4.403   5.219 -0.3579  0.0453  0.3398
  489MOL0     C65928  10.001   4.517   5.123  1.3054  0.2182  0.2604
  489MOL0     C65929   9.879   4.564   5.073  0.2767 -0.2986  0.0124
  489MOL0     N65930   9.103   4.816   4.929  0.2249  0.5666 -0.3338
  489MOL0     N65931   9.094   4.788   4.801  0.4204  0.2343 -0.3468
  489MOL0     C65932   8.278   4.007   4.655  0.4795 -0.1793 -0.0725
  489MOL0     C65933   8.153   3.988   4.597  0.6728  0.0953  1.1010
  489MOL0     C65934   7.765   3.916   4.440 -0.2472  0.3916  0.1174
  489MOL0     C65935   7.688   4.031   4.463 -0.2850 -0.0601 -0.3536
  489MOL0     C65936   7.580   4.062   4.378 -0.1030 -0.0182 -0.6190
  489MOL0     C65937   7.542   3.977   4.272  0.6310  0.3263  0.3859
  489MOL0     O65938   7.427   4.020   4.212 -0.1541  0.0541  0.1524
  489MOL0     C65939   7.398   3.970   4.080 -0.7609 -0.6388  0.3692
  489MOL0     C65940   7.268   4.045   4.043  0.1535  0.4848  0.1469
  489MOL0     C65941   7.151   4.018   4.146  0.5557  0.0993 -1.0409
  489MOL0     C65942   7.110   3.873   4.152 -0.0423  0.4307  0.4297
  489MOL0     C65943   7.188   3.772   4.237 -0.1166  0.0386  0.2974
  489MOL0     C65944   7.261   3.691   4.293  0.2482  0.1375  0.1548
  489MOL0     C65945   7.625   3.865   4.242 -0.3342 -0.0128  0.1150
  489MOL0     C65946   7.745   3.844   4.316  1.0472  0.2491  0.4340
  489MOL0     C65947   7.833   3.737   4.259  0.3155  0.2673  0.5120
  489MOL0     H65948   7.952   3.976   4.860 -0.3288 -1.0862 -0.1021
  489MOL0     H65949   8.187   3.974   4.979 -1.5227  1.1643  0.5016
  489MOL0     H65950   8.544   3.963   4.720 -0.2773 -0.8085  0.3724
  489MOL0     H65951   8.508   4.135   4.726 -5.0866  0.5491  1.2671
  489MOL0     H65952   8.645   3.973   4.951 -2.3714 -0.6242 -1.2828
  489MOL0     H65953   8.618   4.141   4.955 -1.0741  1.6772 -2.7177
  489MOL0     H65954   8.780   4.034   4.729 -4.9226  1.2997 -0.7269
  489MOL0     H65955   8.863   4.076   4.889 -0.6131 -0.5846  1.0120
  489MOL0     H65956   8.703   4.264   4.712 -0.5930 -0.0325  1.4285
  489MOL0     H65957   8.771   4.297   4.864 -1.7986 -0.1948  0.4424
  489MOL0     H65958   9.009   4.207   4.762  1.7372  0.5938 -0.2049
  489MOL0     H65959   8.936   4.232   4.602  2.1707  4.5397 -1.5145
  489MOL0     H65960   8.912   4.459   4.608  0.4977 -0.8333 -0.3402
  489MOL0     H65961   8.956   4.471   4.787  5.0434  0.1928  1.1670
  489MOL0     H65962   9.145   4.376   4.569  1.4763 -4.5900  2.4531
  489MOL0     H65963   9.170   4.377   4.743  1.8862 -0.2560 -1.4387
  489MOL0     H65964   9.231   4.595   4.612 -0.3707  1.2606 -0.0158
  489MOL0     H65965   9.061   4.622   4.587  0.2488 -1.4612 -1.3111
  489MOL0     H65966   9.180   4.495   4.934  2.1307  0.3047  1.0954
  489MOL0     H65967   9.095   4.765   5.182  0.0639 -0.5703 -0.0027
  489MOL0     H65968   9.143   4.591   5.169 -1.3017 -0.2949 -0.4277
  489MOL0     H65969   9.317   4.854   5.166 -0.2443 -0.4220 -0.6998
  489MOL0     H65970   9.306   4.737   5.291 -2.0845 -0.0100 -0.0915
  489MOL0     H65971   9.454   4.731   5.016  3.4229  1.0241  0.2980
  489MOL0     H65972   9.418   4.579   5.106  2.2235 -0.1453  0.6211
  489MOL0     H65973   9.545   4.643   5.280  1.6373  3.6748  2.0420
  489MOL0     H65974   9.581   4.801   5.209  0.5262 -0.6415 -0.6128
  489MOL0     H65975   9.740   4.605   5.396  3.6487  1.8821  2.2465
  489MOL0     H65976   9.928   4.486   5.457  3.2738  0.7211 -0.2224
  489MOL0     H65977  10.303   4.556   5.584  1.0824  0.7438  1.3117
  489MOL0     H65978  10.564   4.526   5.625  1.8445 -1.9829  1.0277
  489MOL0     H65979  10.782   4.478   5.555  0.7885  0.6892  1.3393
  489MOL0     H65980  10.744   4.409   5.718  0.6556 -0.3475 -0.1051
  489MOL0     H65981  10.963   4.297   5.557 -3.0743 -1.8141  0.8917
  489MOL0     H65982  10.976   4.449   5.652 -0.3049  0.9548 -2.4603
  489MOL0     H65983  10.899   4.336   5.847 -0.1524  2.1093 -0.7693
  489MOL0     H65984  10.864   4.187   5.765 -2.8576  3.3260  0.2456
  489MOL0     H65985  11.154   4.289   5.723  2.8352 -4.0231 -0.7373
  489MOL0     H65986  11.087   4.127   5.733 -1.0173 -1.1964  2.1235
  489MOL0     H65987  11.081   4.109   5.952  3.2154 -1.0577 -1.2868
  489MOL0     H65988  11.096   4.289   5.971 -0.6922 -0.2484  1.4037
  489MOL0     H65989  11.334   4.272   5.899  0.2491 -0.6230  1.5282
  489MOL0     H65990  11.299   4.180   6.041 -0.5280  5.2835  0.3235
  489MOL0     H65991  11.284   4.029   5.763 -0.5060  0.2726  0.3112
  489MOL0     H65992  11.299   3.965   5.918  1.0539 -1.5400 -0.0815
  489MOL0     H65993  11.496   3.938   5.788  1.0476  0.4133  0.3253
  489MOL0     H65994  11.529   4.115   5.796  1.8612  0.0900  1.7913
  489MOL0     H65995  10.520   4.129   5.491 -2.3791 -1.1776 -2.1983
  489MOL0     H65996  10.273   4.171   5.426 -3.4109  1.2729  0.6795
  489MOL0     H65997  10.085   4.515   5.054 -0.2524 -0.3253 -1.6959
  489MOL0     H65998   9.850   4.593   4.973  0.6412 -2.0919 -0.6422
  489MOL0     H65999   8.345   4.036   4.575 -1.5461  1.8614 -1.1419
  489MOL0     H66000   8.126   4.004   4.493 -1.0140 -1.3133  1.2864
  489MOL0     H66001   7.698   4.096   4.550 -1.1789 -0.1238 -0.2002
  489MOL0     H66002   7.520   4.150   4.398 -2.3004 -1.9202  1.9417
  489MOL0     H66003   7.382   3.862   4.081  2.5873 -1.2618  1.6964
  489MOL0     H66004   7.476   3.986   4.005 -0.5159 -2.6836  0.1244
  489MOL0     H66005   7.242   4.021   3.939  3.6107  1.3899 -1.0786
  489MOL0     H66006   7.287   4.153   4.041 -2.3471  1.0432  2.2279
  489MOL0     H66007   7.056   4.066   4.121 -0.0120  0.0642  0.8690
  489MOL0     H66008   7.170   4.055   4.247  0.8852 -0.2277 -0.9803
  489MOL0     H66009   7.002   3.871   4.170 -0.3509 -0.9008 -1.2921
  489MOL0     H66010   7.113   3.829   4.052  2.7579 -1.2069  1.1182
  489MOL0     H66011   7.322   3.630   4.356  0.0656 -0.4952 -0.2718
  489MOL0     H66012   7.597   3.808   4.154  2.9889  2.0280 -2.5217
  489MOL0     H66013   7.890   3.780   4.177  0.8196  1.2746  1.3567
  489MOL0     H66014   7.910   3.687   4.320 -0.0654 -0.5948  0.2951
  489MOL0     H66015   7.767   3.661   4.216 -0.7888 -0.7185  3.6565
  490MOL0     O66016   6.973   0.852   1.630 -0.1643 -0.4213 -0.3308
  490MOL0     C66017   6.993   0.764   1.710  0.2739 -0.1892 -0.2613
  490MOL0     O66018   6.897   0.690   1.773 -0.0692 -0.5308 -0.8640
  490MOL0     C66019   6.771   0.693   1.725 -0.2717  0.1278  0.4791
  490MOL0     C66020   6.734   0.654   1.596  0.6146  0.0210  0.3898
  490MOL0     C66021   6.602   0.633   1.560  0.1211  0.7335 -0.5704
  490MOL0     C66022   6.501   0.669   1.648 -0.6925  0.1550 -0.0153
  490MOL0     O66023   6.365   0.667   1.627 -0.4337 -0.1001  0.1376
  490MOL0     C66024   6.319   0.675   1.492  0.4138  0.3353 -0.1481
  490MOL0     C66025   6.226   0.801   1.481  0.5451 -0.1664  0.6141
  490MOL0     C66026   6.154   0.796   1.349  0.3410  0.1120 -0.4671
  490MOL0     C66027   6.076   0.929   1.332  0.4621 -0.4780 -1.2428
  490MOL0     C66028   5.938   0.940   1.394  0.0585 -0.7643 -0.2966
  490MOL0     C66029   5.896   1.087   1.433  0.7220 -0.5837  0.1245
  490MOL0     C66030   5.770   1.088   1.525 -0.8654  0.2888 -0.1238
  490MOL0     C66031   5.702   1.228   1.527  0.1993  0.2091  0.9111
  490MOL0     N66032   5.799   1.323   1.591  0.1359 -0.1568  0.4634
  490MOL0     C66033   5.822   1.355   1.720 -0.6083  0.3010  0.4612
  490MOL0     C66034   5.917   1.455   1.721  0.3082  0.5056  0.3801
  490MOL0     C66035   5.988   1.519   1.834 -0.0316 -0.0135  0.8124
  490MOL0     C66036   5.930   1.653   1.875  0.5035  0.6381 -0.4363
  490MOL0     C66037   6.027   1.740   1.944 -0.2707 -0.2023  0.4874
  490MOL0     C66038   6.116   1.669   2.045 -1.3499  0.3382  0.0861
  490MOL0     O66039   6.173   1.779   2.117  0.4461  0.2162 -0.2210
  490MOL0     C66040   6.259   1.746   2.218 -0.8641 -0.5557  0.7628
  490MOL0     C66041   6.301   1.623   2.258 -0.4677 -0.3661 -0.4038
  490MOL0     C66042   6.377   1.599   2.368 -0.4085 -0.3584 -0.1715
  490MOL0     C66043   6.432   1.707   2.435  0.3838  0.7410 -0.2208
  490MOL0     C66044   6.499   1.683   2.564  0.0592 -0.4078 -0.8709
  490MOL0     O66045   6.593   1.589   2.578 -0.1332 -0.5137 -0.2234
  490MOL0     C66046   6.682   1.579   2.681 -0.1177  0.2442  0.2865
  490MOL0     C66047   6.798   1.512   2.652  0.2259 -0.3748  0.9486
  490MOL0     C66048   6.890   1.488   2.754 -0.0500  0.5402  0.7789
  490MOL0     C66049   6.873   1.541   2.881  0.7713  0.8631 -0.9275
  490MOL0     O66050   6.940   1.489   2.993 -0.4294  0.0942  0.2263
  490MOL0     C66051   6.983   1.348   2.989 -0.0699  0.2302 -0.6367
  490MOL0     C66052   7.064   1.330   3.108 -0.4830 -0.1868  0.4041
  490MOL0     C66053   7.096   1.184   3.130  0.2398  0.4607 -1.0863
  490MOL0     C66054   7.177   1.172   3.258  1.0957  0.8068 -0.0630
  490MOL0     C66055   7.319   1.230   3.238 -0.5088 -1.0458  0.0146
  490MOL0     C66056   7.442   1.192   3.331 -0.0180  0.1733 -0.0665
  490MOL0     C66057   7.572   1.277   3.298 -0.4639 -0.0449 -0.1655
  490MOL0     C66058   7.680   1.187   3.233 -0.0567 -0.5218  0.4162
  490MOL0    Cl66059   7.620   1.152   3.062 -0.0985 -0.3972  0.0999
  490MOL0     C66060   6.771   1.621   2.903 -0.0562  0.0306 -0.4751
  490MOL0     C66061   6.672   1.642   2.806  0.1035 -0.1911  0.1848
  490MOL0     O66062   6.460   1.765   2.648  0.8968 -0.2318  0.9090
  490MOL0     C66063   6.401   1.839   2.396  0.0406  0.3634  0.3669
  490MOL0     C66064   6.319   1.861   2.283  0.3808 -0.1718  0.3161
  490MOL0     N66065   5.953   1.485   1.591  0.0685 -0.0562  0.7923
  490MOL0     N66066   5.873   1.417   1.513 -0.0312  0.6415 -0.3322
  490MOL0     C66067   6.534   0.728   1.767 -0.5982  0.6879 -0.1237
  490MOL0     C66068   6.665   0.736   1.804  0.5506 -0.1133 -0.5046
  490MOL0     C66069   7.129   0.742   1.749  0.1541  0.0792 -0.3166
  490MOL0     C66070   7.217   0.854   1.746 -0.6696  0.2217  0.8010
  490MOL0     C66071   7.346   0.840   1.792 -0.1046  0.2357 -0.5972
  490MOL0     C66072   7.408   0.714   1.818 -0.2073  0.1812  0.5997
  490MOL0     O66073   7.542   0.711   1.861 -0.0714 -0.7934 -0.2688
  490MOL0     C66074   7.616   0.593   1.840 -0.1094  0.5699  0.6184
  490MOL0     C66075   7.709   0.572   1.960  0.0431  0.0671 -0.5421
  490MOL0     C66076   7.631   0.541   2.091 -0.3197  0.0776  0.1153
  490MOL0     C66077   7.722   0.478   2.197 -0.2735  0.2239  0.1571
  490MOL0     C66078   7.816   0.579   2.254  0.3811  0.3395  0.2463
  490MOL0     C66079   7.894   0.662   2.313  0.1999 -0.1170 -0.2575
  490MOL0     C66080   7.321   0.609   1.820 -0.0862 -0.0550  0.3443
  490MOL0     C66081   7.182   0.620   1.791 -0.0034 -0.3324  1.0876
  490MOL0     C66082   7.094   0.498   1.787 -0.5750 -0.0931 -0.2291
  490MOL0     H66083   6.811   0.624   1.526 -0.9847 -2.1111 -0.5855
  490MOL0     H66084   6.571   0.577   1.472 -0.6287  0.7394 -0.3200
  490MOL0     H66085   6.405   0.694   1.428 -0.7821 -1.0473 -2.2802
  490MOL0     H66086   6.278   0.578   1.462  2.9651 -1.1788  0.9265
  490MOL0     H66087   6.292   0.888   1.478 -1.8908  1.7708 -2.0155
  490MOL0     H66088   6.153   0.797   1.562 -0.6139  0.1248 -0.3965
  490MOL0     H66089   6.079   0.716   1.346  0.1772  0.1893  0.8307
  490MOL0     H66090   6.232   0.776   1.275  1.2051 -1.4941  0.8277
  490MOL0     H66091   6.137   1.008   1.375 -0.3618 -1.5709  2.2590
  490MOL0     H66092   6.072   0.928   1.223 -1.4815 -1.7048 -1.2132
  490MOL0     H66093   5.868   0.895   1.322 -0.4137 -1.6323  0.6722
  490MOL0     H66094   5.936   0.877   1.484 -2.0033 -1.0086 -0.4517
  490MOL0     H66095   5.980   1.145   1.472  0.5597 -0.4153  0.2334
  490MOL0     H66096   5.871   1.131   1.336  1.6568 -1.9821 -0.7855
  490MOL0     H66097   5.784   1.069   1.632  1.1590 -0.2893 -0.4603
  490MOL0     H66098   5.688   1.026   1.486  0.0110 -0.2205 -1.1789
  490MOL0     H66099   5.677   1.262   1.426 -2.0019  0.3109  1.4260
  490MOL0     H66100   5.610   1.223   1.587  0.5568 -2.5466  1.3588
  490MOL0     H66101   5.791   1.295   1.805 -1.0675  0.8877  0.7103
  490MOL0     H66102   5.984   1.452   1.920  0.1681 -0.9547  0.1132
  490MOL0     H66103   6.091   1.542   1.805  0.5699  0.0929  2.8778
  490MOL0     H66104   5.905   1.699   1.779  3.3306  2.5440 -0.3911
  490MOL0     H66105   5.845   1.630   1.941  2.3265 -2.2117  1.1410
  490MOL0     H66106   5.972   1.825   1.986 -1.0067 -0.7659  0.6710
  490MOL0     H66107   6.091   1.779   1.864 -1.1636  1.9824  0.7499
  490MOL0     H66108   6.194   1.609   1.996 -1.3133  1.2320 -1.0049
  490MOL0     H66109   6.063   1.604   2.115  1.7296 -1.8708  0.5836
  490MOL0     H66110   6.261   1.529   2.220 -0.4734 -0.0319 -1.2622
  490MOL0     H66111   6.400   1.493   2.379 -1.6172 -1.1560 -3.8577
  490MOL0     H66112   6.795   1.464   2.554 -3.6938 -1.5223  1.4710
  490MOL0     H66113   6.969   1.416   2.735  0.3046  1.6039 -2.3953
  490MOL0     H66114   6.897   1.280   2.989 -0.8923  0.8541  4.3483
  490MOL0     H66115   7.055   1.332   2.909  0.7820  0.8332 -0.0143
  490MOL0     H66116   7.156   1.386   3.088 -1.8164  3.5398  3.3782
  490MOL0     H66117   7.009   1.367   3.195 -1.1772 -2.1636  0.8654
  490MOL0     H66118   7.005   1.123   3.128  2.3522 -2.9794 -2.5575
  490MOL0     H66119   7.157   1.141   3.049 -1.8845  0.1093 -2.5730
  490MOL0     H66120   7.175   1.072   3.302  0.8288  0.5527 -0.6533
  490MOL0     H66121   7.118   1.237   3.324 -0.6666  0.3425 -1.1246
  490MOL0     H66122   7.319   1.340   3.243  3.7175 -0.8198 -1.1414
  490MOL0     H66123   7.352   1.211   3.135  1.3928  1.2454  0.0882
  490MOL0     H66124   7.411   1.218   3.432 -0.4714 -3.3676  0.8277
  490MOL0     H66125   7.448   1.083   3.328 -0.7577  0.0207  2.3199
  490MOL0     H66126   7.619   1.306   3.392  1.6855 -2.1132 -0.5050
  490MOL0     H66127   7.566   1.361   3.229  0.9854 -0.7665 -1.2359
  490MOL0     H66128   7.775   1.242   3.227 -0.6865  0.4720 -0.7903
  490MOL0     H66129   7.700   1.092   3.284  1.0360  0.5711  2.1621
  490MOL0     H66130   6.753   1.659   3.003  1.9807  0.7999 -0.3431
  490MOL0     H66131   6.581   1.694   2.833 -0.7984 -1.0950 -0.9862
  490MOL0     H66132   6.439   1.932   2.439  3.3496  1.8291 -4.7455
  490MOL0     H66133   6.284   1.960   2.258  0.6622 -0.6331 -2.1165
  490MOL0     H66134   6.473   0.783   1.838 -2.3232 -0.8675 -0.3238
  490MOL0     H66135   6.695   0.768   1.903  1.5467  0.5362 -0.9932
  490MOL0     H66136   7.171   0.951   1.728  2.5421  1.4491 -1.8019
  490MOL0     H66137   7.408   0.929   1.800  0.2480 -0.0871  0.4178
  490MOL0     H66138   7.674   0.612   1.749 -3.7602  1.2731 -1.7970
  490MOL0     H66139   7.553   0.507   1.814 -0.3681  1.3976 -1.7627
  490MOL0     H66140   7.767   0.664   1.960  1.0500 -0.3713 -4.5243
  490MOL0     H66141   7.769   0.487   1.927  0.8855  0.5318 -0.2309
  490MOL0     H66142   7.554   0.467   2.070  1.0991 -1.0284 -1.4216
  490MOL0     H66143   7.578   0.632   2.122  1.4868  1.0133  0.5847
  490MOL0     H66144   7.670   0.412   2.267  1.1000 -0.8257  0.2258
  490MOL0     H66145   7.788   0.409   2.143 -0.2146  1.1063 -0.9395
  490MOL0     H66146   7.964   0.726   2.363 -0.7324 -0.3416  1.3983
  490MOL0     H66147   7.358   0.516   1.864 -1.4930 -0.9145 -0.2145
  490MOL0     H66148   7.158   0.411   1.773  2.6718  2.3009 -1.6369
  490MOL0     H66149   7.032   0.487   1.877 -0.3791 -1.6792 -0.2667
  490MOL0     H66150   7.033   0.504   1.696  0.3840 -0.5708 -0.9129
  491MOL0     O66151   3.290   5.713   5.452 -0.1625 -0.3490  0.7919
  491MOL0     C66152   3.314   5.752   5.338 -0.1004  0.5817  0.5337
  491MOL0     O66153   3.440   5.752   5.280  0.7274  0.0402  0.9176
  491MOL0     C66154   3.552   5.705   5.342 -0.4458  0.4161 -0.0026
  491MOL0     C66155   3.556   5.585   5.408 -0.2327  0.4534 -0.6117
  491MOL0     C66156   3.671   5.549   5.468  0.0090  0.0642  1.4474
  491MOL0     C66157   3.787   5.622   5.463  0.7221 -0.1425 -0.1172
  491MOL0     O66158   3.886   5.563   5.536 -0.0655  0.1080 -0.2466
  491MOL0     C66159   4.000   5.650   5.558  0.8580  0.2131  0.9831
  491MOL0     C66160   4.120   5.561   5.623  0.2681  0.0828  0.2776
  491MOL0     C66161   4.234   5.662   5.655 -0.4354  0.9821  0.2065
  491MOL0     C66162   4.356   5.578   5.707 -0.5470 -0.3434  0.1632
  491MOL0     C66163   4.476   5.668   5.731  0.1313 -0.2840 -0.7613
  491MOL0     C66164   4.593   5.597   5.792 -0.0463  0.7093  0.5352
  491MOL0     C66165   4.718   5.688   5.813 -0.5221  0.5777 -0.6762
  491MOL0     C66166   4.828   5.615   5.887  0.1339 -0.3108  0.4848
  491MOL0     N66167   4.957   5.622   5.818 -0.2899 -0.0757  0.1277
  491MOL0     C66168   5.046   5.730   5.809  0.7715 -0.5077 -0.0597
  491MOL0     C66169   5.153   5.675   5.746  0.1349  0.6399 -1.0607
  491MOL0     C66170   5.297   5.732   5.730 -0.1908  0.5407  0.1896
  491MOL0     C66171   5.316   5.753   5.575  0.2729  0.3489 -0.4807
  491MOL0     C66172   5.451   5.811   5.547 -0.0987  0.3905 -0.1977
  491MOL0     C66173   5.489   5.823   5.393  0.4686 -0.6455 -0.5694
  491MOL0     O66174   5.597   5.741   5.354  0.0456  0.0690  0.3072
  491MOL0     C66175   5.727   5.795   5.357 -0.5756  0.9379  0.5478
  491MOL0     C66176   5.769   5.922   5.392 -0.4463 -0.1445 -0.5788
  491MOL0     C66177   5.904   5.955   5.411 -0.0345 -0.6525  0.5625
  491MOL0     C66178   6.000   5.865   5.385 -0.1467  0.3262 -0.2848
  491MOL0     C66179   6.144   5.887   5.410 -0.5380 -0.2850 -0.0323
  491MOL0     O66180   6.238   5.792   5.361 -0.1636 -0.2224 -0.1641
  491MOL0     C66181   6.365   5.811   5.408  0.1283  0.0933 -0.0009
  491MOL0     C66182   6.410   5.763   5.533 -0.2932  0.6768  0.2992
  491MOL0     C66183   6.531   5.809   5.575 -0.7633  0.4500  0.5798
  491MOL0     C66184   6.631   5.879   5.509  0.3753  0.7951  0.6103
  491MOL0     O66185   6.757   5.895   5.561 -0.2083 -0.2189 -0.4018
  491MOL0     C66186   6.857   5.925   5.461 -0.1696 -0.3846  0.5275
  491MOL0     C66187   6.997   5.934   5.521  0.0350 -0.5044 -0.1411
  491MOL0     C66188   7.016   6.040   5.626  0.0803 -0.2757 -0.1317
  491MOL0     C66189   7.142   6.117   5.600 -0.0540 -0.0633 -0.6777
  491MOL0     C66190   7.171   6.218   5.719  0.1329  0.2254 -0.1654
  491MOL0     C66191   7.291   6.307   5.689 -1.1664  0.1387  0.3129
  491MOL0     C66192   7.417   6.232   5.647  0.5329 -0.4854  0.0351
  491MOL0     C66193   7.556   6.300   5.657  0.2883 -0.4774  0.7166
  491MOL0    Cl66194   7.599   6.419   5.521 -0.1675 -0.0543 -0.6383
  491MOL0     C66195   6.582   5.928   5.384 -0.3224  0.4581  0.4628
  491MOL0     C66196   6.454   5.894   5.337 -0.1039  0.0499 -1.0011
  491MOL0     O66197   6.169   5.990   5.475  0.8490  0.0319 -0.5689
  491MOL0     C66198   5.962   5.738   5.332  0.5552 -0.8020  0.8679
  491MOL0     C66199   5.823   5.707   5.322  0.0515  0.9163  0.1186
  491MOL0     N66200   5.120   5.544   5.710 -0.0195  0.4177  0.5930
  491MOL0     N66201   5.004   5.514   5.746  0.4697  0.6239 -0.6962
  491MOL0     C66202   3.789   5.732   5.383 -0.0059 -0.0841  0.0665
  491MOL0     C66203   3.672   5.776   5.316  0.0765  0.2808 -0.3491
  491MOL0     C66204   3.225   5.815   5.240 -1.0090  0.7454  1.3503
  491MOL0     C66205   3.253   5.794   5.099 -0.0986 -0.4417  0.7255
  491MOL0     C66206   3.181   5.853   4.996  0.3870  0.7863  0.4506
  491MOL0     C66207   3.077   5.939   5.035  0.0935  0.4036 -0.3986
  491MOL0     O66208   3.012   6.001   4.941  0.3341  0.0042  0.1300
  491MOL0     C66209   2.935   6.124   4.958  0.5525 -0.0147 -0.0877
  491MOL0     C66210   3.016   6.245   5.008 -0.2370 -1.1221 -0.4475
  491MOL0     C66211   2.945   6.319   5.117 -0.5965  1.3909  0.6822
  491MOL0     C66212   3.040   6.407   5.203 -0.8758 -0.0073  0.1255
  491MOL0     C66213   3.121   6.335   5.306 -0.1988 -0.5630 -0.0590
  491MOL0     C66214   3.178   6.272   5.391 -0.4856 -0.7938  0.5765
  491MOL0     C66215   3.041   5.960   5.167  0.4019  0.3867  0.6038
  491MOL0     C66216   3.113   5.896   5.270 -0.6983  0.0258 -0.9748
  491MOL0     C66217   3.084   5.939   5.414 -0.2035  0.0838 -0.0089
  491MOL0     H66218   3.462   5.531   5.420 -1.5378  2.4771 -1.1065
  491MOL0     H66219   3.672   5.455   5.522 -3.3915 -1.1364 -0.2926
  491MOL0     H66220   4.038   5.683   5.461 -2.4235  1.5541  0.0247
  491MOL0     H66221   3.978   5.738   5.618  0.3867 -0.4058  1.7293
  491MOL0     H66222   4.160   5.477   5.565  0.1585 -0.1805  0.5792
  491MOL0     H66223   4.092   5.506   5.713 -2.5082 -0.5846 -0.8749
  491MOL0     H66224   4.212   5.729   5.739  0.3071  1.5484 -0.0334
  491MOL0     H66225   4.273   5.716   5.568  0.8911 -2.4189 -1.4874
  491MOL0     H66226   4.325   5.520   5.795  1.0977 -1.4662  0.0535
  491MOL0     H66227   4.384   5.501   5.635  0.3687  0.2233 -0.0957
  491MOL0     H66228   4.508   5.709   5.634 -1.3939  1.3147 -0.6395
  491MOL0     H66229   4.452   5.755   5.792  1.4847 -0.7422  0.4670
  491MOL0     H66230   4.555   5.550   5.883  0.6870 -1.3578 -0.1661
  491MOL0     H66231   4.607   5.511   5.726 -1.7617 -0.6669  1.8666
  491MOL0     H66232   4.699   5.781   5.867 -0.2521 -0.0246  0.4841
  491MOL0     H66233   4.746   5.704   5.709  0.2429  0.8974 -0.4258
  491MOL0     H66234   4.833   5.658   5.988  1.3501  1.2470 -0.1923
  491MOL0     H66235   4.797   5.511   5.893 -1.8340 -0.0698 -3.1467
  491MOL0     H66236   5.044   5.830   5.851 -5.1909  0.0475 -0.8717
  491MOL0     H66237   5.311   5.828   5.780 -0.7827  1.4904 -1.3886
  491MOL0     H66238   5.372   5.660   5.764  0.7126  2.1500  1.7379
  491MOL0     H66239   5.306   5.652   5.533  1.1510 -0.0195  0.1499
  491MOL0     H66240   5.237   5.816   5.533  1.2651  0.0314 -3.0242
  491MOL0     H66241   5.528   5.745   5.588  1.3125  1.6879 -0.6665
  491MOL0     H66242   5.465   5.902   5.607  2.9329 -1.3141  1.9669
  491MOL0     H66243   5.498   5.928   5.364  1.0657 -0.9547 -1.5443
  491MOL0     H66244   5.403   5.794   5.332 -0.1780  3.7226 -2.1133
  491MOL0     H66245   5.690   5.995   5.406 -3.0530 -2.6101 -1.3723
  491MOL0     H66246   5.924   6.056   5.445 -1.1178 -0.4871  0.7734
  491MOL0     H66247   6.353   5.685   5.581  0.1095  0.3904  0.3253
  491MOL0     H66248   6.566   5.769   5.670 -0.9318  2.0377  1.3648
  491MOL0     H66249   6.858   5.845   5.386 -2.1705 -2.0343  2.1558
  491MOL0     H66250   6.822   6.018   5.414 -0.9737  0.3208  2.4226
  491MOL0     H66251   7.013   5.837   5.570  2.0429  0.7100  1.7558
  491MOL0     H66252   7.065   5.952   5.437 -0.0845 -2.1426 -0.6239
  491MOL0     H66253   6.935   6.114   5.621 -1.4272 -1.8818 -0.4784
  491MOL0     H66254   7.019   6.005   5.730 -1.7226 -1.2842 -0.3889
  491MOL0     H66255   7.123   6.179   5.512  2.4966  0.1406 -1.1464
  491MOL0     H66256   7.219   6.042   5.582  1.4122  0.7429  1.7356
  491MOL0     H66257   7.180   6.166   5.815  0.4653  1.5531  0.5418
  491MOL0     H66258   7.078   6.276   5.718 -0.2045 -0.2909  0.4471
  491MOL0     H66259   7.260   6.381   5.614  1.6951  0.8534 -0.2841
  491MOL0     H66260   7.315   6.366   5.777  0.5196 -0.4514  0.2832
  491MOL0     H66261   7.410   6.201   5.542  0.9092  0.7438 -0.3638
  491MOL0     H66262   7.432   6.144   5.711  0.2250  0.2398  1.1294
  491MOL0     H66263   7.567   6.360   5.748 -0.6567  0.7671  0.0506
  491MOL0     H66264   7.637   6.227   5.661 -0.1332 -1.2792 -2.6914
  491MOL0     H66265   6.647   5.975   5.311 -0.2471  0.3616  0.4680
  491MOL0     H66266   6.440   5.927   5.234 -2.7951  0.0252 -0.7321
  491MOL0     H66267   6.035   5.663   5.305  2.6125  1.4074 -0.1152
  491MOL0     H66268   5.802   5.610   5.279  2.5390 -0.5904  1.9899
  491MOL0     H66269   3.877   5.791   5.362 -1.1896  2.1881  1.0914
  491MOL0     H66270   3.669   5.867   5.257  0.0398  0.6619  0.2304
  491MOL0     H66271   3.335   5.733   5.063  0.6157  0.4258  0.8556
  491MOL0     H66272   3.182   5.827   4.891 -1.4678 -2.7524  1.1436
  491MOL0     H66273   2.856   6.083   5.022  0.8998 -1.3308 -0.4680
  491MOL0     H66274   2.879   6.147   4.866  1.5779  1.8128 -0.3046
  491MOL0     H66275   3.053   6.310   4.929  0.2893 -0.1904  0.5413
  491MOL0     H66276   3.109   6.206   5.050  0.4956  0.6395 -0.3911
  491MOL0     H66277   2.889   6.252   5.184 -1.6829 -1.3566 -2.6824
  491MOL0     H66278   2.868   6.374   5.063 -2.7397 -0.2399  1.8702
  491MOL0     H66279   3.112   6.455   5.135 -1.0320  0.0228 -0.0202
  491MOL0     H66280   2.997   6.496   5.248  1.3571  0.2890  1.8051
  491MOL0     H66281   3.230   6.219   5.468 -0.9345 -1.6770  0.2903
  491MOL0     H66282   2.961   6.027   5.197  1.7670  3.0545 -1.2388
  491MOL0     H66283   3.029   6.034   5.415 -0.9036 -0.2951  1.8752
  491MOL0     H66284   3.020   5.860   5.455  3.0551 -3.3805 -1.1008
  491MOL0     H66285   3.168   5.943   5.484 -0.1073  1.7398 -0.1748
  492MOL0     O66286   9.979   9.791   1.101  0.3994 -0.6573  0.3736
  492MOL0     C66287  10.007   9.675   1.064 -0.3284 -0.5525 -0.3938
  492MOL0     O66288  10.139   9.625   1.072  0.5916  0.0975 -0.3003
  492MOL0     C66289  10.234   9.703   1.127  0.2226 -0.2791 -0.0980
  492MOL0     C66290  10.268   9.814   1.064 -0.6493  0.1486 -0.2322
  492MOL0     C66291  10.381   9.886   1.107 -0.5017 -0.3167  0.4520
  492MOL0     C66292  10.459   9.847   1.214 -0.1437  0.3257  1.0751
  492MOL0     O66293  10.578   9.905   1.241 -0.2374  0.4993  0.3339
  492MOL0     C66294  10.581  10.049   1.219 -0.0285 -0.8918  0.4354
  492MOL0     C66295  10.665  10.102   1.328  0.0141 -0.3378  0.2934
  492MOL0     C66296  10.789  10.018   1.356 -0.8541  0.1829 -0.1223
  492MOL0     C66297  10.905  10.103   1.417 -0.3319 -0.3027  0.5596
  492MOL0     C66298  11.020  10.024   1.457 -0.3906 -0.5498 -0.0755
  492MOL0     C66299  11.145  10.097   1.483 -0.2994 -0.5904 -0.4113
  492MOL0     C66300  11.147  10.191   1.609  0.3190  0.7557 -0.0618
  492MOL0     C66301  11.284  10.179   1.675  0.0805 -0.8653 -0.5498
  492MOL0     N66302  11.393  10.259   1.613  0.0697  0.1082 -0.7631
  492MOL0     C66303  11.499  10.200   1.555 -0.3118  0.2552 -0.9146
  492MOL0     C66304  11.563  10.309   1.505  0.7555  0.4115  0.4739
  492MOL0     C66305  11.685  10.313   1.417 -0.6022 -0.2977 -0.6243
  492MOL0     C66306  11.658  10.303   1.271 -0.3261 -0.7111  0.2200
  492MOL0     C66307  11.755  10.374   1.180  0.3610  0.5748 -0.1152
  492MOL0     C66308  11.887  10.305   1.184  0.7841  0.5980 -0.3327
  492MOL0     O66309  11.968  10.364   1.081 -0.0947 -0.1242 -0.5898
  492MOL0     C66310  12.096  10.316   1.046 -0.3295 -0.4612 -0.1834
  492MOL0     C66311  12.157  10.381   0.932 -0.9701  0.2540 -0.4612
  492MOL0     C66312  12.286  10.347   0.899  0.1638  0.2119  1.3917
  492MOL0     C66313  12.353  10.234   0.961  0.3427  0.6184 -0.3361
  492MOL0     C66314  12.489  10.199   0.932 -0.6366 -0.5973  0.0326
  492MOL0     O66315  12.548  10.129   1.014  0.4834 -0.2008  0.3138
  492MOL0     C66316  12.681  10.103   1.006 -0.0770  0.3640 -0.0672
  492MOL0     C66317  12.733  10.000   0.914 -0.2849 -0.1985 -0.0270
  492MOL0     C66318  12.873   9.992   0.914 -0.7952  0.6767 -0.8053
  492MOL0     C66319  12.967  10.068   1.002  0.0903  0.1089  0.2439
  492MOL0     O66320  13.099  10.054   1.012 -0.1153 -0.0342  0.1678
  492MOL0     C66321  13.173   9.938   0.963 -0.2655 -0.0505 -0.2554
  492MOL0     C66322  13.239   9.869   1.086  0.5753 -0.6002  0.8892
  492MOL0     C66323  13.350   9.961   1.138 -0.7156  0.0357  0.0618
  492MOL0     C66324  13.478   9.973   1.056  0.0706 -0.2168 -0.4948
  492MOL0     C66325  13.598  10.040   1.127 -0.0515  0.0403 -0.1042
  492MOL0     C66326  13.675   9.936   1.210  0.3241  0.2032  0.7432
  492MOL0     C66327  13.783   9.993   1.293  0.2053  0.1367 -0.4523
  492MOL0     C66328  13.910  10.010   1.214 -0.8395 -1.1517 -0.0749
  492MOL0    Cl66329  14.005  10.123   1.314  0.2871  0.1249  0.0770
  492MOL0     C66330  12.908  10.161   1.085 -0.7152  0.0762  0.9919
  492MOL0     C66331  12.770  10.186   1.089 -0.1185  0.4451  0.2650
  492MOL0     O66332  12.538  10.259   0.836 -0.0457  0.3749  0.6594
  492MOL0     C66333  12.278  10.164   1.062 -0.5743  0.6153  0.6132
  492MOL0     C66334  12.160  10.206   1.113  0.4984 -0.5132 -0.1614
  492MOL0     N66335  11.501  10.428   1.546  0.1583 -0.0684  0.4869
  492MOL0     N66336  11.393  10.396   1.603  0.3448 -0.8408 -0.5550
  492MOL0     C66337  10.428   9.727   1.279  0.0618 -0.3048 -0.6494
  492MOL0     C66338  10.308   9.658   1.235 -0.2907 -0.1886  0.0924
  492MOL0     C66339   9.892   9.581   1.041 -0.3253 -0.0771  0.3837
  492MOL0     C66340   9.765   9.636   1.033  0.0751 -0.4224  0.1793
  492MOL0     C66341   9.654   9.555   1.016  0.8731  0.4331  0.7827
  492MOL0     C66342   9.671   9.423   0.969 -0.8006  0.1616  0.6785
  492MOL0     O66343   9.573   9.351   0.909  0.8349  0.0676 -0.1696
  492MOL0     C66344   9.438   9.370   0.943 -0.4398  0.1044  0.2917
  492MOL0     C66345   9.372   9.245   0.892 -0.1052  0.5221  0.3816
  492MOL0     C66346   9.220   9.241   0.923  0.3853  0.7604 -0.6768
  492MOL0     C66347   9.138   9.340   0.840 -0.2773  0.1442  0.8332
  492MOL0     C66348   9.171   9.328   0.696  0.5274 -0.0930  0.9300
  492MOL0     C66349   9.187   9.320   0.577 -0.1447 -0.0371  1.0230
  492MOL0     C66350   9.800   9.371   0.965 -0.0909 -0.1067 -0.5384
  492MOL0     C66351   9.910   9.447   1.002  0.3985  0.9883 -0.0703
  492MOL0     C66352  10.040   9.370   0.981 -0.1920 -0.0694  0.0736
  492MOL0     H66353  10.205   9.848   0.982 -2.2750  5.2658  2.6847
  492MOL0     H66354  10.405   9.975   1.051  0.1164 -0.7470  0.0203
  492MOL0     H66355  10.642  10.072   1.131 -3.1070 -3.1646 -2.5695
  492MOL0     H66356  10.485  10.102   1.210 -0.6257 -1.8233  1.1130
  492MOL0     H66357  10.608  10.112   1.421 -0.0144 -0.8416  0.3282
  492MOL0     H66358  10.695  10.203   1.299  1.1839 -1.0537 -1.0881
  492MOL0     H66359  10.826   9.981   1.260  1.0752  0.9843  0.2613
  492MOL0     H66360  10.768   9.930   1.417 -1.3964  1.5716  1.7853
  492MOL0     H66361  10.939  10.176   1.343  3.3565  0.3384  2.6525
  492MOL0     H66362  10.863  10.160   1.500 -2.1242 -1.2122  0.3193
  492MOL0     H66363  10.991   9.960   1.541  0.3215 -1.6818 -0.6711
  492MOL0     H66364  11.032   9.953   1.374 -1.5317 -1.8190  0.7974
  492MOL0     H66365  11.223  10.021   1.490  0.7252  0.4786  0.0611
  492MOL0     H66366  11.159  10.156   1.391 -0.1378 -0.5633 -0.3692
  492MOL0     H66367  11.071  10.157   1.680  0.0331  0.4355 -0.5154
  492MOL0     H66368  11.127  10.296   1.588  0.9194  1.3498  2.0604
  492MOL0     H66369  11.275  10.214   1.778 -1.1576 -1.3652 -0.4653
  492MOL0     H66370  11.307  10.073   1.688 -3.0536 -1.8225 -1.7123
  492MOL0     H66371  11.531  10.097   1.553  0.8645  0.6225 -2.3314
  492MOL0     H66372  11.725  10.410   1.447  2.5089 -1.8901  0.8328
  492MOL0     H66373  11.759  10.243   1.457 -1.0315  0.3827  1.5016
  492MOL0     H66374  11.650  10.197   1.246  0.4060 -0.2969 -2.0083
  492MOL0     H66375  11.558  10.344   1.255  1.0539  3.7530  1.5330
  492MOL0     H66376  11.775  10.474   1.220 -2.1858 -0.5047  4.5907
  492MOL0     H66377  11.722  10.367   1.076  1.8759 -1.8488 -0.5229
  492MOL0     H66378  11.879  10.197   1.166 -0.0979  0.4615  0.7554
  492MOL0     H66379  11.931  10.305   1.283  1.6963  1.6083 -0.7257
  492MOL0     H66380  12.092  10.453   0.882 -0.5990  0.9542  0.0439
  492MOL0     H66381  12.339  10.395   0.818 -0.7768 -1.6675 -0.4387
  492MOL0     H66382  12.673   9.938   0.848 -0.4869  1.0371 -1.0452
  492MOL0     H66383  12.920   9.913   0.856  0.2493 -0.9117  2.0304
  492MOL0     H66384  13.121   9.878   0.889 -0.5271  1.3175 -1.2213
  492MOL0     H66385  13.249   9.989   0.903 -2.0538  4.2769  0.7220
  492MOL0     H66386  13.161   9.842   1.159 -4.9558 -0.2593 -4.1604
  492MOL0     H66387  13.288   9.780   1.045  1.2171 -0.2043  0.7959
  492MOL0     H66388  13.303  10.056   1.162 -0.9006  0.2417 -1.0805
  492MOL0     H66389  13.383   9.922   1.235 -0.3715 -0.2802 -0.1764
  492MOL0     H66390  13.451  10.035   0.970 -0.4009  1.2631  0.6726
  492MOL0     H66391  13.507   9.872   1.027  2.2663 -0.3502  1.7562
  492MOL0     H66392  13.557  10.113   1.198 -1.5765  1.3868 -2.2416
  492MOL0     H66393  13.662  10.090   1.054  1.3905 -0.1624  0.9653
  492MOL0     H66394  13.597   9.891   1.273 -1.3904 -3.1634 -3.3309
  492MOL0     H66395  13.718   9.863   1.141 -0.1173  1.9880 -1.5051
  492MOL0     H66396  13.806   9.924   1.375 -1.0363  0.2299 -0.0034
  492MOL0     H66397  13.764  10.084   1.351  1.4229 -0.9502  1.7856
  492MOL0     H66398  13.961   9.914   1.206 -1.0298 -1.1963 -0.8201
  492MOL0     H66399  13.899  10.057   1.116  1.6535 -0.2789  0.0077
  492MOL0     H66400  12.982  10.207   1.150 -0.3701  0.7697  0.1242
  492MOL0     H66401  12.737  10.265   1.156  2.8549  3.1194 -1.1477
  492MOL0     H66402  12.319  10.077   1.112 -1.1538 -0.1309 -0.2013
  492MOL0     H66403  12.124  10.138   1.190  3.2951 -3.2868 -1.0356
  492MOL0     H66404  10.506   9.688   1.344 -0.2620 -0.3498 -0.2837
  492MOL0     H66405  10.266   9.566   1.276 -1.2258 -1.2194 -2.8991
  492MOL0     H66406   9.755   9.742   1.054  0.6447 -0.2564 -0.3323
  492MOL0     H66407   9.557   9.602   1.029  1.0289  1.2159 -0.6472
  492MOL0     H66408   9.406   9.462   0.892  3.4236  0.0785 -2.6558
  492MOL0     H66409   9.432   9.379   1.051  0.6668  3.3481  0.1965
  492MOL0     H66410   9.421   9.160   0.940 -0.3629  0.3679  0.3740
  492MOL0     H66411   9.383   9.231   0.784 -1.4927 -2.2082  0.5057
  492MOL0     H66412   9.211   9.268   1.029  0.7043 -0.0990 -0.4253
  492MOL0     H66413   9.172   9.146   0.901  1.5539  0.6368 -2.9902
  492MOL0     H66414   9.031   9.327   0.859 -0.5368  0.0457 -0.6154
  492MOL0     H66415   9.160   9.438   0.883  3.3832 -0.3396  0.3674
  492MOL0     H66416   9.195   9.321   0.470  1.1693 -0.5634  1.0937
  492MOL0     H66417   9.801   9.269   0.928 -1.8171 -1.6195  3.0620
  492MOL0     H66418  10.024   9.265   0.954 -1.6226  0.0596  0.3452
  492MOL0     H66419  10.089   9.423   0.899 -0.0851 -1.4637 -0.7925
  492MOL0     H66420  10.100   9.375   1.073  1.2607  0.6032 -0.8672
  493MOL0     O66421   1.526   9.328   6.382  0.3501 -0.2916  0.3370
  493MOL0     C66422   1.496   9.346   6.259  0.1541  0.5352 -0.3468
  493MOL0     O66423   1.583   9.397   6.168  0.3897 -0.6632  0.3829
  493MOL0     C66424   1.713   9.401   6.167  0.0581 -0.0271 -0.2329
  493MOL0     C66425   1.781   9.294   6.230  0.4187 -0.3135 -0.8758
  493MOL0     C66426   1.913   9.310   6.251 -0.6998  0.2104  0.6801
  493MOL0     C66427   1.991   9.388   6.168 -0.0344  0.3611  0.0828
  493MOL0     O66428   2.127   9.383   6.191 -0.0667 -0.2433  0.9811
  493MOL0     C66429   2.214   9.452   6.108 -0.1864  0.0503 -0.3638
  493MOL0     C66430   2.357   9.398   6.128 -0.2905  0.1022  0.4880
  493MOL0     C66431   2.423   9.410   6.270 -0.4787 -1.0879  0.1410
  493MOL0     C66432   2.569   9.378   6.257  0.1960  0.0652  0.6619
  493MOL0     C66433   2.623   9.304   6.382 -0.1941 -0.7394 -0.8467
  493MOL0     C66434   2.641   9.383   6.511 -0.6524 -0.4261  0.5178
  493MOL0     C66435   2.734   9.314   6.609 -0.1842  0.2188 -0.0714
  493MOL0     C66436   2.732   9.402   6.741  0.0597  0.2852  0.1928
  493MOL0     N66437   2.793   9.533   6.716  0.4378  0.0829 -0.2801
  493MOL0     C66438   2.731   9.653   6.696  0.3042 -0.4898 -0.3931
  493MOL0     C66439   2.830   9.742   6.673 -0.9206  0.3510  0.3415
  493MOL0     C66440   2.812   9.887   6.623  0.0831  0.1307 -0.1224
  493MOL0     C66441   2.922   9.947   6.529 -0.1947  0.2141 -0.2053
  493MOL0     C66442   2.897  10.102   6.514 -0.2893 -0.7028 -0.3891
  493MOL0     C66443   3.031  10.161   6.497  0.0499 -0.4678  0.3297
  493MOL0     O66444   3.122  10.093   6.411  0.0094  0.2028 -0.5254
  493MOL0     C66445   3.249  10.130   6.415 -0.6653  0.5408 -0.3464
  493MOL0     C66446   3.288  10.253   6.465 -0.3153 -0.1914 -0.8707
  493MOL0     C66447   3.421  10.285   6.484  0.4534 -0.0243 -0.0066
  493MOL0     C66448   3.529  10.199   6.452  0.8704  0.8908 -0.3766
  493MOL0     C66449   3.666  10.218   6.495 -0.9199 -0.1141  1.3653
  493MOL0     O66450   3.756  10.132   6.429  0.5250  0.8769 -0.6713
  493MOL0     C66451   3.889  10.140   6.479 -0.7498  0.2661  0.3760
  493MOL0     C66452   3.982  10.247   6.471 -0.4520 -0.1608  0.5411
  493MOL0     C66453   4.118  10.236   6.526  1.6305 -0.7775 -0.7015
  493MOL0     C66454   4.159  10.112   6.583 -0.0087  0.0968  0.8620
  493MOL0     O66455   4.273  10.101   6.649 -0.0387 -0.0468  0.0357
  493MOL0     C66456   4.399  10.072   6.579 -0.2129  0.7208  1.0165
  493MOL0     C66457   4.442  10.194   6.507 -0.1114 -0.6864  0.6026
  493MOL0     C66458   4.585  10.170   6.446  0.6855  0.4328 -0.4619
  493MOL0     C66459   4.579  10.148   6.295 -0.4008 -0.5043  1.3800
  493MOL0     C66460   4.719  10.163   6.231  0.7166 -0.0586 -0.6442
  493MOL0     C66461   4.803  10.047   6.286 -0.2060  0.2731 -0.0880
  493MOL0     C66462   4.932  10.041   6.212 -0.6096  0.3102 -0.2539
  493MOL0     C66463   4.915   9.982   6.072  0.1678 -0.6955  0.0564
  493MOL0    Cl66464   5.074   9.970   5.978  0.2256 -0.8280  0.4392
  493MOL0     C66465   4.074  10.000   6.575 -0.1135  1.0052  0.2606
  493MOL0     C66466   3.938  10.021   6.531  0.0748  0.1261  0.2491
  493MOL0     O66467   3.696  10.313   6.561  0.1845 -0.8431  0.9312
  493MOL0     C66468   3.485  10.085   6.374 -1.0322  0.0143 -0.4151
  493MOL0     C66469   3.349  10.042   6.366 -0.0468  0.6796 -0.5296
  493MOL0     N66470   2.949   9.686   6.700  0.3638  0.3972 -0.5126
  493MOL0     N66471   2.927   9.560   6.709  0.4006  0.9513 -1.0840
  493MOL0     C66472   1.925   9.467   6.077 -0.0183  0.0093  0.0147
  493MOL0     C66473   1.784   9.482   6.085 -0.2786  0.3571  0.5380
  493MOL0     C66474   1.350   9.315   6.232  0.7152 -0.3429 -0.1174
  493MOL0     C66475   1.332   9.257   6.101 -0.9186  0.8135 -0.4975
  493MOL0     C66476   1.211   9.203   6.056  0.0311 -0.0514 -0.1838
  493MOL0     C66477   1.100   9.230   6.142  0.0814  0.6184 -0.0294
  493MOL0     O66478   0.973   9.192   6.092 -0.6989  0.6114  0.4799
  493MOL0     C66479   0.886   9.309   6.085 -0.3189 -0.1697 -0.4684
  493MOL0     C66480   0.898   9.378   5.951 -0.1912  0.1453  0.1463
  493MOL0     C66481   0.851   9.280   5.839  0.6296 -0.3551  0.4119
  493MOL0     C66482   0.894   9.357   5.710  0.3356  0.1681 -0.3398
  493MOL0     C66483   0.853   9.290   5.583 -0.5071  0.3904  0.2258
  493MOL0     C66484   0.810   9.223   5.496 -0.0370  0.3083  0.1628
  493MOL0     C66485   1.122   9.298   6.264  0.2980 -0.4272  0.3744
  493MOL0     C66486   1.240   9.337   6.310 -0.0956 -1.0572 -0.2612
  493MOL0     C66487   1.253   9.420   6.438 -0.0825 -0.3506 -0.5215
  493MOL0     H66488   1.713   9.220   6.270 -1.4490 -0.7251 -4.3612
  493MOL0     H66489   1.965   9.239   6.314 -1.0842 -0.5260  0.1765
  493MOL0     H66490   2.190   9.450   6.001 -0.0640  3.3012 -0.5498
  493MOL0     H66491   2.212   9.560   6.121 -2.7775  0.1705 -1.2060
  493MOL0     H66492   2.422   9.455   6.060  0.5063  0.7324  1.7559
  493MOL0     H66493   2.365   9.291   6.106  1.5250  0.3518 -0.2813
  493MOL0     H66494   2.377   9.351   6.350 -1.8077  1.5687  1.4713
  493MOL0     H66495   2.410   9.507   6.319  2.9134  0.6419 -2.0138
  493MOL0     H66496   2.592   9.315   6.170 -2.6235  0.1609 -0.2499
  493MOL0     H66497   2.625   9.468   6.233  4.1213 -0.8246  5.0765
  493MOL0     H66498   2.550   9.227   6.408 -2.5937  1.6628  0.1450
  493MOL0     H66499   2.721   9.260   6.362 -0.7705 -1.7934 -1.3857
  493MOL0     H66500   2.680   9.483   6.489 -1.2319 -0.4527 -0.7289
  493MOL0     H66501   2.543   9.397   6.558 -0.8171 -2.5856  0.9166
  493MOL0     H66502   2.836   9.302   6.573  0.3988  2.0670  0.8143
  493MOL0     H66503   2.683   9.218   6.619 -0.8223  0.3398 -1.7418
  493MOL0     H66504   2.628   9.424   6.768  0.2471  0.1963  1.0310
  493MOL0     H66505   2.778   9.345   6.822 -1.5471 -0.9956  0.2680
  493MOL0     H66506   2.623   9.664   6.687  0.3207  0.3142  0.3820
  493MOL0     H66507   2.718   9.903   6.570  1.6276  0.4871 -2.9055
  493MOL0     H66508   2.810   9.959   6.706  0.4298 -0.0384  0.0361
  493MOL0     H66509   3.014   9.918   6.582 -0.6367 -1.2421 -0.1830
  493MOL0     H66510   2.915   9.903   6.429  2.5904  1.9909 -1.2946
  493MOL0     H66511   2.837  10.157   6.588 -1.7146 -0.3519 -1.7603
  493MOL0     H66512   2.843  10.111   6.419 -2.2762 -0.8119  0.6700
  493MOL0     H66513   3.079  10.156   6.595 -0.9000  1.7148  0.9806
  493MOL0     H66514   3.014  10.267   6.475 -2.9294 -0.5841  1.5472
  493MOL0     H66515   3.213  10.325   6.496 -1.9556 -2.1093 -0.0983
  493MOL0     H66516   3.434  10.377   6.539 -0.9495  0.1107  0.1402
  493MOL0     H66517   3.961  10.336   6.412  0.4964 -0.0284  0.3879
  493MOL0     H66518   4.180  10.323   6.546 -1.4450  1.2221  0.9362
  493MOL0     H66519   4.478  10.052   6.652  0.6835  1.9330  0.4194
  493MOL0     H66520   4.398   9.991   6.505 -2.8099  0.8300  0.8290
  493MOL0     H66521   4.383  10.241   6.428 -0.5576 -1.1533  0.6543
  493MOL0     H66522   4.443  10.272   6.585 -1.1630  1.9542 -1.8479
  493MOL0     H66523   4.641  10.260   6.470 -0.7562  0.9343  1.2387
  493MOL0     H66524   4.618  10.077   6.495 -1.5996 -0.4651 -0.4870
  493MOL0     H66525   4.520  10.228   6.250  1.5922  1.0498  1.4008
  493MOL0     H66526   4.541  10.051   6.262  2.8786 -1.3880 -0.2564
  493MOL0     H66527   4.760  10.263   6.248 -0.6067  0.3596  0.1990
  493MOL0     H66528   4.705  10.156   6.123  1.8538 -0.2452 -0.7917
  493MOL0     H66529   4.830  10.055   6.392 -2.2942 -5.9952  1.3338
  493MOL0     H66530   4.746   9.954   6.281 -0.1218  0.1481  1.0069
  493MOL0     H66531   5.001   9.981   6.272  1.5352  3.1892  0.3708
  493MOL0     H66532   4.979  10.139   6.198 -1.3309  0.4176 -2.3976
  493MOL0     H66533   4.871   9.883   6.081  0.1148 -0.5740  1.4371
  493MOL0     H66534   4.851  10.049   6.014 -0.8460  0.8713  2.7686
  493MOL0     H66535   4.121   9.905   6.596  0.9353  1.8348  1.8248
  493MOL0     H66536   3.874   9.934   6.544 -0.2177  0.7300  4.1405
  493MOL0     H66537   3.560  10.021   6.329  1.9490  1.8535  1.5485
  493MOL0     H66538   3.338   9.949   6.311  1.5336  0.8741 -1.2265
  493MOL0     H66539   1.982   9.521   6.002 -2.0113  0.6807 -1.1284
  493MOL0     H66540   1.724   9.545   6.020  0.7868 -2.4445 -3.5643
  493MOL0     H66541   1.416   9.223   6.041 -0.2545 -0.5042  1.0931
  493MOL0     H66542   1.190   9.150   5.964  0.1362  1.1710 -0.9334
  493MOL0     H66543   0.905   9.380   6.166  1.6915 -0.3414 -0.7355
  493MOL0     H66544   0.784   9.274   6.104  0.6967 -1.8225  2.6146
  493MOL0     H66545   1.004   9.401   5.936  0.4436 -1.4052  1.8772
  493MOL0     H66546   0.832   9.466   5.946 -1.2225 -0.6336 -0.1331
  493MOL0     H66547   0.743   9.264   5.845 -0.6994  5.6407 -1.0184
  493MOL0     H66548   0.908   9.187   5.849 -1.3644 -1.5128  1.7425
  493MOL0     H66549   0.850   9.457   5.707  0.3443  0.1478 -1.6655
  493MOL0     H66550   1.003   9.365   5.704  0.4084  0.2237  0.8104
  493MOL0     H66551   0.765   9.168   5.416 -1.9796 -0.3691  1.6417
  493MOL0     H66552   1.040   9.308   6.334 -0.1084  1.6197 -0.3223
  493MOL0     H66553   1.309   9.360   6.512  0.3933 -1.3689 -1.6735
  493MOL0     H66554   1.314   9.510   6.425  0.0500 -0.0269  1.9146
  493MOL0     H66555   1.160   9.446   6.489 -0.9406  0.7079 -2.5459
  494MOL0     O66556   2.586   4.824   5.370 -0.1335  0.1260 -0.3744
  494MOL0     C66557   2.498   4.792   5.448  0.6308  0.1792  0.2996
  494MOL0     O66558   2.506   4.701   5.549  0.0031  0.7555  0.0377
  494MOL0     C66559   2.625   4.652   5.587  0.4272  0.2271 -0.3980
  494MOL0     C66560   2.735   4.736   5.608 -0.0044  0.3684  0.0460
  494MOL0     C66561   2.857   4.694   5.666  0.1486  0.5392 -0.4749
  494MOL0     C66562   2.860   4.571   5.724 -0.3884 -0.7208 -0.3516
  494MOL0     O66563   2.954   4.533   5.817 -0.5677  0.4893 -0.1139
  494MOL0     C66564   3.096   4.556   5.794 -0.3483  0.4740  0.1568
  494MOL0     C66565   3.159   4.444   5.709  0.3053 -0.2948  0.2217
  494MOL0     C66566   3.238   4.341   5.788 -0.4707 -0.4205 -0.1315
  494MOL0     C66567   3.327   4.259   5.696 -0.6134 -0.0384  1.0992
  494MOL0     C66568   3.254   4.129   5.644 -0.0512 -0.4581  0.4467
  494MOL0     C66569   3.319   4.063   5.527 -0.0084  0.1183 -0.1861
  494MOL0     C66570   3.230   3.954   5.474  1.4321  0.1088 -0.1334
  494MOL0     C66571   3.269   3.926   5.327 -0.2756  0.1593 -0.4154
  494MOL0     N66572   3.408   3.878   5.302 -0.5192 -0.2196  0.6211
  494MOL0     C66573   3.445   3.746   5.300 -0.3138 -0.2368  1.4371
  494MOL0     C66574   3.574   3.759   5.267 -0.3205  0.2623 -0.0039
  494MOL0     C66575   3.670   3.655   5.240  0.1429  0.4609  0.4356
  494MOL0     C66576   3.626   3.533   5.164  0.3329 -0.4353  0.1790
  494MOL0     C66577   3.743   3.445   5.119  0.3599  0.0087 -0.1001
  494MOL0     C66578   3.797   3.475   4.972 -0.5892  0.3199  0.5751
  494MOL0     O66579   3.920   3.390   4.959 -0.5202 -0.3785  0.3306
  494MOL0     C66580   4.042   3.442   4.936 -0.1948 -0.5567 -0.0264
  494MOL0     C66581   4.157   3.378   4.991  0.7257  0.4399  0.8943
  494MOL0     C66582   4.271   3.439   4.977 -0.5478  1.4319 -0.0625
  494MOL0     C66583   4.295   3.562   4.928  0.3452 -0.4214 -0.2344
  494MOL0     C66584   4.432   3.629   4.939 -0.0234  0.0844 -0.4215
  494MOL0     O66585   4.522   3.587   5.031 -0.0972 -0.5153  0.2137
  494MOL0     C66586   4.641   3.655   5.043  0.2899  0.3476  0.2043
  494MOL0     C66587   4.639   3.785   5.096  0.0877  0.1091 -0.9884
  494MOL0     C66588   4.764   3.846   5.126  0.5800 -0.9594  0.2891
  494MOL0     C66589   4.884   3.785   5.091  0.2668  0.2867 -0.0930
  494MOL0     O66590   4.991   3.855   5.135 -0.6925  0.2153  0.0940
  494MOL0     C66591   5.126   3.826   5.094  0.1221 -0.8385 -0.4507
  494MOL0     C66592   5.223   3.946   5.114  0.1591  0.7582 -0.3389
  494MOL0     C66593   5.208   4.066   5.016  0.3459 -0.1078 -0.4781
  494MOL0     C66594   5.219   4.016   4.874 -0.4153 -0.3823  0.8834
  494MOL0     C66595   5.227   4.129   4.775  0.1631 -0.4983 -0.0690
  494MOL0     C66596   5.356   4.212   4.767  0.3708 -0.1485  0.5165
  494MOL0     C66597   5.456   4.157   4.660  0.7273 -0.4004 -0.5467
  494MOL0     C66598   5.544   4.275   4.631 -1.1427  0.3542  0.8685
  494MOL0    Cl66599   5.670   4.230   4.512  0.2358  0.0111 -0.1272
  494MOL0     C66600   4.885   3.653   5.029  0.3508  0.1376 -0.2732
  494MOL0     C66601   4.761   3.597   5.010 -1.0948  0.6557  0.6897
  494MOL0     O66602   4.450   3.720   4.853  0.5358  0.4294 -0.3572
  494MOL0     C66603   4.185   3.620   4.861  0.2859 -0.4328 -0.4034
  494MOL0     C66604   4.064   3.560   4.861  0.3402  0.4540  0.1311
  494MOL0     N66605   3.612   3.888   5.267  0.6028  0.3598  0.6018
  494MOL0     N66606   3.518   3.956   5.295 -0.5064  0.0068  0.0991
  494MOL0     C66607   2.762   4.483   5.707 -0.4027 -0.4379  0.6029
  494MOL0     C66608   2.640   4.524   5.643 -0.2554 -0.9204 -0.0800
  494MOL0     C66609   2.365   4.853   5.435 -0.2176  0.4396  0.2106
  494MOL0     C66610   2.314   4.865   5.303  0.3129 -0.6268 -0.6341
  494MOL0     C66611   2.196   4.940   5.282 -0.0227 -0.2576  0.3401
  494MOL0     C66612   2.123   4.998   5.386 -0.6634  0.2010  0.3518
  494MOL0     O66613   2.015   5.080   5.370 -0.7257 -0.5059  0.4794
  494MOL0     C66614   2.039   5.196   5.288 -0.5656  0.8819  0.3537
  494MOL0     C66615   1.929   5.290   5.336 -0.5240  0.5731  0.4731
  494MOL0     C66616   1.914   5.288   5.493  0.1735  0.5793  0.0119
  494MOL0     C66617   1.812   5.386   5.551  0.3159 -0.4044 -0.1741
  494MOL0     C66618   1.814   5.389   5.693 -0.0139  0.7092 -0.3121
  494MOL0     C66619   1.812   5.393   5.820  0.7171 -0.1334 -0.0399
  494MOL0     C66620   2.175   4.987   5.512 -0.6109 -0.4339  0.0692
  494MOL0     C66621   2.293   4.914   5.545  0.1352  0.5467  0.1822
  494MOL0     C66622   2.349   4.911   5.680 -0.3086 -0.1285 -0.5409
  494MOL0     H66623   2.737   4.838   5.572  0.6243  0.8358  1.3591
  494MOL0     H66624   2.935   4.767   5.687 -0.2024  0.8675 -0.3172
  494MOL0     H66625   3.107   4.650   5.740  1.9026  0.5143  0.6101
  494MOL0     H66626   3.149   4.563   5.889  2.3885  1.9703 -1.3569
  494MOL0     H66627   3.222   4.501   5.640  0.3855 -0.1003  0.4538
  494MOL0     H66628   3.086   4.386   5.650 -0.7192 -1.4146  2.4485
  494MOL0     H66629   3.171   4.273   5.842  0.0156 -1.7022 -1.1057
  494MOL0     H66630   3.304   4.387   5.863 -0.0492  0.0977 -0.8103
  494MOL0     H66631   3.365   4.319   5.613  2.4691 -3.2410 -0.0717
  494MOL0     H66632   3.420   4.222   5.739  1.3296  2.0923 -0.9732
  494MOL0     H66633   3.224   4.063   5.726 -1.6478  1.3423  1.4243
  494MOL0     H66634   3.164   4.171   5.598  0.7573  0.9941  0.1306
  494MOL0     H66635   3.340   4.136   5.449  1.0175 -0.5934 -0.6009
  494MOL0     H66636   3.422   4.030   5.545  0.9255  0.8437 -3.5702
  494MOL0     H66637   3.126   3.981   5.458  2.1279  0.8705 -4.6803
  494MOL0     H66638   3.244   3.861   5.530  2.3798 -0.1176 -0.7176
  494MOL0     H66639   3.206   3.847   5.285 -1.0028 -0.2155  1.3282
  494MOL0     H66640   3.266   4.024   5.277  2.2495 -0.7765 -2.6844
  494MOL0     H66641   3.388   3.654   5.286  0.5083 -0.7440  1.3505
  494MOL0     H66642   3.753   3.705   5.189 -1.2985  3.6281  0.9806
  494MOL0     H66643   3.712   3.625   5.337 -0.8106  0.1998  0.7714
  494MOL0     H66644   3.570   3.457   5.219  0.2585 -1.7282 -1.6295
  494MOL0     H66645   3.573   3.561   5.073  0.3404 -2.3460 -0.4441
  494MOL0     H66646   3.698   3.345   5.111 -3.1334  1.5727 -4.0791
  494MOL0     H66647   3.816   3.453   5.200  0.0917  1.6672  0.0151
  494MOL0     H66648   3.816   3.581   4.954 -1.7637  0.5104  0.3548
  494MOL0     H66649   3.723   3.451   4.896  1.0665  0.6079 -1.1976
  494MOL0     H66650   4.154   3.294   5.059 -0.4656 -0.0558  0.2691
  494MOL0     H66651   4.353   3.383   5.022 -1.3438 -0.8653 -1.2960
  494MOL0     H66652   4.548   3.832   5.131 -0.2273  0.3976 -2.1551
  494MOL0     H66653   4.768   3.942   5.175  1.0090 -0.2799 -1.0386
  494MOL0     H66654   5.162   3.742   5.155  1.0941  1.8685  3.0336
  494MOL0     H66655   5.140   3.789   4.992  2.5784 -1.4131  0.0320
  494MOL0     H66656   5.207   4.004   5.205 -0.1392  2.5470 -1.4747
  494MOL0     H66657   5.322   3.901   5.121 -0.0838 -0.2007 -2.3006
  494MOL0     H66658   5.115   4.123   5.030  2.2636  3.1994 -0.3645
  494MOL0     H66659   5.289   4.133   5.044 -1.2062  0.8705  2.0217
  494MOL0     H66660   5.142   3.942   4.850 -1.0508  1.2547 -2.7331
  494MOL0     H66661   5.312   3.958   4.873  0.6631  1.2409  1.7056
  494MOL0     H66662   5.137   4.189   4.789 -0.4576 -1.8117  2.0080
  494MOL0     H66663   5.214   4.087   4.675  3.0177  2.9582 -2.1668
  494MOL0     H66664   5.324   4.314   4.742  0.7009  0.3365  1.9573
  494MOL0     H66665   5.398   4.223   4.868 -2.0254  2.8366  1.3513
  494MOL0     H66666   5.411   4.132   4.564  2.5473  1.5527 -2.0306
  494MOL0     H66667   5.507   4.073   4.707  0.4290  0.1034  0.7267
  494MOL0     H66668   5.490   4.359   4.587 -1.0707 -0.0050  0.0791
  494MOL0     H66669   5.586   4.310   4.726 -2.4080 -1.8209  2.3153
  494MOL0     H66670   4.979   3.610   4.998  0.8343  1.4765 -0.7313
  494MOL0     H66671   4.765   3.497   4.967  2.7918 -0.0116  2.1608
  494MOL0     H66672   4.208   3.713   4.810  2.0690 -1.4240 -1.5353
  494MOL0     H66673   3.984   3.617   4.814 -1.1152 -0.8447  0.9329
  494MOL0     H66674   2.776   4.382   5.742 -0.3873 -0.3287  0.9127
  494MOL0     H66675   2.561   4.450   5.633  0.3924 -1.3561 -2.9295
  494MOL0     H66676   2.351   4.809   5.217  0.2009 -0.0409 -1.0698
  494MOL0     H66677   2.148   4.951   5.185  0.8960  1.9165  0.0764
  494MOL0     H66678   2.026   5.172   5.183  2.1128  0.3296  0.0819
  494MOL0     H66679   2.138   5.242   5.297  1.4848 -3.2050  0.9319
  494MOL0     H66680   1.834   5.245   5.303  0.1662 -0.5609 -0.0150
  494MOL0     H66681   1.955   5.392   5.307  1.6932  0.5096  1.9861
  494MOL0     H66682   2.014   5.313   5.532  0.9075 -0.5899 -1.0466
  494MOL0     H66683   1.890   5.185   5.521  1.7581 -0.3988 -1.9869
  494MOL0     H66684   1.813   5.488   5.512  1.4658  0.0880  1.0858
  494MOL0     H66685   1.712   5.358   5.517  0.2821  0.5480 -0.8889
  494MOL0     H66686   1.814   5.418   5.924  5.3898  2.6343 -0.5387
  494MOL0     H66687   2.130   5.052   5.587  1.4955  2.2004 -0.7656
  494MOL0     H66688   2.275   4.944   5.754 -2.1221 -2.2682 -1.2893
  494MOL0     H66689   2.382   4.813   5.715  1.6440 -0.1728 -2.3396
  494MOL0     H66690   2.435   4.978   5.674  0.3510 -0.7258  1.5475
  495MOL0     O66691   8.443   3.668   2.381 -0.4371  0.3121  0.8754
  495MOL0     C66692   8.500   3.581   2.311  0.8183 -0.5581 -1.4003
  495MOL0     O66693   8.432   3.469   2.248 -0.1051 -0.6056  0.0828
  495MOL0     C66694   8.305   3.494   2.211  0.2285  0.1708 -0.0248
  495MOL0     C66695   8.236   3.369   2.178 -0.4866  0.8043 -0.2913
  495MOL0     C66696   8.100   3.375   2.143 -0.1988  0.1402  0.2828
  495MOL0     C66697   8.025   3.496   2.146 -0.2719 -0.3711  0.7838
  495MOL0     O66698   7.893   3.504   2.095 -0.4163 -0.2501 -0.2932
  495MOL0     C66699   7.836   3.394   2.026 -0.4206  0.2922 -0.2145
  495MOL0     C66700   7.700   3.446   1.962 -0.4813  0.4158 -0.3268
  495MOL0     C66701   7.651   3.331   1.870  0.6508  0.9330 -0.2061
  495MOL0     C66702   7.515   3.364   1.810  0.8275 -0.4712  0.7395
  495MOL0     C66703   7.452   3.265   1.697 -0.7990 -0.5141 -0.2614
  495MOL0     C66704   7.527   3.276   1.564  0.3741  0.3894  0.7488
  495MOL0     C66705   7.467   3.188   1.458 -0.8576  0.0582 -0.0097
  495MOL0     C66706   7.516   3.041   1.465 -0.0237  0.7492 -0.3081
  495MOL0     N66707   7.650   3.022   1.401 -0.3861  0.4937 -0.7600
  495MOL0     C66708   7.696   2.902   1.351 -0.6738 -0.0405  0.7553
  495MOL0     C66709   7.818   2.927   1.293  0.2021 -1.2252  1.1681
  495MOL0     C66710   7.914   2.830   1.231  0.3197  0.3455 -0.4818
  495MOL0     C66711   8.023   2.799   1.338 -0.0045 -0.4454  0.8418
  495MOL0     C66712   8.137   2.900   1.309 -1.0213 -0.5822 -0.1410
  495MOL0     C66713   8.257   2.843   1.388  0.2961 -0.2394 -1.4716
  495MOL0     O66714   8.221   2.832   1.527  0.4057  0.1409  0.7897
  495MOL0     C66715   8.314   2.787   1.615  0.2751 -0.0042 -0.2473
  495MOL0     C66716   8.454   2.776   1.592  0.7339 -0.0964 -0.3374
  495MOL0     C66717   8.537   2.733   1.696  0.2099  0.2561 -0.6685
  495MOL0     C66718   8.485   2.701   1.823 -0.4108 -0.5733 -0.4812
  495MOL0     C66719   8.582   2.697   1.936  1.4233 -0.7350 -0.3238
  495MOL0     O66720   8.712   2.725   1.905  0.0217  0.1767 -0.5189
  495MOL0     C66721   8.792   2.731   2.020  0.6647  0.0467  0.1770
  495MOL0     C66722   8.833   2.855   2.072 -0.4212 -0.6996 -0.4443
  495MOL0     C66723   8.922   2.854   2.176 -0.1163 -0.7984  0.1221
  495MOL0     C66724   8.978   2.741   2.231 -0.5850  0.7310 -0.4171
  495MOL0     O66725   9.071   2.751   2.329 -0.1842  0.1700 -0.6050
  495MOL0     C66726   9.186   2.664   2.328 -0.0018 -1.2587  0.1685
  495MOL0     C66727   9.297   2.750   2.395 -0.8907 -0.4618  0.8201
  495MOL0     C66728   9.424   2.655   2.400 -0.2353  0.0220 -0.1697
  495MOL0     C66729   9.538   2.711   2.492  0.2029  0.1770  1.1246
  495MOL0     C66730   9.659   2.626   2.463 -0.4338  0.5122  0.0832
  495MOL0     C66731   9.789   2.684   2.520  0.5697  0.0753  0.4833
  495MOL0     C66732   9.859   2.772   2.432 -0.3377 -0.3752 -0.8121
  495MOL0     C66733   9.938   2.892   2.477  0.1941  0.5123 -0.4765
  495MOL0    Cl66734   9.829   3.033   2.521 -0.6205  0.2027 -0.0354
  495MOL0     C66735   8.935   2.620   2.182 -0.2104 -0.2761 -0.1692
  495MOL0     C66736   8.834   2.618   2.084  0.4394  0.4525  0.1913
  495MOL0     O66737   8.535   2.681   2.048 -0.0480 -0.5763 -0.4670
  495MOL0     C66738   8.350   2.703   1.842 -0.1763  0.0093 -0.5380
  495MOL0     C66739   8.265   2.749   1.733 -0.3429  0.0374  0.5146
  495MOL0     N66740   7.850   3.057   1.328 -0.5242 -0.0441 -0.3554
  495MOL0     N66741   7.754   3.117   1.393  0.0894  1.3771 -0.3068
  495MOL0     C66742   8.096   3.609   2.169 -0.0036 -0.3971  0.7411
  495MOL0     C66743   8.226   3.615   2.206 -0.0529 -0.3106  0.1861
  495MOL0     C66744   8.648   3.569   2.322  0.2569  0.0606  0.1044
  495MOL0     C66745   8.707   3.441   2.296  1.1422  0.1392 -0.4545
  495MOL0     C66746   8.842   3.423   2.308  0.7334 -0.4442 -0.5396
  495MOL0     C66747   8.920   3.521   2.359 -0.7961  0.2606  0.0572
  495MOL0     O66748   9.053   3.502   2.387 -0.0816 -0.6308 -0.9916
  495MOL0     C66749   9.132   3.601   2.461 -0.4786  0.2638 -0.1283
  495MOL0     C66750   9.252   3.552   2.535  0.0553  0.3376 -0.0528
  495MOL0     C66751   9.308   3.637   2.650  0.9428  0.0541  0.1964
  495MOL0     C66752   9.366   3.770   2.604 -0.4945 -0.0562 -0.1589
  495MOL0     C66753   9.499   3.744   2.553  0.0695 -1.1476 -0.3916
  495MOL0     C66754   9.607   3.735   2.498  0.8003 -0.3253  0.4610
  495MOL0     C66755   8.867   3.654   2.380 -0.2278  0.9021 -0.4706
  495MOL0     C66756   8.735   3.681   2.357  0.0837 -0.5940 -0.9057
  495MOL0     C66757   8.681   3.818   2.375 -0.1442  0.0193  0.1998
  495MOL0     H66758   8.288   3.273   2.175  1.1052  1.5831  0.9021
  495MOL0     H66759   8.039   3.290   2.116 -1.8376  0.0276  3.7945
  495MOL0     H66760   7.900   3.380   1.939  0.4494  3.8791 -0.3370
  495MOL0     H66761   7.827   3.301   2.083  1.7864 -0.0620 -0.3401
  495MOL0     H66762   7.717   3.535   1.900  1.2596  0.4335  0.1223
  495MOL0     H66763   7.622   3.463   2.037 -3.3918 -0.4876 -2.9461
  495MOL0     H66764   7.645   3.243   1.935 -2.1086  0.7623 -0.5883
  495MOL0     H66765   7.725   3.320   1.790 -0.6734 -1.8737 -1.1644
  495MOL0     H66766   7.451   3.361   1.898 -1.1444  1.1271 -0.5444
  495MOL0     H66767   7.522   3.466   1.772  1.4883  0.2143  2.6269
  495MOL0     H66768   7.457   3.161   1.733 -3.2273 -0.9907 -1.1405
  495MOL0     H66769   7.345   3.270   1.676 -0.4641  0.3952 -1.9341
  495MOL0     H66770   7.521   3.380   1.532  1.4991  0.5014  0.8749
  495MOL0     H66771   7.633   3.247   1.569 -0.2205 -1.9365  1.2870
  495MOL0     H66772   7.493   3.221   1.357 -0.2563  0.7969  0.3820
  495MOL0     H66773   7.358   3.193   1.469 -1.4411 -0.7888 -3.8274
  495MOL0     H66774   7.518   2.997   1.565 -0.3433 -1.1415 -1.1006
  495MOL0     H66775   7.452   2.978   1.403  1.8784 -0.9584 -0.6319
  495MOL0     H66776   7.653   2.804   1.335 -2.3227  0.6959  0.4788
  495MOL0     H66777   7.862   2.736   1.210 -0.4542  0.3520  1.1876
  495MOL0     H66778   7.952   2.872   1.138 -0.8721  1.9866 -0.2778
  495MOL0     H66779   7.991   2.794   1.443 -1.1070 -5.1632  0.5290
  495MOL0     H66780   8.060   2.696   1.334  3.9485  0.8221  0.7334
  495MOL0     H66781   8.111   3.002   1.340  0.8283  0.4035 -1.6616
  495MOL0     H66782   8.163   2.903   1.203 -2.8579 -2.6034 -0.7152
  495MOL0     H66783   8.339   2.915   1.379 -0.5490  0.7425 -1.5579
  495MOL0     H66784   8.288   2.748   1.345  0.9473 -1.1004  0.7599
  495MOL0     H66785   8.501   2.809   1.500  2.1966 -2.5086 -0.5309
  495MOL0     H66786   8.644   2.730   1.677  0.7129  1.4398  1.6121
  495MOL0     H66787   8.796   2.941   2.016  0.2721 -0.4683 -0.5520
  495MOL0     H66788   8.962   2.952   2.198 -1.1990 -0.2340 -0.3192
  495MOL0     H66789   9.173   2.574   2.389 -1.6054  0.1747  2.0635
  495MOL0     H66790   9.214   2.645   2.224 -3.2408  2.6997 -1.6876
  495MOL0     H66791   9.318   2.835   2.329  0.4385 -0.4229  1.2654
  495MOL0     H66792   9.260   2.790   2.490 -0.7597 -0.4285  0.8576
  495MOL0     H66793   9.395   2.552   2.423  4.5630 -1.4579  0.3437
  495MOL0     H66794   9.463   2.652   2.298  0.4359 -1.1081  0.1067
  495MOL0     H66795   9.512   2.696   2.598 -0.2584 -4.2379  0.5737
  495MOL0     H66796   9.559   2.817   2.471  1.1608  0.3103  2.6398
  495MOL0     H66797   9.678   2.598   2.359 -0.6603 -1.9208  0.6543
  495MOL0     H66798   9.647   2.531   2.515 -0.7176 -2.3609 -4.7095
  495MOL0     H66799   9.762   2.733   2.614 -0.2713  3.0814 -1.2186
  495MOL0     H66800   9.862   2.605   2.543  1.7389  1.4278  1.6724
  495MOL0     H66801   9.781   2.824   2.375  0.2917  0.9621 -0.4767
  495MOL0     H66802   9.920   2.717   2.360 -0.7953 -1.8043 -0.1494
  495MOL0     H66803   9.991   2.849   2.563 -0.9721 -2.0294 -0.9506
  495MOL0     H66804  10.009   2.920   2.398  1.2621 -1.5869 -0.3362
  495MOL0     H66805   8.991   2.533   2.214  3.8713  2.8565  2.2850
  495MOL0     H66806   8.801   2.523   2.043 -0.2736 -0.3275  2.4180
  495MOL0     H66807   8.313   2.686   1.942 -1.6119  0.8076 -0.9102
  495MOL0     H66808   8.159   2.759   1.751 -0.2905  1.8873 -0.0273
  495MOL0     H66809   8.040   3.699   2.148  2.2385  1.1150  0.9151
  495MOL0     H66810   8.269   3.713   2.224 -0.8292  0.2214 -0.7810
  495MOL0     H66811   8.649   3.355   2.263 -1.6502  2.1253 -1.1431
  495MOL0     H66812   8.888   3.331   2.274 -0.0835 -2.1247  2.5416
  495MOL0     H66813   9.082   3.650   2.546  2.1132  0.5188  1.3550
  495MOL0     H66814   9.167   3.679   2.393  0.0949 -0.7470 -1.0049
  495MOL0     H66815   9.335   3.523   2.470 -1.4295 -2.3524 -0.9059
  495MOL0     H66816   9.219   3.460   2.585  0.5196  0.2702  0.1365
  495MOL0     H66817   9.378   3.576   2.707  2.4427  0.3742 -1.2393
  495MOL0     H66818   9.232   3.655   2.726  1.9565  0.8856  1.0372
  495MOL0     H66819   9.306   3.825   2.532 -1.5638  0.8216  1.3326
  495MOL0     H66820   9.363   3.833   2.693  0.3211 -1.6331  1.0499
  495MOL0     H66821   9.697   3.731   2.439 -0.7376  3.1487 -2.5267
  495MOL0     H66822   8.928   3.739   2.410 -0.1179  0.3579  0.9138
  495MOL0     H66823   8.642   3.813   2.477 -0.4591 -2.0510  0.0235
  495MOL0     H66824   8.767   3.885   2.368  0.0065 -0.3509 -3.6332
  495MOL0     H66825   8.606   3.843   2.299 -2.0891 -0.7896  1.7796
  496MOL0     O66826   8.230  10.560  10.906  0.1700  0.7508  0.3172
  496MOL0     C66827   8.170  10.521  11.007 -0.3462  0.1429 -0.3221
  496MOL0     O66828   8.222  10.523  11.140  0.2271  0.1404  0.5367
  496MOL0     C66829   8.338  10.584  11.168 -0.1218 -1.2720 -0.5732
  496MOL0     C66830   8.460  10.545  11.114 -0.8825  0.0168 -0.3539
  496MOL0     C66831   8.582  10.605  11.148 -0.2728 -0.2827  0.3347
  496MOL0     C66832   8.594  10.709  11.237  0.5778  0.0756 -0.4751
  496MOL0     O66833   8.717  10.751  11.273 -0.3334 -0.2068 -0.0333
  496MOL0     C66834   8.721  10.876  11.349 -0.1720 -0.3139 -0.0545
  496MOL0     C66835   8.762  10.987  11.250  0.4480 -0.4603 -0.3636
  496MOL0     C66836   8.910  10.962  11.212 -0.6511 -0.6796  0.9252
  496MOL0     C66837   8.945  11.047  11.084  0.8674 -0.7002  0.9161
  496MOL0     C66838   9.078  11.039  11.025  0.0436 -0.9158  0.3704
  496MOL0     C66839   9.094  11.125  10.905 -0.2152  0.5272 -0.1517
  496MOL0     C66840   9.222  11.109  10.834 -0.6400  0.9202 -0.2328
  496MOL0     C66841   9.228  10.992  10.734  0.4872 -0.6347 -0.5797
  496MOL0     N66842   9.358  10.967  10.675 -0.0680 -0.3648  0.1417
  496MOL0     C66843   9.453  10.881  10.728 -0.0156 -0.1959  0.4067
  496MOL0     C66844   9.573  10.909  10.670  0.2816 -0.2408 -0.5482
  496MOL0     C66845   9.710  10.843  10.683  0.4439 -0.7378  0.8700
  496MOL0     C66846   9.715  10.717  10.599  0.4791 -0.5170 -0.1482
  496MOL0     C66847   9.856  10.655  10.624  0.1599 -0.0858  0.4436
  496MOL0     C66848   9.890  10.548  10.512  1.2131  0.4170 -0.0162
  496MOL0     O66849   9.845  10.426  10.565 -1.2597  0.3004 -0.0176
  496MOL0     C66850   9.716  10.380  10.550  0.1911  0.2395 -0.9974
  496MOL0     C66851   9.644  10.393  10.431 -0.5049 -0.0708  0.1890
  496MOL0     C66852   9.510  10.354  10.427  0.6342  0.6690  0.2106
  496MOL0     C66853   9.454  10.288  10.536 -0.1327  0.2315 -0.5889
  496MOL0     C66854   9.310  10.244  10.525  0.7477 -0.6453 -0.4059
  496MOL0     O66855   9.266  10.200  10.640  0.0254  0.3683 -0.0047
  496MOL0     C66856   9.149  10.140  10.647 -0.2652  0.4960 -0.3729
  496MOL0     C66857   9.046  10.187  10.734  0.2318 -0.4482 -1.0297
  496MOL0     C66858   8.927  10.107  10.749  0.3179  0.3247 -0.4017
  496MOL0     C66859   8.904   9.995  10.663 -0.5308 -1.0370 -0.5635
  496MOL0     O66860   8.785   9.930  10.677 -0.3978 -1.0497 -0.2520
  496MOL0     C66861   8.745   9.838  10.568 -0.4482  0.8358  0.6751
  496MOL0     C66862   8.792   9.699  10.615  0.2115 -0.1530 -0.5060
  496MOL0     C66863   8.740   9.577  10.547 -0.2361 -1.0049  0.1566
  496MOL0     C66864   8.742   9.580  10.392  0.0030 -0.7315 -0.1157
  496MOL0     C66865   8.715   9.448  10.329 -0.3618 -0.1207  0.4832
  496MOL0     C66866   8.592   9.368  10.390  0.0928 -0.3116 -0.5153
  496MOL0     C66867   8.565   9.235  10.318 -0.0396 -0.5372 -0.8723
  496MOL0     C66868   8.446   9.171  10.391 -0.1148 -0.0388  0.7636
  496MOL0    Cl66869   8.478   9.109  10.547 -0.1890  0.0492  1.0018
  496MOL0     C66870   9.010   9.960  10.579  1.3249  0.5812 -0.3429
  496MOL0     C66871   9.132  10.022  10.578  1.0116 -0.4058  0.2414
  496MOL0     O66872   9.250  10.257  10.422 -0.2221  0.9153 -0.1500
  496MOL0     C66873   9.529  10.262  10.647  0.5326 -0.7949 -0.5361
  496MOL0     C66874   9.658  10.309  10.660 -0.4204 -0.8774 -0.6021
  496MOL0     N66875   9.553  11.001  10.572 -0.7220 -0.6579  0.3416
  496MOL0     N66876   9.429  11.040  10.584 -0.3617 -0.3812 -0.1752
  496MOL0     C66877   8.472  10.742  11.301 -0.1630 -0.1251 -0.5659
  496MOL0     C66878   8.345  10.683  11.267 -0.3607  0.2983  0.9277
  496MOL0     C66879   8.036  10.471  10.978  0.0619  0.0057 -0.1739
  496MOL0     C66880   7.932  10.506  11.066 -0.0479  0.0199 -0.7929
  496MOL0     C66881   7.799  10.453  11.053 -1.1039  0.7678 -0.3591
  496MOL0     C66882   7.764  10.360  10.947 -1.0595  0.4514  0.4482
  496MOL0     O66883   7.646  10.297  10.926  0.6264 -0.2222  0.1013
  496MOL0     C66884   7.543  10.340  11.020  0.6795 -0.6878  0.5123
  496MOL0     C66885   7.412  10.264  11.002 -0.3794 -0.2046 -0.0763
  496MOL0     C66886   7.308  10.347  10.926  0.3826  0.2139  0.9586
  496MOL0     C66887   7.182  10.271  10.873 -0.0652 -0.2237 -0.1255
  496MOL0     C66888   7.103  10.222  10.979  0.3688  0.0456 -0.6563
  496MOL0     C66889   7.023  10.180  11.060 -0.7475 -0.4207  0.2806
  496MOL0     C66890   7.868  10.332  10.857  0.0075  0.0247 -0.4226
  496MOL0     C66891   8.005  10.382  10.871 -0.1730  0.7016  0.6457
  496MOL0     C66892   8.093  10.335  10.763  0.0508 -0.5282  0.2361
  496MOL0     H66893   8.466  10.474  11.032 -3.2703 -0.0012 -0.5984
  496MOL0     H66894   8.672  10.561  11.108 -0.7214 -0.9675  0.0650
  496MOL0     H66895   8.642  10.924  11.408  0.6900  3.6802 -1.8240
  496MOL0     H66896   8.807  10.865  11.415 -0.1308  1.4068  0.2382
  496MOL0     H66897   8.753  11.083  11.301 -0.6288 -0.3232 -0.7882
  496MOL0     H66898   8.695  10.988  11.164  0.0502  1.0354 -0.0590
  496MOL0     H66899   8.924  10.857  11.186 -1.5707 -0.4822 -0.4409
  496MOL0     H66900   8.974  10.979  11.300  0.1023 -2.2290  0.7054
  496MOL0     H66901   8.880  11.023  10.999 -0.0355  0.0632  1.3661
  496MOL0     H66902   8.933  11.153  11.107  0.8904 -0.1345 -1.4149
  496MOL0     H66903   9.159  11.070  11.092 -0.3043  1.5933 -0.2562
  496MOL0     H66904   9.105  10.937  10.997  1.7249 -0.9132  1.8048
  496MOL0     H66905   9.004  11.103  10.848  0.0254  1.6441 -1.0014
  496MOL0     H66906   9.095  11.230  10.937 -0.5306  0.2633  0.7579
  496MOL0     H66907   9.297  11.090  10.912 -1.8179 -1.5832  0.3992
  496MOL0     H66908   9.246  11.204  10.785 -2.1543  3.1084  2.9083
  496MOL0     H66909   9.185  10.906  10.786  0.5582  0.7232  1.8620
  496MOL0     H66910   9.154  11.013  10.656 -0.7347 -2.3851  0.0419
  496MOL0     H66911   9.427  10.805  10.801  0.3894  0.2586  1.0445
  496MOL0     H66912   9.780  10.918  10.645 -2.0298  1.4532  0.3159
  496MOL0     H66913   9.725  10.826  10.790 -0.0327 -2.7499  0.6678
  496MOL0     H66914   9.630  10.652  10.623 -1.4109  2.3169  1.5175
  496MOL0     H66915   9.713  10.746  10.494  1.8238 -0.1748 -0.0930
  496MOL0     H66916   9.854  10.617  10.726 -0.9919  2.6285  1.5260
  496MOL0     H66917   9.932  10.733  10.615 -0.4608  0.2863 -3.0181
  496MOL0     H66918   9.996  10.541  10.489  1.0593 -0.8033 -0.4181
  496MOL0     H66919   9.841  10.581  10.419  0.7585  3.1340  1.0759
  496MOL0     H66920   9.688  10.454  10.352  2.4795 -1.2931  0.7692
  496MOL0     H66921   9.464  10.363  10.329 -1.7480 -2.2504  0.8899
  496MOL0     H66922   9.059  10.286  10.777 -2.6239  0.1339 -1.3124
  496MOL0     H66923   8.856  10.135  10.825  0.0517  0.8658 -0.8416
  496MOL0     H66924   8.637   9.826  10.559 -0.0391 -4.8734 -0.2085
  496MOL0     H66925   8.797   9.862  10.475 -0.6972 -0.2326  0.2490
  496MOL0     H66926   8.902   9.699  10.612  0.2669  2.9445 -1.1044
  496MOL0     H66927   8.775   9.677  10.721  0.1357 -1.7463 -0.8134
  496MOL0     H66928   8.805   9.494  10.576  1.1910 -0.7826 -2.0985
  496MOL0     H66929   8.641   9.548  10.583 -0.0094  0.3460  1.9804
  496MOL0     H66930   8.831   9.624  10.348  0.8352  0.9111  2.9163
  496MOL0     H66931   8.674   9.657  10.356  1.9052  1.5262  0.8901
  496MOL0     H66932   8.805   9.387  10.321 -0.5303 -0.2887 -0.1582
  496MOL0     H66933   8.684   9.457  10.225 -1.1293 -1.8354  0.5333
  496MOL0     H66934   8.608   9.337  10.493 -2.7449 -1.8153 -0.4432
  496MOL0     H66935   8.503   9.431  10.385  1.2881  1.5313  0.2705
  496MOL0     H66936   8.655   9.180  10.290  1.3382  1.8098 -1.4105
  496MOL0     H66937   8.522   9.246  10.218 -1.7026 -0.1785 -0.1498
  496MOL0     H66938   8.358   9.236  10.398  1.1072  2.0340 -1.7937
  496MOL0     H66939   8.426   9.081  10.332  0.4432  1.0394 -1.1442
  496MOL0     H66940   9.008   9.872  10.515  0.7052  0.1477  0.2697
  496MOL0     H66941   9.205   9.988  10.505 -1.3228 -0.1135 -2.4163
  496MOL0     H66942   9.479  10.234  10.739 -0.3082 -0.6761 -0.9477
  496MOL0     H66943   9.702  10.298  10.758  1.2730  0.2520 -1.1961
  496MOL0     H66944   8.464  10.816  11.380  0.2581  1.3089 -1.8377
  496MOL0     H66945   8.253  10.714  11.317 -0.1412 -0.2804  1.7207
  496MOL0     H66946   7.953  10.588  11.134  0.6032  0.5873 -1.6506
  496MOL0     H66947   7.729  10.485  11.130  0.8150  2.4167  0.7794
  496MOL0     H66948   7.510  10.442  10.996 -2.7178 -1.9602 -0.8823
  496MOL0     H66949   7.577  10.333  11.124 -3.0232 -0.5456  1.8776
  496MOL0     H66950   7.370  10.250  11.102  2.8065 -1.4004  1.2379
  496MOL0     H66951   7.423  10.163  10.961 -2.2491 -2.2497  3.9243
  496MOL0     H66952   7.359  10.386  10.837  0.7062  0.6209  1.3172
  496MOL0     H66953   7.279  10.440  10.977 -1.3037  0.3763 -0.2225
  496MOL0     H66954   7.128  10.331  10.799 -0.8327 -0.2908  0.3652
  496MOL0     H66955   7.216  10.177  10.830 -2.2002 -0.8002 -0.6717
  496MOL0     H66956   6.966  10.132  11.137 -0.8631  0.8431  1.0224
  496MOL0     H66957   7.843  10.268  10.773  0.1594 -2.3030  1.2145
  496MOL0     H66958   8.058  10.363  10.663 -2.8492 -1.3031  0.9279
  496MOL0     H66959   8.195  10.370  10.777 -1.0134  1.8414  3.2447
  496MOL0     H66960   8.101  10.227  10.755  1.3864 -0.3930 -0.4936
  497MOL0     O66961   2.122   0.170   2.301  0.0964  0.9247  0.1982
  497MOL0     C66962   2.144   0.096   2.202  0.0588 -1.0512  0.3686
  497MOL0     O66963   2.248   0.012   2.187  0.3208  0.3887 -0.2459
  497MOL0     C66964   2.330  -0.013   2.289 -0.6542  0.2950 -0.1549
  497MOL0     C66965   2.450   0.051   2.296 -0.1189 -0.5551 -0.1745
  497MOL0     C66966   2.535   0.033   2.407 -0.0511 -0.2102  0.1882
  497MOL0     C66967   2.494  -0.058   2.501 -0.2034 -0.0405 -1.2887
  497MOL0     O66968   2.577  -0.096   2.607  0.6943 -0.2254 -0.4323
  497MOL0     C66969   2.640   0.006   2.687  0.5489  0.4110  0.2841
  497MOL0     C66970   2.788  -0.010   2.663 -0.0333 -0.1105  0.9598
  497MOL0     C66971   2.876   0.094   2.725 -0.4767 -0.0698  0.0719
  497MOL0     C66972   3.028   0.074   2.686  0.5134  0.1409  0.6719
  497MOL0     C66973   3.094  -0.049   2.743 -0.1054  0.5672 -0.6538
  497MOL0     C66974   3.244  -0.062   2.708  0.1843  0.1631 -0.3773
  497MOL0     C66975   3.320   0.065   2.737  0.0499  0.2635 -0.1864
  497MOL0     C66976   3.462   0.029   2.699  0.1367  0.0719  0.2382
  497MOL0     N66977   3.557   0.145   2.704 -0.0160 -1.0627  1.0145
  497MOL0     C66978   3.627   0.191   2.815 -0.3867 -0.4441  0.1287
  497MOL0     C66979   3.716   0.275   2.755  0.4199  0.2198 -0.4923
  497MOL0     C66980   3.825   0.332   2.841 -0.4575 -0.5696  0.6818
  497MOL0     C66981   3.937   0.233   2.851 -0.3222  0.1392 -0.2644
  497MOL0     C66982   4.026   0.252   2.729  0.0510 -0.4828 -0.8203
  497MOL0     C66983   4.121   0.366   2.750  0.4285 -0.7781 -0.2283
  497MOL0     O66984   4.214   0.383   2.641  0.2650 -0.7220  0.2459
  497MOL0     C66985   4.205   0.506   2.581 -0.5337 -0.0227 -0.3691
  497MOL0     C66986   4.317   0.580   2.571 -0.0290 -0.2077  0.7102
  497MOL0     C66987   4.306   0.703   2.505 -0.2634  0.1858  0.3157
  497MOL0     C66988   4.176   0.758   2.470 -0.1864  1.0884 -0.3279
  497MOL0     C66989   4.151   0.901   2.421  0.2189 -0.0966  0.3648
  497MOL0     O66990   4.019   0.954   2.395  0.8031 -0.2001 -0.3219
  497MOL0     C66991   4.023   1.090   2.366  0.2234  0.2219  0.2061
  497MOL0     C66992   4.050   1.195   2.452 -0.4066  0.2128 -0.0492
  497MOL0     C66993   4.029   1.325   2.412 -0.2870  0.0886  0.0685
  497MOL0     C66994   3.999   1.360   2.280  0.2275 -0.5038 -0.7702
  497MOL0     O66995   4.001   1.499   2.253 -0.7781  0.1700  0.1011
  497MOL0     C66996   3.969   1.540   2.120 -0.7771  0.2561 -0.5263
  497MOL0     C66997   3.943   1.692   2.105  0.3315 -0.6069  0.6043
  497MOL0     C66998   3.965   1.737   1.968  0.1907 -0.6776  0.5301
  497MOL0     C66999   3.850   1.720   1.878  0.0875  0.4356  1.0208
  497MOL0     C67000   3.756   1.845   1.880 -0.7413 -0.2756  0.0277
  497MOL0     C67001   3.612   1.813   1.828 -0.2714  0.7714  0.7116
  497MOL0     C67002   3.515   1.934   1.833 -1.1122 -0.0724 -0.3476
  497MOL0     C67003   3.501   1.988   1.977  0.4834  1.1385 -0.0958
  497MOL0    Cl67004   3.404   2.132   1.958  0.2626  0.3266  0.2399
  497MOL0     C67005   3.976   1.258   2.184 -0.5619 -0.0039  0.1010
  497MOL0     C67006   3.988   1.126   2.231  0.2358  0.2473 -0.4119
  497MOL0     O67007   4.253   0.966   2.398  0.0816 -1.0696 -0.1167
  497MOL0     C67008   4.063   0.678   2.499  0.1606 -0.2264  0.4955
  497MOL0     C67009   4.076   0.554   2.548  0.7085  0.1697 -0.0634
  497MOL0     N67010   3.695   0.280   2.621  0.7701  0.2381  0.3032
  497MOL0     N67011   3.601   0.209   2.588  0.4954 -0.3490 -0.7950
  497MOL0     C67012   2.374  -0.127   2.498  0.5584 -0.0989 -0.6692
  497MOL0     C67013   2.293  -0.109   2.388 -0.0734 -1.1810  1.0092
  497MOL0     C67014   2.052   0.103   2.081  0.4570  0.3986 -0.6000
  497MOL0     C67015   2.126   0.106   1.962 -0.0969  0.8744  0.6863
  497MOL0     C67016   2.054   0.127   1.843 -0.6649 -0.1075 -0.2083
  497MOL0     C67017   1.915   0.136   1.839  0.6338 -0.0618  0.1984
  497MOL0     O67018   1.849   0.140   1.717 -0.3688 -0.3437  0.6824
  497MOL0     C67019   1.708   0.134   1.719  0.2950 -0.0698 -0.2544
  497MOL0     C67020   1.647   0.179   1.587 -0.1407 -0.3108 -0.0549
  497MOL0     C67021   1.502   0.223   1.605  0.4402 -0.9702 -0.9321
  497MOL0     C67022   1.424   0.230   1.474 -0.1775  0.4018  1.0605
  497MOL0     C67023   1.473   0.322   1.373 -1.0778 -0.5651  0.1682
  497MOL0     C67024   1.514   0.404   1.298 -0.3900  0.0285  0.6027
  497MOL0     C67025   1.856   0.115   1.958  0.3331  0.1171  0.3991
  497MOL0     C67026   1.913   0.112   2.080  0.8016 -0.3642  0.1107
  497MOL0     C67027   1.823   0.106   2.199 -0.6960  0.5990  0.1302
  497MOL0     H67028   2.478   0.116   2.214 -0.9144 -1.3060 -1.0659
  497MOL0     H67029   2.634   0.078   2.404 -0.7495  1.3611 -2.2241
  497MOL0     H67030   2.614   0.109   2.660  1.1279  1.1148  2.2445
  497MOL0     H67031   2.611  -0.015   2.790 -1.2162 -2.7105 -0.7290
  497MOL0     H67032   2.792  -0.006   2.554  0.2488 -2.2757  0.8413
  497MOL0     H67033   2.810  -0.106   2.712  1.9538  0.1237  0.5808
  497MOL0     H67034   2.869   0.088   2.834 -3.5085  2.7229  0.1528
  497MOL0     H67035   2.840   0.193   2.696 -0.4327 -0.4130 -1.2110
  497MOL0     H67036   3.038   0.074   2.577 -3.0171  0.8923  0.2426
  497MOL0     H67037   3.087   0.161   2.717  4.3241 -1.7291 -0.6820
  497MOL0     H67038   3.073  -0.040   2.850  0.9902  0.9271 -0.4575
  497MOL0     H67039   3.043  -0.143   2.719 -0.2280  0.6025 -0.5335
  497MOL0     H67040   3.279  -0.145   2.770 -2.8117  0.0482  1.3499
  497MOL0     H67041   3.251  -0.085   2.601 -0.3652  1.6643 -0.7566
  497MOL0     H67042   3.316   0.098   2.842 -2.2241  2.7708 -0.9471
  497MOL0     H67043   3.293   0.145   2.667  0.4756  1.5148  1.0204
  497MOL0     H67044   3.486  -0.046   2.775  0.9651  0.9481  0.8608
  497MOL0     H67045   3.472  -0.017   2.601  0.1842  2.6440 -1.0422
  497MOL0     H67046   3.624   0.169   2.921  1.9102 -0.3664  0.2514
  497MOL0     H67047   3.852   0.430   2.800  0.7138 -1.4719 -0.8235
  497MOL0     H67048   3.784   0.358   2.939 -1.0643 -1.1610  0.5905
  497MOL0     H67049   3.999   0.254   2.938 -0.4410 -1.8926  0.3673
  497MOL0     H67050   3.891   0.134   2.862  0.2981  0.0110  1.3831
  497MOL0     H67051   3.972   0.274   2.636 -0.5896 -0.2936 -0.4054
  497MOL0     H67052   4.086   0.160   2.719 -2.8379 -2.5107 -0.7247
  497MOL0     H67053   4.184   0.333   2.834 -1.1223  2.6092  2.5253
  497MOL0     H67054   4.070   0.457   2.783  1.0496 -0.1796 -0.8925
  497MOL0     H67055   4.416   0.543   2.596  1.6661  2.7388 -1.0134
  497MOL0     H67056   4.398   0.759   2.492 -0.6914  0.8465  0.0474
  497MOL0     H67057   4.073   1.167   2.554 -0.4051  0.1108 -0.0779
  497MOL0     H67058   4.047   1.402   2.486  0.5170  0.2893 -0.3253
  497MOL0     H67059   4.056   1.507   2.062  0.1697 -3.5302  2.5652
  497MOL0     H67060   3.879   1.488   2.085 -1.5689  2.3371 -1.7329
  497MOL0     H67061   3.843   1.713   2.145  1.2397  1.9106  1.8099
  497MOL0     H67062   4.006   1.757   2.166 -0.4710 -0.5366  1.3838
  497MOL0     H67063   3.995   1.842   1.961 -2.6692  0.3122  1.2551
  497MOL0     H67064   4.053   1.690   1.925  2.4992  3.5632  0.0298
  497MOL0     H67065   3.783   1.643   1.919 -2.3256  2.1106  0.4619
  497MOL0     H67066   3.881   1.698   1.775  1.3866 -0.5821  1.6172
  497MOL0     H67067   3.799   1.929   1.825  4.2499 -2.9284 -0.7155
  497MOL0     H67068   3.755   1.883   1.983  2.4578  2.0076 -0.6477
  497MOL0     H67069   3.615   1.776   1.725 -2.6157 -1.6327  1.3958
  497MOL0     H67070   3.566   1.729   1.881 -0.5965 -0.0189 -0.7647
  497MOL0     H67071   3.419   1.898   1.796 -1.2400  0.4959 -0.5770
  497MOL0     H67072   3.545   2.014   1.764 -0.3078 -1.6785 -1.9526
  497MOL0     H67073   3.457   1.917   2.046  1.9315  0.1373 -0.1570
  497MOL0     H67074   3.603   2.012   2.010  1.3320 -0.2055 -1.6171
  497MOL0     H67075   3.939   1.282   2.085 -2.1791 -1.4731  0.3045
  497MOL0     H67076   3.969   1.055   2.151  0.7413  0.8150 -1.0494
  497MOL0     H67077   3.961   0.702   2.469 -0.0038 -0.7308  0.6486
  497MOL0     H67078   3.984   0.497   2.544 -1.4125  3.3332 -0.0932
  497MOL0     H67079   2.365  -0.180   2.592 -0.2858  0.7490 -0.2635
  497MOL0     H67080   2.205  -0.170   2.368  0.7403 -1.6158 -1.6665
  497MOL0     H67081   2.234   0.107   1.948 -0.0581 -1.4117  0.5696
  497MOL0     H67082   2.112   0.133   1.751 -1.6829 -0.5158 -0.8895
  497MOL0     H67083   1.667   0.212   1.784 -1.3032 -0.4903 -0.6983
  497MOL0     H67084   1.665   0.042   1.759 -3.8095  2.1737  1.0983
  497MOL0     H67085   1.647   0.099   1.511 -2.4627  1.2816 -1.8704
  497MOL0     H67086   1.720   0.250   1.547  3.6101 -2.8295  1.7078
  497MOL0     H67087   1.479   0.308   1.670  0.6165 -0.5411 -1.4239
  497MOL0     H67088   1.451   0.143   1.660  0.8356 -1.4224 -1.2243
  497MOL0     H67089   1.421   0.136   1.419  0.8191  1.4676 -0.9273
  497MOL0     H67090   1.319   0.241   1.504  0.4025  0.3268  3.3555
  497MOL0     H67091   1.543   0.464   1.214  0.3356 -0.7754  0.2602
  497MOL0     H67092   1.748   0.113   1.947  0.5530 -0.5709 -2.3223
  497MOL0     H67093   1.726   0.070   2.163 -0.8849  1.9968 -0.8638
  497MOL0     H67094   1.864   0.041   2.276 -1.8199 -0.3664 -0.0641
  497MOL0     H67095   1.820   0.200   2.256 -1.2612  0.8138 -0.2475
  498MOL0     O67096   8.896   5.579   6.018 -0.8347 -0.1299 -0.1904
  498MOL0     C67097   8.889   5.463   6.055  0.4523  0.5372 -1.0309
  498MOL0     O67098   8.983   5.386   6.090 -0.4530  0.1626 -0.4569
  498MOL0     C67099   9.112   5.424   6.074  0.3438 -0.1290  0.2688
  498MOL0     C67100   9.216   5.390   6.158 -0.2998 -0.3316  0.5636
  498MOL0     C67101   9.350   5.415   6.127  0.5584 -0.0097  0.1487
  498MOL0     C67102   9.398   5.477   6.010 -0.1297 -0.1498  0.0172
  498MOL0     O67103   9.524   5.530   5.991  0.4701  1.5226 -0.0179
  498MOL0     C67104   9.633   5.454   6.048 -0.2776  0.8481 -0.0751
  498MOL0     C67105   9.727   5.555   6.111 -0.4050  0.2406  0.1673
  498MOL0     C67106   9.881   5.525   6.080  0.1429 -0.1985  0.1191
  498MOL0     C67107   9.963   5.659   6.082  0.1255  0.7479 -0.6824
  498MOL0     C67108  10.115   5.654   6.057 -0.4136  0.7225 -0.0330
  498MOL0     C67109  10.200   5.572   6.150  0.5934 -0.6484  0.2306
  498MOL0     C67110  10.350   5.593   6.120 -0.4943  0.2265 -0.4222
  498MOL0     C67111  10.431   5.713   6.179 -0.5602 -0.4970  1.5535
  498MOL0     N67112  10.389   5.841   6.104 -1.1211 -0.8819 -0.7597
  498MOL0     C67113  10.390   5.873   5.969  0.2855 -0.4365 -0.1281
  498MOL0     C67114  10.362   6.009   5.960  0.2780 -0.5653  0.5616
  498MOL0     C67115  10.340   6.088   5.824  0.3075 -0.0176 -0.0463
  498MOL0     C67116  10.470   6.160   5.788  0.1184  0.3631 -0.3967
  498MOL0     C67117  10.579   6.064   5.739 -1.1611  0.5792  1.1268
  498MOL0     C67118  10.696   6.145   5.685 -0.4381  0.2591  0.4016
  498MOL0     O67119  10.809   6.061   5.665 -0.1255 -0.0486 -0.1586
  498MOL0     C67120  10.912   6.126   5.600  0.2638 -0.4498  0.4138
  498MOL0     C67121  11.002   6.043   5.528 -0.2596 -0.0934 -0.3117
  498MOL0     C67122  11.111   6.092   5.462  0.4209 -0.0451 -0.2071
  498MOL0     C67123  11.143   6.235   5.479 -0.7326  1.2506  0.9885
  498MOL0     C67124  11.272   6.293   5.424 -0.0410  0.5927 -0.7676
  498MOL0     O67125  11.293   6.424   5.441 -0.2499 -0.5004  0.3709
  498MOL0     C67126  11.403   6.492   5.403  0.5945 -0.6728 -0.0285
  498MOL0     C67127  11.523   6.428   5.360 -0.4766  0.1859 -0.7655
  498MOL0     C67128  11.635   6.509   5.332 -0.5569  0.1580 -0.5038
  498MOL0     C67129  11.644   6.644   5.367  0.4592 -0.2123 -0.0583
  498MOL0     O67130  11.758   6.704   5.345 -0.3065 -0.9262  0.0024
  498MOL0     C67131  11.756   6.845   5.368 -0.3306 -0.0135 -0.5047
  498MOL0     C67132  11.896   6.899   5.359  0.4957 -0.2578 -0.4761
  498MOL0     C67133  11.988   6.831   5.464  0.0369 -0.0924 -0.1404
  498MOL0     C67134  12.113   6.914   5.485 -1.2918  0.1122 -0.6510
  498MOL0     C67135  12.204   6.848   5.600  0.0590  1.1849  0.3272
  498MOL0     C67136  12.154   6.880   5.738 -0.1432 -0.8295  0.2159
  498MOL0     C67137  12.223   6.809   5.842 -0.6084 -0.2119 -0.3173
  498MOL0     C67138  12.193   6.851   5.986 -0.8361 -0.4183  0.2139
  498MOL0    Cl67139  12.254   6.732   6.096  0.1557  0.1570 -0.0759
  498MOL0     C67140  11.521   6.708   5.417 -0.3392 -0.1274 -0.2732
  498MOL0     C67141  11.409   6.626   5.432 -0.5751 -0.1075 -0.5156
  498MOL0     O67142  11.335   6.218   5.357  0.6483 -0.1741  0.6597
  498MOL0     C67143  11.066   6.311   5.558  0.1475 -0.9227 -0.4215
  498MOL0     C67144  10.950   6.262   5.624  0.4389 -0.5601 -0.4842
  498MOL0     N67145  10.347   6.055   6.088 -0.5843  0.2081  0.7565
  498MOL0     N67146  10.357   5.953   6.175 -0.0296 -0.4692  0.2844
  498MOL0     C67147   9.303   5.511   5.918 -0.3061  0.3437 -0.1822
  498MOL0     C67148   9.163   5.484   5.947 -0.1296 -0.0897 -0.8164
  498MOL0     C67149   8.747   5.410   6.056 -0.2078  0.1370  1.1162
  498MOL0     C67150   8.654   5.483   5.977  0.4546  1.0915  0.5986
  498MOL0     C67151   8.516   5.438   5.974  0.5361  0.8845  0.1041
  498MOL0     C67152   8.471   5.332   6.049 -0.0818  0.1610  0.3194
  498MOL0     O67153   8.334   5.302   6.038  0.7702 -0.2458 -0.9569
  498MOL0     C67154   8.262   5.358   6.143  1.1620 -0.4892 -0.3587
  498MOL0     C67155   8.174   5.250   6.199  0.8356  0.3064 -0.1939
  498MOL0     C67156   8.026   5.286   6.229 -0.5800 -0.4544 -0.3698
  498MOL0     C67157   7.989   5.414   6.314  1.0886 -0.5318  0.0475
  498MOL0     C67158   7.847   5.449   6.302  0.0163  0.5665  0.1716
  498MOL0     C67159   7.732   5.469   6.286  1.0163 -0.3836  0.6447
  498MOL0     C67160   8.562   5.267   6.131 -0.0620  0.6609  0.2707
  498MOL0     C67161   8.697   5.299   6.139 -0.9681  0.3278 -0.7542
  498MOL0     C67162   8.788   5.216   6.232 -0.2042  0.1195  1.0387
  498MOL0     H67163   9.201   5.340   6.253  2.4204 -1.3951  0.5213
  498MOL0     H67164   9.422   5.383   6.201  1.1002 -1.0711 -0.8087
  498MOL0     H67165   9.607   5.378   6.122 -0.8159 -0.2410 -1.3458
  498MOL0     H67166   9.688   5.403   5.969  0.4631  1.8243 -0.2010
  498MOL0     H67167   9.710   5.543   6.218  1.7739 -0.2352  0.5155
  498MOL0     H67168   9.696   5.657   6.087  0.4436  0.4995  0.1457
  498MOL0     H67169   9.890   5.481   5.980  1.3165  2.6917 -1.1657
  498MOL0     H67170   9.932   5.459   6.152  2.3186  1.1010 -0.1310
  498MOL0     H67171   9.924   5.725   6.004  1.6484  4.2682  1.2919
  498MOL0     H67172   9.944   5.702   6.180  0.5651 -1.5586  0.4979
  498MOL0     H67173  10.121   5.636   5.950 -5.0453 -0.2234 -0.3432
  498MOL0     H67174  10.160   5.754   6.062  3.5112 -0.7225 -2.0935
  498MOL0     H67175  10.182   5.579   6.258 -1.2569 -2.6229  0.1201
  498MOL0     H67176  10.182   5.468   6.120  2.8980 -0.4265 -2.2492
  498MOL0     H67177  10.367   5.578   6.013 -2.9059  2.6429 -1.2629
  498MOL0     H67178  10.397   5.509   6.172  0.2146 -0.6065 -2.2940
  498MOL0     H67179  10.409   5.727   6.285  2.5341 -0.6871  2.3248
  498MOL0     H67180  10.538   5.693   6.172 -0.6598 -0.6000  0.0621
  498MOL0     H67181  10.415   5.808   5.885 -0.2051 -2.2291  1.0587
  498MOL0     H67182  10.322   6.010   5.749 -3.0485  0.1053  0.4929
  498MOL0     H67183  10.254   6.155   5.820  1.1970  1.1215 -0.8424
  498MOL0     H67184  10.458   6.247   5.722  2.4858  1.0528 -0.0448
  498MOL0     H67185  10.509   6.205   5.880  0.2599 -0.1462 -0.2052
  498MOL0     H67186  10.541   6.006   5.655 -0.8128  3.5921 -1.3118
  498MOL0     H67187  10.617   6.007   5.825 -1.2566  2.4850  2.5060
  498MOL0     H67188  10.726   6.230   5.748 -1.7656  1.2073 -0.1941
  498MOL0     H67189  10.670   6.201   5.594 -0.8800  0.0199  0.3793
  498MOL0     H67190  10.991   5.935   5.533 -0.5796 -0.0017  2.8740
  498MOL0     H67191  11.168   6.028   5.395  3.2557  1.3725  0.6969
  498MOL0     H67192  11.533   6.321   5.343  0.7390  0.2024 -0.2693
  498MOL0     H67193  11.724   6.464   5.289  0.1780 -1.0794  2.1361
  498MOL0     H67194  11.695   6.886   5.287  0.3799  0.8492 -0.6118
  498MOL0     H67195  11.717   6.863   5.469  0.4565 -0.0819 -0.1816
  498MOL0     H67196  11.915   6.874   5.254 -4.1512 -1.5958 -1.2237
  498MOL0     H67197  11.907   7.006   5.381  1.6395 -0.5195  0.2675
  498MOL0     H67198  11.926   6.804   5.551  0.7943 -1.1230  0.0919
  498MOL0     H67199  12.016   6.732   5.428 -2.3447 -0.1051 -2.2618
  498MOL0     H67200  12.097   7.016   5.521  0.6601 -0.5412  2.4705
  498MOL0     H67201  12.164   6.922   5.389  2.5526  0.8055  1.2501
  498MOL0     H67202  12.309   6.877   5.602  0.8548 -1.4406  2.5402
  498MOL0     H67203  12.194   6.741   5.581 -2.3490  1.2834  0.6715
  498MOL0     H67204  12.166   6.986   5.761 -0.5010 -0.7826  0.1933
  498MOL0     H67205  12.049   6.849   5.741  0.0637 -1.8616 -1.4421
  498MOL0     H67206  12.332   6.817   5.840 -0.3091 -1.2148  3.4615
  498MOL0     H67207  12.202   6.702   5.832 -0.5941 -0.2501  0.0253
  498MOL0     H67208  12.243   6.946   6.006 -1.9669  1.0046 -3.0166
  498MOL0     H67209  12.085   6.870   5.995 -0.7235  1.9414 -2.1696
  498MOL0     H67210  11.518   6.813   5.444  0.1557 -1.0148  4.0383
  498MOL0     H67211  11.319   6.666   5.479 -1.8764 -2.3457 -0.9753
  498MOL0     H67212  11.095   6.416   5.563 -0.8882 -0.5932 -0.9671
  498MOL0     H67213  10.894   6.328   5.689 -1.0875 -1.1676 -1.1294
  498MOL0     H67214   9.326   5.574   5.833 -4.4938 -0.1195 -1.9287
  498MOL0     H67215   9.091   5.507   5.869  0.2128 -1.4506 -1.5627
  498MOL0     H67216   8.692   5.564   5.915 -0.2499  2.8494  2.3333
  498MOL0     H67217   8.440   5.494   5.921  0.5355  0.3321 -0.4937
  498MOL0     H67218   8.198   5.439   6.105  0.6590 -0.3607  0.7194
  498MOL0     H67219   8.315   5.399   6.230  2.2158 -1.4214 -0.5442
  498MOL0     H67220   8.219   5.210   6.290 -0.8877 -2.1154 -0.3140
  498MOL0     H67221   8.163   5.168   6.128 -1.7204  0.2255  0.1819
  498MOL0     H67222   7.970   5.204   6.275  2.3259 -1.2804  1.9384
  498MOL0     H67223   7.973   5.306   6.135 -0.8339 -0.4936 -0.2355
  498MOL0     H67224   8.016   5.381   6.415 -0.4026 -0.6893  0.4197
  498MOL0     H67225   8.050   5.503   6.295  0.0375  0.6169  1.7464
  498MOL0     H67226   7.629   5.481   6.259  1.5559 -1.3198 -2.1066
  498MOL0     H67227   8.521   5.189   6.194 -1.4188  0.1591 -1.1832
  498MOL0     H67228   8.722   5.144   6.282 -3.1885  2.1048  0.2350
  498MOL0     H67229   8.864   5.161   6.177 -1.0121 -0.0445  0.0614
  498MOL0     H67230   8.832   5.281   6.309 -1.3692  0.6202  1.2952
  499MOL0     O67231   5.658   8.743   9.444  0.0742  0.0740 -0.0412
  499MOL0     C67232   5.676   8.725   9.321  0.2230  0.3522  0.3578
  499MOL0     O67233   5.804   8.702   9.267 -0.1262 -0.4962 -0.6426
  499MOL0     C67234   5.891   8.639   9.358 -0.0110  0.1621  0.0928
  499MOL0     C67235   5.999   8.717   9.404  0.1112  0.5086  0.3736
  499MOL0     C67236   6.088   8.665   9.500 -0.0969  0.0298 -0.7248
  499MOL0     C67237   6.079   8.532   9.539 -0.2712  0.0988  0.7920
  499MOL0     O67238   6.173   8.495   9.642 -0.2483  0.7079  0.0658
  499MOL0     C67239   6.210   8.357   9.642  0.0338 -0.0201  0.2979
  499MOL0     C67240   6.361   8.343   9.653 -0.2088  0.0991 -0.9790
  499MOL0     C67241   6.420   8.201   9.617  0.5951 -0.5279  0.1309
  499MOL0     C67242   6.559   8.189   9.675 -0.7011  0.3235  1.0441
  499MOL0     C67243   6.646   8.100   9.580  0.4608  0.0606 -0.1184
  499MOL0     C67244   6.790   8.065   9.629  0.4932  0.1007 -0.1877
  499MOL0     C67245   6.792   8.026   9.780  0.0797  0.4499  0.2264
  499MOL0     C67246   6.927   7.998   9.833  0.3193 -0.0502 -0.3243
  499MOL0     N67247   7.023   8.113   9.813 -0.3237 -0.1706 -0.2731
  499MOL0     C67248   7.014   8.240   9.868 -0.5858 -0.2644  0.6107
  499MOL0     C67249   7.084   8.321   9.789  0.7053  0.0693 -0.3137
  499MOL0     C67250   7.120   8.466   9.806  0.6884  0.2499 -0.6984
  499MOL0     C67251   7.072   8.559   9.691 -0.0237 -0.5192  0.0704
  499MOL0     C67252   7.092   8.709   9.732 -0.1107  1.1595 -0.8598
  499MOL0     C67253   7.092   8.802   9.614  0.4883 -0.1162 -1.1603
  499MOL0     O67254   7.113   8.938   9.636 -0.7609  0.1426 -0.4331
  499MOL0     C67255   7.248   8.974   9.652  1.0087 -0.2641 -0.8375
  499MOL0     C67256   7.355   8.886   9.680 -0.5086  0.1968  0.1428
  499MOL0     C67257   7.483   8.941   9.697 -0.5744  0.3536 -0.5950
  499MOL0     C67258   7.504   9.081   9.704 -0.4960 -0.4350 -0.4921
  499MOL0     C67259   7.642   9.147   9.699 -0.7405 -0.2615 -0.6968
  499MOL0     O67260   7.658   9.282   9.705 -0.4741  0.2373 -0.2966
  499MOL0     C67261   7.777   9.339   9.668  0.2564  1.7983  0.0912
  499MOL0     C67262   7.897   9.281   9.707  0.1444 -0.2577 -0.8731
  499MOL0     C67263   8.019   9.351   9.704  0.1528  0.6057  0.1907
  499MOL0     C67264   8.020   9.483   9.660  0.5029  0.3610  0.3557
  499MOL0     O67265   8.139   9.542   9.654 -0.1657  0.8828  0.9946
  499MOL0     C67266   8.147   9.683   9.633 -1.1746 -0.8916 -0.1345
  499MOL0     C67267   8.293   9.734   9.647 -0.1177 -0.9082 -0.0785
  499MOL0     C67268   8.381   9.656   9.553 -1.6431 -0.0210  0.2122
  499MOL0     C67269   8.523   9.689   9.570 -0.5520 -0.2046 -1.2662
  499MOL0     C67270   8.601   9.590   9.491 -0.9170  0.0745  0.2156
  499MOL0     C67271   8.747   9.641   9.469  0.9085  0.4728  1.0942
  499MOL0     C67272   8.843   9.655   9.586 -0.3321 -1.0248 -0.8375
  499MOL0     C67273   8.968   9.743   9.545  0.0349  0.5107  0.6697
  499MOL0    Cl67274   8.925   9.911   9.568 -0.0270  0.2482 -0.1460
  499MOL0     C67275   7.900   9.540   9.618 -0.5496  0.8538  0.9123
  499MOL0     C67276   7.783   9.466   9.617  0.2490 -0.2916  0.6070
  499MOL0     O67277   7.736   9.062   9.689 -0.5474  0.5465 -1.2034
  499MOL0     C67278   7.391   9.172   9.692  0.1784 -0.9213 -0.3696
  499MOL0     C67279   7.267   9.111   9.660 -0.3289 -0.5683 -0.0666
  499MOL0     N67280   7.133   8.246   9.684 -0.9195  0.3443 -0.0744
  499MOL0     N67281   7.101   8.122   9.703 -0.7841 -0.3448 -0.0907
  499MOL0     C67282   5.976   8.456   9.491  0.8538 -0.2217  0.1058
  499MOL0     C67283   5.878   8.511   9.409  0.3133 -0.0331  0.0304
  499MOL0     C67284   5.560   8.741   9.226  0.3417  0.9159 -0.1657
  499MOL0     C67285   5.595   8.742   9.087  0.0411  0.0546 -0.1930
  499MOL0     C67286   5.496   8.743   8.984 -0.0361  0.2814 -0.6074
  499MOL0     C67287   5.370   8.765   9.026 -1.1946 -1.0476 -0.0341
  499MOL0     O67288   5.279   8.802   8.934 -0.4304  0.0706 -0.4209
  499MOL0     C67289   5.142   8.764   8.945  0.4503 -0.8120 -0.3580
  499MOL0     C67290   5.065   8.778   8.808  0.3238  0.1513  0.4882
  499MOL0     C67291   4.911   8.759   8.830  0.6762  0.4556  0.6758
  499MOL0     C67292   4.830   8.768   8.699  0.1373  0.0534  0.3291
  499MOL0     C67293   4.801   8.637   8.644 -0.5326  0.0811  0.3841
  499MOL0     C67294   4.788   8.531   8.581 -0.1801 -0.1483 -0.6310
  499MOL0     C67295   5.334   8.746   9.156  1.4950 -0.4621  0.8648
  499MOL0     C67296   5.422   8.737   9.261  0.6455  0.0395  0.7812
  499MOL0     C67297   5.359   8.709   9.398  0.1125  1.2067 -0.1768
  499MOL0     H67298   6.014   8.817   9.364  0.4143  0.2079 -0.2741
  499MOL0     H67299   6.171   8.732   9.523 -0.6019  0.0940  1.0843
  499MOL0     H67300   6.165   8.295   9.721  0.5445 -1.3997 -0.4516
  499MOL0     H67301   6.175   8.306   9.552  0.3112  0.7447 -0.2477
  499MOL0     H67302   6.390   8.357   9.757  4.4363  0.5684 -2.0801
  499MOL0     H67303   6.416   8.424   9.603 -2.3040  2.7671  0.7524
  499MOL0     H67304   6.430   8.188   9.509 -2.5126 -0.7503 -0.2373
  499MOL0     H67305   6.360   8.121   9.662 -1.4943  2.8110  4.0277
  499MOL0     H67306   6.608   8.287   9.671  0.6441 -0.3174  1.3911
  499MOL0     H67307   6.553   8.166   9.782  0.8659 -0.1925  1.0359
  499MOL0     H67308   6.604   8.001   9.563 -0.0666  0.3856 -0.7305
  499MOL0     H67309   6.669   8.143   9.482 -1.0336 -2.5296 -1.7062
  499MOL0     H67310   6.833   7.993   9.559 -0.7935 -0.4394 -0.4584
  499MOL0     H67311   6.847   8.159   9.624  0.8810 -0.1644 -0.9983
  499MOL0     H67312   6.725   7.942   9.800  0.9200  0.1700  2.0602
  499MOL0     H67313   6.742   8.107   9.833 -3.3236  0.0608 -2.0844
  499MOL0     H67314   6.920   7.971   9.939  1.0627  1.4377  0.1356
  499MOL0     H67315   6.972   7.914   9.779  3.0222  0.1019  1.4943
  499MOL0     H67316   6.952   8.276   9.949  0.4074  2.7681  0.1341
  499MOL0     H67317   7.100   8.497   9.909  3.4463 -3.1287  1.0759
  499MOL0     H67318   7.228   8.466   9.823  0.1952 -0.7847  3.6532
  499MOL0     H67319   7.118   8.537   9.594  0.1435  0.6762 -0.1368
  499MOL0     H67320   6.965   8.539   9.689  0.0711 -1.1506  0.7197
  499MOL0     H67321   7.185   8.714   9.789 -0.2495  0.0804 -0.5211
  499MOL0     H67322   6.997   8.732   9.781  0.1193 -1.9895  1.4030
  499MOL0     H67323   6.991   8.805   9.571  0.2604 -0.4086 -0.6524
  499MOL0     H67324   7.157   8.770   9.532  1.0584  0.0853 -0.7857
  499MOL0     H67325   7.346   8.778   9.685 -1.3383  0.3217  3.6554
  499MOL0     H67326   7.561   8.867   9.713 -3.6691 -2.7992  1.4835
  499MOL0     H67327   7.907   9.190   9.764 -0.6819 -0.9221 -1.7460
  499MOL0     H67328   8.111   9.297   9.724  1.0150  0.6608 -3.1064
  499MOL0     H67329   8.124   9.703   9.528  4.2861 -0.8574 -1.6100
  499MOL0     H67330   8.083   9.734   9.705 -1.8829 -2.3168  0.2980
  499MOL0     H67331   8.291   9.841   9.629 -3.6134 -0.7469  0.5836
  499MOL0     H67332   8.341   9.714   9.743  2.2539  1.9313 -0.5513
  499MOL0     H67333   8.369   9.548   9.572  1.5645 -0.8152 -1.5757
  499MOL0     H67334   8.349   9.664   9.449 -2.6542 -1.5214  0.3643
  499MOL0     H67335   8.557   9.700   9.673  1.6329 -0.5470 -1.9073
  499MOL0     H67336   8.525   9.789   9.525 -3.1417  0.0874 -0.9089
  499MOL0     H67337   8.549   9.562   9.399 -0.8325 -1.5432  0.6421
  499MOL0     H67338   8.610   9.490   9.534  0.8549 -0.4130 -1.1622
  499MOL0     H67339   8.790   9.576   9.392  0.0822 -1.1339  1.9126
  499MOL0     H67340   8.732   9.731   9.409 -2.4882 -0.6277  0.0350
  499MOL0     H67341   8.871   9.554   9.620  1.5727 -0.1634  0.3447
  499MOL0     H67342   8.797   9.696   9.676  1.2443 -2.0026  0.4882
  499MOL0     H67343   9.051   9.718   9.612  0.1084 -0.3850  0.2565
  499MOL0     H67344   8.995   9.732   9.440 -2.4043  2.4245 -0.2640
  499MOL0     H67345   7.898   9.638   9.570  2.4330  0.7442  0.4075
  499MOL0     H67346   7.693   9.522   9.592 -0.6005 -0.5869  2.7649
  499MOL0     H67347   7.391   9.280   9.686 -2.5426 -0.8957 -1.3677
  499MOL0     H67348   7.184   9.175   9.631  0.4008 -1.1680 -4.0958
  499MOL0     H67349   5.959   8.351   9.510 -2.4474 -0.2490 -2.2097
  499MOL0     H67350   5.800   8.448   9.369  1.6360  0.4033 -3.6959
  499MOL0     H67351   5.698   8.731   9.056  0.7348 -1.0319  2.2546
  499MOL0     H67352   5.527   8.740   8.880  2.4204  0.7814  0.0422
  499MOL0     H67353   5.090   8.833   9.011 -4.6538  0.3284 -4.8512
  499MOL0     H67354   5.124   8.662   8.981  0.2519  0.3428  3.1334
  499MOL0     H67355   5.097   8.697   8.743 -1.7431  0.1353 -0.5839
  499MOL0     H67356   5.067   8.878   8.763 -2.0378 -0.1603 -0.4705
  499MOL0     H67357   4.875   8.841   8.893 -0.7214  0.4677 -0.1108
  499MOL0     H67358   4.886   8.666   8.882  2.0965  0.4569  1.4162
  499MOL0     H67359   4.734   8.806   8.737  0.3611 -1.5835  2.7825
  499MOL0     H67360   4.875   8.835   8.626  0.2218  1.5809  1.7308
  499MOL0     H67361   4.784   8.445   8.518 -1.5676  0.8243 -1.9623
  499MOL0     H67362   5.229   8.758   9.180  0.8604 -3.8611  0.3130
  499MOL0     H67363   5.250   8.703   9.386  0.2024  0.0495 -0.5545
  499MOL0     H67364   5.391   8.618   9.449 -1.1814  1.6890  1.5882
  499MOL0     H67365   5.376   8.793   9.466  1.1156 -0.3599  1.5868
  500MOL0     O67366   9.111   4.564   2.323  0.9007  0.3343  0.0244
  500MOL0     C67367   9.157   4.537   2.208  0.0486 -0.2243  0.4387
  500MOL0     O67368   9.073   4.499   2.099  0.4410 -0.5283 -0.1107
  500MOL0     C67369   8.943   4.468   2.128  0.5364  0.2410  0.2856
  500MOL0     C67370   8.852   4.570   2.152 -0.2311 -0.3044  0.3213
  500MOL0     C67371   8.714   4.542   2.163  0.1806  0.3961  0.1631
  500MOL0     C67372   8.660   4.414   2.154  0.0944 -0.5494 -0.0464
  500MOL0     O67373   8.519   4.397   2.183 -0.7223  0.1576  0.1697
  500MOL0     C67374   8.445   4.280   2.133  1.0679 -0.4432 -0.3663
  500MOL0     C67375   8.311   4.328   2.092  0.1834 -0.0219 -0.5220
  500MOL0     C67376   8.216   4.346   2.218  1.6757 -0.6792  0.6909
  500MOL0     C67377   8.076   4.375   2.165  1.3247 -0.3827  0.3878
  500MOL0     C67378   7.985   4.388   2.287  0.5277 -0.7443 -0.8683
  500MOL0     C67379   7.841   4.394   2.239 -0.1473 -0.4044 -0.0078
  500MOL0     C67380   7.742   4.414   2.348  0.8048 -0.2157 -0.7609
  500MOL0     C67381   7.604   4.375   2.298  0.2897  0.5050 -0.2064
  500MOL0     N67382   7.499   4.391   2.401  0.1096 -0.2438 -0.0401
  500MOL0     C67383   7.365   4.388   2.377  1.1644 -0.5180  0.6972
  500MOL0     C67384   7.304   4.412   2.498  0.1089 -0.0680 -0.3898
  500MOL0     C67385   7.158   4.433   2.523 -0.7577 -0.0106 -0.7005
  500MOL0     C67386   7.124   4.581   2.482 -0.0138 -0.4439  0.3603
  500MOL0     C67387   7.168   4.678   2.600  0.1882  0.0579 -0.4488
  500MOL0     C67388   7.143   4.834   2.560  0.6646 -0.2604 -0.2163
  500MOL0     O67389   7.166   4.925   2.669  0.2379 -0.1923 -0.7111
  500MOL0     C67390   7.291   4.962   2.708  0.6389 -0.0955  0.3160
  500MOL0     C67391   7.371   4.876   2.790 -0.2137  0.3221  0.1311
  500MOL0     C67392   7.501   4.911   2.838 -0.8170  0.4093  0.8098
  500MOL0     C67393   7.559   5.038   2.797  0.4665 -0.2822 -0.5946
  500MOL0     C67394   7.692   5.072   2.843 -0.6488 -0.3340  0.8182
  500MOL0     O67395   7.779   4.959   2.851  0.7461 -0.3124  0.1162
  500MOL0     C67396   7.911   4.970   2.859 -0.1943  0.2121 -1.4474
  500MOL0     C67397   7.991   5.068   2.807  0.2877  0.5127  0.7691
  500MOL0     C67398   8.131   5.059   2.817 -0.8979  0.1292  0.1808
  500MOL0     C67399   8.187   4.951   2.880 -0.3829 -0.0426 -0.4587
  500MOL0     O67400   8.320   4.937   2.893 -1.0801  0.0601 -0.1430
  500MOL0     C67401   8.363   4.984   3.021 -0.0764 -0.3488 -0.3897
  500MOL0     C67402   8.499   4.916   3.032 -0.4629  0.2568 -0.3177
  500MOL0     C67403   8.621   5.014   3.027 -0.2821  0.2612  0.2874
  500MOL0     C67404   8.741   4.958   3.097  0.2226 -0.2779  0.4543
  500MOL0     C67405   8.860   5.057   3.092  0.3867  0.3716  0.4086
  500MOL0     C67406   8.988   5.019   3.164  0.6097  0.1490  0.5908
  500MOL0     C67407   9.060   4.905   3.082  1.0739  0.4942 -0.0919
  500MOL0     C67408   9.197   4.884   3.133 -0.4986 -0.4219  0.2395
  500MOL0    Cl67409   9.309   5.023   3.116  0.0130 -0.0695 -0.2404
  500MOL0     C67410   8.108   4.843   2.926  0.4311 -0.6236 -0.7640
  500MOL0     C67411   7.965   4.852   2.922 -1.1334 -0.3358  0.2402
  500MOL0     O67412   7.725   5.182   2.860  0.0315 -0.1862 -0.4353
  500MOL0     C67413   7.473   5.117   2.711  0.0581 -0.3475  1.5735
  500MOL0     C67414   7.345   5.082   2.663 -0.0664 -0.0315 -0.1497
  500MOL0     N67415   7.403   4.431   2.590  0.1273  0.2422 -0.3628
  500MOL0     N67416   7.514   4.433   2.531  0.6400  0.7049  0.1200
  500MOL0     C67417   8.756   4.315   2.135 -0.9355 -0.7930 -0.7756
  500MOL0     C67418   8.890   4.340   2.101 -0.5530  0.3553  0.5880
  500MOL0     C67419   9.297   4.580   2.185 -0.8178  0.2233 -0.2726
  500MOL0     C67420   9.330   4.641   2.068 -0.5536 -0.2319  0.3249
  500MOL0     C67421   9.457   4.677   2.024  0.3676  0.0116  0.0542
  500MOL0     C67422   9.566   4.653   2.109  0.2805  0.2407 -0.3135
  500MOL0     O67423   9.687   4.703   2.065  0.5066 -0.1383 -0.2613
  500MOL0     C67424   9.800   4.653   2.145  0.3782 -0.9558 -0.3162
  500MOL0     C67425   9.928   4.655   2.060 -0.0005  0.0921 -0.3097
  500MOL0     C67426  10.042   4.591   2.138  0.2183 -0.4149  0.5759
  500MOL0     C67427  10.039   4.432   2.132 -0.5847 -0.5242 -0.6752
  500MOL0     C67428  10.058   4.369   1.999  0.0863 -0.7313  0.4276
  500MOL0     C67429  10.090   4.337   1.889 -1.3593 -0.9351 -0.4375
  500MOL0     C67430   9.543   4.599   2.233  0.6869  0.5940 -0.0759
  500MOL0     C67431   9.416   4.548   2.267  0.6086 -0.0251  0.1343
  500MOL0     C67432   9.391   4.459   2.391 -0.3727 -0.5061  0.1219
  500MOL0     H67433   8.885   4.673   2.158 -2.0173  0.3639 -0.6757
  500MOL0     H67434   8.638   4.614   2.190 -0.5317  0.0499 -0.8775
  500MOL0     H67435   8.488   4.223   2.049  1.2497 -1.3770  0.3507
  500MOL0     H67436   8.429   4.205   2.210 -1.3476 -0.8216 -1.1517
  500MOL0     H67437   8.273   4.245   2.032  3.1731 -1.8936 -0.0488
  500MOL0     H67438   8.314   4.412   2.021  0.4155 -1.0867 -1.8150
  500MOL0     H67439   8.239   4.438   2.273 -2.8765  0.2535  1.3633
  500MOL0     H67440   8.209   4.258   2.283  1.0145 -0.6330  0.6833
  500MOL0     H67441   8.074   4.467   2.106  0.8315 -0.0577  0.8997
  500MOL0     H67442   8.033   4.300   2.098 -1.2288  1.3503 -0.0510
  500MOL0     H67443   7.999   4.304   2.355 -0.5224  0.4954  0.9748
  500MOL0     H67444   8.008   4.478   2.346 -0.1566 -2.1159  1.6497
  500MOL0     H67445   7.824   4.477   2.170  0.6029  1.7349  2.2131
  500MOL0     H67446   7.820   4.305   2.179  0.2686 -0.2045 -0.4481
  500MOL0     H67447   7.754   4.518   2.378  0.4089 -0.5104  0.4934
  500MOL0     H67448   7.757   4.344   2.432 -3.6857  1.0652  1.4510
  500MOL0     H67449   7.577   4.436   2.212 -1.6181 -1.1576 -0.8442
  500MOL0     H67450   7.619   4.273   2.261  1.8569  0.7220 -0.2610
  500MOL0     H67451   7.319   4.366   2.281  1.9529 -0.0660  0.2135
  500MOL0     H67452   7.105   4.368   2.453 -2.8488 -1.0277  1.6886
  500MOL0     H67453   7.117   4.415   2.623 -0.2764  1.1179 -0.2786
  500MOL0     H67454   7.174   4.616   2.392  2.5650 -0.5942  1.6495
  500MOL0     H67455   7.017   4.597   2.467  0.2403  2.4844  1.0224
  500MOL0     H67456   7.275   4.657   2.604  0.1303 -0.2887 -0.6812
  500MOL0     H67457   7.127   4.644   2.696 -1.3369 -1.3732 -1.5639
  500MOL0     H67458   7.039   4.838   2.526  0.9148 -1.2679 -1.1554
  500MOL0     H67459   7.210   4.871   2.481  3.0169 -2.1390  0.7858
  500MOL0     H67460   7.342   4.773   2.809  2.0044 -0.5689 -0.9832
  500MOL0     H67461   7.565   4.848   2.899  0.3304  0.6731 -0.1026
  500MOL0     H67462   7.962   5.165   2.768 -1.4343 -0.5724 -0.8634
  500MOL0     H67463   8.204   5.137   2.798 -1.0432  0.4213  0.8022
  500MOL0     H67464   8.395   5.086   3.000 -0.5012 -0.8740 -4.2710
  500MOL0     H67465   8.292   4.971   3.103 -0.6068  1.1641 -0.5856
  500MOL0     H67466   8.501   4.865   3.129 -1.1129  0.9289  0.0640
  500MOL0     H67467   8.518   4.844   2.953  1.0181  0.2206  0.0402
  500MOL0     H67468   8.646   5.042   2.924  3.6492 -2.2016  0.3662
  500MOL0     H67469   8.600   5.104   3.084  1.8039 -0.2297  1.9666
  500MOL0     H67470   8.776   4.870   3.043 -0.2130 -0.5762  0.6575
  500MOL0     H67471   8.708   4.925   3.195 -0.7252 -1.1709 -0.1442
  500MOL0     H67472   8.834   5.158   3.126  1.7193  1.3050 -1.2310
  500MOL0     H67473   8.879   5.074   2.986  0.1522  2.8601  0.7018
  500MOL0     H67474   9.054   5.105   3.176  0.9833 -0.5048  4.2253
  500MOL0     H67475   8.968   4.978   3.263  1.9042 -1.4374  0.2428
  500MOL0     H67476   9.069   4.928   2.976  3.0326 -0.0609 -0.0869
  500MOL0     H67477   8.995   4.817   3.089  1.7386  0.0000 -0.0716
  500MOL0     H67478   9.195   4.853   3.238 -0.9857 -0.7881  0.1215
  500MOL0     H67479   9.249   4.799   3.087 -0.0402 -0.1949  0.3256
  500MOL0     H67480   8.156   4.759   2.975 -0.1192 -0.2305  0.4974
  500MOL0     H67481   7.911   4.771   2.968 -2.7977  0.9351  0.6006
  500MOL0     H67482   7.529   5.201   2.672  0.8723 -2.3412 -1.9472
  500MOL0     H67483   7.291   5.151   2.599 -0.9606  1.0897  1.7526
  500MOL0     H67484   8.716   4.214   2.131 -1.9813 -0.3689 -1.4875
  500MOL0     H67485   8.956   4.258   2.073  0.2378  0.2257  2.5814
  500MOL0     H67486   9.250   4.661   1.997  2.2727  1.9109 -2.5837
  500MOL0     H67487   9.479   4.720   1.927  1.0153 -1.8249 -0.6609
  500MOL0     H67488   9.774   4.555   2.185 -2.8921 -0.0412  0.1272
  500MOL0     H67489   9.822   4.722   2.227  1.7200  0.1539 -1.5602
  500MOL0     H67490   9.964   4.758   2.050  1.9071 -0.3572  1.2156
  500MOL0     H67491   9.902   4.617   1.961 -0.4703  1.2629 -0.6543
  500MOL0     H67492  10.036   4.612   2.245 -0.7317 -3.5061  1.2268
  500MOL0     H67493  10.136   4.626   2.094 -1.7171  0.1849 -3.6108
  500MOL0     H67494  10.122   4.400   2.195 -2.7820 -4.2683  0.6584
  500MOL0     H67495   9.951   4.384   2.177 -0.6537 -0.9744 -1.2660
  500MOL0     H67496  10.110   4.295   1.793 -3.5885 -0.5293 -1.1420
  500MOL0     H67497   9.621   4.574   2.304 -1.6736 -1.0974  2.1291
  500MOL0     H67498   9.364   4.518   2.479  3.7581 -1.0594  2.0039
  500MOL0     H67499   9.310   4.388   2.377  1.5560 -3.2706  1.9284
  500MOL0     H67500   9.470   4.387   2.415  0.0961  0.5189  1.8671
  501MOL0     O67501   3.149  10.998   8.466 -0.4081 -0.4913  0.2677
  501MOL0     C67502   3.066  10.934   8.403 -0.2936  0.3026  0.5549
  501MOL0     O67503   3.088  10.803   8.368  0.6706  0.0746 -0.3874
  501MOL0     C67504   3.209  10.745   8.397  0.4590 -0.7929  0.5239
  501MOL0     C67505   3.318  10.736   8.305  0.0495  0.3514 -0.1503
  501MOL0     C67506   3.453  10.707   8.343 -0.3833  0.3962 -0.0344
  501MOL0     C67507   3.478  10.686   8.475  0.5819  0.5831  0.8720
  501MOL0     O67508   3.609  10.668   8.514  0.4581  0.4916  0.3128
  501MOL0     C67509   3.629  10.574   8.621  0.0565  0.2059 -0.3195
  501MOL0     C67510   3.782  10.547   8.628 -0.6508 -0.8079 -0.5595
  501MOL0     C67511   3.831  10.470   8.500 -0.3396 -0.3645 -0.3945
  501MOL0     C67512   3.962  10.393   8.523 -0.1797  0.3551  0.4586
  501MOL0     C67513   4.098  10.475   8.542  0.2262 -0.0575  0.5701
  501MOL0     C67514   4.160  10.523   8.410 -0.5583 -0.6735 -0.0127
  501MOL0     C67515   4.291  10.598   8.438  0.8371  1.4808  0.4837
  501MOL0     C67516   4.364  10.656   8.319  0.8110 -0.3065  0.3127
  501MOL0     N67517   4.466  10.747   8.371 -0.3144 -0.0047  0.6264
  501MOL0     C67518   4.605  10.730   8.396  0.5584  1.2196 -0.7375
  501MOL0     C67519   4.644  10.844   8.468  0.4346  0.3634  0.9458
  501MOL0     C67520   4.790  10.884   8.502  0.7566 -0.3200 -0.2980
  501MOL0     C67521   4.810  11.030   8.530  0.7145  0.8666  0.3749
  501MOL0     C67522   4.957  11.064   8.555 -0.2328  0.2102  1.0729
  501MOL0     C67523   4.993  11.215   8.563 -0.1706  0.0581 -1.1783
  501MOL0     O67524   5.047  11.250   8.444 -0.1566 -0.0056  0.9703
  501MOL0     C67525   5.183  11.272   8.428  0.3349 -0.3493 -0.4704
  501MOL0     C67526   5.248  11.368   8.513  0.0616 -0.6197  0.0927
  501MOL0     C67527   5.384  11.402   8.502 -0.7995 -0.0930  0.6904
  501MOL0     C67528   5.468  11.336   8.407  0.5934  0.5473  1.5862
  501MOL0     C67529   5.606  11.380   8.388  0.6475  0.5622 -0.2451
  501MOL0     O67530   5.651  11.475   8.472  0.1753  0.3800  0.0275
  501MOL0     C67531   5.783  11.526   8.476 -0.3646  0.0678  0.8397
  501MOL0     C67532   5.899  11.490   8.403  0.3728 -0.4983 -0.0578
  501MOL0     C67533   6.015  11.575   8.404  0.4512 -0.0914  0.7754
  501MOL0     C67534   6.021  11.694   8.481 -0.2135  0.2776  0.4630
  501MOL0     O67535   6.126  11.781   8.493 -0.1742  0.5300 -0.7668
  501MOL0     C67536   6.246  11.736   8.448  0.0580 -0.6605  0.0230
  501MOL0     C67537   6.257  11.774   8.303  0.4432  0.4805  1.0527
  501MOL0     C67538   6.373  11.711   8.226  0.2001  0.7828 -0.0856
  501MOL0     C67539   6.507  11.727   8.304  0.4369 -0.6779 -0.6949
  501MOL0     C67540   6.614  11.649   8.226 -0.2042  0.3409 -0.4883
  501MOL0     C67541   6.739  11.619   8.316  0.2632  0.0607 -0.4418
  501MOL0     C67542   6.825  11.507   8.263  0.8222 -0.6516  0.0852
  501MOL0     C67543   6.948  11.491   8.352  0.6920 -0.1669  0.8533
  501MOL0    Cl67544   7.102  11.441   8.273 -0.1300 -0.4156 -0.4208
  501MOL0     C67545   5.905  11.730   8.557 -0.3229  0.7248 -0.9496
  501MOL0     C67546   5.786  11.649   8.551 -0.6166  0.0618  0.6182
  501MOL0     O67547   5.671  11.318   8.309  0.4905 -0.5600  0.4315
  501MOL0     C67548   5.408  11.238   8.330  0.1969  0.3396 -0.5329
  501MOL0     C67549   5.273  11.210   8.338 -0.2232  0.6180  0.8593
  501MOL0     N67550   4.536  10.932   8.463  0.3550 -0.5078 -0.2197
  501MOL0     N67551   4.431  10.878   8.416 -0.0083  0.7340  0.1376
  501MOL0     C67552   3.367  10.670   8.567 -0.4401 -0.2102  0.4045
  501MOL0     C67553   3.237  10.699   8.525  0.4512 -0.2232  0.2840
  501MOL0     C67554   2.937  10.994   8.356  0.6630  0.8586 -0.8781
  501MOL0     C67555   2.847  10.908   8.282 -0.7301  0.4252 -0.2768
  501MOL0     C67556   2.722  10.950   8.236  0.5490 -0.3041 -0.3098
  501MOL0     C67557   2.683  11.081   8.256 -0.0707  0.6246 -0.6827
  501MOL0     O67558   2.569  11.131   8.199  0.2160  0.2960 -0.2986
  501MOL0     C67559   2.447  11.139   8.287 -0.5618 -1.1789  0.4994
  501MOL0     C67560   2.332  11.067   8.216 -0.1830  0.7100  0.6209
  501MOL0     C67561   2.244  11.151   8.122  0.1116 -1.0941  0.3943
  501MOL0     C67562   2.102  11.081   8.100  0.6289 -0.3058  0.0494
  501MOL0     C67563   2.117  10.959   8.014  0.9943 -0.4173 -0.5489
  501MOL0     C67564   2.132  10.869   7.937 -0.1250  0.4822 -0.0657
  501MOL0     C67565   2.765  11.167   8.324  0.4791 -0.4484  0.0232
  501MOL0     C67566   2.889  11.126   8.377 -0.7228  0.7845 -0.0078
  501MOL0     C67567   2.963  11.227   8.463 -0.4966  0.5544 -0.2172
  501MOL0     H67568   3.304  10.767   8.202 -1.7826 -1.3325 -0.4700
  501MOL0     H67569   3.534  10.722   8.272 -1.8167  0.4986 -1.7236
  501MOL0     H67570   3.609  10.627   8.714  0.5522  0.9432 -0.6220
  501MOL0     H67571   3.579  10.480   8.597  1.0845 -1.3822  3.1823
  501MOL0     H67572   3.808  10.504   8.725  2.9311  3.3924  0.6614
  501MOL0     H67573   3.831  10.645   8.619 -1.8499 -0.1147  0.2089
  501MOL0     H67574   3.843  10.534   8.412  1.7326 -2.6924 -1.9427
  501MOL0     H67575   3.748  10.401   8.482 -0.0360 -0.1487 -2.9782
  501MOL0     H67576   3.946  10.324   8.606  0.0982  0.4509  0.5950
  501MOL0     H67577   3.993  10.340   8.432  2.0445  1.6538  0.3692
  501MOL0     H67578   4.084  10.552   8.618  1.0079  0.1809  0.4897
  501MOL0     H67579   4.171  10.403   8.581 -0.5004 -0.7965  0.6109
  501MOL0     H67580   4.190  10.440   8.345 -1.1122 -1.3805  0.6077
  501MOL0     H67581   4.090  10.587   8.356  0.4501  1.1409  0.7230
  501MOL0     H67582   4.359  10.535   8.496  0.3513  1.3464  0.9184
  501MOL0     H67583   4.268  10.679   8.508  3.1385  0.5164  2.5175
  501MOL0     H67584   4.398  10.582   8.246 -1.1655  1.9833 -3.2190
  501MOL0     H67585   4.297  10.721   8.263  2.4842  1.3347  0.1108
  501MOL0     H67586   4.672  10.648   8.371 -2.8096 -2.1480  0.2072
  501MOL0     H67587   4.817  10.831   8.594 -2.7975  0.5982  1.4564
  501MOL0     H67588   4.859  10.854   8.422  0.1872  1.0528 -1.3402
  501MOL0     H67589   4.799  11.094   8.441 -0.2168  1.4802  0.9038
  501MOL0     H67590   4.746  11.068   8.611 -2.8729 -1.4918 -1.0969
  501MOL0     H67591   5.030  11.020   8.486 -0.4054  0.2984  0.8339
  501MOL0     H67592   4.982  11.015   8.649 -0.4339  0.5021  1.2766
  501MOL0     H67593   5.065  11.235   8.643 -0.5633  0.2244 -0.8618
  501MOL0     H67594   4.902  11.272   8.584 -0.8751 -1.1119 -0.9648
  501MOL0     H67595   5.181  11.415   8.585 -0.5200  0.7938 -1.3197
  501MOL0     H67596   5.423  11.479   8.568 -2.7736  0.0527  1.7791
  501MOL0     H67597   5.912  11.399   8.346  0.7127  1.0629 -2.6650
  501MOL0     H67598   6.092  11.537   8.337 -2.3045 -3.3343 -0.9137
  501MOL0     H67599   6.317  11.804   8.498 -3.3716  3.2125  0.1634
  501MOL0     H67600   6.258  11.628   8.462  0.2457 -1.0993 -2.9808
  501MOL0     H67601   6.161  11.766   8.252  0.4304 -1.5700  1.3058
  501MOL0     H67602   6.279  11.881   8.308  1.1566  0.3905  0.1334
  501MOL0     H67603   6.357  11.604   8.212  2.3029 -0.0606  3.0032
  501MOL0     H67604   6.388  11.767   8.133 -1.4623  2.9453  0.8353
  501MOL0     H67605   6.504  11.697   8.409 -2.0548  2.5985  0.3534
  501MOL0     H67606   6.536  11.833   8.312  0.7029 -0.8825  2.4971
  501MOL0     H67607   6.636  11.697   8.130 -0.0963  0.5361 -0.3683
  501MOL0     H67608   6.578  11.551   8.197 -0.1409 -1.1515  3.7142
  501MOL0     H67609   6.796  11.712   8.325  0.5389 -0.1992  0.6779
  501MOL0     H67610   6.702  11.592   8.416 -1.0126 -0.8703 -1.1460
  501MOL0     H67611   6.858  11.532   8.162 -0.3673  1.6575  0.2043
  501MOL0     H67612   6.765  11.416   8.266 -1.6783  0.9426  1.4155
  501MOL0     H67613   6.964  11.585   8.406  1.9645 -0.0847  0.3624
  501MOL0     H67614   6.920  11.410   8.419 -2.9931 -1.7361 -2.2158
  501MOL0     H67615   5.903  11.816   8.623  3.0716  1.8862 -2.1605
  501MOL0     H67616   5.702  11.678   8.614  0.0480  0.6811  1.2380
  501MOL0     H67617   5.468  11.184   8.258  3.6575  3.4213 -0.2525
  501MOL0     H67618   5.243  11.117   8.290  1.4824 -1.0112  2.7155
  501MOL0     H67619   3.376  10.641   8.671 -1.4900 -1.5307  0.1568
  501MOL0     H67620   3.156  10.691   8.596 -0.0701 -1.0194 -0.3748
  501MOL0     H67621   2.870  10.806   8.254 -2.2468  0.3277 -1.3063
  501MOL0     H67622   2.658  10.878   8.187  0.8906 -0.2748 -0.8174
  501MOL0     H67623   2.415  11.243   8.289 -0.5885 -1.1248 -1.4082
  501MOL0     H67624   2.473  11.092   8.382  0.0085 -1.5868  0.1485
  501MOL0     H67625   2.258  11.025   8.284  0.6377 -0.8389  0.6069
  501MOL0     H67626   2.371  10.979   8.163 -1.6487  0.8816 -0.8302
  501MOL0     H67627   2.286  11.171   8.023 -1.7663 -0.3736 -0.3193
  501MOL0     H67628   2.237  11.249   8.170  0.5707 -1.1694  0.6198
  501MOL0     H67629   2.062  11.064   8.200  2.6290  0.7794  1.0983
  501MOL0     H67630   2.040  11.152   8.046 -0.2217 -1.5983 -0.7377
  501MOL0     H67631   2.128  10.790   7.865 -0.6072  1.0326 -0.6573
  501MOL0     H67632   2.741  11.270   8.350 -3.8031 -1.2719  0.0456
  501MOL0     H67633   3.059  11.251   8.417  0.1922 -4.0372 -1.7477
  501MOL0     H67634   2.909  11.322   8.468 -0.7368  0.3555  4.0959
  501MOL0     H67635   2.980  11.181   8.561  0.1230  1.4278  0.0903
  502MOL0     O67636   2.831   8.368   6.755 -0.1587  0.0278  0.2197
  502MOL0     C67637   2.761   8.459   6.805 -0.3355 -0.7582 -1.0057
  502MOL0     O67638   2.816   8.568   6.873  0.3310 -0.5340  0.0823
  502MOL0     C67639   2.942   8.599   6.844 -0.1309  0.4942  0.4744
  502MOL0     C67640   3.031   8.592   6.945  0.0164  0.0852 -0.6931
  502MOL0     C67641   3.165   8.616   6.923 -0.9954 -1.4047 -0.5702
  502MOL0     C67642   3.209   8.658   6.797 -0.9136  0.5357 -0.6196
  502MOL0     O67643   3.340   8.701   6.787 -0.3232 -0.6660 -0.3735
  502MOL0     C67644   3.427   8.609   6.716  0.1883  0.0670 -1.3819
  502MOL0     C67645   3.469   8.641   6.570  0.0357 -0.0293 -0.6294
  502MOL0     C67646   3.567   8.762   6.558  0.5142 -0.9418 -1.0845
  502MOL0     C67647   3.551   8.856   6.431  0.0016  0.2958  0.6795
  502MOL0     C67648   3.407   8.934   6.441 -0.3820 -0.0263  0.4987
  502MOL0     C67649   3.393   9.042   6.321  0.5968  0.2188  0.7589
  502MOL0     C67650   3.325   8.981   6.202 -0.0754  0.0845 -0.0585
  502MOL0     C67651   3.294   9.087   6.093  0.2103  0.1323 -0.7214
  502MOL0     N67652   3.410   9.134   6.019  0.0201  0.4139  0.0506
  502MOL0     C67653   3.479   9.250   6.052 -0.2296  0.8318 -0.0266
  502MOL0     C67654   3.567   9.263   5.948  0.9015 -1.2579  0.3884
  502MOL0     C67655   3.683   9.376   5.928 -0.6963  1.2432  0.3144
  502MOL0     C67656   3.804   9.337   6.006  0.2176  1.3385 -0.5988
  502MOL0     C67657   3.897   9.459   5.992 -0.3211  0.8539  0.4437
  502MOL0     C67658   4.011   9.446   6.091  0.9932  0.9493 -0.3774
  502MOL0     O67659   4.091   9.331   6.053  0.2392 -1.1770 -0.2141
  502MOL0     C67660   4.216   9.330   6.106 -0.1066 -0.5277  0.1206
  502MOL0     C67661   4.266   9.397   6.216 -0.1386  0.6592  0.3661
  502MOL0     C67662   4.403   9.394   6.251  0.2212  0.6358  0.0597
  502MOL0     C67663   4.499   9.334   6.168  0.3150  0.5259 -0.5301
  502MOL0     C67664   4.645   9.343   6.202  0.3487  0.7290 -0.9478
  502MOL0     O67665   4.721   9.258   6.127  0.8465 -0.7749 -0.2143
  502MOL0     C67666   4.850   9.236   6.155 -0.0535  0.1601  0.3348
  502MOL0     C67667   4.949   9.287   6.072 -0.3514 -0.2919 -0.2390
  502MOL0     C67668   5.081   9.250   6.093 -0.0288 -0.6118 -0.2828
  502MOL0     C67669   5.118   9.163   6.198  0.4059 -1.2848 -0.2839
  502MOL0     O67670   5.243   9.118   6.224 -0.3918  0.4370 -0.3405
  502MOL0     C67671   5.353   9.208   6.198  0.1364  0.1508 -0.0704
  502MOL0     C67672   5.479   9.182   6.281  0.2166 -0.5158 -0.0678
  502MOL0     C67673   5.608   9.226   6.209 -0.5988 -0.8084 -0.1568
  502MOL0     C67674   5.648   9.118   6.104 -0.0788 -0.8395 -0.5706
  502MOL0     C67675   5.801   9.103   6.082 -0.0646 -0.6295 -0.5991
  502MOL0     C67676   5.869   9.035   6.205 -0.9065  0.2202  0.4793
  502MOL0     C67677   6.020   9.039   6.166  0.0150  0.6786 -0.9575
  502MOL0     C67678   6.077   9.172   6.212 -0.2996  0.3601 -0.0756
  502MOL0    Cl67679   6.264   9.135   6.226  0.3503 -0.3200  0.4027
  502MOL0     C67680   5.016   9.119   6.286 -0.0356  0.5703 -0.3173
  502MOL0     C67681   4.883   9.157   6.263  0.2629 -0.3628 -0.4642
  502MOL0     O67682   4.690   9.421   6.286  0.5726  0.3236  0.0863
  502MOL0     C67683   4.448   9.261   6.057 -0.5833 -0.8261  0.4265
  502MOL0     C67684   4.310   9.262   6.030 -0.1585 -0.1971 -0.7580
  502MOL0     N67685   3.534   9.175   5.850 -0.0137  0.1490  0.5622
  502MOL0     N67686   3.445   9.090   5.890  0.3408 -0.5432 -0.0041
  502MOL0     C67687   3.121   8.680   6.696 -0.0702  0.3508  0.1979
  502MOL0     C67688   2.985   8.648   6.721 -0.5460  0.0674 -0.3424
  502MOL0     C67689   2.609   8.448   6.808 -0.1191 -0.1666 -0.5971
  502MOL0     C67690   2.543   8.455   6.935 -0.2789  0.2622  0.1402
  502MOL0     C67691   2.403   8.428   6.946 -0.6300 -0.3922 -0.5636
  502MOL0     C67692   2.327   8.410   6.838 -0.1177  0.1931 -0.8571
  502MOL0     O67693   2.189   8.410   6.850 -0.7434  0.0897  0.1954
  502MOL0     C67694   2.126   8.341   6.959 -0.0094  0.0848 -0.4361
  502MOL0     C67695   2.101   8.191   6.923 -0.3886  0.0408 -0.4397
  502MOL0     C67696   2.017   8.178   6.796 -0.2586 -0.2898  0.2974
  502MOL0     C67697   2.104   8.162   6.672 -1.3885 -0.2422 -0.2983
  502MOL0     C67698   2.030   8.175   6.547  0.5091 -0.3268  0.1720
  502MOL0     C67699   1.964   8.190   6.447  1.0399  0.0898 -0.6253
  502MOL0     C67700   2.382   8.415   6.712 -0.8994  0.0483 -0.4595
  502MOL0     C67701   2.520   8.432   6.691  0.1206  0.4519 -0.7636
  502MOL0     C67702   2.581   8.428   6.547  0.2870  0.2865 -0.8222
  502MOL0     H67703   3.012   8.567   7.049 -1.8248 -1.0851 -1.2649
  502MOL0     H67704   3.239   8.612   7.002 -0.9983 -0.8546 -0.5393
  502MOL0     H67705   3.521   8.607   6.773  0.5554 -1.9210 -1.9842
  502MOL0     H67706   3.377   8.513   6.726 -3.2998  1.9581  1.9722
  502MOL0     H67707   3.377   8.665   6.516 -0.9478 -1.4392  0.3406
  502MOL0     H67708   3.499   8.545   6.526 -2.8072 -1.9208  1.2149
  502MOL0     H67709   3.667   8.718   6.558  1.1784  0.4882 -0.3419
  502MOL0     H67710   3.548   8.820   6.648 -1.8990 -0.8061 -1.6067
  502MOL0     H67711   3.635   8.926   6.432  1.4386 -1.3667  0.3560
  502MOL0     H67712   3.561   8.797   6.339 -2.7639  0.8671 -0.0867
  502MOL0     H67713   3.324   8.863   6.438  0.6775 -1.2832 -0.1007
  502MOL0     H67714   3.411   8.997   6.530  0.0612  0.9529 -0.1939
  502MOL0     H67715   3.333   9.126   6.357  0.8318  0.3376  0.8748
  502MOL0     H67716   3.489   9.084   6.290  0.2792 -0.1148 -0.7313
  502MOL0     H67717   3.228   8.936   6.225 -0.4162  0.3804 -0.9059
  502MOL0     H67718   3.399   8.911   6.161  2.1938  0.9665  2.2452
  502MOL0     H67719   3.224   9.042   6.022 -1.4504  0.2188  0.7849
  502MOL0     H67720   3.231   9.162   6.142  0.6305 -1.4733  2.5526
  502MOL0     H67721   3.469   9.309   6.143  2.4905 -1.0496  1.6312
  502MOL0     H67722   3.700   9.365   5.821  0.1120  1.2218  0.4433
  502MOL0     H67723   3.641   9.477   5.943 -0.2183  1.1967  2.3480
  502MOL0     H67724   3.778   9.313   6.109  2.0295 -1.0317 -0.6066
  502MOL0     H67725   3.850   9.248   5.963  2.5720  1.5329  1.3264
  502MOL0     H67726   3.839   9.552   5.998  2.2544  2.7966 -1.9726
  502MOL0     H67727   3.939   9.469   5.891  0.3976  0.9047  0.7410
  502MOL0     H67728   3.953   9.423   6.181 -0.5892  3.6207 -0.6003
  502MOL0     H67729   4.072   9.537   6.101  1.3656  0.6864 -0.2261
  502MOL0     H67730   4.202   9.452   6.284  1.4443  3.1081  0.0013
  502MOL0     H67731   4.436   9.423   6.351 -0.5008 -2.6144  1.3626
  502MOL0     H67732   4.921   9.353   5.991 -0.9960  0.8552  0.8872
  502MOL0     H67733   5.152   9.291   6.022  0.2682  0.1334  0.4240
  502MOL0     H67734   5.376   9.199   6.091 -1.5325 -0.4107 -0.4200
  502MOL0     H67735   5.312   9.307   6.222 -1.2451 -0.7769  1.5840
  502MOL0     H67736   5.463   9.246   6.369  0.7593 -0.5896  0.0867
  502MOL0     H67737   5.481   9.077   6.311  1.9234 -0.2038  1.0470
  502MOL0     H67738   5.591   9.323   6.162  1.8321 -1.3746 -2.4663
  502MOL0     H67739   5.690   9.237   6.281 -1.0594 -2.2012  0.6267
  502MOL0     H67740   5.603   9.149   6.009  2.0817  0.3963 -1.2632
  502MOL0     H67741   5.605   9.021   6.128  1.1287 -1.7894 -2.0714
  502MOL0     H67742   5.840   9.203   6.066 -0.6114  0.1756  2.4874
  502MOL0     H67743   5.829   9.051   5.990  4.7797  0.4023  0.0296
  502MOL0     H67744   5.829   9.085   6.294 -3.7200  1.3500 -1.2585
  502MOL0     H67745   5.843   8.929   6.207  2.4346 -0.8767 -2.9309
  502MOL0     H67746   6.043   9.023   6.060 -0.8504 -0.0758 -1.0472
  502MOL0     H67747   6.073   8.971   6.233 -3.9351  0.2197  2.1139
  502MOL0     H67748   6.046   9.242   6.134 -0.5453  0.4500  0.1047
  502MOL0     H67749   6.041   9.204   6.310  0.8126 -1.0532  0.8409
  502MOL0     H67750   5.040   9.053   6.369 -0.2050 -0.9880 -1.4659
  502MOL0     H67751   4.802   9.107   6.315 -0.3803  1.4506  0.3696
  502MOL0     H67752   4.521   9.221   5.988 -0.3293 -0.2198  0.3411
  502MOL0     H67753   4.257   9.212   5.950  1.7894 -0.3197 -2.0405
  502MOL0     H67754   3.157   8.715   6.599 -1.2818  0.3655 -0.2583
  502MOL0     H67755   2.916   8.664   6.639 -2.5774  1.4110  1.5297
  502MOL0     H67756   2.601   8.484   7.022 -0.1131  1.6937 -0.4190
  502MOL0     H67757   2.364   8.437   7.047  0.4326  1.7192 -0.2857
  502MOL0     H67758   2.028   8.386   6.975 -0.9155 -1.2194 -1.9834
  502MOL0     H67759   2.188   8.341   7.049 -0.1577  2.6320 -0.2764
  502MOL0     H67760   2.044   8.139   7.001 -0.0757  1.4989  0.8322
  502MOL0     H67761   2.197   8.142   6.907 -0.9751 -0.7381 -1.6549
  502MOL0     H67762   1.944   8.260   6.796 -0.5598 -0.5587  0.7082
  502MOL0     H67763   1.952   8.090   6.800 -2.7763  1.4169 -0.5896
  502MOL0     H67764   2.180   8.239   6.658 -2.4123  0.5234 -1.8664
  502MOL0     H67765   2.160   8.068   6.665 -1.5286 -0.2815 -0.9642
  502MOL0     H67766   1.914   8.193   6.352 -3.1568 -0.1812  1.3342
  502MOL0     H67767   2.317   8.395   6.628 -1.7941 -2.7622  0.7957
  502MOL0     H67768   2.665   8.497   6.539 -0.0882  1.7065  4.2822
  502MOL0     H67769   2.622   8.328   6.531  0.2197 -0.0097  0.7433
  502MOL0     H67770   2.500   8.454   6.477 -1.1119 -0.4168  0.4644
  503MOL0     O67771   7.242   3.377   2.743  1.1038 -0.4876 -0.1056
  503MOL0     C67772   7.230   3.315   2.639  0.7838 -0.3986  0.5310
  503MOL0     O67773   7.336   3.269   2.564  0.8899  0.6577  0.6086
  503MOL0     C67774   7.454   3.261   2.632 -0.1412  0.0041 -0.1681
  503MOL0     C67775   7.552   3.356   2.630  0.7814 -0.9859 -0.0155
  503MOL0     C67776   7.665   3.344   2.703 -0.6843 -0.4862  0.3344
  503MOL0     C67777   7.682   3.239   2.792  0.4380  0.6660  0.5985
  503MOL0     O67778   7.787   3.211   2.875  0.4033 -0.4588 -0.2210
  503MOL0     C67779   7.904   3.282   2.833 -0.2453 -0.7618 -0.6800
  503MOL0     C67780   8.021   3.179   2.858  0.4351 -0.3011  0.0392
  503MOL0     C67781   8.124   3.243   2.950 -0.8824  0.4112 -0.3210
  503MOL0     C67782   8.243   3.156   2.986  0.8542 -0.0709  0.3199
  503MOL0     C67783   8.356   3.223   3.049 -0.6549 -0.3465 -0.4781
  503MOL0     C67784   8.474   3.123   3.042  0.5687  0.5840 -0.0410
  503MOL0     C67785   8.583   3.163   3.149  0.7015 -0.0777 -0.1272
  503MOL0     C67786   8.697   3.246   3.089 -0.0325  0.1012  0.0030
  503MOL0     N67787   8.795   3.235   3.197 -0.3341 -0.2125  0.9036
  503MOL0     C67788   8.817   3.308   3.310 -0.2630  0.3897 -1.3456
  503MOL0     C67789   8.929   3.245   3.363 -0.2428  0.1804  0.0247
  503MOL0     C67790   9.008   3.268   3.487  0.4759 -0.8583  1.0831
  503MOL0     C67791   8.933   3.231   3.622  0.2761 -0.1291  0.2054
  503MOL0     C67792   8.846   3.344   3.680 -0.0220 -0.2422 -0.4914
  503MOL0     C67793   8.922   3.435   3.768  0.2326 -0.2704  0.3962
  503MOL0     O67794   8.986   3.373   3.880  0.1857 -0.8124  0.6538
  503MOL0     C67795   9.063   3.450   3.957 -0.7048 -0.5794 -0.4382
  503MOL0     C67796   9.075   3.595   3.954 -0.7989  0.1820  0.6477
  503MOL0     C67797   9.164   3.664   4.041 -0.3593  0.3140  0.3683
  503MOL0     C67798   9.229   3.591   4.144  0.0001 -0.9348 -0.5576
  503MOL0     C67799   9.294   3.666   4.249 -0.3110  0.7701 -0.2029
  503MOL0     O67800   9.367   3.589   4.339 -0.1102  0.2072 -1.3756
  503MOL0     C67801   9.457   3.647   4.436  0.0759  0.1173 -0.7580
  503MOL0     C67802   9.594   3.613   4.438 -0.1522 -0.4389 -0.0258
  503MOL0     C67803   9.679   3.673   4.536  0.2640  0.4353 -0.6368
  503MOL0     C67804   9.630   3.769   4.627 -0.6761 -0.7236  0.8442
  503MOL0     O67805   9.702   3.837   4.722  0.2512 -0.0327  0.0499
  503MOL0     C67806   9.836   3.797   4.750 -0.4145 -0.5631 -0.7848
  503MOL0     C67807   9.899   3.902   4.835  0.0720 -0.1435 -0.2517
  503MOL0     C67808   9.842   3.901   4.977  0.4328  0.3774 -0.4872
  503MOL0     C67809   9.915   4.016   5.059 -0.0715  0.2151  0.1464
  503MOL0     C67810   9.857   4.047   5.200 -0.5776 -1.4563 -0.1966
  503MOL0     C67811   9.719   4.109   5.195  0.0581  0.2060  0.1187
  503MOL0     C67812   9.673   4.130   5.338  0.3878  0.7067 -1.0220
  503MOL0     C67813   9.529   4.189   5.346  1.1162 -0.2934 -0.5741
  503MOL0    Cl67814   9.548   4.369   5.310  0.2086  0.1823  0.2351
  503MOL0     C67815   9.499   3.800   4.624  0.4464  1.0124  0.8146
  503MOL0     C67816   9.415   3.741   4.525 -0.0513 -0.3241 -0.4093
  503MOL0     O67817   9.273   3.787   4.260  0.5332  0.1298 -0.3636
  503MOL0     C67818   9.225   3.451   4.144 -0.0008  0.3958  0.7881
  503MOL0     C67819   9.149   3.382   4.048 -0.2759  0.0160  0.0591
  503MOL0     N67820   8.977   3.153   3.274 -0.3898 -0.3095 -0.3112
  503MOL0     N67821   8.899   3.150   3.177 -0.3091 -0.9605  0.3389
  503MOL0     C67822   7.591   3.128   2.787 -1.1974  0.0043 -0.6820
  503MOL0     C67823   7.477   3.143   2.715  0.0465 -0.0691 -0.5581
  503MOL0     C67824   7.091   3.282   2.594  0.1771 -0.0371  0.2221
  503MOL0     C67825   6.989   3.356   2.652  0.6422 -0.9177 -0.0023
  503MOL0     C67826   6.854   3.336   2.617 -0.5331 -0.0814  0.1249
  503MOL0     C67827   6.817   3.238   2.519  0.1867 -0.2613  0.9370
  503MOL0     O67828   6.685   3.201   2.493  0.3167 -0.3869  0.4116
  503MOL0     C67829   6.589   3.304   2.471 -0.1832 -0.6914 -0.0832
  503MOL0     C67830   6.466   3.253   2.398  0.7013  0.7633 -0.1763
  503MOL0     C67831   6.360   3.190   2.485 -0.1764 -0.2810 -0.4631
  503MOL0     C67832   6.408   3.065   2.562 -0.0707 -1.1735  0.2256
  503MOL0     C67833   6.296   2.990   2.619  0.0628  0.5662 -0.0301
  503MOL0     C67834   6.214   2.924   2.677  0.0267 -0.0786  0.7333
  503MOL0     C67835   6.920   3.161   2.460 -0.5516 -0.3039  0.2471
  503MOL0     C67836   7.057   3.179   2.493 -0.8466 -0.4786 -0.3655
  503MOL0     C67837   7.167   3.098   2.418 -0.2664 -0.3615  0.7400
  503MOL0     H67838   7.543   3.451   2.579 -0.1456 -0.6761  0.6802
  503MOL0     H67839   7.731   3.430   2.702 -2.1733  0.7007 -2.2375
  503MOL0     H67840   7.905   3.316   2.729  0.0352  0.8140 -0.1926
  503MOL0     H67841   7.918   3.370   2.896 -0.2562  0.1068 -1.8606
  503MOL0     H67842   8.066   3.161   2.760 -0.0367 -0.4581 -0.1520
  503MOL0     H67843   7.981   3.088   2.903  1.9008 -1.3946 -0.8199
  503MOL0     H67844   8.077   3.270   3.045  0.0652  0.2048  0.2160
  503MOL0     H67845   8.171   3.333   2.910  4.4403 -1.3802  1.1138
  503MOL0     H67846   8.199   3.079   3.050  1.4566  0.6174  1.6111
  503MOL0     H67847   8.278   3.112   2.892  0.6318 -0.7327  0.5412
  503MOL0     H67848   8.392   3.312   2.997  3.2392 -1.9360 -0.8309
  503MOL0     H67849   8.335   3.256   3.152  0.7854  0.5316 -0.4477
  503MOL0     H67850   8.442   3.023   3.073 -0.8202  0.2498 -2.3271
  503MOL0     H67851   8.527   3.127   2.947 -0.0939  2.0268 -0.3754
  503MOL0     H67852   8.624   3.068   3.186 -1.0464 -2.2256 -3.2229
  503MOL0     H67853   8.537   3.221   3.230  2.5914 -1.7634  2.3030
  503MOL0     H67854   8.740   3.214   2.994 -0.0815  0.8627 -0.2841
  503MOL0     H67855   8.661   3.349   3.081  0.0203  0.1135 -0.0809
  503MOL0     H67856   8.763   3.394   3.348 -0.0208  1.4260 -3.2357
  503MOL0     H67857   9.096   3.204   3.484 -1.8006 -4.2160 -0.2079
  503MOL0     H67858   9.033   3.374   3.496 -1.8180 -0.2334  0.9152
  503MOL0     H67859   8.869   3.146   3.598 -1.0643  1.0621 -0.6199
  503MOL0     H67860   8.999   3.194   3.700  0.7927  0.5943  0.1230
  503MOL0     H67861   8.762   3.299   3.734  0.4307  0.5338  0.9046
  503MOL0     H67862   8.802   3.406   3.601 -2.7478  0.6633  1.6003
  503MOL0     H67863   8.863   3.519   3.806 -0.1698 -1.5330  2.8000
  503MOL0     H67864   8.996   3.481   3.702  1.4601  0.8459  2.4280
  503MOL0     H67865   9.015   3.659   3.890 -1.1328 -0.9503 -0.1960
  503MOL0     H67866   9.168   3.772   4.032  2.1371  0.1207 -2.5355
  503MOL0     H67867   9.642   3.541   4.373 -0.4302 -1.2482  0.6447
  503MOL0     H67868   9.782   3.641   4.534  0.3488  0.4331  1.5732
  503MOL0     H67869   9.831   3.697   4.794 -1.5655 -0.4600 -0.6594
  503MOL0     H67870   9.889   3.794   4.655 -0.5217  0.1166 -0.8739
  503MOL0     H67871  10.003   3.873   4.852  0.4655  0.7587 -1.0342
  503MOL0     H67872   9.896   3.998   4.783  0.3822 -1.9504 -3.8685
  503MOL0     H67873   9.739   3.934   4.964  0.1909 -0.1542  0.0080
  503MOL0     H67874   9.854   3.802   5.023 -1.8382  0.6289  0.8200
  503MOL0     H67875   9.927   4.104   4.995  0.9138 -1.3645 -1.9614
  503MOL0     H67876  10.014   3.974   5.078  0.7323  2.3752  1.0617
  503MOL0     H67877   9.928   4.120   5.241 -3.3182  1.1878  0.1569
  503MOL0     H67878   9.857   3.959   5.265 -1.4113 -1.4427 -0.1752
  503MOL0     H67879   9.722   4.207   5.147  3.8225  2.1024  3.5765
  503MOL0     H67880   9.647   4.047   5.141  0.0406  0.2028  0.1445
  503MOL0     H67881   9.742   4.203   5.382  1.0524  0.8147 -2.1996
  503MOL0     H67882   9.688   4.037   5.393  2.1093  0.3171 -2.0517
  503MOL0     H67883   9.474   4.141   5.265  1.2891  2.4626 -2.4588
  503MOL0     H67884   9.489   4.173   5.447  1.8609 -0.3602 -0.2878
  503MOL0     H67885   9.461   3.882   4.685 -0.6826 -0.6775  2.4801
  503MOL0     H67886   9.310   3.765   4.522  0.0230 -0.0548 -1.9072
  503MOL0     H67887   9.275   3.398   4.225  1.0371 -0.5344 -0.4038
  503MOL0     H67888   9.150   3.274   4.033  0.9019  0.3680 -3.0305
  503MOL0     H67889   7.612   3.047   2.856 -1.0335 -0.4518 -1.2580
  503MOL0     H67890   7.399   3.068   2.727 -1.0295  1.3051  1.9758
  503MOL0     H67891   6.998   3.440   2.721 -4.2220 -0.2159  0.1283
  503MOL0     H67892   6.780   3.392   2.673 -1.1185  0.5078 -1.2023
  503MOL0     H67893   6.642   3.378   2.410 -1.1295  1.6172  1.7341
  503MOL0     H67894   6.560   3.353   2.565 -2.3704 -0.6834 -0.6966
  503MOL0     H67895   6.497   3.188   2.315  0.2748  1.6302 -1.0343
  503MOL0     H67896   6.417   3.335   2.345  0.9516  2.9893  2.8166
  503MOL0     H67897   6.262   3.174   2.439 -0.3463  0.2345 -0.2883
  503MOL0     H67898   6.345   3.255   2.571 -1.5311 -0.8425 -0.2488
  503MOL0     H67899   6.467   3.011   2.487 -0.8971  0.8426 -2.0057
  503MOL0     H67900   6.477   3.088   2.644  2.7795  0.3906 -2.3751
  503MOL0     H67901   6.134   2.870   2.723 -1.3017  0.5841 -0.7027
  503MOL0     H67902   6.895   3.081   2.391 -0.1022 -1.0293  0.9138
  503MOL0     H67903   7.229   3.156   2.350  0.1561 -0.6737  0.8543
  503MOL0     H67904   7.225   3.039   2.490  0.8286  0.8447  0.8792
  503MOL0     H67905   7.116   3.026   2.353  0.5404  0.3210 -0.6808
  504MOL0     O67906   7.355   8.128   7.539 -0.3433  0.5592 -0.5251
  504MOL0     C67907   7.332   8.020   7.583  0.4920  0.6286  0.1296
  504MOL0     O67908   7.416   7.952   7.655  0.1314 -0.0225 -0.1362
  504MOL0     C67909   7.550   7.983   7.662 -0.5042 -0.0536 -0.0495
  504MOL0     C67910   7.613   7.937   7.781 -0.3956 -0.0587  0.3174
  504MOL0     C67911   7.753   7.953   7.797 -0.0695  0.4640 -0.2942
  504MOL0     C67912   7.836   8.023   7.707  1.1560  0.0799 -0.6447
  504MOL0     O67913   7.963   8.055   7.734 -0.0484 -0.1917  0.2761
  504MOL0     C67914   7.994   8.185   7.787  0.4381 -0.2936 -0.8013
  504MOL0     C67915   8.106   8.190   7.891  1.4328  0.1302 -0.1350
  504MOL0     C67916   8.209   8.088   7.872  0.7192  0.4505  0.0372
  504MOL0     C67917   8.316   8.101   7.981 -0.0452  0.0148 -0.4136
  504MOL0     C67918   8.445   8.114   7.896 -0.6611  0.8342  0.0047
  504MOL0     C67919   8.561   8.109   7.995 -0.1565  0.0895  0.1329
  504MOL0     C67920   8.698   8.130   7.945  1.0444  0.1356  0.1055
  504MOL0     C67921   8.805   8.123   8.060  0.4911 -0.3744  0.2214
  504MOL0     N67922   8.942   8.122   8.014  0.1253 -0.3049  0.2601
  504MOL0     C67923   8.994   8.200   7.919 -0.2268 -0.0932 -0.8327
  504MOL0     C67924   9.127   8.170   7.924 -0.6628  0.3005 -0.0513
  504MOL0     C67925   9.218   8.244   7.823  0.1263  0.3315 -0.6379
  504MOL0     C67926   9.262   8.152   7.702 -0.2020 -1.0353  0.3579
  504MOL0     C67927   9.370   8.046   7.735  0.5913  0.3439  0.0230
  504MOL0     C67928   9.472   8.088   7.833  0.0817  0.7887  0.1464
  504MOL0     O67929   9.568   7.977   7.825  0.2461  0.5655  0.7210
  504MOL0     C67930   9.698   8.010   7.867  0.5167 -0.6702  0.8478
  504MOL0     C67931   9.798   7.936   7.811  0.5489  1.0478  0.2201
  504MOL0     C67932   9.934   7.967   7.839  0.3881  0.5978 -0.1390
  504MOL0     C67933   9.967   8.070   7.920 -0.3789  0.3932 -0.0501
  504MOL0     C67934  10.103   8.115   7.944  1.1937 -0.3423  0.1169
  504MOL0     O67935  10.204   8.066   7.867 -0.2053  0.3617  0.1917
  504MOL0     C67936  10.333   8.078   7.903 -0.5165  0.2531 -0.4781
  504MOL0     C67937  10.424   8.103   7.805 -0.0581  1.4369 -0.1675
  504MOL0     C67938  10.565   8.119   7.832 -0.3237  0.3424  0.3806
  504MOL0     C67939  10.608   8.107   7.960  0.2132  0.2109  0.1046
  504MOL0     O67940  10.749   8.112   7.996 -0.2397 -0.6528  0.1928
  504MOL0     C67941  10.847   8.173   7.899 -0.4109  1.1007 -0.1360
  504MOL0     C67942  10.986   8.211   7.955  0.2319 -0.3404  0.1760
  504MOL0     C67943  11.086   8.242   7.847  0.4799  0.0278  0.2416
  504MOL0     C67944  11.212   8.320   7.892 -0.1236  0.0752  0.4537
  504MOL0     C67945  11.258   8.401   7.772 -0.2100 -0.5181 -0.4271
  504MOL0     C67946  11.395   8.461   7.808 -0.3854 -0.0211 -0.9569
  504MOL0     C67947  11.515   8.370   7.803 -1.1165  0.1604 -0.6364
  504MOL0     C67948  11.538   8.328   7.666 -0.0151 -0.0960  0.2603
  504MOL0    Cl67949  11.591   8.464   7.559  0.0812  0.2800  0.0261
  504MOL0     C67950  10.527   8.073   8.063  0.0961 -0.3547 -0.5554
  504MOL0     C67951  10.385   8.062   8.036  0.2917  0.2931  0.3870
  504MOL0     O67952  10.113   8.196   8.031  0.2888  0.0451 -0.1581
  504MOL0     C67953   9.862   8.147   7.972  0.0883 -0.7357 -0.4453
  504MOL0     C67954   9.727   8.118   7.953  0.6499  0.8385  0.0578
  504MOL0     N67955   9.162   8.092   8.029  0.9202  0.2191  0.9454
  504MOL0     N67956   9.046   8.061   8.082 -1.5992 -0.1588 -0.3793
  504MOL0     C67957   7.773   8.075   7.597  0.0051  0.5290  0.1508
  504MOL0     C67958   7.632   8.057   7.575  0.2502  0.1933  0.9204
  504MOL0     C67959   7.201   7.939   7.559  0.8213 -1.1546  1.3353
  504MOL0     C67960   7.186   7.808   7.608  0.0523  0.3893  0.1123
  504MOL0     C67961   7.069   7.735   7.588 -0.0518  0.3037  0.6089
  504MOL0     C67962   6.962   7.781   7.514 -0.3937 -0.4499 -0.2137
  504MOL0     O67963   6.851   7.702   7.491  0.2731 -0.1359  0.0654
  504MOL0     C67964   6.873   7.567   7.446  0.5044 -0.6475 -0.3622
  504MOL0     C67965   6.804   7.464   7.538 -0.2842 -0.0387 -0.4157
  504MOL0     C67966   6.656   7.482   7.544  0.4294  0.0337  0.4154
  504MOL0     C67967   6.573   7.515   7.422  0.0217 -0.3394  0.7462
  504MOL0     C67968   6.579   7.420   7.307  0.1108 -0.1024  0.6118
  504MOL0     C67969   6.551   7.337   7.223  0.1619  0.0608  0.1124
  504MOL0     C67970   6.963   7.910   7.479  0.0328 -1.1431  0.3698
  504MOL0     C67971   7.080   7.988   7.493  0.4781 -0.2244  0.8973
  504MOL0     C67972   7.077   8.133   7.435 -0.2683  0.7867  0.0026
  504MOL0     H67973   7.565   7.882   7.860 -1.9267  0.9407  0.1370
  504MOL0     H67974   7.803   7.915   7.885 -0.1497  2.6650  0.7573
  504MOL0     H67975   7.996   8.255   7.702 -0.3257  0.3664 -0.3006
  504MOL0     H67976   7.911   8.229   7.843  0.9080 -0.9838  0.4804
  504MOL0     H67977   8.071   8.184   7.994  2.0847 -0.5487  0.0611
  504MOL0     H67978   8.148   8.290   7.882  0.7241  0.3487 -1.1280
  504MOL0     H67979   8.255   8.088   7.773  0.3704  2.2971 -0.1426
  504MOL0     H67980   8.158   7.992   7.886  1.6574  0.0737  1.1195
  504MOL0     H67981   8.291   8.183   8.049  1.9858  0.7092 -0.4286
  504MOL0     H67982   8.327   8.008   8.038  1.0996 -0.1444 -0.8664
  504MOL0     H67983   8.465   8.043   7.815 -2.4411  1.0246 -0.6504
  504MOL0     H67984   8.455   8.216   7.858  0.1143  2.4078  3.9849
  504MOL0     H67985   8.547   8.178   8.079 -0.0609 -3.8131  3.7005
  504MOL0     H67986   8.554   8.007   8.033 -2.5146 -0.5544 -1.7861
  504MOL0     H67987   8.687   8.228   7.896  1.2168  1.3336  2.3306
  504MOL0     H67988   8.728   8.060   7.867  2.5321  1.4171 -0.5224
  504MOL0     H67989   8.801   8.205   8.132  1.1725  1.0841 -1.3160
  504MOL0     H67990   8.784   8.030   8.113 -0.1856 -1.5797 -2.0300
  504MOL0     H67991   8.953   8.275   7.853 -2.6127  0.1614  0.8205
  504MOL0     H67992   9.171   8.334   7.782  1.2129  0.0792 -2.5562
  504MOL0     H67993   9.311   8.278   7.870 -0.1382  1.5051 -0.9327
  504MOL0     H67994   9.169   8.106   7.669 -1.6515 -0.2444  3.0263
  504MOL0     H67995   9.298   8.218   7.623  3.4003 -1.8679  1.1028
  504MOL0     H67996   9.419   8.008   7.645  1.1158  1.0386  0.0055
  504MOL0     H67997   9.323   7.958   7.780  3.1619 -0.6177  1.0075
  504MOL0     H67998   9.422   8.088   7.930 -1.6148 -3.7816 -0.4422
  504MOL0     H67999   9.508   8.190   7.821  2.8106  0.0827  1.5634
  504MOL0     H68000   9.754   7.863   7.744 -1.5398  1.7371  0.7473
  504MOL0     H68001  10.017   7.915   7.791 -1.5132 -1.5836 -1.2349
  504MOL0     H68002  10.377   8.113   7.707 -1.7499 -0.3062  0.3998
  504MOL0     H68003  10.635   8.138   7.751 -0.6922 -0.5358 -0.1612
  504MOL0     H68004  10.870   8.113   7.811 -0.6518  2.0133 -0.8461
  504MOL0     H68005  10.817   8.272   7.862  0.3867  1.0776 -0.8628
  504MOL0     H68006  10.982   8.293   8.028  3.6890 -0.2036  0.3728
  504MOL0     H68007  11.029   8.131   8.015  0.0249 -0.9939 -0.5358
  504MOL0     H68008  11.122   8.153   7.796  1.0011  1.2537 -1.6342
  504MOL0     H68009  11.025   8.304   7.780 -0.5248  0.1836  1.2593
  504MOL0     H68010  11.289   8.246   7.918 -1.1705 -1.4182 -0.5018
  504MOL0     H68011  11.195   8.386   7.977 -0.2869  0.8155 -0.1473
  504MOL0     H68012  11.192   8.487   7.762 -0.0752 -0.4409 -0.6616
  504MOL0     H68013  11.258   8.341   7.681  0.9912 -2.7011  0.9131
  504MOL0     H68014  11.420   8.549   7.748  2.0692  1.8366  2.4347
  504MOL0     H68015  11.382   8.492   7.913  1.7574  2.3531 -1.2899
  504MOL0     H68016  11.507   8.279   7.864  2.3393 -2.1111 -3.2298
  504MOL0     H68017  11.602   8.423   7.842 -1.6969 -1.3029  3.1436
  504MOL0     H68018  11.616   8.250   7.667 -0.2520 -0.3964 -1.3160
  504MOL0     H68019  11.448   8.280   7.626  0.1873  2.1710 -3.4441
  504MOL0     H68020  10.572   8.045   8.157  1.6110  0.6208 -0.9634
  504MOL0     H68021  10.320   8.039   8.120  1.6631  1.7375  1.9053
  504MOL0     H68022   9.888   8.236   8.028 -1.7529  1.4758 -2.8254
  504MOL0     H68023   9.647   8.184   7.984  1.4491  3.1638 -2.3723
  504MOL0     H68024   7.832   8.124   7.520  2.0424 -0.9064  0.7255
  504MOL0     H68025   7.579   8.109   7.495 -2.1455 -3.3804 -0.0680
  504MOL0     H68026   7.256   7.748   7.666 -0.8637  0.4705  1.3388
  504MOL0     H68027   7.069   7.630   7.619 -1.4143 -1.2881 -3.9916
  504MOL0     H68028   6.982   7.554   7.447  1.1636  3.6194  0.6044
  504MOL0     H68029   6.837   7.566   7.343 -2.8549  1.4352  0.6643
  504MOL0     H68030   6.838   7.473   7.642  0.0480 -0.8501 -0.4504
  504MOL0     H68031   6.829   7.362   7.510  4.1177  1.0079 -0.9338
  504MOL0     H68032   6.641   7.574   7.601  1.5059  0.6338 -0.2319
  504MOL0     H68033   6.618   7.389   7.589 -0.1572  0.8143  1.5837
  504MOL0     H68034   6.469   7.518   7.457 -0.0068 -0.6889  0.6994
  504MOL0     H68035   6.599   7.614   7.385  0.5296 -0.4826  0.7090
  504MOL0     H68036   6.526   7.261   7.151  3.4182  0.1339 -1.2725
  504MOL0     H68037   6.868   7.952   7.446  2.2225  2.2637 -2.3044
  504MOL0     H68038   7.174   8.174   7.404 -0.9439  1.0221 -1.9521
  504MOL0     H68039   7.014   8.132   7.345  0.4386  3.1621 -0.5975
  504MOL0     H68040   7.028   8.200   7.507 -1.9153  1.8831 -2.0133
  505MOL0     O68041   7.339   8.599   0.632  0.2536  0.1734 -0.1208
  505MOL0     C68042   7.280   8.705   0.590  0.1054 -0.2886 -0.5598
  505MOL0     O68043   7.347   8.830   0.566 -0.6650  0.1048 -0.1200
  505MOL0     C68044   7.479   8.837   0.586  0.6839  0.6357 -0.4313
  505MOL0     C68045   7.575   8.788   0.501 -0.0665  0.5280 -0.0868
  505MOL0     C68046   7.717   8.804   0.522  0.0131  0.2204 -0.2545
  505MOL0     C68047   7.757   8.849   0.651 -0.7761  0.0434  0.4259
  505MOL0     O68048   7.895   8.833   0.678  0.0241  0.3947  0.2104
  505MOL0     C68049   7.924   8.752   0.794 -0.2821 -0.2564 -0.6518
  505MOL0     C68050   8.024   8.811   0.892  0.1004 -0.1607  0.5436
  505MOL0     C68051   7.960   8.853   1.020 -0.6261 -0.0347  0.3608
  505MOL0     C68052   8.069   8.934   1.106 -0.1292 -0.0414 -0.0989
  505MOL0     C68053   8.103   9.076   1.052 -0.2659  0.0848  0.6346
  505MOL0     C68054   8.233   9.135   1.119  0.1753 -0.6017  0.4844
  505MOL0     C68055   8.221   9.138   1.268 -0.7003  1.0479 -1.0784
  505MOL0     C68056   8.111   9.239   1.327 -0.0021  0.2065 -1.2212
  505MOL0     N68057   8.173   9.374   1.338  0.4606  0.7546 -0.9855
  505MOL0     C68058   8.224   9.449   1.441  0.3346 -0.3238 -0.4144
  505MOL0     C68059   8.242   9.571   1.390 -0.2438 -0.5994  0.2873
  505MOL0     C68060   8.275   9.687   1.480  0.1387  0.5626  0.0265
  505MOL0     C68061   8.425   9.709   1.494  0.8369  0.4861  0.4750
  505MOL0     C68062   8.433   9.841   1.578  0.2955 -0.2060 -0.7655
  505MOL0     C68063   8.578   9.894   1.579  0.4277  0.2946  0.5732
  505MOL0     O68064   8.671   9.794   1.609  0.5535  0.4814  0.7593
  505MOL0     C68065   8.804   9.833   1.612  0.9205  0.5439  0.1800
  505MOL0     C68066   8.891   9.738   1.644 -0.1060  0.0069  0.5723
  505MOL0     C68067   9.028   9.760   1.654  0.0563  0.3808  0.0425
  505MOL0     C68068   9.081   9.888   1.645 -0.3716 -0.4898 -0.4961
  505MOL0     C68069   9.221   9.917   1.668 -0.2341 -0.2244  0.3528
  505MOL0     O68070   9.276  10.020   1.599 -0.3416  0.5976  0.1635
  505MOL0     C68071   9.404  10.062   1.632  0.5420 -0.1000 -0.3427
  505MOL0     C68072   9.412  10.183   1.706  0.1880  0.0682  0.0763
  505MOL0     C68073   9.536  10.230   1.750 -0.7721 -0.2383  0.3336
  505MOL0     C68074   9.652  10.157   1.712  0.5374  0.4251 -0.3627
  505MOL0     O68075   9.784  10.170   1.755  0.1184  0.6469 -0.5975
  505MOL0     C68076   9.816  10.257   1.860 -0.0716  0.0073  0.2448
  505MOL0     C68077   9.973  10.286   1.854 -0.2597 -0.4286 -0.4376
  505MOL0     C68078  10.035  10.333   1.991 -0.1962  0.1946  0.4729
  505MOL0     C68079  10.180  10.304   2.001 -1.1807 -0.4321 -0.5986
  505MOL0     C68080  10.240  10.329   2.146 -0.1444 -1.0963  0.1094
  505MOL0     C68081  10.390  10.318   2.159  0.5177  0.2123 -0.6144
  505MOL0     C68082  10.475  10.403   2.063  0.2790  1.3449 -1.1221
  505MOL0     C68083  10.626  10.399   2.113 -0.3657  0.0596 -0.0675
  505MOL0    Cl68084  10.622  10.496   2.259 -0.2371  0.5029 -0.8602
  505MOL0     C68085   9.635  10.037   1.633 -0.1206 -0.7367 -0.6280
  505MOL0     C68086   9.515   9.991   1.603 -0.9102 -0.1397  0.1978
  505MOL0     O68087   9.275   9.848   1.755 -0.8828  0.5529  0.5920
  505MOL0     C68088   8.992   9.990   1.607 -0.0263 -0.1070  0.1070
  505MOL0     C68089   8.853   9.964   1.589  0.2434 -0.2354 -0.5393
  505MOL0     N68090   8.204   9.570   1.258  0.0185 -0.6093  0.0032
  505MOL0     N68091   8.167   9.449   1.227  0.7642 -0.7225 -0.3891
  505MOL0     C68092   7.665   8.896   0.747 -0.1598  0.2263  0.1667
  505MOL0     C68093   7.526   8.891   0.714  0.6892 -0.6621  0.3382
  505MOL0     C68094   7.141   8.708   0.573  0.0594 -0.2867  0.3238
  505MOL0     C68095   7.076   8.839   0.564 -0.2855 -0.5621  0.6979
  505MOL0     C68096   6.939   8.854   0.572 -0.1065  0.0670 -0.3071
  505MOL0     C68097   6.852   8.756   0.589 -0.0334 -0.7422  0.4177
  505MOL0     O68098   6.722   8.793   0.606 -0.0870  0.3576 -0.0041
  505MOL0     C68099   6.632   8.689   0.637  0.2910 -0.5575  0.3785
  505MOL0     C68100   6.482   8.740   0.649 -0.2355 -0.2943  0.9202
  505MOL0     C68101   6.474   8.836   0.764  1.3076  1.0415 -0.4431
  505MOL0     C68102   6.363   8.938   0.751  0.3634 -0.2386  0.7557
  505MOL0     C68103   6.233   8.868   0.746 -0.7072  0.4340 -0.4556
  505MOL0     C68104   6.132   8.807   0.758  0.0061  0.9191  0.7187
  505MOL0     C68105   6.907   8.618   0.586 -0.4188 -1.1931 -0.2991
  505MOL0     C68106   7.052   8.601   0.580 -0.6764 -0.2355  0.2285
  505MOL0     C68107   7.094   8.456   0.589  0.2110  0.4462  0.2219
  505MOL0     H68108   7.549   8.745   0.405  1.7304 -1.5838  0.3153
  505MOL0     H68109   7.787   8.786   0.442  2.4394 -0.1145  1.8233
  505MOL0     H68110   7.837   8.709   0.845 -2.0336 -0.2710 -3.4643
  505MOL0     H68111   7.972   8.664   0.753  1.8283 -0.3950  1.8702
  505MOL0     H68112   8.074   8.890   0.835 -1.8875 -1.9957 -4.2177
  505MOL0     H68113   8.103   8.739   0.918 -0.7207 -2.1604 -2.1346
  505MOL0     H68114   7.913   8.765   1.065 -0.2788 -0.9394 -0.9865
  505MOL0     H68115   7.875   8.917   0.996 -1.2874 -0.3959  1.6703
  505MOL0     H68116   8.030   8.938   1.208  0.9947  0.0607  0.3399
  505MOL0     H68117   8.162   8.876   1.110  1.9848  3.0954 -0.0758
  505MOL0     H68118   8.118   9.072   0.944  2.7710  1.7406  0.8793
  505MOL0     H68119   8.017   9.140   1.073 -0.6328 -0.0521 -0.4354
  505MOL0     H68120   8.321   9.075   1.094 -0.3790 -1.2582  0.0649
  505MOL0     H68121   8.246   9.237   1.081  0.9778 -0.8009  0.2083
  505MOL0     H68122   8.317   9.171   1.311 -1.5721  0.4371  1.5314
  505MOL0     H68123   8.219   9.035   1.306 -3.0016  0.7374 -1.9245
  505MOL0     H68124   8.020   9.240   1.265 -2.0757  0.0313  1.6142
  505MOL0     H68125   8.085   9.214   1.430  0.2298 -0.5103 -1.3373
  505MOL0     H68126   8.228   9.418   1.545 -0.0117  0.3103 -0.2104
  505MOL0     H68127   8.218   9.772   1.441 -1.9386 -0.5184  0.5585
  505MOL0     H68128   8.232   9.673   1.579  1.4044 -0.1108  0.4976
  505MOL0     H68129   8.459   9.617   1.544  2.1144  0.9378  0.4694
  505MOL0     H68130   8.480   9.726   1.401 -0.4808  1.6139 -0.1132
  505MOL0     H68131   8.404   9.815   1.680 -1.9177  1.9124 -0.7582
  505MOL0     H68132   8.354   9.909   1.545 -1.4751 -1.6183  0.3871
  505MOL0     H68133   8.582   9.967   1.661 -3.3378 -0.2523  1.4286
  505MOL0     H68134   8.589   9.934   1.478  1.7525  0.7365  0.8773
  505MOL0     H68135   8.855   9.641   1.677 -4.4384  1.8826  2.0472
  505MOL0     H68136   9.097   9.683   1.687 -0.2416 -0.2037 -0.6503
  505MOL0     H68137   9.323  10.236   1.739 -0.8561 -0.7127 -1.3833
  505MOL0     H68138   9.546  10.320   1.810 -0.1248  1.9635 -2.7925
  505MOL0     H68139   9.757  10.348   1.852 -2.9199 -1.7462 -0.2127
  505MOL0     H68140   9.794  10.198   1.949  0.9623 -1.6207 -0.5133
  505MOL0     H68141  10.038  10.203   1.825 -1.2753 -0.5383 -2.6400
  505MOL0     H68142   9.994  10.370   1.787 -1.5552  1.4166  1.3527
  505MOL0     H68143  10.016  10.439   2.013  0.7601  0.3458  0.6253
  505MOL0     H68144   9.991  10.277   2.074 -0.5202 -0.5868 -0.2217
  505MOL0     H68145  10.233  10.378   1.941  3.5975 -3.2593 -0.3312
  505MOL0     H68146  10.217  10.208   1.965  0.7624 -0.5689  1.5492
  505MOL0     H68147  10.194  10.262   2.220 -0.5790  0.2066  1.0626
  505MOL0     H68148  10.211  10.434   2.160  2.7003 -0.1027 -0.7594
  505MOL0     H68149  10.408  10.353   2.261 -0.3165 -2.1982  0.4355
  505MOL0     H68150  10.412  10.211   2.153  1.7403  0.5244 -3.5306
  505MOL0     H68151  10.445  10.508   2.067  1.7411  1.7584 -0.3671
  505MOL0     H68152  10.469  10.368   1.960  1.8887 -1.6394 -0.3171
  505MOL0     H68153  10.656  10.301   2.152  1.2936  0.6738  0.2714
  505MOL0     H68154  10.697  10.444   2.043 -0.9732  1.0216 -0.0873
  505MOL0     H68155   9.719   9.969   1.620  0.1126 -1.1484  2.2758
  505MOL0     H68156   9.505   9.891   1.563  0.9594 -0.6597  0.9111
  505MOL0     H68157   9.019  10.095   1.614  0.9047 -0.2754 -0.6921
  505MOL0     H68158   8.786  10.048   1.579  0.6411  0.3302  1.1607
  505MOL0     H68159   7.702   8.936   0.841 -0.9274  0.8738  0.1995
  505MOL0     H68160   7.456   8.922   0.790  0.1657  0.9554 -0.7548
  505MOL0     H68161   7.131   8.932   0.570  2.8787 -2.3753  2.0009
  505MOL0     H68162   6.897   8.949   0.602  0.4276 -0.1517  1.2361
  505MOL0     H68163   6.658   8.643   0.733  1.4346  0.0479  0.3835
  505MOL0     H68164   6.631   8.606   0.566  0.6836  0.3203 -0.6796
  505MOL0     H68165   6.419   8.651   0.658 -0.9097  0.0520 -0.1023
  505MOL0     H68166   6.459   8.788   0.553  1.1595 -1.4912 -0.0639
  505MOL0     H68167   6.570   8.887   0.774  0.8583  1.6859  0.7618
  505MOL0     H68168   6.455   8.772   0.851 -0.6218  0.0196 -1.5418
  505MOL0     H68169   6.352   9.008   0.835 -1.6636  1.2391 -0.6274
  505MOL0     H68170   6.366   9.001   0.662  0.1706 -1.3016 -0.0250
  505MOL0     H68171   6.043   8.750   0.774 -0.4253  0.9301 -1.3505
  505MOL0     H68172   6.832   8.540   0.587 -1.2363 -0.4822 -1.8135
  505MOL0     H68173   7.122   8.420   0.688 -1.8694 -0.4071  0.5611
  505MOL0     H68174   7.009   8.399   0.551 -0.1765  1.1230  0.0552
  505MOL0     H68175   7.180   8.438   0.524 -0.2843 -0.9748 -0.0800
  506MOL0     O68176   2.762   4.899   6.910  1.4492  0.0305 -0.0680
  506MOL0     C68177   2.692   4.986   6.971 -1.3219 -0.1696 -0.4995
  506MOL0     O68178   2.743   5.109   7.008 -0.1852  0.1602 -0.2597
  506MOL0     C68179   2.876   5.127   7.010  0.8418  0.1828 -0.3131
  506MOL0     C68180   2.966   5.104   6.906 -0.2126  0.4542  0.0403
  506MOL0     C68181   3.101   5.142   6.912  0.6384 -0.2477 -0.0007
  506MOL0     C68182   3.151   5.197   7.023 -0.6798  0.3753  0.5582
  506MOL0     O68183   3.280   5.242   7.035 -0.1219 -0.0260  0.3265
  506MOL0     C68184   3.302   5.353   6.941  0.6813 -0.1802  0.3047
  506MOL0     C68185   3.395   5.463   6.996  0.3794  0.1967  0.3983
  506MOL0     C68186   3.354   5.530   7.126 -0.2316 -0.2557 -0.2804
  506MOL0     C68187   3.476   5.626   7.171  0.1611  0.6867 -0.2837
  506MOL0     C68188   3.573   5.549   7.261  0.8010 -0.8336  0.5385
  506MOL0     C68189   3.655   5.655   7.333  0.5840 -0.2845 -0.7381
  506MOL0     C68190   3.766   5.588   7.419  0.1259 -0.8538 -0.1991
  506MOL0     C68191   3.901   5.607   7.354  0.3043 -0.4607 -0.1657
  506MOL0     N68192   4.016   5.582   7.444 -1.2324  0.5892  0.0149
  506MOL0     C68193   4.121   5.486   7.432  0.6563 -1.0178 -0.1537
  506MOL0     C68194   4.224   5.527   7.506 -0.6146 -0.0678 -0.1313
  506MOL0     C68195   4.353   5.449   7.518 -0.7278 -0.5424  0.1615
  506MOL0     C68196   4.491   5.517   7.487 -0.1137  1.2772  1.2187
  506MOL0     C68197   4.503   5.551   7.337  0.6882  0.6977 -1.1399
  506MOL0     C68198   4.641   5.582   7.282 -0.5245 -0.4908 -0.0566
  506MOL0     O68199   4.684   5.709   7.339 -0.3910  0.1361 -0.3006
  506MOL0     C68200   4.786   5.780   7.290  0.3174  0.1334  0.9117
  506MOL0     C68201   4.824   5.904   7.348  0.0370 -0.3893 -0.4632
  506MOL0     C68202   4.917   5.992   7.283  0.1870 -0.3884 -0.3412
  506MOL0     C68203   4.980   5.959   7.167 -0.3513  0.5399  0.4737
  506MOL0     C68204   5.073   6.052   7.099 -0.0493 -1.5165  0.3807
  506MOL0     O68205   5.084   6.178   7.145  0.6368  0.1081  0.0343
  506MOL0     C68206   5.178   6.266   7.116 -0.7996 -0.9888  0.9421
  506MOL0     C68207   5.161   6.391   7.180 -0.7026  0.4137  0.0436
  506MOL0     C68208   5.247   6.499   7.164 -0.0103 -0.8757 -1.2522
  506MOL0     C68209   5.348   6.499   7.066 -0.7308  0.1584 -0.3147
  506MOL0     O68210   5.451   6.599   7.046 -0.4617  0.0484 -0.3095
  506MOL0     C68211   5.462   6.718   7.127  0.0980  0.3593  0.0751
  506MOL0     C68212   5.559   6.815   7.069  0.6301 -0.3931  0.0465
  506MOL0     C68213   5.697   6.770   7.082  1.1019 -0.7774 -0.2790
  506MOL0     C68214   5.788   6.853   6.990  1.3488 -0.1448  0.8168
  506MOL0     C68215   5.931   6.816   7.020 -0.9678 -0.2688  0.0109
  506MOL0     C68216   6.027   6.882   6.915  0.3854 -0.3465  0.0167
  506MOL0     C68217   6.173   6.827   6.919 -1.5540  0.4682  0.1018
  506MOL0     C68218   6.261   6.912   6.825  0.7355 -0.5147  0.1086
  506MOL0    Cl68219   6.409   6.828   6.817  0.1668  0.2318 -0.4129
  506MOL0     C68220   5.367   6.380   6.999  0.5263 -0.4933  0.9311
  506MOL0     C68221   5.281   6.268   7.011 -0.8101  0.9519 -0.1593
  506MOL0     O68222   5.141   6.001   7.007  0.5160 -0.1039 -0.0169
  506MOL0     C68223   4.944   5.835   7.110 -0.1623 -0.3203 -0.3389
  506MOL0     C68224   4.849   5.753   7.170  0.0118  0.1555 -0.0083
  506MOL0     N68225   4.185   5.638   7.575  0.0825  0.1566 -0.7122
  506MOL0     N68226   4.066   5.673   7.531  0.0226 -0.3934  0.3118
  506MOL0     C68227   3.064   5.216   7.132 -0.7861 -0.0701  0.7693
  506MOL0     C68228   2.929   5.187   7.119  0.1734 -0.1790 -1.0020
  506MOL0     C68229   2.556   4.938   7.016  0.3349 -0.3064 -0.3783
  506MOL0     C68230   2.538   4.796   7.034  0.6798 -0.7950 -0.0737
  506MOL0     C68231   2.410   4.746   7.058 -0.4351  0.6913  0.8090
  506MOL0     C68232   2.304   4.821   7.079 -0.4599  0.2600 -1.1236
  506MOL0     O68233   2.191   4.737   7.085  0.0033 -0.2168  0.4818
  506MOL0     C68234   2.097   4.775   7.174  0.2741  0.3504  0.7295
  506MOL0     C68235   1.998   4.875   7.119  0.5371 -0.1165  0.2025
  506MOL0     C68236   1.961   4.880   6.972 -0.1982  0.1206  0.2877
  506MOL0     C68237   1.892   4.756   6.916 -0.0826  0.8543  0.3968
  506MOL0     C68238   1.774   4.727   6.990 -0.0203  0.6844  0.8880
  506MOL0     C68239   1.679   4.705   7.063 -0.5328 -0.4620 -0.1197
  506MOL0     C68240   2.323   4.957   7.067  0.5069 -0.9487 -0.4755
  506MOL0     C68241   2.450   5.020   7.049  0.3922  0.0258 -0.0127
  506MOL0     C68242   2.457   5.165   7.048  0.6828 -0.3921 -0.1527
  506MOL0     H68243   2.933   5.049   6.818 -4.0259 -2.2753  2.8248
  506MOL0     H68244   3.166   5.128   6.826 -1.0468  0.6177 -1.4950
  506MOL0     H68245   3.335   5.312   6.845  1.0496  2.4985 -0.8259
  506MOL0     H68246   3.206   5.400   6.916  0.7693 -0.6443 -0.9661
  506MOL0     H68247   3.406   5.546   6.925 -3.6708  0.1456 -0.5302
  506MOL0     H68248   3.494   5.417   7.008  0.1242 -0.2669  0.7424
  506MOL0     H68249   3.320   5.456   7.199 -0.6403  0.9908  0.8272
  506MOL0     H68250   3.270   5.596   7.107  1.9679  2.8303 -0.0924
  506MOL0     H68251   3.540   5.664   7.091  3.9816 -1.9221  1.1996
  506MOL0     H68252   3.433   5.704   7.235 -0.1629  0.4526 -0.2158
  506MOL0     H68253   3.507   5.499   7.332 -1.9337  1.7775  0.0177
  506MOL0     H68254   3.640   5.486   7.202  3.3875 -0.2911  2.6932
  506MOL0     H68255   3.691   5.733   7.265  1.7270 -0.4483 -0.3505
  506MOL0     H68256   3.588   5.703   7.406 -0.0586 -1.6646 -0.3783
  506MOL0     H68257   3.733   5.487   7.448  1.9654 -1.9013 -1.5409
  506MOL0     H68258   3.772   5.643   7.513 -1.5156  1.0591 -1.1413
  506MOL0     H68259   3.908   5.538   7.269 -0.6542 -2.3151  1.1785
  506MOL0     H68260   3.925   5.710   7.327 -1.5211  0.2121  0.6663
  506MOL0     H68261   4.113   5.395   7.374  0.3026 -1.8384  1.1226
  506MOL0     H68262   4.360   5.424   7.624 -0.1373  1.5770  0.6711
  506MOL0     H68263   4.335   5.354   7.467 -1.6064 -0.6719  0.7073
  506MOL0     H68264   4.509   5.607   7.547  2.5309  3.2156 -2.1478
  506MOL0     H68265   4.572   5.448   7.511  0.5556  1.3137 -0.7708
  506MOL0     H68266   4.441   5.640   7.320 -1.6805 -1.0116 -2.1230
  506MOL0     H68267   4.471   5.462   7.283  1.8477 -0.3289 -0.1874
  506MOL0     H68268   4.613   5.587   7.177 -1.5757  0.9209  0.2526
  506MOL0     H68269   4.715   5.503   7.300  1.1346  0.7993 -1.0135
  506MOL0     H68270   4.769   5.942   7.434  1.7157  2.6159 -0.5547
  506MOL0     H68271   4.911   6.098   7.308 -2.3860 -0.5876  0.2272
  506MOL0     H68272   5.076   6.385   7.248  0.3201  0.4193  1.3630
  506MOL0     H68273   5.240   6.582   7.233 -1.5581 -0.8868 -1.3464
  506MOL0     H68274   5.361   6.756   7.140 -0.3231 -0.9049  0.6012
  506MOL0     H68275   5.499   6.679   7.222  0.7125 -1.6411 -0.9201
  506MOL0     H68276   5.538   6.835   6.963  2.5365  0.9084 -0.1305
  506MOL0     H68277   5.558   6.911   7.122  3.5475 -0.9617  1.3079
  506MOL0     H68278   5.723   6.768   7.188 -3.2088  0.4834  1.0346
  506MOL0     H68279   5.704   6.664   7.053 -1.0262 -0.5846 -1.7191
  506MOL0     H68280   5.773   6.960   7.004  2.3719  0.1157  0.0344
  506MOL0     H68281   5.764   6.825   6.887  2.2854  1.4588  0.1219
  506MOL0     H68282   5.932   6.707   7.025 -1.1284 -0.3502 -1.3614
  506MOL0     H68283   5.958   6.853   7.119 -0.8264  1.6287 -0.7003
  506MOL0     H68284   6.001   6.853   6.813  0.2702 -0.6103  0.1219
  506MOL0     H68285   6.040   6.989   6.935 -1.8710  0.2694 -1.4540
  506MOL0     H68286   6.166   6.721   6.893  2.5147 -0.2811  1.4548
  506MOL0     H68287   6.213   6.834   7.021  2.7835  0.4758 -1.4019
  506MOL0     H68288   6.218   6.932   6.726 -2.4617  1.9775  1.8350
  506MOL0     H68289   6.257   7.008   6.876  1.3265 -1.0031  1.1003
  506MOL0     H68290   5.447   6.389   6.926  0.3704  0.2501  0.8482
  506MOL0     H68291   5.288   6.174   6.959 -0.1863  0.2777  1.0910
  506MOL0     H68292   4.994   5.791   7.024  5.7021 -1.9072  3.3270
  506MOL0     H68293   4.832   5.655   7.125 -0.0911  0.4000 -0.5048
  506MOL0     H68294   3.098   5.278   7.215 -0.3991  0.5021  0.1994
  506MOL0     H68295   2.861   5.210   7.201 -1.8315  0.5076 -2.7758
  506MOL0     H68296   2.620   4.726   7.026 -0.0289 -1.6321 -0.1103
  506MOL0     H68297   2.397   4.638   7.056 -2.7294  0.8970 -2.3516
  506MOL0     H68298   2.139   4.831   7.258  1.8992  0.9805 -0.4811
  506MOL0     H68299   2.055   4.684   7.220  0.7098  0.2965  1.0217
  506MOL0     H68300   2.032   4.975   7.145  1.3049 -0.0443 -0.9722
  506MOL0     H68301   1.912   4.851   7.182  0.9891 -0.5051  0.6810
  506MOL0     H68302   2.060   4.891   6.926 -0.4201  1.4479  0.0856
  506MOL0     H68303   1.898   4.967   6.949  1.6223  0.8144 -2.7063
  506MOL0     H68304   1.868   4.767   6.810  3.3735 -1.3104 -0.7752
  506MOL0     H68305   1.952   4.666   6.930  1.2433  1.4511 -1.1753
  506MOL0     H68306   1.600   4.662   7.122  0.6862 -0.1383  1.8462
  506MOL0     H68307   2.241   5.027   7.076  1.9273  0.5974  0.9477
  506MOL0     H68308   2.363   5.218   7.032  0.7661 -0.0295  0.5491
  506MOL0     H68309   2.499   5.193   7.144 -2.7066 -0.0479  1.3655
  506MOL0     H68310   2.517   5.191   6.960 -1.5245  0.8476 -1.3664
  507MOL0     O68311   6.017   4.784   7.099  0.0773 -0.0575 -0.3843
  507MOL0     C68312   5.951   4.679   7.122  0.0834  0.1809  0.5079
  507MOL0     O68313   5.999   4.560   7.169 -0.3521  0.2301  0.0248
  507MOL0     C68314   6.136   4.547   7.190  0.6099  0.2440  0.5954
  507MOL0     C68315   6.200   4.630   7.278 -0.6299 -1.1661 -0.5708
  507MOL0     C68316   6.343   4.630   7.288 -0.0426 -0.2610  0.3764
  507MOL0     C68317   6.425   4.543   7.223  0.7245  0.6993 -0.4332
  507MOL0     O68318   6.556   4.555   7.252  0.2636  0.5633  0.5100
  507MOL0     C68319   6.662   4.506   7.162 -0.5952 -0.2836 -0.3580
  507MOL0     C68320   6.779   4.588   7.200 -0.9235 -0.3396 -0.6807
  507MOL0     C68321   6.898   4.568   7.103 -0.0123  0.2385 -0.4685
  507MOL0     C68322   6.995   4.685   7.103 -1.0210  0.2424  0.5950
  507MOL0     C68323   7.102   4.649   6.996  0.1474 -0.2044 -0.4712
  507MOL0     C68324   7.179   4.788   6.967  0.6898 -0.2127 -0.2647
  507MOL0     C68325   7.312   4.759   6.895 -0.7335  1.0083  0.9242
  507MOL0     C68326   7.411   4.871   6.920  1.5170 -0.0454 -0.3245
  507MOL0     N68327   7.547   4.862   6.863 -0.4128 -0.5484  0.6517
  507MOL0     C68328   7.659   4.791   6.910 -0.1120  0.6909 -0.7156
  507MOL0     C68329   7.754   4.804   6.814  0.0338 -0.2870  0.5153
  507MOL0     C68330   7.891   4.749   6.808  0.3316  0.2447 -0.3937
  507MOL0     C68331   7.908   4.661   6.687  0.1969 -0.3590  0.4881
  507MOL0     C68332   8.009   4.719   6.590 -0.1351  1.2432 -0.6206
  507MOL0     C68333   7.967   4.840   6.500 -0.0007 -0.3303 -0.3470
  507MOL0     O68334   8.088   4.917   6.491 -0.4052  0.0209 -0.1297
  507MOL0     C68335   8.180   4.908   6.387  0.0792 -0.4816  1.2601
  507MOL0     C68336   8.150   4.854   6.265 -0.1079  0.6917  0.3742
  507MOL0     C68337   8.246   4.848   6.169 -0.1755 -0.3447  0.4071
  507MOL0     C68338   8.375   4.891   6.194  0.0396  0.4079 -0.1857
  507MOL0     C68339   8.472   4.898   6.084 -0.3672 -0.0027  0.3021
  507MOL0     O68340   8.599   4.877   6.123  0.3482  0.2271  0.3317
  507MOL0     C68341   8.707   4.920   6.049 -0.6818 -0.6314  0.3222
  507MOL0     C68342   8.695   5.024   5.957  0.6591 -0.0308  0.0941
  507MOL0     C68343   8.813   5.066   5.894  0.4602  1.0787  0.2510
  507MOL0     C68344   8.934   5.011   5.919  0.2245  0.6387  0.3560
  507MOL0     O68345   9.056   5.050   5.877  0.1417  0.0681  0.0790
  507MOL0     C68346   9.058   5.151   5.764  0.2160  0.4214  0.8996
  507MOL0     C68347   9.207   5.195   5.760 -0.2967 -0.8602  0.2550
  507MOL0     C68348   9.296   5.088   5.689 -0.2321 -0.3173 -0.2008
  507MOL0     C68349   9.440   5.133   5.693 -0.8458 -0.4078 -0.7932
  507MOL0     C68350   9.493   5.232   5.581  0.2764 -0.0559 -0.0711
  507MOL0     C68351   9.633   5.273   5.602 -0.5857 -0.7589  0.0347
  507MOL0     C68352   9.694   5.363   5.495 -0.9530  0.1199  0.5669
  507MOL0     C68353   9.793   5.460   5.529 -0.4800 -0.4922  0.3416
  507MOL0    Cl68354   9.946   5.393   5.568  0.1026  0.0496 -0.3007
  507MOL0     C68355   8.946   4.895   6.008 -0.2769  0.0931 -0.5047
  507MOL0     C68356   8.831   4.847   6.064  0.4140 -0.2669  0.1485
  507MOL0     O68357   8.434   4.903   5.966 -0.3642 -0.8234  0.1952
  507MOL0     C68358   8.405   4.946   6.321 -0.0379 -0.5215 -0.0610
  507MOL0     C68359   8.303   4.971   6.407  0.3177  0.6523  1.0021
  507MOL0     N68360   7.702   4.892   6.720 -0.2532 -0.4345  0.0012
  507MOL0     N68361   7.587   4.933   6.758 -0.2720 -0.0509 -0.0131
  507MOL0     C68362   6.362   4.449   7.137 -0.2377 -0.4801 -1.0946
  507MOL0     C68363   6.220   4.454   7.119  0.0032 -0.4023  0.7851
  507MOL0     C68364   5.800   4.673   7.094  0.9888 -0.3198  0.0407
  507MOL0     C68365   5.732   4.566   7.149  0.0795  0.2854 -0.2211
  507MOL0     C68366   5.599   4.532   7.119  0.1833  0.8002  0.4399
  507MOL0     C68367   5.529   4.615   7.034  0.7099 -0.5408  0.2198
  507MOL0     O68368   5.390   4.599   6.998 -0.1700  0.3767  0.1110
  507MOL0     C68369   5.301   4.512   7.072  0.5234  0.1263  0.0851
  507MOL0     C68370   5.167   4.532   7.005 -0.3396 -0.2138 -0.1004
  507MOL0     C68371   5.154   4.466   6.868  0.6880 -0.0237  0.0867
  507MOL0     C68372   5.027   4.509   6.784  0.9726  0.3649 -0.0649
  507MOL0     C68373   4.905   4.514   6.861 -0.2172 -0.2190  0.9538
  507MOL0     C68374   4.799   4.526   6.924  0.2279 -0.8594 -0.5622
  507MOL0     C68375   5.595   4.726   6.990  0.6871 -0.2222  0.8967
  507MOL0     C68376   5.724   4.759   7.011 -0.7307 -0.1205 -0.8876
  507MOL0     C68377   5.786   4.888   6.953  0.9084 -0.0585  0.0625
  507MOL0     H68378   6.138   4.698   7.335 -1.4646 -1.1207 -1.5073
  507MOL0     H68379   6.381   4.692   7.368 -0.6364 -2.3792  2.4144
  507MOL0     H68380   6.682   4.404   7.197  1.4049  0.8212  2.0791
  507MOL0     H68381   6.643   4.503   7.054  2.4712 -0.3854 -0.9924
  507MOL0     H68382   6.825   4.558   7.295 -0.0279  0.2442 -0.9211
  507MOL0     H68383   6.750   4.693   7.192 -3.2981 -0.8935 -0.2270
  507MOL0     H68384   6.863   4.552   7.001 -2.0558  0.4885  0.1483
  507MOL0     H68385   6.946   4.472   7.125  0.0646 -0.0489 -1.8241
  507MOL0     H68386   6.946   4.781   7.092  2.1637  2.0660  1.1139
  507MOL0     H68387   7.045   4.695   7.200  3.9530 -0.0307 -1.6218
  507MOL0     H68388   7.167   4.579   7.047 -0.1941 -1.4849 -1.7258
  507MOL0     H68389   7.069   4.598   6.905 -2.4227 -2.1765  1.4412
  507MOL0     H68390   7.123   4.847   6.894 -1.2796 -3.6862 -1.8041
  507MOL0     H68391   7.188   4.845   7.060 -3.3653  0.4241 -0.0776
  507MOL0     H68392   7.292   4.766   6.788 -1.9357 -2.5713  0.7644
  507MOL0     H68393   7.368   4.669   6.922 -0.8913  0.2944 -0.9854
  507MOL0     H68394   7.358   4.963   6.896  2.9181  1.4072  1.7789
  507MOL0     H68395   7.419   4.869   7.029 -1.6005  1.0039 -0.0049
  507MOL0     H68396   7.655   4.728   6.998 -0.9383  3.4362  1.3386
  507MOL0     H68397   7.971   4.823   6.819  2.3083 -1.8360 -0.0045
  507MOL0     H68398   7.904   4.687   6.897 -1.5275 -3.4480 -2.4442
  507MOL0     H68399   7.952   4.571   6.731  0.8258 -0.2629  0.0687
  507MOL0     H68400   7.816   4.644   6.630  1.6195 -0.2962 -1.9509
  507MOL0     H68401   8.047   4.640   6.525  0.8029  0.4517  0.8444
  507MOL0     H68402   8.095   4.744   6.652 -0.7307 -0.7699  1.1356
  507MOL0     H68403   7.909   4.905   6.565 -0.9813 -2.7874  1.3635
  507MOL0     H68404   7.934   4.799   6.404  1.9831  1.3960 -1.8778
  507MOL0     H68405   8.058   4.798   6.247 -0.1477  0.6442  0.7120
  507MOL0     H68406   8.231   4.790   6.079  0.6985 -1.4054  0.9204
  507MOL0     H68407   8.598   5.071   5.942  0.8338  0.2586 -0.1317
  507MOL0     H68408   8.801   5.139   5.815  1.1849  0.4594 -0.4511
  507MOL0     H68409   9.043   5.103   5.667  2.1630  0.7981  0.3660
  507MOL0     H68410   8.993   5.237   5.783  0.0265  0.5595 -0.3023
  507MOL0     H68411   9.221   5.285   5.700 -0.7686 -0.7741  0.2653
  507MOL0     H68412   9.251   5.207   5.859  1.0164  0.3190 -0.4436
  507MOL0     H68413   9.285   5.008   5.764 -1.3353  1.1741  1.3166
  507MOL0     H68414   9.262   5.056   5.590  1.0674 -3.0841  0.1396
  507MOL0     H68415   9.509   5.049   5.688 -0.3968 -0.2702  1.8752
  507MOL0     H68416   9.473   5.177   5.787  1.8070 -1.3914 -1.1593
  507MOL0     H68417   9.418   5.309   5.561  0.4408 -0.2650 -1.6445
  507MOL0     H68418   9.500   5.171   5.490  1.6152 -2.6159  1.6465
  507MOL0     H68419   9.648   5.321   5.699  1.6510 -1.8081  0.2947
  507MOL0     H68420   9.703   5.189   5.604  2.0806  1.3109 -0.2161
  507MOL0     H68421   9.613   5.422   5.452  1.5139  2.9386 -0.6007
  507MOL0     H68422   9.737   5.298   5.418 -1.7369 -2.6210  2.3068
  507MOL0     H68423   9.809   5.531   5.448 -1.4793  0.3434  0.8494
  507MOL0     H68424   9.752   5.529   5.604  0.1859  1.5516 -1.0600
  507MOL0     H68425   9.037   4.836   6.022 -0.4212 -0.2957 -1.1830
  507MOL0     H68426   8.837   4.754   6.119 -2.9006  0.2145  1.5920
  507MOL0     H68427   8.512   4.962   6.332  0.3502 -1.3067 -2.2160
  507MOL0     H68428   8.320   5.015   6.505 -5.0727 -0.7792  2.9602
  507MOL0     H68429   6.418   4.360   7.110  0.4859 -1.4929  3.0714
  507MOL0     H68430   6.158   4.389   7.058 -3.3530  3.8162 -0.7823
  507MOL0     H68431   5.781   4.495   7.215  0.2152  0.4193 -0.1768
  507MOL0     H68432   5.550   4.444   7.161  0.6489  0.3346  0.0122
  507MOL0     H68433   5.303   4.545   7.176  1.0251  0.5232 -0.0434
  507MOL0     H68434   5.331   4.407   7.076  0.1999  0.0653  1.6391
  507MOL0     H68435   5.156   4.640   6.992 -0.0683 -0.2811 -0.9345
  507MOL0     H68436   5.079   4.505   7.064 -0.1886  0.1252  0.2885
  507MOL0     H68437   5.151   4.358   6.881 -1.0055 -0.1847 -1.2278
  507MOL0     H68438   5.243   4.487   6.809 -0.7457 -2.4066 -3.1836
  507MOL0     H68439   5.041   4.613   6.753 -1.3528  0.9571  0.6380
  507MOL0     H68440   5.022   4.439   6.701  2.8386 -2.4052  1.9770
  507MOL0     H68441   4.709   4.542   6.980  1.2896  0.9938  0.7264
  507MOL0     H68442   5.543   4.788   6.917 -0.2215 -1.4440  0.4839
  507MOL0     H68443   5.873   4.863   6.891 -0.5820 -2.7445 -1.1128
  507MOL0     H68444   5.707   4.923   6.886 -0.7766 -0.6307  1.6468
  507MOL0     H68445   5.822   4.952   7.035  0.2084 -1.7669  1.7707
  508MOL0     O68446   5.897   4.077   3.971  0.0157  0.6161  0.2326
  508MOL0     C68447   5.907   3.955   3.965  0.0250 -0.6318 -0.3518
  508MOL0     O68448   5.938   3.892   3.846  0.4656 -0.5830 -0.7029
  508MOL0     C68449   6.019   3.959   3.766  0.0430 -0.9642 -0.2054
  508MOL0     C68450   5.975   3.974   3.633  0.7489 -0.5579 -0.5661
  508MOL0     C68451   6.057   4.042   3.547  0.0248 -1.0916  0.7511
  508MOL0     C68452   6.173   4.108   3.588  0.3803 -0.5133  0.2854
  508MOL0     O68453   6.246   4.201   3.509  0.2286 -0.1964 -0.7942
  508MOL0     C68454   6.245   4.334   3.569  0.4936 -0.6204  0.4841
  508MOL0     C68455   6.281   4.442   3.464 -0.4616  0.2463  1.0584
  508MOL0     C68456   6.219   4.425   3.329 -1.2423 -0.2338  0.8107
  508MOL0     C68457   6.065   4.392   3.331 -0.3883  0.3149  0.0366
  508MOL0     C68458   5.991   4.388   3.200 -0.5361  0.0077  0.3635
  508MOL0     C68459   5.843   4.351   3.206  0.3549  0.6514  0.2026
  508MOL0     C68460   5.822   4.203   3.250  0.0580 -0.7905  0.0991
  508MOL0     C68461   5.894   4.096   3.177  0.5263 -0.3094  0.6630
  508MOL0     N68462   5.847   3.961   3.221 -0.0450  0.6316  0.3700
  508MOL0     C68463   5.757   3.890   3.154 -0.0719  0.3302 -0.3890
  508MOL0     C68464   5.726   3.787   3.243  0.7685  0.4270 -0.1579
  508MOL0     C68465   5.615   3.689   3.219 -0.0142 -0.3581  0.0621
  508MOL0     C68466   5.496   3.680   3.314 -0.2244 -0.6840  0.4789
  508MOL0     C68467   5.390   3.778   3.277  0.5847 -0.4307  0.4310
  508MOL0     C68468   5.314   3.742   3.152  0.1067  0.4052  0.3143
  508MOL0     O68469   5.264   3.603   3.156  0.0212 -0.1358 -0.2034
  508MOL0     C68470   5.168   3.563   3.247  0.1880 -0.5417  0.3964
  508MOL0     C68471   5.195   3.475   3.345 -0.8622  1.5166  0.7562
  508MOL0     C68472   5.094   3.419   3.421  0.0486 -0.0432 -1.2099
  508MOL0     C68473   4.965   3.457   3.400 -0.3567  0.1828  0.5183
  508MOL0     C68474   4.848   3.403   3.470  0.2635 -0.2319  0.8317
  508MOL0     O68475   4.716   3.431   3.430 -0.0244 -0.8025  0.5432
  508MOL0     C68476   4.605   3.395   3.508  0.5244 -1.6434  0.1520
  508MOL0     C68477   4.582   3.272   3.569 -0.1900 -0.2234  0.4914
  508MOL0     C68478   4.462   3.242   3.642  0.1589 -0.1060  0.0349
  508MOL0     C68479   4.364   3.333   3.652 -0.4168 -0.2675 -0.1452
  508MOL0     O68480   4.254   3.300   3.729  0.1252 -0.4751 -0.5073
  508MOL0     C68481   4.142   3.388   3.725  0.0574  0.3505 -0.2953
  508MOL0     C68482   4.032   3.321   3.818 -0.0517  0.0081 -0.0944
  508MOL0     C68483   3.896   3.377   3.824  0.9973 -1.4309 -0.0668
  508MOL0     C68484   3.796   3.304   3.735  1.0249 -1.2084 -0.3301
  508MOL0     C68485   3.652   3.365   3.746  1.0174 -0.6740  0.2206
  508MOL0     C68486   3.553   3.300   3.636 -0.1679  1.1495  0.2447
  508MOL0     C68487   3.418   3.364   3.673  0.0728  0.0895  0.1097
  508MOL0     C68488   3.337   3.370   3.547  0.8481  0.3054 -0.8444
  508MOL0    Cl68489   3.319   3.207   3.474  0.4229  0.1047 -0.2671
  508MOL0     C68490   4.385   3.458   3.585  1.1603 -0.5396 -0.9950
  508MOL0     C68491   4.497   3.485   3.509 -0.9956  0.0626  0.2901
  508MOL0     O68492   4.873   3.358   3.581 -0.4716 -0.1681 -0.1525
  508MOL0     C68493   4.936   3.559   3.308 -0.0014 -0.0023  0.1830
  508MOL0     C68494   5.041   3.612   3.219  1.9557  0.1811  0.3879
  508MOL0     N68495   5.793   3.804   3.359  0.2461 -0.7521  0.1285
  508MOL0     N68496   5.857   3.913   3.347 -0.3874  0.5152  0.5743
  508MOL0     C68497   6.218   4.092   3.719  0.0526 -0.5264  0.2442
  508MOL0     C68498   6.144   4.010   3.803 -0.0861  0.9594 -0.2829
  508MOL0     C68499   5.866   3.868   4.082  0.7630 -1.0605 -0.1169
  508MOL0     C68500   5.859   3.739   4.057 -0.6669 -0.2898  0.3740
  508MOL0     C68501   5.829   3.642   4.159  0.0829 -0.8036  0.0795
  508MOL0     C68502   5.821   3.695   4.294 -0.2796 -0.1117  0.4962
  508MOL0     O68503   5.795   3.611   4.397  0.3647 -0.2831  0.0870
  508MOL0     C68504   5.741   3.475   4.382  0.5035 -1.0622 -0.1291
  508MOL0     C68505   5.709   3.417   4.518  0.1918 -0.4387 -0.3591
  508MOL0     C68506   5.669   3.274   4.531 -0.1439 -0.4166  0.2192
  508MOL0     C68507   5.607   3.236   4.664  0.1163 -0.3587 -0.7770
  508MOL0     C68508   5.466   3.296   4.655  0.6470 -0.4858  0.1040
  508MOL0     C68509   5.363   3.348   4.622  0.3210 -0.0446  0.1653
  508MOL0     C68510   5.829   3.829   4.321 -0.1152 -0.7152 -0.2127
  508MOL0     C68511   5.851   3.916   4.216 -0.1151  0.3889 -0.1809
  508MOL0     C68512   5.858   4.057   4.250  0.3602 -0.3741  0.2423
  508MOL0     H68513   5.878   3.945   3.594  0.7856 -1.0771 -0.2735
  508MOL0     H68514   6.025   4.070   3.447 -1.3446  1.9633  1.9243
  508MOL0     H68515   6.150   4.363   3.614 -0.4835 -4.5587  1.3332
  508MOL0     H68516   6.320   4.343   3.648 -0.8511  2.7815  1.5674
  508MOL0     H68517   6.390   4.431   3.461 -0.6259 -2.1843  1.4637
  508MOL0     H68518   6.261   4.543   3.501  1.0747  2.3547 -3.1890
  508MOL0     H68519   6.273   4.350   3.271  0.8334  3.5029 -2.5108
  508MOL0     H68520   6.228   4.517   3.271 -2.4889 -0.2728  0.5249
  508MOL0     H68521   6.041   4.296   3.379 -1.5834  0.4005 -0.3576
  508MOL0     H68522   6.014   4.466   3.394  2.6940 -0.2106  3.5216
  508MOL0     H68523   6.011   4.485   3.155 -0.6550 -0.4487 -0.7198
  508MOL0     H68524   6.055   4.320   3.142  0.2317  1.6037 -0.7281
  508MOL0     H68525   5.781   4.409   3.276 -1.3380 -1.3188  0.4579
  508MOL0     H68526   5.801   4.368   3.107  2.1681 -3.0349 -1.3795
  508MOL0     H68527   5.717   4.184   3.222  0.6677 -4.2586 -0.2655
  508MOL0     H68528   5.830   4.183   3.357 -0.0468 -1.8108 -0.0731
  508MOL0     H68529   5.875   4.102   3.070 -0.0562 -3.6159  0.4727
  508MOL0     H68530   6.001   4.094   3.200  0.3070  1.5444  2.1129
  508MOL0     H68531   5.719   3.912   3.054  0.3640 -2.0004 -1.1365
  508MOL0     H68532   5.581   3.702   3.116 -0.3551  0.1330  0.2317
  508MOL0     H68533   5.654   3.587   3.225 -0.5527 -0.5269  0.9200
  508MOL0     H68534   5.464   3.575   3.316 -0.6204 -0.5561  0.8757
  508MOL0     H68535   5.532   3.710   3.413 -2.9106  0.6692  1.1461
  508MOL0     H68536   5.440   3.875   3.268  2.1597 -1.1487  1.0475
  508MOL0     H68537   5.319   3.791   3.359 -1.0896 -0.0577 -1.0189
  508MOL0     H68538   5.372   3.768   3.064 -0.8204 -0.0832 -0.4630
  508MOL0     H68539   5.233   3.816   3.150 -0.4793 -0.0583  2.8801
  508MOL0     H68540   5.296   3.437   3.356 -0.2648  3.3575  1.9766
  508MOL0     H68541   5.106   3.345   3.500 -3.8889  1.2513  0.9084
  508MOL0     H68542   4.658   3.196   3.579  0.0113  0.1482  2.0909
  508MOL0     H68543   4.448   3.153   3.702 -2.1826  0.2936  0.1678
  508MOL0     H68544   4.163   3.489   3.762  0.1722  0.7083 -1.3201
  508MOL0     H68545   4.103   3.395   3.623 -2.9059 -6.0284 -0.0976
  508MOL0     H68546   4.023   3.218   3.782  1.3235  0.9367 -3.5775
  508MOL0     H68547   4.069   3.329   3.921  2.1790  1.0787 -0.8997
  508MOL0     H68548   3.870   3.378   3.930  1.9352 -0.2043  0.1785
  508MOL0     H68549   3.896   3.481   3.790  3.4674 -0.2905  2.8849
  508MOL0     H68550   3.788   3.197   3.756  0.5400 -0.8197  1.7618
  508MOL0     H68551   3.846   3.319   3.639  3.7373 -1.3481  0.9539
  508MOL0     H68552   3.649   3.474   3.744 -0.9742 -0.7054 -0.3828
  508MOL0     H68553   3.611   3.332   3.842 -3.1642 -0.3413 -1.2155
  508MOL0     H68554   3.584   3.319   3.533  0.7880 -0.9243  0.0996
  508MOL0     H68555   3.546   3.191   3.645 -3.8869  1.2335  0.0482
  508MOL0     H68556   3.423   3.464   3.718  2.6286  0.9130 -1.7704
  508MOL0     H68557   3.372   3.298   3.746  0.6166 -1.1368 -0.6272
  508MOL0     H68558   3.238   3.413   3.565  2.4285  3.6144  0.8581
  508MOL0     H68559   3.370   3.445   3.475 -1.0456  1.3895 -0.6445
  508MOL0     H68560   4.310   3.534   3.605  3.0588  1.1938 -0.1147
  508MOL0     H68561   4.507   3.592   3.491 -2.6287  0.2417  0.3518
  508MOL0     H68562   4.830   3.583   3.295 -0.8051 -2.9964  0.4967
  508MOL0     H68563   5.017   3.683   3.141  0.8536  0.4504  0.9478
  508MOL0     H68564   6.309   4.143   3.751 -0.4188  0.4842  0.0306
  508MOL0     H68565   6.185   3.982   3.899 -0.7884 -0.1999 -0.3029
  508MOL0     H68566   5.876   3.693   3.960 -0.9092  0.5474 -0.0703
  508MOL0     H68567   5.821   3.535   4.145  2.5970 -1.0145 -0.2597
  508MOL0     H68568   5.826   3.421   4.341  1.0725  1.3037 -2.3070
  508MOL0     H68569   5.658   3.483   4.311 -0.9992  3.7217  1.7448
  508MOL0     H68570   5.634   3.482   4.564  1.7822  1.0727  0.1641
  508MOL0     H68571   5.789   3.451   4.584 -2.0437  1.9786  1.3046
  508MOL0     H68572   5.768   3.232   4.509 -0.4113 -0.0305 -1.9872
  508MOL0     H68573   5.609   3.241   4.446  1.2955  1.9750 -1.8668
  508MOL0     H68574   5.609   3.127   4.671  1.6953 -0.4532 -2.0295
  508MOL0     H68575   5.666   3.273   4.748  2.1434 -2.3237 -1.2481
  508MOL0     H68576   5.276   3.400   4.586 -1.6069 -1.0473  2.9945
  508MOL0     H68577   5.803   3.870   4.418  1.2494  0.7705 -0.4454
  508MOL0     H68578   5.844   4.077   4.357  0.5813  2.7862 -0.2123
  508MOL0     H68579   5.949   4.106   4.215 -1.4749  1.9609 -1.7025
  508MOL0     H68580   5.778   4.114   4.201  0.8759  1.3863  1.3375
  509MOL0     O68581   8.877  10.989   3.151 -0.2659 -0.1222 -0.3846
  509MOL0     C68582   8.845  11.065   3.240  0.0619 -1.1327 -0.4805
  509MOL0     O68583   8.930  11.153   3.303  0.0834  0.2403  0.3306
  509MOL0     C68584   9.065  11.186   3.274 -0.7882 -0.2449  0.2468
  509MOL0     C68585   9.125  11.289   3.343  0.7675 -0.1506 -0.2491
  509MOL0     C68586   9.244  11.345   3.305 -0.9046 -0.2807 -0.7570
  509MOL0     C68587   9.325  11.284   3.211 -0.0339 -0.1910  0.3835
  509MOL0     O68588   9.450  11.333   3.184  1.1547 -0.5387  0.2960
  509MOL0     C68589   9.498  11.332   3.052  0.0032 -0.1212 -0.2399
  509MOL0     C68590   9.621  11.426   3.060  0.1579 -1.5626  0.0458
  509MOL0     C68591   9.733  11.352   3.139  1.0665  0.0563 -0.0154
  509MOL0     C68592   9.852  11.460   3.158  0.1507 -0.3493  0.2973
  509MOL0     C68593   9.974  11.387   3.237  1.5593 -0.7086 -0.4504
  509MOL0     C68594  10.092  11.477   3.285  0.1924  0.3771  0.7375
  509MOL0     C68595  10.214  11.391   3.340 -0.7009 -0.0122  0.5161
  509MOL0     C68596  10.176  11.306   3.466  0.7204  0.4984  0.8901
  509MOL0     N68597  10.103  11.380   3.571 -0.0539 -1.0743  0.1476
  509MOL0     C68598  10.144  11.495   3.638  0.2739 -0.1550  0.7919
  509MOL0     C68599  10.038  11.523   3.717 -0.1406 -0.1018  0.7260
  509MOL0     C68600  10.028  11.638   3.805 -0.3653 -0.8465 -0.6288
  509MOL0     C68601  10.114  11.620   3.930  0.1972  0.2825 -0.6346
  509MOL0     C68602  10.082  11.727   4.036  0.3430  0.3369  0.5289
  509MOL0     C68603  10.115  11.868   3.996 -0.4786  0.1451  0.4992
  509MOL0     O68604  10.251  11.888   3.959  0.5269 -0.0693  0.5178
  509MOL0     C68605  10.343  11.924   4.051  0.6076  0.4581 -0.3965
  509MOL0     C68606  10.324  11.908   4.193 -0.5926 -0.0395 -0.3014
  509MOL0     C68607  10.428  11.947   4.280  0.8013  0.4588 -0.2008
  509MOL0     C68608  10.547  12.006   4.229  0.6311  0.9426  0.1600
  509MOL0     C68609  10.653  12.060   4.319 -0.4878 -0.4592  0.5085
  509MOL0     O68610  10.772  12.104   4.253 -0.2513  0.4626 -0.2158
  509MOL0     C68611  10.881  12.133   4.326  0.3769 -0.3949  0.9804
  509MOL0     C68612  10.965  12.238   4.281  0.2620  0.4698  0.6206
  509MOL0     C68613  11.078  12.273   4.345 -0.4549 -0.4714 -0.9390
  509MOL0     C68614  11.130  12.195   4.449  0.8366 -0.8387 -0.0784
  509MOL0     O68615  11.245  12.240   4.508  0.1341  0.0846  0.0393
  509MOL0     C68616  11.333  12.148   4.564  0.6601  0.4542  0.2343
  509MOL0     C68617  11.460  12.222   4.598 -0.0501  0.0984  0.2696
  509MOL0     C68618  11.576  12.131   4.632  0.1059  0.4865 -0.3821
  509MOL0     C68619  11.715  12.188   4.620  0.5871 -0.4302 -0.6938
  509MOL0     C68620  11.816  12.087   4.666 -0.0469 -0.1388  0.9186
  509MOL0     C68621  11.960  12.136   4.626  0.1234  0.4012  0.3312
  509MOL0     C68622  12.076  12.066   4.704 -1.2733  1.1130  0.2113
  509MOL0     C68623  12.096  11.923   4.648 -0.2882 -0.1399 -0.5593
  509MOL0    Cl68624  12.172  11.830   4.787  0.0030 -0.5015  0.3206
  509MOL0     C68625  11.048  12.096   4.496  0.1334  0.2539  0.1377
  509MOL0     C68626  10.924  12.060   4.436 -1.0368  0.1675 -0.4694
  509MOL0     O68627  10.626  12.096   4.431 -1.0046  0.8422  0.5421
  509MOL0     C68628  10.558  12.017   4.085 -0.1043  0.0479  0.1064
  509MOL0     C68629  10.461  11.972   3.998 -0.6490 -0.2611 -0.0554
  509MOL0     N68630   9.946  11.414   3.709 -0.4403 -0.2227 -0.0173
  509MOL0     N68631   9.993  11.333   3.623  0.2902 -0.2753 -0.9023
  509MOL0     C68632   9.274  11.172   3.144  0.8065  0.0149  0.4401
  509MOL0     C68633   9.140  11.129   3.173 -0.3207  0.0259  0.0126
  509MOL0     C68634   8.696  11.065   3.279 -0.5191  0.6290 -0.6738
  509MOL0     C68635   8.670  11.153   3.387  0.4810  0.0598  0.9522
  509MOL0     C68636   8.539  11.184   3.435 -0.9484  0.1699  0.1552
  509MOL0     C68637   8.431  11.112   3.383  0.9246  0.2020  0.3830
  509MOL0     O68638   8.301  11.121   3.431  1.0164  0.0709 -0.5853
  509MOL0     C68639   8.271  11.211   3.542 -0.4697 -0.1368  0.2813
  509MOL0     C68640   8.130  11.179   3.593  0.5942 -0.2010 -0.7112
  509MOL0     C68641   8.071  11.302   3.658  0.1258 -0.4041 -0.4117
  509MOL0     C68642   8.012  11.398   3.560 -0.2656  0.3415  0.1255
  509MOL0     C68643   7.885  11.346   3.516  0.5883 -0.0957 -0.2150
  509MOL0     C68644   7.779  11.310   3.471  0.6007  0.2569 -0.9338
  509MOL0     C68645   8.448  11.032   3.277 -0.0323 -0.9471 -0.1412
  509MOL0     C68646   8.574  10.999   3.226 -0.3081 -1.1474  1.0265
  509MOL0     C68647   8.582  10.899   3.115 -0.2284 -0.5391  0.1889
  509MOL0     H68648   9.070  11.347   3.416  1.8260  0.8420 -0.2100
  509MOL0     H68649   9.278  11.442   3.340  0.4079 -0.8300 -0.4311
  509MOL0     H68650   9.524  11.234   3.012 -0.8135  0.5929 -2.7134
  509MOL0     H68651   9.430  11.379   2.980  2.4749  2.8657 -0.8628
  509MOL0     H68652   9.580  11.516   3.105 -0.5151 -1.4959 -0.6900
  509MOL0     H68653   9.647  11.460   2.960  0.0316  2.1411  1.1345
  509MOL0     H68654   9.761  11.267   3.077 -0.3925 -0.0812 -0.5236
  509MOL0     H68655   9.695  11.319   3.236 -1.5337  0.4160 -0.8222
  509MOL0     H68656   9.898  11.493   3.064  2.1931  1.6890  1.8839
  509MOL0     H68657   9.819  11.549   3.213  0.9315 -0.0764  0.3414
  509MOL0     H68658   9.932  11.345   3.329 -1.6562  2.0368 -0.4738
  509MOL0     H68659  10.004  11.307   3.168 -0.1560  0.2821 -2.4469
  509MOL0     H68660  10.135  11.535   3.202  0.9585  1.4800  1.8576
  509MOL0     H68661  10.060  11.553   3.357  1.0361 -0.0233  1.5472
  509MOL0     H68662  10.290  11.463   3.370 -1.3515  0.6559  0.5770
  509MOL0     H68663  10.249  11.328   3.258 -2.4893  1.9127 -1.8673
  509MOL0     H68664  10.119  11.218   3.436  2.0540  0.1324 -0.6902
  509MOL0     H68665  10.267  11.269   3.515  0.9612 -0.9245 -0.5611
  509MOL0     H68666  10.231  11.559   3.632  0.1512  0.2183  2.5848
  509MOL0     H68667  10.072  11.721   3.749  2.4250 -3.0518 -1.8995
  509MOL0     H68668   9.927  11.658   3.843  1.3233 -0.8730  4.7345
  509MOL0     H68669  10.076  11.533   3.983  0.2584  1.1850  0.9243
  509MOL0     H68670  10.218  11.601   3.899 -0.5905 -1.6029 -2.3341
  509MOL0     H68671  10.137  11.694   4.125  3.0850  1.8143 -0.4936
  509MOL0     H68672   9.974  11.723   4.054  0.4471  0.2850  1.1787
  509MOL0     H68673  10.093  11.928   4.085 -5.0138  1.9780 -1.5658
  509MOL0     H68674  10.041  11.914   3.930 -0.2412 -0.4488 -0.1850
  509MOL0     H68675  10.238  11.871   4.248  0.8328  1.0241  2.8825
  509MOL0     H68676  10.424  11.929   4.387  2.1338 -0.8730 -0.3380
  509MOL0     H68677  10.937  12.297   4.194  1.3581 -0.1897 -0.1970
  509MOL0     H68678  11.138  12.360   4.317  1.3491 -0.9056  1.3289
  509MOL0     H68679  11.286  12.098   4.649 -1.5268 -1.1532 -1.7631
  509MOL0     H68680  11.358  12.066   4.496  0.5551  2.2323 -2.0674
  509MOL0     H68681  11.496  12.288   4.519  0.1437 -0.4685 -0.1194
  509MOL0     H68682  11.424  12.288   4.678 -2.1235 -0.6022 -0.0299
  509MOL0     H68683  11.567  12.101   4.737  1.6263  1.6711  0.1222
  509MOL0     H68684  11.572  12.039   4.573 -3.3089  0.8325 -0.8705
  509MOL0     H68685  11.717  12.279   4.680 -1.8766  0.1165 -1.3426
  509MOL0     H68686  11.734  12.215   4.515  0.8165 -3.4098 -1.5307
  509MOL0     H68687  11.797  11.990   4.620 -0.0851 -0.5466  1.7770
  509MOL0     H68688  11.799  12.071   4.772  1.7380  0.3005  1.3166
  509MOL0     H68689  11.971  12.138   4.517  0.3119 -1.4562  0.2911
  509MOL0     H68690  11.968  12.240   4.660  0.4515 -0.7678  4.4136
  509MOL0     H68691  12.038  12.051   4.805 -0.4251 -0.3856  0.3358
  509MOL0     H68692  12.167  12.125   4.687  0.7663 -2.4007 -2.1936
  509MOL0     H68693  12.005  11.876   4.610  0.4912  0.2289 -3.0037
  509MOL0     H68694  12.174  11.935   4.572  1.1907  2.7436  1.2239
  509MOL0     H68695  11.087  12.042   4.582 -1.1011  0.2909  0.7455
  509MOL0     H68696  10.872  11.969   4.465  2.0512 -1.6604 -0.1984
  509MOL0     H68697  10.649  12.053   4.037  0.9516  0.2006  2.1059
  509MOL0     H68698  10.484  11.978   3.892 -0.2315  2.7136  0.1353
  509MOL0     H68699   9.336  11.125   3.068 -1.7837 -1.2332 -1.0028
  509MOL0     H68700   9.101  11.043   3.118 -0.8461  0.3207 -0.0819
  509MOL0     H68701   8.758  11.187   3.440  2.0276 -1.9265 -0.1904
  509MOL0     H68702   8.527  11.265   3.507  1.1196  0.3823  0.3395
  509MOL0     H68703   8.285  11.315   3.510  1.8117 -0.7994 -1.1017
  509MOL0     H68704   8.341  11.187   3.623 -0.1153 -2.1706 -0.5696
  509MOL0     H68705   8.138  11.106   3.674  1.5500 -1.5304 -1.9694
  509MOL0     H68706   8.077  11.142   3.505  0.7318  1.3270 -1.4739
  509MOL0     H68707   8.152  11.345   3.717  0.9657  0.9934 -2.4695
  509MOL0     H68708   7.998  11.277   3.736  0.8160 -1.7624 -0.1678
  509MOL0     H68709   8.001  11.494   3.611  0.9321  1.3740 -1.4694
  509MOL0     H68710   8.082  11.421   3.479  0.5542  0.8138  0.9517
  509MOL0     H68711   7.681  11.281   3.439  0.2422  0.8646 -0.4142
  509MOL0     H68712   8.363  10.977   3.237  1.8468 -2.5633 -2.1329
  509MOL0     H68713   8.674  10.904   3.055 -1.5411 -0.8961 -1.9487
  509MOL0     H68714   8.572  10.793   3.139 -0.1660 -0.6861 -0.4055
  509MOL0     H68715   8.494  10.916   3.053 -0.8281 -0.8711  0.9356
  510MOL0     O68716   4.884  11.107   4.534  0.1879 -0.0979  0.1999
  510MOL0     C68717   4.883  11.112   4.417 -0.7414  0.5525  1.5969
  510MOL0     O68718   4.774  11.112   4.335  0.4904  0.0709  0.5420
  510MOL0     C68719   4.654  11.152   4.397 -1.1699  0.4954 -0.1322
  510MOL0     C68720   4.545  11.061   4.391 -0.8645  1.2371 -0.8960
  510MOL0     C68721   4.430  11.080   4.470  0.1430  0.2764 -0.0839
  510MOL0     C68722   4.408  11.195   4.541 -0.4346  0.1949  0.7179
  510MOL0     O68723   4.298  11.204   4.614 -0.1348  0.0531 -0.6770
  510MOL0     C68724   4.216  11.307   4.559  0.5510 -1.0818  0.3941
  510MOL0     C68725   4.107  11.330   4.670 -0.7210 -0.4247  0.0542
  510MOL0     C68726   3.987  11.413   4.615  0.1028  0.8687  1.0116
  510MOL0     C68727   4.015  11.560   4.588  0.1615  0.4819  0.0859
  510MOL0     C68728   3.892  11.643   4.577  0.3718 -0.7384  0.1628
  510MOL0     C68729   3.786  11.591   4.472 -0.5858 -0.9874  0.3948
  510MOL0     C68730   3.673  11.702   4.441 -0.2727  0.6179  0.2260
  510MOL0     C68731   3.588  11.711   4.560  0.1625  0.2910 -0.3319
  510MOL0     N68732   3.466  11.783   4.531 -1.0924 -0.7863  0.4931
  510MOL0     C68733   3.421  11.888   4.610 -0.5415 -0.0358  0.1220
  510MOL0     C68734   3.316  11.930   4.543  0.1112 -0.1507 -0.0501
  510MOL0     C68735   3.245  12.056   4.571 -0.8226  0.5658 -0.8239
  510MOL0     C68736   3.307  12.165   4.487  0.8417 -0.3773 -0.0945
  510MOL0     C68737   3.302  12.301   4.553  0.4912  0.8612 -0.1569
  510MOL0     C68738   3.162  12.338   4.616  0.5359 -0.2478 -0.1823
  510MOL0     O68739   3.161  12.464   4.688  0.1259 -0.1548  0.1154
  510MOL0     C68740   3.042  12.530   4.709 -0.6538  0.3598 -0.1904
  510MOL0     C68741   3.047  12.668   4.747 -0.0813  0.2868 -0.2085
  510MOL0     C68742   2.923  12.738   4.769  0.3659  0.2425  0.4407
  510MOL0     C68743   2.794  12.668   4.759 -1.0505 -0.2900 -0.0354
  510MOL0     C68744   2.663  12.744   4.757 -1.7177  0.0381 -0.2874
  510MOL0     O68745   2.559  12.688   4.691 -0.2667  0.1211 -0.2054
  510MOL0     C68746   2.434  12.697   4.738  0.4156 -0.2192  0.0685
  510MOL0     C68747   2.339  12.728   4.641  0.0700 -0.3386 -0.4975
  510MOL0     C68748   2.210  12.751   4.677  0.7758  0.5055  0.0472
  510MOL0     C68749   2.165  12.722   4.818 -0.6332 -0.1974  0.4069
  510MOL0     O68750   2.038  12.745   4.865 -0.5200  0.1091 -0.2735
  510MOL0     C68751   1.939  12.743   4.773 -0.4992  1.4545 -0.0865
  510MOL0     C68752   1.806  12.716   4.856  0.2809 -0.2255 -0.1225
  510MOL0     C68753   1.691  12.733   4.758  0.4791  0.7601  0.0863
  510MOL0     C68754   1.558  12.701   4.844 -0.3254 -0.3948  0.9981
  510MOL0     C68755   1.429  12.765   4.796 -0.4599 -0.7249 -0.3081
  510MOL0     C68756   1.304  12.730   4.887 -0.2687  1.0332  0.2837
  510MOL0     C68757   1.180  12.792   4.823 -0.6605  0.0258 -0.4131
  510MOL0     C68758   1.051  12.770   4.903  0.2970  0.9520 -0.0961
  510MOL0    Cl68759   0.998  12.594   4.918  0.1502 -0.3303 -0.2513
  510MOL0     C68760   2.263  12.672   4.911 -0.9997 -0.6810  0.1776
  510MOL0     C68761   2.398  12.665   4.870 -0.0626 -0.5106  0.0951
  510MOL0     O68762   2.653  12.842   4.826 -0.5245 -0.7316  0.4683
  510MOL0     C68763   2.807  12.533   4.717  0.1580 -0.6508 -0.6459
  510MOL0     C68764   2.918  12.465   4.702 -0.0002 -0.7643  0.9614
  510MOL0     N68765   3.294  11.844   4.434  0.6667  0.1472  0.4204
  510MOL0     N68766   3.379  11.752   4.429 -0.0797 -1.3160  0.4699
  510MOL0     C68767   4.519  11.280   4.554 -0.9690  0.5598 -0.9281
  510MOL0     C68768   4.639  11.262   4.479 -0.6883 -0.0176  0.3420
  510MOL0     C68769   5.022  11.129   4.348  0.3894 -0.7779 -0.3630
  510MOL0     C68770   5.121  11.062   4.412  0.3569  0.7019  0.0724
  510MOL0     C68771   5.243  11.032   4.357  0.1337  0.0261  0.5998
  510MOL0     C68772   5.273  11.108   4.242  0.3709  0.0432  0.6242
  510MOL0     O68773   5.392  11.118   4.181 -0.3470 -0.7585  0.1488
  510MOL0     C68774   5.510  11.081   4.253  0.4188  0.7602  0.8264
  510MOL0     C68775   5.548  10.939   4.214 -0.2711  0.8302 -0.3342
  510MOL0     C68776   5.683  10.888   4.282  0.3191  0.3180 -1.3557
  510MOL0     C68777   5.807  10.928   4.217  1.0208  0.2371 -0.2706
  510MOL0     C68778   5.818  10.876   4.087 -1.0200  0.6403  0.5206
  510MOL0     C68779   5.827  10.855   3.969 -0.6955  0.0807  0.6079
  510MOL0     C68780   5.170  11.181   4.176  0.2577  0.8378  0.7061
  510MOL0     C68781   5.044  11.193   4.228  0.0205  0.8263  0.1056
  510MOL0     C68782   4.946  11.268   4.157 -0.2082 -0.0202 -0.5569
  510MOL0     H68783   4.564  10.973   4.330  1.2407  1.8954 -1.2558
  510MOL0     H68784   4.357  10.999   4.462 -0.0787  0.3756  0.7928
  510MOL0     H68785   4.270  11.401   4.545  0.2797 -0.8283  0.9798
  510MOL0     H68786   4.171  11.284   4.462 -1.0442  0.2616  0.7479
  510MOL0     H68787   4.157  11.377   4.755 -2.1633  1.5335 -0.1118
  510MOL0     H68788   4.083  11.228   4.704  1.0833 -0.9532 -0.1697
  510MOL0     H68789   3.915  11.411   4.698 -1.4776  3.5491 -0.1515
  510MOL0     H68790   3.951  11.365   4.523 -0.8172  0.0259  1.7811
  510MOL0     H68791   4.080  11.599   4.667  1.5455  2.4565 -1.8915
  510MOL0     H68792   4.064  11.578   4.491 -2.8039  1.7432 -1.3058
  510MOL0     H68793   3.844  11.650   4.674  0.5792 -0.8286  0.2735
  510MOL0     H68794   3.924  11.743   4.548 -1.2601 -0.3829 -0.5397
  510MOL0     H68795   3.826  11.570   4.372 -0.6034 -4.2359  0.9571
  510MOL0     H68796   3.741  11.498   4.510  2.6092 -2.3600  1.2375
  510MOL0     H68797   3.617  11.669   4.353  0.5094  2.4050 -1.0060
  510MOL0     H68798   3.729  11.791   4.410 -0.6188 -0.2132 -3.1659
  510MOL0     H68799   3.560  11.609   4.588 -0.6334  0.6114  0.0746
  510MOL0     H68800   3.643  11.740   4.649  0.1244 -1.1782  0.1978
  510MOL0     H68801   3.464  11.928   4.701 -2.4879 -0.4166  1.2556
  510MOL0     H68802   3.139  12.047   4.545 -1.2507  0.2271  0.9351
  510MOL0     H68803   3.267  12.070   4.677  1.6878 -1.9842 -0.8755
  510MOL0     H68804   3.414  12.150   4.468  0.6597 -0.2171 -1.3154
  510MOL0     H68805   3.262  12.164   4.387  0.7107 -3.8342 -0.1335
  510MOL0     H68806   3.321  12.377   4.476 -2.5397  1.4715 -0.4302
  510MOL0     H68807   3.377  12.314   4.631  0.0317 -2.2156  0.9163
  510MOL0     H68808   3.136  12.255   4.683  0.6966  0.1260  0.3473
  510MOL0     H68809   3.084  12.333   4.540  0.4502  0.7413 -0.1703
  510MOL0     H68810   3.145  12.706   4.773  1.7740 -2.8670 -1.8938
  510MOL0     H68811   2.916  12.844   4.792 -4.5209  0.0942  0.5556
  510MOL0     H68812   2.339  12.732   4.533 -2.9481  2.6519 -0.5298
  510MOL0     H68813   2.153  12.792   4.594  0.1825  1.1133  0.7438
  510MOL0     H68814   1.940  12.844   4.733 -1.7504  0.7884 -1.9174
  510MOL0     H68815   1.941  12.670   4.691 -2.7199 -0.1297  1.1546
  510MOL0     H68816   1.796  12.613   4.892 -0.3398 -0.1567 -0.0727
  510MOL0     H68817   1.799  12.791   4.935 -1.2636  0.9325 -1.3060
  510MOL0     H68818   1.690  12.833   4.714 -0.2082  1.1656  1.0015
  510MOL0     H68819   1.706  12.670   4.670 -0.6716  0.8238 -0.1708
  510MOL0     H68820   1.557  12.737   4.947 -0.9296 -3.8421  2.3478
  510MOL0     H68821   1.547  12.592   4.853 -0.0643 -0.4432  0.7227
  510MOL0     H68822   1.422  12.741   4.689  1.8444 -1.3930 -0.3621
  510MOL0     H68823   1.439  12.874   4.800  1.5531 -0.7525 -2.1484
  510MOL0     H68824   1.301  12.621   4.885  3.3493  0.8001  0.9610
  510MOL0     H68825   1.308  12.761   4.991 -0.3863  0.3868  0.4855
  510MOL0     H68826   1.182  12.757   4.720  1.8472 -0.3752 -0.2977
  510MOL0     H68827   1.193  12.901   4.818 -1.7442  0.1652 -0.4180
  510MOL0     H68828   1.063  12.814   5.002  1.0289 -2.5654  1.5343
  510MOL0     H68829   0.971  12.832   4.863  0.8227  2.5061  1.1756
  510MOL0     H68830   2.233  12.647   5.012 -0.5458  2.3448  1.1785
  510MOL0     H68831   2.472  12.638   4.945  1.2323 -2.2013 -1.6962
  510MOL0     H68832   2.715  12.478   4.703  1.1150 -3.9661  3.8449
  510MOL0     H68833   2.906  12.367   4.658 -1.0068 -0.3638  0.2861
  510MOL0     H68834   4.520  11.364   4.623  0.7907 -1.2879  1.4506
  510MOL0     H68835   4.722  11.332   4.475 -0.5634 -0.0908  1.5217
  510MOL0     H68836   5.100  11.001   4.499  2.2803 -0.8081 -0.4589
  510MOL0     H68837   5.319  10.975   4.409  1.0501  1.3326  0.7312
  510MOL0     H68838   5.489  11.096   4.359 -1.9476  1.0424  0.3821
  510MOL0     H68839   5.589  11.151   4.226  0.4349  1.0501  1.6059
  510MOL0     H68840   5.538  10.923   4.106  0.2496 -0.8582 -0.1557
  510MOL0     H68841   5.477  10.867   4.256 -1.3235  1.7196 -0.5141
  510MOL0     H68842   5.693  10.780   4.288  3.4216  0.6042  1.6278
  510MOL0     H68843   5.680  10.917   4.388 -1.5030 -1.4301 -0.8617
  510MOL0     H68844   5.809  11.037   4.220 -0.7065  0.2702  0.6583
  510MOL0     H68845   5.894  10.896   4.274  0.8788  2.6818  1.4912
  510MOL0     H68846   5.814  10.817   3.870  0.5631  1.5949 -0.1954
  510MOL0     H68847   5.202  11.234   4.086  1.9377  1.5775  1.6873
  510MOL0     H68848   4.900  11.193   4.093  0.0027  1.2023 -2.2215
  510MOL0     H68849   4.875  11.313   4.227 -0.5536 -3.2814  1.3512
  510MOL0     H68850   4.985  11.348   4.092 -2.2928  0.1528 -1.6911
  511MOL0     O68851   5.850  10.090   7.132 -0.0043 -0.6080 -0.3291
  511MOL0     C68852   5.846  10.048   7.019 -0.6165  1.3184 -0.5812
  511MOL0     O68853   5.961  10.014   6.950  0.3106  0.2899 -0.0210
  511MOL0     C68854   6.089   9.992   7.004  0.0722  0.5314 -0.0424
  511MOL0     C68855   6.184   9.979   6.905 -0.2740 -0.1655 -0.1948
  511MOL0     C68856   6.323   9.964   6.933  0.3841 -0.0957 -0.0801
  511MOL0     C68857   6.363   9.966   7.068  0.5860  0.6600  0.6526
  511MOL0     O68858   6.493   9.951   7.098 -0.5089  0.4001  0.0005
  511MOL0     C68859   6.602   9.971   7.001  0.4196 -0.0778 -0.1103
  511MOL0     C68860   6.737   9.961   7.084 -0.7468 -0.2009 -0.7965
  511MOL0     C68861   6.860   9.985   6.995  0.3889  0.3229  0.1697
  511MOL0     C68862   6.983  10.019   7.069  0.4189 -0.2410 -0.5329
  511MOL0     C68863   7.097  10.020   6.969  0.0895 -0.5245  0.0353
  511MOL0     C68864   7.231  10.050   7.046  0.2018 -0.3808  1.0424
  511MOL0     C68865   7.355  10.029   6.951 -0.3126 -0.3213  0.2070
  511MOL0     C68866   7.493  10.097   6.996  0.3420 -0.5530  0.8108
  511MOL0     N68867   7.579  10.104   6.878  0.6202 -0.4334  0.3760
  511MOL0     C68868   7.589  10.218   6.795  0.2841  0.1253 -0.8537
  511MOL0     C68869   7.684  10.189   6.710 -0.1976  0.6742  0.4612
  511MOL0     C68870   7.749  10.263   6.601  0.1314  0.1313 -0.5361
  511MOL0     C68871   7.743  10.418   6.623 -0.2075  0.1671 -0.0550
  511MOL0     C68872   7.809  10.474   6.754  0.0274  0.1992  0.6086
  511MOL0     C68873   7.956  10.505   6.741 -0.5671  0.0650  0.1258
  511MOL0     O68874   8.001  10.543   6.872  0.3500 -0.5968  0.7117
  511MOL0     C68875   8.138  10.537   6.904  0.5733 -0.1018 -0.6277
  511MOL0     C68876   8.181  10.559   7.033 -0.1725 -0.0437 -1.1785
  511MOL0     C68877   8.317  10.540   7.055  0.2120 -0.3141  0.9306
  511MOL0     C68878   8.407  10.500   6.953 -0.8325  0.6823  0.1250
  511MOL0     C68879   8.547  10.475   6.978  0.3683  0.2544 -0.3672
  511MOL0     O68880   8.586  10.508   7.109 -0.4698 -0.4264 -0.5643
  511MOL0     C68881   8.714  10.474   7.133  0.3094 -0.2366 -0.3336
  511MOL0     C68882   8.801  10.579   7.162  0.6004  0.7185  0.2850
  511MOL0     C68883   8.937  10.562   7.182  0.1083  0.6136 -0.1856
  511MOL0     C68884   8.988  10.434   7.165  0.0487 -0.7187 -0.2050
  511MOL0     O68885   9.121  10.413   7.202 -0.9696 -1.0840  0.3122
  511MOL0     C68886   9.218  10.404   7.098  0.3679 -0.4561 -1.1464
  511MOL0     C68887   9.337  10.330   7.154 -0.1087 -0.2035 -0.3614
  511MOL0     C68888   9.399  10.405   7.268 -0.0718 -0.4551 -0.8738
  511MOL0     C68889   9.556  10.407   7.271  0.7735  0.1278  0.5228
  511MOL0     C68890   9.609  10.502   7.378  0.3754 -0.0093  0.3435
  511MOL0     C68891   9.761  10.504   7.387 -0.3368 -0.6294  0.2941
  511MOL0     C68892   9.807  10.615   7.491  0.4107  0.2295  0.0580
  511MOL0     C68893   9.937  10.662   7.429 -0.0247  0.4285 -0.6302
  511MOL0    Cl68894   9.992  10.775   7.558  0.4602  0.7163 -0.1178
  511MOL0     C68895   8.908  10.327   7.136  1.0360 -1.5163  0.1759
  511MOL0     C68896   8.770  10.348   7.114 -0.5103 -0.5004  0.2147
  511MOL0     O68897   8.610  10.412   6.887 -0.5609 -0.0516 -0.4226
  511MOL0     C68898   8.357  10.478   6.826 -0.0531  0.9032 -0.2055
  511MOL0     C68899   8.220  10.505   6.801  0.4535 -0.2682  0.0422
  511MOL0     N68900   7.729  10.060   6.720  0.0707 -0.1474  0.8929
  511MOL0     N68901   7.668  10.012   6.826 -0.4485  0.4447 -0.3552
  511MOL0     C68902   6.264   9.976   7.168 -0.2108 -0.5988 -0.2481
  511MOL0     C68903   6.129   9.987   7.135 -0.0336  0.1703 -0.4397
  511MOL0     C68904   5.711  10.020   6.957  0.4968 -0.8177  0.4280
  511MOL0     C68905   5.705   9.948   6.830  1.0730  0.9553  0.4849
  511MOL0     C68906   5.582   9.922   6.769 -0.2512 -0.1044 -0.6716
  511MOL0     C68907   5.459   9.964   6.825 -0.3731  0.2449 -0.9006
  511MOL0     O68908   5.339   9.938   6.756 -0.6044  0.3366 -0.4214
  511MOL0     C68909   5.211   9.970   6.824  0.5883  0.4513  0.4874
  511MOL0     C68910   5.113   9.861   6.796 -0.1306 -0.0541  0.5264
  511MOL0     C68911   4.960   9.900   6.789  0.4118 -0.4234 -0.6362
  511MOL0     C68912   4.914  10.011   6.686  0.2616 -1.0481  0.5678
  511MOL0     C68913   4.804  10.086   6.736 -0.0918 -0.2026 -0.2932
  511MOL0     C68914   4.717  10.155   6.784 -0.0071  0.4348  0.6208
  511MOL0     C68915   5.470  10.028   6.954  0.3747 -0.5997  0.4739
  511MOL0     C68916   5.594  10.069   7.010 -0.2644 -0.1163  0.7516
  511MOL0     C68917   5.579  10.150   7.134 -0.5182  0.3335 -0.3667
  511MOL0     H68918   6.159   9.976   6.799 -1.1125  1.4223 -0.0687
  511MOL0     H68919   6.389   9.956   6.846  1.8916 -2.4178  1.1842
  511MOL0     H68920   6.589   9.892   6.925 -1.0939  0.8770 -0.8943
  511MOL0     H68921   6.597  10.069   6.952  0.0277  0.5037  1.0717
  511MOL0     H68922   6.740   9.863   7.133  0.5101 -0.6325 -1.6908
  511MOL0     H68923   6.719  10.040   7.157 -1.0649  0.8393 -1.9725
  511MOL0     H68924   6.829  10.065   6.928 -0.3467 -0.6542 -0.6951
  511MOL0     H68925   6.882   9.902   6.928  0.6530  0.8497 -0.4057
  511MOL0     H68926   6.976  10.116   7.119  0.4453 -0.6196  0.2162
  511MOL0     H68927   7.013   9.957   7.154  0.3544  0.1107 -0.2471
  511MOL0     H68928   7.111   9.930   6.908 -2.2199 -2.9770  2.8168
  511MOL0     H68929   7.078  10.110   6.909 -4.5623 -0.1961  1.5539
  511MOL0     H68930   7.225  10.153   7.083  1.2369  0.0662  0.0184
  511MOL0     H68931   7.241   9.978   7.129  0.4858 -1.4328  0.1257
  511MOL0     H68932   7.325  10.063   6.851 -1.1919 -1.6266  0.0054
  511MOL0     H68933   7.363   9.921   6.934 -1.1050 -0.2439 -0.7643
  511MOL0     H68934   7.483  10.202   7.028 -1.6917 -0.7639  0.9966
  511MOL0     H68935   7.542  10.037   7.074 -0.1030 -0.3313  1.2637
  511MOL0     H68936   7.543  10.315   6.813  2.0283  0.5500  1.8183
  511MOL0     H68937   7.854  10.234   6.599 -0.0778 -0.5965 -2.2524
  511MOL0     H68938   7.700  10.244   6.505 -0.8624  2.2198 -0.5070
  511MOL0     H68939   7.796  10.464   6.539 -0.6288  2.8256  1.0447
  511MOL0     H68940   7.635  10.438   6.630 -0.0470  0.6606  1.4631
  511MOL0     H68941   7.786  10.406   6.836 -0.6970 -0.2106  0.0791
  511MOL0     H68942   7.748  10.564   6.769 -1.6595 -0.7584 -0.2250
  511MOL0     H68943   7.971  10.581   6.664  2.4440  0.5786  1.0935
  511MOL0     H68944   8.000  10.407   6.718 -0.8010  0.3177 -1.5522
  511MOL0     H68945   8.109  10.581   7.111 -0.9076  1.2109 -2.1703
  511MOL0     H68946   8.358  10.562   7.153  1.1253 -1.6537  0.8759
  511MOL0     H68947   8.750  10.672   7.187  1.9088  1.1824  1.3017
  511MOL0     H68948   9.011  10.637   7.210  1.3478  0.5416 -2.9942
  511MOL0     H68949   9.183  10.361   7.003  1.7217  1.9614 -2.8828
  511MOL0     H68950   9.253  10.506   7.075  2.4264 -0.6973  0.6347
  511MOL0     H68951   9.306  10.229   7.183  1.4053 -0.1542  1.5837
  511MOL0     H68952   9.409  10.324   7.072  0.9368  1.2967  0.3944
  511MOL0     H68953   9.371  10.510   7.269  4.2042  0.9182  0.9049
  511MOL0     H68954   9.378  10.362   7.366  2.5152 -3.5791 -1.4887
  511MOL0     H68955   9.608  10.441   7.181  3.8830 -0.7699  1.8287
  511MOL0     H68956   9.588  10.302   7.272  4.1365  0.9250 -2.6086
  511MOL0     H68957   9.565  10.467   7.472  0.8077 -1.1041  0.1548
  511MOL0     H68958   9.566  10.600   7.355 -2.3159 -1.6397 -2.4056
  511MOL0     H68959   9.792  10.403   7.416  1.3577  0.1042  1.1863
  511MOL0     H68960   9.799  10.521   7.287 -4.2892  1.1141 -1.1289
  511MOL0     H68961   9.824  10.559   7.584 -1.6717  2.8133  2.1875
  511MOL0     H68962   9.734  10.694   7.509 -1.7377 -1.4390 -0.7981
  511MOL0     H68963   9.995  10.571   7.411 -1.5336 -0.6152 -0.3765
  511MOL0     H68964   9.927  10.716   7.335  0.6022 -1.2163 -1.6978
  511MOL0     H68965   8.945  10.226   7.124 -2.1933 -3.0071  1.5913
  511MOL0     H68966   8.699  10.270   7.088 -0.9703 -1.6510  4.1959
  511MOL0     H68967   8.420  10.442   6.745  1.7623 -1.9664  2.2529
  511MOL0     H68968   8.199  10.494   6.695  0.2933  0.2210  0.0218
  511MOL0     H68969   6.293   9.999   7.270  1.5793  2.1718 -1.2483
  511MOL0     H68970   6.064   9.995   7.221  2.8111  0.7812  1.8054
  511MOL0     H68971   5.792   9.909   6.777 -1.0883 -0.6294 -2.1518
  511MOL0     H68972   5.564   9.879   6.671 -0.2702  1.0620 -1.1924
  511MOL0     H68973   5.172  10.065   6.786 -0.3841  0.3542  1.1967
  511MOL0     H68974   5.219   9.972   6.933  0.6394  2.1834  0.4841
  511MOL0     H68975   5.131   9.783   6.871 -2.0632 -0.9146  0.1477
  511MOL0     H68976   5.131   9.825   6.695 -1.1403  0.9011 -0.0166
  511MOL0     H68977   4.936   9.927   6.892  3.0736 -1.1883  0.2715
  511MOL0     H68978   4.903   9.809   6.769 -2.1963  1.1948 -1.0074
  511MOL0     H68979   5.000  10.078   6.672  1.0308 -2.2800 -0.8286
  511MOL0     H68980   4.892   9.963   6.590 -4.0080 -1.1823  1.4218
  511MOL0     H68981   4.646  10.218   6.832 -0.4191  2.0739 -1.9537
  511MOL0     H68982   5.378  10.053   7.008  0.0047 -1.0108  0.0428
  511MOL0     H68983   5.612  10.102   7.227  2.6303  2.0579 -0.4530
  511MOL0     H68984   5.646  10.236   7.132  0.9083 -0.7343 -0.1113
  511MOL0     H68985   5.478  10.192   7.139 -0.9198 -0.6921  0.5635
  512MOL0     O68986   7.761   4.480   9.582  0.2558  0.4279 -0.0495
  512MOL0     C68987   7.858   4.404   9.563  0.0151  0.0880 -0.1974
  512MOL0     O68988   7.843   4.271   9.533 -0.1627 -0.0794 -0.3802
  512MOL0     C68989   7.717   4.216   9.510 -1.1062 -0.3769  0.0098
  512MOL0     C68990   7.630   4.269   9.413 -0.7756  0.4554 -0.2278
  512MOL0     C68991   7.502   4.218   9.407  0.4479 -0.3096 -0.0352
  512MOL0     C68992   7.458   4.117   9.488  0.3676 -0.3885  0.9445
  512MOL0     O68993   7.334   4.055   9.484 -0.6146 -0.2474  0.1721
  512MOL0     C68994   7.239   4.076   9.380  0.5531  1.0114 -0.5595
  512MOL0     C68995   7.149   3.957   9.341  0.5346 -1.0613  1.0004
  512MOL0     C68996   7.015   3.952   9.427 -0.2446 -0.3374  0.8239
  512MOL0     C68997   6.944   3.818   9.399  0.2803 -0.2610 -0.3328
  512MOL0     C68998   6.839   3.820   9.507  0.1675  0.0559 -1.0497
  512MOL0     C68999   6.754   3.691   9.515 -0.0389  0.1033  1.0115
  512MOL0     C69000   6.692   3.646   9.381  0.1395 -0.2483 -0.6153
  512MOL0     C69001   6.579   3.541   9.394  0.6719 -1.0831  0.2201
  512MOL0     N69002   6.460   3.608   9.452  0.4050 -0.3850 -0.2678
  512MOL0     C69003   6.396   3.725   9.422  0.0671  0.1590 -0.7859
  512MOL0     C69004   6.330   3.754   9.542 -0.4770 -0.2200  0.7464
  512MOL0     C69005   6.230   3.852   9.577  0.3661 -0.0934  0.5507
  512MOL0     C69006   6.091   3.797   9.538  0.6188  0.3593  0.3173
  512MOL0     C69007   5.971   3.894   9.571  0.8457 -0.3875  0.0588
  512MOL0     C69008   5.839   3.830   9.526 -0.7305 -0.0476  0.5275
  512MOL0     O69009   5.733   3.897   9.592  0.4311 -0.2556  0.3234
  512MOL0     C69010   5.605   3.848   9.572  0.6885 -0.1617 -0.0718
  512MOL0     C69011   5.566   3.733   9.488 -1.0505  0.4186  0.3655
  512MOL0     C69012   5.438   3.679   9.483  0.0126  0.3434  0.0706
  512MOL0     C69013   5.338   3.733   9.569 -0.5834 -0.2968  0.6185
  512MOL0     C69014   5.197   3.667   9.567  0.5696  0.3248 -0.4209
  512MOL0     O69015   5.128   3.692   9.689  0.1939 -0.3889  0.2251
  512MOL0     C69016   4.999   3.652   9.714 -0.0689 -0.3873  0.1534
  512MOL0     C69017   4.947   3.667   9.843  0.2347 -0.0517  0.0253
  512MOL0     C69018   4.828   3.606   9.880 -0.4676  0.3445 -1.0965
  512MOL0     C69019   4.750   3.532   9.788  0.3456  0.1974 -0.2632
  512MOL0     O69020   4.632   3.466   9.830  0.1855  0.9882 -0.4255
  512MOL0     C69021   4.581   3.479   9.970 -0.5315 -0.1837  0.1152
  512MOL0     C69022   4.435   3.442   9.964 -0.0809 -0.2270  0.0505
  512MOL0     C69023   4.377   3.430  10.107 -1.0510  0.0606 -0.2505
  512MOL0     C69024   4.236   3.363  10.090  0.3401 -0.2454  0.2761
  512MOL0     C69025   4.152   3.350  10.221 -0.1217  0.5598  0.0721
  512MOL0     C69026   4.006   3.295  10.185  0.0263 -0.8405  0.1816
  512MOL0     C69027   3.913   3.267  10.307 -0.4512 -0.3032  0.7599
  512MOL0     C69028   3.909   3.115  10.348 -0.0340 -0.4825 -0.4050
  512MOL0    Cl69029   3.896   3.026  10.194  0.1476  0.3772 -0.1439
  512MOL0     C69030   4.794   3.521   9.660  0.3975  0.7462 -0.2070
  512MOL0     C69031   4.915   3.576   9.626  0.1845  0.3999  0.8920
  512MOL0     O69032   5.175   3.578   9.484 -0.3433 -0.7497  0.3928
  512MOL0     C69033   5.372   3.839   9.651 -0.2836  0.5434 -0.7792
  512MOL0     C69034   5.506   3.893   9.654  0.1808 -0.2786 -0.2885
  512MOL0     N69035   6.339   3.641   9.623  0.2831  0.6710  0.5657
  512MOL0     N69036   6.418   3.552   9.568 -0.1352 -0.3814  0.7099
  512MOL0     C69037   7.549   4.061   9.575 -0.5509  0.2109  0.4486
  512MOL0     C69038   7.672   4.116   9.597 -0.9844  0.0492  0.2353
  512MOL0     C69039   7.992   4.461   9.603 -0.1179 -0.3746 -0.0887
  512MOL0     C69040   7.997   4.577   9.683 -0.0793 -0.2556 -0.3855
  512MOL0     C69041   8.116   4.636   9.728 -0.4597  0.7468 -0.4889
  512MOL0     C69042   8.244   4.583   9.686 -0.3421  0.5106  0.3484
  512MOL0     O69043   8.367   4.639   9.719 -0.1378 -0.1527  0.4811
  512MOL0     C69044   8.374   4.751   9.806  0.3619 -0.2006  0.1605
  512MOL0     C69045   8.525   4.783   9.827  0.2173  0.2116 -0.3998
  512MOL0     C69046   8.590   4.839   9.692 -1.1851  0.4181  0.5536
  512MOL0     C69047   8.573   4.991   9.696  0.4521 -1.0788  0.3340
  512MOL0     C69048   8.635   5.036   9.576  0.0520 -0.2550 -0.2892
  512MOL0     C69049   8.701   5.095   9.484  0.4145  0.2011 -0.1159
  512MOL0     C69050   8.240   4.464   9.619 -0.1731 -0.1727  0.2599
  512MOL0     C69051   8.121   4.404   9.571  0.0534  0.4813 -0.3546
  512MOL0     C69052   8.138   4.285   9.465 -0.1751 -0.0042  0.7848
  512MOL0     H69053   7.659   4.349   9.345  0.4676 -1.7917 -2.5242
  512MOL0     H69054   7.431   4.267   9.340  0.1671  1.8234  1.7182
  512MOL0     H69055   7.179   4.161   9.413  0.8379  1.0321 -0.0899
  512MOL0     H69056   7.278   4.113   9.285 -0.3619  1.4781 -0.7691
  512MOL0     H69057   7.213   3.868   9.350  1.3164 -0.8912 -1.9104
  512MOL0     H69058   7.132   3.985   9.237 -0.1973  1.6603  1.7599
  512MOL0     H69059   6.962   4.040   9.389 -2.2124 -0.1490  3.7287
  512MOL0     H69060   7.040   3.974   9.531 -1.7393  2.9387  0.6098
  512MOL0     H69061   6.899   3.805   9.300 -3.3184  0.9166  0.9957
  512MOL0     H69062   7.014   3.736   9.419 -1.2130 -1.5442 -0.0850
  512MOL0     H69063   6.886   3.827   9.605 -1.4114 -1.3652 -0.1471
  512MOL0     H69064   6.766   3.900   9.495  0.8519  0.8548 -0.0259
  512MOL0     H69065   6.814   3.604   9.545  0.4189 -0.7360 -2.0451
  512MOL0     H69066   6.670   3.708   9.582 -0.2087  1.7339  0.4233
  512MOL0     H69067   6.771   3.608   9.316  0.1352 -0.6380 -0.3922
  512MOL0     H69068   6.658   3.738   9.332  1.9620  0.8727  0.1434
  512MOL0     H69069   6.560   3.506   9.292  0.6560 -2.2510  0.6115
  512MOL0     H69070   6.609   3.462   9.463  0.6430  0.7096  2.3958
  512MOL0     H69071   6.398   3.769   9.323  2.4302 -1.9110 -1.7706
  512MOL0     H69072   6.229   3.862   9.686  0.1704  0.5311  0.4953
  512MOL0     H69073   6.250   3.947   9.528 -3.0530  0.7845  0.6371
  512MOL0     H69074   6.098   3.784   9.430 -2.3920 -1.2158  0.1874
  512MOL0     H69075   6.072   3.698   9.582 -0.8325  0.7410  0.6048
  512MOL0     H69076   5.978   3.996   9.531  0.9013  0.7603  2.7696
  512MOL0     H69077   5.962   3.908   9.679  1.9295 -2.5826  0.4754
  512MOL0     H69078   5.850   3.722   9.542 -0.5195 -0.3364 -1.3328
  512MOL0     H69079   5.834   3.834   9.417  0.1770 -0.8402  0.4433
  512MOL0     H69080   5.638   3.689   9.420  0.2783 -1.3264  2.7413
  512MOL0     H69081   5.416   3.592   9.422  1.0037 -0.5257  0.9152
  512MOL0     H69082   5.005   3.727   9.912  0.9280 -1.2351  0.4948
  512MOL0     H69083   4.789   3.623   9.980 -0.5082 -1.0658 -0.8425
  512MOL0     H69084   4.633   3.410  10.037 -0.3419 -0.9726 -0.8329
  512MOL0     H69085   4.596   3.581  10.009  0.9417 -0.7241  1.0651
  512MOL0     H69086   4.367   3.510   9.912  1.0398  1.3213  0.5553
  512MOL0     H69087   4.437   3.345   9.913 -0.7064 -0.5756  0.6735
  512MOL0     H69088   4.438   3.370  10.176 -2.0801 -0.7122  0.0235
  512MOL0     H69089   4.377   3.529  10.154  1.6980 -0.7276  1.6445
  512MOL0     H69090   4.264   3.265  10.051 -0.2839 -0.0561 -0.6634
  512MOL0     H69091   4.178   3.422  10.018 -2.4917 -3.4383 -0.2834
  512MOL0     H69092   4.149   3.447  10.272  0.9978  0.6924 -0.1066
  512MOL0     H69093   4.193   3.275  10.289 -1.5743  1.3043  1.8845
  512MOL0     H69094   3.966   3.373  10.119  0.0321  0.2044  1.3666
  512MOL0     H69095   4.026   3.205  10.126  1.3986 -2.3762  2.7834
  512MOL0     H69096   3.813   3.306  10.287 -0.8405  0.1682  3.2818
  512MOL0     H69097   3.950   3.319  10.396  1.1534  1.4114 -0.8003
  512MOL0     H69098   4.006   3.081  10.384  0.0160 -0.0959 -0.1588
  512MOL0     H69099   3.837   3.088  10.426  0.6243  3.7017  1.9899
  512MOL0     H69100   4.742   3.464   9.584  0.1851  3.1563 -2.0033
  512MOL0     H69101   4.936   3.556   9.521 -2.9708  0.3430  0.1921
  512MOL0     H69102   5.303   3.884   9.722  2.4627  1.9575  1.2048
  512MOL0     H69103   5.504   3.982   9.715 -4.2393 -0.2294 -0.1677
  512MOL0     H69104   7.518   3.977   9.636 -0.5400 -1.1620 -1.3399
  512MOL0     H69105   7.731   4.076   9.679 -0.8254 -0.2589 -0.0275
  512MOL0     H69106   7.902   4.626   9.701 -1.3344 -2.4598 -0.6395
  512MOL0     H69107   8.128   4.728   9.785 -3.1205  0.7819  0.2022
  512MOL0     H69108   8.325   4.724   9.899  1.6957 -0.8196  0.7033
  512MOL0     H69109   8.327   4.841   9.765  2.1777  1.5021  1.6593
  512MOL0     H69110   8.578   4.691   9.854 -0.9929 -0.4145 -0.0778
  512MOL0     H69111   8.541   4.857   9.906 -0.0445  0.1553 -0.2926
  512MOL0     H69112   8.541   4.797   9.604  0.6200 -1.3970  0.3369
  512MOL0     H69113   8.694   4.807   9.682 -1.7622 -1.3166 -0.0966
  512MOL0     H69114   8.469   5.025   9.690  0.9086  0.0640 -2.0425
  512MOL0     H69115   8.614   5.032   9.789 -1.0160  1.6064 -0.0884
  512MOL0     H69116   8.736   5.140   9.393  0.1864  0.4178 -0.0969
  512MOL0     H69117   8.331   4.413   9.589  0.0483 -0.8540  2.0066
  512MOL0     H69118   8.109   4.325   9.368 -0.0916 -1.8715 -0.0510
  512MOL0     H69119   8.241   4.246   9.460 -0.4705 -0.6027 -1.3538
  512MOL0     H69120   8.069   4.204   9.491  0.6952 -0.5058  1.6062
  513MOL0     O69121   9.415   3.879   8.072  0.2014 -0.0227 -0.0660
  513MOL0     C69122   9.354   3.883   7.971  0.3212 -0.0245  0.3782
  513MOL0     O69123   9.396   3.823   7.856  0.0024 -0.9597  0.4261
  513MOL0     C69124   9.515   3.757   7.853  0.1242 -0.0781 -0.0017
  513MOL0     C69125   9.633   3.814   7.785 -0.2367  0.3787 -0.8162
  513MOL0     C69126   9.757   3.749   7.805 -0.2988  0.4035  0.2934
  513MOL0     C69127   9.776   3.627   7.879  0.4688  0.4692  0.2861
  513MOL0     O69128   9.900   3.576   7.898  0.0936  0.1151  0.3823
  513MOL0     C69129   9.925   3.437   7.930 -0.2221  0.1906 -1.4765
  513MOL0     C69130  10.055   3.429   8.007 -0.8629 -0.0256 -0.2507
  513MOL0     C69131  10.176   3.441   7.908 -0.9214 -0.3608 -0.1236
  513MOL0     C69132  10.200   3.319   7.818 -0.5900  0.6209  0.7127
  513MOL0     C69133  10.345   3.315   7.762  0.9258  0.0135 -0.2416
  513MOL0     C69134  10.366   3.431   7.669 -0.1256  0.0727 -0.3724
  513MOL0     C69135  10.507   3.419   7.592  0.9253  0.0183  0.4544
  513MOL0     C69136  10.624   3.396   7.690  0.1059 -0.3333  0.3278
  513MOL0     N69137  10.757   3.428   7.634 -0.4403  0.2522  0.1098
  513MOL0     C69138  10.861   3.336   7.605  0.5071 -0.2389  0.1650
  513MOL0     C69139  10.975   3.405   7.612  0.0040  0.1694  0.6711
  513MOL0     C69140  11.102   3.325   7.589 -0.5086  0.7240 -0.0378
  513MOL0     C69141  11.135   3.223   7.706  1.1266  0.6687  0.4145
  513MOL0     C69142  11.280   3.208   7.752  0.1842  0.1443  0.0224
  513MOL0     C69143  11.356   3.096   7.669  0.0700 -0.3705  0.3748
  513MOL0     O69144  11.412   3.164   7.552  0.5355  0.5509  0.0857
  513MOL0     C69145  11.543   3.207   7.556  0.0145  0.0544  0.4176
  513MOL0     C69146  11.638   3.201   7.666 -0.0833  0.7762 -0.0459
  513MOL0     C69147  11.763   3.262   7.651  0.5947 -0.5596  0.2993
  513MOL0     C69148  11.803   3.327   7.539 -0.6785 -0.1970  0.1740
  513MOL0     C69149  11.935   3.389   7.526 -0.0756 -0.4587 -0.1478
  513MOL0     O69150  12.002   3.418   7.642  0.1791  0.1642 -0.0878
  513MOL0     C69151  12.130   3.472   7.630  0.2567 -0.5591  0.4673
  513MOL0     C69152  12.232   3.389   7.684 -0.7970 -0.3125 -0.1186
  513MOL0     C69153  12.364   3.441   7.696  0.0129 -0.0321 -0.1956
  513MOL0     C69154  12.380   3.582   7.658  0.2573  0.9320  0.8058
  513MOL0     O69155  12.506   3.625   7.678  0.6201  0.0442  0.6441
  513MOL0     C69156  12.528   3.761   7.643 -0.0976 -0.0858 -0.2704
  513MOL0     C69157  12.667   3.795   7.700  0.0899 -0.5314  0.0161
  513MOL0     C69158  12.703   3.938   7.667 -0.0824  0.2131 -0.1292
  513MOL0     C69159  12.608   4.055   7.729  0.5521 -0.2428  0.8439
  513MOL0     C69160  12.591   4.052   7.886  0.1292  0.4433  0.0432
  513MOL0     C69161  12.467   3.989   7.934  0.2337  0.6846  1.0113
  513MOL0     C69162  12.434   4.034   8.070  0.6891 -0.9921 -1.5368
  513MOL0     C69163  12.504   3.976   8.182 -0.7550  0.3447 -0.1857
  513MOL0    Cl69164  12.474   4.053   8.342 -0.0703  0.1622 -0.1927
  513MOL0     C69165  12.271   3.656   7.603 -1.1745  0.4697  0.0272
  513MOL0     C69166  12.150   3.601   7.587  0.5764  0.0687 -0.7861
  513MOL0     O69167  11.972   3.424   7.416  0.6306  0.5497 -0.3466
  513MOL0     C69168  11.715   3.335   7.436  0.4333  0.9048  0.3052
  513MOL0     C69169  11.585   3.275   7.434  0.2635  0.0099 -0.8330
  513MOL0     N69170  10.943   3.541   7.640 -0.7517  0.0594  0.1143
  513MOL0     N69171  10.820   3.548   7.644  0.9614 -0.1165 -0.2427
  513MOL0     C69172   9.655   3.563   7.930  0.2722 -0.4314  0.3667
  513MOL0     C69173   9.533   3.627   7.912 -0.5651  0.7764 -0.0022
  513MOL0     C69174   9.225   3.950   7.955 -0.9942 -0.3071  0.1404
  513MOL0     C69175   9.143   3.936   7.846 -0.2361  0.3343 -0.4613
  513MOL0     C69176   9.018   3.998   7.824 -0.4104  0.5247  0.0671
  513MOL0     C69177   8.967   4.081   7.926 -1.0524  0.5887  0.2514
  513MOL0     O69178   8.852   4.158   7.918 -0.3157  0.5628 -0.0684
  513MOL0     C69179   8.750   4.130   7.819 -0.6418 -0.1614 -1.1358
  513MOL0     C69180   8.622   4.207   7.855 -0.2438 -0.0094  0.2588
  513MOL0     C69181   8.639   4.361   7.848 -0.3844  0.7695 -0.4675
  513MOL0     C69182   8.535   4.448   7.921  0.2618 -0.3278 -0.5827
  513MOL0     C69183   8.406   4.416   7.875  0.5241  0.4292 -0.0308
  513MOL0     C69184   8.297   4.385   7.830 -0.3497 -0.5636 -0.3844
  513MOL0     C69185   9.040   4.089   8.038  0.0607  0.5864 -0.5851
  513MOL0     C69186   9.166   4.032   8.055 -0.3595  0.1588  0.6432
  513MOL0     C69187   9.234   4.054   8.184 -0.0980 -0.4816  0.5150
  513MOL0     H69188   9.634   3.913   7.741 -0.8972 -0.1868 -2.1697
  513MOL0     H69189   9.843   3.801   7.763 -1.5913  3.5053  1.2021
  513MOL0     H69190   9.854   3.395   8.002  2.1121 -1.6796 -0.0932
  513MOL0     H69191   9.928   3.374   7.841 -0.7950  1.4251 -2.3970
  513MOL0     H69192  10.059   3.332   8.057 -0.3269  0.9228  1.6146
  513MOL0     H69193  10.068   3.507   8.081 -0.2028  1.2541 -1.6579
  513MOL0     H69194  10.270   3.467   7.959 -1.5287  2.0431 -0.1158
  513MOL0     H69195  10.171   3.531   7.846  1.0281 -1.0973 -1.4869
  513MOL0     H69196  10.179   3.224   7.868  2.4351 -0.6461 -0.2007
  513MOL0     H69197  10.128   3.328   7.736 -0.9690 -0.2894  0.9251
  513MOL0     H69198  10.414   3.310   7.847 -0.0978  1.7056  0.7360
  513MOL0     H69199  10.365   3.220   7.711 -1.0819 -0.9646  0.6849
  513MOL0     H69200  10.290   3.433   7.591 -0.1805 -0.7403 -0.3453
  513MOL0     H69201  10.352   3.523   7.727 -3.4241  0.0780 -0.9888
  513MOL0     H69202  10.515   3.518   7.545 -3.9892  0.6633  0.3785
  513MOL0     H69203  10.508   3.335   7.522 -0.0455 -0.7234  1.3060
  513MOL0     H69204  10.613   3.464   7.776  1.4803  1.8001 -1.0973
  513MOL0     H69205  10.614   3.295   7.730  0.2949 -0.6243 -0.3468
  513MOL0     H69206  10.844   3.230   7.589  1.2791 -0.9979  3.5684
  513MOL0     H69207  11.112   3.270   7.495  4.1713  0.8457  0.1604
  513MOL0     H69208  11.177   3.404   7.594  1.4770 -0.9348 -1.7297
  513MOL0     H69209  11.064   3.244   7.787 -1.1745 -1.4187 -0.9432
  513MOL0     H69210  11.092   3.130   7.670  0.9013  1.1977 -0.7267
  513MOL0     H69211  11.270   3.170   7.854 -1.0374  1.0099  0.2507
  513MOL0     H69212  11.325   3.308   7.757  0.9578 -0.2094  0.3371
  513MOL0     H69213  11.282   3.024   7.633 -0.3489  0.1865  0.1063
  513MOL0     H69214  11.432   3.050   7.733  1.3400  2.1350  0.8160
  513MOL0     H69215  11.614   3.143   7.754  0.8811 -2.0282 -1.5013
  513MOL0     H69216  11.829   3.244   7.735 -0.3675 -0.6207  1.0623
  513MOL0     H69217  12.216   3.298   7.741  2.5967 -0.3192  1.0634
  513MOL0     H69218  12.440   3.376   7.736 -3.5803 -3.9906  0.9597
  513MOL0     H69219  12.523   3.773   7.535  1.1797 -0.1686 -0.3547
  513MOL0     H69220  12.464   3.836   7.692  0.3546  1.0254 -1.3515
  513MOL0     H69221  12.665   3.784   7.809 -1.0978  0.0886  0.0670
  513MOL0     H69222  12.738   3.718   7.666 -1.9247 -2.1880 -0.6365
  513MOL0     H69223  12.796   3.955   7.722  0.5631 -0.8665 -0.8398
  513MOL0     H69224  12.728   3.955   7.562  0.2597  1.9836  0.2076
  513MOL0     H69225  12.509   4.061   7.683  0.2518 -2.9868  1.0178
  513MOL0     H69226  12.657   4.153   7.718  1.5691 -0.8962 -0.9012
  513MOL0     H69227  12.596   4.151   7.933 -3.6071  1.2673 -1.0254
  513MOL0     H69228  12.671   3.984   7.918  1.8934  2.3593 -0.0702
  513MOL0     H69229  12.389   4.022   7.865  0.5136 -2.5263 -1.0340
  513MOL0     H69230  12.486   3.882   7.922  0.5273  0.8941 -0.7824
  513MOL0     H69231  12.327   4.014   8.085  0.5055 -0.1754 -1.6774
  513MOL0     H69232  12.443   4.143   8.070 -0.3383 -0.6719  3.2638
  513MOL0     H69233  12.475   3.870   8.187  1.9524 -0.5311 -1.0468
  513MOL0     H69234  12.613   3.981   8.169 -0.4488  0.0226  1.8194
  513MOL0     H69235  12.286   3.763   7.591  0.3392  0.1638 -1.0186
  513MOL0     H69236  12.071   3.663   7.544  1.6069  1.7915 -0.3037
  513MOL0     H69237  11.738   3.385   7.342  2.9568 -2.2079 -0.8925
  513MOL0     H69238  11.519   3.282   7.348 -0.8517  0.8922  0.0596
  513MOL0     H69239   9.662   3.466   7.979 -1.2083 -0.1149  1.2672
  513MOL0     H69240   9.443   3.586   7.956 -0.2329 -1.2241 -1.0831
  513MOL0     H69241   9.182   3.877   7.763  1.5021  0.5574  0.1493
  513MOL0     H69242   8.960   3.969   7.738 -2.3431 -0.6981  1.6817
  513MOL0     H69243   8.741   4.022   7.810  2.8401 -0.6786  0.1408
  513MOL0     H69244   8.772   4.164   7.718 -1.4485  2.8634 -0.4025
  513MOL0     H69245   8.586   4.187   7.956  0.9604 -1.6026  0.4074
  513MOL0     H69246   8.552   4.165   7.782  0.8908 -2.4831  0.4947
  513MOL0     H69247   8.644   4.380   7.741 -1.6951 -2.3263 -1.1787
  513MOL0     H69248   8.737   4.386   7.889 -0.3021 -1.5908  0.9571
  513MOL0     H69249   8.543   4.452   8.030  1.7064 -0.0012 -0.6803
  513MOL0     H69250   8.551   4.550   7.886 -2.7583  0.3924 -0.1563
  513MOL0     H69251   8.194   4.358   7.824 -0.9663  0.8518  2.1628
  513MOL0     H69252   8.988   4.141   8.118 -0.7526 -1.0822  0.0032
  513MOL0     H69253   9.190   4.136   8.241  0.8491  0.1346  0.3773
  513MOL0     H69254   9.235   3.966   8.248 -1.1411  0.5289  1.9719
  513MOL0     H69255   9.337   4.083   8.159 -0.4385  0.1833 -0.1611
  514MOL0     O69256   0.708   1.839  11.125 -0.2464 -0.7068 -0.2874
  514MOL0     C69257   0.741   1.873  11.239 -0.3568  0.6616  0.4607
  514MOL0     O69258   0.663   1.942  11.323  0.8393 -0.8631  0.2094
  514MOL0     C69259   0.533   1.955  11.280  0.4727  0.7740  0.3444
  514MOL0     C69260   0.505   2.068  11.218  0.5734 -0.3618 -0.1611
  514MOL0     C69261   0.371   2.105  11.187 -0.4447  0.1433 -1.1519
  514MOL0     C69262   0.265   2.024  11.223 -1.2331  0.0664  0.2553
  514MOL0     O69263   0.133   2.060  11.207 -0.8386 -0.3306 -0.4125
  514MOL0     C69264   0.102   2.200  11.184 -0.7345  1.0542  0.6235
  514MOL0     C69265   0.020   2.244  11.306  0.2941  0.0661  0.5284
  514MOL0     C69266  -0.021   2.392  11.284  0.1464  0.7231 -0.5036
  514MOL0     C69267  -0.164   2.424  11.360 -0.4162 -0.3337 -0.4934
  514MOL0     C69268  -0.202   2.568  11.332 -0.2691 -0.3567  0.1249
  514MOL0     C69269  -0.345   2.608  11.372  0.3957  0.1218 -0.2950
  514MOL0     C69270  -0.364   2.757  11.369 -0.5651 -0.1475 -0.0938
  514MOL0     C69271  -0.510   2.799  11.387  0.2771  0.8774  0.1972
  514MOL0     N69272  -0.526   2.916  11.477  0.0613 -0.0257  0.2244
  514MOL0     C69273  -0.516   2.912  11.616  0.0166  0.1057  0.3226
  514MOL0     C69274  -0.511   3.039  11.658 -0.2808 -0.1538 -0.3771
  514MOL0     C69275  -0.507   3.093  11.799  0.4565 -0.7961  0.3378
  514MOL0     C69276  -0.365   3.069  11.854  0.1852 -0.6923  0.4667
  514MOL0     C69277  -0.267   3.171  11.783 -0.2711 -0.5499 -1.0813
  514MOL0     C69278  -0.122   3.165  11.829  0.4399  0.4252  0.0850
  514MOL0     O69279  -0.039   3.222  11.729  0.1298  0.1390 -0.8588
  514MOL0     C69280   0.093   3.176  11.723 -0.5020  0.4656  0.0918
  514MOL0     C69281   0.160   3.122  11.838  0.0724 -0.6642 -0.2571
  514MOL0     C69282   0.296   3.091  11.823 -0.0704 -0.6440 -0.0496
  514MOL0     C69283   0.367   3.112  11.700 -0.2169 -0.2702  0.6951
  514MOL0     C69284   0.514   3.080  11.694  0.2575 -0.1897  0.3538
  514MOL0     O69285   0.584   3.169  11.611 -0.4230 -0.0443  0.1126
  514MOL0     C69286   0.718   3.156  11.622 -0.2882 -0.6557 -0.9501
  514MOL0     C69287   0.784   3.045  11.577 -0.2475  0.8961  0.2701
  514MOL0     C69288   0.922   3.030  11.617  0.4522  0.6426  1.3143
  514MOL0     C69289   0.980   3.128  11.695  0.0494  0.0926 -0.4828
  514MOL0     O69290   1.098   3.098  11.749 -0.7739 -0.2777 -0.0125
  514MOL0     C69291   1.168   3.199  11.825  0.1354 -0.1613 -0.3884
  514MOL0     C69292   1.317   3.157  11.837  0.5799 -0.3743 -0.4603
  514MOL0     C69293   1.397   3.151  11.708  1.0038  0.4867  0.3001
  514MOL0     C69294   1.544   3.157  11.737 -0.4842  0.0647  0.5178
  514MOL0     C69295   1.631   3.192  11.619  0.2946 -0.8631  0.1024
  514MOL0     C69296   1.776   3.138  11.630  0.0163 -0.8020  0.1326
  514MOL0     C69297   1.801   2.988  11.647  0.1577  0.0744 -0.3300
  514MOL0     C69298   1.941   2.971  11.708  0.1771  0.1581  0.8022
  514MOL0    Cl69299   1.971   2.799  11.750  0.0400  0.5848  0.3156
  514MOL0     C69300   0.918   3.249  11.729 -0.6679  0.6468  0.7172
  514MOL0     C69301   0.784   3.260  11.689  0.9701  0.1070  0.1323
  514MOL0     O69302   0.555   2.998  11.770  0.1191 -0.2069  0.5232
  514MOL0     C69303   0.300   3.166  11.593 -0.7430 -0.5948  0.2259
  514MOL0     C69304   0.163   3.195  11.606 -0.3618  0.0142  0.4263
  514MOL0     N69305  -0.524   3.124  11.550 -0.3050  0.2239 -0.3806
  514MOL0     N69306  -0.525   3.049  11.438 -0.1879  0.7142  0.0159
  514MOL0     C69307   0.293   1.902  11.275 -0.8288  0.9573  0.1358
  514MOL0     C69308   0.423   1.862  11.307  0.3410  0.3986 -0.0042
  514MOL0     C69309   0.874   1.832  11.288 -0.0438 -0.6465  0.0531
  514MOL0     C69310   0.931   1.919  11.385 -0.0828  1.3105 -0.6899
  514MOL0     C69311   1.047   1.893  11.457  0.5562  0.1908  0.8891
  514MOL0     C69312   1.125   1.784  11.411  1.5614 -0.6692 -0.7029
  514MOL0     O69313   1.245   1.758  11.480  0.2491  0.7293  0.3294
  514MOL0     C69314   1.343   1.649  11.444  0.3249 -0.8601  0.1614
  514MOL0     C69315   1.421   1.689  11.314  0.1070 -0.6428 -0.8184
  514MOL0     C69316   1.465   1.833  11.311  0.7224 -0.0801 -0.4526
  514MOL0     C69317   1.541   1.883  11.432  0.2288 -0.3605  0.1010
  514MOL0     C69318   1.652   1.798  11.455 -1.2660  0.4455  0.1028
  514MOL0     C69319   1.748   1.724  11.479  0.5146 -0.3970  0.6325
  514MOL0     C69320   1.076   1.711  11.306  0.2260  0.5506 -0.6110
  514MOL0     C69321   0.945   1.719  11.246  0.3357 -0.4256 -0.9623
  514MOL0     C69322   0.907   1.623  11.138  0.9735 -0.4174 -1.0056
  514MOL0     H69323   0.584   2.140  11.201 -1.2273  1.6797 -0.3010
  514MOL0     H69324   0.368   2.204  11.142  3.0316  0.6711 -0.5283
  514MOL0     H69325   0.187   2.268  11.170 -0.5414  0.5229 -0.9868
  514MOL0     H69326   0.040   2.206  11.095  0.6305 -3.7935 -0.9631
  514MOL0     H69327   0.067   2.225  11.402 -2.3108  1.0831  2.1148
  514MOL0     H69328  -0.070   2.182  11.310  1.1350 -1.1043  3.2286
  514MOL0     H69329  -0.046   2.410  11.179  0.7173  3.3804 -0.2741
  514MOL0     H69330   0.057   2.464  11.312 -0.6441  1.0346  1.0658
  514MOL0     H69331  -0.244   2.363  11.316 -2.2728  1.6112 -0.0021
  514MOL0     H69332  -0.144   2.415  11.467 -0.2229  4.5043  0.1115
  514MOL0     H69333  -0.128   2.637  11.372  0.0670 -0.4610 -0.3107
  514MOL0     H69334  -0.200   2.582  11.224 -0.5319 -1.6878 -0.0724
  514MOL0     H69335  -0.418   2.555  11.309  0.1798  1.2876 -1.0552
  514MOL0     H69336  -0.350   2.581  11.477  3.5858 -1.4994 -0.4188
  514MOL0     H69337  -0.300   2.802  11.293  0.3539 -3.9688 -1.8706
  514MOL0     H69338  -0.320   2.791  11.463  2.8835  0.7312 -1.8845
  514MOL0     H69339  -0.548   2.807  11.285 -0.4729 -0.4132  0.3594
  514MOL0     H69340  -0.566   2.710  11.416  1.1510 -0.0158 -0.7756
  514MOL0     H69341  -0.514   2.831  11.688  1.6845 -0.0917  0.0912
  514MOL0     H69342  -0.529   3.201  11.796  1.8826 -0.5031 -1.9268
  514MOL0     H69343  -0.585   3.040  11.855 -0.9820  0.4052 -0.4529
  514MOL0     H69344  -0.368   3.097  11.960 -1.0669 -3.0064  1.1309
  514MOL0     H69345  -0.336   2.968  11.823  0.2308  0.2148 -2.7602
  514MOL0     H69346  -0.297   3.273  11.806 -1.5920 -1.0405 -0.5294
  514MOL0     H69347  -0.267   3.146  11.676  0.0795  1.0236 -1.4716
  514MOL0     H69348  -0.092   3.060  11.843 -1.3851  0.1738  3.0697
  514MOL0     H69349  -0.123   3.216  11.926 -4.1471 -2.4474  1.9247
  514MOL0     H69350   0.123   3.094  11.936 -1.2950 -1.1331 -0.8882
  514MOL0     H69351   0.356   3.071  11.912  0.1374 -0.8349 -0.2318
  514MOL0     H69352   0.736   2.962  11.527  0.7155  2.2349 -3.1792
  514MOL0     H69353   0.978   2.941  11.589  0.9074  1.7825 -1.8065
  514MOL0     H69354   1.169   3.290  11.765 -0.0502 -0.0420 -0.2122
  514MOL0     H69355   1.114   3.206  11.920 -0.8725  0.0902 -0.9697
  514MOL0     H69356   1.371   3.220  11.908  0.7575 -2.7725  1.6622
  514MOL0     H69357   1.316   3.057  11.881  1.2165  0.6537  2.0409
  514MOL0     H69358   1.370   3.061  11.652  0.8518  0.1315  0.9333
  514MOL0     H69359   1.363   3.239  11.652  1.2741  1.6362  1.8720
  514MOL0     H69360   1.579   3.068  11.790  0.3335  0.8504  1.3415
  514MOL0     H69361   1.560   3.237  11.810 -3.3700 -1.4980  3.1188
  514MOL0     H69362   1.627   3.300  11.602  0.6771 -1.0077 -1.0320
  514MOL0     H69363   1.599   3.138  11.529  2.2882 -0.0374 -1.1736
  514MOL0     H69364   1.841   3.179  11.552 -1.7712 -1.7299 -1.9776
  514MOL0     H69365   1.814   3.186  11.721 -0.5400  1.8923 -0.9477
  514MOL0     H69366   1.776   2.933  11.556 -2.0162  0.7361 -0.2043
  514MOL0     H69367   1.735   2.958  11.729  0.7044  0.4293  0.2551
  514MOL0     H69368   2.012   2.997  11.629 -1.5415 -1.0100 -1.2257
  514MOL0     H69369   1.958   3.033  11.796  1.2430  3.0149 -1.2653
  514MOL0     H69370   0.952   3.329  11.794  0.0493  0.3333  0.7379
  514MOL0     H69371   0.736   3.349  11.728  2.1602  1.3348 -1.1185
  514MOL0     H69372   0.358   3.175  11.502  0.5609 -0.1314  1.0677
  514MOL0     H69373   0.103   3.231  11.523 -0.5063 -0.1825  0.4457
  514MOL0     H69374   0.210   1.841  11.308 -0.6414  1.7035  2.1215
  514MOL0     H69375   0.446   1.771  11.361  1.1166 -0.9574 -2.4527
  514MOL0     H69376   0.865   2.003  11.403 -1.6209 -0.0607  0.2740
  514MOL0     H69377   1.085   1.961  11.533  2.5877 -0.7488  0.7792
  514MOL0     H69378   1.289   1.555  11.436  1.7461 -1.5605 -2.3819
  514MOL0     H69379   1.412   1.631  11.526 -1.9415  0.9868  2.6414
  514MOL0     H69380   1.359   1.661  11.228 -0.0974 -1.7738 -0.3141
  514MOL0     H69381   1.512   1.630  11.297 -0.1702 -0.9540 -1.2573
  514MOL0     H69382   1.379   1.902  11.312  0.0515 -0.8245  2.3579
  514MOL0     H69383   1.512   1.848  11.214 -2.2799  3.3012 -1.6353
  514MOL0     H69384   1.583   1.981  11.407  0.4270 -0.9251 -1.9347
  514MOL0     H69385   1.481   1.884  11.523  0.8799 -2.7846  0.6353
  514MOL0     H69386   1.830   1.657  11.486  0.4368 -1.1059 -3.1739
  514MOL0     H69387   1.132   1.624  11.274 -0.2386 -0.4774  1.2056
  514MOL0     H69388   0.808   1.582  11.157  1.7287 -1.7918  0.2080
  514MOL0     H69389   0.914   1.658  11.034 -1.1321  1.8189 -0.4664
  514MOL0     H69390   0.972   1.534  11.137  0.2346 -0.9943  0.6083
  515MOL0     O69391   9.835   8.419   5.837  0.0069  0.9092 -0.1212
  515MOL0     C69392   9.837   8.451   5.957  0.2816  0.0856  0.0642
  515MOL0     O69393   9.952   8.467   6.032  0.4470  0.7509  0.6648
  515MOL0     C69394  10.070   8.439   5.970 -0.8156 -0.1943 -0.2576
  515MOL0     C69395  10.130   8.316   5.983  0.2531  0.1467 -0.2304
  515MOL0     C69396  10.257   8.294   5.918 -0.2183  0.2793  0.1224
  515MOL0     C69397  10.314   8.385   5.830 -0.3404  0.4343  0.5346
  515MOL0     O69398  10.431   8.351   5.774 -0.8232  0.0885 -0.2740
  515MOL0     C69399  10.516   8.438   5.691 -0.0731 -0.8543 -0.4771
  515MOL0     C69400  10.639   8.372   5.620 -0.1149 -0.6216  0.1681
  515MOL0     C69401  10.727   8.466   5.536 -0.4143 -0.3785  0.6139
  515MOL0     C69402  10.656   8.510   5.410  1.2603 -0.7666 -0.2625
  515MOL0     C69403  10.723   8.633   5.354 -0.7376 -0.1586  0.3646
  515MOL0     C69404  10.854   8.600   5.285 -0.5746  0.8453 -0.5109
  515MOL0     C69405  10.927   8.738   5.267 -0.3294  0.8553 -0.4576
  515MOL0     C69406  11.048   8.738   5.174 -0.8765 -0.1947 -0.0947
  515MOL0     N69407  11.123   8.860   5.206  0.2205  0.2132  0.1677
  515MOL0     C69408  11.140   8.973   5.119  1.0162  1.0247  0.5717
  515MOL0     C69409  11.207   9.057   5.202 -0.4811  0.8328 -0.1588
  515MOL0     C69410  11.252   9.193   5.161 -0.4630 -0.4694  0.3553
  515MOL0     C69411  11.409   9.204   5.180 -0.5394  0.1261  0.3529
  515MOL0     C69412  11.467   9.342   5.161 -0.4932  0.3596  1.0025
  515MOL0     C69413  11.437   9.427   5.040  0.0614 -0.6982 -0.0505
  515MOL0     O69414  11.471   9.570   5.045 -0.2331 -1.1885 -0.3449
  515MOL0     C69415  11.604   9.608   5.056  0.2407  0.9070  0.2153
  515MOL0     C69416  11.721   9.531   5.071 -0.7224  0.3761 -0.4794
  515MOL0     C69417  11.851   9.585   5.072  0.3894  0.0625 -1.0323
  515MOL0     C69418  11.866   9.727   5.065  0.3109 -0.3346  0.3492
  515MOL0     C69419  12.006   9.778   5.052  0.3504  0.2417 -0.2606
  515MOL0     O69420  12.018   9.917   5.056 -0.0930 -0.2006  0.0629
  515MOL0     C69421  12.132   9.991   5.039  0.4575  0.3698  0.2978
  515MOL0     C69422  12.258   9.952   5.076  0.1642  0.1313  0.1960
  515MOL0     C69423  12.368  10.044   5.059 -1.2281 -0.1960 -0.3545
  515MOL0     C69424  12.347  10.170   5.014 -0.4267  0.1586  0.7526
  515MOL0     O69425  12.465  10.242   5.010 -0.1873 -0.3002  0.8111
  515MOL0     C69426  12.462  10.379   4.974 -1.1547  0.3361  0.1845
  515MOL0     C69427  12.602  10.433   4.955  0.0595  0.1928  0.8866
  515MOL0     C69428  12.697  10.412   5.080 -0.3947  0.8070 -0.3435
  515MOL0     C69429  12.742  10.268   5.124  0.1817 -1.0326  0.3002
  515MOL0     C69430  12.817  10.192   5.016 -0.2667  0.0599 -0.0707
  515MOL0     C69431  12.951  10.250   4.975 -0.0510  0.2448  0.8854
  515MOL0     C69432  13.041  10.270   5.102 -1.0686  0.2319  0.1603
  515MOL0     C69433  13.187  10.225   5.073  0.4964 -0.6786 -0.4770
  515MOL0    Cl69434  13.187  10.052   5.024  0.1406  0.3285  0.3130
  515MOL0     C69435  12.222  10.204   4.963  0.0018  0.7619 -0.0408
  515MOL0     C69436  12.116  10.110   4.979  0.0813 -0.4728  0.3976
  515MOL0     O69437  12.088   9.705   5.001 -0.0305  0.3336 -0.4995
  515MOL0     C69438  11.751   9.801   5.057  0.7315 -0.4048  0.0454
  515MOL0     C69439  11.622   9.748   5.051  0.2638  1.1385 -0.2853
  515MOL0     N69440  11.220   9.004   5.324 -0.2010 -0.3672  0.1010
  515MOL0     N69441  11.188   8.880   5.325 -0.8048  0.4889 -0.9760
  515MOL0     C69442  10.248   8.509   5.822 -0.5719 -0.4397 -1.3382
  515MOL0     C69443  10.139   8.539   5.905 -0.1959  0.2688  0.3712
  515MOL0     C69444   9.712   8.488   6.029 -0.9163  0.0151 -0.1629
  515MOL0     C69445   9.724   8.541   6.157  0.3893 -0.9388 -0.7123
  515MOL0     C69446   9.616   8.571   6.239  0.4536 -0.4383 -0.0170
  515MOL0     C69447   9.484   8.557   6.193  0.4547  0.5918 -0.2951
  515MOL0     O69448   9.389   8.604   6.278  0.1048  0.1740 -0.7883
  515MOL0     C69449   9.274   8.677   6.216  0.5874 -0.0350 -0.0105
  515MOL0     C69450   9.237   8.814   6.266  0.4353  0.0610 -0.3416
  515MOL0     C69451   9.362   8.898   6.269  0.5513  0.4363 -0.2556
  515MOL0     C69452   9.348   9.051   6.283 -0.7807  0.1107 -0.1553
  515MOL0     C69453   9.331   9.099   6.147 -0.4600 -0.6385 -0.3381
  515MOL0     C69454   9.328   9.139   6.034 -0.0038 -0.2844  0.2745
  515MOL0     C69455   9.466   8.500   6.068 -0.0637  0.6889 -0.1341
  515MOL0     C69456   9.575   8.464   5.983 -0.1909  0.3565  0.2216
  515MOL0     C69457   9.547   8.377   5.869  0.2099  0.1629  0.0485
  515MOL0     H69458  10.088   8.227   6.029 -0.1585  1.6890  2.5688
  515MOL0     H69459  10.325   8.210   5.931  0.7214  0.9335 -0.4063
  515MOL0     H69460  10.456   8.485   5.612 -0.5408 -2.4689 -1.1319
  515MOL0     H69461  10.555   8.514   5.759 -2.7051 -0.2412  0.4685
  515MOL0     H69462  10.601   8.283   5.569  2.2446 -1.1820 -0.7285
  515MOL0     H69463  10.692   8.336   5.709 -1.4817 -0.0849  1.2480
  515MOL0     H69464  10.821   8.418   5.507 -0.4887  1.5053 -3.4855
  515MOL0     H69465  10.752   8.559   5.588  1.6654  0.1742 -1.2333
  515MOL0     H69466  10.636   8.434   5.334  2.0712 -1.4157  0.1610
  515MOL0     H69467  10.553   8.542   5.429  2.0888  1.7723  0.3306
  515MOL0     H69468  10.651   8.689   5.293  0.3674  2.4371  1.3262
  515MOL0     H69469  10.739   8.704   5.435  2.7015 -2.9779  2.4283
  515MOL0     H69470  10.919   8.530   5.339  0.1021 -0.9982 -3.4243
  515MOL0     H69471  10.843   8.548   5.189 -0.2530 -2.6159  1.1756
  515MOL0     H69472  10.957   8.770   5.368 -0.7247 -1.9420  0.6465
  515MOL0     H69473  10.851   8.803   5.222  0.8096  1.4726 -1.5434
  515MOL0     H69474  11.117   8.656   5.193  0.4804  0.7398 -0.7596
  515MOL0     H69475  11.023   8.733   5.067 -3.0307  2.0164  0.2146
  515MOL0     H69476  11.083   8.999   5.031 -0.0921 -1.3691  0.5003
  515MOL0     H69477  11.224   9.211   5.057 -0.7683 -0.0822  0.5045
  515MOL0     H69478  11.208   9.278   5.214  3.2121  3.3163 -2.0630
  515MOL0     H69479  11.427   9.165   5.281 -0.5932 -0.5682  0.0954
  515MOL0     H69480  11.465   9.133   5.118 -2.1220 -0.9783  0.1207
  515MOL0     H69481  11.574   9.320   5.165 -0.7966 -1.4111  0.1945
  515MOL0     H69482  11.442   9.398   5.252 -1.1981  1.7052  0.0039
  515MOL0     H69483  11.332   9.427   5.012  0.3895  2.5839 -1.7878
  515MOL0     H69484  11.486   9.370   4.959 -0.6608 -3.0179  1.0543
  515MOL0     H69485  11.718   9.422   5.066 -1.3257  0.3841 -0.3436
  515MOL0     H69486  11.932   9.513   5.085 -0.5883 -1.2277 -1.8374
  515MOL0     H69487  12.269   9.862   5.135 -2.4516 -0.1343  0.3832
  515MOL0     H69488  12.470  10.017   5.085 -0.7758 -0.4789 -2.2676
  515MOL0     H69489  12.419  10.384   4.874 -0.6540 -2.6714 -0.2985
  515MOL0     H69490  12.418  10.447   5.047  1.5834  1.8360  0.5638
  515MOL0     H69491  12.651  10.418   4.858  3.1117  0.3299  2.2866
  515MOL0     H69492  12.588  10.540   4.942  2.2843  0.8607  3.1161
  515MOL0     H69493  12.784  10.479   5.086  1.6911 -1.8957  2.0751
  515MOL0     H69494  12.643  10.459   5.163  0.3192  0.4680  0.3251
  515MOL0     H69495  12.655  10.215   5.162  0.2842 -0.9015  0.7225
  515MOL0     H69496  12.801  10.289   5.214 -1.0129  1.8231  0.5211
  515MOL0     H69497  12.750  10.189   4.930 -1.4457 -2.0556  0.8264
  515MOL0     H69498  12.842  10.093   5.055  0.5160  0.2906  0.0405
  515MOL0     H69499  12.996  10.175   4.908 -1.1497 -1.7773  2.3057
  515MOL0     H69500  12.925  10.340   4.918  4.4592  0.1057 -1.9275
  515MOL0     H69501  13.008  10.214   5.190 -0.8632 -0.1515 -0.0049
  515MOL0     H69502  13.049  10.377   5.122  2.9089  0.1352  0.0102
  515MOL0     H69503  13.238  10.293   5.004  1.7387 -1.1262 -0.0440
  515MOL0     H69504  13.246  10.233   5.165  0.1032  0.1858 -0.2917
  515MOL0     H69505  12.216  10.290   4.899 -4.0635  0.8025  0.1657
  515MOL0     H69506  12.018  10.137   4.938  1.2092 -1.3437 -3.2357
  515MOL0     H69507  11.760   9.904   5.026  0.0600 -0.9054 -2.0113
  515MOL0     H69508  11.540   9.809   5.014  0.6743  0.8396 -1.7200
  515MOL0     H69509  10.291   8.589   5.763  1.0753  0.2572  0.6717
  515MOL0     H69510  10.093   8.638   5.903  1.8598  1.2831 -1.0869
  515MOL0     H69511   9.818   8.555   6.209 -1.3243  0.0348  2.3773
  515MOL0     H69512   9.629   8.603   6.342  1.3585  2.5724 -0.9557
  515MOL0     H69513   9.184   8.618   6.240  0.1439 -0.7797 -3.0616
  515MOL0     H69514   9.285   8.676   6.107  2.9303  1.6903  0.1529
  515MOL0     H69515   9.185   8.806   6.362 -0.7709  2.0901 -0.7500
  515MOL0     H69516   9.170   8.861   6.193  0.4650 -2.1955 -1.8931
  515MOL0     H69517   9.431   8.872   6.188 -0.5372 -1.8423 -0.5038
  515MOL0     H69518   9.411   8.857   6.358 -0.6026 -1.2638 -0.3709
  515MOL0     H69519   9.256   9.075   6.338 -0.5061  1.1255 -0.1198
  515MOL0     H69520   9.435   9.101   6.325 -1.1848 -0.3984  1.3436
  515MOL0     H69521   9.329   9.164   5.930  0.7139  0.1011  0.3661
  515MOL0     H69522   9.366   8.468   6.040  0.7127  0.0404 -2.3861
  515MOL0     H69523   9.582   8.417   5.773  0.1033  0.5629  0.1744
  515MOL0     H69524   9.583   8.275   5.881 -1.0094 -0.7320 -3.0576
  515MOL0     H69525   9.440   8.361   5.852 -0.4067  1.2702  2.4928
  516MOL0     O69526  10.311   8.542   3.579 -0.4871  0.5038  0.6082
  516MOL0     C69527  10.309   8.643   3.506 -0.8947 -0.4406 -0.6125
  516MOL0     O69528  10.212   8.666   3.412  0.3292 -1.3988  0.0973
  516MOL0     C69529  10.099   8.585   3.417  0.1375 -0.4866  0.5296
  516MOL0     C69530  10.005   8.625   3.513 -0.4241 -0.6977  0.3728
  516MOL0     C69531   9.879   8.559   3.517  0.1063 -0.1107 -0.0982
  516MOL0     C69532   9.857   8.448   3.439  0.4790  0.4419  1.3040
  516MOL0     O69533   9.732   8.398   3.441  0.0012  0.7288  0.6293
  516MOL0     C69534   9.704   8.275   3.374  0.3134 -1.3629  1.4623
  516MOL0     C69535   9.553   8.252   3.387 -0.8572  0.1227  0.4007
  516MOL0     C69536   9.472   8.324   3.276 -0.4317 -0.0710  0.4577
  516MOL0     C69537   9.330   8.372   3.310 -0.0712  0.3566 -0.5647
  516MOL0     C69538   9.221   8.259   3.315  0.6030  0.0439 -0.9329
  516MOL0     C69539   9.082   8.308   3.360 -0.5247  0.7050  0.7145
  516MOL0     C69540   8.970   8.215   3.323 -0.2488  0.3578 -1.3503
  516MOL0     C69541   8.832   8.298   3.333  0.4052 -0.1108 -0.7053
  516MOL0     N69542   8.732   8.216   3.406  1.2580 -0.7056 -0.3829
  516MOL0     C69543   8.636   8.151   3.339 -0.9944 -0.3458  0.3460
  516MOL0     C69544   8.590   8.058   3.429  0.5465  0.0484  0.0256
  516MOL0     C69545   8.485   7.949   3.393 -1.4822 -0.3692 -0.1818
  516MOL0     C69546   8.498   7.813   3.475  0.5817  0.2136  0.2228
  516MOL0     C69547   8.590   7.713   3.414 -0.6442  0.1149  0.7594
  516MOL0     C69548   8.736   7.739   3.430 -0.1246  0.1394  0.1426
  516MOL0     O69549   8.777   7.819   3.314 -0.2237 -0.2672  0.0158
  516MOL0     C69550   8.912   7.825   3.283  0.5238 -0.2412  0.9029
  516MOL0     C69551   8.946   7.918   3.180  0.5882  0.0489  0.5368
  516MOL0     C69552   9.076   7.934   3.131 -0.1606  1.0935 -0.1922
  516MOL0     C69553   9.180   7.851   3.194 -0.2659  0.2071 -0.4262
  516MOL0     C69554   9.320   7.866   3.140  0.1267 -0.1620 -0.2634
  516MOL0     O69555   9.430   7.791   3.181 -0.1735  0.2897 -0.1038
  516MOL0     C69556   9.548   7.820   3.119 -0.3063  0.4661 -0.3846
  516MOL0     C69557   9.602   7.943   3.107  0.6260 -0.0637 -0.5103
  516MOL0     C69558   9.724   7.961   3.049 -0.3486 -0.3013  0.0048
  516MOL0     C69559   9.797   7.861   2.984 -0.4159 -0.0320 -0.6136
  516MOL0     O69560   9.919   7.866   2.933 -0.1998  0.0035  0.8206
  516MOL0     C69561   9.996   7.989   2.950  0.2009  0.5495 -0.7883
  516MOL0     C69562  10.130   7.956   2.889 -0.3987  0.2842 -0.2539
  516MOL0     C69563  10.109   7.954   2.737  0.2597  0.0472  0.6721
  516MOL0     C69564  10.239   7.889   2.668  0.0143  0.2486  1.0501
  516MOL0     C69565  10.210   7.856   2.520  0.9439 -0.7362 -0.1232
  516MOL0     C69566  10.338   7.850   2.442  0.0250 -0.1393  0.3733
  516MOL0     C69567  10.332   7.732   2.333 -0.8392  0.0919 -0.1072
  516MOL0     C69568  10.259   7.767   2.212  0.2725 -0.2601  0.3883
  516MOL0    Cl69569  10.090   7.726   2.228  0.2376  0.2932  0.1215
  516MOL0     C69570   9.738   7.734   2.994  0.3552 -0.0156 -0.1432
  516MOL0     C69571   9.619   7.707   3.060 -0.0530  0.3944 -0.4346
  516MOL0     O69572   9.323   7.939   3.039 -0.4544 -0.5694 -0.2988
  516MOL0     C69573   9.148   7.765   3.297 -0.2709 -0.4640  0.4411
  516MOL0     C69574   9.019   7.760   3.342  0.0815  0.4182 -0.5055
  516MOL0     N69575   8.654   8.075   3.545  0.2903  0.0631 -0.1450
  516MOL0     N69576   8.747   8.167   3.536 -0.2574 -0.3396  0.9068
  516MOL0     C69577   9.958   8.399   3.346 -0.1239 -0.1591 -0.5914
  516MOL0     C69578  10.076   8.471   3.334 -0.1182 -0.0235  0.3953
  516MOL0     C69579  10.428   8.741   3.509  0.3837  0.4037  0.4720
  516MOL0     C69580  10.405   8.871   3.460  0.1257  0.2643 -0.9020
  516MOL0     C69581  10.504   8.972   3.464 -0.3207 -0.2726 -0.7445
  516MOL0     C69582  10.617   8.956   3.540 -0.6021  1.0139 -0.2425
  516MOL0     O69583  10.713   9.050   3.567  0.0719 -0.1367 -0.1808
  516MOL0     C69584  10.705   9.178   3.503  0.8639  0.2035  0.8626
  516MOL0     C69585  10.812   9.269   3.550 -0.3320 -0.2535  0.4415
  516MOL0     C69586  10.785   9.286   3.703 -0.8223  0.2499 -0.6279
  516MOL0     C69587  10.861   9.396   3.776 -0.3381 -0.3017 -0.2649
  516MOL0     C69588  11.008   9.373   3.807 -0.1322 -0.4760 -0.3288
  516MOL0     C69589  11.120   9.354   3.834  0.1826  0.4004 -0.0073
  516MOL0     C69590  10.634   8.829   3.587  0.3736  0.7800 -0.5817
  516MOL0     C69591  10.553   8.716   3.561 -0.0443 -0.9913  0.4575
  516MOL0     C69592  10.590   8.573   3.604 -0.6294 -0.3436  0.0292
  516MOL0     H69593  10.034   8.716   3.564  1.3210  0.7308 -2.8416
  516MOL0     H69594   9.799   8.588   3.585  0.8799  0.4890  0.5700
  516MOL0     H69595   9.727   8.280   3.267  0.9871  3.6285  1.5926
  516MOL0     H69596   9.755   8.188   3.415 -0.2848 -2.4360  0.0338
  516MOL0     H69597   9.519   8.299   3.480  0.6084 -1.2448  1.6827
  516MOL0     H69598   9.527   8.146   3.394  0.1846 -0.0323  4.2933
  516MOL0     H69599   9.462   8.265   3.184  1.1911  0.5072 -0.1245
  516MOL0     H69600   9.526   8.411   3.238 -2.4246  2.0973  2.3331
  516MOL0     H69601   9.332   8.426   3.405  0.3471 -1.6425  0.6260
  516MOL0     H69602   9.290   8.451   3.245 -0.5825 -0.0609 -0.7647
  516MOL0     H69603   9.216   8.221   3.212 -0.3835  0.3470 -1.0107
  516MOL0     H69604   9.253   8.179   3.382 -4.2663 -1.0742  0.4991
  516MOL0     H69605   9.097   8.317   3.468 -1.6632  0.4714  0.9015
  516MOL0     H69606   9.061   8.409   3.324  0.4999  0.8009  0.3546
  516MOL0     H69607   8.980   8.115   3.368  0.7511  1.8590  2.0682
  516MOL0     H69608   8.983   8.189   3.217  2.3576  0.7083 -1.1844
  516MOL0     H69609   8.843   8.380   3.404 -0.1154  1.1482 -2.0502
  516MOL0     H69610   8.798   8.337   3.237 -2.1695  0.9285  0.5267
  516MOL0     H69611   8.602   8.166   3.237 -0.4494 -0.1794  0.1828
  516MOL0     H69612   8.392   7.999   3.423 -0.8356  0.9544 -0.3100
  516MOL0     H69613   8.480   7.930   3.285  0.8860 -1.6724 -0.1242
  516MOL0     H69614   8.515   7.833   3.581  1.0862 -2.8312  0.7836
  516MOL0     H69615   8.393   7.781   3.482 -0.4930  3.5938  4.4155
  516MOL0     H69616   8.552   7.709   3.312 -1.7273  0.9056  1.1109
  516MOL0     H69617   8.582   7.613   3.459  2.5231 -0.3095  0.6587
  516MOL0     H69618   8.793   7.646   3.438 -1.1473 -0.5046  0.1858
  516MOL0     H69619   8.762   7.787   3.524  0.4693  1.1862 -0.5351
  516MOL0     H69620   8.862   7.974   3.139 -0.6393 -1.6702  0.6095
  516MOL0     H69621   9.093   8.011   3.057  1.4792 -1.5338 -2.7422
  516MOL0     H69622   9.552   8.030   3.148  1.6596  0.1119  0.4033
  516MOL0     H69623   9.774   8.057   3.052 -3.2451  1.3873 -1.4348
  516MOL0     H69624   9.941   8.069   2.900 -0.7859  1.3397  1.4433
  516MOL0     H69625  10.009   8.004   3.057 -0.8979  0.3064 -0.6047
  516MOL0     H69626  10.199   8.040   2.907 -0.1108 -0.3962  2.1700
  516MOL0     H69627  10.174   7.866   2.932 -1.7515 -1.5452 -2.5070
  516MOL0     H69628  10.015   7.898   2.728 -0.6171  0.2917  5.6353
  516MOL0     H69629  10.105   8.054   2.693  2.0670 -1.5161 -3.6477
  516MOL0     H69630  10.264   7.794   2.717 -1.6687 -1.6482 -1.4543
  516MOL0     H69631  10.331   7.947   2.662 -0.0856  0.4103  1.0715
  516MOL0     H69632  10.141   7.927   2.473  1.2553 -0.3276  0.0317
  516MOL0     H69633  10.158   7.760   2.511  0.7171 -0.8460  1.9748
  516MOL0     H69634  10.356   7.947   2.395 -5.1173 -0.0388 -2.1280
  516MOL0     H69635  10.430   7.828   2.497  0.4731  0.8286  0.0325
  516MOL0     H69636  10.292   7.640   2.376 -0.2035 -0.8993 -1.5686
  516MOL0     H69637  10.435   7.710   2.306 -0.6170 -0.2302  0.9776
  516MOL0     H69638  10.264   7.874   2.190 -0.1780 -0.1809  0.6686
  516MOL0     H69639  10.302   7.711   2.128  2.3389  2.0525 -0.2312
  516MOL0     H69640   9.794   7.663   2.934 -1.0416  1.7220 -3.8669
  516MOL0     H69641   9.574   7.610   3.076 -1.9079  1.1466 -0.8519
  516MOL0     H69642   9.217   7.701   3.351  0.6994  1.5883  1.7747
  516MOL0     H69643   9.000   7.705   3.434  1.4593  2.8619  1.3760
  516MOL0     H69644   9.936   8.319   3.276  0.1088  0.5264 -1.4694
  516MOL0     H69645  10.154   8.456   3.260  1.7440  1.0163  2.0249
  516MOL0     H69646  10.313   8.897   3.409 -1.3256 -3.2391 -0.3485
  516MOL0     H69647  10.490   9.075   3.434  1.3934  0.3607  0.4770
  516MOL0     H69648  10.612   9.229   3.528  0.9473 -0.1300  1.9307
  516MOL0     H69649  10.722   9.160   3.397 -0.2664  4.7987 -0.3027
  516MOL0     H69650  10.817   9.365   3.497  0.0884 -0.4994  0.0275
  516MOL0     H69651  10.909   9.219   3.550 -0.6440 -0.8617  0.5303
  516MOL0     H69652  10.798   9.194   3.761  0.1128  1.3867  1.0711
  516MOL0     H69653  10.682   9.319   3.715 -1.9384 -2.8082 -1.0947
  516MOL0     H69654  10.850   9.479   3.706 -1.9276 -0.9994 -0.8762
  516MOL0     H69655  10.807   9.416   3.869 -2.5716 -0.3477 -1.4957
  516MOL0     H69656  11.223   9.330   3.852 -0.1478 -1.7808 -0.8171
  516MOL0     H69657  10.727   8.801   3.637  0.6766  0.5580 -1.2577
  516MOL0     H69658  10.673   8.563   3.675 -1.4542 -0.2696  1.0331
  516MOL0     H69659  10.513   8.522   3.662  0.4535 -0.5696  1.3180
  516MOL0     H69660  10.617   8.503   3.525  0.2075 -0.8425  0.7429
  517MOL0     O69661   3.758   4.303   8.777 -0.8796 -0.4797 -0.3420
  517MOL0     C69662   3.708   4.296   8.667  0.5907  0.0622  0.0791
  517MOL0     O69663   3.771   4.297   8.548  0.8341 -0.3502  0.1997
  517MOL0     C69664   3.906   4.308   8.557 -0.5058  0.2507  0.4779
  517MOL0     C69665   3.970   4.428   8.553 -0.4360 -0.5386  0.0536
  517MOL0     C69666   4.112   4.432   8.561  0.4946 -0.4500 -0.0539
  517MOL0     C69667   4.187   4.318   8.563 -0.1326 -0.2918 -0.1959
  517MOL0     O69668   4.325   4.315   8.550  0.4677 -0.9060  0.8290
  517MOL0     C69669   4.395   4.427   8.499 -0.2298  0.2661 -0.6037
  517MOL0     C69670   4.541   4.388   8.499 -0.0138  0.9286  0.3614
  517MOL0     C69671   4.621   4.501   8.445 -0.0898  0.5521 -0.2241
  517MOL0     C69672   4.766   4.448   8.438 -0.1286  0.2120  0.2079
  517MOL0     C69673   4.857   4.537   8.361 -0.3439 -0.0724 -0.2304
  517MOL0     C69674   4.912   4.646   8.451 -0.3875 -0.0291  0.0506
  517MOL0     C69675   5.038   4.707   8.381 -0.6531 -0.7765  0.5405
  517MOL0     C69676   5.122   4.800   8.473  0.2065  1.0953 -0.0983
  517MOL0     N69677   5.261   4.796   8.416  0.7553 -0.5012 -0.0343
  517MOL0     C69678   5.317   4.901   8.335 -0.3523  0.4402 -0.0249
  517MOL0     C69679   5.444   4.858   8.324 -0.5272 -0.2206  1.5177
  517MOL0     C69680   5.551   4.926   8.234 -0.6081  0.5617 -0.3021
  517MOL0     C69681   5.551   4.879   8.089 -0.5190  0.3006 -0.0286
  517MOL0     C69682   5.660   4.943   8.005  0.7643 -0.6796 -0.2577
  517MOL0     C69683   5.804   4.893   8.048  0.0132 -0.4179  0.2529
  517MOL0     O69684   5.884   4.992   7.982 -0.5940 -0.0815 -0.2835
  517MOL0     C69685   6.018   4.989   8.015 -0.8588  0.6295  0.6188
  517MOL0     C69686   6.091   5.103   7.986 -0.1581 -0.1257  0.0972
  517MOL0     C69687   6.223   5.116   8.017 -0.2221  0.6010 -0.0936
  517MOL0     C69688   6.287   5.009   8.082 -0.2632 -0.2272  0.0226
  517MOL0     C69689   6.436   5.025   8.122  0.6979 -0.4138  0.1820
  517MOL0     O69690   6.508   5.126   8.069  0.3297 -0.6313 -0.1562
  517MOL0     C69691   6.641   5.107   8.048  0.2990  0.5614 -0.1546
  517MOL0     C69692   6.715   5.227   8.071 -0.4980  0.2238 -0.7124
  517MOL0     C69693   6.856   5.210   8.053 -0.1522  0.3575 -0.0712
  517MOL0     C69694   6.918   5.090   8.004 -0.1571  0.3665  0.6057
  517MOL0     O69695   7.054   5.098   7.979  0.0835  0.2447 -0.2654
  517MOL0     C69696   7.124   4.964   7.978  0.3502 -0.8957 -0.6788
  517MOL0     C69697   7.272   4.984   7.987 -0.3387  0.6094 -0.2515
  517MOL0     C69698   7.326   5.030   7.851 -0.4460  0.2217 -0.1089
  517MOL0     C69699   7.382   4.909   7.776 -0.0890 -0.6537 -0.3808
  517MOL0     C69700   7.457   4.941   7.642 -0.6115 -0.3822  0.7329
  517MOL0     C69701   7.596   5.001   7.668 -0.7095  0.2034 -0.0894
  517MOL0     C69702   7.714   4.898   7.647 -0.8424  0.0648  0.1263
  517MOL0     C69703   7.836   4.988   7.649  0.0524  0.0911  0.0905
  517MOL0    Cl69704   7.841   5.075   7.799  0.0244 -0.3895 -0.1095
  517MOL0     C69705   6.831   4.981   7.971 -0.4367 -0.2664  0.0237
  517MOL0     C69706   6.697   4.991   7.998 -0.3998 -0.1790 -0.5262
  517MOL0     O69707   6.487   4.938   8.191  0.2280  0.0795  0.4162
  517MOL0     C69708   6.215   4.893   8.118 -0.0686  0.0464 -0.3973
  517MOL0     C69709   6.081   4.883   8.087 -0.6058  0.4185 -0.0481
  517MOL0     N69710   5.471   4.742   8.389 -0.1371  0.9380 -0.5061
  517MOL0     N69711   5.357   4.708   8.445 -0.8156 -0.5115  0.3597
  517MOL0     C69712   4.120   4.197   8.578 -0.0098  0.8206  0.4869
  517MOL0     C69713   3.977   4.193   8.574  0.1493 -1.2672  0.3604
  517MOL0     C69714   3.569   4.240   8.656  0.7482 -0.1987 -1.3033
  517MOL0     C69715   3.532   4.177   8.538  0.3212  0.3747  0.4552
  517MOL0     C69716   3.398   4.139   8.511 -0.2534  0.3759 -0.0881
  517MOL0     C69717   3.297   4.159   8.603 -0.3996 -0.5268  0.4752
  517MOL0     O69718   3.170   4.135   8.590  0.5407 -0.3326 -0.1822
  517MOL0     C69719   3.117   4.071   8.469  0.1208  0.5984 -0.4674
  517MOL0     C69720   2.964   4.078   8.481 -0.2819  0.5534  0.6758
  517MOL0     C69721   2.930   4.231   8.450  0.9363 -0.0663  0.6744
  517MOL0     C69722   2.795   4.274   8.494 -0.1658 -0.3062 -0.0774
  517MOL0     C69723   2.682   4.193   8.461  0.0171  0.3151  0.7413
  517MOL0     C69724   2.578   4.138   8.461  0.7786  0.1897  0.0207
  517MOL0     C69725   3.329   4.217   8.722 -0.1884  0.2712  0.3112
  517MOL0     C69726   3.461   4.262   8.749 -0.4734 -0.5280 -0.2505
  517MOL0     C69727   3.493   4.305   8.884  0.3165 -0.0023  1.1621
  517MOL0     H69728   3.906   4.515   8.554 -1.4155 -1.2430 -0.0182
  517MOL0     H69729   4.169   4.524   8.553 -1.7046  1.4956  3.7603
  517MOL0     H69730   4.365   4.444   8.395  0.1370  1.6981 -0.5039
  517MOL0     H69731   4.384   4.518   8.558 -1.4940 -1.4880  2.0325
  517MOL0     H69732   4.556   4.298   8.438 -0.9200 -0.2101  1.7743
  517MOL0     H69733   4.579   4.362   8.598  2.6527 -2.0312 -1.2431
  517MOL0     H69734   4.617   4.592   8.506  2.8101  0.5113  0.1756
  517MOL0     H69735   4.595   4.528   8.342 -1.1085  0.4214 -0.0143
  517MOL0     H69736   4.804   4.435   8.540  0.5481 -1.8004 -0.2551
  517MOL0     H69737   4.776   4.355   8.380  1.3629 -1.1991  2.5310
  517MOL0     H69738   4.946   4.482   8.330  0.4201  0.0731  1.6045
  517MOL0     H69739   4.809   4.585   8.275 -1.6844  1.9301  1.5349
  517MOL0     H69740   4.834   4.723   8.462  1.0284  1.8751 -2.3248
  517MOL0     H69741   4.933   4.627   8.557 -0.6600  0.9625  0.2965
  517MOL0     H69742   5.006   4.753   8.286 -0.6826 -0.7175  0.5790
  517MOL0     H69743   5.100   4.621   8.355 -1.1643 -0.8002 -0.6657
  517MOL0     H69744   5.088   4.903   8.487  0.5363  1.2576 -0.4745
  517MOL0     H69745   5.110   4.762   8.575 -0.3878 -0.6233 -0.7653
  517MOL0     H69746   5.272   4.991   8.295  1.2491  1.6016  0.6696
  517MOL0     H69747   5.526   5.032   8.224 -1.1384  0.6013  1.2209
  517MOL0     H69748   5.646   4.913   8.286 -1.1995  0.4120  0.7526
  517MOL0     H69749   5.561   4.770   8.088 -2.3481  0.0802  0.7494
  517MOL0     H69750   5.450   4.900   8.051 -0.8151 -2.7514 -1.1797
  517MOL0     H69751   5.641   5.050   8.012 -2.7960 -1.1428 -0.8550
  517MOL0     H69752   5.633   4.923   7.900 -0.8484 -2.6520  0.4553
  517MOL0     H69753   5.828   4.793   8.011  0.0913 -1.6752  3.3726
  517MOL0     H69754   5.811   4.900   8.157  0.3742 -1.5443  0.3143
  517MOL0     H69755   6.035   5.188   7.947  1.5095  0.0893 -1.9713
  517MOL0     H69756   6.282   5.203   7.992  1.5891 -0.7465 -0.8125
  517MOL0     H69757   6.675   5.321   8.108  1.8752  2.6575 -3.7941
  517MOL0     H69758   6.920   5.293   8.082 -1.3474  1.7192 -1.1769
  517MOL0     H69759   7.105   4.911   8.072 -0.3084 -1.3445 -1.0536
  517MOL0     H69760   7.098   4.901   7.892 -3.4875  1.0226 -1.1466
  517MOL0     H69761   7.289   5.058   8.066 -1.6546 -0.6616  1.3187
  517MOL0     H69762   7.312   4.886   8.016 -2.9939 -1.2446 -2.3553
  517MOL0     H69763   7.247   5.071   7.787  0.1213  0.5787 -0.5952
  517MOL0     H69764   7.397   5.111   7.867 -1.3838  1.5417 -2.1590
  517MOL0     H69765   7.301   4.839   7.756  1.2525 -2.3445 -0.1025
  517MOL0     H69766   7.446   4.850   7.843 -0.9129 -2.6788 -1.3023
  517MOL0     H69767   7.393   5.015   7.592  1.6948  2.9421  2.3434
  517MOL0     H69768   7.478   4.851   7.584  0.9685 -0.3056  1.1447
  517MOL0     H69769   7.618   5.084   7.601  3.5273 -1.6499 -1.3501
  517MOL0     H69770   7.597   5.038   7.771 -1.7392  0.9170 -0.3222
  517MOL0     H69771   7.699   4.853   7.549 -3.2423 -0.0952  0.4873
  517MOL0     H69772   7.728   4.824   7.727  2.1716  2.1441  1.7289
  517MOL0     H69773   7.923   4.921   7.650 -1.1035 -1.4596  1.3238
  517MOL0     H69774   7.829   5.054   7.562 -1.4836  1.0439  0.9069
  517MOL0     H69775   6.871   4.892   7.923  0.0790  1.4930 -3.0124
  517MOL0     H69776   6.630   4.909   7.976  0.2907 -1.5212  1.9205
  517MOL0     H69777   6.264   4.813   8.173  1.8697  0.4519 -1.4425
  517MOL0     H69778   6.023   4.797   8.118 -0.0202  0.3444  0.8477
  517MOL0     H69779   4.166   4.100   8.566 -0.1379  1.0162 -2.2237
  517MOL0     H69780   3.917   4.103   8.578 -0.3662 -1.0439 -1.4081
  517MOL0     H69781   3.614   4.165   8.468  1.7888  0.5632  2.0628
  517MOL0     H69782   3.371   4.099   8.414  1.2462 -2.3942  0.5256
  517MOL0     H69783   3.148   3.966   8.471 -2.7682 -0.4215 -2.5490
  517MOL0     H69784   3.144   4.126   8.379 -2.5842  0.7878 -1.2493
  517MOL0     H69785   2.937   4.058   8.585 -1.9504  0.0082  0.1852
  517MOL0     H69786   2.918   4.008   8.411 -2.2684  2.4830 -0.0618
  517MOL0     H69787   2.922   4.240   8.341 -1.5557  3.0795  0.9755
  517MOL0     H69788   3.012   4.298   8.479 -0.8438  3.0486 -1.0250
  517MOL0     H69789   2.805   4.285   8.603  0.0297  0.4774 -0.1685
  517MOL0     H69790   2.776   4.372   8.449 -0.4469  0.7704  2.2125
  517MOL0     H69791   2.492   4.075   8.457 -2.1278  3.7785  0.7214
  517MOL0     H69792   3.251   4.227   8.796  0.2762 -1.4314  1.0766
  517MOL0     H69793   3.537   4.406   8.887 -3.0071  1.7304 -1.6128
  517MOL0     H69794   3.395   4.312   8.931 -1.0225  0.3813 -1.5202
  517MOL0     H69795   3.561   4.233   8.931  2.4973 -0.3583 -2.2075
  518MOL0     O69796   4.633   5.805  10.367  0.7773 -0.3171  0.5646
  518MOL0     C69797   4.608   5.824  10.252  0.4162  1.0282  0.4363
  518MOL0     O69798   4.704   5.843  10.159 -0.6272 -0.1836  0.3577
  518MOL0     C69799   4.817   5.899  10.199  0.7080 -0.1452  0.0664
  518MOL0     C69800   4.853   6.027  10.160  0.5637 -0.2871  0.2182
  518MOL0     C69801   4.978   6.088  10.192 -1.0407 -0.2367  0.7736
  518MOL0     C69802   5.072   6.018  10.274  0.1620  0.1098  1.3012
  518MOL0     O69803   5.194   6.075  10.293 -0.2921 -0.1728 -0.0826
  518MOL0     C69804   5.287   6.006  10.373 -0.5850  0.1551 -0.5403
  518MOL0     C69805   5.376   5.896  10.312 -0.5866  0.1743  0.2094
  518MOL0     C69806   5.477   5.823  10.397 -0.0768 -0.2250  0.2137
  518MOL0     C69807   5.570   5.763  10.289  0.8953 -0.5699  0.0552
  518MOL0     C69808   5.691   5.712  10.366 -0.2269 -0.3322  1.3918
  518MOL0     C69809   5.778   5.629  10.266  0.6847 -0.0346  0.5236
  518MOL0     C69810   5.834   5.721  10.152 -0.7389  0.2688 -0.4890
  518MOL0     C69811   5.971   5.682  10.095 -0.7053 -0.0317 -0.2483
  518MOL0     N69812   6.078   5.662  10.206 -0.5088 -0.4847  0.9048
  518MOL0     C69813   6.143   5.756  10.288  0.2921  0.3028  0.8860
  518MOL0     C69814   6.239   5.685  10.347 -0.3208  0.6742 -0.2220
  518MOL0     C69815   6.345   5.737  10.444 -0.0973  0.1823 -0.0076
  518MOL0     C69816   6.446   5.845  10.384 -0.2911 -0.7685 -0.0598
  518MOL0     C69817   6.552   5.890  10.478 -0.4717 -0.0704 -0.4837
  518MOL0     C69818   6.499   5.957  10.598  0.0384 -0.0354 -0.1266
  518MOL0     O69819   6.407   6.073  10.577  0.3752  0.5255 -0.2909
  518MOL0     C69820   6.468   6.185  10.529  0.2780  0.3738  0.3316
  518MOL0     C69821   6.592   6.243  10.570  0.7207  0.3666  0.6179
  518MOL0     C69822   6.642   6.356  10.507  0.6257  0.1247 -0.2123
  518MOL0     C69823   6.570   6.421  10.398  0.6249  0.0043 -0.6634
  518MOL0     C69824   6.618   6.538  10.322 -0.3083  1.1660 -0.1045
  518MOL0     O69825   6.528   6.613  10.247  1.0957 -0.1484 -0.5237
  518MOL0     C69826   6.582   6.685  10.146 -0.3383 -0.0429  0.3514
  518MOL0     C69827   6.609   6.819  10.152  0.0937  0.2225 -0.0805
  518MOL0     C69828   6.653   6.887  10.035  1.0808  0.6605  0.0808
  518MOL0     C69829   6.682   6.806   9.922  0.1745  0.6565 -0.1696
  518MOL0     O69830   6.723   6.867   9.803 -0.0524 -0.3987  0.0164
  518MOL0     C69831   6.612   6.898   9.713 -0.9040  0.0692 -0.5984
  518MOL0     C69832   6.643   6.851   9.571  0.3923  0.9534  0.2577
  518MOL0     C69833   6.508   6.854   9.495  0.1411 -0.8344  0.4604
  518MOL0     C69834   6.519   6.840   9.338  0.1521 -0.8495  0.4937
  518MOL0     C69835   6.378   6.812   9.290  0.4994  0.8350  0.6410
  518MOL0     C69836   6.365   6.808   9.135  0.3853 -0.0204 -0.0772
  518MOL0     C69837   6.246   6.739   9.062  0.4781 -0.1884 -0.3057
  518MOL0     C69838   6.141   6.840   9.004 -0.2361 -0.2665  0.8084
  518MOL0    Cl69839   6.220   6.926   8.876 -0.1573  0.5558  0.0851
  518MOL0     C69840   6.658   6.666   9.920 -0.4243  0.8869 -0.1801
  518MOL0     C69841   6.607   6.604  10.030  0.5365  0.2059 -0.9371
  518MOL0     O69842   6.737   6.549  10.315 -0.5114 -0.4757  0.0298
  518MOL0     C69843   6.451   6.352  10.362  0.1991  0.3489 -0.2075
  518MOL0     C69844   6.399   6.244  10.429  0.7188 -1.1677  0.0338
  518MOL0     N69845   6.222   5.543  10.319 -0.0263  0.3098 -0.2257
  518MOL0     N69846   6.127   5.541  10.232 -0.1052  0.1072  0.9423
  518MOL0     C69847   5.041   5.890  10.311 -0.0105 -0.6501 -0.3306
  518MOL0     C69848   4.911   5.838  10.279  0.5443  0.0620 -0.2394
  518MOL0     C69849   4.470   5.827  10.205 -0.0635 -0.1463 -0.3149
  518MOL0     C69850   4.444   5.906  10.094 -1.1483  0.4190  0.4423
  518MOL0     C69851   4.309   5.923  10.034 -0.2867  0.0483 -0.3795
  518MOL0     C69852   4.206   5.861  10.091  0.4773 -0.4126 -0.4384
  518MOL0     O69853   4.081   5.875  10.034 -0.6376  0.3237 -0.1302
  518MOL0     C69854   3.978   5.898  10.132 -0.2606 -0.9231  0.7258
  518MOL0     C69855   4.005   6.031  10.209 -0.1108 -0.1766  0.0968
  518MOL0     C69856   3.887   6.074  10.288  0.1677 -0.1834  0.9382
  518MOL0     C69857   3.850   5.985  10.405 -0.7357 -0.6157 -0.2588
  518MOL0     C69858   3.952   5.985  10.512  0.2796  0.1848 -0.0385
  518MOL0     C69859   4.043   5.969  10.587  0.0333  0.4748  1.0571
  518MOL0     C69860   4.224   5.787  10.208 -0.1611 -0.3662  0.4299
  518MOL0     C69861   4.355   5.768  10.269 -1.0642 -0.6750  0.2992
  518MOL0     C69862   4.373   5.684  10.388  0.4003 -0.6729  0.3160
  518MOL0     H69863   4.783   6.090  10.104  1.2823  0.1183 -0.2453
  518MOL0     H69864   5.002   6.190  10.166 -0.3768 -0.2399  1.3610
  518MOL0     H69865   5.370   6.074  10.396  1.6442 -2.8580  1.0886
  518MOL0     H69866   5.246   5.971  10.468 -0.4836 -0.2755 -0.6531
  518MOL0     H69867   5.432   5.945  10.231 -1.2665 -0.5586 -0.7284
  518MOL0     H69868   5.318   5.818  10.261 -3.0075  3.2631 -2.2200
  518MOL0     H69869   5.443   5.740  10.459 -0.1772 -1.7399 -1.7864
  518MOL0     H69870   5.530   5.900  10.454  0.9508 -0.4299 -0.4538
  518MOL0     H69871   5.515   5.681  10.242 -1.6781  1.0741 -0.0275
  518MOL0     H69872   5.607   5.838  10.219  1.1123 -0.3685  0.3849
  518MOL0     H69873   5.753   5.794  10.402  0.1768 -0.4629  1.0068
  518MOL0     H69874   5.663   5.637  10.441  1.0866 -3.4205 -0.9731
  518MOL0     H69875   5.866   5.601  10.324 -0.6270 -1.2890  1.9733
  518MOL0     H69876   5.718   5.547  10.226 -3.2660  2.3924  0.8596
  518MOL0     H69877   5.850   5.821  10.192 -0.1837  0.2972 -0.7668
  518MOL0     H69878   5.756   5.721  10.074 -2.3450 -3.7189  0.8610
  518MOL0     H69879   5.952   5.586  10.046 -3.6698  1.1041 -1.5754
  518MOL0     H69880   6.004   5.752  10.017 -1.0913 -1.5226 -1.8095
  518MOL0     H69881   6.130   5.863  10.299  0.4658  0.3329  0.8025
  518MOL0     H69882   6.292   5.783  10.527  1.8468  1.7648  0.4362
  518MOL0     H69883   6.410   5.660  10.487 -0.0465  0.4275  0.3609
  518MOL0     H69884   6.486   5.797  10.294  0.6408  0.5122 -0.3525
  518MOL0     H69885   6.376   5.925  10.361 -1.2263 -1.2124  1.1052
  518MOL0     H69886   6.615   5.959  10.421 -2.3602  1.9694 -0.2322
  518MOL0     H69887   6.612   5.804  10.510 -1.7324 -0.2329  1.5950
  518MOL0     H69888   6.584   5.981  10.661  0.7486  0.2867 -1.1810
  518MOL0     H69889   6.436   5.884  10.649 -0.3432 -0.2955 -0.9449
  518MOL0     H69890   6.657   6.201  10.647  1.0929 -0.9226 -0.3794
  518MOL0     H69891   6.735   6.403  10.539  0.2461  0.8297 -0.1376
  518MOL0     H69892   6.583   6.871  10.244 -0.7442  0.1416 -0.2564
  518MOL0     H69893   6.652   6.995  10.025  1.0551  0.6864  0.3644
  518MOL0     H69894   6.519   6.852   9.746 -1.4386 -0.0503 -2.1874
  518MOL0     H69895   6.598   7.006   9.726  0.2579  0.2579 -0.8058
  518MOL0     H69896   6.720   6.912   9.525  2.2289 -1.2032  0.2813
  518MOL0     H69897   6.684   6.749   9.572 -0.6782  0.5010  0.8248
  518MOL0     H69898   6.453   6.769   9.535 -0.3785  0.2646  2.2102
  518MOL0     H69899   6.461   6.948   9.525 -2.4290 -1.9693  0.1828
  518MOL0     H69900   6.585   6.754   9.326 -1.9997 -2.4559 -0.5101
  518MOL0     H69901   6.565   6.931   9.298  0.2493 -0.7994  0.7201
  518MOL0     H69902   6.308   6.881   9.336 -1.8077 -0.5858 -0.5756
  518MOL0     H69903   6.352   6.709   9.318 -2.0413  0.8512 -1.2921
  518MOL0     H69904   6.371   6.912   9.102 -0.2155 -0.2973 -1.0839
  518MOL0     H69905   6.457   6.761   9.098  0.6556 -0.6931  1.3855
  518MOL0     H69906   6.200   6.673   9.136  1.0032  0.1287  0.3118
  518MOL0     H69907   6.294   6.686   8.978 -0.1587  0.0219 -0.8060
  518MOL0     H69908   6.045   6.797   8.973  0.1678 -1.8550  1.6578
  518MOL0     H69909   6.125   6.907   9.089  0.3512  0.6175  0.2388
  518MOL0     H69910   6.701   6.614   9.835  4.5107  0.1038  2.4313
  518MOL0     H69911   6.580   6.499  10.039  1.4481 -0.0111 -0.6224
  518MOL0     H69912   6.410   6.395  10.271  1.1904  1.8263  0.0036
  518MOL0     H69913   6.303   6.201  10.403  0.1668 -0.2589  0.5252
  518MOL0     H69914   5.095   5.818  10.372 -0.0136 -2.9003 -2.7677
  518MOL0     H69915   4.882   5.743  10.322  0.5165  1.5255  3.3668
  518MOL0     H69916   4.531   5.964  10.065  0.7725 -2.6929 -0.5623
  518MOL0     H69917   4.286   5.985   9.948 -1.4239 -1.0710 -0.9219
  518MOL0     H69918   3.966   5.809  10.195  2.4116 -0.4290  2.0848
  518MOL0     H69919   3.880   5.915  10.086  0.1489 -3.3482 -1.2617
  518MOL0     H69920   4.043   6.103  10.136 -0.4225 -0.8242 -0.7209
  518MOL0     H69921   4.093   6.023  10.274  2.1458  2.7810 -2.3457
  518MOL0     H69922   3.794   6.074  10.230 -0.2059 -3.2878  1.3863
  518MOL0     H69923   3.891   6.179  10.318  0.1561  0.9081 -2.5036
  518MOL0     H69924   3.756   6.022  10.448 -0.7175  0.7416 -1.3178
  518MOL0     H69925   3.837   5.883  10.369 -1.3407 -0.7574  0.3533
  518MOL0     H69926   4.120   5.952  10.660  0.7643 -0.3664  0.1239
  518MOL0     H69927   4.142   5.751  10.269  1.2824  0.6910  3.1660
  518MOL0     H69928   4.411   5.728  10.480 -1.0372 -0.3201  0.7648
  518MOL0     H69929   4.278   5.634  10.408 -0.0396  0.0505  0.0606
  518MOL0     H69930   4.439   5.600  10.364  1.4997  0.3734 -0.4576
  519MOL0     O69931   7.757   3.174   6.312  0.6871 -0.0016 -0.2167
  519MOL0     C69932   7.781   3.055   6.339  0.8482  0.3909 -0.3240
  519MOL0     O69933   7.904   2.997   6.353  0.5896  0.3899  0.2898
  519MOL0     C69934   8.020   3.067   6.354 -0.1527  0.6746  0.0333
  519MOL0     C69935   8.140   3.001   6.333  0.4329  0.3990  0.0408
  519MOL0     C69936   8.261   3.075   6.325  0.1399  0.5876  0.3085
  519MOL0     C69937   8.260   3.217   6.338  0.6071  0.3083 -0.2513
  519MOL0     O69938   8.365   3.296   6.308  0.5790 -0.5363 -0.6410
  519MOL0     C69939   8.453   3.268   6.200 -0.2687 -0.0328 -0.3942
  519MOL0     C69940   8.603   3.282   6.236 -0.4480 -0.0528  0.3774
  519MOL0     C69941   8.644   3.385   6.338 -0.6461  0.2387  0.3901
  519MOL0     C69942   8.606   3.523   6.290  0.2221  0.1372  0.4496
  519MOL0     C69943   8.664   3.640   6.356 -0.0851 -0.6392  0.7129
  519MOL0     C69944   8.621   3.773   6.310  0.8798 -0.2951  0.0962
  519MOL0     C69945   8.699   3.891   6.366  0.1267  0.2424 -0.4753
  519MOL0     C69946   8.674   3.925   6.515 -0.3234 -0.1285  0.4472
  519MOL0     N69947   8.782   4.029   6.550  0.7801 -0.2737 -0.0105
  519MOL0     C69948   8.914   3.995   6.563  0.4936 -0.8217 -0.1794
  519MOL0     C69949   8.974   4.114   6.603  1.3742  0.1872 -0.7598
  519MOL0     C69950   9.119   4.146   6.624  0.4420 -2.3114 -0.4828
  519MOL0     C69951   9.196   4.215   6.501 -0.3274  0.6029 -1.0089
  519MOL0     C69952   9.230   4.106   6.389 -0.0509  0.4502 -0.6443
  519MOL0     C69953   9.345   4.003   6.405  0.2620 -0.3696 -0.6202
  519MOL0     O69954   9.459   4.083   6.436  0.0149 -0.2227 -0.1548
  519MOL0     C69955   9.576   4.010   6.435 -0.1541  0.3706  0.9730
  519MOL0     C69956   9.682   4.086   6.493  0.6715  0.7145  0.1744
  519MOL0     C69957   9.802   4.033   6.510  0.4469  0.6315  0.8481
  519MOL0     C69958   9.837   3.902   6.455 -0.1260 -1.1353 -0.2982
  519MOL0     C69959   9.977   3.846   6.453 -0.0109  0.3147 -1.2676
  519MOL0     O69960  10.073   3.916   6.525 -0.3977  0.1231 -0.0680
  519MOL0     C69961  10.205   3.895   6.504 -0.5145  0.8702 -0.8282
  519MOL0     C69962  10.283   3.836   6.606  0.2975  0.6317  0.3491
  519MOL0     C69963  10.410   3.801   6.589 -0.7559  0.5249  0.9886
  519MOL0     C69964  10.471   3.829   6.465 -0.1114  0.3454  0.5344
  519MOL0     O69965  10.609   3.816   6.435  0.6646 -0.6034 -0.3253
  519MOL0     C69966  10.644   3.699   6.360 -0.2878 -0.6658  0.4160
  519MOL0     C69967  10.628   3.578   6.447  0.4987 -0.7719  0.3287
  519MOL0     C69968  10.739   3.479   6.404  0.1488 -0.8658 -0.3498
  519MOL0     C69969  10.728   3.351   6.486  0.2384 -0.5540 -0.8343
  519MOL0     C69970  10.796   3.227   6.426  0.7832 -0.8539  0.0930
  519MOL0     C69971  10.692   3.126   6.364  0.2034 -0.0263 -0.4304
  519MOL0     C69972  10.771   3.005   6.324 -0.9173  0.2490 -0.9997
  519MOL0     C69973  10.728   2.923   6.205 -0.3518 -0.0983  1.3564
  519MOL0    Cl69974  10.579   2.823   6.234 -0.2779  0.4064  0.4824
  519MOL0     C69975  10.400   3.895   6.367 -0.2116 -0.4568  0.3317
  519MOL0     C69976  10.262   3.923   6.385 -0.4289 -0.2354  0.7294
  519MOL0     O69977   9.992   3.743   6.389  0.0908  0.4985  0.3634
  519MOL0     C69978   9.731   3.837   6.389  0.5381  0.1067  0.6851
  519MOL0     C69979   9.604   3.887   6.380 -0.2675 -0.9188  0.1597
  519MOL0     N69980   8.873   4.208   6.615 -0.6729 -1.0113  0.3024
  519MOL0     N69981   8.755   4.157   6.576  0.7499 -0.0467 -0.0979
  519MOL0     C69982   8.137   3.274   6.379 -0.1466  0.1981  0.5000
  519MOL0     C69983   8.024   3.202   6.391  0.6949  0.1753 -0.5522
  519MOL0     C69984   7.671   2.964   6.348  1.3755  0.0495 -0.4145
  519MOL0     C69985   7.702   2.828   6.312 -0.1570 -0.1436  0.3292
  519MOL0     C69986   7.606   2.736   6.311 -0.0319  0.1103  0.1044
  519MOL0     C69987   7.479   2.761   6.360  0.0870  0.1078 -0.7713
  519MOL0     O69988   7.399   2.658   6.379 -0.2791 -0.6398  0.0392
  519MOL0     C69989   7.288   2.668   6.467 -0.7135 -0.2638  0.8179
  519MOL0     C69990   7.210   2.544   6.443 -0.1426  0.0867 -0.4408
  519MOL0     C69991   7.074   2.550   6.494  0.1364  0.1557 -0.1969
  519MOL0     C69992   7.002   2.426   6.445 -0.4190  0.6166  0.1521
  519MOL0     C69993   6.864   2.426   6.480 -0.3856  0.4847 -0.4139
  519MOL0     C69994   6.755   2.443   6.535  0.1307  1.0607  1.3292
  519MOL0     C69995   7.442   2.893   6.391  0.3151 -0.3805  0.7099
  519MOL0     C69996   7.541   3.001   6.386  0.3874  0.6299 -0.0463
  519MOL0     C69997   7.502   3.135   6.429 -0.8148 -0.8253  0.3417
  519MOL0     H69998   8.152   2.894   6.333  1.4078  0.4896  1.3290
  519MOL0     H69999   8.359   3.032   6.306  0.1413  0.9128 -0.4550
  519MOL0     H70000   8.427   3.167   6.167 -2.8851  0.1558  0.8318
  519MOL0     H70001   8.434   3.324   6.109 -0.9348 -1.9911 -1.5207
  519MOL0     H70002   8.654   3.295   6.141 -1.3381 -2.1103 -0.4529
  519MOL0     H70003   8.644   3.185   6.266 -0.0145 -0.2639 -0.8417
  519MOL0     H70004   8.752   3.382   6.350 -0.5095  0.0467 -0.7678
  519MOL0     H70005   8.589   3.359   6.429  1.1973  0.3303  1.5806
  519MOL0     H70006   8.612   3.524   6.181 -0.8171 -1.3893  0.3606
  519MOL0     H70007   8.501   3.516   6.319  0.8927 -1.4727  2.8184
  519MOL0     H70008   8.657   3.622   6.464  0.1121 -0.1088  0.8182
  519MOL0     H70009   8.769   3.642   6.324 -0.9322  0.3067 -2.2973
  519MOL0     H70010   8.634   3.790   6.203 -0.6959  4.8151  0.4278
  519MOL0     H70011   8.517   3.789   6.341  0.7720  1.2263 -0.9372
  519MOL0     H70012   8.681   3.978   6.303  0.4022  0.6043 -0.0559
  519MOL0     H70013   8.802   3.857   6.353 -0.6722 -2.2464 -0.9637
  519MOL0     H70014   8.575   3.967   6.531 -0.1900 -0.4947  2.5529
  519MOL0     H70015   8.688   3.835   6.575 -0.7996 -2.6369 -2.9548
  519MOL0     H70016   8.959   3.896   6.554 -0.6798 -1.4844  0.8959
  519MOL0     H70017   9.130   4.210   6.712  2.0672 -0.1952 -2.1207
  519MOL0     H70018   9.164   4.049   6.648  0.4610 -1.8129  1.7207
  519MOL0     H70019   9.144   4.305   6.467 -0.5714  1.2206  0.8780
  519MOL0     H70020   9.285   4.257   6.550 -0.3967 -1.4088  0.9962
  519MOL0     H70021   9.266   4.169   6.307  4.2515 -2.0355 -0.9448
  519MOL0     H70022   9.138   4.067   6.342  0.2222  0.7075 -1.4124
  519MOL0     H70023   9.362   3.955   6.308  0.8872 -0.1162 -0.6415
  519MOL0     H70024   9.315   3.925   6.476 -0.7055  2.5360  2.4430
  519MOL0     H70025   9.671   4.189   6.525  1.4726  1.6790 -2.4309
  519MOL0     H70026   9.884   4.086   6.558  0.6582  0.9211  0.1724
  519MOL0     H70027  10.226   3.813   6.696  1.1913 -3.9211 -0.0034
  519MOL0     H70028  10.474   3.751   6.660  1.8663  3.2572  0.7455
  519MOL0     H70029  10.586   3.686   6.268  1.0225 -0.1619 -0.4984
  519MOL0     H70030  10.744   3.717   6.321 -0.5971  1.4195  0.4698
  519MOL0     H70031  10.647   3.603   6.552 -1.0852 -0.8312  0.6580
  519MOL0     H70032  10.528   3.535   6.441  0.4405 -1.5595  4.2214
  519MOL0     H70033  10.722   3.466   6.297 -4.7432 -0.7576  0.1502
  519MOL0     H70034  10.834   3.528   6.426 -0.0881 -0.8756  0.7975
  519MOL0     H70035  10.622   3.327   6.499 -0.2970  0.5440 -2.8150
  519MOL0     H70036  10.763   3.380   6.586  2.5054 -1.3528 -1.3433
  519MOL0     H70037  10.843   3.173   6.508  1.3403 -1.5815 -0.6902
  519MOL0     H70038  10.862   3.264   6.347 -0.8195  0.1602 -0.8489
  519MOL0     H70039  10.622   3.088   6.438  1.3515 -0.8142  0.2919
  519MOL0     H70040  10.648   3.165   6.273 -3.9822 -0.6512  1.1278
  519MOL0     H70041  10.792   2.935   6.405  0.4860  2.6563  0.8353
  519MOL0     H70042  10.868   3.044   6.292  0.6934  0.1137  3.1102
  519MOL0     H70043  10.711   2.987   6.118 -2.1430 -0.5444  1.3466
  519MOL0     H70044  10.815   2.861   6.181 -1.3215 -0.6414 -1.0499
  519MOL0     H70045  10.449   3.908   6.271 -2.2695 -1.2801 -0.9096
  519MOL0     H70046  10.211   3.964   6.299  2.5714  0.2831 -0.9404
  519MOL0     H70047   9.762   3.752   6.328  0.1573  0.3277  0.1685
  519MOL0     H70048   9.531   3.831   6.321  1.2490 -0.5469 -2.1889
  519MOL0     H70049   8.133   3.380   6.402 -2.1312  0.6303 -1.4649
  519MOL0     H70050   7.940   3.259   6.429  1.5166  1.9083 -1.2080
  519MOL0     H70051   7.800   2.807   6.270  1.1634  2.6936  1.7512
  519MOL0     H70052   7.623   2.632   6.286 -0.2727 -0.0072  0.4129
  519MOL0     H70053   7.226   2.757   6.455  2.8247  2.2696 -0.3863
  519MOL0     H70054   7.319   2.674   6.572 -0.0955 -1.0451  0.6924
  519MOL0     H70055   7.258   2.458   6.490 -0.8711  0.0310  0.2161
  519MOL0     H70056   7.202   2.529   6.335  1.2278 -0.5532 -0.4754
  519MOL0     H70057   7.020   2.637   6.456 -2.1048 -1.3973 -0.8024
  519MOL0     H70058   7.059   2.555   6.603 -0.1001  0.6447 -0.2494
  519MOL0     H70059   7.004   2.443   6.336  0.6502 -0.3329  0.0014
  519MOL0     H70060   7.043   2.329   6.472 -1.9971  0.4381  2.1325
  519MOL0     H70061   6.659   2.475   6.571  0.8431  5.2639  0.0190
  519MOL0     H70062   7.339   2.919   6.411 -0.3975 -1.3220 -1.4370
  519MOL0     H70063   7.492   3.196   6.339  0.5658  1.6865  1.7569
  519MOL0     H70064   7.401   3.130   6.471 -2.3643 -1.1598 -3.0539
  519MOL0     H70065   7.570   3.177   6.503 -1.9212  0.1365  0.8397
  520MOL0     O70066   2.360   4.536   6.487  0.1198  0.0282  0.4314
  520MOL0     C70067   2.333   4.578   6.601 -0.0231  0.2021  0.6296
  520MOL0     O70068   2.398   4.681   6.667  0.1938 -0.1631  0.2022
  520MOL0     C70069   2.456   4.777   6.587 -0.0021 -0.2898  0.5687
  520MOL0     C70070   2.579   4.827   6.621 -0.6749  0.3839  0.0870
  520MOL0     C70071   2.628   4.935   6.545 -0.8192  0.0197 -0.2670
  520MOL0     C70072   2.562   4.986   6.437 -0.1456 -0.4210 -0.3289
  520MOL0     O70073   2.626   5.084   6.362  0.9860  0.3002 -0.5354
  520MOL0     C70074   2.559   5.161   6.261  0.1979 -0.3269  0.2293
  520MOL0     C70075   2.653   5.254   6.184  0.3276 -0.3496  0.4097
  520MOL0     C70076   2.746   5.187   6.084  0.5112  0.7419 -0.5566
  520MOL0     C70077   2.833   5.068   6.142 -0.3015 -0.3310 -0.4373
  520MOL0     C70078   2.934   5.096   6.255  0.7392  0.2155  0.4045
  520MOL0     C70079   2.983   4.964   6.313  0.2568 -0.2125  0.0535
  520MOL0     C70080   3.079   4.979   6.436  0.7638 -0.3303  0.1042
  520MOL0     C70081   3.176   4.869   6.457 -0.1291  0.0430 -0.4679
  520MOL0     N70082   3.280   4.886   6.563 -1.0565  0.0356 -0.8947
  520MOL0     C70083   3.336   4.772   6.645  0.0158 -0.4467 -0.6886
  520MOL0     C70084   3.406   4.828   6.746  0.8055 -0.8568  0.3772
  520MOL0     C70085   3.484   4.753   6.845 -0.0965  0.2163  0.7266
  520MOL0     C70086   3.622   4.822   6.872 -0.4677  0.6070  0.1337
  520MOL0     C70087   3.612   4.903   6.997  0.3986  0.4960  0.0195
  520MOL0     C70088   3.744   4.939   7.053 -0.5286  0.1883  0.1111
  520MOL0     O70089   3.816   5.043   6.975  0.1264  0.3096  0.5894
  520MOL0     C70090   3.949   5.057   7.014  0.2431 -0.5106  0.5007
  520MOL0     C70091   4.008   5.060   7.139 -1.0716  0.3386 -0.3624
  520MOL0     C70092   4.147   5.100   7.156  0.1167 -0.4354 -0.1728
  520MOL0     C70093   4.234   5.130   7.048 -0.5620 -0.1947 -0.2384
  520MOL0     C70094   4.372   5.181   7.074 -0.0822  0.2153 -0.8593
  520MOL0     O70095   4.464   5.169   6.975  0.3574  0.4532 -0.1517
  520MOL0     C70096   4.591   5.228   6.985  0.9797 -0.3138  0.6621
  520MOL0     C70097   4.650   5.266   6.867  0.1749  0.2954  0.6935
  520MOL0     C70098   4.776   5.320   6.866 -0.0960 -0.2460 -0.6476
  520MOL0     C70099   4.852   5.341   6.981  0.1383 -0.0746 -0.7450
  520MOL0     O70100   4.978   5.401   6.981 -0.8807  0.0200  0.0637
  520MOL0     C70101   5.007   5.490   6.875  0.3700 -0.7232 -0.8045
  520MOL0     C70102   5.155   5.519   6.863 -0.0710  0.3169 -0.6905
  520MOL0     C70103   5.209   5.585   6.993  0.0899  1.0065  0.9988
  520MOL0     C70104   5.334   5.681   6.962 -0.2506 -0.0347  0.1102
  520MOL0     C70105   5.378   5.750   7.096  0.3105 -0.3673  1.3607
  520MOL0     C70106   5.456   5.877   7.052  0.3981 -0.4242 -0.4644
  520MOL0     C70107   5.595   5.840   7.027 -0.2624  0.2671  0.1175
  520MOL0     C70108   5.681   5.946   6.991  0.1979  0.1867  0.6970
  520MOL0    Cl70109   5.845   5.895   6.970 -0.3106  0.0632 -0.5877
  520MOL0     C70110   4.797   5.302   7.100 -0.2138 -0.5172  0.2111
  520MOL0     C70111   4.659   5.248   7.103 -0.1754 -0.3536 -0.3510
  520MOL0     O70112   4.375   5.255   7.175 -0.2310  0.9400  0.4403
  520MOL0     C70113   4.173   5.117   6.928 -0.1022 -0.1224  0.4515
  520MOL0     C70114   4.037   5.098   6.916 -0.0776  0.7974  0.5791
  520MOL0     N70115   3.385   4.966   6.743 -0.3469 -0.1148 -0.1884
  520MOL0     N70116   3.318   4.998   6.646  0.0154 -0.0499  0.0135
  520MOL0     C70117   2.435   4.942   6.407 -0.0706  0.3843 -0.4574
  520MOL0     C70118   2.388   4.827   6.477  1.0175 -0.1724  0.1703
  520MOL0     C70119   2.223   4.509   6.671 -0.3995  0.4494  0.3359
  520MOL0     C70120   2.221   4.525   6.813  1.2633 -0.0196 -1.1033
  520MOL0     C70121   2.130   4.471   6.906 -0.6065 -0.1613  0.6576
  520MOL0     C70122   2.032   4.390   6.852  0.6016  0.2536  0.4240
  520MOL0     O70123   1.925   4.332   6.920  0.0227  0.0881  0.9928
  520MOL0     C70124   1.920   4.338   7.060 -0.3511  0.2245 -0.0091
  520MOL0     C70125   1.789   4.273   7.101 -0.7326 -0.1790  0.0000
  520MOL0     C70126   1.753   4.277   7.253 -0.8462  0.4587  0.1802
  520MOL0     C70127   1.623   4.199   7.277 -1.5394  0.1735 -0.1645
  520MOL0     C70128   1.577   4.218   7.409 -0.0174  0.2788 -0.2695
  520MOL0     C70129   1.548   4.244   7.522 -0.2727  0.1520 -0.7057
  520MOL0     C70130   2.032   4.371   6.716 -0.6679  0.6492  0.4166
  520MOL0     C70131   2.126   4.423   6.623  0.4194  0.6976  0.2229
  520MOL0     C70132   2.117   4.383   6.483  0.7919  0.5132  0.1981
  520MOL0     H70133   2.630   4.790   6.709  1.4107  0.0722 -1.1896
  520MOL0     H70134   2.723   4.980   6.572 -0.6067  0.8304 -2.1939
  520MOL0     H70135   2.514   5.092   6.189  2.2623 -0.2104 -1.2490
  520MOL0     H70136   2.488   5.231   6.306  0.7164 -0.7028  1.7190
  520MOL0     H70137   2.724   5.311   6.245 -1.2521  0.6529  1.3742
  520MOL0     H70138   2.590   5.327   6.131  0.2808  0.7993  1.9714
  520MOL0     H70139   2.809   5.264   6.038  0.0679  0.5888 -1.4436
  520MOL0     H70140   2.686   5.139   6.006 -1.1445  1.5646  0.1468
  520MOL0     H70141   2.773   4.985   6.180 -0.0436  0.6979  2.4505
  520MOL0     H70142   2.892   5.022   6.062  0.4853 -1.0576  0.5264
  520MOL0     H70143   3.020   5.142   6.205  0.4640 -1.5426 -1.8790
  520MOL0     H70144   2.888   5.168   6.323  0.1711  0.0066  0.2431
  520MOL0     H70145   2.904   4.901   6.355 -1.6271  1.3564 -0.9692
  520MOL0     H70146   3.035   4.919   6.228 -0.6235 -0.5041 -0.3360
  520MOL0     H70147   3.019   5.000   6.525  1.0776 -0.5624  0.3748
  520MOL0     H70148   3.146   5.063   6.414  0.0286  0.3502  0.4381
  520MOL0     H70149   3.121   4.779   6.488  0.0650  0.8788  2.6710
  520MOL0     H70150   3.235   4.856   6.367 -0.2337 -1.7188 -0.3235
  520MOL0     H70151   3.343   4.665   6.627  0.1504 -0.7122  0.8312
  520MOL0     H70152   3.414   4.737   6.927 -0.7418 -0.5529  0.0406
  520MOL0     H70153   3.503   4.660   6.791 -0.3148  0.9153 -0.5897
  520MOL0     H70154   3.688   4.738   6.897 -2.0541 -0.1973  1.8376
  520MOL0     H70155   3.668   4.881   6.793 -1.3446 -0.1106 -0.9404
  520MOL0     H70156   3.565   4.829   7.063  0.1004 -0.9538 -1.7184
  520MOL0     H70157   3.545   4.989   6.989 -1.7379 -0.8713  1.9276
  520MOL0     H70158   3.806   4.850   7.066  2.0899  1.7908 -0.7051
  520MOL0     H70159   3.736   4.983   7.153  1.4299 -0.0732  0.4212
  520MOL0     H70160   3.950   5.039   7.228 -1.1807  1.0784 -0.2507
  520MOL0     H70161   4.185   5.117   7.257  1.1568 -2.9944 -0.0710
  520MOL0     H70162   4.597   5.257   6.773 -0.1594  0.5104  0.8614
  520MOL0     H70163   4.820   5.343   6.769  4.3013  0.0665  1.1838
  520MOL0     H70164   4.985   5.451   6.776 -0.5597  0.2231 -0.9889
  520MOL0     H70165   4.962   5.587   6.901  2.2637 -0.0155 -0.0172
  520MOL0     H70166   5.213   5.427   6.856 -0.8692 -0.2206 -0.3765
  520MOL0     H70167   5.172   5.583   6.776 -0.1255  2.3734  0.7341
  520MOL0     H70168   5.133   5.652   7.035 -0.1646  2.3247 -1.3822
  520MOL0     H70169   5.241   5.514   7.069 -1.8953 -2.7261 -1.3321
  520MOL0     H70170   5.291   5.760   6.900 -0.2380 -0.6150 -0.6400
  520MOL0     H70171   5.415   5.632   6.908  1.6276 -0.6053  3.1758
  520MOL0     H70172   5.436   5.686   7.164  0.7454 -0.5228  0.8547
  520MOL0     H70173   5.289   5.785   7.150 -0.5923 -1.5332  0.6894
  520MOL0     H70174   5.414   5.935   6.969  2.0564  0.4283 -0.7576
  520MOL0     H70175   5.461   5.938   7.143 -1.4115 -0.4321 -0.3238
  520MOL0     H70176   5.594   5.768   6.945 -2.8901 -1.3371  1.4224
  520MOL0     H70177   5.637   5.785   7.111 -3.4671  0.4395  2.0002
  520MOL0     H70178   5.633   5.990   6.902 -0.7995 -3.4669 -0.7328
  520MOL0     H70179   5.690   6.022   7.069 -2.2661  3.3139 -1.7550
  520MOL0     H70180   4.858   5.312   7.189 -4.0436 -0.9002  3.1199
  520MOL0     H70181   4.614   5.214   7.196 -1.9926 -0.9473 -1.3796
  520MOL0     H70182   4.231   5.141   6.840 -0.9520  0.6208  0.0833
  520MOL0     H70183   3.988   5.106   6.819 -0.5447  4.6679  0.9656
  520MOL0     H70184   2.365   4.974   6.330  0.1165 -1.5482 -1.4924
  520MOL0     H70185   2.289   4.790   6.453  1.8248 -1.5998 -1.1309
  520MOL0     H70186   2.284   4.601   6.857 -1.1652  1.5409 -0.0771
  520MOL0     H70187   2.131   4.509   7.008 -4.3670  1.4046  0.2968
  520MOL0     H70188   1.910   4.442   7.094  0.1759  0.8450 -1.6564
  520MOL0     H70189   2.007   4.301   7.114 -0.1271  1.5448  0.5762
  520MOL0     H70190   1.790   4.168   7.070 -2.0049 -1.1123  2.7882
  520MOL0     H70191   1.707   4.327   7.054 -2.9407 -1.9106  1.6290
  520MOL0     H70192   1.730   4.383   7.268 -0.7987  0.6514 -1.0443
  520MOL0     H70193   1.836   4.246   7.317  0.0899 -0.1310 -1.2694
  520MOL0     H70194   1.546   4.231   7.206 -0.5961  1.2218 -0.7357
  520MOL0     H70195   1.635   4.092   7.255  0.7388  0.4908 -0.7672
  520MOL0     H70196   1.533   4.271   7.625 -2.3840  0.3231 -1.0335
  520MOL0     H70197   1.954   4.302   6.684  1.2549 -0.3267 -2.5309
  520MOL0     H70198   2.196   4.311   6.459 -0.5764 -0.5561 -1.3620
  520MOL0     H70199   2.019   4.339   6.462  1.1696 -0.1774 -0.1501
  520MOL0     H70200   2.124   4.471   6.418 -0.2733 -0.7821 -1.7572
  521MOL0     O70201   7.887   8.483   6.663  1.3213 -0.5536 -0.9445
  521MOL0     C70202   7.821   8.493   6.765  0.4315  1.0613 -0.6862
  521MOL0     O70203   7.871   8.468   6.889  0.3827  0.6333  0.0266
  521MOL0     C70204   8.003   8.455   6.912  0.4778  0.4965 -0.2756
  521MOL0     C70205   8.094   8.556   6.915 -0.5029  0.5626  0.8274
  521MOL0     C70206   8.223   8.538   6.966 -1.0619 -0.7714  0.1929
  521MOL0     C70207   8.266   8.411   7.007 -0.6778  0.6207 -0.0542
  521MOL0     O70208   8.394   8.412   7.061  0.0646 -0.0766  0.0944
  521MOL0     C70209   8.468   8.290   7.083 -0.2176  0.8402 -0.7062
  521MOL0     C70210   8.615   8.295   7.119  0.1831  0.3714  0.4095
  521MOL0     C70211   8.686   8.158   7.090 -0.0712  1.0240  0.4552
  521MOL0     C70212   8.816   8.157   7.174 -0.2656 -0.6686 -0.2941
  521MOL0     C70213   8.899   8.030   7.143 -0.6777 -0.2110  0.3416
  521MOL0     C70214   9.051   8.064   7.190  1.3666  0.5400  0.2723
  521MOL0     C70215   9.131   7.946   7.132 -0.1508 -0.4065  0.0672
  521MOL0     C70216   9.151   7.837   7.224 -0.6007 -0.4202 -0.3769
  521MOL0     N70217   9.254   7.752   7.160  0.3624  0.1820  0.0340
  521MOL0     C70218   9.252   7.681   7.039  0.0752 -0.1841 -0.9384
  521MOL0     C70219   9.381   7.636   7.024  0.8200  0.1309 -0.1472
  521MOL0     C70220   9.423   7.549   6.902 -0.4174  0.2170 -0.3288
  521MOL0     C70221   9.573   7.499   6.922  0.4494  0.5555  0.8689
  521MOL0     C70222   9.582   7.394   7.031  0.9817 -0.7208 -0.5435
  521MOL0     C70223   9.717   7.342   7.063 -0.5144  0.3148  0.2292
  521MOL0     O70224   9.810   7.450   7.090 -0.1911 -0.5223 -0.5004
  521MOL0     C70225   9.940   7.429   7.059 -0.6468 -0.7635  0.5796
  521MOL0     C70226  10.001   7.301   7.029  0.1109  0.0864 -0.6127
  521MOL0     C70227  10.135   7.289   7.003  0.0805  0.0199 -0.2576
  521MOL0     C70228  10.225   7.397   7.005  0.0600  0.0434  0.3754
  521MOL0     C70229  10.363   7.398   6.963 -0.0109  0.3197  1.2201
  521MOL0     O70230  10.407   7.277   6.923 -0.6118  0.3315 -0.1615
  521MOL0     C70231  10.541   7.249   6.916  0.3850  0.2672  0.3132
  521MOL0     C70232  10.649   7.325   6.965  0.5675  0.9282  0.7893
  521MOL0     C70233  10.778   7.272   6.961 -0.7579  0.9246  0.5017
  521MOL0     C70234  10.815   7.146   6.905  0.4529 -0.5799  0.3170
  521MOL0     O70235  10.946   7.096   6.903 -0.0190 -0.6887 -0.3482
  521MOL0     C70236  11.021   7.123   7.021  0.2095 -0.3191  0.9285
  521MOL0     C70237  11.136   7.013   7.030  0.5982 -0.2371  0.0309
  521MOL0     C70238  11.210   7.029   7.162 -0.2604 -0.1392  0.2855
  521MOL0     C70239  11.357   6.983   7.165 -0.1615 -0.3594  0.1437
  521MOL0     C70240  11.440   7.006   7.294 -0.4105  0.3291 -0.0070
  521MOL0     C70241  11.457   7.159   7.351  0.6244  1.3224 -0.2426
  521MOL0     C70242  11.479   7.257   7.229 -0.0565  0.5749  0.3049
  521MOL0     C70243  11.579   7.372   7.256 -0.2098  0.4271 -0.3703
  521MOL0    Cl70244  11.516   7.479   7.390  0.2711  0.3448  0.0504
  521MOL0     C70245  10.706   7.072   6.863  0.6272 -0.3023 -0.3111
  521MOL0     C70246  10.565   7.115   6.876 -0.4221  0.5423  0.5959
  521MOL0     O70247  10.420   7.505   6.948 -0.7676 -0.0132 -0.4038
  521MOL0     C70248  10.164   7.523   7.026 -0.5245  0.4114 -0.5892
  521MOL0     C70249  10.027   7.536   7.052  0.1269 -0.3157 -0.5565
  521MOL0     N70250   9.462   7.691   7.127  0.0751  0.2722  0.6080
  521MOL0     N70251   9.382   7.762   7.199  0.2087  0.6092 -0.1713
  521MOL0     C70252   8.176   8.307   6.996  0.2350  0.0857 -0.4317
  521MOL0     C70253   8.043   8.329   6.944 -0.1493  0.5669  0.7086
  521MOL0     C70254   7.676   8.535   6.756  0.0501  0.8674 -0.2974
  521MOL0     C70255   7.592   8.466   6.843  0.4276  0.4014 -0.1624
  521MOL0     C70256   7.458   8.487   6.853  0.2952  0.7840  0.0747
  521MOL0     C70257   7.394   8.579   6.768 -0.1063  0.2327  0.5258
  521MOL0     O70258   7.257   8.587   6.750  0.2849  0.1419 -0.6537
  521MOL0     C70259   7.175   8.491   6.817 -0.3645  0.4956  0.1867
  521MOL0     C70260   7.027   8.506   6.804  0.0029  0.4814  0.1635
  521MOL0     C70261   6.982   8.626   6.876 -0.1287 -0.4945 -0.8204
  521MOL0     C70262   6.834   8.667   6.875  0.5976 -0.7912  0.9009
  521MOL0     C70263   6.746   8.550   6.886 -0.1779  0.6455  0.0230
  521MOL0     C70264   6.679   8.453   6.917  0.1028  0.3008 -0.3209
  521MOL0     C70265   7.474   8.646   6.678 -0.2474 -0.7322  0.8040
  521MOL0     C70266   7.618   8.635   6.680  0.9282 -0.0479  0.5406
  521MOL0     C70267   7.689   8.742   6.597  0.7291  0.4916  0.2215
  521MOL0     H70268   8.079   8.650   6.863  1.0006  0.1287 -0.4792
  521MOL0     H70269   8.290   8.624   6.966  1.5485 -2.5254  3.6985
  521MOL0     H70270   8.402   8.230   7.146  0.8673  0.2619 -0.0883
  521MOL0     H70271   8.480   8.238   6.987  0.1123  1.8429 -1.2221
  521MOL0     H70272   8.617   8.309   7.228  1.4671  1.6689  0.2450
  521MOL0     H70273   8.668   8.376   7.069  1.1046 -1.3716 -1.6272
  521MOL0     H70274   8.715   8.157   6.985 -0.1585 -3.3205  0.2984
  521MOL0     H70275   8.622   8.072   7.113 -2.1906  3.1329  3.3892
  521MOL0     H70276   8.867   8.248   7.141  2.3556 -2.0743 -0.3911
  521MOL0     H70277   8.793   8.149   7.281  1.4413 -2.2023 -0.0044
  521MOL0     H70278   8.852   7.945   7.193  1.2584 -0.3494  2.0434
  521MOL0     H70279   8.898   8.012   7.035 -0.3414 -0.2322  0.3403
  521MOL0     H70280   9.078   8.160   7.146 -1.3807  0.1227 -2.7045
  521MOL0     H70281   9.065   8.070   7.298  1.6440  2.8548  0.1499
  521MOL0     H70282   9.227   7.993   7.107  1.4985 -2.9084  1.3511
  521MOL0     H70283   9.095   7.922   7.031  0.4800 -0.0528 -0.2532
  521MOL0     H70284   9.175   7.875   7.324 -1.2266  0.4523 -0.5475
  521MOL0     H70285   9.058   7.779   7.216  0.1605 -2.0878  1.8192
  521MOL0     H70286   9.171   7.661   6.969  1.0605  1.4909 -2.6628
  521MOL0     H70287   9.355   7.463   6.899  1.3209 -1.4606  2.7111
  521MOL0     H70288   9.416   7.608   6.810 -0.7686  1.1131  0.2580
  521MOL0     H70289   9.607   7.451   6.830  0.2177  2.7837 -0.4659
  521MOL0     H70290   9.643   7.580   6.943  0.1544  0.9872  0.2074
  521MOL0     H70291   9.514   7.311   7.015 -0.2275  0.2453 -0.5715
  521MOL0     H70292   9.542   7.450   7.116 -3.7418 -2.0902 -1.5968
  521MOL0     H70293   9.741   7.284   6.973  1.9446  2.3260 -0.5040
  521MOL0     H70294   9.715   7.278   7.152 -0.4800  0.5887  0.4279
  521MOL0     H70295   9.948   7.207   7.040  1.7525 -0.6836  1.7925
  521MOL0     H70296  10.176   7.191   6.979  0.6601  0.5852 -1.6882
  521MOL0     H70297  10.650   7.430   6.993  0.9879  0.5808  2.1801
  521MOL0     H70298  10.860   7.337   6.988  1.1113 -1.1356  0.0477
  521MOL0     H70299  11.053   7.227   7.034 -0.4694  0.0801 -0.4579
  521MOL0     H70300  10.958   7.102   7.109 -1.9034  0.4371 -0.3285
  521MOL0     H70301  11.094   6.913   7.037 -1.4342  0.6228  0.6755
  521MOL0     H70302  11.205   7.024   6.946  0.8336  3.3820  0.5124
  521MOL0     H70303  11.202   7.129   7.207  1.7291  0.4966 -0.6711
  521MOL0     H70304  11.148   6.972   7.233 -1.3436  0.4842 -0.1393
  521MOL0     H70305  11.395   7.044   7.082  1.5420 -2.4714 -0.7378
  521MOL0     H70306  11.371   6.882   7.124  1.0527  0.4558 -1.6033
  521MOL0     H70307  11.537   6.963   7.271 -0.3458  0.7912 -0.6501
  521MOL0     H70308  11.409   6.940   7.376  0.2391  1.2234  0.9781
  521MOL0     H70309  11.363   7.185   7.401 -0.7926 -3.0418 -0.2660
  521MOL0     H70310  11.530   7.142   7.431 -0.2787 -4.2619 -0.2335
  521MOL0     H70311  11.381   7.298   7.203  1.0646  2.1612 -1.7167
  521MOL0     H70312  11.520   7.191   7.152 -1.5544 -0.7079  0.5753
  521MOL0     H70313  11.672   7.335   7.299 -0.9252 -0.4293  0.4830
  521MOL0     H70314  11.614   7.417   7.163  0.3497 -0.3802 -0.5657
  521MOL0     H70315  10.722   6.973   6.821 -1.1606 -0.1081 -1.5192
  521MOL0     H70316  10.477   7.055   6.852  0.4226 -0.4502 -0.1075
  521MOL0     H70317  10.223   7.613   7.039 -0.4240  0.4213 -1.1054
  521MOL0     H70318   9.996   7.640   7.055  1.8234  0.2212  1.6932
  521MOL0     H70319   8.204   8.205   7.022 -2.8156  0.0903  3.7834
  521MOL0     H70320   7.975   8.244   6.938  0.2833  0.2105  0.8188
  521MOL0     H70321   7.622   8.379   6.901  1.1345 -0.5705 -1.8886
  521MOL0     H70322   7.400   8.416   6.910 -1.9232  2.9156  0.6484
  521MOL0     H70323   7.201   8.500   6.923  0.2989 -1.1956  0.2002
  521MOL0     H70324   7.212   8.393   6.785 -0.2586  0.1039  1.4586
  521MOL0     H70325   6.987   8.415   6.850  1.9011 -0.1560  0.6533
  521MOL0     H70326   6.992   8.495   6.700  0.0346  0.6078  0.1398
  521MOL0     H70327   7.029   8.722   6.852 -1.2529  0.6567  1.2717
  521MOL0     H70328   7.012   8.595   6.977 -0.7394 -2.6030 -1.2479
  521MOL0     H70329   6.814   8.735   6.958  2.4416 -0.9352  1.5248
  521MOL0     H70330   6.803   8.724   6.787  2.1231 -1.4309 -0.0921
  521MOL0     H70331   6.607   8.382   6.952  0.1526  1.4654  2.4351
  521MOL0     H70332   7.429   8.709   6.602 -0.9934 -2.2182 -0.0201
  521MOL0     H70333   7.794   8.752   6.627  0.3953 -3.1479  3.2456
  521MOL0     H70334   7.686   8.710   6.492  3.0585  1.0096 -0.0698
  521MOL0     H70335   7.649   8.844   6.593  0.2963  0.5131  3.1043
  522MOL0     O70336   9.272   2.912   8.853  0.6653  0.2657 -0.7058
  522MOL0     C70337   9.199   2.839   8.918  0.5461  0.1440 -0.0622
  522MOL0     O70338   9.237   2.719   8.979  0.0552  0.4291  0.9783
  522MOL0     C70339   9.353   2.666   8.930  1.5747  1.3871 -0.0577
  522MOL0     C70340   9.346   2.607   8.808  0.2347 -0.9280  0.0767
  522MOL0     C70341   9.458   2.557   8.743 -0.6427  0.3158  0.3861
  522MOL0     C70342   9.586   2.575   8.793  0.9872  0.5440 -0.5911
  522MOL0     O70343   9.690   2.518   8.732 -1.1915  0.5593 -0.3014
  522MOL0     C70344   9.827   2.562   8.758 -0.3141 -0.1297 -0.3426
  522MOL0     C70345   9.902   2.527   8.628  0.3628 -0.7538 -0.6864
  522MOL0     C70346  10.044   2.568   8.633 -0.1965  0.1486  0.5320
  522MOL0     C70347  10.070   2.713   8.649  0.7173  0.3930  0.5651
  522MOL0     C70348  10.217   2.739   8.621  0.1191  0.3749 -0.3185
  522MOL0     C70349  10.253   2.891   8.628 -0.3237  0.5334  0.1589
  522MOL0     C70350  10.398   2.920   8.592  0.8052 -0.5356 -0.1656
  522MOL0     C70351  10.429   2.908   8.449  0.7528  0.2860  0.1851
  522MOL0     N70352  10.562   2.945   8.401 -0.1709  1.0182 -0.0084
  522MOL0     C70353  10.600   3.071   8.401 -0.2165 -0.5349  0.0242
  522MOL0     C70354  10.733   3.064   8.409 -0.2492 -0.6659  0.7850
  522MOL0     C70355  10.819   3.182   8.427  0.6786 -0.7325 -0.1565
  522MOL0     C70356  10.796   3.241   8.568 -0.5076  0.8446  0.0760
  522MOL0     C70357  10.880   3.364   8.587  0.9341  0.3193 -0.0537
  522MOL0     C70358  10.867   3.426   8.728 -0.1496  0.6886 -0.2447
  522MOL0     O70359  10.751   3.515   8.728  0.4091 -0.3993 -1.0705
  522MOL0     C70360  10.752   3.612   8.826  0.3852  0.1889  0.0137
  522MOL0     C70361  10.653   3.709   8.818  0.3741 -1.0996 -0.4490
  522MOL0     C70362  10.650   3.818   8.912  0.1035 -0.9882  0.5568
  522MOL0     C70363  10.756   3.823   9.013  0.0050 -0.9469  0.5911
  522MOL0     C70364  10.759   3.937   9.114  0.1156  0.6559 -0.3138
  522MOL0     O70365  10.677   4.041   9.092  0.4728 -0.1714 -0.1872
  522MOL0     C70366  10.675   4.159   9.164  0.4068 -1.0314 -0.9633
  522MOL0     C70367  10.775   4.215   9.246  0.5653  0.0505  0.8329
  522MOL0     C70368  10.768   4.335   9.316  1.1209 -0.2817  0.5250
  522MOL0     C70369  10.641   4.403   9.310 -1.0300 -0.0411  0.2436
  522MOL0     O70370  10.614   4.515   9.380  0.6102 -0.4691  0.4614
  522MOL0     C70371  10.706   4.583   9.453 -0.0680 -0.5976 -0.9399
  522MOL0     C70372  10.703   4.728   9.396  0.1923 -0.4472 -0.0411
  522MOL0     C70373  10.794   4.740   9.270  0.1989 -0.3088 -0.2676
  522MOL0     C70374  10.847   4.882   9.238 -0.1879 -1.2654  0.1413
  522MOL0     C70375  10.952   4.866   9.113  0.2749 -0.1522 -0.3208
  522MOL0     C70376  11.093   4.888   9.154 -0.5509  0.2829  0.0856
  522MOL0     C70377  11.196   4.817   9.062 -0.2861  0.0185 -0.5243
  522MOL0     C70378  11.341   4.858   9.117  0.6496 -0.6358 -0.3443
  522MOL0    Cl70379  11.474   4.817   9.008 -0.2867  0.1243 -0.1171
  522MOL0     C70380  10.541   4.360   9.218  0.3095  0.2634  0.1861
  522MOL0     C70381  10.558   4.234   9.152 -0.6142 -0.9757  0.2507
  522MOL0     O70382  10.822   3.924   9.220 -0.4215 -0.2535 -0.3551
  522MOL0     C70383  10.851   3.724   9.019  0.5102 -0.6759 -0.1911
  522MOL0     C70384  10.856   3.630   8.926  0.0127  0.3142  0.4301
  522MOL0     N70385  10.773   2.930   8.396  0.1428  0.0818 -0.6658
  522MOL0     N70386  10.667   2.861   8.387  0.0803 -0.2210 -0.1890
  522MOL0     C70387   9.597   2.642   8.914  0.1864 -0.3114 -0.3585
  522MOL0     C70388   9.479   2.685   8.982  0.2164  0.0731  0.4026
  522MOL0     C70389   9.051   2.882   8.921 -0.1671 -0.3453  0.4353
  522MOL0     C70390   8.959   2.785   8.976 -0.4044 -0.1398  0.4499
  522MOL0     C70391   8.820   2.812   8.985 -0.2028  0.9181 -0.0106
  522MOL0     C70392   8.771   2.937   8.950 -0.0390  0.5262 -0.0509
  522MOL0     O70393   8.637   2.972   8.955  0.5761 -0.0199  0.7997
  522MOL0     C70394   8.532   2.876   8.955  0.0362 -0.2078  1.1403
  522MOL0     C70395   8.441   2.908   8.829 -0.7078  0.1158  0.2315
  522MOL0     C70396   8.525   2.895   8.697 -0.1691  1.0848 -0.3025
  522MOL0     C70397   8.442   2.898   8.575  0.2786 -0.5435 -0.5778
  522MOL0     C70398   8.357   2.782   8.568  0.9708  0.2133  0.6842
  522MOL0     C70399   8.288   2.679   8.560 -0.6861  0.1448 -0.3931
  522MOL0     C70400   8.865   3.034   8.906  0.2598  0.4187  0.0017
  522MOL0     C70401   8.998   3.012   8.892 -0.4211 -0.5962  1.5107
  522MOL0     C70402   9.078   3.120   8.823 -0.1760 -0.2574  0.5847
  522MOL0     H70403   9.242   2.588   8.783  0.2148 -0.9278  0.1573
  522MOL0     H70404   9.437   2.498   8.654  0.2106 -1.3032  1.2090
  522MOL0     H70405   9.827   2.670   8.773  0.3350 -0.2490  0.6405
  522MOL0     H70406   9.879   2.511   8.840 -2.0458 -0.0223  0.8705
  522MOL0     H70407   9.861   2.576   8.539  5.1234 -0.2185 -2.8958
  522MOL0     H70408   9.900   2.420   8.607  0.0940 -1.6791  3.1872
  522MOL0     H70409  10.075   2.546   8.530  1.0669 -0.8658  1.1002
  522MOL0     H70410  10.089   2.491   8.697 -0.5022 -0.4718  0.0133
  522MOL0     H70411  10.012   2.779   8.583  2.6941  2.0834  0.4031
  522MOL0     H70412  10.061   2.743   8.754  3.7313  0.7121  0.8279
  522MOL0     H70413  10.278   2.677   8.687 -2.3191  0.7322  2.4748
  522MOL0     H70414  10.243   2.703   8.521  1.0941  1.3845 -0.4450
  522MOL0     H70415  10.193   2.948   8.557  0.5014 -0.0466 -1.0318
  522MOL0     H70416  10.232   2.938   8.725  0.3272 -0.7360  0.9499
  522MOL0     H70417  10.461   2.851   8.648  1.0176  1.3987  2.1502
  522MOL0     H70418  10.426   3.021   8.626  1.0108 -1.5062  2.8854
  522MOL0     H70419  10.392   2.809   8.422 -2.9209  1.5724  0.0261
  522MOL0     H70420  10.358   2.969   8.393 -0.5161 -0.3263  1.1035
  522MOL0     H70421  10.541   3.160   8.417 -0.0511 -0.5339  0.6489
  522MOL0     H70422  10.924   3.168   8.400  0.6081  0.3460 -1.0461
  522MOL0     H70423  10.789   3.251   8.348  0.7450 -0.0784  0.3810
  522MOL0     H70424  10.693   3.265   8.594  0.6888  2.1655  4.4496
  522MOL0     H70425  10.823   3.168   8.645 -2.2803  0.2822  0.2188
  522MOL0     H70426  10.851   3.436   8.510  0.0017  1.7993  1.5937
  522MOL0     H70427  10.986   3.339   8.580  0.6523 -0.5581 -1.5016
  522MOL0     H70428  10.963   3.479   8.737 -0.1028  0.6627 -0.5905
  522MOL0     H70429  10.888   3.360   8.812  3.1421 -0.9313 -2.1330
  522MOL0     H70430  10.582   3.717   8.737  2.0732  1.7005 -1.8276
  522MOL0     H70431  10.567   3.886   8.899  3.4071  3.2365 -1.1283
  522MOL0     H70432  10.860   4.148   9.252 -0.2540 -1.8400 -3.9233
  522MOL0     H70433  10.848   4.366   9.381 -1.5877  0.4092  3.8295
  522MOL0     H70434  10.666   4.583   9.555 -1.6055 -0.2090 -1.5263
  522MOL0     H70435  10.804   4.533   9.457 -0.0986 -0.6030  1.0140
  522MOL0     H70436  10.602   4.764   9.375  0.0236 -0.7682  0.2041
  522MOL0     H70437  10.736   4.798   9.473  2.7732 -2.3696  0.7303
  522MOL0     H70438  10.877   4.669   9.274  0.5326  0.0075 -1.1216
  522MOL0     H70439  10.725   4.708   9.192 -1.5827  2.6914 -0.0501
  522MOL0     H70440  10.897   4.916   9.330 -2.3535 -0.2676  1.0336
  522MOL0     H70441  10.765   4.954   9.225  0.3889 -0.6633 -0.2479
  522MOL0     H70442  10.911   4.935   9.038 -1.8749 -1.7467 -0.7208
  522MOL0     H70443  10.942   4.767   9.067 -1.0696 -0.8348  1.3373
  522MOL0     H70444  11.119   4.993   9.171  2.3108  0.0405 -2.0160
  522MOL0     H70445  11.097   4.836   9.250  1.5843 -4.7812 -2.3918
  522MOL0     H70446  11.183   4.856   8.960  2.6045  0.2350 -0.8993
  522MOL0     H70447  11.173   4.710   9.057 -0.3100  0.0172 -0.3729
  522MOL0     H70448  11.355   4.966   9.133  0.0339 -0.5393 -0.4314
  522MOL0     H70449  11.339   4.809   9.215  1.3397 -0.1290 -0.0644
  522MOL0     H70450  10.447   4.411   9.201 -0.3156 -1.3032 -1.3302
  522MOL0     H70451  10.477   4.197   9.090 -1.7548 -0.3174  1.2819
  522MOL0     H70452  10.922   3.732   9.101 -2.1648 -0.9596  2.3286
  522MOL0     H70453  10.933   3.554   8.938  0.7414  0.8496 -0.6667
  522MOL0     H70454   9.694   2.667   8.955 -0.2402 -0.0973  0.5310
  522MOL0     H70455   9.494   2.737   9.076  0.0136  0.2571  0.3352
  522MOL0     H70456   8.992   2.688   9.014 -1.7440 -0.5678  0.5640
  522MOL0     H70457   8.765   2.723   9.015  0.5010  0.3266 -0.4478
  522MOL0     H70458   8.479   2.896   9.048 -0.2369  2.3404  0.4998
  522MOL0     H70459   8.572   2.776   8.934 -2.4259 -0.7021 -1.9635
  522MOL0     H70460   8.416   3.014   8.838 -1.2638  0.0917 -0.8349
  522MOL0     H70461   8.351   2.846   8.832 -0.2662 -0.5675 -0.3112
  522MOL0     H70462   8.572   2.796   8.690 -2.5237 -0.2825  1.6576
  522MOL0     H70463   8.597   2.978   8.689  0.9195  0.0653 -1.6494
  522MOL0     H70464   8.381   2.989   8.577  0.9863  0.0034  3.4397
  522MOL0     H70465   8.506   2.903   8.486 -1.8007 -1.6330 -2.2508
  522MOL0     H70466   8.226   2.593   8.549  0.2678 -0.4954 -0.8499
  522MOL0     H70467   8.819   3.124   8.867 -1.6602 -0.9703 -1.1139
  522MOL0     H70468   9.147   3.154   8.901 -0.2581 -1.0068  0.9929
  522MOL0     H70469   9.136   3.092   8.735 -0.2164  3.0883 -0.6336
  522MOL0     H70470   9.026   3.213   8.799 -0.7703 -0.4574  1.0691
  523MOL0     O70471   4.933   2.857   3.176 -0.8565  0.2122 -0.7106
  523MOL0     C70472   4.851   2.919   3.251 -0.0794 -0.1490  0.9208
  523MOL0     O70473   4.887   2.970   3.367 -0.0138 -0.6060 -0.7615
  523MOL0     C70474   5.021   2.975   3.405  0.6820  0.1657  0.1940
  523MOL0     C70475   5.076   2.895   3.501  0.2611  0.1303  0.5320
  523MOL0     C70476   5.208   2.907   3.537 -0.8837 -0.9243 -0.2706
  523MOL0     C70477   5.287   3.006   3.483 -0.0362  0.0292  0.4822
  523MOL0     O70478   5.412   3.026   3.523  0.0282  0.0421 -0.4350
  523MOL0     C70479   5.506   2.960   3.442 -0.1794  0.4359 -0.6667
  523MOL0     C70480   5.648   3.013   3.490  0.4932 -0.0504 -0.0922
  523MOL0     C70481   5.652   3.172   3.459 -0.0373 -0.0611 -0.2133
  523MOL0     C70482   5.744   3.233   3.558  0.7206 -0.1639 -0.0634
  523MOL0     C70483   5.892   3.228   3.528 -0.6415  0.2808  0.5813
  523MOL0     C70484   5.974   3.293   3.635 -0.1771  0.6289 -0.5940
  523MOL0     C70485   5.947   3.440   3.641  0.0111 -0.0385 -0.9718
  523MOL0     C70486   6.061   3.498   3.741 -0.3348  0.2490  0.1007
  523MOL0     N70487   6.173   3.541   3.660 -1.0011  0.5165 -0.1732
  523MOL0     C70488   6.189   3.665   3.605 -0.7478 -0.0893  0.6539
  523MOL0     C70489   6.322   3.674   3.582  0.5324  1.1467  0.3873
  523MOL0     C70490   6.402   3.795   3.542  1.2206  0.2174 -0.1044
  523MOL0     C70491   6.485   3.742   3.426 -0.4330  0.2341  0.2865
  523MOL0     C70492   6.587   3.846   3.378  0.5645 -0.7030  0.7158
  523MOL0     C70493   6.643   3.801   3.243  0.2732  0.5450  0.4969
  523MOL0     O70494   6.705   3.913   3.169  0.3219 -0.2787 -0.0469
  523MOL0     C70495   6.844   3.935   3.173 -0.7283  0.4151 -0.1152
  523MOL0     C70496   6.929   3.896   3.286  0.0206  0.2485  1.1989
  523MOL0     C70497   7.068   3.944   3.288 -0.0354  0.6585  0.1279
  523MOL0     C70498   7.127   4.011   3.175 -0.0617  0.4444 -1.3603
  523MOL0     C70499   7.272   4.053   3.166  0.2333 -0.3478 -0.4651
  523MOL0     O70500   7.330   4.057   3.289  0.0582  0.1966 -0.4970
  523MOL0     C70501   7.464   4.090   3.309 -0.5996 -0.8454 -0.0798
  523MOL0     C70502   7.567   4.018   3.244 -0.2539  0.2209  0.3037
  523MOL0     C70503   7.699   4.067   3.250  0.1834 -0.4408 -0.1476
  523MOL0     C70504   7.733   4.182   3.325  0.2264 -0.7025 -0.2187
  523MOL0     O70505   7.854   4.237   3.347  0.0130  0.3561  1.0447
  523MOL0     C70506   7.956   4.165   3.274  0.8789  0.4739  0.1424
  523MOL0     C70507   8.086   4.220   3.322 -0.5348  0.1076 -0.8335
  523MOL0     C70508   8.104   4.223   3.479 -0.2710 -0.0209  1.2755
  523MOL0     C70509   8.234   4.302   3.510  0.5647  0.6991  0.9082
  523MOL0     C70510   8.363   4.236   3.466 -0.1521  0.1137  0.1053
  523MOL0     C70511   8.479   4.339   3.486  0.5992 -0.0247 -0.0097
  523MOL0     C70512   8.604   4.258   3.472 -0.3615 -0.0234  0.4969
  523MOL0     C70513   8.727   4.348   3.490 -0.3262  0.1262  0.2467
  523MOL0    Cl70514   8.860   4.265   3.416  0.2012  0.2413 -0.0627
  523MOL0     C70515   7.631   4.245   3.392 -0.0807  0.5664  0.3055
  523MOL0     C70516   7.494   4.202   3.380 -0.3693  0.5423  0.1717
  523MOL0     O70517   7.332   4.064   3.059 -0.1284 -0.5997  0.7288
  523MOL0     C70518   7.038   4.051   3.077 -0.1371  0.7397  0.1025
  523MOL0     C70519   6.902   4.019   3.082  1.1128 -0.6210  0.1334
  523MOL0     N70520   6.381   3.557   3.623  0.2729  0.8942 -0.7489
  523MOL0     N70521   6.291   3.474   3.656 -0.0094 -0.2107  0.0536
  523MOL0     C70522   5.236   3.097   3.387 -0.2631  0.4130 -0.1988
  523MOL0     C70523   5.096   3.083   3.354 -0.2227 -0.9197 -0.0265
  523MOL0     C70524   4.709   2.950   3.201 -0.8776 -0.5796 -0.7218
  523MOL0     C70525   4.633   3.038   3.280  0.6748  0.9785 -0.4774
  523MOL0     C70526   4.494   3.063   3.254  0.3135 -0.1144 -0.9419
  523MOL0     C70527   4.435   3.007   3.138 -0.4529 -0.2520 -1.2621
  523MOL0     O70528   4.301   3.042   3.131  0.2740  0.5287 -0.2291
  523MOL0     C70529   4.231   2.973   3.031  0.1292  0.3013  0.5263
  523MOL0     C70530   4.123   3.068   2.979 -0.8853 -0.2441  0.4982
  523MOL0     C70531   3.995   3.072   3.061  0.6587  0.1119 -0.7094
  523MOL0     C70532   3.884   3.172   3.009 -0.6059  0.4867  0.1493
  523MOL0     C70533   3.858   3.149   2.872  0.3627  0.0548  0.4695
  523MOL0     C70534   3.846   3.127   2.752 -0.6257 -0.5442  0.0937
  523MOL0     C70535   4.514   2.912   3.063  0.9997 -0.1687 -0.1931
  523MOL0     C70536   4.643   2.881   3.096 -0.6624 -0.0518  1.6077
  523MOL0     C70537   4.710   2.779   2.996 -0.2086  0.6654 -0.0642
  523MOL0     H70538   5.012   2.817   3.541 -1.7761  0.8597 -1.1073
  523MOL0     H70539   5.238   2.846   3.621  2.4464  0.5945 -0.2130
  523MOL0     H70540   5.502   2.852   3.461 -1.6798  0.7621  1.1072
  523MOL0     H70541   5.493   2.987   3.337 -2.4086  0.6359 -0.3837
  523MOL0     H70542   5.719   2.958   3.429 -1.6486 -0.7695 -2.0609
  523MOL0     H70543   5.681   2.999   3.594  2.6951 -0.0747 -0.7466
  523MOL0     H70544   5.550   3.212   3.455  0.0943  0.2219 -3.4787
  523MOL0     H70545   5.700   3.196   3.364  1.2284 -1.7381 -0.0504
  523MOL0     H70546   5.719   3.339   3.557  1.4003  0.0546 -3.1271
  523MOL0     H70547   5.729   3.196   3.660  2.1837 -2.2968 -0.5626
  523MOL0     H70548   5.926   3.125   3.521  0.7447  0.8432 -4.5059
  523MOL0     H70549   5.913   3.271   3.429 -3.0551 -2.0041 -1.0338
  523MOL0     H70550   5.939   3.254   3.731  1.2453 -3.7420 -1.6399
  523MOL0     H70551   6.081   3.269   3.628 -0.0650  0.6808  0.7455
  523MOL0     H70552   5.852   3.457   3.691  0.3667 -2.3219  0.6644
  523MOL0     H70553   5.950   3.483   3.541  0.8794  2.1438 -0.0757
  523MOL0     H70554   6.027   3.580   3.805 -0.6634  1.1627 -1.2094
  523MOL0     H70555   6.100   3.421   3.809 -0.8966  0.2916  0.4749
  523MOL0     H70556   6.112   3.741   3.597 -1.2127 -0.5207  0.8772
  523MOL0     H70557   6.347   3.887   3.521  0.3308 -0.5669 -1.3368
  523MOL0     H70558   6.464   3.815   3.630  1.5291  2.1014 -0.7019
  523MOL0     H70559   6.550   3.659   3.454  1.9326  1.2732 -1.6901
  523MOL0     H70560   6.423   3.716   3.339 -2.4788  0.9635  1.4508
  523MOL0     H70561   6.679   3.862   3.434  4.2390 -0.5331 -4.7106
  523MOL0     H70562   6.536   3.942   3.389 -0.9521 -1.1841 -1.4176
  523MOL0     H70563   6.552   3.768   3.193  0.7644 -4.1634  2.2039
  523MOL0     H70564   6.707   3.712   3.241 -3.0311 -1.9978  0.2875
  523MOL0     H70565   6.891   3.829   3.363  0.3797 -0.6472  0.6252
  523MOL0     H70566   7.129   3.937   3.378 -0.2286 -1.7173  0.1302
  523MOL0     H70567   7.552   3.932   3.180  2.2691  0.3210 -0.5319
  523MOL0     H70568   7.773   4.011   3.194  1.9044  2.0942 -0.5668
  523MOL0     H70569   7.964   4.058   3.293  0.6422  0.0943 -1.7446
  523MOL0     H70570   7.940   4.167   3.166  2.7656 -1.0587 -0.2168
  523MOL0     H70571   8.163   4.161   3.271  0.1505 -0.7347  1.0800
  523MOL0     H70572   8.101   4.321   3.285 -2.2161  0.3174 -1.0119
  523MOL0     H70573   8.024   4.287   3.518 -1.7725  1.0793 -3.1153
  523MOL0     H70574   8.098   4.124   3.525 -0.8696 -0.2511  0.7086
  523MOL0     H70575   8.228   4.304   3.620 -2.8719  3.9847  0.8669
  523MOL0     H70576   8.227   4.408   3.483 -1.7162  0.9511  2.2322
  523MOL0     H70577   8.361   4.207   3.361  0.1289  1.0967 -0.1776
  523MOL0     H70578   8.379   4.146   3.526 -0.1795  0.5991  0.8542
  523MOL0     H70579   8.489   4.419   3.412  2.4454  1.1832  1.4718
  523MOL0     H70580   8.462   4.375   3.587  0.0126  1.8416 -0.7384
  523MOL0     H70581   8.603   4.194   3.383 -0.1317 -0.1011  0.5478
  523MOL0     H70582   8.607   4.175   3.542  1.0158 -2.7143 -2.4891
  523MOL0     H70583   8.727   4.451   3.453  2.0759  0.2031  0.3106
  523MOL0     H70584   8.735   4.337   3.599  0.5169 -0.1461  0.1630
  523MOL0     H70585   7.647   4.337   3.448 -2.4441  1.7355 -0.7663
  523MOL0     H70586   7.411   4.244   3.435  1.2558  1.2922  2.1807
  523MOL0     H70587   7.082   4.099   2.990 -0.8415  1.3198  0.0512
  523MOL0     H70588   6.830   4.057   3.011  2.3165 -0.6147 -1.1222
  523MOL0     H70589   5.293   3.176   3.341  0.6403  0.1243  0.4066
  523MOL0     H70590   5.069   3.154   3.277 -0.8193 -1.2364 -0.1184
  523MOL0     H70591   4.670   3.078   3.374 -0.1012 -1.8133  1.1325
  523MOL0     H70592   4.433   3.114   3.327  0.4095 -0.0697 -0.8923
  523MOL0     H70593   4.185   2.876   3.055 -1.6264  1.2476  1.1816
  523MOL0     H70594   4.289   2.969   2.938  2.4622 -2.8058  1.9140
  523MOL0     H70595   4.108   3.045   2.873  1.5301  1.3136 -0.2651
  523MOL0     H70596   4.170   3.166   2.984  0.2647 -0.6827 -1.0468
  523MOL0     H70597   4.010   3.107   3.164 -1.7231  0.6499 -0.4653
  523MOL0     H70598   3.953   2.971   3.056  0.7381 -0.1525  2.1679
  523MOL0     H70599   3.791   3.164   3.066 -2.0820 -1.5220 -2.2969
  523MOL0     H70600   3.906   3.279   3.018 -3.3568  1.1030  0.5522
  523MOL0     H70601   3.846   3.127   2.645  0.5268  0.0104  0.0734
  523MOL0     H70602   4.470   2.872   2.972 -0.4731 -0.1053  0.4575
  523MOL0     H70603   4.766   2.837   2.922  0.5507  0.4662  0.3416
  523MOL0     H70604   4.767   2.703   3.050  1.6988  1.4869 -0.8334
  523MOL0     H70605   4.629   2.724   2.949  1.4430 -0.8023 -1.2888
  524MOL0     O70606   4.462   4.084   3.363  1.2436  0.3557  0.8036
  524MOL0     C70607   4.550   4.007   3.397 -0.0559 -0.6336 -0.6996
  524MOL0     O70608   4.524   3.888   3.461 -0.6140 -0.0826 -0.3358
  524MOL0     C70609   4.403   3.864   3.508 -0.4453  0.6991  0.0829
  524MOL0     C70610   4.328   3.788   3.420  0.4000 -0.3908 -0.5185
  524MOL0     C70611   4.202   3.730   3.459 -0.1530 -0.1296 -0.0200
  524MOL0     C70612   4.153   3.749   3.587  0.7105  0.0874 -0.1833
  524MOL0     O70613   4.040   3.697   3.639 -0.1151  0.4480 -0.6879
  524MOL0     C70614   3.918   3.718   3.566  0.3868 -0.5308 -0.7643
  524MOL0     C70615   3.871   3.859   3.531 -0.6998 -0.1582 -0.0072
  524MOL0     C70616   3.855   3.949   3.653  0.6300  0.3614  0.2646
  524MOL0     C70617   3.748   3.918   3.760  0.1018  0.8136 -0.3017
  524MOL0     C70618   3.607   3.952   3.702  0.2604  1.2945  0.2361
  524MOL0     C70619   3.483   3.913   3.794 -0.6954 -0.4488  0.3951
  524MOL0     C70620   3.345   3.957   3.734  0.2153  1.2495  0.0363
  524MOL0     C70621   3.233   3.962   3.848  0.1999 -1.0473  0.2001
  524MOL0     N70622   3.133   3.859   3.812 -0.6573 -0.2482  0.0659
  524MOL0     C70623   3.024   3.880   3.724 -0.7821  0.9854 -0.1013
  524MOL0     C70624   2.977   3.750   3.698 -0.3531 -0.2686  0.4580
  524MOL0     C70625   2.855   3.718   3.612 -0.7580 -0.1396  0.0495
  524MOL0     C70626   2.895   3.653   3.474  0.4029  0.5502 -0.3921
  524MOL0     C70627   2.935   3.507   3.464 -0.6407  0.5134  0.2121
  524MOL0     C70628   2.927   3.439   3.323 -0.6196 -0.6123  0.3808
  524MOL0     O70629   2.998   3.528   3.237  0.3559  1.0278  0.0830
  524MOL0     C70630   3.134   3.502   3.234  0.1530 -0.2473  0.1134
  524MOL0     C70631   3.227   3.603   3.270  0.6565  1.0331 -0.0552
  524MOL0     C70632   3.358   3.591   3.258 -0.6353  0.2148 -0.2556
  524MOL0     C70633   3.408   3.472   3.203  1.0411 -0.2159 -0.2714
  524MOL0     C70634   3.551   3.441   3.194 -0.0132 -0.6862  0.0786
  524MOL0     O70635   3.630   3.514   3.274 -0.0299 -0.3890  0.0684
  524MOL0     C70636   3.768   3.505   3.252 -0.2672 -0.3297  0.7573
  524MOL0     C70637   3.850   3.432   3.341 -0.1363 -0.1736  0.0293
  524MOL0     C70638   3.984   3.414   3.305  0.6589  0.6934 -0.2574
  524MOL0     C70639   4.045   3.484   3.196 -0.1535 -0.3326 -0.4733
  524MOL0     O70640   4.176   3.466   3.150  0.1925 -0.1621 -0.8227
  524MOL0     C70641   4.273   3.414   3.238  0.7785 -0.0060 -0.8016
  524MOL0     C70642   4.407   3.381   3.190  0.2562  0.1354  0.4991
  524MOL0     C70643   4.489   3.510   3.152  0.9168 -0.4661  0.4690
  524MOL0     C70644   4.457   3.561   3.009  0.6000  0.6109 -0.0522
  524MOL0     C70645   4.541   3.697   2.968 -0.0556  1.1902 -0.6872
  524MOL0     C70646   4.501   3.819   3.059 -0.0945  0.1400  0.0078
  524MOL0     C70647   4.545   3.971   3.017 -0.6228  0.4902 -0.7514
  524MOL0     C70648   4.699   3.979   3.033 -0.1818 -0.4752 -0.6404
  524MOL0    Cl70649   4.806   3.873   2.922  0.4142  0.1271 -0.2794
  524MOL0     C70650   3.968   3.567   3.118 -0.1637  0.0942  0.4065
  524MOL0     C70651   3.835   3.580   3.155 -0.6862  0.1969  0.5321
  524MOL0     O70652   3.589   3.355   3.115  0.3819 -0.2369  0.3011
  524MOL0     C70653   3.312   3.377   3.157  0.5224  0.1446  0.2861
  524MOL0     C70654   3.178   3.386   3.169  0.2709  0.0501  0.0185
  524MOL0     N70655   3.060   3.661   3.755  0.4713  0.1181  0.3047
  524MOL0     N70656   3.154   3.728   3.824  0.5651 -0.3340  0.5010
  524MOL0     C70657   4.230   3.832   3.673  0.0088  0.4542 -0.1548
  524MOL0     C70658   4.354   3.882   3.638 -0.3044 -1.5001  0.3054
  524MOL0     C70659   4.689   4.050   3.374 -0.1365  0.1575  0.5931
  524MOL0     C70660   4.716   4.171   3.306 -0.1265 -0.5909  0.6326
  524MOL0     C70661   4.845   4.215   3.274 -0.5065 -0.0943  0.9593
  524MOL0     C70662   4.960   4.137   3.296 -0.2050  0.5124  0.1025
  524MOL0     O70663   5.081   4.175   3.243 -0.0744 -0.0638 -0.1742
  524MOL0     C70664   5.171   4.073   3.199  1.3102 -0.1477  0.0938
  524MOL0     C70665   5.273   4.122   3.105 -0.7586  0.7273 -0.5541
  524MOL0     C70666   5.357   4.229   3.172 -0.0903  0.0364  0.4747
  524MOL0     C70667   5.431   4.310   3.066  0.1791 -1.3096  0.4403
  524MOL0     C70668   5.540   4.246   2.985 -0.6427  0.4331  0.1497
  524MOL0     C70669   5.623   4.202   2.897  0.7693 -0.1353  0.3871
  524MOL0     C70670   4.937   4.019   3.360 -0.0507  0.1654  0.0247
  524MOL0     C70671   4.809   3.979   3.415  0.4861  0.6732 -0.2870
  524MOL0     C70672   4.816   3.869   3.524 -0.0173  0.5280 -1.1853
  524MOL0     H70673   4.366   3.777   3.319  0.9817  0.1682 -0.3677
  524MOL0     H70674   4.145   3.682   3.380 -1.9511  2.4955 -0.4564
  524MOL0     H70675   3.923   3.664   3.471  1.8082 -1.1123 -0.3901
  524MOL0     H70676   3.847   3.661   3.625 -1.0163  0.7209 -1.1702
  524MOL0     H70677   3.781   3.861   3.469 -0.6940  1.5088 -0.0091
  524MOL0     H70678   3.951   3.905   3.472 -2.9541  1.8779 -1.7297
  524MOL0     H70679   3.837   4.049   3.611 -0.6160 -0.3298 -0.9451
  524MOL0     H70680   3.952   3.951   3.704 -0.3611  0.2725  2.2460
  524MOL0     H70681   3.751   3.812   3.788 -2.1424  0.4625 -1.1940
  524MOL0     H70682   3.774   3.974   3.849 -3.1292  0.4412  1.0092
  524MOL0     H70683   3.600   4.052   3.658  0.4345  0.5192 -1.6743
  524MOL0     H70684   3.603   3.891   3.611 -2.5362  3.3979 -1.2132
  524MOL0     H70685   3.488   3.805   3.811 -2.1314 -0.2203  2.9039
  524MOL0     H70686   3.493   3.959   3.893 -3.5492  1.0775  0.0834
  524MOL0     H70687   3.320   3.905   3.641  1.8961  2.8640 -1.3857
  524MOL0     H70688   3.360   4.062   3.708  1.4927  0.8647 -0.8428
  524MOL0     H70689   3.286   3.946   3.942  1.0071  1.7878  0.3089
  524MOL0     H70690   3.178   4.057   3.843  0.9012 -0.6941 -3.2751
  524MOL0     H70691   2.987   3.964   3.666 -0.2178 -0.4669 -2.6991
  524MOL0     H70692   2.779   3.664   3.668 -2.3375  1.4354 -0.4914
  524MOL0     H70693   2.806   3.810   3.579  0.0905  0.1805 -0.3446
  524MOL0     H70694   2.804   3.645   3.414 -1.8492  0.8048  2.7221
  524MOL0     H70695   2.964   3.717   3.419  2.9588 -2.0455 -0.4498
  524MOL0     H70696   2.871   3.439   3.522 -2.0421  1.0297 -0.6751
  524MOL0     H70697   3.036   3.500   3.504  0.5721 -3.3888 -2.9023
  524MOL0     H70698   2.824   3.446   3.286 -0.6878  3.5323  0.7999
  524MOL0     H70699   2.969   3.339   3.333 -0.3755 -0.4943  0.5654
  524MOL0     H70700   3.191   3.694   3.317  0.9335  1.5572 -0.8321
  524MOL0     H70701   3.424   3.669   3.296  0.5254 -1.7094  1.9015
  524MOL0     H70702   3.816   3.378   3.429  2.9988  1.7922  2.7137
  524MOL0     H70703   4.039   3.344   3.367 -0.1998 -1.0706 -1.3922
  524MOL0     H70704   4.291   3.472   3.329  1.6351 -0.1910 -0.8514
  524MOL0     H70705   4.235   3.314   3.263 -0.4484  0.4751 -0.6601
  524MOL0     H70706   4.447   3.332   3.279  0.9759  1.5238  0.9705
  524MOL0     H70707   4.406   3.317   3.101  0.6069  0.1483  0.4865
  524MOL0     H70708   4.462   3.590   3.222  0.9546 -1.6409  1.8737
  524MOL0     H70709   4.598   3.501   3.159  1.1707  1.1192 -0.9865
  524MOL0     H70710   4.354   3.598   3.010  1.0101  1.8427  1.2776
  524MOL0     H70711   4.471   3.483   2.934 -1.6169 -0.7641  0.8740
  524MOL0     H70712   4.517   3.719   2.864 -3.3397 -0.6417 -0.4574
  524MOL0     H70713   4.649   3.684   2.976 -0.3205 -1.5836 -0.3144
  524MOL0     H70714   4.392   3.822   3.070 -0.1724  0.7566 -0.8412
  524MOL0     H70715   4.548   3.790   3.154 -0.4348 -1.8185 -0.3716
  524MOL0     H70716   4.491   4.047   3.074  1.4718  3.0829 -1.9954
  524MOL0     H70717   4.519   4.002   2.915 -1.6475  0.7507 -0.4228
  524MOL0     H70718   4.747   4.077   3.043 -0.2338 -0.6429  2.0075
  524MOL0     H70719   4.714   3.945   3.136  0.0020 -0.8762 -0.7974
  524MOL0     H70720   4.016   3.626   3.040  1.2095 -1.0897  0.3304
  524MOL0     H70721   3.781   3.650   3.092  2.1537 -0.2564 -2.6833
  524MOL0     H70722   3.361   3.294   3.106 -0.7300  0.2164 -1.1099
  524MOL0     H70723   3.108   3.313   3.129 -3.9897  2.6260  1.9425
  524MOL0     H70724   4.209   3.841   3.779  1.8114 -0.4086  0.3179
  524MOL0     H70725   4.407   3.949   3.705 -1.8333  1.7137 -1.4973
  524MOL0     H70726   4.643   4.244   3.272 -0.8881 -1.1022  1.1554
  524MOL0     H70727   4.850   4.312   3.227 -2.3688  0.4757  1.8154
  524MOL0     H70728   5.105   3.993   3.166  0.5206  0.5259 -0.0009
  524MOL0     H70729   5.222   4.026   3.284  0.2843  0.1874  0.9181
  524MOL0     H70730   5.223   4.164   3.018  0.9942 -0.2047 -2.0692
  524MOL0     H70731   5.344   4.043   3.079  0.6166 -0.3990  5.1662
  524MOL0     H70732   5.429   4.188   3.243  1.9541 -0.6260 -1.8500
  524MOL0     H70733   5.290   4.299   3.224 -1.0985 -0.6250  0.0995
  524MOL0     H70734   5.352   4.354   3.005  1.4600  1.5303  0.6808
  524MOL0     H70735   5.483   4.394   3.112 -0.5651  0.9322 -2.5242
  524MOL0     H70736   5.686   4.173   2.815 -1.5764 -0.1710 -1.5066
  524MOL0     H70737   5.022   3.956   3.382 -1.9322 -2.2278  0.7909
  524MOL0     H70738   4.747   3.882   3.607  1.5292  0.6038  0.1355
  524MOL0     H70739   4.801   3.771   3.478 -0.4499 -1.0944  2.1715
  524MOL0     H70740   4.913   3.862   3.575 -0.9937 -0.4179  0.5991
  525MOL0     O70741  11.018   5.814   1.116  0.3077  0.3501 -0.2139
  525MOL0     C70742  10.954   5.766   1.209  0.1781 -0.2816  1.1429
  525MOL0     O70743  11.001   5.708   1.316 -0.0949  0.1855 -0.2240
  525MOL0     C70744  11.137   5.723   1.326 -0.1451 -0.1843 -0.1554
  525MOL0     C70745  11.214   5.611   1.280  0.9266 -0.5646 -0.4700
  525MOL0     C70746  11.354   5.619   1.273 -1.4008 -0.2707  0.0672
  525MOL0     C70747  11.425   5.729   1.319  0.2267 -0.5184  0.0470
  525MOL0     O70748  11.563   5.725   1.305  0.0114 -0.0533 -0.2100
  525MOL0     C70749  11.649   5.807   1.390  0.5345 -0.8840 -0.6056
  525MOL0     C70750  11.785   5.743   1.412 -0.5426  0.1402 -0.0430
  525MOL0     C70751  11.792   5.613   1.496  0.2265 -0.0609 -0.3116
  525MOL0     C70752  11.912   5.609   1.596 -0.0883  0.0926 -0.2146
  525MOL0     C70753  12.048   5.610   1.521 -0.0475 -0.0940  0.4455
  525MOL0     C70754  12.167   5.626   1.622  0.0410 -0.1756  0.9257
  525MOL0     C70755  12.295   5.548   1.604  1.1434  0.8971 -0.6959
  525MOL0     C70756  12.337   5.549   1.455 -0.1273  0.4745  0.5442
  525MOL0     N70757  12.485   5.532   1.457 -0.1843  0.5661 -0.1511
  525MOL0     C70758  12.551   5.419   1.502  0.1206  0.2066  0.1527
  525MOL0     C70759  12.683   5.452   1.501  0.5193 -0.7867  0.2414
  525MOL0     C70760  12.799   5.361   1.537 -0.3182 -0.3853  0.4016
  525MOL0     C70761  12.818   5.246   1.442  0.8853  0.1326  0.5277
  525MOL0     C70762  12.850   5.308   1.307 -0.6518  0.6196 -0.0388
  525MOL0     C70763  12.892   5.206   1.205  0.1728  0.1357 -0.6001
  525MOL0     O70764  13.027   5.157   1.229  0.4069 -0.4150 -0.9834
  525MOL0     C70765  13.083   5.067   1.142 -0.8203 -0.0802 -1.0764
  525MOL0     C70766  13.219   5.037   1.175  0.0994  0.7186 -0.9280
  525MOL0     C70767  13.282   4.925   1.114 -0.4300 -0.2175  1.2266
  525MOL0     C70768  13.220   4.857   1.008  0.1715  0.3020  0.6496
  525MOL0     C70769  13.287   4.741   0.959 -0.3686  0.4677  0.8250
  525MOL0     O70770  13.404   4.721   1.022  0.0373  0.4695 -0.1851
  525MOL0     C70771  13.483   4.613   0.987 -0.7877  0.0140  0.0720
  525MOL0     C70772  13.498   4.497   1.069 -0.3522 -0.1675 -0.3190
  525MOL0     C70773  13.589   4.394   1.032 -0.5200 -0.1578  1.0955
  525MOL0     C70774  13.657   4.395   0.907 -0.5100  1.0858 -0.5550
  525MOL0     O70775  13.749   4.306   0.858  0.5345  0.5624  0.2488
  525MOL0     C70776  13.736   4.168   0.887 -0.6573  0.7374 -0.8197
  525MOL0     C70777  13.812   4.080   0.779 -0.0259  0.1617 -0.4513
  525MOL0     C70778  13.958   4.039   0.809 -0.7392  0.5172 -0.1318
  525MOL0     C70779  14.011   3.941   0.705 -1.0591 -0.0754  0.2250
  525MOL0     C70780  14.164   3.923   0.714  0.4553  0.4514  0.3662
  525MOL0     C70781  14.210   3.859   0.583 -0.1016  1.4302  0.2106
  525MOL0     C70782  14.361   3.861   0.573 -0.7954 -0.6817 -0.4415
  525MOL0     C70783  14.417   3.753   0.478 -0.7959  0.7558  0.3880
  525MOL0    Cl70784  14.409   3.599   0.568 -0.1052 -0.4352 -0.0154
  525MOL0     C70785  13.639   4.511   0.832 -0.4275  0.1343  0.3437
  525MOL0     C70786  13.553   4.618   0.868 -0.1766 -0.5437  0.2213
  525MOL0     O70787  13.241   4.673   0.869 -0.1252 -0.1161 -0.3352
  525MOL0     C70788  13.088   4.898   0.969  0.2238 -1.0288 -0.0804
  525MOL0     C70789  13.022   5.002   1.037 -1.2694 -1.0672 -0.0445
  525MOL0     N70790  12.693   5.590   1.463  0.0819  0.2206 -0.6842
  525MOL0     N70791  12.575   5.632   1.437 -0.3538 -1.0125 -0.1960
  525MOL0     C70792  11.354   5.833   1.368  0.1983  1.0474 -0.0108
  525MOL0     C70793  11.212   5.830   1.378 -0.0386 -0.1586 -0.7295
  525MOL0     C70794  10.800   5.758   1.194 -0.9136 -0.0190  0.5614
  525MOL0     C70795  10.722   5.763   1.315  1.0798  0.5224 -0.2320
  525MOL0     C70796  10.586   5.752   1.307  1.5339  0.4563  0.5875
  525MOL0     C70797  10.527   5.727   1.179 -0.2941 -0.0241  0.5039
  525MOL0     O70798  10.392   5.720   1.176  0.4464 -0.1755  0.3940
  525MOL0     C70799  10.341   5.583   1.203 -0.6788  0.7169  0.0519
  525MOL0     C70800  10.188   5.597   1.196  0.5916  0.0346  0.0776
  525MOL0     C70801  10.146   5.648   1.052  0.8605  0.1030  0.3528
  525MOL0     C70802  10.201   5.586   0.928  0.1565  0.1559  0.2224
  525MOL0     C70803  10.198   5.436   0.929 -0.3536 -0.3574  0.0059
  525MOL0     C70804  10.175   5.322   0.914  0.3697 -0.0861 -0.3856
  525MOL0     C70805  10.603   5.723   1.059  0.2142  0.3618  0.2631
  525MOL0     C70806  10.744   5.727   1.071 -0.1051  0.2778  1.0454
  525MOL0     C70807  10.826   5.705   0.947 -0.2150  0.4193 -0.4201
  525MOL0     H70808  11.151   5.529   1.247  0.4470 -1.0013  1.4230
  525MOL0     H70809  11.414   5.532   1.249 -1.3769 -1.8682  4.7744
  525MOL0     H70810  11.656   5.896   1.325 -1.8400 -0.9601 -1.0428
  525MOL0     H70811  11.613   5.837   1.489  1.8230 -0.4462 -0.2498
  525MOL0     H70812  11.836   5.822   1.469  0.9733  0.6694 -2.0168
  525MOL0     H70813  11.836   5.729   1.317  1.8477 -1.4280  1.3784
  525MOL0     H70814  11.790   5.536   1.418  1.9370  0.8423 -1.2959
  525MOL0     H70815  11.712   5.601   1.570  0.9587 -2.1451  0.1905
  525MOL0     H70816  11.913   5.693   1.666 -0.0315 -0.7080  0.7738
  525MOL0     H70817  11.901   5.520   1.658 -2.6304  0.5949  0.1623
  525MOL0     H70818  12.039   5.513   1.471  0.0807 -0.7062  1.5764
  525MOL0     H70819  12.062   5.678   1.437  0.5953 -0.1000  0.5398
  525MOL0     H70820  12.188   5.732   1.633 -4.9828  1.1880  0.2184
  525MOL0     H70821  12.137   5.588   1.720 -0.7627  1.1447  1.2065
  525MOL0     H70822  12.272   5.447   1.638 -3.2505  1.7781 -0.4848
  525MOL0     H70823  12.367   5.597   1.670  0.4165  0.8061  0.1808
  525MOL0     H70824  12.294   5.474   1.388 -0.3876  2.3875 -1.5516
  525MOL0     H70825  12.311   5.647   1.414 -0.4628  0.3653  0.4962
  525MOL0     H70826  12.502   5.327   1.532  2.3139 -1.2376 -0.4602
  525MOL0     H70827  12.890   5.418   1.560 -0.1263 -0.2928 -0.5683
  525MOL0     H70828  12.780   5.313   1.634  4.0123  0.2560  1.7990
  525MOL0     H70829  12.897   5.185   1.487  1.0258 -0.9456 -1.1059
  525MOL0     H70830  12.731   5.181   1.438 -0.5172  1.9731 -0.4742
  525MOL0     H70831  12.930   5.382   1.311 -1.2574  1.2452  0.9603
  525MOL0     H70832  12.757   5.348   1.264 -0.4015 -0.2196 -1.4377
  525MOL0     H70833  12.879   5.245   1.104  2.1176  2.9464  0.1162
  525MOL0     H70834  12.824   5.122   1.218  2.5805 -1.7173  0.8928
  525MOL0     H70835  13.268   5.100   1.248  1.1266 -0.7045 -0.3200
  525MOL0     H70836  13.379   4.899   1.154 -0.6951  0.0392  2.0663
  525MOL0     H70837  13.458   4.492   1.170  1.9000  1.0753  0.6997
  525MOL0     H70838  13.613   4.320   1.107 -1.6167 -0.6777  0.9483
  525MOL0     H70839  13.780   4.145   0.985 -0.3479 -0.3700 -1.2075
  525MOL0     H70840  13.632   4.136   0.898 -0.0561 -1.6541 -1.5546
  525MOL0     H70841  13.754   3.987   0.776 -1.7652  1.2359 -1.2104
  525MOL0     H70842  13.810   4.129   0.681  3.0027  1.7966  0.1739
  525MOL0     H70843  14.023   4.127   0.807 -0.6770  0.5025 -3.4917
  525MOL0     H70844  13.957   3.994   0.909 -0.9835  4.1686  1.6697
  525MOL0     H70845  13.980   3.987   0.612  0.6897 -0.5023 -0.6140
  525MOL0     H70846  13.967   3.841   0.705  2.3791 -1.7788  1.1769
  525MOL0     H70847  14.188   3.877   0.810 -1.1706  2.5953  1.8773
  525MOL0     H70848  14.188   4.028   0.729 -1.3255  1.1438 -1.1490
  525MOL0     H70849  14.165   3.760   0.570  0.5697  1.3951 -2.4119
  525MOL0     H70850  14.186   3.914   0.492  1.5599  0.4645 -0.8616
  525MOL0     H70851  14.410   3.852   0.671  0.0074  1.3072 -0.6075
  525MOL0     H70852  14.398   3.951   0.522 -2.9500  0.3692 -0.2693
  525MOL0     H70853  14.360   3.736   0.387  0.6539  2.2679 -0.8528
  525MOL0     H70854  14.522   3.780   0.463 -0.4230 -0.9148 -0.2163
  525MOL0     H70855  13.690   4.509   0.737 -2.3051 -1.2795 -0.7117
  525MOL0     H70856  13.550   4.704   0.803 -0.1134 -1.0113 -0.4127
  525MOL0     H70857  13.030   4.849   0.891 -0.2038  1.2157 -1.2376
  525MOL0     H70858  12.918   5.026   1.019 -0.6991  2.9253  1.1433
  525MOL0     H70859  11.412   5.917   1.406  1.6179 -0.5868  1.5897
  525MOL0     H70860  11.166   5.909   1.437  2.1085  0.0681  0.7161
  525MOL0     H70861  10.763   5.771   1.415 -1.0991  0.2498  0.7465
  525MOL0     H70862  10.519   5.743   1.392 -0.2152 -1.1713 -0.8981
  525MOL0     H70863  10.363   5.554   1.306  0.9984  0.5959 -0.3012
  525MOL0     H70864  10.379   5.516   1.126  0.4406  1.6728 -0.2624
  525MOL0     H70865  10.143   5.656   1.276 -1.8255 -0.3803 -0.8981
  525MOL0     H70866  10.132   5.503   1.205  0.5932 -0.1738 -1.7431
  525MOL0     H70867  10.169   5.754   1.055  0.4953  0.1638  2.0464
  525MOL0     H70868  10.038   5.630   1.061  1.0921 -0.3324  3.4602
  525MOL0     H70869  10.139   5.619   0.844 -2.0066 -0.8481  1.3424
  525MOL0     H70870  10.309   5.601   0.918  0.4170 -1.0012  0.9988
  525MOL0     H70871  10.151   5.219   0.894 -1.3227 -0.5972  3.4131
  525MOL0     H70872  10.552   5.720   0.963 -0.8358 -0.4401  0.8194
  525MOL0     H70873  10.776   5.628   0.887  1.2742  0.5943 -1.9645
  525MOL0     H70874  10.841   5.805   0.907 -1.1031  0.7319 -0.0012
  525MOL0     H70875  10.923   5.662   0.974 -2.0033 -1.2354  4.3423
  526MOL0     O70876   0.166  10.088  11.105 -0.2279  0.4308  0.1609
  526MOL0     C70877   0.123  10.082  10.996 -0.6070  0.0745  1.0918
  526MOL0     O70878   0.202  10.038  10.891 -0.5525  0.2104  0.5934
  526MOL0     C70879   0.323   9.987  10.914 -1.1489 -0.1964  0.0263
  526MOL0     C70880   0.419  10.014  10.818  0.2915  0.0592  0.3851
  526MOL0     C70881   0.541   9.961  10.814  0.9565  0.1748 -1.3316
  526MOL0     C70882   0.571   9.868  10.909 -0.6242 -0.7794 -0.0054
  526MOL0     O70883   0.692   9.804  10.919 -0.7559 -0.4016  0.6126
  526MOL0     C70884   0.771   9.795  10.794  0.6540 -0.4019 -0.9206
  526MOL0     C70885   0.904   9.714  10.815 -0.0869  0.7868  0.9332
  526MOL0     C70886   0.985   9.739  10.952 -1.0859 -0.2518 -0.0394
  526MOL0     C70887   1.114   9.656  10.943 -0.1824 -0.1709 -0.3424
  526MOL0     C70888   1.239   9.737  10.889 -0.0240  0.0952  0.1399
  526MOL0     C70889   1.372   9.666  10.894 -0.2471 -0.4708 -0.3886
  526MOL0     C70890   1.466   9.738  10.800 -0.3423 -0.1266  0.7839
  526MOL0     C70891   1.517   9.874  10.854 -0.6084  0.0541 -0.1927
  526MOL0     N70892   1.599   9.867  10.974  0.0594 -0.5886 -0.2793
  526MOL0     C70893   1.728   9.833  10.974  0.3536 -0.7232  0.2465
  526MOL0     C70894   1.774   9.862  11.092  0.6731 -0.6704 -0.7440
  526MOL0     C70895   1.921   9.838  11.134 -0.2201  0.4574 -0.3052
  526MOL0     C70896   1.936   9.761  11.261  0.4346  0.7687 -0.2732
  526MOL0     C70897   2.071   9.760  11.338  0.3088  0.3099  0.2461
  526MOL0     C70898   2.184   9.684  11.267 -0.6788  0.3397 -0.4994
  526MOL0     O70899   2.220   9.761  11.145  0.2080  0.0694 -0.1602
  526MOL0     C70900   2.335   9.725  11.083 -0.5509 -0.9102  0.3753
  526MOL0     C70901   2.335   9.709  10.944  0.1544 -1.5901  0.7678
  526MOL0     C70902   2.441   9.648  10.876 -0.4470 -0.3023  0.6803
  526MOL0     C70903   2.561   9.619  10.952  0.6929 -0.7211  0.3233
  526MOL0     C70904   2.672   9.561  10.879 -0.5437  0.4612  0.8723
  526MOL0     O70905   2.662   9.533  10.741  0.0365 -0.0308  0.0291
  526MOL0     C70906   2.778   9.502  10.662  0.2586  0.6182 -0.5104
  526MOL0     C70907   2.857   9.388  10.706  0.5268 -0.5884  0.0947
  526MOL0     C70908   2.966   9.358  10.635 -0.4439  0.2216  0.0472
  526MOL0     C70909   2.994   9.423  10.515  0.1528  0.0964 -0.3255
  526MOL0     O70910   3.107   9.393  10.447 -0.2663  0.0838  0.3965
  526MOL0     C70911   3.181   9.273  10.477  0.3277 -0.3291 -0.1675
  526MOL0     C70912   3.285   9.257  10.374  0.2839  0.8186  0.5217
  526MOL0     C70913   3.386   9.144  10.411 -0.0259 -0.3890 -0.4317
  526MOL0     C70914   3.478   9.179  10.531  0.5010  0.2191 -0.8367
  526MOL0     C70915   3.600   9.097  10.525  0.1041  0.2696 -0.4329
  526MOL0     C70916   3.701   9.180  10.447  0.3804 -0.3789  0.4051
  526MOL0     C70917   3.838   9.117  10.457  0.5311 -0.6384 -0.6097
  526MOL0     C70918   3.935   9.224  10.431 -0.4614  0.0757  0.3760
  526MOL0    Cl70919   3.935   9.340  10.568  0.3321  0.1956  0.1449
  526MOL0     C70920   2.921   9.532  10.477 -1.3093 -0.1080  0.2344
  526MOL0     C70921   2.808   9.571  10.542  0.2066 -1.1879 -0.4277
  526MOL0     O70922   2.772   9.538  10.945  0.1309 -0.2563  0.2304
  526MOL0     C70923   2.564   9.633  11.089 -0.0323  0.0035  0.3036
  526MOL0     C70924   2.449   9.692  11.155  0.0433 -0.1739  0.0712
  526MOL0     N70925   1.664   9.912  11.168 -0.1084 -0.0384  0.2368
  526MOL0     N70926   1.562   9.911  11.095 -0.2306  0.0364 -0.8826
  526MOL0     C70927   0.482   9.837  11.010 -0.0541  0.0227 -0.7105
  526MOL0     C70928   0.350   9.886  11.004 -0.7480  0.2353 -0.2442
  526MOL0     C70929  -0.019  10.123  10.963  0.1557 -0.4659 -0.5096
  526MOL0     C70930  -0.056  10.101  10.828 -0.3825 -0.2030 -0.2678
  526MOL0     C70931  -0.192  10.120  10.791  1.0989 -0.3653  0.0631
  526MOL0     C70932  -0.290  10.181  10.876 -0.4765  0.8091  0.4556
  526MOL0     O70933  -0.423  10.214  10.845 -0.2416 -0.2371 -0.3809
  526MOL0     C70934  -0.475  10.193  10.711  1.2944  0.4445 -0.1067
  526MOL0     C70935  -0.620  10.230  10.679  0.7070 -0.1906  0.0997
  526MOL0     C70936  -0.717  10.152  10.777 -0.2558 -0.7166  0.5515
  526MOL0     C70937  -0.737  10.217  10.915  0.0027 -0.9658  0.5230
  526MOL0     C70938  -0.797  10.124  11.005  0.4730 -0.2291  0.0482
  526MOL0     C70939  -0.859  10.046  11.077  0.0741  0.0234 -0.3114
  526MOL0     C70940  -0.247  10.217  10.996 -0.3609  0.5930 -0.8852
  526MOL0     C70941  -0.117  10.180  11.044  0.4483  0.2647 -0.8154
  526MOL0     C70942  -0.086  10.205  11.192 -0.5591 -0.2265  0.0719
  526MOL0     H70943   0.390  10.094  10.751  3.8764  2.6053  1.5860
  526MOL0     H70944   0.609   9.993  10.735  1.6156  1.6917 -0.2040
  526MOL0     H70945   0.713   9.740  10.719 -0.8421 -4.6738  2.8731
  526MOL0     H70946   0.809   9.891  10.758  0.4844  0.0979  0.2168
  526MOL0     H70947   0.953   9.742  10.721 -0.0453  2.3340  1.3890
  526MOL0     H70948   0.870   9.610  10.822 -1.6247  1.2767  1.0924
  526MOL0     H70949   0.922   9.711  11.036 -0.0982  1.2120  1.2410
  526MOL0     H70950   1.011   9.845  10.964 -1.1190 -0.0146 -1.8074
  526MOL0     H70951   1.142   9.600  11.033 -0.6645  1.4605  0.8673
  526MOL0     H70952   1.105   9.571  10.874  3.9406 -3.3198  2.4822
  526MOL0     H70953   1.220   9.755  10.783 -1.3155 -1.4787  0.0670
  526MOL0     H70954   1.254   9.828  10.947  4.3595 -1.6172  2.0919
  526MOL0     H70955   1.407   9.669  10.998 -0.3562  0.2151 -0.3698
  526MOL0     H70956   1.350   9.564  10.860  0.6101 -1.3115  1.4374
  526MOL0     H70957   1.418   9.762  10.705 -2.6665 -1.2603  1.5889
  526MOL0     H70958   1.555   9.681  10.771 -0.6249  0.4313 -1.3317
  526MOL0     H70959   1.569   9.937  10.782 -0.1908  0.8714  0.8032
  526MOL0     H70960   1.424   9.925  10.881 -1.1403 -0.2721 -1.3448
  526MOL0     H70961   1.786   9.777  10.901 -1.6497  0.0786 -2.1060
  526MOL0     H70962   1.985   9.789  11.060  4.1508  3.1170  1.3004
  526MOL0     H70963   1.969   9.936  11.144  0.7802 -0.1719  1.2527
  526MOL0     H70964   1.860   9.807  11.326  2.3742 -0.2233  2.9235
  526MOL0     H70965   1.908   9.657  11.239 -3.2205  0.9298  2.4817
  526MOL0     H70966   2.057   9.715  11.436 -4.3374  0.6291 -0.0552
  526MOL0     H70967   2.097   9.865  11.349 -1.6809  0.7707  0.8756
  526MOL0     H70968   2.151   9.581  11.256  0.6370 -0.4356  1.9558
  526MOL0     H70969   2.262   9.690  11.344 -0.4830  0.4707 -0.7064
  526MOL0     H70970   2.236   9.718  10.903  1.0726 -0.0402 -1.2357
  526MOL0     H70971   2.437   9.616  10.773 -0.9859 -2.6880  1.3739
  526MOL0     H70972   2.826   9.331  10.792 -1.2235  0.7787  0.4382
  526MOL0     H70973   3.019   9.267  10.660  2.9920  1.5142 -1.9440
  526MOL0     H70974   3.220   9.292  10.577  2.1128 -1.8883 -0.4965
  526MOL0     H70975   3.128   9.177  10.482 -1.9272  0.8393  5.1993
  526MOL0     H70976   3.234   9.244  10.278  0.4947  0.9434  0.3916
  526MOL0     H70977   3.340   9.352  10.380  1.1807  0.2711  1.2960
  526MOL0     H70978   3.326   9.060  10.447 -2.5869  2.2414  1.9141
  526MOL0     H70979   3.447   9.105  10.328  4.0732  0.1282  2.0444
  526MOL0     H70980   3.431   9.144  10.624  2.2753  2.0086  0.8280
  526MOL0     H70981   3.503   9.284  10.547 -0.1776  0.4650 -1.3495
  526MOL0     H70982   3.578   9.001  10.477 -0.1402  0.5993 -0.9745
  526MOL0     H70983   3.631   9.086  10.630 -0.1604  2.8120 -0.0201
  526MOL0     H70984   3.671   9.189  10.342 -1.7191 -2.3660  0.7778
  526MOL0     H70985   3.702   9.286  10.476 -0.7005  0.2868 -1.7456
  526MOL0     H70986   3.862   9.048  10.376 -0.4233 -0.3890 -1.1224
  526MOL0     H70987   3.849   9.058  10.548 -2.9522 -1.5520 -0.6336
  526MOL0     H70988   4.036   9.185  10.445 -0.1149  1.7752  3.6276
  526MOL0     H70989   3.910   9.264  10.332  1.8100 -0.5353 -0.5015
  526MOL0     H70990   2.944   9.592  10.390  0.8067 -0.7027  0.3233
  526MOL0     H70991   2.753   9.650  10.491  0.9512 -1.6700 -2.0468
  526MOL0     H70992   2.653   9.614  11.148  1.8556  1.4932 -1.8775
  526MOL0     H70993   2.474   9.702  11.260 -1.6712  0.1199  0.4798
  526MOL0     H70994   0.514   9.759  11.077 -1.9835 -2.0938 -2.1065
  526MOL0     H70995   0.276   9.856  11.078 -1.8490  0.9540 -1.0186
  526MOL0     H70996   0.016  10.072  10.752 -2.1834 -1.5439 -1.5437
  526MOL0     H70997  -0.230  10.095  10.692  2.6156 -5.2359  0.4478
  526MOL0     H70998  -0.459  10.086  10.690 -0.4015  0.4049 -1.4679
  526MOL0     H70999  -0.409  10.244  10.640 -0.1407 -0.1058 -1.9228
  526MOL0     H71000  -0.641  10.194  10.578  3.3307 -1.1365 -0.1858
  526MOL0     H71001  -0.633  10.338  10.670  3.1465  0.1787  0.3743
  526MOL0     H71002  -0.684  10.049  10.787 -3.7742 -1.9158  1.4026
  526MOL0     H71003  -0.811  10.147  10.721  2.2868 -0.3955 -4.2079
  526MOL0     H71004  -0.641  10.253  10.952 -0.4961  2.2511 -1.0405
  526MOL0     H71005  -0.796  10.309  10.911  0.3538 -0.7023  1.2181
  526MOL0     H71006  -0.919   9.974  11.130 -2.4896 -0.5920 -3.6736
  526MOL0     H71007  -0.317  10.265  11.064  0.6736 -0.2958  0.8756
  526MOL0     H71008  -0.162  10.269  11.238 -1.2520  0.1502 -1.5191
  526MOL0     H71009  -0.076  10.111  11.248 -0.9563  0.7882  1.9448
  526MOL0     H71010   0.002  10.269  11.198  1.4608 -2.8518  0.5432
  527MOL0     O71011   5.102   8.900   3.480  0.3848  0.1451 -0.4283
  527MOL0     C71012   5.024   8.970   3.421  0.0009  0.3797  0.4561
  527MOL0     O71013   5.055   9.068   3.332 -0.4675  0.1045 -0.4056
  527MOL0     C71014   5.184   9.093   3.300  0.0083 -0.0393  0.3686
  527MOL0     C71015   5.212   9.128   3.170  0.9058  0.6101  0.6317
  527MOL0     C71016   5.338   9.166   3.118 -0.2811 -0.2950 -0.8141
  527MOL0     C71017   5.447   9.178   3.201 -0.3976 -0.3829 -0.2202
  527MOL0     O71018   5.558   9.238   3.152  0.3324 -0.5866  0.1117
  527MOL0     C71019   5.684   9.244   3.224  0.2209 -0.1871  0.5956
  527MOL0     C71020   5.797   9.287   3.134 -0.4748 -1.0529  0.3652
  527MOL0     C71021   5.925   9.311   3.220 -0.8535  0.3190  0.2255
  527MOL0     C71022   6.029   9.209   3.179 -0.2958  0.8089  0.6974
  527MOL0     C71023   6.155   9.227   3.258  1.2381 -0.4359  0.3465
  527MOL0     C71024   6.233   9.366   3.263 -0.4160  0.5080 -0.3203
  527MOL0     C71025   6.365   9.354   3.330  0.1725 -0.0730 -0.6123
  527MOL0     C71026   6.469   9.317   3.233 -0.6989  0.0981 -0.7656
  527MOL0     N71027   6.604   9.321   3.291 -0.1897 -0.4988 -0.4515
  527MOL0     C71028   6.659   9.225   3.367  1.2044 -0.1008  0.1882
  527MOL0     C71029   6.781   9.269   3.387  0.1302 -0.0743 -1.2117
  527MOL0     C71030   6.876   9.195   3.476  0.5370  0.0663  0.1626
  527MOL0     C71031   7.003   9.266   3.519  0.0553 -0.2536  0.5051
  527MOL0     C71032   7.106   9.166   3.565  0.1357  0.5233 -0.8326
  527MOL0     C71033   7.236   9.234   3.579 -0.1746 -0.0883 -0.2462
  527MOL0     O71034   7.331   9.128   3.593 -0.2724 -0.0860 -0.4597
  527MOL0     C71035   7.450   9.162   3.659  0.0838 -1.4046 -0.4443
  527MOL0     C71036   7.549   9.053   3.664  0.2417  0.9015  0.7741
  527MOL0     C71037   7.671   9.070   3.716  0.2490  0.1821  0.7437
  527MOL0     C71038   7.709   9.194   3.783 -0.0126 -0.1358  0.4863
  527MOL0     C71039   7.834   9.209   3.858  0.3512 -0.3749 -0.2933
  527MOL0     O71040   7.928   9.104   3.834  1.2596 -0.1161 -0.6824
  527MOL0     C71041   8.055   9.096   3.884  0.2273  0.3343 -0.3046
  527MOL0     C71042   8.145   9.035   3.805 -0.5677  0.4709  0.1760
  527MOL0     C71043   8.281   9.041   3.835 -0.5279  0.0479  0.4091
  527MOL0     C71044   8.319   9.074   3.967 -0.1793 -0.4049  1.2297
  527MOL0     O71045   8.449   9.088   4.008 -0.5648  0.8442 -0.2377
  527MOL0     C71046   8.560   9.043   3.914 -0.5515 -0.6692 -1.0033
  527MOL0     C71047   8.695   9.055   3.973 -0.2806 -0.8469 -0.4549
  527MOL0     C71048   8.811   9.062   3.874  0.7590  0.0610  0.3790
  527MOL0     C71049   8.937   9.056   3.960 -0.6398  0.2387 -0.2175
  527MOL0     C71050   9.035   9.154   3.903  0.1223 -0.3912  0.4207
  527MOL0     C71051   9.168   9.153   3.985  0.2745  0.0949  1.3203
  527MOL0     C71052   9.271   9.264   3.931 -0.0354  0.1819  0.2509
  527MOL0     C71053   9.392   9.271   4.024  0.5793 -0.5978  0.8871
  527MOL0    Cl71054   9.477   9.117   4.026 -0.2368  0.2371  0.5380
  527MOL0     C71055   8.219   9.122   4.052  0.5691  0.7332  0.1677
  527MOL0     C71056   8.090   9.135   4.011 -0.3733  0.5251 -0.0222
  527MOL0     O71057   7.854   9.311   3.929 -0.3201 -0.1687  0.2715
  527MOL0     C71058   7.612   9.300   3.775 -0.8077 -0.2516  0.0156
  527MOL0     C71059   7.487   9.292   3.708 -0.6410  0.0900 -0.1276
  527MOL0     N71060   6.789   9.399   3.347 -0.2091  0.6306 -0.4722
  527MOL0     N71061   6.685   9.427   3.282  0.2299 -1.1545 -0.1228
  527MOL0     C71062   5.422   9.152   3.335  0.7657  0.3441 -0.4690
  527MOL0     C71063   5.298   9.104   3.386  0.0320  1.1631  0.6502
  527MOL0     C71064   4.870   8.958   3.441 -0.5537 -0.1290 -0.4446
  527MOL0     C71065   4.777   9.043   3.369 -0.2621  0.0213 -0.7552
  527MOL0     C71066   4.644   9.024   3.382 -0.7423  0.2706  0.3370
  527MOL0     C71067   4.594   8.934   3.469 -0.5664  0.1016  0.1242
  527MOL0     O71068   4.462   8.910   3.493  0.8779  0.4204  0.0982
  527MOL0     C71069   4.369   9.014   3.462 -0.9756 -1.1941 -0.0287
  527MOL0     C71070   4.297   9.043   3.593  0.9895 -0.2635 -0.2770
  527MOL0     C71071   4.194   8.925   3.626 -0.5076 -0.3851  0.6266
  527MOL0     C71072   4.121   8.960   3.760  0.3227  0.2776 -0.6253
  527MOL0     C71073   3.997   8.872   3.774  0.6229 -1.1925 -0.0085
  527MOL0     C71074   3.915   8.785   3.794  0.0429 -0.3892  0.6598
  527MOL0     C71075   4.674   8.849   3.533 -0.1808  0.4861  0.2038
  527MOL0     C71076   4.814   8.862   3.531  0.6064  0.1715 -0.2385
  527MOL0     C71077   4.890   8.770   3.623  0.1649  0.7262  0.7707
  527MOL0     H71078   5.122   9.119   3.109  1.5608  0.2090 -0.2971
  527MOL0     H71079   5.340   9.199   3.015 -1.6816 -1.4650 -1.2514
  527MOL0     H71080   5.681   9.323   3.301  0.0912 -0.1087  0.5107
  527MOL0     H71081   5.713   9.150   3.272  1.0712  0.1327  0.7257
  527MOL0     H71082   5.768   9.381   3.085 -2.1450 -1.5340  0.3602
  527MOL0     H71083   5.813   9.210   3.059 -2.5595 -0.5455 -0.6784
  527MOL0     H71084   5.902   9.297   3.326  0.0944 -0.5888  0.3325
  527MOL0     H71085   5.976   9.407   3.213  1.0343 -0.4124  2.3989
  527MOL0     H71086   5.998   9.107   3.202 -1.6991  1.5565  2.4030
  527MOL0     H71087   6.056   9.214   3.073 -0.6723 -1.6823  0.4221
  527MOL0     H71088   6.128   9.191   3.358  2.2108  0.3673  0.9139
  527MOL0     H71089   6.228   9.162   3.210  1.1034  0.9797 -1.9544
  527MOL0     H71090   6.236   9.403   3.160  0.5309  1.7858  0.1324
  527MOL0     H71091   6.174   9.444   3.311 -1.2720  0.3861 -1.1391
  527MOL0     H71092   6.357   9.286   3.415 -2.8663 -2.7286 -2.8136
  527MOL0     H71093   6.402   9.450   3.368  1.3997 -0.7651 -0.0155
  527MOL0     H71094   6.456   9.217   3.189  0.8867 -0.5712  0.2026
  527MOL0     H71095   6.466   9.397   3.158  2.5670  0.2864 -0.8383
  527MOL0     H71096   6.622   9.125   3.391  1.6304 -0.8676 -2.0894
  527MOL0     H71097   6.824   9.158   3.565  0.1414  2.0928  0.8327
  527MOL0     H71098   6.900   9.104   3.420  0.5128 -1.9914  3.2298
  527MOL0     H71099   7.039   9.331   3.438 -0.1084 -0.4191  0.2981
  527MOL0     H71100   6.976   9.337   3.598 -0.0253  0.1701  0.0986
  527MOL0     H71101   7.114   9.091   3.486 -0.4739  3.4060 -3.8581
  527MOL0     H71102   7.089   9.128   3.667  1.0389 -1.6868 -1.4394
  527MOL0     H71103   7.225   9.299   3.666 -2.3348 -1.5373  0.6514
  527MOL0     H71104   7.255   9.292   3.488 -0.5775 -2.6917 -2.1103
  527MOL0     H71105   7.518   8.957   3.624 -0.8178 -0.2849  4.1214
  527MOL0     H71106   7.736   8.984   3.707 -1.0200 -0.6150 -1.7240
  527MOL0     H71107   8.115   8.967   3.725 -1.0645 -2.0860  2.3709
  527MOL0     H71108   8.350   9.012   3.756 -1.0444  2.3052 -0.9683
  527MOL0     H71109   8.551   8.937   3.890  0.6665 -1.3061  1.1570
  527MOL0     H71110   8.569   9.111   3.828  3.3933  1.2070  0.6662
  527MOL0     H71111   8.697   9.139   4.042 -1.7524  0.0465 -1.4356
  527MOL0     H71112   8.705   8.960   4.026  1.7283 -0.4221 -0.0174
  527MOL0     H71113   8.808   8.970   3.816 -2.6024 -0.7181  1.5647
  527MOL0     H71114   8.796   9.156   3.819  0.9320  1.1567  2.1381
  527MOL0     H71115   8.975   8.954   3.977  2.2882  1.3697  0.6284
  527MOL0     H71116   8.921   9.084   4.065  0.0256 -1.4317  0.3658
  527MOL0     H71117   8.993   9.254   3.892 -0.5441 -0.5486  1.3486
  527MOL0     H71118   9.047   9.120   3.799 -1.0092 -1.0283  0.4790
  527MOL0     H71119   9.143   9.180   4.089 -2.1863  2.0798  0.3185
  527MOL0     H71120   9.201   9.049   3.992 -2.2136 -1.0212 -1.6101
  527MOL0     H71121   9.227   9.364   3.942  1.0985  0.4330  3.5413
  527MOL0     H71122   9.300   9.238   3.829  1.2259 -3.0453  1.3235
  527MOL0     H71123   9.456   9.354   3.994 -1.2529  0.9361  1.0042
  527MOL0     H71124   9.370   9.289   4.129 -1.3611  3.4036 -0.0033
  527MOL0     H71125   8.263   9.158   4.145  0.1324 -0.1071  0.7000
  527MOL0     H71126   8.014   9.170   4.081  0.9112 -0.2926  1.8940
  527MOL0     H71127   7.639   9.393   3.823  3.1494 -0.9596 -0.4703
  527MOL0     H71128   7.427   9.381   3.719 -0.5148  0.1291  0.2609
  527MOL0     H71129   5.504   9.167   3.404  0.2140 -0.1064  0.3081
  527MOL0     H71130   5.288   9.083   3.492  0.3249  0.8905  0.6217
  527MOL0     H71131   4.814   9.118   3.299  1.2676  1.0593  1.0661
  527MOL0     H71132   4.592   9.088   3.311 -1.6694 -0.8800 -0.0510
  527MOL0     H71133   4.303   8.978   3.382  0.8201 -0.6952 -1.8375
  527MOL0     H71134   4.424   9.104   3.433 -3.9817  0.4144 -1.2004
  527MOL0     H71135   4.243   9.137   3.579 -0.5708 -0.9870  0.6892
  527MOL0     H71136   4.361   9.063   3.679 -2.7218  3.1188  2.0362
  527MOL0     H71137   4.251   8.834   3.642  1.5334 -0.0107 -3.3258
  527MOL0     H71138   4.121   8.917   3.545  0.9111  0.7205 -0.8342
  527MOL0     H71139   4.180   8.953   3.851  2.2812  1.2943 -1.7330
  527MOL0     H71140   4.094   9.066   3.754  1.5312  0.7932  1.9367
  527MOL0     H71141   3.828   8.726   3.815 -1.6588  1.0923 -1.6636
  527MOL0     H71142   4.629   8.771   3.593  1.4512 -1.0405 -0.4631
  527MOL0     H71143   4.823   8.703   3.677  1.0596 -0.8564  0.0133
  527MOL0     H71144   4.959   8.717   3.556  1.5702  2.4806  0.7403
  527MOL0     H71145   4.949   8.829   3.694 -1.0305  1.9221  0.8151
  528MOL0     O71146   9.202   3.816   0.841 -0.4222  0.1316 -0.3301
  528MOL0     C71147   9.212   3.931   0.889 -0.1915 -0.1326  0.4887
  528MOL0     O71148   9.319   3.985   0.952 -0.4463  0.5167 -0.0748
  528MOL0     C71149   9.426   3.899   0.981 -0.1947  0.4408  0.0896
  528MOL0     C71150   9.458   3.893   1.120 -0.4241  0.4170 -0.0182
  528MOL0     C71151   9.559   3.818   1.176  0.0831  0.8003  0.2158
  528MOL0     C71152   9.647   3.763   1.083  0.3682 -0.8535 -0.0889
  528MOL0     O71153   9.759   3.719   1.139  0.2427  0.0292  0.3939
  528MOL0     C71154   9.740   3.586   1.195 -0.8494 -0.1587 -0.0504
  528MOL0     C71155   9.850   3.483   1.158  0.6039  0.2667 -0.6430
  528MOL0     C71156   9.975   3.488   1.240 -0.5473 -0.9117 -0.2865
  528MOL0     C71157  10.069   3.609   1.192  0.1383 -0.0208 -0.0163
  528MOL0     C71158  10.185   3.633   1.292 -0.5453  0.3810 -0.1573
  528MOL0     C71159  10.284   3.510   1.299 -0.1927 -0.7851 -0.9619
  528MOL0     C71160  10.403   3.528   1.390 -0.5571 -0.6321  0.0491
  528MOL0     C71161  10.503   3.415   1.404 -0.6944 -0.1009 -1.5686
  528MOL0     N71162  10.575   3.378   1.285  0.7086 -0.0842  0.2487
  528MOL0     C71163  10.699   3.421   1.232  0.3345 -0.9563  0.1561
  528MOL0     C71164  10.732   3.342   1.130  0.1096  0.0493  0.5749
  528MOL0     C71165  10.837   3.363   1.020  0.4908  1.0509  0.2434
  528MOL0     C71166  10.983   3.333   1.066  0.3111  0.1532 -0.5494
  528MOL0     C71167  11.070   3.342   0.947  0.6080 -1.1078  0.0058
  528MOL0     C71168  11.204   3.280   0.997  0.9257  0.0068  0.0566
  528MOL0     O71169  11.294   3.303   0.894 -0.3012 -0.4461 -0.1006
  528MOL0     C71170  11.419   3.264   0.900  0.0485 -0.1850 -0.2227
  528MOL0     C71171  11.510   3.293   0.795  0.4485 -0.2841 -0.3285
  528MOL0     C71172  11.647   3.259   0.794 -0.3294  0.0526  0.1649
  528MOL0     C71173  11.693   3.172   0.898 -0.5821 -0.0016  0.7740
  528MOL0     C71174  11.830   3.126   0.907 -0.2320  0.4690  0.7434
  528MOL0     O71175  11.909   3.175   0.799 -1.1820  1.0959 -0.3275
  528MOL0     C71176  12.042   3.126   0.793 -0.4814 -0.5640  0.5586
  528MOL0     C71177  12.126   3.111   0.901  0.7019  0.5420 -0.2843
  528MOL0     C71178  12.255   3.064   0.897 -0.4589 -0.5645 -0.0884
  528MOL0     C71179  12.321   3.044   0.780  0.5867  0.1474  0.9797
  528MOL0     O71180  12.455   3.011   0.772  0.4015 -0.4118  0.2520
  528MOL0     C71181  12.489   2.889   0.701 -0.0508 -0.2394 -0.1409
  528MOL0     C71182  12.637   2.861   0.733 -0.6387  0.5890 -0.5591
  528MOL0     C71183  12.680   2.718   0.674 -0.2035  0.8338 -0.7348
  528MOL0     C71184  12.811   2.683   0.753  0.4094 -0.8167 -0.5514
  528MOL0     C71185  12.875   2.567   0.680  0.5276  0.0097  0.3441
  528MOL0     C71186  12.928   2.603   0.535 -0.2985  0.3233 -0.2707
  528MOL0     C71187  13.001   2.486   0.459 -0.4104 -0.2562 -0.0825
  528MOL0     C71188  13.130   2.437   0.511  0.1546 -0.6329 -0.1148
  528MOL0    Cl71189  13.146   2.264   0.460 -0.1603  0.0978 -0.0094
  528MOL0     C71190  12.243   3.054   0.667 -0.2068 -0.0895 -0.1914
  528MOL0     C71191  12.102   3.096   0.672 -0.0691 -1.2936 -0.3573
  528MOL0     O71192  11.867   3.066   1.004 -0.1158 -0.5925 -0.6089
  528MOL0     C71193  11.603   3.135   0.992 -0.1008  0.0648 -0.5920
  528MOL0     C71194  11.471   3.187   1.002 -0.0802 -0.2914  0.1419
  528MOL0     N71195  10.625   3.270   1.104 -0.8140 -0.9634 -0.2980
  528MOL0     N71196  10.532   3.288   1.194 -0.3353 -0.0273 -1.2839
  528MOL0     C71197   9.623   3.768   0.948 -0.2504  0.7017 -0.6738
  528MOL0     C71198   9.516   3.843   0.891 -0.2831  0.0894 -0.1003
  528MOL0     C71199   9.089   4.013   0.880 -0.9178 -0.5325 -0.8452
  528MOL0     C71200   8.994   3.966   0.794  0.3505  0.4743 -0.5827
  528MOL0     C71201   8.875   4.030   0.769  0.4592 -0.5825 -0.8902
  528MOL0     C71202   8.859   4.157   0.827 -1.3857  0.7084 -1.3075
  528MOL0     O71203   8.747   4.225   0.814  0.2934 -0.1805  0.7463
  528MOL0     C71204   8.638   4.166   0.732  0.1320  0.1740 -0.7740
  528MOL0     C71205   8.668   4.188   0.578 -0.0458  0.5675  0.2876
  528MOL0     C71206   8.629   4.331   0.535  0.1990 -1.0360 -0.6006
  528MOL0     C71207   8.673   4.342   0.388 -0.2712 -0.2848 -1.0645
  528MOL0     C71208   8.574   4.414   0.312 -0.1386  0.0726 -0.2050
  528MOL0     C71209   8.505   4.507   0.271  0.0198  0.2278  0.0397
  528MOL0     C71210   8.965   4.209   0.910  0.1839 -0.4438 -0.8533
  528MOL0     C71211   9.073   4.139   0.944  0.2730  0.1989  1.0203
  528MOL0     C71212   9.162   4.208   1.032  0.2238 -0.1610 -0.5302
  528MOL0     H71213   9.395   3.929   1.201 -1.1378  2.1257 -1.2867
  528MOL0     H71214   9.572   3.819   1.284 -0.3988 -0.3956  0.3058
  528MOL0     H71215   9.733   3.582   1.304  5.6199 -0.7159  0.7616
  528MOL0     H71216   9.645   3.548   1.156 -2.5088  2.5973  1.0046
  528MOL0     H71217   9.872   3.495   1.052  0.3138  0.6568 -0.6623
  528MOL0     H71218   9.808   3.382   1.156 -0.8807  0.8321  0.1422
  528MOL0     H71219  10.027   3.392   1.227 -1.1438 -0.9698 -2.8687
  528MOL0     H71220   9.942   3.508   1.342 -3.1154 -1.4378 -0.9448
  528MOL0     H71221  10.110   3.579   1.095  2.4881 -0.9177  1.1597
  528MOL0     H71222  10.014   3.703   1.196 -0.5024 -0.4227  0.8611
  528MOL0     H71223  10.233   3.726   1.263 -2.9656  0.8410 -3.2139
  528MOL0     H71224  10.155   3.652   1.396  1.1266 -1.0672  0.6520
  528MOL0     H71225  10.228   3.421   1.330 -1.3003  0.6380  1.3191
  528MOL0     H71226  10.319   3.491   1.197  0.1497  1.8811 -1.4166
  528MOL0     H71227  10.360   3.547   1.488  0.2997 -0.4144  0.3892
  528MOL0     H71228  10.458   3.617   1.357 -0.0197 -1.5034 -1.4887
  528MOL0     H71229  10.567   3.431   1.491 -4.5186  4.1704  0.9466
  528MOL0     H71230  10.449   3.324   1.429  1.4183 -0.0869  4.5013
  528MOL0     H71231  10.761   3.504   1.266  0.3323 -1.3144  1.0452
  528MOL0     H71232  10.820   3.299   0.933  1.0365 -2.7001  2.6441
  528MOL0     H71233  10.832   3.468   0.991  2.5300  0.8800 -0.8929
  528MOL0     H71234  11.009   3.408   1.141 -0.1417  0.5117 -0.7485
  528MOL0     H71235  10.981   3.234   1.113 -1.6495 -0.0332 -0.9248
  528MOL0     H71236  11.079   3.446   0.914  2.5804 -0.7290  1.5762
  528MOL0     H71237  11.035   3.288   0.859 -3.6435  0.3658  0.5688
  528MOL0     H71238  11.197   3.173   1.022  0.0210 -0.0447 -0.3677
  528MOL0     H71239  11.237   3.336   1.085 -0.9390 -1.4627  1.7766
  528MOL0     H71240  11.499   3.370   0.720  2.0186  1.3219  0.9967
  528MOL0     H71241  11.708   3.291   0.711  1.2016  1.8571  1.8881
  528MOL0     H71242  12.096   3.123   1.005 -0.1371 -1.5122 -0.2300
  528MOL0     H71243  12.313   3.038   0.984  2.3596  2.0779 -0.9833
  528MOL0     H71244  12.425   2.806   0.732  0.9330 -0.4786  1.3766
  528MOL0     H71245  12.486   2.909   0.593  2.6471  1.1669 -0.0623
  528MOL0     H71246  12.686   2.944   0.681 -1.5791  1.7822  0.4179
  528MOL0     H71247  12.667   2.863   0.838  1.8602  2.9953 -1.1986
  528MOL0     H71248  12.601   2.643   0.676  1.6142 -1.1511 -0.3415
  528MOL0     H71249  12.707   2.725   0.568 -2.5841  0.9324 -1.3999
  528MOL0     H71250  12.788   2.660   0.858 -1.6957  1.0524 -0.5363
  528MOL0     H71251  12.869   2.775   0.746  0.2694 -0.8199 -1.8743
  528MOL0     H71252  12.808   2.481   0.670  0.1882  0.4715 -2.1597
  528MOL0     H71253  12.957   2.532   0.743 -1.4142 -3.3575  1.2481
  528MOL0     H71254  12.849   2.634   0.467  1.3605  0.0929 -2.4166
  528MOL0     H71255  12.998   2.687   0.539  0.4357 -0.2909  2.4814
  528MOL0     H71256  13.024   2.507   0.355 -1.0122 -3.0342 -0.8682
  528MOL0     H71257  12.931   2.404   0.443  0.5012 -0.7456 -1.8536
  528MOL0     H71258  13.218   2.486   0.468 -0.5076  2.2032  1.5625
  528MOL0     H71259  13.139   2.434   0.620  0.6584  1.6194 -0.0449
  528MOL0     H71260  12.276   3.028   0.567 -1.4245 -0.0392 -0.6267
  528MOL0     H71261  12.043   3.109   0.582  1.4944  0.3473 -1.2159
  528MOL0     H71262  11.635   3.063   1.066 -1.4052  0.2923  0.2361
  528MOL0     H71263  11.411   3.147   1.083 -2.1012 -0.9506 -1.5859
  528MOL0     H71264   9.699   3.722   0.885  0.4948  0.1314  0.5994
  528MOL0     H71265   9.504   3.865   0.785  0.0558 -0.9316 -0.3585
  528MOL0     H71266   9.004   3.870   0.745 -0.5665 -0.8899  1.7584
  528MOL0     H71267   8.792   3.986   0.715 -1.9154  1.6579  0.6677
  528MOL0     H71268   8.556   4.232   0.762 -1.0145 -1.2410 -0.6503
  528MOL0     H71269   8.619   4.062   0.760 -0.1849  0.2949 -0.5420
  528MOL0     H71270   8.602   4.118   0.526  0.3909  0.8851 -0.7224
  528MOL0     H71271   8.772   4.168   0.550  0.0946 -0.2543  1.3245
  528MOL0     H71272   8.669   4.410   0.599  0.0836 -0.7705 -0.8521
  528MOL0     H71273   8.520   4.335   0.546  0.3228 -1.3130  0.9249
  528MOL0     H71274   8.764   4.403   0.379  2.0580 -2.9897  1.8494
  528MOL0     H71275   8.684   4.245   0.337 -1.6328 -0.4640 -1.0337
  528MOL0     H71276   8.459   4.593   0.227  0.1231 -0.5389 -1.6606
  528MOL0     H71277   8.950   4.308   0.954 -1.8804 -0.9747 -0.2692
  528MOL0     H71278   9.113   4.270   1.107 -0.6297 -1.3627 -0.0623
  528MOL0     H71279   9.210   4.131   1.094 -0.1464  1.1386  1.4696
  528MOL0     H71280   9.250   4.247   0.979  0.4150  0.6155  0.3393
  529MOL0     O71281   5.095   4.997   4.377 -0.4828  0.2340  0.5229
  529MOL0     C71282   5.037   4.949   4.284  0.1373 -0.0392  0.0685
  529MOL0     O71283   5.050   4.982   4.148  0.1614 -0.8666 -0.5968
  529MOL0     C71284   5.143   5.087   4.115  0.4651  0.9477 -0.1704
  529MOL0     C71285   5.101   5.209   4.062 -1.0861 -0.5516  0.8395
  529MOL0     C71286   5.192   5.312   4.029  0.0106  0.5816 -0.5770
  529MOL0     C71287   5.336   5.290   4.043  0.1704  0.7341 -0.2561
  529MOL0     O71288   5.421   5.387   4.001  0.0157  0.3240 -0.8363
  529MOL0     C71289   5.558   5.390   4.048  0.7892  0.3298 -0.5045
  529MOL0     C71290   5.624   5.527   4.025  0.0455 -0.2247  0.2469
  529MOL0     C71291   5.772   5.522   4.067 -0.1759 -0.6661  0.2316
  529MOL0     C71292   5.849   5.650   4.021 -0.7236  0.5187 -0.0915
  529MOL0     C71293   5.988   5.683   4.088  0.4151  0.5935  0.0867
  529MOL0     C71294   6.066   5.795   4.013  0.7383 -0.8140  0.8561
  529MOL0     C71295   6.213   5.778   4.036  1.0420 -0.0122  0.1732
  529MOL0     C71296   6.312   5.717   3.942  0.4047  0.4331 -0.7513
  529MOL0     N71297   6.294   5.572   3.945  0.4625 -0.3382 -0.3148
  529MOL0     C71298   6.210   5.504   3.868 -0.0538  0.0916  0.4541
  529MOL0     C71299   6.236   5.378   3.888 -0.4929  0.7498  0.1495
  529MOL0     C71300   6.184   5.261   3.809 -0.0777 -0.1005 -0.6106
  529MOL0     C71301   6.036   5.251   3.835 -0.2485 -0.0796  0.2566
  529MOL0     C71302   5.969   5.150   3.747 -0.2863  0.1020  0.6668
  529MOL0     C71303   5.814   5.154   3.755 -0.2191 -0.4320 -0.0943
  529MOL0     O71304   5.758   5.073   3.657 -0.0465  0.9341 -0.1780
  529MOL0     C71305   5.625   5.050   3.656  0.0670 -0.9305 -0.9567
  529MOL0     C71306   5.539   5.129   3.737  0.4272  0.1553 -0.4965
  529MOL0     C71307   5.399   5.121   3.715 -0.2953  0.5253  0.6116
  529MOL0     C71308   5.353   5.059   3.605  0.6389  0.0587  0.3307
  529MOL0     C71309   5.207   5.071   3.572 -0.6260 -0.6432  0.1046
  529MOL0     O71310   5.129   5.152   3.651 -0.5851  0.1464 -0.2920
  529MOL0     C71311   4.994   5.134   3.642 -0.4288 -0.4089  0.1418
  529MOL0     C71312   4.932   5.078   3.751  0.7858  0.9612  0.1449
  529MOL0     C71313   4.792   5.063   3.746 -0.3306  0.3118  0.0566
  529MOL0     C71314   4.710   5.096   3.636  0.5792 -0.2529 -0.5057
  529MOL0     O71315   4.572   5.094   3.642  0.6361 -0.1477  0.3832
  529MOL0     C71316   4.504   5.038   3.525  0.0243 -0.3143  0.9496
  529MOL0     C71317   4.356   5.018   3.571 -0.4184  0.1854  0.0957
  529MOL0     C71318   4.285   5.152   3.581  0.0648  0.0034 -0.1626
  529MOL0     C71319   4.135   5.120   3.553 -0.3474  0.6026 -0.2007
  529MOL0     C71320   4.052   5.232   3.615 -0.3938 -0.3266  0.2360
  529MOL0     C71321   3.915   5.250   3.542  0.5427 -0.2887 -0.2898
  529MOL0     C71322   3.913   5.365   3.425 -0.2614  0.8365 -0.6238
  529MOL0     C71323   3.800   5.332   3.328  0.4188 -0.3810 -0.5553
  529MOL0    Cl71324   3.840   5.198   3.217  0.0968  0.3559 -0.2770
  529MOL0     C71325   4.780   5.141   3.522 -0.5301 -0.1097  0.6430
  529MOL0     C71326   4.926   5.159   3.526  0.3744 -0.3799  0.3392
  529MOL0     O71327   5.164   5.003   3.484 -0.7530 -0.5650  0.1314
  529MOL0     C71328   5.440   4.995   3.515  0.3162  0.1133  0.2961
  529MOL0     C71329   5.575   4.976   3.554  0.5063 -0.6134  0.3052
  529MOL0     N71330   6.323   5.369   3.993  0.6861  0.4304  0.9392
  529MOL0     N71331   6.361   5.483   4.019  1.0940 -0.6701 -0.6595
  529MOL0     C71332   5.377   5.161   4.071  0.3531  0.9181 -0.5135
  529MOL0     C71333   5.283   5.063   4.120  1.1923 -0.3024 -0.0733
  529MOL0     C71334   4.961   4.833   4.305  1.0835  0.0220 -0.4153
  529MOL0     C71335   5.015   4.711   4.370  0.6950 -0.0173 -0.3514
  529MOL0     C71336   4.931   4.603   4.403 -0.4140  0.3085  0.6000
  529MOL0     C71337   4.797   4.614   4.379 -0.3084 -0.0961  0.7765
  529MOL0     O71338   4.731   4.495   4.392 -0.2860 -0.4429 -0.5419
  529MOL0     C71339   4.735   4.396   4.290 -0.1748  0.0917  0.1329
  529MOL0     C71340   4.810   4.272   4.332 -0.0388  0.0968  0.4208
  529MOL0     C71341   4.778   4.218   4.472  0.9835 -0.3077 -0.1403
  529MOL0     C71342   4.879   4.127   4.533 -0.0263 -0.2222 -0.5213
  529MOL0     C71343   4.971   4.057   4.441 -0.7507 -0.9783 -0.7638
  529MOL0     C71344   5.040   3.999   4.357  0.6315 -1.2345  0.0496
  529MOL0     C71345   4.744   4.719   4.310  0.3336  0.4850  1.5220
  529MOL0     C71346   4.821   4.833   4.274 -0.8968  0.6053 -0.4188
  529MOL0     C71347   4.743   4.946   4.223 -0.7454 -0.0809 -0.0668
  529MOL0     H71348   4.994   5.226   4.064 -1.3154 -1.5134 -1.0326
  529MOL0     H71349   5.168   5.411   3.992  2.7525  1.2317 -0.8327
  529MOL0     H71350   5.553   5.368   4.155 -0.4436  2.1666 -0.1470
  529MOL0     H71351   5.625   5.312   4.010  1.3245  0.1582  0.7297
  529MOL0     H71352   5.563   5.601   4.076 -0.0053  0.0067 -0.1467
  529MOL0     H71353   5.614   5.539   3.917  1.0803  1.5824  0.3131
  529MOL0     H71354   5.820   5.433   4.025  0.8569  0.5023 -1.1385
  529MOL0     H71355   5.776   5.517   4.176  0.8223 -1.0239  0.1846
  529MOL0     H71356   5.861   5.636   3.913  1.1744 -0.1191  0.1798
  529MOL0     H71357   5.774   5.727   4.042 -2.3171 -1.5740  2.4818
  529MOL0     H71358   5.983   5.719   4.191  0.6740 -1.9653  1.0638
  529MOL0     H71359   6.030   5.582   4.090  2.4252  1.3788 -0.1449
  529MOL0     H71360   6.043   5.792   3.906  0.1489 -1.8348  1.0028
  529MOL0     H71361   6.030   5.891   4.051  1.4992  0.6207 -1.7988
  529MOL0     H71362   6.225   5.719   4.128  3.2413 -0.1082 -0.1161
  529MOL0     H71363   6.259   5.875   4.056  1.0850  0.0622 -0.2735
  529MOL0     H71364   6.306   5.755   3.840  3.6422 -1.5694 -1.8319
  529MOL0     H71365   6.413   5.741   3.976  0.7786  1.9289 -2.7503
  529MOL0     H71366   6.141   5.542   3.793 -3.1830 -3.3740  1.3381
  529MOL0     H71367   6.212   5.284   3.706  0.3172  1.1961 -0.2351
  529MOL0     H71368   6.229   5.165   3.838 -0.4435 -0.2631 -0.5762
  529MOL0     H71369   6.018   5.215   3.937 -2.7946 -3.0944 -1.0902
  529MOL0     H71370   5.987   5.348   3.825 -1.6813 -0.7800  0.2722
  529MOL0     H71371   5.998   5.045   3.760 -2.0971 -0.2968  1.7503
  529MOL0     H71372   5.998   5.176   3.644  0.8749 -0.0051  0.9510
  529MOL0     H71373   5.776   5.255   3.739 -0.9281 -0.9369 -1.7655
  529MOL0     H71374   5.789   5.126   3.858 -0.0811  1.6153  0.5454
  529MOL0     H71375   5.558   5.196   3.820  0.0388  2.6964 -2.3274
  529MOL0     H71376   5.333   5.163   3.790 -1.4305  1.0254 -0.6193
  529MOL0     H71377   4.984   5.056   3.844 -0.1120  1.8344  0.8856
  529MOL0     H71378   4.743   5.039   3.839  3.0150  1.6745  2.3424
  529MOL0     H71379   4.515   5.101   3.436  0.4415 -2.6638 -0.7605
  529MOL0     H71380   4.548   4.940   3.505  0.8419  0.7533 -3.6922
  529MOL0     H71381   4.309   4.960   3.491  2.0395  2.0048 -2.8970
  529MOL0     H71382   4.367   4.956   3.660  4.1221 -0.0128 -0.3733
  529MOL0     H71383   4.287   5.184   3.686 -2.3172  0.4725 -0.2042
  529MOL0     H71384   4.324   5.219   3.504  3.5102 -0.5228  0.9429
  529MOL0     H71385   4.112   5.021   3.595  1.4359  0.6363  0.9988
  529MOL0     H71386   4.127   5.130   3.445  2.0512 -0.7599 -0.5917
  529MOL0     H71387   4.108   5.326   3.606 -0.9218 -0.1780 -2.7301
  529MOL0     H71388   4.028   5.207   3.718  0.2454  3.5065  1.4627
  529MOL0     H71389   3.899   5.153   3.494  1.2571 -0.0927 -0.9606
  529MOL0     H71390   3.827   5.267   3.604 -0.3905 -4.4937 -0.2151
  529MOL0     H71391   4.006   5.370   3.366 -0.2406  2.1628 -0.5205
  529MOL0     H71392   3.898   5.452   3.490 -0.4039 -1.0385  2.0022
  529MOL0     H71393   3.719   5.299   3.393  0.5869 -0.4863 -0.3983
  529MOL0     H71394   3.776   5.427   3.278  3.5683  0.6217 -0.3847
  529MOL0     H71395   4.713   5.179   3.445  0.4348  0.9153  0.2881
  529MOL0     H71396   4.973   5.192   3.434 -0.6964  0.3595  0.0486
  529MOL0     H71397   5.408   4.949   3.422 -0.4372  0.5099  0.3529
  529MOL0     H71398   5.646   4.934   3.484  1.2755 -0.0727  0.7446
  529MOL0     H71399   5.481   5.130   4.079 -0.6084 -2.2930  0.8150
  529MOL0     H71400   5.316   4.965   4.153  1.4613  0.0762  0.8081
  529MOL0     H71401   5.120   4.701   4.397  0.9529  0.0401 -1.2856
  529MOL0     H71402   4.969   4.512   4.449 -1.0477 -0.7573 -0.9219
  529MOL0     H71403   4.767   4.433   4.192  1.0767 -0.2830  0.3790
  529MOL0     H71404   4.633   4.360   4.277 -0.0353 -0.6114  0.9120
  529MOL0     H71405   4.915   4.303   4.323 -0.5234  2.5851  2.3500
  529MOL0     H71406   4.791   4.202   4.249  1.5995  1.8684 -1.5792
  529MOL0     H71407   4.682   4.167   4.460  2.1009 -3.1138  1.9134
  529MOL0     H71408   4.766   4.302   4.541  1.6460 -0.9869  0.8285
  529MOL0     H71409   4.932   4.190   4.604 -0.1600  1.7420 -2.0883
  529MOL0     H71410   4.815   4.050   4.577 -1.8054 -0.0443 -2.6034
  529MOL0     H71411   5.099   3.941   4.288  0.3803  0.1537 -1.3689
  529MOL0     H71412   4.639   4.724   4.283  0.9623  3.3418 -0.9476
  529MOL0     H71413   4.641   4.950   4.262 -1.0192 -1.2390 -0.6273
  529MOL0     H71414   4.785   5.046   4.235 -4.6387  2.0578 -2.2551
  529MOL0     H71415   4.739   4.925   4.116  3.4167  0.2884 -0.4389
  530MOL0     O71416   4.104   6.655   3.161 -0.1845 -0.7070 -0.4186
  530MOL0     C71417   4.186   6.576   3.117 -0.3744  0.1756 -0.4256
  530MOL0     O71418   4.161   6.475   3.032 -0.5235  0.2529  0.7757
  530MOL0     C71419   4.038   6.464   2.975 -0.2139  0.4171 -0.0003
  530MOL0     C71420   3.996   6.541   2.865 -1.2183 -0.2573 -0.0224
  530MOL0     C71421   3.866   6.524   2.824  0.1140  0.2487  0.0021
  530MOL0     C71422   3.766   6.452   2.893  0.6173 -0.3089 -0.0324
  530MOL0     O71423   3.628   6.464   2.866 -0.3519 -0.2509 -0.4865
  530MOL0     C71424   3.584   6.509   2.743  0.1034 -0.5918  0.2406
  530MOL0     C71425   3.441   6.470   2.728  0.4582 -0.0217  0.9490
  530MOL0     C71426   3.381   6.471   2.583 -0.4405  0.9436  0.4528
  530MOL0     C71427   3.457   6.386   2.476  0.2176  0.4544  0.8576
  530MOL0     C71428   3.364   6.355   2.355  0.0352 -0.0069  0.7640
  530MOL0     C71429   3.291   6.474   2.282 -0.8809  0.7726 -0.6247
  530MOL0     C71430   3.265   6.426   2.140  0.9429 -0.5284  0.9512
  530MOL0     C71431   3.154   6.515   2.074  0.7430  0.0114 -1.3315
  530MOL0     N71432   3.024   6.498   2.138 -0.1485  0.2284 -0.2652
  530MOL0     C71433   2.920   6.430   2.077  0.1891 -0.2075 -0.2666
  530MOL0     C71434   2.811   6.486   2.135 -0.0843 -0.5491 -0.8703
  530MOL0     C71435   2.669   6.459   2.118  0.5733 -0.3105  0.0529
  530MOL0     C71436   2.620   6.506   1.980 -0.0513 -0.8533 -0.2548
  530MOL0     C71437   2.629   6.664   1.959 -0.1367  0.3004  0.2176
  530MOL0     C71438   2.768   6.717   1.925 -0.5096  0.0251  0.5425
  530MOL0     O71439   2.846   6.648   1.823 -0.1945  0.0058  0.5935
  530MOL0     C71440   2.977   6.673   1.824 -0.5405  0.5886  0.0128
  530MOL0     C71441   3.052   6.602   1.734  0.0055 -0.1380 -0.6781
  530MOL0     C71442   3.188   6.622   1.720  0.2279 -0.4039  0.6078
  530MOL0     C71443   3.257   6.717   1.801  1.0012  1.0031 -0.2787
  530MOL0     C71444   3.404   6.740   1.798 -0.2104  0.3750 -0.5652
  530MOL0     O71445   3.467   6.792   1.904  0.6483 -0.6537 -0.3885
  530MOL0     C71446   3.600   6.788   1.898 -0.2494 -0.6558  0.2892
  530MOL0     C71447   3.675   6.673   1.867 -0.8596  0.2791 -1.4125
  530MOL0     C71448   3.815   6.677   1.873 -0.0097  0.5834 -0.0897
  530MOL0     C71449   3.885   6.799   1.893 -0.1799  0.6756 -0.0833
  530MOL0     O71450   4.023   6.805   1.896  0.2441 -0.6269  0.2407
  530MOL0     C71451   4.102   6.684   1.903  0.0095 -0.0840 -0.6593
  530MOL0     C71452   4.247   6.712   1.888  0.1990 -0.1560  0.3469
  530MOL0     C71453   4.346   6.596   1.923 -0.0660 -0.0610 -0.0397
  530MOL0     C71454   4.334   6.465   1.837 -0.8687 -0.0881 -0.3428
  530MOL0     C71455   4.422   6.344   1.889  0.4839 -0.2895  0.1474
  530MOL0     C71456   4.435   6.227   1.788 -0.0511  0.7155 -0.4267
  530MOL0     C71457   4.322   6.204   1.695  0.2153  0.2482 -0.7833
  530MOL0     C71458   4.345   6.074   1.615  0.7866 -0.4180 -0.6172
  530MOL0    Cl71459   4.192   6.025   1.522 -0.1634  0.0891  0.1910
  530MOL0     C71460   3.807   6.918   1.898  0.1973 -1.5116  0.0654
  530MOL0     C71461   3.661   6.912   1.904 -0.0047 -0.4997  0.0225
  530MOL0     O71462   3.447   6.714   1.683 -0.0150 -0.5446 -0.1997
  530MOL0     C71463   3.179   6.795   1.883 -0.0085 -0.6413  0.1420
  530MOL0     C71464   3.042   6.776   1.904  0.5186 -0.4566  0.3322
  530MOL0     N71465   2.845   6.576   2.232 -0.1797  0.1283  0.2201
  530MOL0     N71466   2.976   6.584   2.229 -0.1586 -0.1111  0.1198
  530MOL0     C71467   3.813   6.376   3.000 -0.7813  0.0225 -0.6039
  530MOL0     C71468   3.950   6.379   3.041  0.0801  0.3859  0.3791
  530MOL0     C71469   4.324   6.595   3.162  0.1654 -0.5198 -0.7287
  530MOL0     C71470   4.435   6.523   3.101  0.7874 -0.7625  0.0639
  530MOL0     C71471   4.570   6.536   3.132 -0.3219 -0.3290 -0.8662
  530MOL0     C71472   4.603   6.615   3.249 -0.0965  0.1531 -0.1538
  530MOL0     O71473   4.727   6.637   3.305  0.4109  0.0139 -0.3023
  530MOL0     C71474   4.840   6.551   3.260 -0.0339  0.3250 -0.2662
  530MOL0     C71475   4.971   6.606   3.313  0.4133  0.5642  0.5229
  530MOL0     C71476   5.085   6.509   3.296  0.3795 -0.4724  0.1054
  530MOL0     C71477   5.093   6.411   3.414  0.1450  0.6386 -0.6351
  530MOL0     C71478   5.195   6.464   3.506 -0.1044  0.4044 -0.3402
  530MOL0     C71479   5.273   6.508   3.586  0.2985  0.5036  0.3456
  530MOL0     C71480   4.500   6.685   3.311  0.4795 -1.0239 -0.0230
  530MOL0     C71481   4.361   6.687   3.272 -0.2001  0.1128 -0.3600
  530MOL0     C71482   4.268   6.772   3.363 -0.7216 -0.1953 -0.8666
  530MOL0     H71483   4.055   6.615   2.813 -3.9687  2.6180  0.6256
  530MOL0     H71484   3.840   6.579   2.734  0.1404  1.4838  0.7351
  530MOL0     H71485   3.592   6.617   2.726 -1.3397 -0.8183 -2.5807
  530MOL0     H71486   3.645   6.463   2.665  0.0468  0.0157 -0.1745
  530MOL0     H71487   3.384   6.520   2.806 -1.5554 -0.1065 -0.4051
  530MOL0     H71488   3.440   6.363   2.754  4.5802 -0.5181 -0.2559
  530MOL0     H71489   3.382   6.575   2.547  2.8448  0.5193 -1.0752
  530MOL0     H71490   3.281   6.433   2.604  0.7991 -3.8565 -1.0891
  530MOL0     H71491   3.547   6.433   2.436 -0.2625  0.9904  0.3832
  530MOL0     H71492   3.481   6.284   2.507  1.8568  0.5580  0.0079
  530MOL0     H71493   3.435   6.329   2.276  3.3913  1.3568  3.1333
  530MOL0     H71494   3.291   6.275   2.371  2.1729 -2.3355 -0.3893
  530MOL0     H71495   3.209   6.503   2.348 -1.2274 -2.1414  0.3545
  530MOL0     H71496   3.372   6.548   2.278  0.7911 -0.9710 -4.5604
  530MOL0     H71497   3.218   6.327   2.141 -1.6297  0.5923 -0.0272
  530MOL0     H71498   3.355   6.435   2.078 -0.1064 -1.5651 -0.8255
  530MOL0     H71499   3.175   6.622   2.084  0.4643 -0.0846  0.5309
  530MOL0     H71500   3.142   6.496   1.966 -1.3830  0.3808 -1.2004
  530MOL0     H71501   2.918   6.354   2.000 -3.7010  0.1289 -0.7204
  530MOL0     H71502   2.655   6.351   2.125 -1.9857 -0.1505 -1.5005
  530MOL0     H71503   2.612   6.500   2.202 -0.2658 -0.2167 -0.5488
  530MOL0     H71504   2.674   6.452   1.901 -0.1236 -0.7063 -0.4065
  530MOL0     H71505   2.516   6.478   1.963 -0.5030  1.0676 -0.8827
  530MOL0     H71506   2.581   6.723   2.037 -0.0069 -0.2073  0.6904
  530MOL0     H71507   2.576   6.681   1.865  0.3449 -2.2659 -0.6204
  530MOL0     H71508   2.833   6.728   2.013 -0.6635  1.0087  0.5514
  530MOL0     H71509   2.757   6.822   1.896 -4.0685  0.7837  3.7991
  530MOL0     H71510   3.007   6.519   1.680 -0.3109 -0.0672 -0.5279
  530MOL0     H71511   3.246   6.567   1.647  1.4379 -0.8677  1.8841
  530MOL0     H71512   3.620   6.583   1.842 -2.2780  0.8916 -0.5624
  530MOL0     H71513   3.860   6.578   1.865 -0.0870  0.4549  0.9798
  530MOL0     H71514   4.075   6.639   1.999  1.6015  2.7242  1.2412
  530MOL0     H71515   4.076   6.625   1.814  0.4885 -1.3823  0.0329
  530MOL0     H71516   4.260   6.735   1.781 -0.7709 -2.7192 -0.4022
  530MOL0     H71517   4.273   6.800   1.947 -2.0302 -0.4696  1.9117
  530MOL0     H71518   4.444   6.641   1.909  0.8755 -2.2389 -0.8261
  530MOL0     H71519   4.344   6.574   2.030 -1.7306  1.3267  0.2548
  530MOL0     H71520   4.373   6.487   1.737  2.6315 -1.0552  0.6681
  530MOL0     H71521   4.228   6.439   1.838 -0.5544 -1.4972 -1.2559
  530MOL0     H71522   4.381   6.306   1.983 -0.4674  1.9552  0.6979
  530MOL0     H71523   4.519   6.388   1.916 -0.3533  0.8742  1.4409
  530MOL0     H71524   4.530   6.234   1.734  0.7555  0.1941  0.8989
  530MOL0     H71525   4.439   6.137   1.850  2.4519  0.8842 -0.2705
  530MOL0     H71526   4.310   6.285   1.622  2.6945  2.0114  0.6274
  530MOL0     H71527   4.224   6.199   1.743  0.5419  3.6168  0.4691
  530MOL0     H71528   4.419   6.110   1.543  0.0184  2.1194 -0.2315
  530MOL0     H71529   4.378   5.989   1.675 -0.4982 -1.2347 -1.0426
  530MOL0     H71530   3.853   7.015   1.914 -0.0273 -1.1947 -1.0703
  530MOL0     H71531   3.602   7.002   1.919 -1.2635 -1.4445  0.9674
  530MOL0     H71532   3.235   6.872   1.935  1.0125 -0.9520 -0.4708
  530MOL0     H71533   2.979   6.837   1.968  0.2275 -1.4198  1.0038
  530MOL0     H71534   3.742   6.312   3.051 -1.1399  1.0040  0.1432
  530MOL0     H71535   3.985   6.316   3.122  0.9470  0.6455  0.2188
  530MOL0     H71536   4.427   6.446   3.024  2.1534  0.7477 -1.6781
  530MOL0     H71537   4.653   6.490   3.079  1.6683  3.1205 -1.0692
  530MOL0     H71538   4.856   6.546   3.152  0.5462  0.5264 -0.1927
  530MOL0     H71539   4.812   6.453   3.300 -0.2016 -0.3037 -1.8539
  530MOL0     H71540   4.961   6.629   3.420 -1.2038  4.5002 -0.2902
  530MOL0     H71541   4.984   6.708   3.276 -2.5983  1.1397  0.7786
  530MOL0     H71542   5.172   6.571   3.272 -1.6338  2.0146 -1.2900
  530MOL0     H71543   5.080   6.438   3.214  1.0725  0.5026 -0.8038
  530MOL0     H71544   4.996   6.400   3.463 -0.7552  2.8290 -1.7879
  530MOL0     H71545   5.127   6.313   3.380  1.4225  0.8800 -0.0960
  530MOL0     H71546   5.330   6.553   3.665 -0.3951 -0.6603  1.5504
  530MOL0     H71547   4.521   6.745   3.399 -2.1030 -1.8345  1.2554
  530MOL0     H71548   4.228   6.859   3.309  0.7566  1.4687  0.5832
  530MOL0     H71549   4.194   6.700   3.397 -1.4961  1.7193  1.8464
  530MOL0     H71550   4.318   6.816   3.450 -0.5892  2.0651 -2.0114
  531MOL0     O71551  10.861   6.174   7.444 -0.1230 -0.5681 -0.0652
  531MOL0     C71552  10.884   6.214   7.331 -0.0053 -0.1753  0.7702
  531MOL0     O71553  11.006   6.223   7.267 -0.1479  0.5761 -0.4085
  531MOL0     C71554  11.121   6.244   7.330  0.2013 -0.1560 -0.7012
  531MOL0     C71555  11.237   6.208   7.261  0.6977 -1.2639 -0.2051
  531MOL0     C71556  11.359   6.210   7.326 -0.4976  0.7540  0.5499
  531MOL0     C71557  11.372   6.245   7.461  0.4887  1.3648 -0.2871
  531MOL0     O71558  11.488   6.258   7.530 -0.4918  0.0440 -0.3776
  531MOL0     C71559  11.605   6.175   7.509 -0.3149 -1.0211  0.2806
  531MOL0     C71560  11.703   6.218   7.616 -0.0842  0.7332 -0.0108
  531MOL0     C71561  11.837   6.158   7.586  0.0648 -0.2737 -0.6856
  531MOL0     C71562  11.942   6.270   7.571  0.5019 -0.1999  0.1342
  531MOL0     C71563  12.081   6.208   7.587  0.5167 -0.5150  0.8860
  531MOL0     C71564  12.186   6.319   7.582 -0.2717 -0.8508  0.1852
  531MOL0     C71565  12.335   6.284   7.605  1.6136 -1.0359 -0.6326
  531MOL0     C71566  12.386   6.212   7.484  0.1101 -0.2556  1.0070
  531MOL0     N71567  12.530   6.217   7.490 -0.7063  0.8567  0.6474
  531MOL0     C71568  12.622   6.262   7.396 -0.3210  0.8326 -0.5676
  531MOL0     C71569  12.739   6.218   7.446  0.6138 -0.1550  0.2452
  531MOL0     C71570  12.874   6.207   7.366 -0.2371 -0.6499 -0.1523
  531MOL0     C71571  12.950   6.335   7.394 -0.1285  0.2906 -0.0156
  531MOL0     C71572  13.002   6.343   7.536 -0.0032  0.5236 -0.9811
  531MOL0     C71573  13.058   6.483   7.563 -0.6202 -0.2573 -0.9111
  531MOL0     O71574  13.198   6.490   7.524 -0.3961  0.9423  0.1105
  531MOL0     C71575  13.260   6.613   7.538 -0.3236 -0.6120  0.1879
  531MOL0     C71576  13.201   6.724   7.473 -0.2086  0.1320  0.5311
  531MOL0     C71577  13.274   6.838   7.455 -0.6232 -0.3267  0.8134
  531MOL0     C71578  13.410   6.853   7.510  0.4133 -0.6797  0.1393
  531MOL0     C71579  13.490   6.974   7.516 -0.2164 -1.1396  0.1188
  531MOL0     O71580  13.624   6.953   7.501  0.4553 -0.3683 -0.0065
  531MOL0     C71581  13.711   7.062   7.507 -0.8058  0.2504  0.4137
  531MOL0     C71582  13.799   7.080   7.610  0.8770  0.2864 -0.6095
  531MOL0     C71583  13.905   7.174   7.607 -0.2576  0.5152 -0.1295
  531MOL0     C71584  13.926   7.256   7.495 -0.8960  0.2096  0.0831
  531MOL0     O71585  14.015   7.354   7.486  0.6007 -0.6686  0.1261
  531MOL0     C71586  14.096   7.386   7.600 -0.4036  0.0660  0.5749
  531MOL0     C71587  14.171   7.522   7.588  1.2928 -1.1529  0.4360
  531MOL0     C71588  14.270   7.545   7.697 -0.3454 -0.1563  0.0356
  531MOL0     C71589  14.409   7.514   7.650 -0.6249  0.3255  0.0489
  531MOL0     C71590  14.516   7.583   7.738  0.1000  0.1541  0.0825
  531MOL0     C71591  14.652   7.532   7.702 -0.0451 -0.0836 -0.1121
  531MOL0     C71592  14.701   7.553   7.562 -0.4973 -0.4310  0.4513
  531MOL0     C71593  14.707   7.703   7.527 -0.3609  0.1932 -0.4080
  531MOL0    Cl71594  14.806   7.738   7.391 -0.5307  0.5948  0.4346
  531MOL0     C71595  13.842   7.238   7.389  0.1169  0.8265 -0.2570
  531MOL0     C71596  13.740   7.136   7.390 -0.0256  0.1858 -1.1520
  531MOL0     O71597  13.439   7.086   7.506  0.5348 -0.5555 -0.4548
  531MOL0     C71598  13.467   6.739   7.568  0.0915  0.9869 -0.1652
  531MOL0     C71599  13.393   6.618   7.585  0.5778  0.1249 -0.1512
  531MOL0     N71600  12.722   6.153   7.567  0.5992 -0.2563  0.2314
  531MOL0     N71601  12.593   6.147   7.587 -0.6505  0.6918 -0.8720
  531MOL0     C71602  11.253   6.282   7.526 -0.4096  0.6199 -0.1250
  531MOL0     C71603  11.128   6.288   7.466  0.3578 -0.5416  0.3876
  531MOL0     C71604  10.768   6.248   7.253  1.0798 -0.0058 -0.1129
  531MOL0     C71605  10.779   6.261   7.120  0.1105  0.3067 -0.0573
  531MOL0     C71606  10.681   6.296   7.028 -0.1788 -0.2264  0.6412
  531MOL0     C71607  10.548   6.324   7.077 -0.6076  0.9118  0.0907
  531MOL0     O71608  10.453   6.356   6.982  0.0941  0.1974  0.0001
  531MOL0     C71609  10.471   6.487   6.925 -0.6376 -0.1803 -0.1188
  531MOL0     C71610  10.372   6.492   6.819  0.1245 -0.6528 -0.1244
  531MOL0     C71611  10.227   6.495   6.874 -0.2287 -0.4706 -0.0255
  531MOL0     C71612  10.149   6.510   6.747  0.5450  0.4789 -0.2173
  531MOL0     C71613  10.009   6.533   6.769  0.4758 -0.1560  0.0348
  531MOL0     C71614   9.893   6.558   6.797  0.8121 -0.0352  0.0246
  531MOL0     C71615  10.525   6.299   7.213 -0.4071  0.0307 -0.7673
  531MOL0     C71616  10.630   6.259   7.299 -0.0452 -0.0434 -0.2932
  531MOL0     C71617  10.590   6.226   7.447  1.5327 -0.4317  0.1763
  531MOL0     H71618  11.238   6.182   7.156  0.5278 -1.6325 -0.1185
  531MOL0     H71619  11.454   6.191   7.277 -1.5803 -1.6039 -0.8072
  531MOL0     H71620  11.579   6.071   7.530 -4.5696 -0.1126  0.4757
  531MOL0     H71621  11.646   6.208   7.413 -0.4042  1.5227  1.0401
  531MOL0     H71622  11.676   6.184   7.716  1.7931  2.3245  1.1282
  531MOL0     H71623  11.707   6.328   7.621  3.1134  0.6677  2.0185
  531MOL0     H71624  11.827   6.089   7.502 -0.9864  0.0314 -0.8187
  531MOL0     H71625  11.865   6.102   7.676  1.9179  2.5254  0.6517
  531MOL0     H71626  11.921   6.320   7.476 -0.8352 -1.3764 -0.2268
  531MOL0     H71627  11.930   6.349   7.646 -1.4878 -3.5169  3.6526
  531MOL0     H71628  12.095   6.159   7.684  1.1630 -0.5975  0.7546
  531MOL0     H71629  12.102   6.138   7.505 -1.5900  1.3817 -1.4249
  531MOL0     H71630  12.181   6.372   7.487  4.6079  1.5241  0.9772
  531MOL0     H71631  12.160   6.397   7.654  1.5570  0.5132 -0.5732
  531MOL0     H71632  12.342   6.221   7.693 -2.0837 -1.2148 -0.2936
  531MOL0     H71633  12.388   6.379   7.617 -2.0852  1.0656  0.9747
  531MOL0     H71634  12.354   6.107   7.493 -0.4986 -0.2993 -1.1219
  531MOL0     H71635  12.346   6.258   7.394 -0.1049  0.9068  1.6840
  531MOL0     H71636  12.584   6.316   7.310 -2.2591  2.1099  1.0077
  531MOL0     H71637  12.943   6.124   7.385  2.5961  1.0052 -2.3194
  531MOL0     H71638  12.854   6.195   7.259 -1.4859 -0.5068  0.0478
  531MOL0     H71639  13.034   6.326   7.324  0.6711  0.8306  0.8455
  531MOL0     H71640  12.890   6.424   7.373  1.0499  0.3650 -3.7601
  531MOL0     H71641  13.074   6.263   7.549  0.7828  1.2984 -0.4510
  531MOL0     H71642  12.920   6.324   7.606  1.4271  0.2940  0.6920
  531MOL0     H71643  13.059   6.494   7.672  0.3777 -3.7233 -0.4447
  531MOL0     H71644  12.990   6.557   7.521 -0.2585  1.8851  1.9654
  531MOL0     H71645  13.106   6.707   7.425 -0.0243 -2.6157  1.0077
  531MOL0     H71646  13.215   6.921   7.417 -3.6931 -1.0677  3.4545
  531MOL0     H71647  13.765   7.026   7.698 -3.1989  3.0308 -0.2334
  531MOL0     H71648  13.971   7.168   7.693  2.0434 -1.0917 -1.8896
  531MOL0     H71649  14.040   7.395   7.694  1.7405  0.4630  1.8970
  531MOL0     H71650  14.168   7.304   7.609  0.1133  0.5616  1.0725
  531MOL0     H71651  14.225   7.525   7.492  0.6638 -1.9267  0.0441
  531MOL0     H71652  14.096   7.601   7.587  2.1256 -0.3274 -0.9136
  531MOL0     H71653  14.276   7.650   7.725  1.5763  0.9231 -3.7501
  531MOL0     H71654  14.230   7.486   7.781 -0.0349  0.2016  0.4417
  531MOL0     H71655  14.416   7.565   7.553  0.1683  0.5754  0.2304
  531MOL0     H71656  14.426   7.409   7.629 -0.7150 -0.0204  1.6035
  531MOL0     H71657  14.493   7.546   7.838 -3.1313 -2.2616 -1.3755
  531MOL0     H71658  14.516   7.692   7.735 -1.2880  0.1706  0.0429
  531MOL0     H71659  14.720   7.580   7.772 -2.3631  0.8381  1.6299
  531MOL0     H71660  14.649   7.422   7.706  0.3340 -0.1041 -0.3698
  531MOL0     H71661  14.644   7.497   7.486 -0.2009  1.1549 -1.0055
  531MOL0     H71662  14.804   7.521   7.545 -0.0257  2.2628 -2.8696
  531MOL0     H71663  14.605   7.733   7.500 -0.3963  1.8410  1.2935
  531MOL0     H71664  14.744   7.763   7.611  0.7755 -0.9862 -0.0334
  531MOL0     H71665  13.859   7.285   7.292  1.8043  0.8149  0.0056
  531MOL0     H71666  13.685   7.100   7.304  0.7804  0.4823 -1.8111
  531MOL0     H71667  13.568   6.727   7.606  0.0229 -0.5228 -0.3769
  531MOL0     H71668  13.432   6.526   7.627 -0.6153  0.9561  3.0289
  531MOL0     H71669  11.268   6.315   7.628  1.4773  1.1870 -0.5469
  531MOL0     H71670  11.045   6.339   7.515  0.7171 -0.1408  0.5881
  531MOL0     H71671  10.872   6.233   7.071 -0.2144 -0.4914 -0.2377
  531MOL0     H71672  10.706   6.290   6.923  2.4259 -1.9818  1.2477
  531MOL0     H71673  10.571   6.500   6.882 -1.3539  1.0706 -1.4464
  531MOL0     H71674  10.444   6.566   6.996 -2.4150 -0.2608 -0.6653
  531MOL0     H71675  10.380   6.394   6.772  1.8972 -1.6355  2.0548
  531MOL0     H71676  10.390   6.578   6.753  0.6036  0.9617  1.9801
  531MOL0     H71677  10.214   6.583   6.937 -0.7108 -2.5573  3.0442
  531MOL0     H71678  10.211   6.401   6.928  2.8887 -0.4641  1.1579
  531MOL0     H71679  10.184   6.592   6.684 -1.9609  1.3542 -0.6014
  531MOL0     H71680  10.159   6.421   6.684 -1.0525 -0.7507  1.1772
  531MOL0     H71681   9.790   6.577   6.817  1.2397  0.9924  1.4050
  531MOL0     H71682  10.423   6.308   7.250 -0.2121 -0.8593  0.0519
  531MOL0     H71683  10.481   6.217   7.453  1.6633 -2.6018  0.2624
  531MOL0     H71684  10.613   6.120   7.460 -1.6574 -1.5067 -1.5116
  531MOL0     H71685  10.626   6.301   7.517 -1.0029  1.2528 -0.1872
  532MOL0     O71686   8.581   6.758   2.607 -0.3394  0.6560 -0.1123
  532MOL0     C71687   8.513   6.786   2.507  0.3826  0.5724  0.6309
  532MOL0     O71688   8.555   6.839   2.392 -0.0570 -0.4045  0.6356
  532MOL0     C71689   8.682   6.884   2.392  0.2844  0.6204 -0.3625
  532MOL0     C71690   8.719   7.004   2.443  0.4719  0.0069  0.3698
  532MOL0     C71691   8.845   7.051   2.446 -0.5223  0.0207 -0.3365
  532MOL0     C71692   8.946   6.969   2.397  0.0260 -0.2783 -0.7564
  532MOL0     O71693   9.075   7.008   2.421  0.2937  0.9485 -0.6682
  532MOL0     C71694   9.172   6.984   2.323  0.7482 -0.2281 -0.4734
  532MOL0     C71695   9.295   7.043   2.383  0.2438 -0.0758 -0.6446
  532MOL0     C71696   9.421   7.014   2.302  0.1086  0.2609 -0.5273
  532MOL0     C71697   9.537   7.096   2.373 -0.0109 -0.2838 -0.1152
  532MOL0     C71698   9.667   7.112   2.279  0.0249 -0.4390  0.0309
  532MOL0     C71699   9.793   7.150   2.357  0.5571 -0.1468  0.0973
  532MOL0     C71700   9.906   7.199   2.264 -0.4307 -0.2232  0.2276
  532MOL0     C71701  10.015   7.264   2.335  0.4223 -0.8077 -0.5013
  532MOL0     N71702  10.123   7.303   2.237  0.3328  0.0812 -0.5541
  532MOL0     C71703  10.121   7.405   2.153  0.1292  0.0928 -1.0283
  532MOL0     C71704  10.233   7.394   2.074 -0.5350  0.2121 -1.0398
  532MOL0     C71705  10.263   7.485   1.957  0.4830 -0.6645  0.5356
  532MOL0     C71706  10.404   7.487   1.907 -0.0910 -0.8592 -0.3841
  532MOL0     C71707  10.491   7.593   1.969  0.3431  0.9352 -0.0603
  532MOL0     C71708  10.621   7.606   1.883  0.1773  0.8094 -1.1691
  532MOL0     O71709  10.675   7.480   1.846 -0.1186 -0.1731 -0.0058
  532MOL0     C71710  10.788   7.489   1.766 -0.1566 -0.0515 -0.0250
  532MOL0     C71711  10.863   7.600   1.729 -0.7194 -0.1668  0.6391
  532MOL0     C71712  10.971   7.589   1.638 -0.0132  0.1596 -0.0958
  532MOL0     C71713  11.005   7.465   1.583  0.7494  0.3591  0.5702
  532MOL0     C71714  11.097   7.455   1.474 -0.8318 -0.3261  1.1968
  532MOL0     O71715  11.138   7.331   1.435 -0.0842 -0.0130 -0.8944
  532MOL0     C71716  11.244   7.325   1.352 -0.6115 -0.1704 -0.5155
  532MOL0     C71717  11.243   7.282   1.220 -0.1539 -0.3830  0.3076
  532MOL0     C71718  11.354   7.281   1.136 -1.1772  0.8717 -0.2081
  532MOL0     C71719  11.477   7.325   1.195 -0.7743 -0.1242  0.7580
  532MOL0     O71720  11.581   7.329   1.112  0.8545  0.1065 -0.0434
  532MOL0     C71721  11.713   7.368   1.155 -0.2347  0.3492  0.4717
  532MOL0     C71722  11.721   7.518   1.137 -0.2871  0.2601  0.2200
  532MOL0     C71723  11.856   7.578   1.175 -0.5680  0.7302  0.7522
  532MOL0     C71724  11.960   7.530   1.069 -1.1202 -0.6710 -0.4944
  532MOL0     C71725  12.097   7.591   1.111  1.1022  0.4007  0.1180
  532MOL0     C71726  12.195   7.486   1.070 -0.2570  0.2878 -0.8439
  532MOL0     C71727  12.346   7.527   1.101  0.4297  0.2506  0.4787
  532MOL0     C71728  12.395   7.531   1.253 -0.2367 -0.1472 -0.6122
  532MOL0    Cl71729  12.404   7.371   1.316  0.0942 -0.1728 -0.3874
  532MOL0     C71730  11.487   7.347   1.331 -0.2689  0.3410 -0.0685
  532MOL0     C71731  11.376   7.351   1.405 -0.3143 -0.4773 -1.1769
  532MOL0     O71732  11.129   7.563   1.422  0.2409  0.5659  0.2845
  532MOL0     C71733  10.920   7.353   1.609  0.4938  0.1992  0.6638
  532MOL0     C71734  10.819   7.366   1.707  0.0992 -0.1413 -0.2137
  532MOL0     N71735  10.304   7.283   2.115 -0.3550 -0.5599 -0.8085
  532MOL0     N71736  10.229   7.225   2.215  0.4546 -0.3275  0.7176
  532MOL0     C71737   8.910   6.845   2.348 -0.0214  0.2654  1.6470
  532MOL0     C71738   8.780   6.811   2.327 -0.5505  0.3712 -0.3962
  532MOL0     C71739   8.364   6.750   2.517 -0.3957 -0.3066  0.0853
  532MOL0     C71740   8.279   6.776   2.410  0.1100 -0.2752  0.2955
  532MOL0     C71741   8.151   6.725   2.405  0.0658 -0.7846  0.1901
  532MOL0     C71742   8.084   6.655   2.506  0.2103 -1.4209 -0.6930
  532MOL0     O71743   7.946   6.625   2.500  0.9297 -0.3071 -0.8867
  532MOL0     C71744   7.885   6.587   2.628  1.1150 -0.4431  0.0477
  532MOL0     C71745   7.733   6.574   2.619 -0.0933  1.1910  0.2533
  532MOL0     C71746   7.678   6.530   2.752 -0.3194  0.4994 -1.0161
  532MOL0     C71747   7.524   6.535   2.788  0.1240  0.4853  0.2612
  532MOL0     C71748   7.456   6.501   2.664  0.4143 -0.2492 -0.1112
  532MOL0     C71749   7.410   6.468   2.560 -0.4683  0.1462  0.1281
  532MOL0     C71750   8.163   6.644   2.620  0.3781  0.7941 -0.3470
  532MOL0     C71751   8.302   6.682   2.629  0.5184  0.1145  0.3836
  532MOL0     C71752   8.369   6.651   2.765  0.2359  0.6175 -0.0809
  532MOL0     H71753   8.639   7.069   2.477  1.8687  1.1777  1.5235
  532MOL0     H71754   8.875   7.150   2.479  1.4637 -0.9037  0.8136
  532MOL0     H71755   9.175   6.876   2.308 -0.0686 -0.2226 -0.7285
  532MOL0     H71756   9.141   7.035   2.231 -1.8417  3.7807  2.2988
  532MOL0     H71757   9.320   7.014   2.485 -1.0519  2.7956  0.5955
  532MOL0     H71758   9.277   7.149   2.399  1.0532  0.1378 -1.0944
  532MOL0     H71759   9.409   7.053   2.200 -1.3516  1.1156 -0.0532
  532MOL0     H71760   9.456   6.910   2.296  3.7206  1.3417 -0.7215
  532MOL0     H71761   9.499   7.192   2.409  4.0496  1.3942  0.1355
  532MOL0     H71762   9.579   7.042   2.458  3.2229  0.1037 -1.3321
  532MOL0     H71763   9.687   7.026   2.213  0.2144  0.8785 -1.7083
  532MOL0     H71764   9.649   7.195   2.210  0.0998 -0.5055 -0.0703
  532MOL0     H71765   9.760   7.229   2.424  0.1702  0.2912 -0.5944
  532MOL0     H71766   9.827   7.064   2.416  1.5279  0.6923  0.7901
  532MOL0     H71767   9.860   7.270   2.194 -0.4821  0.6674  1.1412
  532MOL0     H71768   9.947   7.124   2.197  0.0335  0.2365 -0.0124
  532MOL0     H71769   9.984   7.366   2.363 -0.3761 -0.1809 -3.3311
  532MOL0     H71770  10.062   7.208   2.417 -0.9256 -0.3572  0.6255
  532MOL0     H71771  10.042   7.479   2.153  0.3112  0.2920 -1.5190
  532MOL0     H71772  10.191   7.453   1.881  1.2736 -2.4533  0.4918
  532MOL0     H71773  10.238   7.589   1.984  2.6373 -0.5096  2.1834
  532MOL0     H71774  10.449   7.389   1.926 -3.1529 -2.0312  1.5200
  532MOL0     H71775  10.409   7.506   1.799  1.5597  0.9552 -0.0527
  532MOL0     H71776  10.525   7.571   2.070 -1.1469  2.7871  0.8901
  532MOL0     H71777  10.435   7.687   1.962 -0.4137  0.7060  2.2479
  532MOL0     H71778  10.685   7.658   1.955 -1.1961  0.6791  0.1775
  532MOL0     H71779  10.595   7.667   1.795 -1.7513  0.6571 -0.7315
  532MOL0     H71780  10.838   7.690   1.783 -2.3175  0.6805 -1.3865
  532MOL0     H71781  11.026   7.674   1.599  1.0558  0.9236  2.8130
  532MOL0     H71782  11.147   7.249   1.183  0.8088 -4.1562  0.7502
  532MOL0     H71783  11.337   7.241   1.037 -0.2058 -2.6634  0.9028
  532MOL0     H71784  11.734   7.351   1.261  3.3384  0.4253 -0.1005
  532MOL0     H71785  11.779   7.303   1.097 -1.6302 -2.0000  1.3661
  532MOL0     H71786  11.695   7.538   1.032 -3.7377 -2.4808  0.3756
  532MOL0     H71787  11.650   7.567   1.205  0.6197  0.4219  1.0639
  532MOL0     H71788  11.851   7.685   1.196 -0.6971  0.5400  1.7629
  532MOL0     H71789  11.899   7.535   1.266 -0.1825  2.3101  1.3572
  532MOL0     H71790  11.928   7.565   0.970  3.2740  4.4486 -0.5757
  532MOL0     H71791  11.975   7.422   1.062 -2.1429 -0.7693 -1.5539
  532MOL0     H71792  12.091   7.626   1.214  0.7980 -1.8958  0.9236
  532MOL0     H71793  12.117   7.672   1.040 -0.3057  2.5776  2.0963
  532MOL0     H71794  12.176   7.403   1.138  0.4593  2.4853  2.2700
  532MOL0     H71795  12.188   7.462   0.964 -1.3466  2.0221 -1.2229
  532MOL0     H71796  12.359   7.629   1.065  0.4025 -0.2698 -1.0541
  532MOL0     H71797  12.414   7.456   1.053  1.5425 -1.1139  3.7704
  532MOL0     H71798  12.491   7.584   1.263 -0.8613  0.4658  4.9889
  532MOL0     H71799  12.330   7.594   1.314  0.0092 -2.9267  2.8611
  532MOL0     H71800  11.582   7.365   1.381 -0.6734 -0.5713  1.0741
  532MOL0     H71801  11.389   7.378   1.510 -1.0872 -2.4838 -0.5158
  532MOL0     H71802  10.931   7.264   1.547 -0.9882 -0.6628  1.5751
  532MOL0     H71803  10.759   7.282   1.739  1.1606 -0.1547  1.9131
  532MOL0     H71804   8.994   6.782   2.321  0.1298  0.6140  1.2825
  532MOL0     H71805   8.753   6.718   2.279 -0.0931 -0.7236  1.3433
  532MOL0     H71806   8.313   6.835   2.326  1.1186 -2.0110 -0.5644
  532MOL0     H71807   8.112   6.754   2.309  1.9034 -1.2627 -0.7437
  532MOL0     H71808   7.898   6.677   2.689 -3.9725  1.1155 -0.6592
  532MOL0     H71809   7.929   6.498   2.673  1.9207  0.8281  1.8997
  532MOL0     H71810   7.713   6.496   2.546  0.7452  0.5749  0.6699
  532MOL0     H71811   7.698   6.672   2.585  0.2131  0.8411 -1.1405
  532MOL0     H71812   7.721   6.602   2.822  0.3558  1.2963 -2.2045
  532MOL0     H71813   7.714   6.433   2.788 -4.1325 -0.9430 -0.6547
  532MOL0     H71814   7.478   6.468   2.861  0.1298 -1.0697 -1.0912
  532MOL0     H71815   7.497   6.638   2.814  2.7908  1.7308 -1.5281
  532MOL0     H71816   7.361   6.438   2.469 -2.1185  1.1957  0.6270
  532MOL0     H71817   8.126   6.585   2.702  1.9637  0.0015 -0.1722
  532MOL0     H71818   8.388   6.739   2.828  2.9091 -0.3901  0.6222
  532MOL0     H71819   8.305   6.594   2.833  0.4165 -0.0347 -0.4559
  532MOL0     H71820   8.456   6.589   2.743 -2.6117 -3.0913 -2.0153
  533MOL0     O71821  10.656   1.748  10.611  0.1772 -0.5943  0.2067
  533MOL0     C71822  10.568   1.666  10.583 -0.7955 -0.2473  1.1046
  533MOL0     O71823  10.602   1.539  10.536 -0.4546 -0.3653  0.1060
  533MOL0     C71824  10.734   1.523  10.505 -0.4075  0.9117 -0.4182
  533MOL0     C71825  10.793   1.599  10.403 -0.2028  0.3460  0.8390
  533MOL0     C71826  10.928   1.585  10.364 -0.3039 -0.8711  0.2951
  533MOL0     C71827  11.011   1.500  10.435  0.2138  0.5833  0.0688
  533MOL0     O71828  11.148   1.497  10.409  0.0561  0.1407 -0.0104
  533MOL0     C71829  11.201   1.358  10.385  0.1802 -1.2144  0.5657
  533MOL0     C71830  11.347   1.366  10.347  0.6262 -0.6530  0.2908
  533MOL0     C71831  11.401   1.220  10.369  0.2614  0.4151 -0.1377
  533MOL0     C71832  11.538   1.189  10.306 -0.6391 -0.7119  0.0691
  533MOL0     C71833  11.529   1.186  10.153 -0.4346  0.4745  0.2692
  533MOL0     C71834  11.654   1.250  10.090  0.1752 -0.4398 -0.2818
  533MOL0     C71835  11.782   1.181  10.147  0.2547 -0.6461 -0.0023
  533MOL0     C71836  11.897   1.233  10.052 -0.8532  0.3909  0.1670
  533MOL0     N71837  11.943   1.369  10.091  0.4731 -0.9717  0.0891
  533MOL0     C71838  11.933   1.477  10.006  0.0367 -0.4679  0.7115
  533MOL0     C71839  11.975   1.589  10.072 -0.8309  0.9235  0.2894
  533MOL0     C71840  12.007   1.724  10.011  0.7323 -0.1488 -0.7207
  533MOL0     C71841  12.110   1.707   9.895 -0.4180  1.3548 -0.5427
  533MOL0     C71842  12.131   1.826   9.803 -0.5270 -0.6262  0.2275
  533MOL0     C71843  12.272   1.859   9.769  0.4491  0.6197 -0.3619
  533MOL0     O71844  12.323   1.762   9.677 -0.4820 -0.0597  0.0651
  533MOL0     C71845  12.449   1.794   9.626  0.6276 -0.0799  0.4755
  533MOL0     C71846  12.489   1.711   9.528 -0.6126  0.3713 -0.3418
  533MOL0     C71847  12.607   1.733   9.459 -0.5011  0.9427 -0.6114
  533MOL0     C71848  12.687   1.850   9.483  0.2793  0.3542  0.6250
  533MOL0     C71849  12.812   1.866   9.406  0.8227  0.8044 -0.2502
  533MOL0     O71850  12.880   1.757   9.352 -0.1830  0.3023  0.0736
  533MOL0     C71851  12.997   1.766   9.295 -1.0354  0.0418  0.9531
  533MOL0     C71852  13.104   1.797   9.376 -0.3173  0.5783 -0.1548
  533MOL0     C71853  13.231   1.815   9.330 -0.1105 -0.4075  0.0070
  533MOL0     C71854  13.256   1.803   9.193  0.3889  0.1794 -0.5057
  533MOL0     O71855  13.383   1.804   9.146  0.7884 -0.6939  0.6224
  533MOL0     C71856  13.413   1.864   9.020  0.1538  0.2665 -0.6651
  533MOL0     C71857  13.570   1.880   9.001  1.0543  0.1768  0.4336
  533MOL0     C71858  13.612   1.735   8.991  0.2288  0.4760 -0.5596
  533MOL0     C71859  13.759   1.720   8.954  0.9392 -0.2511  1.1696
  533MOL0     C71860  13.856   1.814   9.012 -0.1381 -0.4686 -0.3325
  533MOL0     C71861  14.004   1.778   9.005 -1.0509 -0.3656 -0.4743
  533MOL0     C71862  14.060   1.796   8.864 -1.2027 -0.7567  0.0075
  533MOL0     C71863  14.219   1.793   8.870 -0.7138 -0.0770 -0.4378
  533MOL0    Cl71864  14.271   1.626   8.865 -0.2805 -0.3135  0.1628
  533MOL0     C71865  13.148   1.763   9.108  0.0667 -0.3019  1.1037
  533MOL0     C71866  13.017   1.753   9.156 -0.0892  0.2108  0.4521
  533MOL0     O71867  12.846   1.981   9.394 -0.6560  0.1656 -0.0296
  533MOL0     C71868  12.650   1.931   9.593 -0.3477  0.4349 -1.2798
  533MOL0     C71869  12.538   1.895   9.669  0.4937 -0.1753 -0.3965
  533MOL0     N71870  12.021   1.552  10.201  0.4265 -0.3866 -0.3491
  533MOL0     N71871  12.000   1.421  10.204  0.7348  0.5272  0.2745
  533MOL0     C71872  10.946   1.415  10.533 -0.3668 -0.1281  0.2042
  533MOL0     C71873  10.810   1.428  10.574  0.1818 -0.0921  0.3548
  533MOL0     C71874  10.429   1.711  10.584  1.3061 -1.2294 -0.0208
  533MOL0     C71875  10.332   1.623  10.535 -0.9465 -0.3749 -1.4585
  533MOL0     C71876  10.192   1.648  10.549 -0.5067  0.2409 -0.8035
  533MOL0     C71877  10.154   1.776  10.587  0.1633  0.1058  0.6903
  533MOL0     O71878  10.017   1.804  10.591 -0.5933 -0.1869  0.0214
  533MOL0     C71879   9.986   1.908  10.503 -0.5873  0.6486 -0.0872
  533MOL0     C71880   9.850   1.884  10.438  0.1405  0.0947  0.8173
  533MOL0     C71881   9.840   1.760  10.345 -0.1919 -0.7050  0.0472
  533MOL0     C71882   9.702   1.736  10.266  0.1865 -0.6923 -0.0029
  533MOL0     C71883   9.703   1.838  10.153  0.4276  0.1821 -0.9484
  533MOL0     C71884   9.690   1.931  10.072 -0.4500 -0.7650  0.6921
  533MOL0     C71885  10.249   1.876  10.626  0.2456 -0.1123  0.3856
  533MOL0     C71886  10.382   1.837  10.638 -0.0084 -0.5911 -0.6393
  533MOL0     C71887  10.475   1.936  10.715 -0.0263  0.9636 -0.4064
  533MOL0     H71888  10.737   1.666  10.339  2.6750  0.5921 -1.6582
  533MOL0     H71889  10.965   1.649  10.285 -0.5927 -0.5296  0.4300
  533MOL0     H71890  11.199   1.299  10.477 -0.3150 -0.4991  1.0240
  533MOL0     H71891  11.143   1.305  10.310 -1.1383 -0.4810  1.0337
  533MOL0     H71892  11.401   1.422  10.424 -0.2314 -3.5555  3.1985
  533MOL0     H71893  11.360   1.413  10.249  0.1288 -3.2057 -1.0914
  533MOL0     H71894  11.329   1.139  10.353  0.7674 -0.5639  2.1242
  533MOL0     H71895  11.422   1.212  10.476  0.4089 -1.8359 -0.2893
  533MOL0     H71896  11.605   1.272  10.333 -2.1829  0.6380 -0.0926
  533MOL0     H71897  11.576   1.099  10.354 -0.5516 -0.0890  1.2044
  533MOL0     H71898  11.536   1.082  10.121  3.5770  0.8398 -0.5523
  533MOL0     H71899  11.440   1.236  10.115 -0.2111  0.3247 -0.4662
  533MOL0     H71900  11.648   1.234   9.982  1.6642  2.9680 -1.0018
  533MOL0     H71901  11.647   1.359  10.095  2.6153 -0.2520  0.2335
  533MOL0     H71902  11.785   1.072  10.136  1.0504 -0.6394  0.0844
  533MOL0     H71903  11.806   1.211  10.250 -1.3003  1.2592 -0.1424
  533MOL0     H71904  11.990   1.178  10.068 -0.4737  0.9284 -0.1488
  533MOL0     H71905  11.876   1.227   9.945 -0.1556  0.6030  0.0106
  533MOL0     H71906  11.894   1.475   9.904  0.1566  2.5193  0.5279
  533MOL0     H71907  11.917   1.772   9.971 -0.0333 -1.3378 -0.4725
  533MOL0     H71908  12.037   1.806  10.077 -2.1138  2.3566 -2.2799
  533MOL0     H71909  12.210   1.685   9.934 -0.4219 -0.4079 -1.4405
  533MOL0     H71910  12.086   1.624   9.828  0.1837 -0.3521  1.2618
  533MOL0     H71911  12.091   1.911   9.858  0.3426 -0.7473  1.0588
  533MOL0     H71912  12.074   1.795   9.714 -0.5704 -1.2541  0.4693
  533MOL0     H71913  12.310   1.848   9.871 -0.6569 -0.7446 -0.0673
  533MOL0     H71914  12.285   1.961   9.730  2.4190  1.6164  2.5122
  533MOL0     H71915  12.435   1.623   9.494  1.5871 -1.9345  1.6695
  533MOL0     H71916  12.637   1.657   9.388 -0.3692 -1.8766  2.2762
  533MOL0     H71917  13.078   1.822   9.478  1.8886 -1.9962  1.1653
  533MOL0     H71918  13.303   1.828   9.410  0.1767  0.4458 -0.3729
  533MOL0     H71919  13.367   1.810   8.936 -0.2188  1.3531 -1.1854
  533MOL0     H71920  13.380   1.969   9.024 -2.3735 -0.5065  0.4453
  533MOL0     H71921  13.597   1.932   8.909 -2.2139  0.4128 -0.5213
  533MOL0     H71922  13.621   1.930   9.084 -0.4314 -0.4700  1.8203
  533MOL0     H71923  13.604   1.706   9.096  0.4821  2.1407 -0.0512
  533MOL0     H71924  13.549   1.674   8.925 -0.2341  1.0096 -0.6130
  533MOL0     H71925  13.765   1.727   8.845 -1.3731  0.1436  1.0169
  533MOL0     H71926  13.777   1.616   8.982 -1.0575 -0.8321  0.4947
  533MOL0     H71927  13.831   1.822   9.119  0.0924  1.4759 -0.3823
  533MOL0     H71928  13.850   1.910   8.960 -1.0094 -0.6666 -0.6167
  533MOL0     H71929  14.057   1.843   9.075  2.4774 -0.7105 -2.6097
  533MOL0     H71930  14.006   1.676   9.045 -0.9536 -0.2890 -0.2823
  533MOL0     H71931  14.028   1.895   8.833 -0.1464 -0.0991  0.9153
  533MOL0     H71932  14.016   1.719   8.800 -3.1125 -0.7276  1.2178
  533MOL0     H71933  14.271   1.850   8.792  3.9300 -3.4102 -0.1748
  533MOL0     H71934  14.259   1.838   8.962 -0.2242 -1.8068  0.2420
  533MOL0     H71935  13.174   1.750   9.003  1.0777 -0.5993  1.3800
  533MOL0     H71936  12.926   1.711   9.116 -0.1250 -1.6023  2.2675
  533MOL0     H71937  12.703   2.023   9.615 -1.3371  0.6679  0.2269
  533MOL0     H71938  12.509   1.941   9.763 -1.3329 -1.9382 -0.0255
  533MOL0     H71939  10.999   1.332  10.579 -0.2252  0.6356  1.4649
  533MOL0     H71940  10.757   1.363  10.643  2.7964 -0.5224  2.1048
  533MOL0     H71941  10.352   1.538  10.471 -1.6144 -1.2355 -0.5741
  533MOL0     H71942  10.116   1.575  10.524 -0.0388 -1.2668  1.8660
  533MOL0     H71943  10.063   1.898  10.426  0.3712  1.5419  0.7198
  533MOL0     H71944   9.997   2.006  10.551  1.7035  0.2329  0.3596
  533MOL0     H71945   9.833   1.973  10.378 -2.2940  0.7707  2.3286
  533MOL0     H71946   9.766   1.883  10.509  2.2604  2.7357  3.5937
  533MOL0     H71947   9.844   1.674  10.412 -3.3777 -0.2814  0.9316
  533MOL0     H71948   9.931   1.761  10.283  0.4053 -0.0145  0.9089
  533MOL0     H71949   9.688   1.632  10.237  0.0454 -0.8469  0.6105
  533MOL0     H71950   9.611   1.756  10.324  0.4568 -0.4181  0.3285
  533MOL0     H71951   9.667   2.004   9.998 -2.5003 -2.5579 -0.5773
  533MOL0     H71952  10.218   1.973  10.662 -3.3564 -0.1452 -2.0034
  533MOL0     H71953  10.538   2.000  10.653 -0.6010  2.6297  0.6638
  533MOL0     H71954  10.411   2.006  10.769 -2.9120 -3.2263  2.2360
  533MOL0     H71955  10.541   1.883  10.783 -0.2085 -0.2752 -1.1501
  534MOL0     O71956  11.180   3.888   6.379  0.3583 -0.8388  0.2918
  534MOL0     C71957  11.143   3.807   6.294  0.6572 -0.7780  0.6001
  534MOL0     O71958  11.220   3.705   6.251  0.2142 -0.3997  0.1891
  534MOL0     C71959  11.357   3.698   6.279  0.4830  0.2262  1.0098
  534MOL0     C71960  11.426   3.731   6.394  0.1147 -0.8086 -0.8790
  534MOL0     C71961  11.564   3.699   6.408  0.1105  0.6300 -0.2780
  534MOL0     C71962  11.632   3.645   6.296  0.1575 -0.1864  0.0114
  534MOL0     O71963  11.767   3.625   6.310 -0.1445  0.4463  0.1787
  534MOL0     C71964  11.791   3.483   6.336  0.5196 -0.0804  0.0052
  534MOL0     C71965  11.937   3.455   6.368  0.5952  0.7737  0.1149
  534MOL0     C71966  11.973   3.507   6.505  0.1060  0.0628 -0.4458
  534MOL0     C71967  12.081   3.411   6.569  0.8716 -0.4674 -0.1541
  534MOL0     C71968  12.152   3.483   6.684 -0.3252 -0.8156 -0.3534
  534MOL0     C71969  12.261   3.397   6.755  0.9932 -0.4280 -0.2980
  534MOL0     C71970  12.278   3.458   6.890  0.8190 -0.6209  0.5162
  534MOL0     C71971  12.385   3.392   6.975  0.6947 -0.1201  0.5569
  534MOL0     N71972  12.521   3.434   6.935 -0.3893 -0.4599 -0.1577
  534MOL0     C71973  12.570   3.568   6.954 -0.8351  0.3470 -0.7561
  534MOL0     C71974  12.701   3.546   6.937 -0.1225 -0.7365  0.0735
  534MOL0     C71975  12.802   3.653   6.981  1.0463  0.1516 -0.4415
  534MOL0     C71976  12.935   3.601   7.027  0.2557  0.2525 -0.0610
  534MOL0     C71977  12.987   3.701   7.124  0.6543 -0.7816 -0.4394
  534MOL0     C71978  13.134   3.664   7.155  0.5381 -0.4066  0.0612
  534MOL0     O71979  13.210   3.774   7.206  0.6675 -0.8158 -0.0531
  534MOL0     C71980  13.193   3.809   7.340  0.1385 -0.2299  0.8834
  534MOL0     C71981  13.113   3.739   7.436 -0.4346 -0.0278  0.3337
  534MOL0     C71982  13.108   3.786   7.570  0.2380  0.2400  0.0596
  534MOL0     C71983  13.167   3.902   7.606 -0.2793  0.2879 -0.2641
  534MOL0     C71984  13.167   3.956   7.751 -0.3272 -0.2808  0.0887
  534MOL0     O71985  13.072   3.912   7.831 -0.5049  0.6694 -0.2445
  534MOL0     C71986  13.032   3.953   7.960  0.3032 -0.6125  0.2977
  534MOL0     C71987  13.053   4.071   8.034  0.1861  0.3101  0.4053
  534MOL0     C71988  12.992   4.098   8.156  0.3721  0.9824 -0.2016
  534MOL0     C71989  12.895   4.015   8.200  0.5746  0.1708 -0.5355
  534MOL0     O71990  12.822   4.025   8.317  0.2505 -0.0758  0.2695
  534MOL0     C71991  12.873   4.108   8.418  0.1265  0.9097  0.2778
  534MOL0     C71992  12.786   4.090   8.552 -0.8156  0.0054  0.4351
  534MOL0     C71993  12.857   4.166   8.661  0.5610 -0.0103  0.0296
  534MOL0     C71994  12.968   4.076   8.729 -0.2790 -0.3512 -0.9216
  534MOL0     C71995  13.053   4.166   8.826 -0.1298  0.1026 -0.4309
  534MOL0     C71996  13.183   4.087   8.874 -0.2622 -0.3554 -0.2164
  534MOL0     C71997  13.292   4.200   8.910  0.6542  0.9407  0.2403
  534MOL0     C71998  13.418   4.143   8.976  0.3552 -0.1779  0.8034
  534MOL0    Cl71999  13.399   4.100   9.152  0.0461  0.0274 -0.0702
  534MOL0     C72000  12.880   3.890   8.138 -0.4941  0.3841 -0.4292
  534MOL0     C72001  12.954   3.858   8.023  0.5722  0.3783 -0.6034
  534MOL0     O72002  13.246   4.051   7.778  0.1161  0.0805 -0.1255
  534MOL0     C72003  13.251   3.968   7.513  0.5147 -0.2678 -0.6449
  534MOL0     C72004  13.259   3.925   7.375 -0.0884  0.1095 -0.2360
  534MOL0     N72005  12.731   3.419   6.893  0.1160 -0.0534  0.2378
  534MOL0     N72006  12.625   3.348   6.891  0.2121  0.4456  0.1110
  534MOL0     C72007  11.560   3.628   6.178 -1.4026  0.2776 -0.0065
  534MOL0     C72008  11.423   3.654   6.165  0.3705 -0.0734 -0.3216
  534MOL0     C72009  11.020   3.844   6.223  0.4215 -0.8621  0.1438
  534MOL0     C72010  10.974   3.976   6.235  0.3958  0.5340 -0.3820
  534MOL0     C72011  10.869   4.027   6.158  0.2110  0.4251  0.1555
  534MOL0     C72012  10.797   3.942   6.079 -0.1183 -0.7979 -1.0337
  534MOL0     O72013  10.683   4.002   6.017  0.2204  0.2038 -0.2285
  534MOL0     C72014  10.627   3.927   5.913 -0.3236 -0.2967 -0.4795
  534MOL0     C72015  10.491   3.993   5.867 -0.8612  0.1906 -0.5350
  534MOL0     C72016  10.368   3.955   5.952  0.2323 -0.3048 -0.3105
  534MOL0     C72017  10.242   4.045   5.914 -0.9317  0.6549 -0.2641
  534MOL0     C72018  10.126   3.995   5.992 -0.5075  0.0126 -0.7250
  534MOL0     C72019  10.037   3.959   6.073 -0.3858  1.2096  0.0546
  534MOL0     C72020  10.826   3.803   6.083 -0.5466 -0.5024 -0.3703
  534MOL0     C72021  10.941   3.757   6.143 -0.5853 -0.6126  0.0992
  534MOL0     C72022  10.968   3.608   6.156 -0.3134  0.2334  0.3478
  534MOL0     H72023  11.368   3.779   6.473 -1.0864 -0.5250 -1.9054
  534MOL0     H72024  11.617   3.713   6.502 -1.3879  1.3029  0.4995
  534MOL0     H72025  11.737   3.458   6.428 -1.1379 -2.5875 -1.5320
  534MOL0     H72026  11.763   3.426   6.247  1.2633 -2.2681  1.1085
  534MOL0     H72027  12.000   3.494   6.287 -0.0405  2.1699  0.2737
  534MOL0     H72028  11.952   3.347   6.362  1.2034  0.6750  2.5456
  534MOL0     H72029  11.891   3.515   6.578  1.5228 -2.6586  1.6709
  534MOL0     H72030  12.016   3.607   6.506  0.7929 -0.2073  1.6021
  534MOL0     H72031  12.030   3.320   6.603  0.0676 -0.2820 -0.8250
  534MOL0     H72032  12.151   3.374   6.493  1.0238  0.3537 -0.4222
  534MOL0     H72033  12.201   3.573   6.648  1.4230 -1.7900 -0.5412
  534MOL0     H72034  12.074   3.512   6.755  1.8433  3.7423  0.4732
  534MOL0     H72035  12.226   3.293   6.760  0.2713 -0.2534 -1.3807
  534MOL0     H72036  12.360   3.397   6.709  0.8581 -1.4795 -0.6185
  534MOL0     H72037  12.188   3.461   6.952  1.1074 -1.5352  0.9966
  534MOL0     H72038  12.296   3.565   6.872  0.3552 -0.5905  0.2019
  534MOL0     H72039  12.373   3.426   7.078  2.3163  0.8379  0.4727
  534MOL0     H72040  12.378   3.283   6.971  1.4274 -0.1613 -3.1212
  534MOL0     H72041  12.519   3.658   6.989 -1.2128 -0.4998  1.0067
  534MOL0     H72042  12.830   3.727   6.905 -0.0951 -2.8914 -4.1103
  534MOL0     H72043  12.758   3.711   7.063  0.1044 -2.3139  0.8948
  534MOL0     H72044  12.921   3.504   7.073  2.7274 -1.7751 -3.1006
  534MOL0     H72045  13.004   3.590   6.942 -1.6686 -2.3626 -1.4324
  534MOL0     H72046  12.930   3.718   7.215 -0.4033  0.7846 -1.3552
  534MOL0     H72047  12.994   3.798   7.074  0.6466  0.0036  1.0371
  534MOL0     H72048  13.187   3.653   7.060  3.5285  0.2252  1.5583
  534MOL0     H72049  13.129   3.567   7.206 -3.7859 -0.4987 -0.1414
  534MOL0     H72050  13.065   3.642   7.420  0.6354 -0.5879  0.3945
  534MOL0     H72051  13.043   3.726   7.632  3.1715 -2.3539  0.8434
  534MOL0     H72052  13.108   4.149   7.982 -0.3661 -0.7864 -1.9843
  534MOL0     H72053  12.999   4.194   8.206 -2.8665 -0.3924  3.3820
  534MOL0     H72054  12.975   4.070   8.434 -0.1600 -1.0776 -2.0227
  534MOL0     H72055  12.875   4.214   8.390  0.0388  0.5638 -1.1348
  534MOL0     H72056  12.684   4.123   8.531 -0.4524 -0.6590 -2.8607
  534MOL0     H72057  12.795   3.984   8.578 -0.0255 -0.5132 -1.7308
  534MOL0     H72058  12.911   4.247   8.610  2.8740 -1.1876  0.4902
  534MOL0     H72059  12.784   4.206   8.733  0.5243  0.1619 -0.1010
  534MOL0     H72060  13.039   4.041   8.653 -3.4498 -1.5763 -3.5466
  534MOL0     H72061  12.920   3.989   8.773 -2.2486 -0.0185 -2.2831
  534MOL0     H72062  12.996   4.198   8.914 -0.8259 -1.8400 -0.1387
  534MOL0     H72063  13.085   4.257   8.774  0.9195 -0.3306 -0.5678
  534MOL0     H72064  13.155   4.027   8.961 -0.6818 -0.1899 -0.2346
  534MOL0     H72065  13.223   4.020   8.797 -0.4444  0.4207 -0.9998
  534MOL0     H72066  13.238   4.276   8.969  0.1256  0.2494  0.6691
  534MOL0     H72067  13.328   4.241   8.815  3.7992 -2.7383 -0.4054
  534MOL0     H72068  13.447   4.056   8.916 -1.8155  0.0174 -0.6324
  534MOL0     H72069  13.481   4.232   8.966 -1.4906  0.8707 -3.7947
  534MOL0     H72070  12.827   3.805   8.179  2.8030 -0.2180  3.2820
  534MOL0     H72071  12.939   3.756   7.990 -0.9807  0.2646  0.3487
  534MOL0     H72072  13.305   4.057   7.543 -3.1502  2.3299 -1.1019
  534MOL0     H72073  13.326   3.963   7.299  1.8499 -1.8065  0.4109
  534MOL0     H72074  11.622   3.595   6.095 -0.5003  3.0707 -0.5404
  534MOL0     H72075  11.369   3.639   6.071  1.0379 -0.2817 -0.6761
  534MOL0     H72076  11.031   4.047   6.294  1.1945  0.2404 -0.7959
  534MOL0     H72077  10.841   4.128   6.185  0.6368  0.3241  1.0190
  534MOL0     H72078  10.606   3.827   5.952 -1.0936 -0.2872 -0.8438
  534MOL0     H72079  10.702   3.924   5.834  3.3499 -1.5419  2.7564
  534MOL0     H72080  10.475   3.969   5.762 -2.5856  0.2519 -0.3182
  534MOL0     H72081  10.511   4.101   5.875  2.4295 -0.4179  1.0295
  534MOL0     H72082  10.399   3.947   6.057 -1.4436 -1.0975  0.1573
  534MOL0     H72083  10.329   3.856   5.929 -1.5886  0.4430 -0.6657
  534MOL0     H72084  10.256   4.152   5.935  0.8775  0.4353 -0.2351
  534MOL0     H72085  10.234   4.028   5.806 -1.6540 -1.1354  0.0399
  534MOL0     H72086   9.956   3.928   6.136  0.8251  0.4076  1.2552
  534MOL0     H72087  10.762   3.731   6.032 -0.3904 -0.6748 -0.3230
  534MOL0     H72088  11.060   3.575   6.108 -0.9507  0.6220 -1.1965
  534MOL0     H72089  10.990   3.574   6.258 -0.5214 -1.6389 -0.1946
  534MOL0     H72090  10.887   3.551   6.109 -0.2972  0.7585 -0.3260
  535MOL0     O72091   6.961   6.052   0.573 -0.6322 -0.3591 -0.0743
  535MOL0     C72092   6.951   6.177   0.587  0.4009 -0.1032  0.0514
  535MOL0     O72093   7.025   6.257   0.675  0.6024 -0.0369 -0.7286
  535MOL0     C72094   7.110   6.181   0.751 -0.0105  0.0156 -0.5841
  535MOL0     C72095   7.066   6.118   0.859 -0.4265  0.1122  0.8359
  535MOL0     C72096   7.147   6.049   0.948 -0.2461  0.2512 -0.5780
  535MOL0     C72097   7.273   6.027   0.909 -0.2455  0.6658  0.1391
  535MOL0     O72098   7.329   5.928   0.980 -0.1238 -0.3214 -0.2927
  535MOL0     C72099   7.467   5.920   0.983 -0.7028 -0.6042 -0.4225
  535MOL0     C72100   7.537   6.032   1.068  0.9807  0.7242  0.4680
  535MOL0     C72101   7.676   5.986   1.101 -1.2387 -0.4598 -0.4078
  535MOL0     C72102   7.771   6.102   1.132  0.0548 -0.1265  0.8814
  535MOL0     C72103   7.912   6.049   1.160 -0.1322 -0.7049  0.1521
  535MOL0     C72104   8.016   6.166   1.192 -0.3085 -0.1021 -0.1383
  535MOL0     C72105   8.156   6.101   1.216  0.0200 -0.0239 -0.2444
  535MOL0     C72106   8.186   6.014   1.346  0.1815 -0.1105  0.3497
  535MOL0     N72107   8.329   5.993   1.373  0.8784  0.3764 -0.6066
  535MOL0     C72108   8.384   5.866   1.377  0.3517 -0.7400 -0.5626
  535MOL0     C72109   8.519   5.889   1.394  0.5819 -0.0191 -0.4455
  535MOL0     C72110   8.607   5.774   1.374 -0.8713  0.6534 -0.0816
  535MOL0     C72111   8.737   5.776   1.466 -0.8302  0.1854 -0.5069
  535MOL0     C72112   8.835   5.657   1.414  0.7065 -1.7089  0.1510
  535MOL0     C72113   8.975   5.680   1.475  0.2428 -0.0698  0.9626
  535MOL0     O72114   9.037   5.800   1.420 -0.2718  0.6312 -0.2934
  535MOL0     C72115   9.165   5.838   1.458 -0.0219 -0.1997 -0.5525
  535MOL0     C72116   9.238   5.778   1.562  0.1310 -0.1455 -0.6109
  535MOL0     C72117   9.368   5.827   1.596  0.2223 -0.6974 -0.6799
  535MOL0     C72118   9.426   5.933   1.517  0.2857  0.1038  0.2548
  535MOL0     C72119   9.561   5.994   1.540  0.0615 -0.3823  0.3059
  535MOL0     O72120   9.636   5.948   1.644 -0.4224  0.0838  1.0242
  535MOL0     C72121   9.771   5.942   1.621  0.2687 -0.5235 -0.5278
  535MOL0     C72122   9.851   6.028   1.693 -0.0313 -0.3381 -0.1575
  535MOL0     C72123   9.991   6.036   1.660  0.1851 -0.8285  0.1424
  535MOL0     C72124  10.044   5.951   1.567 -0.7679  0.0995 -0.2183
  535MOL0     O72125  10.174   5.968   1.530  1.3356 -0.1209 -0.3048
  535MOL0     C72126  10.212   5.976   1.391 -0.1646  0.4178  0.6852
  535MOL0     C72127  10.153   6.095   1.318  0.1865 -0.0980  0.1784
  535MOL0     C72128  10.211   6.101   1.176 -0.0579  0.0289  0.1938
  535MOL0     C72129  10.358   6.143   1.168 -0.2160  0.7816  0.3499
  535MOL0     C72130  10.402   6.148   1.023 -0.1651 -0.1185  0.8727
  535MOL0     C72131  10.542   6.222   1.006 -0.2511 -0.1969  0.1835
  535MOL0     C72132  10.660   6.141   1.069  0.2290  0.5390 -0.2811
  535MOL0     C72133  10.786   6.219   1.040  0.2391  0.0064  0.0462
  535MOL0    Cl72134  10.928   6.129   1.120  0.3653  0.2241 -0.0942
  535MOL0     C72135   9.960   5.850   1.513 -0.0913  0.3133  0.0744
  535MOL0     C72136   9.828   5.850   1.535 -0.1355  0.6585  0.2365
  535MOL0     O72137   9.604   6.074   1.454 -0.3503 -0.1188  0.2059
  535MOL0     C72138   9.353   5.989   1.404 -0.4602  0.0881 -0.5791
  535MOL0     C72139   9.219   5.941   1.386 -0.3717 -0.5075  0.0339
  535MOL0     N72140   8.535   6.024   1.405 -0.0645  0.2689 -0.0185
  535MOL0     N72141   8.419   6.084   1.399  0.1356 -0.3126 -0.8108
  535MOL0     C72142   7.338   6.092   0.799  0.7962  0.5945  0.1311
  535MOL0     C72143   7.243   6.178   0.726 -0.6263  0.0702  0.3017
  535MOL0     C72144   6.848   6.248   0.519 -0.3478  0.7002  0.2909
  535MOL0     C72145   6.722   6.190   0.508 -0.1295 -0.0459  0.7774
  535MOL0     C72146   6.615   6.255   0.444 -0.1836  0.6797 -0.0044
  535MOL0     C72147   6.627   6.388   0.415  0.6368 -0.5691  0.2420
  535MOL0     O72148   6.521   6.447   0.337  0.3489 -0.6064 -1.4824
  535MOL0     C72149   6.512   6.592   0.336  0.3729  0.8243  0.3971
  535MOL0     C72150   6.360   6.622   0.321  0.3116  0.6580  0.7241
  535MOL0     C72151   6.303   6.584   0.187  0.6370  0.6864 -0.0561
  535MOL0     C72152   6.339   6.706   0.086 -0.4399  0.5551 -0.5676
  535MOL0     C72153   6.287   6.667  -0.040 -0.2580 -0.0903 -0.6759
  535MOL0     C72154   6.231   6.629  -0.140 -0.1619 -0.2962 -0.2969
  535MOL0     C72155   6.758   6.450   0.416 -0.3301  0.3309  0.1499
  535MOL0     C72156   6.868   6.374   0.459 -0.1650  0.2828  0.2698
  535MOL0     C72157   7.010   6.432   0.446  0.5384  0.2823  0.2078
  535MOL0     H72158   6.960   6.131   0.882 -0.4951  0.3050  0.4096
  535MOL0     H72159   7.102   6.012   1.039  1.4714  0.7770  0.5359
  535MOL0     H72160   7.486   5.826   1.036 -0.6478 -0.9393 -1.0252
  535MOL0     H72161   7.515   5.912   0.885  0.2208 -0.9919  0.0496
  535MOL0     H72162   7.491   6.059   1.164  0.4046  0.8524  0.1553
  535MOL0     H72163   7.545   6.132   1.024  1.1099  1.8557  2.9077
  535MOL0     H72164   7.726   5.921   1.029  0.8902  0.5992  0.0352
  535MOL0     H72165   7.677   5.928   1.194 -1.2670 -0.4356 -0.3925
  535MOL0     H72166   7.781   6.170   1.048  0.5208 -0.1861  0.8875
  535MOL0     H72167   7.731   6.155   1.219  1.2838 -0.3677  1.6179
  535MOL0     H72168   7.906   5.983   1.246 -1.8247  0.0368  0.6512
  535MOL0     H72169   7.940   5.997   1.068 -1.7120 -1.1214 -0.1379
  535MOL0     H72170   8.030   6.231   1.105  1.4932  1.5772  1.3134
  535MOL0     H72171   7.969   6.235   1.263 -1.1934 -1.5827  0.7542
  535MOL0     H72172   8.224   6.184   1.198 -0.9872  0.1199 -4.2927
  535MOL0     H72173   8.165   6.028   1.135 -0.7849  1.7131 -1.9582
  535MOL0     H72174   8.145   6.055   1.438 -1.8116 -2.6959  0.7541
  535MOL0     H72175   8.140   5.915   1.353 -5.0253  1.9095 -0.5055
  535MOL0     H72176   8.353   5.763   1.360  2.6201 -2.1419  2.7375
  535MOL0     H72177   8.551   5.683   1.393 -2.3517  0.9410 -2.5698
  535MOL0     H72178   8.628   5.766   1.267 -2.0231 -0.7292 -0.2276
  535MOL0     H72179   8.792   5.869   1.453 -0.3720  0.2175  1.3959
  535MOL0     H72180   8.708   5.772   1.572  0.7388 -2.1973 -0.0964
  535MOL0     H72181   8.835   5.652   1.305  2.2272 -1.5302  0.1270
  535MOL0     H72182   8.804   5.562   1.458 -3.0186 -1.9082 -2.4470
  535MOL0     H72183   9.031   5.588   1.456  1.2773  0.8028 -0.3671
  535MOL0     H72184   8.979   5.689   1.584  0.3314 -2.3450  1.2026
  535MOL0     H72185   9.206   5.690   1.617  0.8468 -1.3939 -2.0983
  535MOL0     H72186   9.422   5.770   1.672 -0.2681  0.0234  0.2365
  535MOL0     H72187   9.812   6.104   1.759  0.8199  1.0156 -1.1488
  535MOL0     H72188  10.047   6.122   1.697 -0.5888  2.0654 -4.4971
  535MOL0     H72189  10.321   5.982   1.383 -0.1761  1.1825  1.0573
  535MOL0     H72190  10.172   5.888   1.339  2.2045 -0.0350 -0.5139
  535MOL0     H72191  10.043   6.092   1.312  0.2566 -0.5762 -1.2061
  535MOL0     H72192  10.181   6.187   1.370 -1.1638 -0.5315  1.7728
  535MOL0     H72193  10.202   6.008   1.120  0.1089  1.4880 -2.4307
  535MOL0     H72194  10.147   6.169   1.118  0.5862  1.0925  0.6940
  535MOL0     H72195  10.431   6.087   1.228  0.4666  1.6895  0.3857
  535MOL0     H72196  10.365   6.238   1.223 -1.2323 -0.4104  2.7271
  535MOL0     H72197  10.327   6.197   0.960  1.1745  0.2020 -0.5262
  535MOL0     H72198  10.430   6.048   0.988 -1.2254 -0.5829  1.3078
  535MOL0     H72199  10.556   6.230   0.898  0.9241  1.9213  0.4463
  535MOL0     H72200  10.539   6.322   1.049  1.6099  0.1607 -0.4202
  535MOL0     H72201  10.669   6.043   1.020  1.4021  0.4526  0.0695
  535MOL0     H72202  10.653   6.118   1.176 -2.3300 -1.1309 -0.7250
  535MOL0     H72203  10.795   6.214   0.931  0.0961 -0.9189  0.0709
  535MOL0     H72204  10.784   6.326   1.062 -1.4005 -0.4784  2.6207
  535MOL0     H72205  10.013   5.784   1.445 -0.8125  1.3973 -1.5879
  535MOL0     H72206   9.759   5.784   1.483 -1.5894  2.4347 -0.2091
  535MOL0     H72207   9.394   6.074   1.351 -1.2951  2.3221  2.1272
  535MOL0     H72208   9.150   5.978   1.311  0.1633  0.8208  0.1824
  535MOL0     H72209   7.441   6.083   0.768  0.2992  0.3433 -1.5833
  535MOL0     H72210   7.277   6.227   0.635 -3.9561  1.4896 -0.3360
  535MOL0     H72211   6.696   6.093   0.549 -1.9526  0.9896  2.2515
  535MOL0     H72212   6.527   6.191   0.444  1.7039 -2.2121  3.0477
  535MOL0     H72213   6.573   6.644   0.262  1.7802 -1.2417  0.0171
  535MOL0     H72214   6.552   6.632   0.430  1.6760 -0.2118  0.3117
  535MOL0     H72215   6.342   6.728   0.341 -0.6014  0.5372  0.5535
  535MOL0     H72216   6.306   6.561   0.394 -1.8224  0.6401 -0.7854
  535MOL0     H72217   6.194   6.583   0.190  0.6336  2.0613  1.3706
  535MOL0     H72218   6.337   6.484   0.159 -2.3566 -0.7584  1.0407
  535MOL0     H72219   6.286   6.800   0.105 -2.5299 -0.9736  1.8550
  535MOL0     H72220   6.445   6.729   0.071 -0.1524  0.4618  1.1094
  535MOL0     H72221   6.179   6.604  -0.230 -0.0441 -0.2289 -0.3845
  535MOL0     H72222   6.770   6.542   0.360 -0.3153 -0.1151 -0.6043
  535MOL0     H72223   7.093   6.364   0.467  1.3026  0.6947 -1.3754
  535MOL0     H72224   7.023   6.466   0.343  1.1207 -1.4300 -0.3228
  535MOL0     H72225   7.016   6.516   0.516 -0.7019  2.5407 -2.2465
  536MOL0     O72226   7.150   5.739   2.857  0.3857  0.1421 -0.9460
  536MOL0     C72227   7.119   5.806   2.767  0.8219 -0.7901  0.0452
  536MOL0     O72228   7.165   5.792   2.643 -0.0770 -0.2919 -0.5499
  536MOL0     C72229   7.258   5.701   2.609  0.6865  0.7708 -0.8149
  536MOL0     C72230   7.225   5.604   2.518  0.5086  0.3118 -0.3417
  536MOL0     C72231   7.314   5.503   2.481  0.1216 -0.7953 -0.2500
  536MOL0     C72232   7.441   5.511   2.526  0.0487 -0.0806 -0.6427
  536MOL0     O72233   7.548   5.429   2.480 -0.1675  0.3982 -0.3871
  536MOL0     C72234   7.519   5.336   2.382 -0.8084 -0.1546 -0.2989
  536MOL0     C72235   7.624   5.233   2.376  0.4070  0.8030 -1.3138
  536MOL0     C72236   7.764   5.296   2.402  0.2514  0.2386 -0.7592
  536MOL0     C72237   7.855   5.183   2.417 -0.6934 -0.3751  0.3407
  536MOL0     C72238   7.990   5.250   2.449 -0.4457 -1.0015 -0.1106
  536MOL0     C72239   8.109   5.157   2.438 -0.2134  0.0396 -0.4149
  536MOL0     C72240   8.233   5.219   2.488  0.0393  0.1459  0.6826
  536MOL0     C72241   8.348   5.121   2.491 -0.1015  0.6377  0.5689
  536MOL0     N72242   8.474   5.180   2.549 -0.0255 -0.2996  0.4919
  536MOL0     C72243   8.600   5.153   2.487  0.8759 -0.2052  0.1345
  536MOL0     C72244   8.688   5.173   2.587  0.2627 -0.6860  0.6975
  536MOL0     C72245   8.838   5.129   2.586  0.2974 -1.0333 -1.0487
  536MOL0     C72246   8.919   5.204   2.484  0.6806  0.4653 -0.2922
  536MOL0     C72247   9.073   5.195   2.499 -0.2127  0.8386 -0.4549
  536MOL0     C72248   9.140   5.293   2.582 -0.1824  0.6958 -0.5768
  536MOL0     O72249   9.278   5.296   2.549 -0.8802 -1.3301 -0.0444
  536MOL0     C72250   9.384   5.270   2.630  0.9477  0.5685  0.0885
  536MOL0     C72251   9.508   5.221   2.583  0.4396 -0.8431 -0.7771
  536MOL0     C72252   9.619   5.196   2.660  0.2201  0.6376 -0.3510
  536MOL0     C72253   9.610   5.194   2.802  0.2667  0.2278 -0.6890
  536MOL0     C72254   9.722   5.145   2.886 -0.1100 -0.3623 -0.4602
  536MOL0     O72255   9.836   5.098   2.828  0.6125 -0.5133 -0.0899
  536MOL0     C72256   9.940   5.079   2.909 -0.7676  0.2282 -0.0123
  536MOL0     C72257  10.005   5.174   2.992  0.2998 -0.1382  0.2523
  536MOL0     C72258  10.131   5.143   3.051 -0.3138  0.2946  0.5549
  536MOL0     C72259  10.182   5.015   3.034 -0.3576  0.2832  0.3964
  536MOL0     O72260  10.294   4.971   3.096 -0.5147 -0.2389 -0.4377
  536MOL0     C72261  10.403   5.051   3.053 -0.5130  0.5017 -0.6526
  536MOL0     C72262  10.529   4.962   3.076  0.4931  0.7939 -0.4349
  536MOL0     C72263  10.609   4.983   3.206  0.0766 -0.0768 -0.8701
  536MOL0     C72264  10.527   4.962   3.337 -0.0741  0.1872  0.5769
  536MOL0     C72265  10.634   4.957   3.457  0.1174 -0.6031 -0.1607
  536MOL0     C72266  10.567   4.982   3.597  1.0380  0.6609  0.7507
  536MOL0     C72267  10.667   4.937   3.704  0.7467  0.7850 -0.3121
  536MOL0     C72268  10.795   5.025   3.690  0.6852  0.0278 -0.1127
  536MOL0    Cl72269  10.765   5.202   3.671 -0.0079 -0.5438 -0.3135
  536MOL0     C72270  10.125   4.924   2.947  0.6317  0.2559  0.7649
  536MOL0     C72271  10.002   4.956   2.888 -0.2310  0.1631  0.5828
  536MOL0     O72272   9.711   5.169   2.999  0.9884  0.0707  0.3383
  536MOL0     C72273   9.488   5.253   2.851  0.4483  0.1153 -0.3600
  536MOL0     C72274   9.381   5.292   2.766 -0.8497  0.4766 -0.2175
  536MOL0     N72275   8.619   5.218   2.702 -0.4894  0.0972  0.7927
  536MOL0     N72276   8.490   5.209   2.677 -0.8688  0.5689 -0.8979
  536MOL0     C72277   7.482   5.617   2.622  0.5016 -0.6998  0.4863
  536MOL0     C72278   7.387   5.714   2.653 -0.4580 -0.0116 -0.6128
  536MOL0     C72279   7.055   5.935   2.802  0.5693  0.4859  0.0329
  536MOL0     C72280   7.088   6.050   2.727  1.0012 -0.4401 -0.4113
  536MOL0     C72281   7.031   6.182   2.753  0.2761  0.2278  1.3277
  536MOL0     C72282   6.948   6.188   2.861  0.3789  0.1445 -0.7171
  536MOL0     O72283   6.881   6.300   2.908 -0.7219  0.5597  0.0502
  536MOL0     C72284   6.884   6.414   2.826 -0.2579  0.2923  0.1959
  536MOL0     C72285   6.805   6.524   2.894  0.0787  0.8145 -0.3017
  536MOL0     C72286   6.806   6.660   2.827 -0.6732  0.3317  0.1368
  536MOL0     C72287   6.747   6.660   2.686  0.3318  0.4223 -0.4733
  536MOL0     C72288   6.611   6.601   2.680  0.0724 -0.0759 -0.7909
  536MOL0     C72289   6.500   6.552   2.679 -0.2990  0.5485 -0.4878
  536MOL0     C72290   6.914   6.071   2.936  0.3395  0.3341 -0.3734
  536MOL0     C72291   6.960   5.947   2.904 -0.0052 -0.2010  1.0672
  536MOL0     C72292   6.920   5.830   2.991 -0.0002  0.0387 -0.5189
  536MOL0     H72293   7.122   5.601   2.483 -0.1261  1.1752  1.3042
  536MOL0     H72294   7.295   5.422   2.411  3.7167 -4.0543  2.1115
  536MOL0     H72295   7.427   5.279   2.395  0.0596 -2.2862 -2.5659
  536MOL0     H72296   7.509   5.390   2.288  0.3922  4.1273  1.7780
  536MOL0     H72297   7.610   5.200   2.273  1.4026  0.4615 -1.3509
  536MOL0     H72298   7.601   5.148   2.441 -1.0869  0.7584 -1.8819
  536MOL0     H72299   7.776   5.358   2.492 -1.8347  0.9483 -0.9051
  536MOL0     H72300   7.792   5.356   2.315 -0.7444  0.3150 -1.0371
  536MOL0     H72301   7.834   5.117   2.502 -1.5250  1.4064  1.5595
  536MOL0     H72302   7.869   5.126   2.324  0.5021  0.3080  0.0909
  536MOL0     H72303   8.000   5.337   2.384 -0.0004  0.6617  2.0620
  536MOL0     H72304   7.986   5.297   2.548 -0.2958  1.2861 -1.1274
  536MOL0     H72305   8.079   5.065   2.490 -1.3070  0.7010  0.1516
  536MOL0     H72306   8.114   5.120   2.336 -2.2872 -2.5021  0.2726
  536MOL0     H72307   8.214   5.264   2.586 -1.8126 -1.0246  0.8993
  536MOL0     H72308   8.257   5.299   2.418 -2.6592 -0.0738 -0.6345
  536MOL0     H72309   8.312   5.033   2.544  0.3596  2.0150  3.3727
  536MOL0     H72310   8.363   5.108   2.383 -1.2283  0.8938  0.3736
  536MOL0     H72311   8.635   5.120   2.390 -1.3355  1.8285 -1.4745
  536MOL0     H72312   8.880   5.152   2.685 -2.6237  2.3529 -0.4096
  536MOL0     H72313   8.843   5.022   2.563  0.0831 -1.1839 -0.4160
  536MOL0     H72314   8.880   5.166   2.389 -1.4725  3.1466 -0.6119
  536MOL0     H72315   8.882   5.307   2.484  0.0877  0.3022  2.0958
  536MOL0     H72316   9.110   5.221   2.400 -1.4693  0.7993 -0.9543
  536MOL0     H72317   9.106   5.093   2.522  3.2941  2.0693  0.5441
  536MOL0     H72318   9.119   5.279   2.689 -1.4750 -1.2823 -1.0336
  536MOL0     H72319   9.106   5.393   2.556 -1.2497  0.8108  1.0770
  536MOL0     H72320   9.533   5.207   2.479  1.1770 -3.0552 -0.3386
  536MOL0     H72321   9.700   5.151   2.603 -1.7915 -1.5159 -1.6850
  536MOL0     H72322   9.958   5.272   2.982  1.3530  0.3849  0.3079
  536MOL0     H72323  10.187   5.214   3.111  0.5034  0.2116 -0.1075
  536MOL0     H72324  10.396   5.069   2.946 -1.5090 -0.7238 -0.8192
  536MOL0     H72325  10.421   5.146   3.105  0.4002 -0.8342  1.6265
  536MOL0     H72326  10.501   4.856   3.075  3.1070  0.0015  0.8884
  536MOL0     H72327  10.596   4.985   2.993  1.5195 -1.3426 -0.2584
  536MOL0     H72328  10.691   4.911   3.217 -2.1394 -2.7170 -0.6933
  536MOL0     H72329  10.652   5.084   3.201  1.2238 -0.5897 -3.6342
  536MOL0     H72330  10.483   4.862   3.331 -0.7900  0.5277  0.1789
  536MOL0     H72331  10.456   5.044   3.350  0.5241  0.6733  0.8454
  536MOL0     H72332  10.705   5.039   3.442 -2.5873  1.8422 -0.6216
  536MOL0     H72333  10.708   4.878   3.473  0.3466 -0.2681  0.5167
  536MOL0     H72334  10.536   5.085   3.615  2.5393  1.5373 -1.2971
  536MOL0     H72335  10.475   4.923   3.599 -0.4961  2.9379  1.1349
  536MOL0     H72336  10.677   4.828   3.699 -1.3514  0.4764  0.9644
  536MOL0     H72337  10.626   4.954   3.804  1.0723 -1.4537  0.2547
  536MOL0     H72338  10.844   5.004   3.786 -0.5098 -0.7080  0.3531
  536MOL0     H72339  10.848   4.977   3.608  0.6127 -2.7827  1.3594
  536MOL0     H72340  10.172   4.831   2.918  1.1032  1.0505 -1.2283
  536MOL0     H72341   9.965   4.895   2.806  1.8349 -1.1909  0.5673
  536MOL0     H72342   9.464   5.254   2.958 -0.1388  0.2755 -0.4864
  536MOL0     H72343   9.286   5.320   2.811 -1.7210 -0.6071 -1.3274
  536MOL0     H72344   7.588   5.622   2.646  0.6982 -0.9783 -0.3026
  536MOL0     H72345   7.417   5.794   2.720  0.0039 -1.4058  0.9380
  536MOL0     H72346   7.148   6.039   2.637 -0.0789  3.1754 -1.7606
  536MOL0     H72347   7.068   6.265   2.693  0.7881 -1.3104 -0.5603
  536MOL0     H72348   6.843   6.394   2.726  1.1662  1.4746 -0.6705
  536MOL0     H72349   6.991   6.435   2.817 -0.1884 -0.1982 -0.1649
  536MOL0     H72350   6.860   6.535   2.988  0.9076 -2.6111 -0.2751
  536MOL0     H72351   6.704   6.485   2.909  0.2481  0.7412  0.7140
  536MOL0     H72352   6.912   6.687   2.836 -0.7130  0.2359  0.8907
  536MOL0     H72353   6.754   6.736   2.886 -0.1224  0.8288 -0.0108
  536MOL0     H72354   6.737   6.764   2.654  1.9922  1.1435  1.1676
  536MOL0     H72355   6.801   6.608   2.606 -2.0494  0.5672 -2.2560
  536MOL0     H72356   6.402   6.507   2.673  1.0769 -2.9685  0.9316
  536MOL0     H72357   6.849   6.082   3.022  1.6608  0.7883  0.6003
  536MOL0     H72358   6.909   5.735   2.937 -0.5590 -0.9618  1.2653
  536MOL0     H72359   6.986   5.818   3.077 -3.7447  3.6556  3.3633
  536MOL0     H72360   6.831   5.857   3.049  2.0142  3.7359  1.1709
  537MOL0     O72361   0.775   7.456   6.823  0.4423 -0.2635  0.3725
  537MOL0     C72362   0.857   7.368   6.826 -0.2092  0.7025  0.4706
  537MOL0     O72363   0.821   7.232   6.828 -0.0565 -0.3079  0.3748
  537MOL0     C72364   0.695   7.204   6.787  0.3786  0.6916 -0.4310
  537MOL0     C72365   0.651   7.219   6.660 -0.1464  0.3598  0.2184
  537MOL0     C72366   0.522   7.173   6.620  0.4868  0.1160  0.0524
  537MOL0     C72367   0.426   7.132   6.719 -0.3839 -0.5904  1.2542
  537MOL0     O72368   0.298   7.084   6.693  0.2343 -0.7561  0.5202
  537MOL0     C72369   0.241   7.117   6.570  0.4910  0.3039 -0.5948
  537MOL0     C72370   0.108   7.039   6.567  0.0460  0.3568  0.2030
  537MOL0     C72371  -0.002   7.093   6.672  0.1314  0.3643 -0.1755
  537MOL0     C72372  -0.077   7.222   6.617 -0.3536  0.8266 -0.0501
  537MOL0     C72373  -0.205   7.249   6.707  0.8832  0.0233 -0.3616
  537MOL0     C72374  -0.268   7.389   6.696  0.2664  1.1178 -0.4154
  537MOL0     C72375  -0.296   7.430   6.546  0.0636 -0.7358 -0.4051
  537MOL0     C72376  -0.348   7.583   6.533  0.7674  0.2747  0.0320
  537MOL0     N72377  -0.253   7.677   6.569 -0.3152  0.1075 -0.0635
  537MOL0     C72378  -0.155   7.706   6.479 -0.0465 -0.2256  0.0001
  537MOL0     C72379  -0.088   7.819   6.529  0.8915  0.0490  0.2955
  537MOL0     C72380   0.010   7.893   6.453 -0.9160  0.0044  0.3319
  537MOL0     C72381   0.104   7.953   6.550 -0.0792  0.7241 -0.2398
  537MOL0     C72382   0.217   8.038   6.474  0.5750  0.5173 -0.2206
  537MOL0     C72383   0.340   8.062   6.555 -0.2066  0.2467  0.7129
  537MOL0     O72384   0.424   8.139   6.468 -0.0124  0.6112 -0.2551
  537MOL0     C72385   0.554   8.160   6.507  0.8601  0.1179 -0.3957
  537MOL0     C72386   0.619   8.267   6.443  0.5366 -0.0631  1.4956
  537MOL0     C72387   0.750   8.306   6.482 -0.8670 -0.1067  0.4847
  537MOL0     C72388   0.816   8.241   6.589  0.3189  0.3853 -0.7199
  537MOL0     C72389   0.955   8.287   6.613 -0.1816  0.3954  0.6454
  537MOL0     O72390   1.048   8.185   6.610  0.7086 -0.2506 -1.1103
  537MOL0     C72391   1.178   8.207   6.619 -0.0424  0.6671 -0.5368
  537MOL0     C72392   1.227   8.292   6.724 -0.2998  0.2505  0.3080
  537MOL0     C72393   1.369   8.318   6.732  0.0877 -0.1323  0.2178
  537MOL0     C72394   1.446   8.257   6.632 -0.8710  1.0413 -0.8520
  537MOL0     O72395   1.585   8.284   6.634 -0.2802  0.1905  0.1822
  537MOL0     C72396   1.649   8.295   6.508  0.4644 -0.3041 -0.7639
  537MOL0     C72397   1.597   8.399   6.413  0.4342 -0.7145 -0.1806
  537MOL0     C72398   1.646   8.389   6.265  0.8586  0.2545  0.2496
  537MOL0     C72399   1.764   8.479   6.243  0.7758  0.4537 -0.6485
  537MOL0     C72400   1.828   8.458   6.102  0.0209 -0.7631  0.0152
  537MOL0     C72401   1.725   8.524   5.998 -0.4499  1.0815 -0.9267
  537MOL0     C72402   1.781   8.521   5.858 -0.6463 -0.1234  0.2760
  537MOL0     C72403   1.708   8.591   5.740 -1.0274  0.5989 -0.1855
  537MOL0    Cl72404   1.827   8.590   5.613  0.0372  0.1464 -0.4114
  537MOL0     C72405   1.395   8.164   6.536 -0.5285 -0.2936  0.6453
  537MOL0     C72406   1.266   8.135   6.534 -0.2420  0.7708  0.8301
  537MOL0     O72407   0.969   8.402   6.640  0.1612  0.3749 -0.6393
  537MOL0     C72408   0.752   8.130   6.643  0.5597  0.1393 -0.0272
  537MOL0     C72409   0.618   8.101   6.622 -0.0733 -0.4834  0.2461
  537MOL0     N72410  -0.154   7.850   6.653 -0.0733 -0.5360 -0.5396
  537MOL0     N72411  -0.259   7.781   6.662  0.1083 -0.4269 -0.3025
  537MOL0     C72412   0.465   7.122   6.846 -0.6799 -0.0192  0.0918
  537MOL0     C72413   0.602   7.154   6.881  0.0744  0.0290  0.0161
  537MOL0     C72414   0.999   7.392   6.849 -0.5417 -0.0065 -0.1085
  537MOL0     C72415   1.092   7.289   6.825 -0.3101 -0.2956  0.1917
  537MOL0     C72416   1.228   7.318   6.835 -0.2017 -0.5452 -0.3533
  537MOL0     C72417   1.280   7.441   6.868 -0.2166 -0.6498  0.2720
  537MOL0     O72418   1.414   7.457   6.853 -0.3875 -0.0715 -0.8061
  537MOL0     C72419   1.487   7.573   6.909 -0.2692  0.1786  0.1738
  537MOL0     C72420   1.619   7.577   6.845  0.1916 -0.4347 -1.0690
  537MOL0     C72421   1.715   7.678   6.920 -0.0295 -0.7243 -0.1744
  537MOL0     C72422   1.842   7.697   6.843 -0.4057 -0.3578  0.4949
  537MOL0     C72423   1.938   7.759   6.926 -0.1057 -0.1977 -0.5666
  537MOL0     C72424   2.016   7.823   6.980 -0.3191  0.4982  0.1582
  537MOL0     C72425   1.188   7.536   6.911 -0.4217  0.3346 -0.2135
  537MOL0     C72426   1.046   7.515   6.903 -0.4038 -0.5423  0.4961
  537MOL0     C72427   0.957   7.637   6.930 -0.6014  0.6944  0.8606
  537MOL0     H72428   0.722   7.269   6.596  1.7290 -1.0710  1.0945
  537MOL0     H72429   0.500   7.165   6.514  1.5199 -2.2277 -0.0414
  537MOL0     H72430   0.223   7.225   6.568 -1.7149  0.0093  0.5149
  537MOL0     H72431   0.302   7.080   6.487 -0.6945 -3.0241 -0.1611
  537MOL0     H72432   0.119   6.932   6.587 -0.1558  0.5628  1.5239
  537MOL0     H72433   0.071   7.054   6.465 -0.3273 -0.2519  0.2463
  537MOL0     H72434   0.032   7.111   6.775  0.3906  1.5800 -0.4513
  537MOL0     H72435  -0.072   7.010   6.684  2.5999 -1.9595 -0.9176
  537MOL0     H72436  -0.005   7.305   6.619 -0.2808  0.8018  3.3688
  537MOL0     H72437  -0.101   7.209   6.511  2.6424  1.3223 -0.9034
  537MOL0     H72438  -0.279   7.172   6.683  2.2209 -1.1377 -0.9201
  537MOL0     H72439  -0.187   7.243   6.815 -2.8317  0.3399  0.4075
  537MOL0     H72440  -0.369   7.393   6.738  0.0875 -0.3173 -0.6524
  537MOL0     H72441  -0.205   7.461   6.749  0.6865  0.2782  0.2408
  537MOL0     H72442  -0.370   7.361   6.505 -3.0001  0.6016  2.4530
  537MOL0     H72443  -0.205   7.416   6.487  0.7158 -1.8706  0.7982
  537MOL0     H72444  -0.387   7.594   6.431 -1.9208 -0.0164  0.9368
  537MOL0     H72445  -0.434   7.597   6.599  0.7744  2.8327 -0.3865
  537MOL0     H72446  -0.125   7.660   6.386  0.4227  1.4867 -0.7375
  537MOL0     H72447   0.073   7.830   6.390  1.2250  3.4303 -1.3046
  537MOL0     H72448  -0.032   7.970   6.387  0.4444  2.4771  2.1572
  537MOL0     H72449   0.057   8.025   6.618  0.2733  1.7487 -1.0599
  537MOL0     H72450   0.154   7.871   6.604 -3.2423 -3.0844 -2.5363
  537MOL0     H72451   0.166   8.129   6.441 -3.2044 -1.3652 -0.2021
  537MOL0     H72452   0.255   7.991   6.382  1.2771 -1.0851  0.8332
  537MOL0     H72453   0.397   7.971   6.572  1.7953  1.7795  2.8515
  537MOL0     H72454   0.318   8.113   6.649 -0.3923 -0.4848  1.0656
  537MOL0     H72455   0.561   8.322   6.369  0.5895 -0.7526  0.9383
  537MOL0     H72456   0.800   8.395   6.448  0.1849 -0.2881  1.5040
  537MOL0     H72457   1.153   8.341   6.787 -0.4498  2.5326 -1.5395
  537MOL0     H72458   1.420   8.391   6.795  0.2164 -1.1347  1.3116
  537MOL0     H72459   1.756   8.316   6.520  0.6753  0.5499 -3.5237
  537MOL0     H72460   1.658   8.195   6.464 -1.4103 -1.4713  1.2788
  537MOL0     H72461   1.488   8.385   6.417  0.5567 -1.7551 -0.1589
  537MOL0     H72462   1.617   8.501   6.447  0.1206 -0.9530  0.7347
  537MOL0     H72463   1.661   8.286   6.232  2.1074 -0.8302  3.8022
  537MOL0     H72464   1.574   8.445   6.205  1.0449 -0.5216 -0.7318
  537MOL0     H72465   1.844   8.455   6.314 -0.6232  0.7022  1.0786
  537MOL0     H72466   1.740   8.584   6.261 -1.1865  0.0613 -0.7630
  537MOL0     H72467   1.841   8.352   6.078  3.0653 -1.3320  3.3533
  537MOL0     H72468   1.920   8.517   6.103 -0.2279 -0.2478 -2.3531
  537MOL0     H72469   1.627   8.475   5.998 -1.8028  3.6335 -1.4775
  537MOL0     H72470   1.706   8.630   6.018 -1.5899  1.1341 -2.1551
  537MOL0     H72471   1.794   8.415   5.836  2.4633 -0.1093  1.4939
  537MOL0     H72472   1.875   8.577   5.866 -1.2260  0.8881  0.2734
  537MOL0     H72473   1.624   8.529   5.707  0.3603 -0.5277 -1.7724
  537MOL0     H72474   1.670   8.689   5.768 -1.0589 -0.1794  2.8786
  537MOL0     H72475   1.472   8.128   6.469  1.0969  2.5622  0.7928
  537MOL0     H72476   1.232   8.080   6.447  1.1990  0.8370  0.1891
  537MOL0     H72477   0.812   8.075   6.714 -1.3282 -0.9591  0.7974
  537MOL0     H72478   0.581   8.007   6.661 -1.2566 -0.0208  0.2621
  537MOL0     H72479   0.405   7.093   6.932 -0.5256 -2.1605 -0.4664
  537MOL0     H72480   0.625   7.134   6.985  1.1458  1.2765  0.0440
  537MOL0     H72481   1.066   7.191   6.785  0.0135 -0.0267 -0.7083
  537MOL0     H72482   1.300   7.240   6.812 -0.6768 -1.4024  0.9284
  537MOL0     H72483   1.497   7.559   7.017 -0.8859  0.3583  0.2557
  537MOL0     H72484   1.442   7.672   6.895  2.6341  1.5917  0.0009
  537MOL0     H72485   1.606   7.623   6.746  1.8309  1.0527 -0.6367
  537MOL0     H72486   1.676   7.483   6.849  2.2286  0.7722  0.1529
  537MOL0     H72487   1.732   7.632   7.018  1.5980  0.5669  0.1792
  537MOL0     H72488   1.662   7.774   6.919 -0.3398 -0.8847  0.2966
  537MOL0     H72489   1.884   7.605   6.800  0.6482 -0.5847  1.9259
  537MOL0     H72490   1.837   7.772   6.764  1.2847  0.0814  0.7780
  537MOL0     H72491   2.079   7.890   7.036  0.6076  0.9665 -1.3582
  537MOL0     H72492   1.224   7.636   6.936 -0.6063  0.2475  0.4156
  537MOL0     H72493   0.873   7.620   6.999 -1.7895  1.5245 -0.3410
  537MOL0     H72494   1.025   7.709   6.977  1.5407 -0.5733 -0.1243
  537MOL0     H72495   0.920   7.675   6.835 -0.7879  0.7047  0.9364
  538MOL0     O72496  10.881   5.969   7.879  0.5628 -1.0618  0.0630
  538MOL0     C72497  10.858   5.869   7.943 -0.0656 -0.3173  0.6388
  538MOL0     O72498  10.918   5.839   8.066 -0.4479 -0.2514 -0.1803
  538MOL0     C72499  11.007   5.927   8.127  0.4792 -0.4495 -0.0514
  538MOL0     C72500  11.134   5.935   8.073  0.0931 -0.0526 -0.4845
  538MOL0     C72501  11.236   6.010   8.152  0.3777 -0.5274  0.3094
  538MOL0     C72502  11.200   6.073   8.274 -0.3579 -0.6851 -0.0487
  538MOL0     O72503  11.282   6.152   8.356 -0.5329  0.3482  0.3641
  538MOL0     C72504  11.377   6.238   8.295 -0.5146 -0.2789 -0.2083
  538MOL0     C72505  11.496   6.259   8.383  0.1885  0.5788 -0.7306
  538MOL0     C72506  11.617   6.159   8.359  0.0454  0.3227  0.2375
  538MOL0     C72507  11.578   6.017   8.389 -0.1980 -0.2427  0.2220
  538MOL0     C72508  11.687   5.920   8.349 -0.7516 -0.5946  0.4536
  538MOL0     C72509  11.637   5.772   8.368 -1.0688 -0.7318  0.8032
  538MOL0     C72510  11.725   5.673   8.306  0.3743  0.3882 -1.0425
  538MOL0     C72511  11.875   5.690   8.332 -0.1870  0.3001 -0.7703
  538MOL0     N72512  11.944   5.563   8.321 -0.1418  0.6211 -0.4082
  538MOL0     C72513  11.954   5.469   8.412  0.0505 -0.2944 -0.8701
  538MOL0     C72514  12.036   5.379   8.370  0.7459  0.1209  0.2641
  538MOL0     C72515  12.093   5.264   8.451 -0.2413  0.2231 -0.7782
  538MOL0     C72516  12.235   5.285   8.504 -0.2296 -0.2157 -0.5134
  538MOL0     C72517  12.330   5.165   8.493 -0.4951  0.0424  0.1717
  538MOL0     C72518  12.467   5.213   8.543  0.8486  0.0664  0.0427
  538MOL0     O72519  12.554   5.104   8.552 -0.6019 -0.0220 -0.3695
  538MOL0     C72520  12.686   5.127   8.589  0.6609  0.3659 -0.4735
  538MOL0     C72521  12.768   5.016   8.603  0.7357 -0.6957  0.0062
  538MOL0     C72522  12.895   5.023   8.635  0.3932 -0.3447 -0.2712
  538MOL0     C72523  12.955   5.148   8.669  0.4939  0.1009 -0.3642
  538MOL0     C72524  13.094   5.163   8.710  0.8808  1.1431  0.7032
  538MOL0     O72525  13.161   5.052   8.760  0.0226  0.4366  0.2481
  538MOL0     C72526  13.300   5.044   8.772 -0.2602  0.2045  1.1828
  538MOL0     C72527  13.397   5.094   8.678  0.7537 -0.7370  0.4101
  538MOL0     C72528  13.533   5.084   8.709 -0.4941  0.1886 -0.8942
  538MOL0     C72529  13.582   5.029   8.827 -0.0282  0.1375 -0.8379
  538MOL0     O72530  13.716   5.019   8.860 -0.2762  0.6837 -0.4972
  538MOL0     C72531  13.809   4.992   8.747  0.0907  0.5282 -0.3271
  538MOL0     C72532  13.947   4.993   8.801 -0.3076 -0.1652 -0.6889
  538MOL0     C72533  14.004   5.137   8.773 -0.2750 -0.1506  0.4790
  538MOL0     C72534  14.151   5.121   8.830 -0.1303 -0.9101 -0.0562
  538MOL0     C72535  14.222   5.259   8.840 -0.3918  0.6467  0.4328
  538MOL0     C72536  14.362   5.245   8.905  0.2104 -1.0727 -1.0479
  538MOL0     C72537  14.459   5.148   8.844 -1.1381  0.5243 -0.0179
  538MOL0     C72538  14.602   5.157   8.916 -0.7075 -0.5355  0.6033
  538MOL0    Cl72539  14.587   5.108   9.086  0.2822 -0.0907  0.0051
  538MOL0     C72540  13.490   4.963   8.911 -0.3258 -0.5946  0.2193
  538MOL0     C72541  13.354   4.979   8.884  0.1042  0.6984  0.2836
  538MOL0     O72542  13.141   5.267   8.674 -0.4070 -0.9466  0.0042
  538MOL0     C72543  12.867   5.259   8.678  1.0739  0.6339  0.2396
  538MOL0     C72544  12.739   5.246   8.626  0.2549 -0.0085  0.3693
  538MOL0     N72545  12.071   5.418   8.238  0.8006 -0.4168 -0.3082
  538MOL0     N72546  12.013   5.531   8.211 -0.1478 -0.6211 -0.2817
  538MOL0     C72547  11.066   6.063   8.326 -0.4007  0.6139  1.0353
  538MOL0     C72548  10.974   5.985   8.251  0.6724  0.8040 -0.0220
  538MOL0     C72549  10.760   5.781   7.880 -0.0548 -0.4221 -0.4492
  538MOL0     C72550  10.803   5.649   7.865 -0.2193  0.0544 -0.6778
  538MOL0     C72551  10.733   5.563   7.778 -0.0719  0.0387  0.1526
  538MOL0     C72552  10.614   5.596   7.718 -0.2812 -0.1853  0.4210
  538MOL0     O72553  10.536   5.507   7.644 -0.4506 -0.4416 -0.0030
  538MOL0     C72554  10.440   5.439   7.725 -1.2363 -0.7004  0.9066
  538MOL0     C72555  10.311   5.426   7.655  0.3392  0.3919 -0.9305
  538MOL0     C72556  10.256   5.559   7.602  0.5116 -0.9255 -1.0062
  538MOL0     C72557  10.100   5.556   7.578 -0.9235  0.3251 -0.0015
  538MOL0     C72558  10.023   5.530   7.705  0.3998  0.6445 -0.1222
  538MOL0     C72559   9.977   5.504   7.813  0.7023 -0.1499 -0.3427
  538MOL0     C72560  10.571   5.724   7.737  0.7173 -0.3016 -0.4040
  538MOL0     C72561  10.640   5.821   7.819  0.5112  0.0358  0.0207
  538MOL0     C72562  10.599   5.968   7.827 -0.1557  0.7843  0.5765
  538MOL0     H72563  11.156   5.890   7.976 -0.8407  0.0103 -0.7350
  538MOL0     H72564  11.339   6.020   8.118 -0.4897  3.5143 -1.8061
  538MOL0     H72565  11.403   6.201   8.195 -3.0758 -1.4761 -0.5245
  538MOL0     H72566  11.323   6.333   8.293  0.2422  0.2632  1.9797
  538MOL0     H72567  11.466   6.253   8.488  2.5224 -1.0463 -0.0726
  538MOL0     H72568  11.530   6.363   8.378 -1.1984  1.2268  1.5802
  538MOL0     H72569  11.705   6.182   8.420  0.1185 -1.5444  0.9233
  538MOL0     H72570  11.659   6.186   8.262  0.0609  0.3339  0.2474
  538MOL0     H72571  11.549   6.010   8.494 -1.9746  1.5015 -0.1121
  538MOL0     H72572  11.492   5.998   8.324  1.4452 -1.6950 -1.6542
  538MOL0     H72573  11.725   5.932   8.247 -1.7163  1.7993  0.3189
  538MOL0     H72574  11.775   5.945   8.409 -0.3427 -0.5875 -0.1350
  538MOL0     H72575  11.628   5.752   8.475 -0.2586  3.0956  1.7191
  538MOL0     H72576  11.541   5.756   8.318 -0.8202 -2.8203  0.9219
  538MOL0     H72577  11.705   5.670   8.198 -0.3420 -2.5046 -0.9261
  538MOL0     H72578  11.694   5.572   8.334 -2.1761  0.7331 -2.3125
  538MOL0     H72579  11.926   5.772   8.281  0.9194 -0.2397 -0.5514
  538MOL0     H72580  11.884   5.708   8.439 -0.1781  0.4986 -0.8035
  538MOL0     H72581  11.922   5.461   8.516  0.0565 -0.0142 -0.8468
  538MOL0     H72582  12.034   5.239   8.540 -0.6717 -0.0607 -1.1355
  538MOL0     H72583  12.104   5.171   8.395  0.2393 -0.9982  1.2341
  538MOL0     H72584  12.274   5.373   8.452  3.1109 -0.1215  1.7849
  538MOL0     H72585  12.223   5.315   8.609 -1.2946  0.3363 -0.7799
  538MOL0     H72586  12.322   5.128   8.391 -1.2210  1.4572 -0.3114
  538MOL0     H72587  12.289   5.089   8.561  0.8170 -0.0160  0.9259
  538MOL0     H72588  12.443   5.242   8.646  5.4020 -0.9782  1.6135
  538MOL0     H72589  12.507   5.292   8.479  2.3383 -0.8117 -0.1431
  538MOL0     H72590  12.732   4.918   8.572  1.5550 -0.3558 -2.1276
  538MOL0     H72591  12.963   4.938   8.631  0.0810 -0.5459 -3.6638
  538MOL0     H72592  13.365   5.155   8.594 -0.0602  1.8522  2.4725
  538MOL0     H72593  13.611   5.125   8.646 -1.1752  1.1432 -1.1406
  538MOL0     H72594  13.794   4.897   8.695 -0.3443  0.4008  0.0252
  538MOL0     H72595  13.805   5.070   8.670  1.4099  2.1737  1.1668
  538MOL0     H72596  13.947   4.966   8.907 -2.4775  1.4098 -0.2314
  538MOL0     H72597  14.001   4.915   8.745  0.7306  0.3108 -0.3834
  538MOL0     H72598  14.006   5.151   8.665  0.7909 -0.0445  0.4982
  538MOL0     H72599  13.953   5.224   8.815 -1.3493 -1.1825  1.3755
  538MOL0     H72600  14.201   5.040   8.776 -3.0679 -1.1764 -2.5938
  538MOL0     H72601  14.143   5.096   8.936  0.4923  2.1171  0.8292
  538MOL0     H72602  14.169   5.330   8.904  1.3427 -0.9346  3.8653
  538MOL0     H72603  14.234   5.297   8.737 -0.2208 -0.9440 -0.1591
  538MOL0     H72604  14.419   5.339   8.903  1.4551 -1.8028 -0.8943
  538MOL0     H72605  14.349   5.213   9.009 -1.1122  1.2307 -0.4101
  538MOL0     H72606  14.471   5.165   8.736 -2.4789  1.4500 -0.0338
  538MOL0     H72607  14.422   5.046   8.856  3.4708 -1.3816 -0.0382
  538MOL0     H72608  14.667   5.081   8.872  2.3059  0.7331  2.5380
  538MOL0     H72609  14.639   5.259   8.901  1.9366 -1.5147  0.0091
  538MOL0     H72610  13.530   4.928   9.006  3.5062 -1.2641 -1.4540
  538MOL0     H72611  13.282   4.937   8.953  0.0725  0.4629  0.1069
  538MOL0     H72612  12.900   5.359   8.706 -0.9005  1.9549 -1.7382
  538MOL0     H72613  12.681   5.338   8.621 -1.7443 -1.2656 -1.9664
  538MOL0     H72614  11.035   6.128   8.408  0.7066  0.5270  1.5405
  538MOL0     H72615  10.875   5.976   8.295  0.5503 -2.0120 -0.6758
  538MOL0     H72616  10.897   5.626   7.913  0.4488  4.7898  0.8347
  538MOL0     H72617  10.764   5.462   7.755  0.0778 -0.5404  2.6355
  538MOL0     H72618  10.424   5.504   7.812  2.2379  2.0886 -0.2825
  538MOL0     H72619  10.474   5.341   7.759 -0.1311 -0.1106  1.5560
  538MOL0     H72620  10.245   5.383   7.731  2.5019 -0.0717  0.8047
  538MOL0     H72621  10.313   5.359   7.568  0.3806 -1.2880  0.3091
  538MOL0     H72622  10.310   5.590   7.513  1.0358 -2.4881 -1.2647
  538MOL0     H72623  10.280   5.637   7.675 -0.6074  0.4506 -2.0822
  538MOL0     H72624  10.075   5.657   7.544 -1.9078 -0.3991 -1.5143
  538MOL0     H72625  10.089   5.483   7.498  0.6237 -0.5582  0.5444
  538MOL0     H72626   9.937   5.500   7.913 -0.4557 -0.1962 -0.7918
  538MOL0     H72627  10.480   5.757   7.688  1.1554 -1.1919 -1.8554
  538MOL0     H72628  10.656   6.016   7.747  0.9753 -1.2756  0.0829
  538MOL0     H72629  10.495   5.975   7.794 -0.4882 -2.1437  0.7903
  538MOL0     H72630  10.602   6.013   7.926 -2.0483  0.2139  0.9407
  539MOL0     O72631   5.135   0.122   3.136 -0.4814  0.1744  0.7735
  539MOL0     C72632   5.234   0.197   3.125 -1.0604  0.2236 -1.4188
  539MOL0     O72633   5.347   0.154   3.063 -0.0222 -0.0724 -0.4892
  539MOL0     C72634   5.326   0.043   2.978  0.6340  0.0674  1.2793
  539MOL0     C72635   5.370  -0.089   3.012 -0.3040  0.1059  0.4121
  539MOL0     C72636   5.350  -0.199   2.921 -0.7220 -1.2486  1.1390
  539MOL0     C72637   5.296  -0.178   2.792 -0.0019  0.3388 -0.6332
  539MOL0     O72638   5.271  -0.293   2.719  0.5326  0.2450  0.1858
  539MOL0     C72639   5.168  -0.278   2.621 -0.2949  0.0715  0.0170
  539MOL0     C72640   5.134  -0.413   2.549  0.6203  0.0075 -0.1378
  539MOL0     C72641   5.254  -0.484   2.483  0.5794  0.0894  0.1589
  539MOL0     C72642   5.251  -0.447   2.327 -0.4470 -0.1265 -0.2259
  539MOL0     C72643   5.367  -0.521   2.254 -1.0309  0.0297 -0.1427
  539MOL0     C72644   5.409  -0.460   2.129 -0.7475 -0.4634  0.4036
  539MOL0     C72645   5.544  -0.497   2.070 -0.0754 -0.2010 -0.1983
  539MOL0     C72646   5.669  -0.459   2.158  0.6388  0.4148  0.2899
  539MOL0     N72647   5.788  -0.516   2.093 -0.1159 -0.5730 -0.3196
  539MOL0     C72648   5.880  -0.442   2.019  0.9679  0.3183 -0.3861
  539MOL0     C72649   5.976  -0.532   1.985  0.4779  0.0288  0.1548
  539MOL0     C72650   6.098  -0.517   1.894  0.1278 -0.5442  0.2869
  539MOL0     C72651   6.213  -0.534   1.995 -0.8028  0.2210 -0.1515
  539MOL0     C72652   6.356  -0.487   1.933 -0.3481  0.5564 -0.4035
  539MOL0     C72653   6.464  -0.501   2.037  0.1906  0.7055 -0.3355
  539MOL0     O72654   6.593  -0.471   1.978 -0.1465 -0.2225  0.0625
  539MOL0     C72655   6.695  -0.439   2.055  0.2424  0.4415 -1.0498
  539MOL0     C72656   6.755  -0.315   2.042  0.3315 -0.3437 -0.5514
  539MOL0     C72657   6.869  -0.279   2.118 -0.3408 -0.2806 -0.2525
  539MOL0     C72658   6.921  -0.383   2.200 -0.6666  0.7219  0.0722
  539MOL0     C72659   7.063  -0.368   2.257  0.0973 -0.6400  0.0462
  539MOL0     O72660   7.137  -0.481   2.307  0.7689 -0.7575  0.3205
  539MOL0     C72661   7.255  -0.465   2.369 -0.9635  0.4729 -0.3735
  539MOL0     C72662   7.304  -0.357   2.444 -0.4343  0.4304 -0.0768
  539MOL0     C72663   7.434  -0.349   2.488 -0.1360 -0.2263  0.4571
  539MOL0     C72664   7.522  -0.459   2.474 -0.5550 -0.1186  0.1686
  539MOL0     O72665   7.644  -0.451   2.526 -0.4408 -0.1613 -0.0396
  539MOL0     C72666   7.715  -0.578   2.551 -0.7419 -0.3943 -0.0955
  539MOL0     C72667   7.845  -0.529   2.619 -0.5641  0.1294  0.4464
  539MOL0     C72668   7.939  -0.656   2.653  0.3269  0.1867  0.0522
  539MOL0     C72669   8.070  -0.611   2.733  0.1234  0.5663  0.0268
  539MOL0     C72670   8.181  -0.540   2.646  0.6196 -0.8282 -0.3508
  539MOL0     C72671   8.308  -0.508   2.728 -0.1943  0.1141  1.4731
  539MOL0     C72672   8.398  -0.417   2.632 -1.0411  0.0395 -0.2522
  539MOL0     C72673   8.505  -0.336   2.701 -0.4116  1.2792  0.3184
  539MOL0    Cl72674   8.451  -0.215   2.819  0.3069 -0.0305 -0.3486
  539MOL0     C72675   7.480  -0.565   2.391 -1.0394  0.7153  0.1954
  539MOL0     C72676   7.348  -0.572   2.347  0.2776  0.0966 -0.2719
  539MOL0     O72677   7.107  -0.248   2.252  0.4119  0.1999  0.5568
  539MOL0     C72678   6.863  -0.513   2.201  0.1355  0.7344  0.4615
  539MOL0     C72679   6.748  -0.535   2.131 -0.0958 -0.0985  0.3346
  539MOL0     N72680   5.946  -0.651   2.051  0.0282  0.1524  0.3859
  539MOL0     N72681   5.823  -0.648   2.101 -0.9967  0.3136 -0.2770
  539MOL0     C72682   5.265  -0.046   2.755  0.6492  0.4226 -0.5615
  539MOL0     C72683   5.281   0.061   2.851  0.1133  0.1976  0.5530
  539MOL0     C72684   5.241   0.327   3.194  0.1559 -0.4425  0.0924
  539MOL0     C72685   5.352   0.421   3.186 -0.3900  0.4660  0.8764
  539MOL0     C72686   5.351   0.545   3.257  0.2034 -0.2189  1.4503
  539MOL0     C72687   5.245   0.584   3.329  0.7884  0.0284  0.1199
  539MOL0     O72688   5.235   0.705   3.400 -0.5406 -0.3914  0.7166
  539MOL0     C72689   5.262   0.824   3.316  0.6573  0.1033 -0.5155
  539MOL0     C72690   5.332   0.926   3.394 -0.9032  0.5146  0.0129
  539MOL0     C72691   5.254   0.961   3.524 -0.3835  0.6927 -0.7003
  539MOL0     C72692   5.325   1.069   3.604 -0.5449  0.2890  0.0751
  539MOL0     C72693   5.341   1.197   3.538 -0.0768 -0.3167 -0.0347
  539MOL0     C72694   5.352   1.312   3.486 -0.9407 -0.1704 -0.4473
  539MOL0     C72695   5.130   0.508   3.325  0.1555  0.2887  0.3690
  539MOL0     C72696   5.119   0.383   3.255 -0.4179  0.7338 -0.7164
  539MOL0     C72697   4.990   0.313   3.288  0.4502  0.1006  0.1332
  539MOL0     H72698   5.410  -0.112   3.110  3.0795 -1.4052 -1.1592
  539MOL0     H72699   5.374  -0.302   2.946  1.0587 -1.3368 -0.6802
  539MOL0     H72700   5.084  -0.225   2.667 -1.0552 -1.2220  0.1554
  539MOL0     H72701   5.204  -0.210   2.543  1.6800  0.4104  1.1166
  539MOL0     H72702   5.057  -0.392   2.475 -0.7833  0.6278  1.4174
  539MOL0     H72703   5.086  -0.472   2.628 -0.0310  2.1569  1.1585
  539MOL0     H72704   5.250  -0.592   2.494 -0.5845 -0.6619 -5.0219
  539MOL0     H72705   5.347  -0.449   2.530 -0.7751 -1.3813  4.3224
  539MOL0     H72706   5.156  -0.480   2.285 -0.1389  1.0375 -1.9075
  539MOL0     H72707   5.260  -0.340   2.309 -2.5281 -0.1131 -1.4860
  539MOL0     H72708   5.454  -0.518   2.320  0.7461 -0.5005 -2.3594
  539MOL0     H72709   5.358  -0.629   2.244  0.0872 -0.6334  3.9476
  539MOL0     H72710   5.343  -0.483   2.045  0.5589  2.0998 -1.4648
  539MOL0     H72711   5.417  -0.352   2.145 -0.6492 -0.3999 -0.0477
  539MOL0     H72712   5.547  -0.457   1.969  1.6839 -5.5895 -2.6487
  539MOL0     H72713   5.549  -0.605   2.051 -0.9201 -0.5798  1.5497
  539MOL0     H72714   5.681  -0.350   2.168 -0.3791  0.8185 -2.2623
  539MOL0     H72715   5.650  -0.517   2.249 -2.7539 -0.2649 -0.7118
  539MOL0     H72716   5.859  -0.337   2.001 -0.6532 -0.3659 -3.0654
  539MOL0     H72717   6.095  -0.584   1.808  0.5571  2.8464 -2.5750
  539MOL0     H72718   6.099  -0.415   1.855  0.6893  0.4637  2.7219
  539MOL0     H72719   6.203  -0.474   2.085 -1.1456 -0.7152  0.4445
  539MOL0     H72720   6.209  -0.639   2.027  5.3491 -0.0953  0.8861
  539MOL0     H72721   6.340  -0.383   1.902  2.6049  1.5531  1.0602
  539MOL0     H72722   6.396  -0.541   1.847  3.0976  1.3023  0.5810
  539MOL0     H72723   6.461  -0.610   2.049  2.2503  0.2894 -2.7430
  539MOL0     H72724   6.442  -0.441   2.126  0.7133  1.8225 -0.9331
  539MOL0     H72725   6.718  -0.230   1.987  3.1615  2.3912  1.4480
  539MOL0     H72726   6.902  -0.177   2.132 -3.6307  0.8281  0.3683
  539MOL0     H72727   7.248  -0.264   2.455  0.1111  0.6546  0.8605
  539MOL0     H72728   7.469  -0.263   2.544  1.9937  0.3362 -1.5723
  539MOL0     H72729   7.657  -0.630   2.629 -0.9261 -1.6289 -1.0277
  539MOL0     H72730   7.729  -0.626   2.454  2.9161 -0.0294  0.1199
  539MOL0     H72731   7.898  -0.460   2.553 -3.3638 -1.0284 -3.3497
  539MOL0     H72732   7.808  -0.472   2.706  0.4666  0.3071  0.7752
  539MOL0     H72733   7.885  -0.732   2.710  0.1071 -0.2326 -0.7038
  539MOL0     H72734   7.954  -0.701   2.554 -3.3720  0.9607 -0.9915
  539MOL0     H72735   8.107  -0.699   2.787 -3.5506 -1.9565 -1.1014
  539MOL0     H72736   8.047  -0.530   2.802  1.1645  2.9630 -2.2531
  539MOL0     H72737   8.146  -0.438   2.627  1.5936  0.0628  2.1202
  539MOL0     H72738   8.204  -0.604   2.560 -2.8162  0.2697 -2.2594
  539MOL0     H72739   8.300  -0.461   2.826  1.7030  4.7009 -0.2856
  539MOL0     H72740   8.362  -0.601   2.747  2.9913  1.6959  0.8393
  539MOL0     H72741   8.337  -0.345   2.577 -2.3341 -0.9083 -0.1042
  539MOL0     H72742   8.447  -0.479   2.557  1.9294  3.3770 -1.3546
  539MOL0     H72743   8.565  -0.413   2.751 -1.5693 -1.5696 -2.3743
  539MOL0     H72744   8.569  -0.292   2.624  1.0978 -0.5047  0.4832
  539MOL0     H72745   7.546  -0.648   2.368 -1.2678 -0.7066  3.9090
  539MOL0     H72746   7.314  -0.657   2.288  0.1873 -0.5942  0.7595
  539MOL0     H72747   6.916  -0.598   2.243 -0.6201  0.1881  0.3413
  539MOL0     H72748   6.711  -0.637   2.129 -0.3763  0.0109 -0.4169
  539MOL0     H72749   5.229  -0.013   2.659 -2.5012  0.9293  0.6676
  539MOL0     H72750   5.259   0.159   2.810 -0.3955  0.0852  0.5537
  539MOL0     H72751   5.446   0.400   3.136 -0.9381  1.5591 -0.6996
  539MOL0     H72752   5.437   0.610   3.265  0.5616  0.0401 -2.5047
  539MOL0     H72753   5.167   0.858   3.274  1.2071 -0.6142 -2.4716
  539MOL0     H72754   5.330   0.800   3.234  2.2445  2.0641  0.1535
  539MOL0     H72755   5.340   1.015   3.331 -0.4193  0.5181  0.0791
  539MOL0     H72756   5.433   0.889   3.413 -1.5906 -1.1208  0.6633
  539MOL0     H72757   5.250   0.870   3.585 -0.9060 -0.0458 -1.7973
  539MOL0     H72758   5.153   0.997   3.501 -0.0337  2.7255  0.7202
  539MOL0     H72759   5.272   1.077   3.699  0.5663 -2.3473  0.9997
  539MOL0     H72760   5.426   1.037   3.632 -1.4296 -1.5242  1.3909
  539MOL0     H72761   5.355   1.414   3.453  0.4845  0.0744  0.3714
  539MOL0     H72762   5.050   0.548   3.386  1.0447  3.7497 -0.5029
  539MOL0     H72763   5.023   0.213   3.317  0.2701 -0.7204 -2.2918
  539MOL0     H72764   4.934   0.357   3.371  0.4984  0.0807  0.1760
  539MOL0     H72765   4.934   0.295   3.196  1.9316 -2.7165 -0.3189
  540MOL0     O72766  10.423   1.387  10.818 -0.4637  0.0684  0.0286
  540MOL0     C72767  10.425   1.360  10.937 -0.4264 -0.4919 -0.0133
  540MOL0     O72768  10.512   1.275  11.000 -0.1690 -0.0460 -0.6010
  540MOL0     C72769  10.601   1.217  10.917  0.2739  0.0469 -0.3588
  540MOL0     C72770  10.558   1.133  10.809 -0.0699  0.4281 -0.1180
  540MOL0     C72771  10.650   1.049  10.744 -0.5106  0.0784 -0.7116
  540MOL0     C72772  10.789   1.057  10.774  0.1674 -0.2727  0.1266
  540MOL0     O72773  10.898   0.992  10.715  0.2862  0.7921  0.5774
  540MOL0     C72774  10.874   0.884  10.631  0.3810 -0.2186  0.5599
  540MOL0     C72775  10.971   0.879  10.519  1.1360 -0.1172  0.5606
  540MOL0     C72776  11.110   0.829  10.575 -0.3735  0.3510 -0.2269
  540MOL0     C72777  11.226   0.836  10.464  0.9701  0.6534  0.8215
  540MOL0     C72778  11.345   0.775  10.522  0.5617 -0.0818 -0.0030
  540MOL0     C72779  11.469   0.797  10.428 -0.2862 -0.5309 -0.0682
  540MOL0     C72780  11.451   0.757  10.287  0.6072 -0.3679  0.0753
  540MOL0     C72781  11.584   0.710  10.221 -0.1771 -0.3983  0.6294
  540MOL0     N72782  11.581   0.707  10.079 -0.3408 -0.5540  0.4391
  540MOL0     C72783  11.679   0.639  10.004 -0.4337  0.5034 -0.4587
  540MOL0     C72784  11.653   0.664   9.872 -0.1405  0.0746  0.2557
  540MOL0     C72785  11.730   0.633   9.744 -0.7060 -0.0246  0.2810
  540MOL0     C72786  11.622   0.612   9.636 -0.5650  0.2595  0.1080
  540MOL0     C72787  11.683   0.600   9.496  0.2791 -0.9539 -0.4815
  540MOL0     C72788  11.757   0.477   9.456  1.3156 -0.1629  0.2892
  540MOL0     O72789  11.888   0.499   9.499  0.1590 -0.5556  0.2051
  540MOL0     C72790  11.986   0.429   9.435 -0.7797  0.0776 -0.6337
  540MOL0     C72791  12.118   0.476   9.458  0.5169 -0.2594 -0.0530
  540MOL0     C72792  12.227   0.411   9.407  0.1806  0.3502 -0.8508
  540MOL0     C72793  12.212   0.289   9.342  0.8144  1.0316 -0.2385
  540MOL0     C72794  12.325   0.217   9.288  0.3584  0.6344  0.7984
  540MOL0     O72795  12.443   0.243   9.339  0.5794  0.0834  0.0900
  540MOL0     C72796  12.563   0.184   9.293 -0.2476 -0.2201 -0.6094
  540MOL0     C72797  12.675   0.270   9.281 -0.5026 -0.0258 -0.1660
  540MOL0     C72798  12.801   0.208   9.258 -0.0610 -1.9963  0.0632
  540MOL0     C72799  12.813   0.075   9.240  0.2480  0.4967 -0.4154
  540MOL0     O72800  12.931   0.008   9.222 -0.1461  0.1813 -0.9553
  540MOL0     C72801  13.055   0.082   9.187  0.0600  0.2756  0.1340
  540MOL0     C72802  13.154  -0.013   9.125  0.7752 -0.2167  1.1239
  540MOL0     C72803  13.105  -0.067   8.985 -0.3642  0.3094  0.7406
  540MOL0     C72804  13.175  -0.205   8.967  0.1209  0.6613 -1.0371
  540MOL0     C72805  13.322  -0.184   8.944 -0.4076 -0.4637  0.3406
  540MOL0     C72806  13.338  -0.111   8.807 -0.3154  0.8043 -0.4508
  540MOL0     C72807  13.491  -0.130   8.774  0.3637  0.3896 -0.4932
  540MOL0     C72808  13.577  -0.039   8.863 -0.1126  1.0676 -0.7531
  540MOL0    Cl72809  13.702   0.036   8.759  0.1681 -0.2278  0.0224
  540MOL0     C72810  12.701  -0.004   9.245 -0.1050  0.5660  0.0253
  540MOL0     C72811  12.584   0.045   9.279 -0.6972 -0.2014 -0.3361
  540MOL0     O72812  12.295   0.124   9.210  0.7786  0.5275  0.1809
  540MOL0     C72813  12.086   0.241   9.324 -0.2738  1.0012  0.5374
  540MOL0     C72814  11.972   0.311   9.367  0.0428  0.5726 -0.3611
  540MOL0     N72815  11.537   0.751   9.870 -0.1997  0.2445 -0.2414
  540MOL0     N72816  11.499   0.770   9.991 -1.1184 -0.1071  0.1662
  540MOL0     C72817  10.822   1.132  10.884 -0.1003  0.2169  1.6872
  540MOL0     C72818  10.729   1.213  10.947 -0.6751 -0.4817  0.1157
  540MOL0     C72819  10.312   1.414  11.020 -0.6615 -0.0734 -0.1480
  540MOL0     C72820  10.294   1.353  11.144 -0.5567  0.7007 -0.2045
  540MOL0     C72821  10.205   1.384  11.240 -0.0959 -0.3909  0.5106
  540MOL0     C72822  10.124   1.489  11.215  0.3704 -0.2664  0.2516
  540MOL0     O72823  10.031   1.545  11.298 -0.2821  1.1057 -0.9098
  540MOL0     C72824   9.984   1.460  11.406  0.3810 -0.2178 -0.3859
  540MOL0     C72825  10.008   1.532  11.536 -0.0293  0.2067 -0.4224
  540MOL0     C72826  10.154   1.533  11.577 -0.5171 -0.6443  0.0329
  540MOL0     C72827  10.179   1.574  11.718 -0.3116 -0.8633 -0.6078
  540MOL0     C72828  10.204   1.722  11.727  0.0039 -0.3547 -0.1315
  540MOL0     C72829  10.238   1.837  11.734 -0.5095  0.0094 -0.1863
  540MOL0     C72830  10.135   1.553  11.088  0.6054  0.3343  0.0561
  540MOL0     C72831  10.240   1.527  10.995  0.1503  0.3363 -0.8274
  540MOL0     C72832  10.252   1.618  10.879 -0.0157  0.3106 -0.6562
  540MOL0     H72833  10.452   1.114  10.793 -0.3906  1.5066  0.5413
  540MOL0     H72834  10.607   0.989  10.664 -0.1244  2.2645 -2.6758
  540MOL0     H72835  10.875   0.792  10.691 -1.8097 -0.1794  0.7151
  540MOL0     H72836  10.778   0.897  10.581  1.3323  0.2461 -1.2366
  540MOL0     H72837  10.978   0.979  10.476  0.2981 -1.2166 -2.3261
  540MOL0     H72838  10.932   0.808  10.446 -0.3624 -2.6184  3.5458
  540MOL0     H72839  11.102   0.727  10.614  1.3517 -0.5884 -2.1628
  540MOL0     H72840  11.129   0.896  10.659  0.3522  2.3937 -1.9235
  540MOL0     H72841  11.193   0.784  10.374 -1.1927  1.4974  1.0442
  540MOL0     H72842  11.254   0.938  10.436  0.2039  1.8991  4.0827
  540MOL0     H72843  11.369   0.810  10.623  0.1593  0.0187  0.0599
  540MOL0     H72844  11.336   0.669  10.547  2.8407 -0.1336  0.8393
  540MOL0     H72845  11.495   0.903  10.430  1.3937 -0.9008  2.7355
  540MOL0     H72846  11.558   0.743  10.462  0.0173  0.2982  0.4866
  540MOL0     H72847  11.420   0.848  10.236  4.0430  0.1072 -1.4839
  540MOL0     H72848  11.388   0.668  10.282 -0.5992  0.3736  1.1995
  540MOL0     H72849  11.666   0.779  10.244 -1.2715  1.1102  0.1496
  540MOL0     H72850  11.601   0.614  10.272 -0.1322 -0.2039  0.9859
  540MOL0     H72851  11.766   0.586  10.042  0.5942  1.3870 -1.5102
  540MOL0     H72852  11.796   0.721   9.741 -1.4993  0.5516 -0.9946
  540MOL0     H72853  11.796   0.546   9.752  0.3000  0.5575 -1.2081
  540MOL0     H72854  11.570   0.519   9.659 -0.8760 -0.0518 -1.7333
  540MOL0     H72855  11.556   0.699   9.636  1.0653  1.6556  2.8922
  540MOL0     H72856  11.750   0.684   9.477  1.1813 -1.0492  2.0163
  540MOL0     H72857  11.607   0.605   9.417  2.9709 -2.4215 -3.4109
  540MOL0     H72858  11.767   0.465   9.348  0.1869  2.0098 -0.1088
  540MOL0     H72859  11.706   0.390   9.500  0.0506 -1.8720 -4.0433
  540MOL0     H72860  12.127   0.565   9.520 -0.6086 -1.0999  1.3797
  540MOL0     H72861  12.318   0.467   9.426  1.3155 -2.2671  2.6965
  540MOL0     H72862  12.677   0.376   9.306 -0.0034  0.0407 -0.4579
  540MOL0     H72863  12.887   0.275   9.250 -1.3126 -0.2203  0.9270
  540MOL0     H72864  13.054   0.170   9.121  1.8383  0.0133 -0.2996
  540MOL0     H72865  13.099   0.119   9.279 -0.8182  1.5491  0.0702
  540MOL0     H72866  13.251   0.030   9.099  1.4459 -3.5541 -3.0699
  540MOL0     H72867  13.167  -0.088   9.203 -0.7809  0.0159  1.6431
  540MOL0     H72868  13.001  -0.096   9.003  0.2755 -2.4774  0.3574
  540MOL0     H72869  13.113   0.010   8.908  1.2105  1.4535  1.9774
  540MOL0     H72870  13.123  -0.247   8.881  1.1215 -0.6720 -1.0143
  540MOL0     H72871  13.158  -0.272   9.052  0.8347 -0.6411 -1.8978
  540MOL0     H72872  13.357  -0.287   8.931 -0.7537 -0.4294 -1.0635
  540MOL0     H72873  13.370  -0.143   9.034 -0.6044 -0.6544  0.5315
  540MOL0     H72874  13.272  -0.158   8.734  0.6104 -1.7611  0.2400
  540MOL0     H72875  13.331  -0.002   8.818  1.3245  0.9546 -0.6941
  540MOL0     H72876  13.517  -0.094   8.673 -3.2297  1.0189 -1.3508
  540MOL0     H72877  13.524  -0.233   8.789  2.2731  1.1844  1.1918
  540MOL0     H72878  13.517   0.044   8.902 -2.3849 -1.7396  2.2528
  540MOL0     H72879  13.623  -0.102   8.939 -0.1624  0.9640 -0.8084
  540MOL0     H72880  12.711  -0.111   9.232  0.2789  0.4670  1.0930
  540MOL0     H72881  12.498  -0.019   9.297  0.5444 -2.3956 -1.6614
  540MOL0     H72882  12.068   0.147   9.273  0.7945 -0.1341  2.1768
  540MOL0     H72883  11.876   0.268   9.340 -0.0019  1.8116 -2.4161
  540MOL0     H72884  10.925   1.151  10.911 -1.1198  4.5361  3.3586
  540MOL0     H72885  10.755   1.285  11.025 -1.3553 -0.5790  0.4415
  540MOL0     H72886  10.346   1.260  11.168 -2.6203 -0.2909  0.6254
  540MOL0     H72887  10.195   1.317  11.324 -0.0193 -0.6889  0.2834
  540MOL0     H72888  10.031   1.363  11.421  2.2007  0.7208  0.2613
  540MOL0     H72889   9.876   1.446  11.397 -0.0370  0.0687  2.9779
  540MOL0     H72890   9.960   1.466  11.609  2.1296  0.5400  1.4262
  540MOL0     H72891   9.968   1.634  11.545  1.7476  0.9415 -0.4017
  540MOL0     H72892  10.208   1.609  11.519 -2.3873  0.9919  0.3480
  540MOL0     H72893  10.192   1.432  11.560 -2.4529 -1.3421 -0.3804
  540MOL0     H72894  10.097   1.544  11.784 -3.3637 -0.6376 -3.9851
  540MOL0     H72895  10.273   1.526  11.750  2.1803  0.0879 -5.4834
  540MOL0     H72896  10.276   1.937  11.734 -1.6849  0.5182 -2.1157
  540MOL0     H72897  10.070   1.639  11.078  0.6548  0.3238 -0.3768
  540MOL0     H72898  10.169   1.584  10.816 -1.7374  0.3182  1.4691
  540MOL0     H72899  10.224   1.717  10.917  1.9046 -0.0607  2.0047
  540MOL0     H72900  10.352   1.621  10.836 -0.1114  0.5250 -0.8643
  541MOL0     O72901   4.052   7.631   0.615  0.0210  0.0699  0.0365
  541MOL0     C72902   4.022   7.620   0.499 -1.2305  0.5289  0.4509
  541MOL0     O72903   4.116   7.586   0.398  0.6179  0.8114  0.3796
  541MOL0     C72904   4.254   7.610   0.424 -0.1517 -0.6038 -0.2108
  541MOL0     C72905   4.342   7.509   0.393  0.7723 -0.3478  0.6840
  541MOL0     C72906   4.480   7.525   0.426  0.4147  0.6377  0.1218
  541MOL0     C72907   4.535   7.649   0.470  0.3829 -0.4256  0.0731
  541MOL0     O72908   4.665   7.673   0.482 -0.0530  0.1621 -0.0246
  541MOL0     C72909   4.754   7.568   0.519 -0.1256  0.3387  0.1437
  541MOL0     C72910   4.900   7.633   0.502 -0.0752 -0.2997 -0.2972
  541MOL0     C72911   4.924   7.720   0.619  0.5069 -0.2059  0.2335
  541MOL0     C72912   5.066   7.771   0.629 -1.4607 -0.1535 -0.7724
  541MOL0     C72913   5.150   7.681   0.716 -0.0807  0.1018 -0.0772
  541MOL0     C72914   5.284   7.755   0.740  0.0360 -0.2591 -0.0938
  541MOL0     C72915   5.388   7.686   0.821 -0.3901  0.4489  0.6149
  541MOL0     C72916   5.513   7.783   0.808  0.5997  1.5186 -0.3209
  541MOL0     N72917   5.638   7.719   0.875  0.1832 -0.4173 -0.5831
  541MOL0     C72918   5.676   7.737   1.006  0.1451  0.1180  1.2679
  541MOL0     C72919   5.806   7.698   1.009 -0.7320 -0.3973  0.2030
  541MOL0     C72920   5.904   7.716   1.118  0.1293 -0.2897  0.6739
  541MOL0     C72921   5.968   7.583   1.144 -0.7922  0.0662  0.1073
  541MOL0     C72922   6.027   7.566   1.288  0.4568  0.4097 -0.1681
  541MOL0     C72923   6.108   7.436   1.298  0.1930  0.1893  0.5964
  541MOL0     O72924   6.202   7.426   1.190  0.0532  0.3063 -0.4088
  541MOL0     C72925   6.325   7.481   1.215  0.7199 -0.2032  0.1639
  541MOL0     C72926   6.423   7.403   1.266 -0.5809  0.0581 -0.5380
  541MOL0     C72927   6.547   7.452   1.292 -0.0397  0.1913 -0.5986
  541MOL0     C72928   6.581   7.591   1.269  0.4620 -0.5674 -0.6032
  541MOL0     C72929   6.722   7.640   1.299 -0.6227  0.4768  0.0996
  541MOL0     O72930   6.812   7.563   1.373  0.5882  0.6644  0.3201
  541MOL0     C72931   6.937   7.618   1.374  0.4020  0.9330  0.6089
  541MOL0     C72932   7.040   7.550   1.309  0.5210 -0.1874 -0.7359
  541MOL0     C72933   7.174   7.596   1.323  0.1976  0.2360 -0.6807
  541MOL0     C72934   7.203   7.707   1.403 -0.5972 -0.0733 -0.0719
  541MOL0     O72935   7.328   7.742   1.430 -0.0773  0.5532  0.7357
  541MOL0     C72936   7.397   7.656   1.516 -0.3950  0.2442 -0.1308
  541MOL0     C72937   7.533   7.720   1.551  0.6655 -0.5477 -0.2050
  541MOL0     C72938   7.623   7.737   1.423  0.0292 -0.1596  0.3554
  541MOL0     C72939   7.699   7.866   1.428 -0.3655  0.3382 -0.1935
  541MOL0     C72940   7.813   7.876   1.532  1.2012 -0.4236 -0.1877
  541MOL0     C72941   7.946   7.822   1.479  0.1008  0.7985 -0.1156
  541MOL0     C72942   8.008   7.731   1.588 -0.6995  0.2949  0.6813
  541MOL0     C72943   8.152   7.687   1.539 -0.7803  0.0029 -0.1322
  541MOL0    Cl72944   8.253   7.827   1.491  0.0017 -0.4408 -0.2545
  541MOL0     C72945   7.099   7.772   1.464  0.4157 -0.2648  1.2310
  541MOL0     C72946   6.964   7.736   1.447 -0.9433  0.5735 -0.3540
  541MOL0     O72947   6.747   7.751   1.253 -0.3156 -0.4484  0.4229
  541MOL0     C72948   6.481   7.673   1.211  0.5176 -0.5490 -0.5609
  541MOL0     C72949   6.354   7.614   1.183 -0.8786 -0.7236  0.5208
  541MOL0     N72950   5.844   7.675   0.879  0.1611  0.0360  0.0437
  541MOL0     N72951   5.748   7.670   0.802 -0.7975 -0.1182 -0.4150
  541MOL0     C72952   4.446   7.755   0.480  0.0774 -1.0079 -0.1587
  541MOL0     C72953   4.304   7.741   0.459  0.1455 -0.1920 -0.3222
  541MOL0     C72954   3.882   7.606   0.456  0.5393  0.2740  0.2440
  541MOL0     C72955   3.855   7.548   0.332 -0.0738  0.4429  0.6264
  541MOL0     C72956   3.726   7.536   0.278 -0.4572  0.0314 -1.1028
  541MOL0     C72957   3.611   7.585   0.343  0.5809 -0.5781 -0.1017
  541MOL0     O72958   3.490   7.578   0.274  0.0811 -0.1213 -0.2101
  541MOL0     C72959   3.389   7.649   0.342 -0.5093 -0.3139  0.4860
  541MOL0     C72960   3.410   7.800   0.318  0.4922 -0.2954  0.7957
  541MOL0     C72961   3.281   7.859   0.363  0.4116 -0.3963  0.4336
  541MOL0     C72962   3.309   8.017   0.378  0.6628 -0.7169 -0.1964
  541MOL0     C72963   3.189   8.089   0.425 -1.0389  0.0809  1.1737
  541MOL0     C72964   3.102   8.157   0.478  0.2389  1.0563  0.0249
  541MOL0     C72965   3.645   7.660   0.467 -0.0620  0.8496  0.0206
  541MOL0     C72966   3.766   7.668   0.522 -0.1534 -0.3172  0.4272
  541MOL0     C72967   3.774   7.749   0.650 -0.0681  0.4692  0.4324
  541MOL0     H72968   4.303   7.422   0.341  0.9693  0.7657 -1.4696
  541MOL0     H72969   4.525   7.428   0.410  2.6899  1.5957  0.3282
  541MOL0     H72970   4.731   7.550   0.625 -2.9838  1.1825 -0.2302
  541MOL0     H72971   4.742   7.473   0.465  1.2372 -0.9748  2.0260
  541MOL0     H72972   4.900   7.691   0.409 -3.0480  1.4048  0.6647
  541MOL0     H72973   4.981   7.559   0.500  0.0765 -0.1366 -0.2226
  541MOL0     H72974   4.893   7.671   0.712 -1.6517  2.2984  0.9938
  541MOL0     H72975   4.871   7.816   0.619  1.0026  0.0686  0.3938
  541MOL0     H72976   5.119   7.787   0.534  1.6538  1.5337  1.0833
  541MOL0     H72977   5.070   7.871   0.672 -0.5548 -0.1857 -0.7620
  541MOL0     H72978   5.108   7.676   0.817 -2.1448  3.7456 -0.5668
  541MOL0     H72979   5.157   7.583   0.669 -1.4305  0.5981 -1.3815
  541MOL0     H72980   5.322   7.762   0.637  3.7708 -0.7872  1.0942
  541MOL0     H72981   5.267   7.855   0.780 -0.7780 -1.0948  1.7432
  541MOL0     H72982   5.422   7.587   0.791  0.4709 -0.2862  3.6719
  541MOL0     H72983   5.357   7.670   0.925 -2.9729 -2.5095 -0.4693
  541MOL0     H72984   5.537   7.801   0.703 -2.3829 -1.4207 -1.6750
  541MOL0     H72985   5.484   7.877   0.856 -1.6478  0.7646 -0.1019
  541MOL0     H72986   5.615   7.767   1.090 -0.8812 -2.6222  1.5804
  541MOL0     H72987   5.981   7.789   1.091  0.0105 -0.2950  0.3181
  541MOL0     H72988   5.863   7.733   1.219 -0.6216  1.2295  0.1433
  541MOL0     H72989   5.912   7.494   1.114 -0.3032 -1.9254  4.2586
  541MOL0     H72990   6.061   7.592   1.087 -0.8327  1.1074  0.1944
  541MOL0     H72991   5.942   7.572   1.357  1.2695  1.0322  0.8184
  541MOL0     H72992   6.086   7.653   1.318  3.6080 -2.1600  1.7411
  541MOL0     H72993   6.037   7.353   1.295 -2.2011  2.0103  2.6114
  541MOL0     H72994   6.156   7.417   1.394  0.1256 -1.6490  0.3145
  541MOL0     H72995   6.395   7.303   1.300  0.7892 -0.9850 -2.2936
  541MOL0     H72996   6.620   7.389   1.342 -1.6804  0.3148  2.1787
  541MOL0     H72997   7.030   7.454   1.258 -1.6126  0.8570 -2.4485
  541MOL0     H72998   7.254   7.542   1.273  0.3333  0.5052 -0.7530
  541MOL0     H72999   7.333   7.640   1.603 -0.1020 -0.6036 -0.0589
  541MOL0     H73000   7.404   7.562   1.460 -0.6055 -0.6138  1.2268
  541MOL0     H73001   7.514   7.816   1.599 -2.9176  0.0654 -2.4212
  541MOL0     H73002   7.580   7.640   1.609 -2.1576 -3.3739 -1.4820
  541MOL0     H73003   7.699   7.658   1.424  0.8378  0.4979  3.3483
  541MOL0     H73004   7.564   7.726   1.332 -3.0031  3.2239  1.6781
  541MOL0     H73005   7.628   7.949   1.428  1.3929  1.9299 -1.5550
  541MOL0     H73006   7.752   7.871   1.333  1.6299 -2.7232  0.6125
  541MOL0     H73007   7.774   7.825   1.621 -2.5020  0.1779 -1.2945
  541MOL0     H73008   7.836   7.979   1.561  2.3058 -1.5119  3.2923
  541MOL0     H73009   7.934   7.762   1.389 -1.5935  1.4194 -0.3404
  541MOL0     H73010   8.008   7.910   1.456 -0.2847  1.4464  1.2252
  541MOL0     H73011   7.939   7.646   1.590 -1.7820  1.1167 -0.0185
  541MOL0     H73012   8.026   7.778   1.685 -2.3811 -0.2236  1.2788
  541MOL0     H73013   8.203   7.648   1.628 -0.6527  1.5530  0.5178
  541MOL0     H73014   8.150   7.608   1.464 -0.4948 -1.8553  1.7424
  541MOL0     H73015   7.119   7.862   1.520 -0.6516  1.5491 -1.1324
  541MOL0     H73016   6.894   7.789   1.512  0.1605  0.1390  1.2542
  541MOL0     H73017   6.500   7.778   1.194 -1.2286 -0.0319  0.4524
  541MOL0     H73018   6.271   7.679   1.156  0.0826  0.8042  1.0453
  541MOL0     H73019   4.500   7.847   0.500 -3.7053  1.3495  0.3534
  541MOL0     H73020   4.230   7.819   0.473 -0.1779 -0.8814  2.1904
  541MOL0     H73021   3.924   7.491   0.271 -0.7475  0.7131 -0.4058
  541MOL0     H73022   3.715   7.496   0.178  1.6539  1.1204 -1.8322
  541MOL0     H73023   3.381   7.626   0.449  0.4808  1.7563  1.0746
  541MOL0     H73024   3.299   7.625   0.285  0.9998 -1.9485 -1.3508
  541MOL0     H73025   3.417   7.821   0.210  1.0719 -3.0415  0.2082
  541MOL0     H73026   3.498   7.834   0.374  1.3174 -1.7394  0.4385
  541MOL0     H73027   3.247   7.821   0.460 -1.0181  1.0042  0.5082
  541MOL0     H73028   3.198   7.848   0.294 -0.5568 -2.9469  1.8707
  541MOL0     H73029   3.395   8.050   0.438 -0.9173  1.0216  1.2562
  541MOL0     H73030   3.330   8.053   0.277  1.2329  1.7902  0.7413
  541MOL0     H73031   3.011   8.205   0.508  0.0173  2.9413 -3.2001
  541MOL0     H73032   3.560   7.699   0.523  0.8995  1.1421  1.3211
  541MOL0     H73033   3.868   7.806   0.652 -0.0438  0.7101 -2.8038
  541MOL0     H73034   3.692   7.822   0.656 -2.1159 -1.7032  0.1421
  541MOL0     H73035   3.767   7.691   0.742  1.8862  0.3821  0.5788
  542MOL0     O73036  11.282   1.323  10.721 -0.3078 -0.0866  0.1550
  542MOL0     C73037  11.298   1.437  10.762 -0.0500 -0.6801 -0.1051
  542MOL0     O73038  11.412   1.520  10.742  0.3079  0.3876  0.1709
  542MOL0     C73039  11.537   1.473  10.713  0.2048 -0.5503  0.2802
  542MOL0     C73040  11.630   1.571  10.730 -0.3247 -0.3323  0.4639
  542MOL0     C73041  11.770   1.549  10.699  0.0675  0.1479 -0.4642
  542MOL0     C73042  11.816   1.426  10.649  0.4347  0.3428 -0.2127
  542MOL0     O73043  11.942   1.399  10.613  0.2472  0.3099  0.3508
  542MOL0     C73044  12.033   1.513  10.606 -0.7029  0.2909  0.0171
  542MOL0     C73045  12.089   1.532  10.758 -0.7156  0.5069 -0.3131
  542MOL0     C73046  12.132   1.396  10.831  0.3095 -0.5406 -0.2797
  542MOL0     C73047  12.249   1.326  10.756 -0.0345  0.1498  0.2941
  542MOL0     C73048  12.322   1.210  10.829  0.4665 -0.8791 -0.2550
  542MOL0     C73049  12.399   1.130  10.731  0.1479 -0.3728 -0.1458
  542MOL0     C73050  12.461   1.008  10.797 -0.2504 -0.0122  0.2307
  542MOL0     C73051  12.490   0.900  10.692 -0.0815  0.2065  0.3817
  542MOL0     N73052  12.573   0.949  10.576  0.6412  0.0372 -0.5045
  542MOL0     C73053  12.559   0.904  10.448  0.3751  0.2730 -0.6402
  542MOL0     C73054  12.679   0.929  10.385  0.0038 -0.3751  0.1491
  542MOL0     C73055  12.701   0.897  10.246 -0.1041 -0.4966  0.0071
  542MOL0     C73056  12.695   1.022  10.167 -0.1392  0.2890 -0.6980
  542MOL0     C73057  12.712   0.998  10.014  0.9651  1.1176  0.6637
  542MOL0     C73058  12.693   1.130   9.932  0.1154  0.7737 -0.3946
  542MOL0     O73059  12.697   1.087   9.792  0.0438  0.0760 -0.0548
  542MOL0     C73060  12.819   1.064   9.743 -0.2186  0.8920 -0.2066
  542MOL0     C73061  12.889   1.178   9.718 -0.8018  0.5418 -0.1818
  542MOL0     C73062  13.019   1.164   9.670 -0.0459 -0.3836  0.3700
  542MOL0     C73063  13.071   1.038   9.641 -0.8713  0.2606  0.8431
  542MOL0     C73064  13.221   1.020   9.610  1.0087  0.1669 -0.1632
  542MOL0     O73065  13.247   0.906   9.540  0.4142 -0.1930  0.1622
  542MOL0     C73066  13.377   0.890   9.519 -0.8434  0.5531  0.1926
  542MOL0     C73067  13.474   0.877   9.619 -0.0923  0.1013 -0.1158
  542MOL0     C73068  13.606   0.843   9.589  0.0449 -0.0332  1.3074
  542MOL0     C73069  13.651   0.839   9.449 -1.1123  0.1960  0.0445
  542MOL0     O73070  13.781   0.822   9.418 -0.6018  0.2699  0.0882
  542MOL0     C73071  13.870   0.804   9.531  0.6739 -0.0631 -0.2256
  542MOL0     C73072  14.008   0.755   9.480 -0.6141 -0.4197 -0.6036
  542MOL0     C73073  14.049   0.836   9.356  0.1246 -0.0222  0.0712
  542MOL0     C73074  14.171   0.780   9.279  0.0796  0.3249  0.8308
  542MOL0     C73075  14.311   0.784   9.353  0.3992 -0.6823 -0.5136
  542MOL0     C73076  14.424   0.738   9.271 -0.3527 -0.2855  0.3948
  542MOL0     C73077  14.556   0.761   9.344  0.1764 -0.8359  0.1714
  542MOL0     C73078  14.641   0.634   9.326 -0.2707  0.3403  0.0140
  542MOL0    Cl73079  14.684   0.592   9.149 -0.2095  0.1759 -0.1119
  542MOL0     C73080  13.547   0.829   9.357 -0.1108  1.2875 -0.2764
  542MOL0     C73081  13.416   0.864   9.390  0.1900 -0.3564  0.2915
  542MOL0     O73082  13.295   1.109   9.633 -0.0530 -0.4995  0.0360
  542MOL0     C73083  12.989   0.926   9.659 -0.5242  0.3440  0.5107
  542MOL0     C73084  12.859   0.940   9.702  0.7484 -0.3857 -0.1118
  542MOL0     N73085  12.756   0.986  10.481  0.6562  0.0707  0.0227
  542MOL0     N73086  12.692   1.012  10.582  0.5514 -0.1126  0.1654
  542MOL0     C73087  11.713   1.329  10.636  0.0883  0.1235 -0.0262
  542MOL0     C73088  11.576   1.346  10.676 -0.2078  0.2023  0.6699
  542MOL0     C73089  11.182   1.497  10.824 -0.7744  0.4387 -0.4984
  542MOL0     C73090  11.118   1.417  10.917  0.0089 -0.3625  0.2068
  542MOL0     C73091  10.999   1.461  10.982  0.7883  0.3968 -0.2078
  542MOL0     C73092  10.948   1.579  10.950 -0.3340 -1.1413  0.0994
  542MOL0     O73093  10.838   1.614  11.028 -0.1849  0.2722 -0.0003
  542MOL0     C73094  10.750   1.722  10.988  0.2859  1.2863  0.2927
  542MOL0     C73095  10.632   1.730  11.089 -0.3813 -0.5872 -0.5396
  542MOL0     C73096  10.551   1.856  11.084 -0.8401  0.4875  0.8646
  542MOL0     C73097  10.414   1.853  11.152  0.1691  0.0084  0.7092
  542MOL0     C73098  10.369   1.979  11.204  1.2180  0.4375 -0.7317
  542MOL0     C73099  10.312   2.086  11.245  0.1582  0.2566 -0.0275
  542MOL0     C73100  11.009   1.659  10.859  0.6709  0.1682  0.5188
  542MOL0     C73101  11.131   1.631  10.800 -0.1445  0.3707 -0.5963
  542MOL0     C73102  11.206   1.734  10.718 -0.3233 -0.0623  0.0830
  542MOL0     H73103  11.605   1.665  10.778  0.6719  0.1504  0.0768
  542MOL0     H73104  11.835   1.634  10.715  1.5730 -0.9416 -0.4964
  542MOL0     H73105  12.112   1.482  10.537 -1.7233  0.1422 -1.1173
  542MOL0     H73106  11.993   1.610  10.578  1.5527  1.7659  1.5420
  542MOL0     H73107  12.014   1.593  10.810 -0.0731  1.4343 -0.4569
  542MOL0     H73108  12.178   1.596  10.754 -0.8304  0.6485 -0.7336
  542MOL0     H73109  12.043   1.335  10.848 -1.0793  1.6462  0.5658
  542MOL0     H73110  12.167   1.415  10.932 -3.7535 -0.7381  1.3573
  542MOL0     H73111  12.225   1.298  10.653  2.0854 -1.8809  0.2576
  542MOL0     H73112  12.323   1.406  10.739 -1.4833  1.3026 -0.8110
  542MOL0     H73113  12.385   1.241  10.914 -2.2941 -1.0044  2.0051
  542MOL0     H73114  12.249   1.144  10.876  2.6949 -1.8839  2.0913
  542MOL0     H73115  12.340   1.090  10.648  0.7573 -1.9087  0.1171
  542MOL0     H73116  12.478   1.191  10.686  1.9890 -2.4229  0.1086
  542MOL0     H73117  12.407   0.968  10.882 -0.1901  1.3418  0.9372
  542MOL0     H73118  12.556   1.047  10.835 -0.3118  1.4941 -1.0342
  542MOL0     H73119  12.543   0.811  10.727 -0.3815 -0.4017 -0.6722
  542MOL0     H73120  12.395   0.864  10.653  0.4504 -1.9931  1.0034
  542MOL0     H73121  12.472   0.861  10.399  2.5245 -1.3010 -3.3774
  542MOL0     H73122  12.802   0.857  10.238 -0.6703 -3.0463  3.4834
  542MOL0     H73123  12.628   0.824  10.209 -0.7709 -0.1329  0.5778
  542MOL0     H73124  12.595   1.065  10.178  1.0199  3.2329 -0.7854
  542MOL0     H73125  12.775   1.091  10.196  1.9438 -1.3730 -2.1913
  542MOL0     H73126  12.644   0.921   9.977  3.9028 -1.4462  0.1467
  542MOL0     H73127  12.807   0.948   9.993  1.1371  1.2539  1.1092
  542MOL0     H73128  12.776   1.200   9.947  0.0281  0.8359 -0.1991
  542MOL0     H73129  12.597   1.178   9.954  0.3723  1.3847 -0.5965
  542MOL0     H73130  12.838   1.273   9.730 -1.6539 -0.0462  1.0838
  542MOL0     H73131  13.081   1.247   9.638 -0.8372 -0.6023 -1.8989
  542MOL0     H73132  13.445   0.892   9.722  0.7466 -0.6118  0.2399
  542MOL0     H73133  13.672   0.832   9.675 -1.3824 -0.3177  2.4028
  542MOL0     H73134  13.877   0.902   9.579 -0.9099 -0.2579  0.4760
  542MOL0     H73135  13.836   0.731   9.605 -0.1220  0.0306 -0.4862
  542MOL0     H73136  14.080   0.772   9.561  0.0986  1.3889 -1.5468
  542MOL0     H73137  14.018   0.651   9.448 -2.0856 -1.0621  0.8640
  542MOL0     H73138  13.975   0.836   9.275  2.6508  1.2440 -2.4506
  542MOL0     H73139  14.072   0.938   9.388  1.9013 -0.2725 -0.2818
  542MOL0     H73140  14.176   0.852   9.196 -0.7687 -1.7946 -1.1826
  542MOL0     H73141  14.151   0.679   9.241  1.7694  0.1590  0.3000
  542MOL0     H73142  14.313   0.727   9.446  1.8522  1.8556  1.1421
  542MOL0     H73143  14.318   0.892   9.369 -0.7324  0.0018 -3.9437
  542MOL0     H73144  14.418   0.637   9.230  4.6217 -0.6469 -0.0704
  542MOL0     H73145  14.431   0.801   9.181  2.1096 -1.4990 -0.3273
  542MOL0     H73146  14.538   0.777   9.450  1.1115  0.9190  0.0885
  542MOL0     H73147  14.609   0.852   9.314  0.7555 -0.3171  2.6224
  542MOL0     H73148  14.732   0.639   9.385  0.0803  0.6647 -0.5433
  542MOL0     H73149  14.575   0.552   9.356 -0.2772 -0.4707 -2.0444
  542MOL0     H73150  13.568   0.807   9.253  0.3317 -2.9135  0.5218
  542MOL0     H73151  13.342   0.851   9.312  3.1510 -0.4920 -2.7226
  542MOL0     H73152  13.017   0.823   9.638 -1.5899  0.0957  0.2491
  542MOL0     H73153  12.798   0.851   9.710  2.3210 -1.7114 -1.8855
  542MOL0     H73154  11.743   1.236  10.588  2.4407  2.6320 -4.0007
  542MOL0     H73155  11.512   1.262  10.652  0.8980  0.2556 -3.0859
  542MOL0     H73156  11.143   1.315  10.944 -2.1680 -0.5174  1.8989
  542MOL0     H73157  10.956   1.385  11.047  0.2191  0.7482 -0.1696
  542MOL0     H73158  10.716   1.702  10.886 -0.9822  1.1618  0.7238
  542MOL0     H73159  10.797   1.821  10.983  0.0973  1.7869  4.5222
  542MOL0     H73160  10.673   1.733  11.190 -0.7565  0.8018 -0.4037
  542MOL0     H73161  10.567   1.642  11.076 -1.6529 -0.0966  1.8481
  542MOL0     H73162  10.542   1.882  10.979  1.8037  0.0965  0.4747
  542MOL0     H73163  10.611   1.944  11.104 -0.3154  0.4278 -0.3669
  542MOL0     H73164  10.338   1.821  11.080  1.2769  1.2922 -1.1106
  542MOL0     H73165  10.421   1.782  11.235 -3.6574 -0.2148  0.9944
  542MOL0     H73166  10.263   2.173  11.284  0.9186 -0.2917  2.2908
  542MOL0     H73167  10.970   1.758  10.838  0.6867  0.6072  2.4483
  542MOL0     H73168  11.150   1.822  10.686 -2.2074 -1.0262  0.6164
  542MOL0     H73169  11.296   1.771  10.768  1.3682  0.6266 -3.2138
  542MOL0     H73170  11.232   1.683  10.625  0.2381  0.8514 -0.2782
  543MOL0     O73171   1.927   4.007   6.162  0.8312 -0.5205  0.6729
  543MOL0     C73172   1.861   4.043   6.064  1.1020  0.5597 -0.4000
  543MOL0     O73173   1.915   4.105   5.950 -0.8699  0.2242  0.2757
  543MOL0     C73174   2.005   4.208   5.958 -0.0421  0.1726 -0.0028
  543MOL0     C73175   2.032   4.264   5.832 -0.4125  1.2057 -0.4161
  543MOL0     C73176   2.131   4.353   5.811  0.4063 -0.4207 -0.1886
  543MOL0     C73177   2.208   4.405   5.916  0.2986  0.3767 -0.4980
  543MOL0     O73178   2.295   4.498   5.875  0.1975  0.2446  0.0066
  543MOL0     C73179   2.365   4.574   5.974 -0.5113  0.0677 -0.2059
  543MOL0     C73180   2.518   4.541   5.962 -0.1694 -0.2839 -0.0547
  543MOL0     C73181   2.601   4.611   6.068 -0.4106 -0.4885  0.3598
  543MOL0     C73182   2.576   4.543   6.204  1.4436 -1.2263  0.5081
  543MOL0     C73183   2.693   4.532   6.286  0.2483 -0.3028  0.1816
  543MOL0     C73184   2.750   4.666   6.343 -0.1747 -0.2434 -1.4376
  543MOL0     C73185   2.874   4.651   6.438  0.0027  0.4581 -0.2244
  543MOL0     C73186   2.854   4.541   6.545  0.1702  0.5193  0.2693
  543MOL0     N73187   2.921   4.586   6.670  0.7177 -0.0475 -0.0341
  543MOL0     C73188   2.864   4.627   6.791  0.4063 -0.2871  0.7411
  543MOL0     C73189   2.964   4.623   6.881 -0.0861 -0.0938 -0.3346
  543MOL0     C73190   2.946   4.634   7.030  0.7858  0.3959 -0.5345
  543MOL0     C73191   3.000   4.756   7.095  0.0021 -0.1381  0.3823
  543MOL0     C73192   3.154   4.771   7.081  0.5773  0.6711  0.3390
  543MOL0     C73193   3.224   4.889   7.154 -0.0721  0.2846  0.2131
  543MOL0     O73194   3.299   4.835   7.265  0.3496 -0.2653  0.2411
  543MOL0     C73195   3.421   4.899   7.291  0.6733  0.3755  0.3042
  543MOL0     C73196   3.508   4.825   7.365 -1.5081  0.2855 -0.0892
  543MOL0     C73197   3.611   4.891   7.428 -0.0201  0.0495 -0.7550
  543MOL0     C73198   3.639   5.027   7.413  0.3783 -0.4085 -0.0693
  543MOL0     C73199   3.757   5.085   7.474 -0.4124 -0.0929 -0.2252
  543MOL0     O73200   3.858   4.993   7.500  0.6222 -0.5024 -1.0266
  543MOL0     C73201   3.984   5.029   7.527  1.2111  0.1062  0.0386
  543MOL0     C73202   4.080   4.931   7.492  0.2806 -0.2924 -0.1378
  543MOL0     C73203   4.220   4.962   7.509  0.1195 -0.5332 -0.3457
  543MOL0     C73204   4.258   5.076   7.576 -0.3396 -0.6763  0.0886
  543MOL0     O73205   4.391   5.102   7.615  0.1989 -0.3639 -0.2686
  543MOL0     C73206   4.489   5.109   7.509  0.2172 -0.3283 -0.1174
  543MOL0     C73207   4.610   5.177   7.574  0.2184 -0.3846 -0.9515
  543MOL0     C73208   4.725   5.173   7.482 -0.5063 -0.0278 -1.4648
  543MOL0     C73209   4.845   5.148   7.569  0.5878 -0.6437  0.5011
  543MOL0     C73210   4.965   5.200   7.486  0.0215 -0.1060  0.2392
  543MOL0     C73211   4.978   5.348   7.489  0.0980  0.6125 -0.0350
  543MOL0     C73212   5.082   5.404   7.391 -0.5533 -0.5322 -0.8064
  543MOL0     C73213   5.124   5.547   7.417 -0.4482  0.1198  0.2992
  543MOL0    Cl73214   5.295   5.576   7.442 -0.2843 -0.0207  0.3288
  543MOL0     C73215   4.163   5.163   7.637 -0.0872 -0.5304  0.8220
  543MOL0     C73216   4.028   5.140   7.603  0.2117  0.2679  0.5157
  543MOL0     O73217   3.761   5.209   7.494  0.2667 -0.9015 -0.0114
  543MOL0     C73218   3.552   5.106   7.332 -0.5863 -0.7608  0.8888
  543MOL0     C73219   3.444   5.034   7.269  0.6206  0.1473  0.6746
  543MOL0     N73220   3.078   4.574   6.811  0.0291 -0.0448  0.8726
  543MOL0     N73221   3.058   4.568   6.686 -0.0763 -1.0988 -0.8840
  543MOL0     C73222   2.182   4.346   6.041 -0.0129  0.7954  0.1539
  543MOL0     C73223   2.085   4.253   6.062 -0.4807  0.2656 -0.3621
  543MOL0     C73224   1.725   3.995   6.055  0.1195 -0.5202  0.6266
  543MOL0     C73225   1.684   3.956   5.928 -0.6304 -0.3592 -0.1162
  543MOL0     C73226   1.555   3.927   5.897 -0.4038 -0.6892  0.5958
  543MOL0     C73227   1.462   3.933   6.004 -0.1754  1.1885 -0.1291
  543MOL0     O73228   1.332   3.893   5.973  0.6188 -0.4232  0.8292
  543MOL0     C73229   1.228   3.930   6.065  0.4278  0.3394 -0.1658
  543MOL0     C73230   1.218   4.086   6.080  0.0782  0.2559  1.0411
  543MOL0     C73231   1.115   4.125   6.179  0.4577 -0.7797 -0.1055
  543MOL0     C73232   0.969   4.111   6.119 -0.3025  0.1940 -0.4441
  543MOL0     C73233   0.868   4.127   6.219 -0.8054 -0.3801 -0.0791
  543MOL0     C73234   0.768   4.140   6.284  0.1503 -0.1596  0.2471
  543MOL0     C73235   1.508   3.971   6.131 -0.6714 -0.4452 -0.3996
  543MOL0     C73236   1.641   4.008   6.155  0.1384  0.2526 -1.1393
  543MOL0     C73237   1.679   4.088   6.289  0.3927  0.1902  0.1224
  543MOL0     H73238   1.991   4.232   5.737  0.0046  0.3515 -0.3171
  543MOL0     H73239   2.158   4.389   5.713 -1.9894  1.3983 -0.2674
  543MOL0     H73240   2.348   4.682   5.966 -0.3820  0.0186 -1.2866
  543MOL0     H73241   2.332   4.566   6.078  2.3074  3.3994  1.1688
  543MOL0     H73242   2.556   4.580   5.867 -0.1831  1.2619  0.5399
  543MOL0     H73243   2.510   4.432   5.964 -4.5304 -0.1546 -1.4659
  543MOL0     H73244   2.584   4.719   6.072 -2.2596 -0.7618  0.6119
  543MOL0     H73245   2.705   4.605   6.032  0.1601  2.6632  1.1840
  543MOL0     H73246   2.493   4.585   6.261 -0.1764 -0.3439 -2.2700
  543MOL0     H73247   2.555   4.438   6.181  0.5639 -0.9863  0.1572
  543MOL0     H73248   2.662   4.478   6.376 -0.0306  2.1935  1.6697
  543MOL0     H73249   2.771   4.477   6.233 -1.3171 -0.6674 -1.8591
  543MOL0     H73250   2.799   4.735   6.274  2.8439  1.1296  1.7751
  543MOL0     H73251   2.666   4.723   6.385  0.3719  0.8397 -1.7961
  543MOL0     H73252   2.882   4.745   6.494  0.9077  1.4993 -2.0324
  543MOL0     H73253   2.962   4.633   6.376 -1.0607  0.3113 -1.7220
  543MOL0     H73254   2.748   4.535   6.573  0.0080 -0.2760 -0.4821
  543MOL0     H73255   2.892   4.447   6.503  1.6021  2.4710 -3.2818
  543MOL0     H73256   2.757   4.647   6.801  0.8021  1.1057  2.6693
  543MOL0     H73257   2.839   4.632   7.052  0.8379 -0.6488 -0.3174
  543MOL0     H73258   2.985   4.544   7.079 -1.5945  0.3562  1.4139
  543MOL0     H73259   2.957   4.845   7.047  1.6039  1.4722  1.7777
  543MOL0     H73260   2.977   4.759   7.202  1.3494  0.3926  0.6763
  543MOL0     H73261   3.160   4.779   6.972 -0.1705 -3.5154 -0.1843
  543MOL0     H73262   3.194   4.673   7.105 -0.2679 -0.6827 -3.0923
  543MOL0     H73263   3.164   4.976   7.184  0.8758  2.1211 -2.8207
  543MOL0     H73264   3.300   4.939   7.093  1.6607 -1.5917  0.7159
  543MOL0     H73265   3.497   4.720   7.390  0.3900 -0.5124 -2.3128
  543MOL0     H73266   3.676   4.828   7.489  0.7761  0.0822 -1.5496
  543MOL0     H73267   4.058   4.833   7.450 -1.2021 -0.6774  1.4314
  543MOL0     H73268   4.291   4.883   7.486 -0.5922 -0.2481 -4.3267
  543MOL0     H73269   4.513   5.008   7.476 -0.5913 -1.1126  1.5895
  543MOL0     H73270   4.447   5.170   7.428 -3.5198 -2.1765  0.2450
  543MOL0     H73271   4.591   5.273   7.622 -0.0808 -0.9242  0.0320
  543MOL0     H73272   4.632   5.117   7.663 -0.4810  2.5444  1.3631
  543MOL0     H73273   4.705   5.090   7.415 -1.0193 -0.7706 -0.4186
  543MOL0     H73274   4.733   5.273   7.437  0.7745  1.1047  1.0329
  543MOL0     H73275   4.877   5.043   7.574  0.4745 -0.8527 -1.8128
  543MOL0     H73276   4.848   5.188   7.670  1.1891  1.3012 -0.2351
  543MOL0     H73277   4.954   5.161   7.384 -0.1629  0.7735 -0.0911
  543MOL0     H73278   5.060   5.155   7.514  0.9356  1.1975 -0.6669
  543MOL0     H73279   4.881   5.392   7.464 -0.0019  0.6914  0.4822
  543MOL0     H73280   5.001   5.366   7.594  0.1107 -1.4725  0.3559
  543MOL0     H73281   5.037   5.407   7.292  0.2705  1.5820 -1.1673
  543MOL0     H73282   5.161   5.328   7.389 -0.4170 -0.3925 -2.7738
  543MOL0     H73283   5.102   5.602   7.325  1.7441  2.7014  1.1639
  543MOL0     H73284   5.064   5.597   7.493 -0.9515  0.1130 -0.0920
  543MOL0     H73285   4.209   5.241   7.698 -0.3629  0.7863 -0.6041
  543MOL0     H73286   3.951   5.204   7.646 -1.8201 -1.6900 -0.0106
  543MOL0     H73287   3.567   5.213   7.327  0.2687 -0.7651  2.6280
  543MOL0     H73288   3.361   5.093   7.230 -0.2510 -0.7754  1.0682
  543MOL0     H73289   2.248   4.383   6.119 -0.6433  1.7595  0.2454
  543MOL0     H73290   2.075   4.211   6.161 -0.7465  1.7317  0.2533
  543MOL0     H73291   1.760   3.954   5.850 -0.2646  1.2700  0.1532
  543MOL0     H73292   1.521   3.905   5.796 -1.5841  0.3000  0.7536
  543MOL0     H73293   1.245   3.885   6.163  2.6756 -0.0902 -0.6965
  543MOL0     H73294   1.132   3.890   6.030  1.1808 -1.1593 -0.6285
  543MOL0     H73295   1.215   4.136   5.983  1.2841 -0.8495  0.4023
  543MOL0     H73296   1.312   4.124   6.124 -1.3088 -0.6675  5.2811
  543MOL0     H73297   1.129   4.230   6.208 -0.4770  0.7869 -4.5533
  543MOL0     H73298   1.138   4.069   6.270 -1.2327  1.3517  1.7673
  543MOL0     H73299   0.954   4.178   6.034 -1.8620  1.2475  0.6209
  543MOL0     H73300   0.953   4.012   6.075 -1.9681  1.5868 -3.2116
  543MOL0     H73301   0.673   4.160   6.329  1.0194  0.4503  1.8895
  543MOL0     H73302   1.435   3.971   6.212  0.4690 -2.3997  0.6898
  543MOL0     H73303   1.715   4.190   6.277 -0.0706  0.5705  1.7511
  543MOL0     H73304   1.587   4.103   6.346  1.1111 -0.4504  1.5028
  543MOL0     H73305   1.753   4.029   6.346  0.5656  0.8675  0.6125
  544MOL0     O73306   6.146   4.732   4.490  0.8460  0.7740 -0.4212
  544MOL0     C73307   6.117   4.730   4.613 -0.6123  0.5638  0.0343
  544MOL0     O73308   6.209   4.753   4.707 -0.1006  0.6673 -0.8919
  544MOL0     C73309   6.346   4.778   4.692  0.9343 -0.3482 -0.0904
  544MOL0     C73310   6.420   4.750   4.804 -0.2812  0.4151 -0.3509
  544MOL0     C73311   6.563   4.754   4.793 -0.0153 -0.2137 -0.0095
  544MOL0     C73312   6.627   4.792   4.676  0.2263 -0.2756 -0.9347
  544MOL0     O73313   6.761   4.818   4.695  0.0102  0.5892  1.1785
  544MOL0     C73314   6.845   4.822   4.578 -0.2317  0.6312  0.6667
  544MOL0     C73315   6.995   4.852   4.620  0.5282  0.6413  0.4425
  544MOL0     C73316   7.062   4.949   4.512 -0.0957  0.1950 -0.4646
  544MOL0     C73317   7.221   4.951   4.525 -0.1715  0.4578 -0.1733
  544MOL0     C73318   7.287   5.039   4.408  0.8036  0.4892 -0.9024
  544MOL0     C73319   7.443   5.027   4.406  0.3217  0.7490 -0.6635
  544MOL0     C73320   7.514   5.108   4.298  0.1153  0.6092 -0.4399
  544MOL0     C73321   7.487   5.054   4.153  0.5250 -0.3193  0.0793
  544MOL0     N73322   7.547   4.921   4.140  0.9743  0.5279  0.6468
  544MOL0     C73323   7.681   4.881   4.144 -0.1019 -0.7251 -0.9697
  544MOL0     C73324   7.677   4.750   4.117  0.0132 -0.7129 -0.0345
  544MOL0     C73325   7.788   4.663   4.123  0.5222  0.4574  0.3382
  544MOL0     C73326   7.912   4.692   4.032  0.1836 -0.9195 -0.5618
  544MOL0     C73327   8.015   4.588   4.026 -0.4003  0.3238  0.2216
  544MOL0     C73328   8.132   4.640   3.939 -0.6254  0.1787  0.6629
  544MOL0     O73329   8.215   4.526   3.911 -0.5817 -0.3270  0.9548
  544MOL0     C73330   8.342   4.555   3.863  0.6171 -0.7830 -0.3705
  544MOL0     C73331   8.370   4.678   3.795 -0.9022  0.3877 -0.2118
  544MOL0     C73332   8.504   4.710   3.772  0.2863 -1.0461  0.0029
  544MOL0     C73333   8.610   4.616   3.786 -0.6121  0.4085 -0.7667
  544MOL0     C73334   8.746   4.654   3.754  0.0419  1.1404  0.4905
  544MOL0     O73335   8.836   4.550   3.733 -0.2679 -1.1476 -0.2316
  544MOL0     C73336   8.957   4.586   3.692  1.1577  0.8563 -0.6392
  544MOL0     C73337   9.072   4.553   3.768 -0.1385 -0.4563 -0.2404
  544MOL0     C73338   9.195   4.586   3.719  0.3821  0.3594  0.1130
  544MOL0     C73339   9.210   4.644   3.589  0.3723 -0.1066  0.8781
  544MOL0     O73340   9.338   4.672   3.536 -0.1046  0.6342 -0.4125
  544MOL0     C73341   9.455   4.635   3.608  0.7011 -0.6751  0.2338
  544MOL0     C73342   9.576   4.670   3.522 -0.4777 -0.3817 -0.6035
  544MOL0     C73343   9.717   4.630   3.590  0.0845 -0.1404 -0.3637
  544MOL0     C73344   9.822   4.608   3.473  0.3782 -0.2888  0.1778
  544MOL0     C73345   9.954   4.554   3.518 -0.1760  0.2265 -0.0022
  544MOL0     C73346  10.017   4.662   3.603  1.3287  0.1056 -0.8291
  544MOL0     C73347  10.152   4.627   3.647  0.0414 -0.1053 -0.5222
  544MOL0     C73348  10.167   4.640   3.794  0.3896  0.5774 -0.5056
  544MOL0    Cl73349  10.337   4.597   3.814  0.0598 -0.2982  0.3783
  544MOL0     C73350   9.100   4.675   3.507  0.3966  0.2422  0.6817
  544MOL0     C73351   8.968   4.644   3.558 -0.7188 -0.4209 -0.2203
  544MOL0     O73352   8.767   4.772   3.750  0.7693  0.0890  0.2636
  544MOL0     C73353   8.573   4.482   3.822  0.6204 -0.0500 -0.3213
  544MOL0     C73354   8.436   4.459   3.863 -0.1335 -0.7473  0.5419
  544MOL0     N73355   7.546   4.710   4.093 -0.7035 -0.0148  1.2931
  544MOL0     N73356   7.474   4.815   4.115  0.0085  0.1697  0.5024
  544MOL0     C73357   6.550   4.827   4.563 -0.0762 -0.4445  0.1547
  544MOL0     C73358   6.411   4.830   4.580  0.0343  0.9992  0.7041
  544MOL0     C73359   5.979   4.694   4.651 -0.5503  0.2555 -1.5234
  544MOL0     C73360   5.899   4.642   4.551 -0.5019  0.3189 -0.0207
  544MOL0     C73361   5.772   4.594   4.581  0.7748  0.2045  0.6005
  544MOL0     C73362   5.720   4.613   4.714 -0.1575  0.0255  0.0700
  544MOL0     O73363   5.591   4.569   4.728 -0.7217  0.2507  0.5041
  544MOL0     C73364   5.518   4.600   4.842 -0.0091 -0.0020 -0.1022
  544MOL0     C73365   5.366   4.627   4.809 -0.0657 -1.8430  0.9655
  544MOL0     C73366   5.325   4.642   4.660  0.0465 -0.0358 -0.0130
  544MOL0     C73367   5.352   4.783   4.606  0.4615  0.2775  1.1130
  544MOL0     C73368   5.279   4.901   4.663 -0.6555  0.3529  0.3703
  544MOL0     C73369   5.216   4.980   4.719  0.1311 -0.0908 -0.5501
  544MOL0     C73370   5.798   4.674   4.816 -0.0159 -0.4937  0.2280
  544MOL0     C73371   5.933   4.711   4.785  0.7288  0.4861  0.8765
  544MOL0     C73372   6.002   4.775   4.902 -0.1880  0.0377  0.8038
  544MOL0     H73373   6.376   4.713   4.897 -1.9861  0.0343 -1.2570
  544MOL0     H73374   6.619   4.718   4.878  0.4710  0.0471 -0.2146
  544MOL0     H73375   6.857   4.721   4.537  1.9015  0.0467  2.5497
  544MOL0     H73376   6.811   4.887   4.496  0.8147  1.5115  0.9114
  544MOL0     H73377   7.046   4.756   4.629 -2.2071 -0.9678  0.0080
  544MOL0     H73378   6.998   4.892   4.721 -3.3680 -0.5918  1.2174
  544MOL0     H73379   7.028   5.052   4.531  0.4573  0.1667  0.7799
  544MOL0     H73380   7.035   4.923   4.410 -0.4794  1.3537 -0.6797
  544MOL0     H73381   7.257   4.987   4.622 -0.6684 -0.2713  0.2894
  544MOL0     H73382   7.245   4.845   4.512  1.6410  1.0544 -2.1992
  544MOL0     H73383   7.242   5.005   4.315  0.0873  3.0242 -1.5771
  544MOL0     H73384   7.255   5.143   4.418  0.7622  0.3934  0.0334
  544MOL0     H73385   7.488   5.059   4.500 -1.0733  1.3402 -0.1740
  544MOL0     H73386   7.467   4.921   4.396 -0.9509  0.4354 -0.5494
  544MOL0     H73387   7.621   5.090   4.311 -0.4336 -2.0065  1.1713
  544MOL0     H73388   7.493   5.214   4.317  0.0102  0.5822 -0.4090
  544MOL0     H73389   7.380   5.039   4.135  0.6245 -0.1370 -0.7183
  544MOL0     H73390   7.530   5.131   4.088  0.8902 -1.0959 -0.6111
  544MOL0     H73391   7.767   4.949   4.143 -1.2304  0.7757 -0.2645
  544MOL0     H73392   7.817   4.641   4.226 -0.3797  0.3762  0.5820
  544MOL0     H73393   7.752   4.567   4.084 -2.1159  0.4330  2.5611
  544MOL0     H73394   7.874   4.714   3.932 -0.6994  1.5409  0.2433
  544MOL0     H73395   7.946   4.786   4.078 -2.0009 -1.7168  3.0735
  544MOL0     H73396   7.981   4.490   3.991  3.4532 -1.5365  1.0487
  544MOL0     H73397   8.066   4.574   4.122  1.0052 -2.5136 -0.8184
  544MOL0     H73398   8.185   4.720   3.992 -0.1964 -1.3073  2.6038
  544MOL0     H73399   8.094   4.681   3.845  2.0440 -0.3315 -0.7417
  544MOL0     H73400   8.291   4.750   3.779 -0.8203  0.4086 -0.5271
  544MOL0     H73401   8.522   4.814   3.746 -1.2205 -0.2920  1.7490
  544MOL0     H73402   9.070   4.513   3.869 -1.6698 -0.8317 -0.3943
  544MOL0     H73403   9.273   4.562   3.791 -2.4691 -2.1434  2.6339
  544MOL0     H73404   9.448   4.705   3.692 -0.7257  0.9513 -1.1528
  544MOL0     H73405   9.456   4.529   3.635 -2.7047 -0.9733 -0.3729
  544MOL0     H73406   9.563   4.627   3.423  0.8493 -0.9801 -0.5333
  544MOL0     H73407   9.589   4.778   3.517  2.9234 -0.5658  1.2443
  544MOL0     H73408   9.758   4.713   3.648 -0.4913  1.8063 -2.5766
  544MOL0     H73409   9.705   4.538   3.648 -2.2103  0.9874  1.1253
  544MOL0     H73410   9.838   4.705   3.424 -1.5720  0.0717  0.1581
  544MOL0     H73411   9.783   4.533   3.403  1.3192 -2.4234  1.8351
  544MOL0     H73412  10.013   4.533   3.428  1.2598  2.7016  0.2829
  544MOL0     H73413   9.944   4.465   3.582 -0.1083  0.4118  0.2667
  544MOL0     H73414  10.023   4.759   3.553 -0.2039 -0.0816 -1.4162
  544MOL0     H73415   9.956   4.680   3.692  2.3026  1.9994 -0.4988
  544MOL0     H73416  10.232   4.688   3.604  1.4749 -1.0147  0.7626
  544MOL0     H73417  10.171   4.522   3.621 -1.8495 -0.7529  0.5475
  544MOL0     H73418  10.138   4.743   3.818  1.8777  0.3149  3.1582
  544MOL0     H73419  10.114   4.571   3.860 -0.4825  2.0018  0.3424
  544MOL0     H73420   9.104   4.719   3.408 -0.7185 -1.6060 -0.2353
  544MOL0     H73421   8.882   4.664   3.495  0.2264  0.4907 -1.2684
  544MOL0     H73422   8.651   4.407   3.831  1.3225  0.3321 -2.6040
  544MOL0     H73423   8.415   4.357   3.892  0.9312 -0.2667  3.3758
  544MOL0     H73424   6.579   4.865   4.466 -3.6460  1.8137 -0.2057
  544MOL0     H73425   6.349   4.869   4.500  2.8323  0.1505 -2.0649
  544MOL0     H73426   5.933   4.637   4.448 -1.1517  0.6352 -0.2618
  544MOL0     H73427   5.703   4.564   4.503 -0.2540 -1.0233  1.9210
  544MOL0     H73428   5.563   4.689   4.885 -0.2748  0.6263 -1.1022
  544MOL0     H73429   5.526   4.517   4.914 -0.9921  1.2141  1.4637
  544MOL0     H73430   5.334   4.709   4.873  1.5050 -1.7362  1.6778
  544MOL0     H73431   5.313   4.541   4.851 -2.7031 -1.2592 -0.9657
  544MOL0     H73432   5.218   4.616   4.656  0.3467 -1.2735 -0.4530
  544MOL0     H73433   5.364   4.559   4.601 -0.0394 -0.1449  0.0823
  544MOL0     H73434   5.458   4.784   4.632  0.4355  1.2682  1.2224
  544MOL0     H73435   5.350   4.802   4.499 -0.8853  0.4723  1.1498
  544MOL0     H73436   5.153   5.049   4.771  0.0494 -2.1185  2.3129
  544MOL0     H73437   5.757   4.689   4.915 -1.8036  0.9603 -0.6579
  544MOL0     H73438   5.947   4.774   4.997  3.9565  1.0069  3.4970
  544MOL0     H73439   6.087   4.706   4.911  1.5161  1.0590 -4.3287
  544MOL0     H73440   6.045   4.874   4.883  0.3348  0.2959  3.0116
  545MOL0     O73441   6.455   3.192   9.256 -0.8960  1.0088 -0.3395
  545MOL0     C73442   6.496   3.143   9.149  0.5847  0.1255  0.2788
  545MOL0     O73443   6.627   3.146   9.108  0.8280 -0.3685 -0.1577
  545MOL0     C73444   6.719   3.221   9.185  0.4072 -0.3367  0.5924
  545MOL0     C73445   6.733   3.216   9.318 -0.9537 -0.1271  0.3694
  545MOL0     C73446   6.842   3.270   9.392 -0.2286  0.5484 -0.3312
  545MOL0     C73447   6.944   3.337   9.323 -1.6573  0.1532 -0.0653
  545MOL0     O73448   7.061   3.375   9.384 -0.0922 -0.8907 -0.4046
  545MOL0     C73449   7.076   3.360   9.524  0.9506  0.7551 -0.9683
  545MOL0     C73450   7.199   3.430   9.574 -0.6746  0.8769  0.0153
  545MOL0     C73451   7.330   3.364   9.513 -0.3872 -0.3968 -0.4518
  545MOL0     C73452   7.451   3.438   9.565 -0.0220  0.1830 -0.5479
  545MOL0     C73453   7.575   3.376   9.503 -0.4556 -0.4989  0.2332
  545MOL0     C73454   7.718   3.411   9.567  0.4385 -0.9660 -0.4905
  545MOL0     C73455   7.745   3.557   9.596  0.9497  0.6752 -0.8556
  545MOL0     C73456   7.777   3.637   9.472  0.0694 -0.0785  0.4992
  545MOL0     N73457   7.898   3.587   9.396 -0.3209 -0.9020 -0.6725
  545MOL0     C73458   7.908   3.534   9.273  0.3232  0.9299  0.3894
  545MOL0     C73459   8.041   3.519   9.247 -0.7732 -0.2168  0.6877
  545MOL0     C73460   8.093   3.490   9.110 -0.5165  0.1038  0.4188
  545MOL0     C73461   8.108   3.341   9.073 -0.1414 -0.1380  0.0567
  545MOL0     C73462   8.213   3.271   9.166 -0.2164  0.0857  0.3418
  545MOL0     C73463   8.362   3.271   9.117 -0.1165 -0.4035  0.4895
  545MOL0     O73464   8.396   3.412   9.118  0.5407  0.7565  0.5298
  545MOL0     C73465   8.521   3.443   9.071 -0.6041 -0.9573 -1.3209
  545MOL0     C73466   8.561   3.578   9.071  0.1160  0.0708  0.3685
  545MOL0     C73467   8.690   3.620   9.046 -0.1699  1.1291 -1.4475
  545MOL0     C73468   8.778   3.525   9.007 -0.0317  0.3142 -0.3638
  545MOL0     C73469   8.923   3.560   8.985 -0.7396 -0.5142 -0.1235
  545MOL0     O73470   8.947   3.694   8.988 -0.2006 -0.2692  0.1557
  545MOL0     C73471   9.079   3.736   9.005 -0.2247 -0.0147  0.1987
  545MOL0     C73472   9.164   3.697   9.113 -0.1119  0.3112 -0.4599
  545MOL0     C73473   9.300   3.739   9.114 -0.1650 -0.2606  0.1216
  545MOL0     C73474   9.353   3.824   9.016 -0.2188  0.2880  0.6946
  545MOL0     O73475   9.483   3.871   8.994  0.5891  0.4388 -0.0782
  545MOL0     C73476   9.565   3.832   9.107 -0.0834  0.2049 -0.2417
  545MOL0     C73477   9.705   3.898   9.088  0.3140 -0.0200 -0.7016
  545MOL0     C73478   9.791   3.873   9.216 -0.0217 -0.2660 -0.5973
  545MOL0     C73479   9.928   3.929   9.214 -0.1582  0.3884  0.3472
  545MOL0     C73480   9.949   4.071   9.278 -0.5192 -0.2037  0.6151
  545MOL0     C73481  10.086   4.136   9.250 -0.5213  0.2057  0.5783
  545MOL0     C73482  10.089   4.198   9.110 -0.5428 -0.0216  0.5834
  545MOL0     C73483  10.079   4.092   8.993  0.7911 -0.9153 -0.2943
  545MOL0    Cl73484  10.182   4.153   8.857  0.2942 -0.2460  0.3584
  545MOL0     C73485   9.268   3.859   8.916 -0.1898  0.4281  0.5014
  545MOL0     C73486   9.133   3.812   8.911 -0.2143 -0.2626  0.1440
  545MOL0     O73487   9.009   3.469   8.977 -0.4706 -1.0371 -0.6801
  545MOL0     C73488   8.736   3.391   8.992 -0.1886 -0.3581 -0.1730
  545MOL0     C73489   8.612   3.345   9.035 -0.6431 -0.2838 -0.3214
  545MOL0     N73490   8.111   3.555   9.363  0.2185  0.2348 -0.1876
  545MOL0     N73491   8.021   3.591   9.444  0.6758  0.0310  0.1252
  545MOL0     C73492   6.938   3.341   9.186  0.5037  0.2813  0.4338
  545MOL0     C73493   6.827   3.283   9.119  0.0781  0.1205 -0.5851
  545MOL0     C73494   6.410   3.066   9.064  0.7669 -0.2101 -0.4865
  545MOL0     C73495   6.416   3.073   8.924 -0.3193  0.1221  0.0890
  545MOL0     C73496   6.338   3.002   8.837 -0.4755  0.0985 -0.5239
  545MOL0     C73497   6.239   2.922   8.885 -1.3637  0.2179 -1.2783
  545MOL0     O73498   6.148   2.859   8.805  1.4343  0.0928 -0.2035
  545MOL0     C73499   6.176   2.831   8.670  0.3567  0.8902 -1.0217
  545MOL0     C73500   6.288   2.729   8.654  0.0133  0.8357  0.6584
  545MOL0     C73501   6.245   2.584   8.684 -0.2054  0.8334  1.2307
  545MOL0     C73502   6.370   2.492   8.678  0.0599 -0.5057 -0.2484
  545MOL0     C73503   6.338   2.367   8.738  0.8488 -0.0049  0.6002
  545MOL0     C73504   6.310   2.260   8.787  1.2959 -0.2438 -1.3346
  545MOL0     C73505   6.226   2.928   9.020  0.7968  0.1642 -1.0719
  545MOL0     C73506   6.302   2.993   9.109 -0.3770 -0.0769  0.0515
  545MOL0     C73507   6.264   2.981   9.257  0.9058 -0.2237 -1.1066
  545MOL0     H73508   6.666   3.142   9.362  0.5914 -3.1067 -1.9192
  545MOL0     H73509   6.858   3.253   9.498  3.2602 -2.0661 -1.0922
  545MOL0     H73510   6.996   3.405   9.584 -0.1984 -3.0386  0.6400
  545MOL0     H73511   7.091   3.255   9.552  3.7595  1.0268 -1.1247
  545MOL0     H73512   7.200   3.416   9.682 -0.5201 -3.4673 -0.3502
  545MOL0     H73513   7.198   3.536   9.548  2.5713  0.5617 -1.9815
  545MOL0     H73514   7.320   3.362   9.404  1.4704 -4.4933 -0.7117
  545MOL0     H73515   7.346   3.260   9.542 -0.2693 -1.7164 -4.5961
  545MOL0     H73516   7.446   3.547   9.562 -0.9639  0.1213 -1.4865
  545MOL0     H73517   7.451   3.424   9.674  0.3239  0.5137 -0.5015
  545MOL0     H73518   7.578   3.267   9.499 -0.9954 -0.4779 -1.4068
  545MOL0     H73519   7.573   3.415   9.401 -0.3313 -0.2314  0.3324
  545MOL0     H73520   7.731   3.352   9.658 -5.6033 -0.5612  1.0241
  545MOL0     H73521   7.799   3.379   9.500  0.5482 -3.2952  0.6768
  545MOL0     H73522   7.821   3.576   9.672 -1.2439 -1.0399  1.9389
  545MOL0     H73523   7.656   3.605   9.638  0.1128 -0.4951 -1.2504
  545MOL0     H73524   7.684   3.654   9.415 -0.2414  1.2089  1.3625
  545MOL0     H73525   7.809   3.736   9.505 -0.6795 -0.1570  1.5091
  545MOL0     H73526   7.830   3.516   9.200  0.9455 -2.6469  0.4649
  545MOL0     H73527   8.052   3.553   9.030  0.1740  1.0399  0.7800
  545MOL0     H73528   8.187   3.545   9.096 -0.5575  0.0777  0.0151
  545MOL0     H73529   8.008   3.296   9.082 -0.7779  0.6872 -2.1625
  545MOL0     H73530   8.140   3.323   8.970  0.8614  1.0572  0.1409
  545MOL0     H73531   8.186   3.166   9.162 -0.5408  0.1893 -2.8238
  545MOL0     H73532   8.197   3.301   9.270  1.7816 -3.4622  1.8465
  545MOL0     H73533   8.370   3.237   9.013 -0.7908  2.0069 -0.4277
  545MOL0     H73534   8.422   3.217   9.190 -0.4700 -1.2352  0.1805
  545MOL0     H73535   8.488   3.652   9.102 -2.4196 -0.9637 -2.6151
  545MOL0     H73536   8.716   3.725   9.048  1.0672  0.8373  0.6487
  545MOL0     H73537   9.123   3.637   9.194 -1.3721  2.0793  0.2946
  545MOL0     H73538   9.352   3.701   9.202 -1.5614 -1.3484  0.5117
  545MOL0     H73539   9.521   3.877   9.197  0.1978  0.8915 -0.4370
  545MOL0     H73540   9.581   3.725   9.119 -4.8717 -0.5158  1.8156
  545MOL0     H73541   9.750   3.861   8.995 -0.6299 -0.2601 -1.0792
  545MOL0     H73542   9.689   4.004   9.069  0.8922  0.3155  0.5450
  545MOL0     H73543   9.738   3.918   9.300 -0.8251 -2.0979 -0.0829
  545MOL0     H73544   9.792   3.767   9.241 -1.6290  0.2354  2.0438
  545MOL0     H73545   9.957   3.924   9.109  0.1193  0.2042  0.4304
  545MOL0     H73546   9.988   3.851   9.263 -0.9430 -1.8780 -2.0935
  545MOL0     H73547   9.948   4.044   9.384 -0.9039  0.4296  0.7778
  545MOL0     H73548   9.866   4.141   9.261 -0.3684  1.1617  4.5292
  545MOL0     H73549  10.093   4.223   9.317 -2.0907  0.0136  1.0259
  545MOL0     H73550  10.172   4.071   9.271 -0.3682  1.2246  3.6908
  545MOL0     H73551  10.187   4.246   9.097  0.3800 -1.8593  0.5342
  545MOL0     H73552  10.021   4.283   9.096 -0.3991 -0.0794 -0.6230
  545MOL0     H73553  10.128   4.005   9.038 -0.7258 -1.3157  0.6519
  545MOL0     H73554   9.977   4.070   8.960  0.5615 -2.7201  1.4472
  545MOL0     H73555   9.301   3.901   8.822  0.8074 -1.3294  0.0287
  545MOL0     H73556   9.075   3.850   8.827  1.8806  2.3173 -0.3004
  545MOL0     H73557   8.803   3.314   8.955 -0.2344 -1.3922  1.7762
  545MOL0     H73558   8.592   3.239   9.034 -2.7265  0.0606  0.1481
  545MOL0     H73559   7.018   3.388   9.130 -0.8816  3.1265  0.6719
  545MOL0     H73560   6.826   3.291   9.011 -2.5219  2.4762 -0.4992
  545MOL0     H73561   6.495   3.141   8.892  1.9290 -0.9505  2.9708
  545MOL0     H73562   6.367   3.007   8.733 -0.4693 -1.5981 -0.6275
  545MOL0     H73563   6.191   2.925   8.614 -2.4060  2.0952  0.0986
  545MOL0     H73564   6.082   2.798   8.625 -2.5399  3.1698  2.8476
  545MOL0     H73565   6.367   2.756   8.725  1.6180  1.4351 -1.2461
  545MOL0     H73566   6.325   2.719   8.552 -0.9703  1.5220  0.2121
  545MOL0     H73567   6.175   2.547   8.609  2.2650 -1.0466 -0.2811
  545MOL0     H73568   6.203   2.574   8.785  2.6789 -3.4172  2.2892
  545MOL0     H73569   6.393   2.484   8.571 -2.8470 -0.6439 -0.9457
  545MOL0     H73570   6.454   2.532   8.736 -3.0898  3.3008  2.1979
  545MOL0     H73571   6.268   2.172   8.830  0.1301  0.1427 -1.6237
  545MOL0     H73572   6.142   2.873   9.061 -0.1821  1.5784 -1.1082
  545MOL0     H73573   6.350   2.974   9.324  0.8303 -0.5713 -1.0423
  545MOL0     H73574   6.197   3.057   9.299  2.2011  0.3013  0.0936
  545MOL0     H73575   6.208   2.890   9.279 -0.1039  0.3171 -1.3638
  546MOL0     O73576  11.115   6.914   1.865  0.2200 -0.1575  0.0933
  546MOL0     C73577  11.077   6.796   1.884 -0.1235 -0.2584  0.4171
  546MOL0     O73578  11.147   6.686   1.858 -0.0579  0.1439 -0.4708
  546MOL0     C73579  11.279   6.684   1.819 -0.1981 -0.4812  0.4067
  546MOL0     C73580  11.333   6.563   1.751  0.1799 -0.6215  0.4588
  546MOL0     C73581  11.470   6.562   1.714  0.2814  0.4151 -0.4936
  546MOL0     C73582  11.557   6.671   1.733  1.1083 -0.4786  0.2580
  546MOL0     O73583  11.688   6.676   1.695 -1.0254  0.6319 -0.0900
  546MOL0     C73584  11.758   6.551   1.678 -0.3398 -0.6439 -0.5439
  546MOL0     C73585  11.797   6.525   1.533  0.3443 -0.8322 -0.4845
  546MOL0     C73586  11.906   6.418   1.514 -0.1410  0.2363  1.4001
  546MOL0     C73587  12.041   6.481   1.553 -0.3756 -0.1193 -0.2081
  546MOL0     C73588  12.154   6.381   1.511 -0.0950 -0.0051  0.1224
  546MOL0     C73589  12.280   6.378   1.601  0.7255  0.3711  0.5739
  546MOL0     C73590  12.344   6.518   1.605 -0.7024 -0.0458  0.2148
  546MOL0     C73591  12.449   6.548   1.713 -0.1577 -0.4772 -0.0398
  546MOL0     N73592  12.516   6.677   1.702 -0.4499 -0.6754  0.2349
  546MOL0     C73593  12.460   6.800   1.683  0.2540 -0.7159  0.0070
  546MOL0     C73594  12.563   6.880   1.717 -0.7993 -0.1974 -0.4487
  546MOL0     C73595  12.544   7.027   1.705 -0.0241  0.1736  0.6038
  546MOL0     C73596  12.590   7.070   1.573  0.1231 -0.0507 -0.2932
  546MOL0     C73597  12.482   7.040   1.455  0.0133 -0.0951 -0.8339
  546MOL0     C73598  12.518   7.058   1.316 -0.7012  0.6717  0.1380
  546MOL0     O73599  12.398   7.049   1.234 -0.9782 -0.5257 -1.2595
  546MOL0     C73600  12.417   7.060   1.097 -0.5542  0.2480 -0.7972
  546MOL0     C73601  12.548   7.089   1.040 -0.5987 -0.1997  0.2236
  546MOL0     C73602  12.557   7.125   0.912  0.8430  0.6346  0.4902
  546MOL0     C73603  12.448   7.110   0.824  0.7425  0.9770  0.3562
  546MOL0     C73604  12.465   7.148   0.682  0.9216 -0.7540 -0.1594
  546MOL0     O73605  12.588   7.181   0.651  0.3065 -0.0448 -0.2553
  546MOL0     C73606  12.624   7.158   0.523  0.1347 -0.6337 -0.1135
  546MOL0     C73607  12.665   7.027   0.479  0.7905 -0.0401 -0.1716
  546MOL0     C73608  12.705   7.004   0.347  1.8401  0.4948 -0.0511
  546MOL0     C73609  12.678   7.107   0.251 -0.9403  0.9968  0.6818
  546MOL0     O73610  12.690   7.089   0.115  0.2937 -0.3540  0.6691
  546MOL0     C73611  12.805   7.017   0.064 -0.4183  0.2878  0.1214
  546MOL0     C73612  12.781   6.962  -0.082  0.1982  1.0505  0.2897
  546MOL0     C73613  12.703   7.064  -0.176 -0.0860  0.0048 -1.2943
  546MOL0     C73614  12.725   7.046  -0.329 -0.5937 -0.2096 -1.0833
  546MOL0     C73615  12.643   7.144  -0.408 -1.0872 -0.9580 -0.3573
  546MOL0     C73616  12.497   7.102  -0.431 -0.0890 -0.0986 -0.4511
  546MOL0     C73617  12.400   7.146  -0.318 -0.1505  0.6604 -0.1595
  546MOL0     C73618  12.257   7.103  -0.351 -0.1841  0.2111  0.1590
  546MOL0    Cl73619  12.177   7.225  -0.456  0.1070 -0.1413 -0.0633
  546MOL0     C73620  12.624   7.227   0.288 -0.3407  0.0388 -0.4963
  546MOL0     C73621  12.601   7.263   0.427 -0.3447  0.5413 -0.2802
  546MOL0     O73622  12.364   7.153   0.606 -0.9170 -0.8036  0.5658
  546MOL0     C73623  12.320   7.069   0.882 -0.2101  0.2219 -0.4537
  546MOL0     C73624  12.305   7.050   1.021  0.3660 -0.0728 -0.9079
  546MOL0     N73625  12.670   6.815   1.765 -0.5570 -0.5123  0.5256
  546MOL0     N73626  12.637   6.693   1.758  0.0528 -0.6720 -0.3546
  546MOL0     C73627  11.506   6.789   1.788 -0.6205  0.1101  0.7541
  546MOL0     C73628  11.372   6.788   1.839 -0.1042  0.2723  0.1705
  546MOL0     C73629  10.939   6.779   1.923  0.0286  0.3177 -0.6300
  546MOL0     C73630  10.873   6.882   1.989 -0.9551  0.6147 -1.2442
  546MOL0     C73631  10.746   6.870   2.044  0.3659  0.1491  0.5410
  546MOL0     C73632  10.677   6.744   2.044  1.1808 -0.0258 -0.3534
  546MOL0     O73633  10.551   6.721   2.093  0.6319 -0.2937 -0.1147
  546MOL0     C73634  10.478   6.832   2.146  0.6305  1.0012 -0.4118
  546MOL0     C73635  10.337   6.787   2.188  0.7611  0.0926 -0.3921
  546MOL0     C73636  10.256   6.905   2.238  0.2094  1.1174 -0.4813
  546MOL0     C73637  10.108   6.860   2.247 -0.5666  0.6784  0.1195
  546MOL0     C73638  10.072   6.735   2.310 -0.1913 -0.2857 -0.0800
  546MOL0     C73639  10.082   6.623   2.348 -0.1253  0.2700 -0.4215
  546MOL0     C73640  10.741   6.641   1.985 -0.1386 -0.8714  0.2745
  546MOL0     C73641  10.864   6.662   1.918 -0.3486 -0.0259  0.1340
  546MOL0     C73642  10.911   6.537   1.841 -0.9646  1.4260 -0.3559
  546MOL0     H73643  11.267   6.479   1.732  0.7751 -0.8462 -0.6713
  546MOL0     H73644  11.500   6.479   1.652 -0.8099 -1.0831  0.9184
  546MOL0     H73645  11.841   6.560   1.749  0.8476 -0.0739 -1.9471
  546MOL0     H73646  11.711   6.457   1.710  0.6863 -1.1583 -0.5055
  546MOL0     H73647  11.832   6.618   1.486 -1.1254  0.9101  1.6717
  546MOL0     H73648  11.709   6.488   1.481 -1.0583  0.1692  1.0678
  546MOL0     H73649  11.912   6.363   1.420  0.9888 -0.2318  1.7209
  546MOL0     H73650  11.885   6.341   1.589 -0.2422  0.0915  1.2239
  546MOL0     H73651  12.053   6.579   1.506  3.0402  0.7036  2.0515
  546MOL0     H73652  12.048   6.495   1.661  0.5990  2.2285 -0.5318
  546MOL0     H73653  12.116   6.279   1.515 -0.5209 -0.0345 -2.6959
  546MOL0     H73654  12.179   6.409   1.408  1.7405 -3.0812 -0.3955
  546MOL0     H73655  12.252   6.345   1.701 -1.4538  1.8402  0.5194
  546MOL0     H73656  12.350   6.305   1.561 -2.5595 -1.6831 -1.9979
  546MOL0     H73657  12.261   6.586   1.626  0.2680  1.3916 -0.4940
  546MOL0     H73658  12.380   6.531   1.503 -1.5970 -1.4044 -0.2995
  546MOL0     H73659  12.404   6.515   1.807  0.2533 -0.0849  0.3011
  546MOL0     H73660  12.525   6.470   1.700 -0.3016 -1.0981  2.3448
  546MOL0     H73661  12.373   6.839   1.630  1.9324  0.8895 -1.7452
  546MOL0     H73662  12.437   7.047   1.706 -0.0899 -0.1334  1.8072
  546MOL0     H73663  12.591   7.066   1.796  0.0398 -3.8129  2.4912
  546MOL0     H73664  12.601   7.178   1.568  3.5214 -0.3212 -2.0652
  546MOL0     H73665  12.687   7.022   1.557  1.4105  1.6343  1.8746
  546MOL0     H73666  12.406   7.117   1.468  0.6878  0.8941 -2.3895
  546MOL0     H73667  12.454   6.935   1.466  1.1320 -0.3952 -0.7177
  546MOL0     H73668  12.597   6.992   1.279 -1.5847  0.5628 -1.6653
  546MOL0     H73669  12.554   7.161   1.309 -2.1843  1.2427  0.7311
  546MOL0     H73670  12.635   7.091   1.105 -1.1351 -1.7261  1.0254
  546MOL0     H73671  12.652   7.151   0.865  0.0825  0.1958 -1.3968
  546MOL0     H73672  12.679   6.947   0.552 -0.5640 -0.7534 -0.6532
  546MOL0     H73673  12.731   6.901   0.325 -2.8098 -0.6851 -1.1285
  546MOL0     H73674  12.873   7.102   0.058 -0.3289  0.1677 -0.8017
  546MOL0     H73675  12.838   6.934   0.127  0.2528 -1.0574 -1.9106
  546MOL0     H73676  12.875   6.936  -0.130 -0.9748 -0.8365 -1.1270
  546MOL0     H73677  12.723   6.869  -0.083 -1.6713  2.1075  2.0944
  546MOL0     H73678  12.597   7.052  -0.149  0.8791 -1.1088  2.6120
  546MOL0     H73679  12.732   7.167  -0.155 -1.4918  0.1879 -0.0596
  546MOL0     H73680  12.701   6.942  -0.351  1.3885 -1.0306  0.2890
  546MOL0     H73681  12.831   7.063  -0.355 -0.4559  0.3860 -0.1524
  546MOL0     H73682  12.689   7.151  -0.507  3.3074  2.0007  1.5659
  546MOL0     H73683  12.652   7.242  -0.359 -0.3267 -1.8855  1.4770
  546MOL0     H73684  12.457   7.139  -0.526 -1.8939  1.0069  0.6888
  546MOL0     H73685  12.481   6.994  -0.444 -3.1408  0.0434  1.2084
  546MOL0     H73686  12.402   7.252  -0.294  1.1891  0.4980  0.5488
  546MOL0     H73687  12.428   7.095  -0.225  0.6743  1.1847 -0.1102
  546MOL0     H73688  12.263   7.014  -0.415  0.6829  1.2160 -1.2177
  546MOL0     H73689  12.200   7.084  -0.260 -2.9604  1.2369 -1.2375
  546MOL0     H73690  12.620   7.304   0.211 -1.5259 -1.4694 -2.0004
  546MOL0     H73691  12.548   7.352   0.459 -0.9911  0.0120  0.1660
  546MOL0     H73692  12.233   7.062   0.817  0.7185 -0.3779 -1.6734
  546MOL0     H73693  12.214   7.019   1.072 -0.1092  2.7595  0.1251
  546MOL0     H73694  11.581   6.866   1.788 -0.7108  0.2397 -0.9644
  546MOL0     H73695  11.332   6.873   1.894 -0.9887 -0.8335  1.3226
  546MOL0     H73696  10.926   6.975   2.006  0.7937 -0.7905  1.8875
  546MOL0     H73697  10.713   6.962   2.091  2.9071  0.2444  2.3497
  546MOL0     H73698  10.471   6.908   2.067 -0.1030 -0.5307 -1.8903
  546MOL0     H73699  10.534   6.879   2.227  0.4306 -0.1767  0.4287
  546MOL0     H73700  10.327   6.707   2.262  0.0702  1.3357  0.9095
  546MOL0     H73701  10.294   6.741   2.099  0.1566 -1.9915  0.9088
  546MOL0     H73702  10.275   6.975   2.156  0.6281 -1.5136 -2.7502
  546MOL0     H73703  10.290   6.937   2.337 -0.6235  0.2607  0.0958
  546MOL0     H73704  10.047   6.941   2.289 -0.0712 -0.5297  3.4501
  546MOL0     H73705  10.071   6.856   2.144 -0.9102 -1.2811  0.2846
  546MOL0     H73706  10.097   6.520   2.372 -0.3733  0.9963  3.5280
  546MOL0     H73707  10.699   6.541   1.990 -2.4625  0.0288  0.0115
  546MOL0     H73708  10.943   6.576   1.744  1.6055  1.6051  0.5009
  546MOL0     H73709  10.995   6.497   1.899 -0.4224  3.5658  0.4624
  546MOL0     H73710  10.839   6.456   1.827  0.9562 -0.1941 -1.4316
  547MOL0     O73711   6.578   0.693   3.232 -0.9908  0.1769  0.3337
  547MOL0     C73712   6.474   0.726   3.173 -0.6259 -0.4035 -0.9707
  547MOL0     O73713   6.353   0.669   3.190 -0.3367  0.6200  0.5422
  547MOL0     C73714   6.329   0.579   3.298 -0.7108 -1.3513  0.1388
  547MOL0     C73715   6.405   0.474   3.332  0.0765  0.8022 -0.2741
  547MOL0     C73716   6.380   0.408   3.460  0.7850 -0.4176 -0.5072
  547MOL0     C73717   6.262   0.432   3.531  0.7475 -0.0824  0.3486
  547MOL0     O73718   6.229   0.364   3.647 -0.0241  0.3063  0.4889
  547MOL0     C73719   6.280   0.440   3.754 -0.3753  0.0442  0.5831
  547MOL0     C73720   6.256   0.351   3.872  0.2128 -0.5742 -0.0582
  547MOL0     C73721   6.296   0.418   4.006  0.3729 -0.1534 -0.3871
  547MOL0     C73722   6.214   0.359   4.128 -0.6488  0.4055 -0.3250
  547MOL0     C73723   6.254   0.429   4.258 -0.0068 -0.1296 -0.3866
  547MOL0     C73724   6.142   0.411   4.366 -0.0120  0.8795 -0.2213
  547MOL0     C73725   6.193   0.484   4.485 -0.1853 -0.1430 -0.2933
  547MOL0     C73726   6.089   0.508   4.599  0.1482  0.9317  1.1519
  547MOL0     N73727   6.030   0.390   4.658 -0.3111  1.5391 -0.1926
  547MOL0     C73728   6.056   0.332   4.780  0.0041  0.1305  0.5965
  547MOL0     C73729   5.979   0.217   4.779 -0.3353  0.0470  0.5138
  547MOL0     C73730   5.995   0.104   4.881 -0.5080 -0.6874  0.0753
  547MOL0     C73731   5.984  -0.046   4.835  0.7028  0.1910  0.0744
  547MOL0     C73732   5.956  -0.148   4.951 -0.0931 -0.3995 -0.2675
  547MOL0     C73733   6.057  -0.136   5.065 -0.1901  0.1180  0.0121
  547MOL0     O73734   6.191  -0.111   5.009  0.5884 -0.0084  0.8021
  547MOL0     C73735   6.297  -0.104   5.091 -0.9926 -1.0555  0.4238
  547MOL0     C73736   6.298  -0.139   5.225 -0.3547 -0.4744  0.1086
  547MOL0     C73737   6.420  -0.140   5.306  0.8855  0.2244  0.0379
  547MOL0     C73738   6.537  -0.083   5.249  0.4687 -0.1965 -0.3510
  547MOL0     C73739   6.658  -0.066   5.328 -0.6343  0.0712  0.3739
  547MOL0     O73740   6.667  -0.135   5.437  1.1254  1.0187  0.0375
  547MOL0     C73741   6.781  -0.162   5.500 -0.0249 -0.6863  0.7037
  547MOL0     C73742   6.902  -0.196   5.442 -0.4139  0.5914  0.4828
  547MOL0     C73743   7.013  -0.246   5.522 -0.1539 -1.0138  0.6137
  547MOL0     C73744   7.003  -0.262   5.664  0.7002  0.4012  0.3691
  547MOL0     O73745   7.095  -0.315   5.748 -0.2027 -0.0336  0.0633
  547MOL0     C73746   7.238  -0.290   5.719  0.8257 -0.0270 -0.1694
  547MOL0     C73747   7.280  -0.152   5.758 -0.6198 -0.3212 -0.2818
  547MOL0     C73748   7.425  -0.121   5.720 -0.1437  0.3828  0.1258
  547MOL0     C73749   7.473   0.028   5.733  0.8711  0.1832  0.6332
  547MOL0     C73750   7.620   0.038   5.669 -0.6009 -0.9086  0.1298
  547MOL0     C73751   7.734  -0.029   5.749 -0.1277 -0.2514 -0.5062
  547MOL0     C73752   7.775   0.055   5.874 -0.2176  0.5736 -0.0256
  547MOL0     C73753   7.910  -0.005   5.928 -0.9026  0.7292 -0.8141
  547MOL0    Cl73754   7.975   0.060   6.075 -0.4841 -0.2827 -0.1222
  547MOL0     C73755   6.881  -0.220   5.715 -0.1382 -0.0228 -0.8153
  547MOL0     C73756   6.771  -0.175   5.638 -0.1383  0.4057  0.0611
  547MOL0     O73757   6.755  -0.002   5.285  0.4040  0.3125  0.1403
  547MOL0     C73758   6.528  -0.032   5.112 -0.1484 -0.2362 -0.2940
  547MOL0     C73759   6.412  -0.042   5.041  0.1441  0.4625  0.3006
  547MOL0     N73760   5.902   0.215   4.666  0.7814  0.1400 -0.0828
  547MOL0     N73761   5.930   0.324   4.597 -0.2249 -0.0842 -0.0085
  547MOL0     C73762   6.174   0.524   3.478  0.0746 -0.4712 -0.1254
  547MOL0     C73763   6.206   0.597   3.364 -0.0413  0.9744 -0.0395
  547MOL0     C73764   6.486   0.828   3.067 -0.1120 -0.1962  0.1571
  547MOL0     C73765   6.379   0.835   2.967  0.4236  0.3522 -0.1019
  547MOL0     C73766   6.379   0.904   2.851 -0.4027 -0.5162 -0.8319
  547MOL0     C73767   6.491   0.976   2.824 -0.2433  0.0981  1.1633
  547MOL0     O73768   6.472   1.050   2.705 -0.0230 -0.1524  0.2647
  547MOL0     C73769   6.568   1.152   2.679 -0.8137 -0.1801 -0.3438
  547MOL0     C73770   6.545   1.233   2.552 -0.3382  0.1517  0.2428
  547MOL0     C73771   6.586   1.162   2.418  0.6309 -0.6983 -0.4944
  547MOL0     C73772   6.570   1.266   2.304 -0.3029 -0.0142  0.1922
  547MOL0     C73773   6.653   1.232   2.181  0.0688  0.1487  0.8318
  547MOL0     C73774   6.715   1.221   2.073  0.0792  0.0279  0.0797
  547MOL0     C73775   6.597   0.987   2.911 -0.4178  0.8607  0.4457
  547MOL0     C73776   6.606   0.913   3.028 -0.0886  0.9517  0.0762
  547MOL0     C73777   6.725   0.930   3.111 -0.0467 -0.4804  0.3719
  547MOL0     H73778   6.492   0.443   3.275 -0.3006 -1.7380  0.3843
  547MOL0     H73779   6.450   0.336   3.500  1.6615  1.6094  1.8579
  547MOL0     H73780   6.386   0.466   3.752  0.5775 -3.2946  1.3662
  547MOL0     H73781   6.223   0.532   3.768 -1.0157 -0.3209  0.4432
  547MOL0     H73782   6.313   0.258   3.861  1.6168  0.3045 -0.5811
  547MOL0     H73783   6.152   0.319   3.871  0.1696 -0.8114  3.1813
  547MOL0     H73784   6.284   0.526   3.998 -2.7980 -0.5594 -2.9380
  547MOL0     H73785   6.397   0.387   4.034  0.9166  0.3622 -1.6692
  547MOL0     H73786   6.108   0.376   4.106 -0.3607  0.6286 -1.5648
  547MOL0     H73787   6.224   0.250   4.137 -0.3002  0.2822 -1.9753
  547MOL0     H73788   6.351   0.383   4.275  0.3445 -1.0366 -4.0254
  547MOL0     H73789   6.265   0.536   4.239  2.2486  0.1786  2.1029
  547MOL0     H73790   6.042   0.440   4.332 -0.1548 -2.0926 -2.7925
  547MOL0     H73791   6.139   0.304   4.385  0.1454  0.9311  0.0975
  547MOL0     H73792   6.218   0.585   4.449 -2.8864  0.2369 -1.3026
  547MOL0     H73793   6.283   0.441   4.530 -1.2865 -0.7153  1.4674
  547MOL0     H73794   6.118   0.570   4.684 -1.4047  1.3375  1.4143
  547MOL0     H73795   6.002   0.557   4.555  1.5210  3.3498  0.9308
  547MOL0     H73796   6.111   0.370   4.865  2.3675  2.9778 -1.9567
  547MOL0     H73797   6.093   0.123   4.926 -0.7814  1.1912 -0.0309
  547MOL0     H73798   5.926   0.117   4.965  2.7076  0.0390  2.8328
  547MOL0     H73799   5.906  -0.055   4.759  0.5209  1.1052  0.1493
  547MOL0     H73800   6.080  -0.071   4.789  0.4046  1.5565 -1.3632
  547MOL0     H73801   5.939  -0.249   4.912 -1.3835 -0.2670 -0.1082
  547MOL0     H73802   5.863  -0.125   5.003  1.5805 -0.9317  3.2226
  547MOL0     H73803   6.068  -0.219   5.136  2.5921  0.5894  0.2663
  547MOL0     H73804   6.021  -0.051   5.124  1.0735  0.9462 -0.3583
  547MOL0     H73805   6.214  -0.173   5.284 -0.4964 -0.3931 -0.0436
  547MOL0     H73806   6.422  -0.175   5.409  4.2433  2.8946  1.0671
  547MOL0     H73807   6.922  -0.192   5.335 -1.2451  2.2237  0.3587
  547MOL0     H73808   7.109  -0.264   5.475 -0.5602  0.6384 -0.9721
  547MOL0     H73809   7.285  -0.358   5.792 -0.4654  0.7444  1.4401
  547MOL0     H73810   7.269  -0.328   5.621 -0.1353 -1.3662  0.0119
  547MOL0     H73811   7.215  -0.077   5.711  0.1183 -0.2345 -1.1898
  547MOL0     H73812   7.271  -0.142   5.867  1.2132 -3.8033  0.3472
  547MOL0     H73813   7.484  -0.188   5.783 -1.0860  0.2613  0.8788
  547MOL0     H73814   7.423  -0.162   5.618 -2.6607  1.0319 -0.1461
  547MOL0     H73815   7.475   0.070   5.834  1.7703  1.0773  0.2575
  547MOL0     H73816   7.404   0.086   5.671  2.0498 -1.2298 -2.1850
  547MOL0     H73817   7.657   0.140   5.655 -1.5632 -0.3895  1.2083
  547MOL0     H73818   7.611  -0.014   5.573 -5.4872 -3.5464  1.6497
  547MOL0     H73819   7.701  -0.130   5.774 -3.0996  0.0908 -2.5456
  547MOL0     H73820   7.825  -0.032   5.688 -0.0037 -3.9575 -0.3385
  547MOL0     H73821   7.692   0.046   5.944 -1.1037  0.5342 -1.0590
  547MOL0     H73822   7.787   0.161   5.853  0.1124  0.3012 -1.3362
  547MOL0     H73823   7.904  -0.111   5.952  2.4115  0.7111  0.4251
  547MOL0     H73824   7.989   0.001   5.853 -0.7506  1.6435 -0.5969
  547MOL0     H73825   6.865  -0.239   5.821 -1.7708 -1.6418 -1.2900
  547MOL0     H73826   6.681  -0.150   5.693 -3.2098 -2.8159 -3.0157
  547MOL0     H73827   6.614   0.026   5.080 -0.7686  1.8591  1.6045
  547MOL0     H73828   6.413   0.001   4.941  1.6141 -0.4501 -0.1184
  547MOL0     H73829   6.083   0.541   3.534 -0.0879  0.9963 -0.7753
  547MOL0     H73830   6.140   0.677   3.332 -1.3919  0.4007  1.2344
  547MOL0     H73831   6.293   0.771   2.984  1.3302 -0.6530  0.8466
  547MOL0     H73832   6.299   0.903   2.779  0.5613 -1.9328 -1.9660
  547MOL0     H73833   6.671   1.115   2.677 -0.6372  0.2395 -3.9088
  547MOL0     H73834   6.555   1.221   2.763 -3.6148  0.2556 -1.0421
  547MOL0     H73835   6.591   1.333   2.547 -0.1676  0.0207 -1.6317
  547MOL0     H73836   6.437   1.248   2.540 -0.1532  0.6217 -1.0482
  547MOL0     H73837   6.524   1.078   2.386  0.5720  0.1818 -2.8316
  547MOL0     H73838   6.688   1.125   2.432 -0.0698 -1.5311  3.6374
  547MOL0     H73839   6.467   1.250   2.269  0.5647 -2.5469 -1.4491
  547MOL0     H73840   6.587   1.371   2.330 -2.6130  0.4572  0.0694
  547MOL0     H73841   6.776   1.197   1.988 -0.9856 -1.2227 -0.3716
  547MOL0     H73842   6.684   1.050   2.899  0.4505 -0.0164  1.8001
  547MOL0     H73843   6.764   1.032   3.116  0.5100 -0.7105  0.7927
  547MOL0     H73844   6.690   0.908   3.213  2.0221  0.7033  1.3956
  547MOL0     H73845   6.811   0.865   3.091  1.0172  1.3349 -1.1968
  548MOL0     O73846   2.942   2.538   0.840  0.1782  0.3241  0.4365
  548MOL0     C73847   3.017   2.515   0.933 -0.2487  0.3698  0.4599
  548MOL0     O73848   2.993   2.433   1.030  0.6737 -0.8129  0.4593
  548MOL0     C73849   2.858   2.416   1.069 -0.3905 -0.5226  0.3829
  548MOL0     C73850   2.778   2.336   0.985 -0.8289  0.1353  0.7467
  548MOL0     C73851   2.647   2.305   1.012 -0.7632 -0.2033 -0.3616
  548MOL0     C73852   2.588   2.367   1.124  0.1094  0.7183 -0.1340
  548MOL0     O73853   2.460   2.347   1.167 -0.9565  0.1653  0.3651
  548MOL0     C73854   2.408   2.218   1.153  0.2343  1.0313  0.2605
  548MOL0     C73855   2.272   2.190   1.225  0.6758 -0.5560  0.5571
  548MOL0     C73856   2.162   2.293   1.204  0.2793  0.0285  0.1509
  548MOL0     C73857   2.026   2.225   1.248  0.2392  0.0179  0.4408
  548MOL0     C73858   1.917   2.327   1.249 -0.2754  0.0512 -0.3099
  548MOL0     C73859   1.789   2.264   1.282 -0.0443  0.3378  0.6670
  548MOL0     C73860   1.753   2.154   1.184 -0.5849 -0.0548 -0.6788
  548MOL0     C73861   1.604   2.129   1.159  0.5071  0.1571 -0.1058
  548MOL0     N73862   1.536   2.227   1.076  0.2791  0.2568 -0.1179
  548MOL0     C73863   1.404   2.202   1.054 -0.3411 -0.6540 -0.1613
  548MOL0     C73864   1.362   2.292   0.969 -0.5520 -0.0072  0.5053
  548MOL0     C73865   1.227   2.327   0.912 -0.9966  0.7919 -0.5500
  548MOL0     C73866   1.112   2.301   1.007 -0.0390 -0.3813 -0.4103
  548MOL0     C73867   0.988   2.333   0.913 -0.6892  0.0021 -0.5645
  548MOL0     C73868   0.852   2.332   0.975  0.3672 -0.3994  0.0256
  548MOL0     O73869   0.851   2.218   1.063 -0.3441 -0.2800 -0.3173
  548MOL0     C73870   0.730   2.186   1.092  1.0177  0.0793  0.2476
  548MOL0     C73871   0.668   2.237   1.202  0.6241  0.6777 -0.2673
  548MOL0     C73872   0.539   2.200   1.254 -0.1075 -0.1743  0.1009
  548MOL0     C73873   0.480   2.094   1.184 -0.0780  0.5420 -0.8881
  548MOL0     C73874   0.357   2.040   1.235 -0.0693  0.4103 -0.6150
  548MOL0     O73875   0.287   1.951   1.157  0.3643 -0.7923 -0.3692
  548MOL0     C73876   0.171   1.896   1.202 -0.3753  0.3800  0.0783
  548MOL0     C73877   0.148   1.844   1.328 -0.6543  0.6221  0.1277
  548MOL0     C73878   0.019   1.781   1.349  0.0975 -0.1608 -0.4425
  548MOL0     C73879  -0.076   1.761   1.251  0.2933  0.4941 -0.0259
  548MOL0     O73880  -0.185   1.686   1.296 -0.0119 -0.2006 -0.5898
  548MOL0     C73881  -0.214   1.564   1.221  0.2943 -0.9541 -0.3050
  548MOL0     C73882  -0.335   1.591   1.133  0.2686  0.3823  0.3177
  548MOL0     C73883  -0.458   1.643   1.216 -0.4599  0.2860 -0.2516
  548MOL0     C73884  -0.571   1.703   1.130  0.2373 -0.7011 -0.0466
  548MOL0     C73885  -0.705   1.723   1.204 -0.3889 -0.3410  0.1324
  548MOL0     C73886  -0.813   1.789   1.109 -0.7616 -0.8495  0.8739
  548MOL0     C73887  -0.948   1.829   1.170 -0.1466 -0.8070  0.0031
  548MOL0     C73888  -1.042   1.876   1.062  0.4107 -0.5702 -0.5751
  548MOL0    Cl73889  -1.184   1.921   1.169 -0.0755  0.5379  0.1423
  548MOL0     C73890  -0.044   1.799   1.123 -0.0505  0.5623 -0.3979
  548MOL0     C73891   0.073   1.872   1.099 -0.1811  0.1966 -0.6847
  548MOL0     O73892   0.320   2.090   1.345 -0.2409 -0.4623 -0.5772
  548MOL0     C73893   0.544   2.030   1.079  0.2341  0.2751  0.1355
  548MOL0     C73894   0.667   2.073   1.027 -0.8888 -0.3966  0.2624
  548MOL0     N73895   1.478   2.360   0.928 -0.2746 -0.4947  0.6233
  548MOL0     N73896   1.581   2.320   0.992 -0.3367  0.0897 -0.3512
  548MOL0     C73897   2.669   2.452   1.208  0.5193  0.0057  0.6033
  548MOL0     C73898   2.804   2.481   1.177  0.2301 -0.0262 -0.5714
  548MOL0     C73899   3.156   2.556   0.917 -0.1015 -0.2915  0.5759
  548MOL0     C73900   3.254   2.488   0.993 -0.0724  0.8491  0.2980
  548MOL0     C73901   3.387   2.509   0.988 -0.3663 -0.0763  0.1238
  548MOL0     C73902   3.435   2.612   0.906  0.4484 -0.1495 -0.4879
  548MOL0     O73903   3.566   2.625   0.891 -0.2654 -0.3008  0.3729
  548MOL0     C73904   3.620   2.730   0.810  1.1808 -0.4929  0.0547
  548MOL0     C73905   3.610   2.859   0.887 -0.5152 -0.6878 -0.5427
  548MOL0     C73906   3.682   2.976   0.813 -0.2207  0.3983  0.0319
  548MOL0     C73907   3.614   3.033   0.686  0.4212 -0.1756 -0.6977
  548MOL0     C73908   3.469   3.052   0.698  0.3358 -1.0065 -0.4115
  548MOL0     C73909   3.350   3.074   0.704 -0.0097 -0.3569 -0.8272
  548MOL0     C73910   3.337   2.686   0.838 -0.6309  0.4144  1.0495
  548MOL0     C73911   3.201   2.671   0.848  0.2620  0.2604 -0.1688
  548MOL0     C73912   3.116   2.768   0.776  0.0026  0.0259 -0.2540
  548MOL0     H73913   2.823   2.280   0.903  0.3561 -1.3563  2.3443
  548MOL0     H73914   2.593   2.237   0.947 -1.2342  0.0010 -0.1872
  548MOL0     H73915   2.383   2.199   1.048  0.7086 -0.2594  0.3628
  548MOL0     H73916   2.482   2.145   1.185  1.5191  1.7062 -1.0606
  548MOL0     H73917   2.286   2.181   1.333  0.1861 -1.1181  0.5804
  548MOL0     H73918   2.232   2.098   1.180 -0.0067  0.0486 -0.1013
  548MOL0     H73919   2.141   2.324   1.101 -2.0656  0.7719  0.8008
  548MOL0     H73920   2.174   2.387   1.258 -0.4308  1.0104 -1.3574
  548MOL0     H73921   2.004   2.143   1.179 -1.7597  1.2592 -0.5018
  548MOL0     H73922   2.028   2.181   1.348 -1.2396  0.8050  0.8549
  548MOL0     H73923   1.932   2.386   1.339 -3.8717 -1.4580  1.5142
  548MOL0     H73924   1.930   2.395   1.164  3.8094 -0.5820 -0.3502
  548MOL0     H73925   1.790   2.231   1.387 -1.4351 -2.4119 -0.0765
  548MOL0     H73926   1.718   2.347   1.275  0.6459  0.7853 -2.3979
  548MOL0     H73927   1.788   2.059   1.223 -0.3265  0.1705 -0.3659
  548MOL0     H73928   1.791   2.168   1.082 -1.4175 -1.5606 -1.2368
  548MOL0     H73929   1.602   2.040   1.095 -2.5746  0.8172 -1.1071
  548MOL0     H73930   1.549   2.105   1.250  1.4749 -0.5886  0.3089
  548MOL0     H73931   1.341   2.133   1.110  1.9020 -3.1968 -0.5951
  548MOL0     H73932   1.215   2.427   0.869 -2.5654  0.1736 -1.6841
  548MOL0     H73933   1.223   2.254   0.830 -1.6371 -2.3067  2.0272
  548MOL0     H73934   1.120   2.202   1.051 -0.1079 -0.6009 -0.8868
  548MOL0     H73935   1.115   2.368   1.094 -3.4642 -0.1195 -0.3591
  548MOL0     H73936   1.001   2.251   0.842  1.7211 -0.9001  0.7905
  548MOL0     H73937   0.999   2.431   0.866  1.4003 -0.3640 -0.9348
  548MOL0     H73938   0.773   2.338   0.899  0.1521  0.7293  0.3130
  548MOL0     H73939   0.845   2.426   1.030  0.0774  0.4307 -1.3638
  548MOL0     H73940   0.718   2.317   1.255  1.1016 -0.3503  0.8822
  548MOL0     H73941   0.501   2.255   1.339  2.5718  3.3348 -0.6755
  548MOL0     H73942   0.226   1.859   1.401  0.3640  0.2198 -0.8585
  548MOL0     H73943  -0.001   1.740   1.447 -1.7764  0.7932 -0.3809
  548MOL0     H73944  -0.127   1.533   1.162  1.0486 -0.0815  0.3064
  548MOL0     H73945  -0.241   1.491   1.298 -0.4029  1.8866  2.3659
  548MOL0     H73946  -0.307   1.666   1.059 -3.9102  1.9432  0.0393
  548MOL0     H73947  -0.367   1.500   1.081  0.9331 -0.0784  0.6992
  548MOL0     H73948  -0.495   1.556   1.272  0.7866  1.7383  3.0018
  548MOL0     H73949  -0.428   1.715   1.292 -0.5231 -0.8185  0.8430
  548MOL0     H73950  -0.587   1.645   1.038 -0.2579  2.5840 -2.2182
  548MOL0     H73951  -0.538   1.799   1.089 -1.7265 -0.4229 -1.1205
  548MOL0     H73952  -0.691   1.787   1.292 -1.2427  2.5403 -1.6790
  548MOL0     H73953  -0.743   1.628   1.243  2.4273 -0.4434  3.0534
  548MOL0     H73954  -0.779   1.884   1.068 -0.0517 -2.0160 -1.3953
  548MOL0     H73955  -0.834   1.719   1.028 -2.6845  2.2811 -1.5455
  548MOL0     H73956  -0.939   1.905   1.247 -1.0799 -1.2468  0.5606
  548MOL0     H73957  -0.994   1.742   1.219  0.1672  0.0967  1.9985
  548MOL0     H73958  -1.014   1.966   1.007  1.2547  1.1610  2.4162
  548MOL0     H73959  -1.070   1.789   1.002 -1.6551 -0.3649 -0.0007
  548MOL0     H73960  -0.118   1.769   1.050 -0.9830 -2.5884  1.5986
  548MOL0     H73961   0.100   1.904   0.999 -0.2024 -0.6181 -0.9614
  548MOL0     H73962   0.490   1.944   1.042 -1.8035  1.2846  0.6281
  548MOL0     H73963   0.714   2.026   0.941 -2.7924  0.3699 -1.2606
  548MOL0     H73964   2.610   2.495   1.288 -4.8973 -0.0304 -2.8428
  548MOL0     H73965   2.859   2.552   1.239 -2.0854  1.0917  0.2877
  548MOL0     H73966   3.239   2.396   1.048  0.9099 -0.6172 -1.7518
  548MOL0     H73967   3.449   2.436   1.039 -0.2913 -1.0787 -1.3391
  548MOL0     H73968   3.572   2.735   0.711  0.4001 -2.8834  0.2509
  548MOL0     H73969   3.724   2.713   0.780  1.5784 -0.8430  1.5820
  548MOL0     H73970   3.658   2.837   0.983 -0.3970 -0.0296 -0.4510
  548MOL0     H73971   3.504   2.882   0.905 -0.6155 -1.3454 -0.2360
  548MOL0     H73972   3.789   2.962   0.794  0.0880  3.9887 -1.8310
  548MOL0     H73973   3.696   3.059   0.883  2.7988  1.3555 -1.5484
  548MOL0     H73974   3.662   3.127   0.659  2.2922 -0.1217  2.3090
  548MOL0     H73975   3.641   2.970   0.600  1.3608  1.1856 -1.4333
  548MOL0     H73976   3.248   3.106   0.700 -0.1604 -0.7015  0.0911
  548MOL0     H73977   3.364   2.771   0.776  0.0755  1.0562  2.2057
  548MOL0     H73978   3.151   2.871   0.772 -1.2890  0.6743  2.6949
  548MOL0     H73979   3.096   2.731   0.675 -1.1852 -0.9746  0.3152
  548MOL0     H73980   3.022   2.784   0.830 -0.1559  0.5770 -0.6851
  549MOL0     O73981   5.690   1.976   9.539  0.5436 -0.3881  0.3136
  549MOL0     C73982   5.615   1.975   9.443 -1.2118  0.5077 -0.9503
  549MOL0     O73983   5.615   2.078   9.346  0.4896 -0.1306  0.3195
  549MOL0     C73984   5.712   2.169   9.332 -0.4553 -0.1665 -0.4510
  549MOL0     C73985   5.851   2.138   9.326  0.9888 -0.2604 -1.2347
  549MOL0     C73986   5.945   2.241   9.312  0.7744  0.7661 -1.0525
  549MOL0     C73987   5.907   2.377   9.309  0.5431  0.6751 -0.2142
  549MOL0     O73988   5.982   2.486   9.292 -0.6738 -0.5199 -0.0573
  549MOL0     C73989   6.099   2.458   9.208  0.5202  0.6668  0.3662
  549MOL0     C73990   6.161   2.575   9.141  0.0502 -0.4492 -0.0283
  549MOL0     C73991   6.295   2.539   9.089  0.6231  0.0442  0.2573
  549MOL0     C73992   6.389   2.655   9.074 -0.0969 -0.0586 -0.5367
  549MOL0     C73993   6.531   2.618   9.049  0.0945 -0.7143 -0.1232
  549MOL0     C73994   6.609   2.761   9.032  0.4198 -0.0717  0.2492
  549MOL0     C73995   6.760   2.753   9.010  0.0014 -0.2915 -0.6255
  549MOL0     C73996   6.819   2.883   8.957 -0.0959  0.1441 -0.4260
  549MOL0     N73997   6.768   2.936   8.829 -0.5538 -0.8728 -1.0827
  549MOL0     C73998   6.745   2.866   8.711 -0.6953 -0.5809  0.0932
  549MOL0     C73999   6.721   2.966   8.621  0.3823  0.3566  0.8065
  549MOL0     C74000   6.708   2.957   8.469  0.0750  0.3654 -0.1819
  549MOL0     C74001   6.850   2.939   8.411 -0.0563  0.0377 -0.1199
  549MOL0     C74002   6.960   3.031   8.472  0.6257  0.1961 -0.0358
  549MOL0     C74003   7.088   3.032   8.389  0.1239  0.0923 -0.1953
  549MOL0     O74004   7.195   3.089   8.464  1.0922  1.4011  0.7663
  549MOL0     C74005   7.307   3.132   8.408 -0.4036 -0.1805  0.3227
  549MOL0     C74006   7.391   3.207   8.491 -0.4702  0.6482  0.7023
  549MOL0     C74007   7.523   3.240   8.448 -0.0841  0.0562 -0.2932
  549MOL0     C74008   7.562   3.202   8.319 -0.4778  0.1543 -0.2221
  549MOL0     C74009   7.690   3.265   8.277  1.2549  0.7001 -0.0876
  549MOL0     O74010   7.697   3.286   8.142  0.5318 -0.4709 -0.4516
  549MOL0     C74011   7.819   3.290   8.080  0.3150 -0.8721 -0.1556
  549MOL0     C74012   7.836   3.353   7.959  0.2982 -0.8388  0.0750
  549MOL0     C74013   7.964   3.367   7.904 -0.7590  0.5405 -0.0289
  549MOL0     C74014   8.081   3.298   7.961  0.9593  0.3513 -0.9941
  549MOL0     O74015   8.211   3.323   7.922 -0.5054  0.9351  0.0440
  549MOL0     C74016   8.223   3.398   7.807  0.3327  0.5439 -0.6507
  549MOL0     C74017   8.380   3.416   7.788  0.2628  0.1259  0.8743
  549MOL0     C74018   8.413   3.501   7.666 -0.3180 -0.3446  0.2061
  549MOL0     C74019   8.488   3.430   7.540 -0.3972  0.3113 -0.3771
  549MOL0     C74020   8.386   3.357   7.455  0.0497  0.9132 -0.6291
  549MOL0     C74021   8.446   3.286   7.340 -0.1515  0.3673 -1.1550
  549MOL0     C74022   8.485   3.385   7.226 -0.3226  0.5648  0.7059
  549MOL0     C74023   8.504   3.298   7.092  0.4352  0.3318 -0.0390
  549MOL0    Cl74024   8.359   3.242   7.008 -0.1988 -0.3151 -0.2507
  549MOL0     C74025   8.061   3.221   8.073 -0.6209  0.5513  0.7989
  549MOL0     C74026   7.933   3.211   8.126 -0.2885 -0.2707  0.9339
  549MOL0     O74027   7.778   3.303   8.356  0.1697  0.4139  0.3908
  549MOL0     C74028   7.471   3.146   8.232  0.2205  0.5568  0.2062
  549MOL0     C74029   7.342   3.112   8.276 -0.1200 -0.3589 -0.3780
  549MOL0     N74030   6.723   3.089   8.680  0.5824 -0.5199  0.4431
  549MOL0     N74031   6.759   3.073   8.804  0.6281  0.4613 -0.0091
  549MOL0     C74032   5.764   2.396   9.308 -0.0083 -1.3988  0.1184
  549MOL0     C74033   5.670   2.300   9.320  0.1460  0.0915  0.1278
  549MOL0     C74034   5.494   1.888   9.433 -0.2042  0.0973  0.2991
  549MOL0     C74035   5.388   1.956   9.374 -0.3137  0.9006  0.3184
  549MOL0     C74036   5.283   1.878   9.348  0.5318  0.3546  0.0947
  549MOL0     C74037   5.280   1.736   9.369 -0.2477  0.0068 -0.7365
  549MOL0     O74038   5.168   1.653   9.340 -0.6493 -0.2421  0.3330
  549MOL0     C74039   5.045   1.716   9.307 -0.4264  0.1523 -0.3602
  549MOL0     C74040   4.928   1.619   9.314 -0.3007 -1.0948 -0.7231
  549MOL0     C74041   4.893   1.576   9.454  0.7155  0.4283 -0.8179
  549MOL0     C74042   4.748   1.523   9.462 -0.5809  0.2311 -0.2641
  549MOL0     C74043   4.741   1.425   9.575  0.1774 -1.4382 -1.2171
  549MOL0     C74044   4.748   1.331   9.647  0.5881  0.5342 -0.4238
  549MOL0     C74045   5.382   1.672   9.429  0.1714  0.5524  0.5561
  549MOL0     C74046   5.492   1.752   9.462 -0.7760  0.0677 -0.3744
  549MOL0     C74047   5.613   1.667   9.506 -0.2417  0.0367  0.3648
  549MOL0     H74048   5.884   2.036   9.311  0.2867 -0.7694  0.4990
  549MOL0     H74049   6.050   2.214   9.313  0.8555  1.0026  1.0773
  549MOL0     H74050   6.179   2.408   9.263  2.9483  0.5487 -3.0034
  549MOL0     H74051   6.077   2.385   9.130  1.8567 -0.6196  1.1445
  549MOL0     H74052   6.170   2.659   9.210  1.3284 -0.1884 -0.4878
  549MOL0     H74053   6.104   2.606   9.053  2.4329  1.4136 -0.9916
  549MOL0     H74054   6.281   2.499   8.988 -3.3008  2.1460 -0.2090
  549MOL0     H74055   6.343   2.466   9.154  1.8997  1.5606  1.0870
  549MOL0     H74056   6.357   2.716   8.988  2.4877 -0.2658 -1.7163
  549MOL0     H74057   6.384   2.713   9.167  0.6148 -0.5052 -0.2171
  549MOL0     H74058   6.574   2.562   9.134  1.3462 -0.1963 -0.3905
  549MOL0     H74059   6.552   2.554   8.963 -3.9427 -0.6615 -1.3422
  549MOL0     H74060   6.570   2.818   8.948 -0.8665 -2.0577 -0.5839
  549MOL0     H74061   6.601   2.825   9.120  1.7586  0.4952 -0.0146
  549MOL0     H74062   6.776   2.663   8.949 -3.2522  0.6636 -3.1953
  549MOL0     H74063   6.812   2.739   9.105 -0.0542  2.2494 -0.1560
  549MOL0     H74064   6.807   2.961   9.032  2.1612  0.7885 -0.6698
  549MOL0     H74065   6.926   2.873   8.940 -0.2250 -0.2500 -1.0736
  549MOL0     H74066   6.769   2.762   8.689  2.4483  0.5065 -2.2701
  549MOL0     H74067   6.647   2.871   8.439 -2.0221  1.8386 -0.3780
  549MOL0     H74068   6.661   3.043   8.421  0.2427 -1.3390 -3.6963
  549MOL0     H74069   6.888   2.836   8.410  0.9661  0.3496  1.5794
  549MOL0     H74070   6.834   2.964   8.306 -3.0157  2.1556  0.6954
  549MOL0     H74071   6.977   2.993   8.574 -0.6511  1.0923  0.5399
  549MOL0     H74072   6.917   3.131   8.481  2.5206  1.4000 -2.9491
  549MOL0     H74073   7.079   3.084   8.293 -1.7145  0.6524  0.2386
  549MOL0     H74074   7.104   2.929   8.355  0.1042  0.8554 -2.7065
  549MOL0     H74075   7.361   3.250   8.586  1.6316 -2.6361  3.0874
  549MOL0     H74076   7.601   3.285   8.508  1.3911 -0.6874 -1.5518
  549MOL0     H74077   7.757   3.405   7.905  2.3480  0.7258 -1.6154
  549MOL0     H74078   7.963   3.426   7.813 -1.7566  0.4530 -0.0910
  549MOL0     H74079   8.165   3.361   7.722  1.1350 -2.2109 -0.1045
  549MOL0     H74080   8.189   3.497   7.838  2.8981  0.9387  1.2834
  549MOL0     H74081   8.419   3.475   7.872  0.5603  1.7534 -0.3592
  549MOL0     H74082   8.425   3.316   7.784  1.8889  0.8670 -0.9473
  549MOL0     H74083   8.323   3.552   7.631 -0.2098 -0.1196  0.2562
  549MOL0     H74084   8.476   3.578   7.711 -2.9491  0.7673  2.2955
  549MOL0     H74085   8.561   3.367   7.591 -0.6040  0.2059 -0.2072
  549MOL0     H74086   8.542   3.508   7.486  1.3801 -0.4690  0.2078
  549MOL0     H74087   8.320   3.437   7.420  0.8256  1.8950  0.0992
  549MOL0     H74088   8.328   3.275   7.498  1.6438 -1.3187 -2.4113
  549MOL0     H74089   8.533   3.229   7.372  0.3536  0.9710 -1.4180
  549MOL0     H74090   8.380   3.209   7.298  2.0709 -1.1131 -2.0943
  549MOL0     H74091   8.582   3.432   7.247  0.1525 -0.4886  0.9519
  549MOL0     H74092   8.402   3.454   7.209  0.2064  0.5541 -2.5494
  549MOL0     H74093   8.552   3.356   7.012  0.9901 -0.0829 -0.0127
  549MOL0     H74094   8.566   3.210   7.110  0.7244  0.4999 -0.2009
  549MOL0     H74095   8.140   3.168   8.125  1.1934  2.3243 -0.0257
  549MOL0     H74096   7.925   3.154   8.218 -1.4863  0.6652  1.4482
  549MOL0     H74097   7.492   3.131   8.126  1.7742 -2.0815  0.7819
  549MOL0     H74098   7.282   3.060   8.201  0.8938  0.1443 -1.5749
  549MOL0     H74099   5.737   2.499   9.287  0.8879 -1.6363 -2.6613
  549MOL0     H74100   5.565   2.324   9.330  0.3347  0.3651  1.7961
  549MOL0     H74101   5.384   2.061   9.348  2.9254  0.8544 -0.8353
  549MOL0     H74102   5.205   1.927   9.291  1.0828  1.4564  0.2644
  549MOL0     H74103   5.052   1.754   9.205 -1.4976  0.9914 -0.1360
  549MOL0     H74104   5.017   1.801   9.369 -1.7995 -1.0073  0.6613
  549MOL0     H74105   4.954   1.536   9.248 -0.1877  0.0041 -2.1312
  549MOL0     H74106   4.848   1.682   9.273  1.1208  2.4957  1.5009
  549MOL0     H74107   4.893   1.661   9.523  0.6950 -1.5637  1.8182
  549MOL0     H74108   4.969   1.504   9.486 -0.8010 -0.5121  0.8668
  549MOL0     H74109   4.670   1.596   9.485 -0.5896  0.2659 -0.3978
  549MOL0     H74110   4.724   1.470   9.369  5.2825 -3.4813 -0.1859
  549MOL0     H74111   4.748   1.250   9.718  0.6451  2.5487  2.0357
  549MOL0     H74112   5.378   1.566   9.450 -1.6811  0.4267 -0.2994
  549MOL0     H74113   5.619   1.666   9.616  2.2499  2.3101  0.3474
  549MOL0     H74114   5.594   1.561   9.484 -3.1624  0.6682 -0.5290
  549MOL0     H74115   5.698   1.697   9.445  0.3219 -4.3294 -1.3576
  550MOL0     O74116   1.169   4.277   2.637 -0.6719 -0.1745  0.0641
  550MOL0     C74117   1.106   4.224   2.543 -0.0007  0.1135 -0.3343
  550MOL0     O74118   1.147   4.122   2.470  0.4154  0.7984 -0.4245
  550MOL0     C74119   1.235   4.029   2.519 -0.0378  0.6430  0.2839
  550MOL0     C74120   1.335   3.984   2.434  0.1206  0.7514 -0.5631
  550MOL0     C74121   1.425   3.886   2.476 -0.8119  0.3557 -0.2673
  550MOL0     C74122   1.421   3.833   2.606  0.2996  0.8538 -0.2541
  550MOL0     O74123   1.506   3.733   2.651 -0.1457  0.6998 -0.2569
  550MOL0     C74124   1.559   3.742   2.782  0.3646 -0.0060 -0.0865
  550MOL0     C74125   1.690   3.659   2.792 -0.2267 -0.0167  0.6224
  550MOL0     C74126   1.720   3.619   2.932  0.4003 -0.3469 -0.5619
  550MOL0     C74127   1.873   3.616   2.966 -0.4802  0.3084  0.5939
  550MOL0     C74128   1.913   3.533   3.087 -0.7080  0.7068  0.3713
  550MOL0     C74129   1.831   3.550   3.208 -0.8036  0.3392 -0.2957
  550MOL0     C74130   1.875   3.470   3.327 -0.6051  0.0999 -0.4087
  550MOL0     C74131   1.843   3.327   3.311  0.3410  0.3396  0.1608
  550MOL0     N74132   1.864   3.268   3.445  0.0117  0.6494 -0.0923
  550MOL0     C74133   1.964   3.190   3.488 -0.1198 -0.3821 -0.3374
  550MOL0     C74134   1.955   3.191   3.625 -0.0099  0.4214 -0.0537
  550MOL0     C74135   2.046   3.135   3.736  1.1521  0.2843  0.7855
  550MOL0     C74136   2.113   3.010   3.695 -0.0002 -0.2215 -0.4611
  550MOL0     C74137   2.215   2.974   3.800 -0.5108 -0.0690 -0.0341
  550MOL0     C74138   2.268   2.828   3.792  0.2277  0.1802  0.0622
  550MOL0     O74139   2.354   2.826   3.676  0.2381  0.3215 -0.0357
  550MOL0     C74140   2.413   2.710   3.636 -0.2426 -0.6181  0.6507
  550MOL0     C74141   2.461   2.628   3.731 -0.6152  0.1150  0.4164
  550MOL0     C74142   2.538   2.522   3.695 -0.5472  0.2352 -0.4296
  550MOL0     C74143   2.535   2.480   3.565 -0.4109  0.3340 -0.8938
  550MOL0     C74144   2.619   2.362   3.514 -0.3420 -0.0175  0.6708
  550MOL0     O74145   2.634   2.355   3.380  0.1406  0.2160 -0.9549
  550MOL0     C74146   2.716   2.254   3.321  0.9665 -0.2455  0.2073
  550MOL0     C74147   2.841   2.230   3.373 -0.7786  0.1091 -0.0664
  550MOL0     C74148   2.932   2.156   3.295  0.0675 -0.8444 -0.6659
  550MOL0     C74149   2.891   2.096   3.182 -0.0528  0.1739  0.5741
  550MOL0     O74150   2.974   2.012   3.114 -0.0362  0.1949  0.6818
  550MOL0     C74151   3.018   1.897   3.183  0.3268  0.3748 -0.4885
  550MOL0     C74152   2.907   1.795   3.188  0.4718 -0.0841  0.1436
  550MOL0     C74153   2.842   1.754   3.055  0.4552 -0.0156  0.1015
  550MOL0     C74154   2.917   1.646   2.995  0.4651  0.2693 -0.0528
  550MOL0     C74155   2.847   1.577   2.870  0.2713  0.4162 -0.7098
  550MOL0     C74156   2.953   1.495   2.802  0.7106  0.1343  0.5390
  550MOL0     C74157   2.901   1.439   2.669  0.4560  0.3030 -0.0738
  550MOL0     C74158   3.010   1.397   2.579  0.2848  0.1182 -1.0056
  550MOL0    Cl74159   2.935   1.329   2.434  0.4921  0.3031  0.1765
  550MOL0     C74160   2.766   2.129   3.125 -0.4120 -0.1077 -0.9202
  550MOL0     C74161   2.683   2.217   3.189  1.3379  0.2389 -0.0780
  550MOL0     O74162   2.662   2.281   3.595  0.0214  0.5848 -0.5606
  550MOL0     C74163   2.469   2.552   3.470  0.1313 -0.0066 -0.0363
  550MOL0     C74164   2.401   2.672   3.499 -0.2952  0.4171  0.1323
  550MOL0     N74165   1.828   3.250   3.657 -0.1134 -0.0001  0.5477
  550MOL0     N74166   1.780   3.292   3.547  0.4040  0.2574 -0.0032
  550MOL0     C74167   1.316   3.874   2.693  0.7753  0.5074  0.2460
  550MOL0     C74168   1.219   3.965   2.645  0.4437  0.3221 -0.0715
  550MOL0     C74169   0.962   4.260   2.523 -0.3150  0.7367  0.1293
  550MOL0     C74170   0.922   4.247   2.380 -0.7697 -0.2994 -0.7348
  550MOL0     C74171   0.801   4.301   2.350 -1.0505 -0.2135  0.2177
  550MOL0     C74172   0.718   4.358   2.450 -0.3159  0.7501 -0.5352
  550MOL0     O74173   0.583   4.400   2.427 -0.4145  0.4514 -1.0014
  550MOL0     C74174   0.516   4.343   2.318 -0.1009  0.4302 -0.2948
  550MOL0     C74175   0.370   4.380   2.325 -0.4799  0.1109  0.3617
  550MOL0     C74176   0.291   4.339   2.197  0.7042 -0.2505  0.4976
  550MOL0     C74177   0.151   4.396   2.214 -0.8115  0.2152  0.8497
  550MOL0     C74178   0.049   4.357   2.119 -0.7714  0.1103 -0.6727
  550MOL0     C74179  -0.048   4.332   2.048 -0.0996  0.1567  0.1735
  550MOL0     C74180   0.754   4.369   2.590 -0.3440  0.5594 -0.2477
  550MOL0     C74181   0.884   4.319   2.620  0.0759 -0.8751 -0.7694
  550MOL0     C74182   0.918   4.310   2.764 -0.5294  1.0318  0.8157
  550MOL0     H74183   1.332   4.020   2.332  2.3632  0.7972 -0.6612
  550MOL0     H74184   1.491   3.841   2.403  1.8713  1.3496  1.4161
  550MOL0     H74185   1.575   3.847   2.805 -0.1220 -0.4124  2.3373
  550MOL0     H74186   1.487   3.702   2.854  3.0834 -1.4601  2.0236
  550MOL0     H74187   1.775   3.709   2.746  0.4674 -0.6747  1.1702
  550MOL0     H74188   1.675   3.559   2.751  3.0037  0.0206 -0.9230
  550MOL0     H74189   1.669   3.525   2.954 -0.2246 -0.0722 -0.8002
  550MOL0     H74190   1.676   3.694   2.999  0.7141 -0.5882 -0.0866
  550MOL0     H74191   1.926   3.575   2.880  1.8790 -1.6506  2.7838
  550MOL0     H74192   1.903   3.718   2.992  1.2541 -0.2072  0.6926
  550MOL0     H74193   1.922   3.426   3.064  1.4485  0.8623  0.3501
  550MOL0     H74194   2.017   3.559   3.108  0.0148 -0.1754 -1.8099
  550MOL0     H74195   1.837   3.657   3.229 -0.9086  0.5199 -1.1510
  550MOL0     H74196   1.724   3.528   3.194 -0.7261  0.7685 -1.7201
  550MOL0     H74197   1.821   3.513   3.411 -1.7521  3.6404 -2.7287
  550MOL0     H74198   1.983   3.487   3.338 -0.5508  0.1086 -0.9039
  550MOL0     H74199   1.739   3.327   3.278  0.2866  2.0163  0.2567
  550MOL0     H74200   1.904   3.283   3.231 -1.2792  2.2220 -2.2406
  550MOL0     H74201   2.045   3.140   3.435  0.9786  0.5391  0.4072
  550MOL0     H74202   2.122   3.213   3.748  3.2259 -1.4917 -0.0065
  550MOL0     H74203   1.990   3.116   3.827 -0.1264 -2.8517 -0.4986
  550MOL0     H74204   2.032   2.936   3.696 -1.6561  1.4516  2.1988
  550MOL0     H74205   2.163   3.020   3.598  0.1977  1.7721 -0.2077
  550MOL0     H74206   2.163   2.995   3.895 -1.9904  0.8719 -1.0011
  550MOL0     H74207   2.295   3.049   3.799 -0.7318  0.1719 -1.0468
  550MOL0     H74208   2.186   2.756   3.787 -0.3468  0.8617 -0.4272
  550MOL0     H74209   2.319   2.814   3.888  0.8794 -0.2478 -0.3394
  550MOL0     H74210   2.454   2.651   3.837  0.1312 -0.8673  0.6929
  550MOL0     H74211   2.601   2.487   3.776 -2.4287 -2.7401 -0.0850
  550MOL0     H74212   2.872   2.278   3.465 -0.0972  2.3012 -1.3882
  550MOL0     H74213   3.034   2.137   3.327  1.4919  2.7902 -2.5011
  550MOL0     H74214   3.106   1.857   3.131  1.4808  3.2194 -0.9432
  550MOL0     H74215   3.044   1.918   3.287 -0.6708  1.4558 -0.4408
  550MOL0     H74216   2.929   1.705   3.246  3.3686  0.9148  0.7754
  550MOL0     H74217   2.826   1.837   3.248  1.9545  0.4220  1.8869
  550MOL0     H74218   2.743   1.711   3.074  0.0615  0.7173 -0.2366
  550MOL0     H74219   2.828   1.833   2.981  0.6652  1.7672  1.8910
  550MOL0     H74220   2.931   1.560   3.061 -2.7433  0.1250  0.5843
  550MOL0     H74221   3.014   1.680   2.957  1.3526 -0.9888  0.9788
  550MOL0     H74222   2.796   1.654   2.812  2.0501  0.9044 -1.6769
  550MOL0     H74223   2.783   1.494   2.902  2.0600 -0.5017  0.7145
  550MOL0     H74224   3.037   1.559   2.770  0.7817  1.0616  2.4137
  550MOL0     H74225   2.986   1.413   2.867 -4.3775 -1.6905  1.2583
  550MOL0     H74226   2.840   1.508   2.610 -1.0561 -2.0523 -1.4630
  550MOL0     H74227   2.842   1.347   2.679  3.1757 -1.5143  0.2933
  550MOL0     H74228   3.070   1.487   2.566 -1.1733  1.3892  0.5289
  550MOL0     H74229   3.077   1.324   2.625  0.2838  0.4371 -0.4916
  550MOL0     H74230   2.736   2.090   3.029 -1.7539  1.4082 -1.1621
  550MOL0     H74231   2.584   2.237   3.150  1.4769  0.4974 -0.3024
  550MOL0     H74232   2.468   2.525   3.365  0.7030 -0.8380  0.1621
  550MOL0     H74233   2.340   2.730   3.430 -2.1486 -1.0186  0.4583
  550MOL0     H74234   1.290   3.840   2.793 -2.5695  2.2569  0.0921
  550MOL0     H74235   1.135   4.005   2.701  0.6481 -0.7626  1.0571
  550MOL0     H74236   0.988   4.200   2.307 -2.9085 -4.5925 -0.2051
  550MOL0     H74237   0.756   4.303   2.251 -0.0399  1.1273 -0.2472
  550MOL0     H74238   0.528   4.234   2.309 -1.3544  0.3158 -0.7207
  550MOL0     H74239   0.553   4.388   2.225  2.5382  1.8600  1.3240
  550MOL0     H74240   0.361   4.488   2.342  1.6995  0.9472 -2.8711
  550MOL0     H74241   0.326   4.333   2.413 -0.1270  0.5252  0.7682
  550MOL0     H74242   0.298   4.231   2.187 -2.9035 -0.4518 -2.2155
  550MOL0     H74243   0.334   4.388   2.109 -0.0850  1.0421  0.7965
  550MOL0     H74244   0.116   4.355   2.309  2.9485 -1.6831  1.5741
  550MOL0     H74245   0.144   4.505   2.221 -1.8785  0.3880 -1.8438
  550MOL0     H74246  -0.135   4.338   1.985  0.6606  3.3043 -0.7547
  550MOL0     H74247   0.694   4.406   2.674 -0.3757 -1.1574  0.5164
  550MOL0     H74248   0.829   4.322   2.827 -2.5562 -3.0462 -0.8814
  550MOL0     H74249   0.950   4.207   2.779  0.5416  0.9271 -1.7082
  550MOL0     H74250   0.994   4.384   2.791 -1.2222  1.9185  0.3950
  551MOL0     O74251   0.185   1.893   7.887 -0.2401  0.3861  0.5827
  551MOL0     C74252   0.241   1.889   7.994 -0.2849  0.4939 -0.1975
  551MOL0     O74253   0.371   1.909   8.009  0.5259 -0.0340  0.6392
  551MOL0     C74254   0.456   1.900   7.907 -0.1424  0.7454 -1.3713
  551MOL0     C74255   0.553   1.989   7.911 -0.1534 -0.8066 -0.1154
  551MOL0     C74256   0.650   1.980   7.815 -0.7601  0.2316 -0.3916
  551MOL0     C74257   0.657   1.886   7.706  0.5451 -0.6684 -0.2286
  551MOL0     O74258   0.749   1.893   7.600  0.3451 -0.5108 -0.5881
  551MOL0     C74259   0.701   1.874   7.470  0.2763  1.5021 -0.6388
  551MOL0     C74260   0.815   1.892   7.361 -0.2456  0.4652  0.2854
  551MOL0     C74261   0.882   2.029   7.371  1.4587 -0.5104  0.0609
  551MOL0     C74262   1.019   2.032   7.308 -0.4392 -1.1505 -0.3280
  551MOL0     C74263   1.065   2.181   7.335 -0.4258  0.6092 -0.1680
  551MOL0     C74264   1.208   2.207   7.282  0.5046  0.3055 -0.9062
  551MOL0     C74265   1.241   2.359   7.276  0.4962  0.3685 -0.0277
  551MOL0     C74266   1.290   2.409   7.412 -0.9774 -0.4168 -0.2665
  551MOL0     N74267   1.414   2.344   7.467  0.1261  0.2894  0.1754
  551MOL0     C74268   1.530   2.328   7.398 -0.3826 -0.9457  0.1255
  551MOL0     C74269   1.614   2.255   7.483  0.8506  0.3267  0.2354
  551MOL0     C74270   1.745   2.195   7.427  0.2335 -0.4365 -0.2934
  551MOL0     C74271   1.863   2.217   7.516 -0.4412  0.1836 -0.0968
  551MOL0     C74272   1.865   2.346   7.586 -0.7525 -0.5390  1.0292
  551MOL0     C74273   1.936   2.446   7.500 -0.5346 -0.2408 -0.3621
  551MOL0     O74274   1.933   2.571   7.575  0.3255  0.0553 -0.7219
  551MOL0     C74275   2.020   2.668   7.532 -0.1197 -0.5831  0.1317
  551MOL0     C74276   2.060   2.777   7.611  0.1951  0.3969  0.1544
  551MOL0     C74277   2.146   2.866   7.571  0.2528  0.7716  0.7637
  551MOL0     C74278   2.199   2.868   7.443  0.0411 -0.4524 -0.0339
  551MOL0     C74279   2.292   2.973   7.392  1.2430 -0.6441 -0.1992
  551MOL0     O74280   2.351   2.962   7.273  0.1217  0.9111  0.5204
  551MOL0     C74281   2.464   3.036   7.235 -0.5008 -0.0304 -1.0897
  551MOL0     C74282   2.553   3.095   7.327 -0.9036 -0.2005 -0.1475
  551MOL0     C74283   2.654   3.178   7.284 -0.0415  0.5069  0.4801
  551MOL0     C74284   2.686   3.193   7.151  0.3261  0.8701  1.0504
  551MOL0     O74285   2.782   3.289   7.119 -0.3018  0.0794  0.8653
  551MOL0     C74286   2.795   3.344   6.993  0.4893  1.2233 -0.0272
  551MOL0     C74287   2.949   3.349   6.972  1.0376 -0.4265  0.0374
  551MOL0     C74288   2.970   3.442   6.856  0.9175 -0.5025  0.9306
  551MOL0     C74289   3.120   3.478   6.844 -0.2871 -0.0012  0.2871
  551MOL0     C74290   3.155   3.598   6.757 -0.5536  0.0634  0.9189
  551MOL0     C74291   3.309   3.610   6.756  0.6119 -0.3558 -0.3202
  551MOL0     C74292   3.370   3.714   6.654 -0.3913 -0.1586  0.7722
  551MOL0     C74293   3.330   3.854   6.687 -0.4845  0.2413 -0.1016
  551MOL0    Cl74294   3.456   3.916   6.801  0.1126 -0.4113 -0.0894
  551MOL0     C74295   2.601   3.122   7.060 -0.4284 -0.4136  0.3445
  551MOL0     C74296   2.490   3.053   7.097 -0.5442  0.0138 -0.8792
  551MOL0     O74297   2.314   3.065   7.477 -0.0634 -0.0646  0.0260
  551MOL0     C74298   2.159   2.767   7.354  0.3236  0.7432 -0.6101
  551MOL0     C74299   2.076   2.668   7.400 -0.2860 -0.2654  0.0114
  551MOL0     N74300   1.528   2.209   7.591 -0.2389 -0.3268  0.1315
  551MOL0     N74301   1.411   2.267   7.572  0.0018  0.3000  0.8153
  551MOL0     C74302   0.546   1.799   7.704 -0.4026 -0.5352  0.1060
  551MOL0     C74303   0.451   1.803   7.806  0.6193 -0.2367 -0.1478
  551MOL0     C74304   0.159   1.868   8.117 -0.0427  0.3888 -0.4137
  551MOL0     C74305   0.191   1.942   8.231 -0.1893 -0.1180  0.4310
  551MOL0     C74306   0.117   1.936   8.346 -0.1757 -0.6928  0.3048
  551MOL0     C74307   0.006   1.850   8.360  0.4859  0.8950  0.7653
  551MOL0     O74308  -0.066   1.844   8.479 -0.3381  0.0197 -0.3795
  551MOL0     C74309  -0.179   1.765   8.499 -0.1111 -0.3321 -0.0921
  551MOL0     C74310  -0.257   1.815   8.618  0.5815 -0.1076 -0.4806
  551MOL0     C74311  -0.165   1.821   8.738  1.2007  0.9009 -0.6576
  551MOL0     C74312  -0.240   1.860   8.869  0.7216 -0.6564 -1.0509
  551MOL0     C74313  -0.299   1.991   8.865 -0.5557  0.4636 -0.6167
  551MOL0     C74314  -0.349   2.096   8.862  0.8839 -0.2305 -0.3166
  551MOL0     C74315  -0.027   1.775   8.247 -0.4330 -1.1054  0.1380
  551MOL0     C74316   0.049   1.781   8.124 -0.1336 -0.2942  0.6268
  551MOL0     C74317  -0.003   1.687   8.012 -1.1190  0.3255  0.2062
  551MOL0     H74318   0.562   2.068   7.985  1.2745 -0.6148 -0.4654
  551MOL0     H74319   0.732   2.049   7.830 -0.6287  0.0114 -0.1040
  551MOL0     H74320   0.677   1.768   7.466 -0.4406  1.5073  1.8918
  551MOL0     H74321   0.609   1.933   7.463  1.3573  3.2198 -0.9561
  551MOL0     H74322   0.783   1.856   7.263  2.4182 -3.1323  0.5018
  551MOL0     H74323   0.902   1.829   7.384  2.4317  3.3856 -1.0437
  551MOL0     H74324   0.900   2.045   7.477  1.6532 -0.7233  0.0622
  551MOL0     H74325   0.816   2.108   7.336 -0.9990 -1.8850  1.3108
  551MOL0     H74326   1.070   1.960   7.372 -1.8266 -2.3953 -0.5753
  551MOL0     H74327   1.022   2.013   7.200 -1.8735  0.4359 -0.6983
  551MOL0     H74328   0.998   2.244   7.276 -0.3747  0.0785 -0.8193
  551MOL0     H74329   1.044   2.208   7.438  0.9919 -2.0343  0.9117
  551MOL0     H74330   1.283   2.148   7.335 -0.9011 -4.1400 -3.3318
  551MOL0     H74331   1.216   2.169   7.179 -0.1491  0.8046 -1.1455
  551MOL0     H74332   1.157   2.419   7.239  0.9135  2.1105  1.7092
  551MOL0     H74333   1.311   2.369   7.193 -0.4564  0.7853 -0.8081
  551MOL0     H74334   1.311   2.514   7.393  1.5177 -0.0418  3.3971
  551MOL0     H74335   1.222   2.397   7.498 -1.8904  0.5540 -0.8370
  551MOL0     H74336   1.560   2.363   7.300  0.1600  2.4925  1.3683
  551MOL0     H74337   1.724   2.088   7.411  0.6709 -0.3219 -1.7639
  551MOL0     H74338   1.748   2.240   7.327 -2.8744 -0.6538 -0.5862
  551MOL0     H74339   1.858   2.138   7.592 -0.9455  2.0357  1.9178
  551MOL0     H74340   1.960   2.200   7.469 -0.7968 -1.1394 -0.3874
  551MOL0     H74341   1.927   2.337   7.676  1.7728 -0.4699 -0.6033
  551MOL0     H74342   1.766   2.380   7.618 -1.2262  0.6565 -1.4409
  551MOL0     H74343   1.887   2.446   7.401 -0.3322 -0.4984 -0.4617
  551MOL0     H74344   2.041   2.418   7.496 -0.8487 -1.8086  1.2009
  551MOL0     H74345   1.999   2.785   7.701 -1.3001 -0.4840 -0.7426
  551MOL0     H74346   2.167   2.950   7.636  0.1253  0.0909  1.7074
  551MOL0     H74347   2.548   3.081   7.435  0.0318  1.3195  0.1202
  551MOL0     H74348   2.703   3.238   7.359  1.3720 -0.5072  0.4116
  551MOL0     H74349   2.760   3.275   6.916  2.5586 -3.0368  2.4884
  551MOL0     H74350   2.753   3.444   6.976 -0.1907  1.2360  1.5822
  551MOL0     H74351   2.994   3.381   7.067 -1.3506 -0.3353  1.2160
  551MOL0     H74352   2.992   3.254   6.941  1.4723  0.7223 -3.2825
  551MOL0     H74353   2.931   3.408   6.759 -0.2078  0.5506  0.9963
  551MOL0     H74354   2.919   3.538   6.865  0.3296 -0.7537  0.3623
  551MOL0     H74355   3.171   3.385   6.816 -2.0770 -0.4481 -1.7989
  551MOL0     H74356   3.151   3.501   6.946 -0.2254  0.8958  0.0769
  551MOL0     H74357   3.104   3.685   6.800 -1.4446  0.1501 -0.2733
  551MOL0     H74358   3.121   3.580   6.655  0.2281  0.1404  0.6396
  551MOL0     H74359   3.346   3.631   6.857 -1.4194 -0.0359  0.4148
  551MOL0     H74360   3.349   3.513   6.725  2.6802  0.4841 -0.4237
  551MOL0     H74361   3.339   3.706   6.549  1.7026 -0.9297  0.1450
  551MOL0     H74362   3.479   3.700   6.650 -0.0257  2.1307  1.5530
  551MOL0     H74363   3.318   3.921   6.601  2.3707  0.8479 -0.1288
  551MOL0     H74364   3.238   3.863   6.745 -0.2288  2.5258  0.0264
  551MOL0     H74365   2.622   3.125   6.954 -0.4276  1.4877  0.3677
  551MOL0     H74366   2.423   3.012   7.021  0.0269 -0.2662 -1.2391
  551MOL0     H74367   2.190   2.756   7.250  0.1948 -0.6896 -0.5197
  551MOL0     H74368   2.043   2.595   7.327 -0.6821 -0.2335  0.1509
  551MOL0     H74369   0.520   1.730   7.625 -1.2938 -0.5397  0.3841
  551MOL0     H74370   0.360   1.744   7.813 -0.0310  0.7046 -0.3723
  551MOL0     H74371   0.274   2.010   8.219 -0.6495  0.3468 -0.1879
  551MOL0     H74372   0.141   1.987   8.439  1.3593  0.3609 -0.6177
  551MOL0     H74373  -0.160   1.658   8.505  0.1174 -0.2742  0.2794
  551MOL0     H74374  -0.247   1.772   8.414 -3.3808 -2.5665  2.0966
  551MOL0     H74375  -0.337   1.750   8.654  3.2520 -1.0454  4.8617
  551MOL0     H74376  -0.297   1.917   8.611  1.5566  0.3663  0.4939
  551MOL0     H74377  -0.078   1.885   8.727  3.1305 -1.8231 -2.5611
  551MOL0     H74378  -0.131   1.717   8.743  1.7229  1.0722  4.5945
  551MOL0     H74379  -0.324   1.794   8.891  1.4778 -1.4444 -0.4417
  551MOL0     H74380  -0.178   1.850   8.958 -3.3480  0.8111  2.2727
  551MOL0     H74381  -0.383   2.198   8.857  0.8835 -0.0940  1.7174
  551MOL0     H74382  -0.119   1.718   8.256 -0.2861 -1.6432 -1.3890
  551MOL0     H74383   0.079   1.629   7.967  1.3315  4.9203 -2.0076
  551MOL0     H74384  -0.089   1.627   8.042 -0.4979  0.3641  2.1854
  551MOL0     H74385  -0.038   1.742   7.924  1.0593 -1.0043 -1.6106
  552MOL0     O74386   4.930   6.028   5.679  1.1562 -0.8512  0.2978
  552MOL0     C74387   4.825   6.045   5.745 -0.8853  0.7858  0.0982
  552MOL0     O74388   4.816   6.073   5.879  0.0621  0.2543  0.3756
  552MOL0     C74389   4.920   6.142   5.946  0.5457 -0.0396 -1.2809
  552MOL0     C74390   5.032   6.211   5.886 -0.0075  0.5246 -0.0535
  552MOL0     C74391   5.130   6.274   5.974  0.5631 -0.1788 -0.2666
  552MOL0     C74392   5.120   6.271   6.114  0.1036 -0.7101 -0.3133
  552MOL0     O74393   5.222   6.322   6.189  0.2207 -0.6813 -0.0236
  552MOL0     C74394   5.269   6.264   6.310 -0.0490 -0.1424  0.5853
  552MOL0     C74395   5.425   6.248   6.289 -1.1348  0.1229  0.6054
  552MOL0     C74396   5.478   6.126   6.363  0.0770 -0.2165 -1.3400
  552MOL0     C74397   5.637   6.119   6.385  0.2590 -0.1094 -0.4381
  552MOL0     C74398   5.667   6.002   6.491 -0.5188  0.5552 -0.4671
  552MOL0     C74399   5.611   5.864   6.455 -0.7487 -0.4618 -0.2389
  552MOL0     C74400   5.644   5.751   6.554 -0.3178 -0.2166  0.8862
  552MOL0     C74401   5.555   5.736   6.670 -0.1392 -0.0376  0.0544
  552MOL0     N74402   5.419   5.690   6.627  0.7445 -0.7139 -0.0481
  552MOL0     C74403   5.325   5.783   6.584  1.1883  0.1252 -0.1003
  552MOL0     C74404   5.226   5.704   6.537  0.2424 -0.3287  0.3879
  552MOL0     C74405   5.092   5.752   6.479 -0.0598  0.5020  0.5934
  552MOL0     C74406   5.092   5.721   6.330 -1.1236  0.0838  0.9214
  552MOL0     C74407   5.180   5.808   6.237  0.1138  0.3670 -0.0321
  552MOL0     C74408   5.184   5.755   6.094  0.3781  0.1269  0.3249
  552MOL0     O74409   5.284   5.842   6.025 -0.7502 -0.9104  0.1912
  552MOL0     C74410   5.419   5.823   6.048 -0.3200  0.0453 -0.1523
  552MOL0     C74411   5.476   5.711   6.084 -0.1630  0.4375 -0.1624
  552MOL0     C74412   5.609   5.701   6.117 -0.1401  0.3688  0.2400
  552MOL0     C74413   5.694   5.808   6.101 -0.3776 -0.3688 -0.5347
  552MOL0     C74414   5.839   5.804   6.133  1.0875  0.2304  0.0475
  552MOL0     O74415   5.904   5.921   6.148 -0.0927 -0.2079  0.3770
  552MOL0     C74416   6.034   5.919   6.197 -0.3997 -0.6313  0.7968
  552MOL0     C74417   6.058   5.967   6.325 -0.2625  0.8659 -0.0372
  552MOL0     C74418   6.191   5.960   6.376  0.5549  0.4967  0.0527
  552MOL0     C74419   6.296   5.919   6.298 -0.1678 -0.2333 -0.1861
  552MOL0     O74420   6.415   5.915   6.361 -0.2024  0.3909  0.2565
  552MOL0     C74421   6.533   5.889   6.288  0.3175 -0.0141  0.4087
  552MOL0     C74422   6.641   5.886   6.391  0.3014  0.3322  0.0660
  552MOL0     C74423   6.774   5.825   6.339  0.2366 -0.0781 -0.2223
  552MOL0     C74424   6.884   5.835   6.451 -0.5875  1.4372  0.2005
  552MOL0     C74425   7.023   5.762   6.423  0.6370 -0.2501 -0.4158
  552MOL0     C74426   7.099   5.803   6.298 -0.4218  0.0849  0.0637
  552MOL0     C74427   7.102   5.956   6.282  0.2674  0.5782  0.0390
  552MOL0     C74428   7.198   6.016   6.385 -0.4401  0.3128  0.4487
  552MOL0    Cl74429   7.361   5.938   6.411 -0.2652 -0.0328 -0.0776
  552MOL0     C74430   6.274   5.880   6.169 -0.1670 -0.6663  1.0249
  552MOL0     C74431   6.143   5.873   6.115 -0.2009 -0.1772 -0.5665
  552MOL0     O74432   5.895   5.695   6.157  0.0798  0.5234 -0.4757
  552MOL0     C74433   5.644   5.925   6.053  0.9144  0.0367 -0.3011
  552MOL0     C74434   5.505   5.934   6.032 -0.8136  0.2905  0.2356
  552MOL0     N74435   5.275   5.573   6.552 -0.7678 -0.8047  0.4157
  552MOL0     N74436   5.387   5.564   6.604 -0.2763  0.1469 -0.9614
  552MOL0     C74437   5.000   6.221   6.164 -0.6259 -0.4079 -0.5049
  552MOL0     C74438   4.907   6.154   6.086  0.2086  0.2334 -0.7940
  552MOL0     C74439   4.689   6.023   5.674 -0.1473 -0.3864 -0.2756
  552MOL0     C74440   4.695   5.992   5.538 -0.2505 -0.1550  0.8051
  552MOL0     C74441   4.577   5.976   5.462  0.3831  0.9047 -0.5054
  552MOL0     C74442   4.446   5.988   5.518  0.2027  0.1957 -0.8019
  552MOL0     O74443   4.340   5.956   5.438  0.2232 -0.2685  0.1871
  552MOL0     C74444   4.227   6.037   5.460  0.4011  0.0834 -0.1723
  552MOL0     C74445   4.125   6.039   5.349 -0.1469 -0.4020 -0.0177
  552MOL0     C74446   4.178   6.100   5.228  0.3854  0.5317  0.9535
  552MOL0     C74447   4.074   6.175   5.140 -0.0337 -0.7399  0.4272
  552MOL0     C74448   3.976   6.082   5.089  0.0955  1.3802  0.2719
  552MOL0     C74449   3.887   6.015   5.049  0.4583  0.1124 -0.1828
  552MOL0     C74450   4.443   6.021   5.659 -1.0808  0.4164 -0.0837
  552MOL0     C74451   4.562   6.032   5.735 -0.2053  0.1836 -0.2538
  552MOL0     C74452   4.543   6.043   5.892 -0.0275  0.5439  0.5527
  552MOL0     H74453   5.030   6.213   5.778 -1.3985 -0.4469 -0.0750
  552MOL0     H74454   5.215   6.322   5.926 -0.0443  0.7342 -0.4591
  552MOL0     H74455   5.243   6.331   6.392  0.8463  0.5626  0.2997
  552MOL0     H74456   5.216   6.170   6.330 -0.1096  0.7171  5.5028
  552MOL0     H74457   5.475   6.342   6.313 -1.6946  0.5668  0.0782
  552MOL0     H74458   5.451   6.234   6.184 -0.3330  1.6954  0.5659
  552MOL0     H74459   5.450   6.031   6.318  1.7087 -1.0240 -0.7530
  552MOL0     H74460   5.438   6.132   6.465 -1.1974 -1.5254 -1.7410
  552MOL0     H74461   5.700   6.097   6.299  1.4722 -4.1320  1.2274
  552MOL0     H74462   5.673   6.215   6.422 -1.8037  0.4625  0.2569
  552MOL0     H74463   5.773   5.994   6.514 -0.8917 -0.5373  0.9465
  552MOL0     H74464   5.637   6.032   6.592  2.5829  0.7727  0.5039
  552MOL0     H74465   5.504   5.862   6.433 -0.3664 -4.7000 -2.7888
  552MOL0     H74466   5.661   5.835   6.362 -0.5659 -0.2535 -0.2043
  552MOL0     H74467   5.751   5.767   6.569  0.1265 -0.3181 -1.7124
  552MOL0     H74468   5.638   5.662   6.491 -1.0344  1.0138 -0.8668
  552MOL0     H74469   5.601   5.674   6.747 -1.7887  0.2782  1.3449
  552MOL0     H74470   5.558   5.840   6.703  3.7221  0.5806 -1.6245
  552MOL0     H74471   5.329   5.891   6.594 -0.5089  0.0455  2.3265
  552MOL0     H74472   5.020   5.687   6.529  1.2883 -2.0536 -0.5631
  552MOL0     H74473   5.073   5.859   6.485 -0.0353  0.6994 -1.8166
  552MOL0     H74474   5.108   5.613   6.322 -3.7618 -0.2976 -0.6063
  552MOL0     H74475   4.989   5.733   6.295 -2.4553  0.1207  4.4619
  552MOL0     H74476   5.282   5.822   6.275  0.7914  1.1129 -2.0032
  552MOL0     H74477   5.134   5.907   6.246 -0.1186  0.6177 -3.0846
  552MOL0     H74478   5.084   5.773   6.054  1.3581  0.5894 -2.0466
  552MOL0     H74479   5.206   5.651   6.067 -1.5174  0.0745 -1.1937
  552MOL0     H74480   5.427   5.615   6.088  0.6672  0.0510  2.0004
  552MOL0     H74481   5.656   5.610   6.155  2.0137  2.4000  2.8080
  552MOL0     H74482   5.979   6.004   6.390  0.8503  0.7659  1.4036
  552MOL0     H74483   6.189   5.985   6.482  0.2442  2.8639 -0.4618
  552MOL0     H74484   6.527   5.790   6.241  2.8776 -0.4095  0.7957
  552MOL0     H74485   6.550   5.960   6.207 -1.3704 -0.7987 -0.7010
  552MOL0     H74486   6.661   5.988   6.424 -0.3196  0.3352  0.4497
  552MOL0     H74487   6.601   5.846   6.485 -0.7892 -1.4566 -1.0996
  552MOL0     H74488   6.761   5.719   6.318 -0.8464  0.3169 -1.7151
  552MOL0     H74489   6.811   5.881   6.252 -2.3531 -0.2495 -1.5169
  552MOL0     H74490   6.840   5.785   6.538 -3.6241  2.5511 -0.5797
  552MOL0     H74491   6.904   5.938   6.481  0.4569  1.3896 -0.2747
  552MOL0     H74492   6.995   5.657   6.416  1.0239 -0.3423 -0.6020
  552MOL0     H74493   7.094   5.781   6.505  1.6313  0.3773 -1.3901
  552MOL0     H74494   7.198   5.759   6.309  0.1722  1.6460  1.4447
  552MOL0     H74495   7.052   5.750   6.214 -1.1662 -0.5888  0.8793
  552MOL0     H74496   6.999   5.994   6.271 -0.6586 -1.5892  0.6887
  552MOL0     H74497   7.153   5.992   6.192  0.1015 -0.8216 -0.6535
  552MOL0     H74498   7.229   6.118   6.359  1.0744  0.2215  1.7732
  552MOL0     H74499   7.144   6.014   6.480  0.6675 -0.0456  1.0896
  552MOL0     H74500   6.355   5.853   6.103  2.4462  1.1222  3.2902
  552MOL0     H74501   6.136   5.833   6.014  2.3046 -2.9963  0.2398
  552MOL0     H74502   5.704   6.011   6.024  0.3896  1.0017  1.3985
  552MOL0     H74503   5.464   6.031   6.007 -2.2413 -0.4232 -0.3307
  552MOL0     H74504   4.982   6.231   6.270  0.8966 -1.6973 -0.0874
  552MOL0     H74505   4.823   6.115   6.144  1.8004 -1.6194  0.3994
  552MOL0     H74506   4.787   5.980   5.482  0.5551  2.7238  1.3513
  552MOL0     H74507   4.576   5.935   5.362 -2.4472 -2.8613  0.8198
  552MOL0     H74508   4.245   6.142   5.488 -1.8887  0.3234  0.5702
  552MOL0     H74509   4.178   6.004   5.552  0.7650  3.4465  1.3788
  552MOL0     H74510   4.033   6.094   5.370  0.4408  0.6083 -0.0666
  552MOL0     H74511   4.089   5.936   5.336 -0.1481 -0.7678  2.3418
  552MOL0     H74512   4.234   6.026   5.169  2.3400  1.9992  0.8675
  552MOL0     H74513   4.246   6.177   5.265 -1.1097  0.6213  3.8081
  552MOL0     H74514   4.027   6.263   5.186  1.1240  1.1514 -1.7719
  552MOL0     H74515   4.120   6.218   5.051 -0.8191  1.0401  0.8252
  552MOL0     H74516   3.807   5.949   5.020  0.0808  1.2001 -1.7699
  552MOL0     H74517   4.353   6.034   5.719  0.9340  1.8810  2.8104
  552MOL0     H74518   4.575   6.139   5.933  0.3339 -0.7206  3.4667
  552MOL0     H74519   4.437   6.040   5.919  0.1199 -1.3999  1.1202
  552MOL0     H74520   4.591   5.955   5.936  0.3163 -0.3631 -1.5074
  553MOL0     O74521  10.745   9.668   1.662 -0.4316  0.4664 -0.3708
  553MOL0     C74522  10.756   9.556   1.709 -0.9524 -0.6219  0.0941
  553MOL0     O74523  10.871   9.502   1.771 -0.2083 -0.6236 -0.4853
  553MOL0     C74524  10.970   9.586   1.799  0.1609 -0.7169  0.0664
  553MOL0     C74525  11.045   9.560   1.919  0.0813 -0.0694  0.4938
  553MOL0     C74526  11.154   9.643   1.972  1.4670  0.1219 -0.2679
  553MOL0     C74527  11.194   9.752   1.902  0.8005  0.0930  0.0938
  553MOL0     O74528  11.292   9.829   1.940 -0.1724 -0.2665 -0.4831
  553MOL0     C74529  11.395   9.783   2.024  0.7632  0.0086 -0.7180
  553MOL0     C74530  11.369   9.815   2.171  0.0551 -0.0116  0.1359
  553MOL0     C74531  11.437   9.693   2.247 -0.2154  0.4772 -0.3146
  553MOL0     C74532  11.411   9.699   2.400  0.3556  0.0487  0.6457
  553MOL0     C74533  11.443   9.569   2.469  0.6715  0.1653  1.4175
  553MOL0     C74534  11.594   9.535   2.483  0.2943 -0.6894  0.3424
  553MOL0     C74535  11.618   9.427   2.584 -0.1341 -0.3429  0.0847
  553MOL0     C74536  11.529   9.301   2.557  0.1376 -0.0406  0.2304
  553MOL0     N74537  11.591   9.236   2.432 -0.2468  0.9480  0.0527
  553MOL0     C74538  11.537   9.246   2.307 -0.7120 -0.5417 -0.4821
  553MOL0     C74539  11.597   9.145   2.234 -0.4208  0.1610 -0.0957
  553MOL0     C74540  11.558   9.112   2.090  0.6952  0.7213 -0.3938
  553MOL0     C74541  11.400   9.085   2.072  0.7277 -0.2126 -0.8363
  553MOL0     C74542  11.349   8.973   2.168  0.0168 -0.8055 -0.5326
  553MOL0     C74543  11.433   8.848   2.171 -0.0625  0.0531 -0.2548
  553MOL0     O74544  11.465   8.817   2.036  0.0020 -0.8620  0.2522
  553MOL0     C74545  11.368   8.761   1.960  0.4203  0.9118 -0.2656
  553MOL0     C74546  11.398   8.760   1.833 -0.3659  0.2619  0.0403
  553MOL0     C74547  11.315   8.705   1.741  0.7062 -0.0344 -0.0678
  553MOL0     C74548  11.181   8.654   1.779 -0.5469 -0.3791  0.5184
  553MOL0     C74549  11.088   8.601   1.677  0.3672 -0.0499 -0.5453
  553MOL0     O74550  10.971   8.539   1.731 -0.3843 -0.0339  0.5420
  553MOL0     C74551  10.888   8.474   1.641 -0.1761 -0.8254 -0.3322
  553MOL0     C74552  10.815   8.544   1.543  0.4617 -0.8786 -0.2025
  553MOL0     C74553  10.738   8.471   1.450 -0.0434 -0.6774  0.6575
  553MOL0     C74554  10.722   8.332   1.467 -0.3073  0.1316  0.4442
  553MOL0     O74555  10.625   8.258   1.395 -0.0228 -1.0784  1.2233
  553MOL0     C74556  10.590   8.300   1.264 -0.1917  0.1292 -0.9554
  553MOL0     C74557  10.516   8.200   1.178 -0.0258 -0.4787  0.2687
  553MOL0     C74558  10.376   8.159   1.215  0.1658  0.7406 -0.3877
  553MOL0     C74559  10.320   8.026   1.153 -0.7849 -0.3605  0.0440
  553MOL0     C74560  10.303   8.041   1.000  0.3273  0.5919 -0.0004
  553MOL0     C74561  10.278   7.915   0.920 -0.0999 -0.7956  0.7854
  553MOL0     C74562  10.132   7.880   0.903  0.4753 -1.3202  0.2406
  553MOL0     C74563  10.129   7.775   0.802  0.6584  0.1669  0.5742
  553MOL0    Cl74564   9.961   7.736   0.788 -0.1442  0.0290 -0.1717
  553MOL0     C74565  10.796   8.270   1.570  0.2957 -0.3213 -1.0685
  553MOL0     C74566  10.880   8.337   1.651 -0.7601  1.0738  0.2907
  553MOL0     O74567  11.117   8.604   1.559  0.3068  0.1903 -0.6565
  553MOL0     C74568  11.150   8.665   1.913  0.3868 -0.3651  0.6662
  553MOL0     C74569  11.245   8.717   2.007  0.6840 -0.5132 -0.2839
  553MOL0     N74570  11.700   9.092   2.309 -0.3529 -0.4303  0.0480
  553MOL0     N74571  11.691   9.139   2.427  0.3894 -0.9487  0.2774
  553MOL0     C74572  11.130   9.778   1.785  0.0052  0.7857 -0.1541
  553MOL0     C74573  11.019   9.704   1.729 -0.5146  0.2296 -0.0152
  553MOL0     C74574  10.634   9.477   1.703  0.6356  0.9202 -0.5607
  553MOL0     C74575  10.540   9.515   1.601 -0.4752 -0.0643  0.3964
  553MOL0     C74576  10.430   9.441   1.581  0.2711 -0.2379 -0.4117
  553MOL0     C74577  10.402   9.322   1.654  0.0142  0.0051  0.2559
  553MOL0     O74578  10.284   9.248   1.638 -0.1691 -0.4968 -0.6383
  553MOL0     C74579  10.170   9.312   1.570  0.3402 -0.2585  0.8787
  553MOL0     C74580  10.174   9.280   1.421  1.0675  0.1315 -0.3353
  553MOL0     C74581  10.122   9.139   1.395 -0.3783  0.6127 -0.1396
  553MOL0     C74582  10.135   9.107   1.249 -0.4980 -0.2778  0.7330
  553MOL0     C74583  10.275   9.119   1.201 -0.1002 -0.5231  0.7484
  553MOL0     C74584  10.389   9.135   1.174 -0.1968 -0.5450 -0.1439
  553MOL0     C74585  10.500   9.283   1.744  0.3835 -0.4654  0.6312
  553MOL0     C74586  10.612   9.357   1.777 -0.0930  0.0722 -0.7991
  553MOL0     C74587  10.716   9.309   1.881  0.0843 -0.2232 -0.5152
  553MOL0     H74588  11.023   9.469   1.974 -2.7571 -0.0020 -0.3555
  553MOL0     H74589  11.197   9.624   2.070  1.1461  4.7754  0.9898
  553MOL0     H74590  11.412   9.677   2.007  0.2748 -0.2866  0.5259
  553MOL0     H74591  11.492   9.825   1.994  2.0066 -2.5477 -0.5075
  553MOL0     H74592  11.265   9.828   2.201  0.3023  1.0722  0.5841
  553MOL0     H74593  11.417   9.907   2.206 -2.1085  1.4702 -0.5857
  553MOL0     H74594  11.544   9.708   2.237 -0.5311  1.0723 -6.3187
  553MOL0     H74595  11.394   9.599   2.210 -2.6263  0.8635  1.2524
  553MOL0     H74596  11.477   9.769   2.451 -0.8202  1.0268  0.8577
  553MOL0     H74597  11.307   9.728   2.416 -0.7616  0.5542 -5.2160
  553MOL0     H74598  11.418   9.585   2.574  2.6862  2.2695  1.6570
  553MOL0     H74599  11.385   9.488   2.423 -1.4713  1.8606  1.0273
  553MOL0     H74600  11.638   9.508   2.386  2.6915 -0.2981  1.2495
  553MOL0     H74601  11.654   9.622   2.512  3.9552 -2.4896 -1.1957
  553MOL0     H74602  11.596   9.480   2.677 -2.2308  0.8703 -1.0053
  553MOL0     H74603  11.722   9.396   2.579 -0.0335  0.1383 -1.3737
  553MOL0     H74604  11.547   9.240   2.646 -0.9732 -1.2114 -0.3233
  553MOL0     H74605  11.425   9.335   2.551  0.3222  0.3466 -1.3390
  553MOL0     H74606  11.459   9.310   2.269 -1.6447 -0.4030  1.5157
  553MOL0     H74607  11.590   9.199   2.031 -2.1010  1.8255 -0.4408
  553MOL0     H74608  11.614   9.022   2.062 -0.5053 -0.1456 -0.0786
  553MOL0     H74609  11.338   9.172   2.096  1.7635 -0.5736  4.4767
  553MOL0     H74610  11.383   9.052   1.969 -1.1898  0.2472 -0.6966
  553MOL0     H74611  11.250   8.942   2.134 -0.2869  0.8936 -1.2489
  553MOL0     H74612  11.345   9.016   2.269 -0.5920 -3.2972  0.5923
  553MOL0     H74613  11.377   8.771   2.226  1.5664 -0.2061  1.1026
  553MOL0     H74614  11.531   8.862   2.218  0.0255 -3.7914  1.0918
  553MOL0     H74615  11.496   8.795   1.800 -0.2632  0.2034  0.2858
  553MOL0     H74616  11.354   8.704   1.640  3.1990 -0.6580  0.8430
  553MOL0     H74617  10.827   8.651   1.532 -0.8498 -0.8885 -2.2021
  553MOL0     H74618  10.681   8.531   1.380 -1.4321  0.6526  2.8336
  553MOL0     H74619  10.543   8.398   1.276  1.1333  0.7443 -0.6016
  553MOL0     H74620  10.685   8.323   1.216 -0.9383  2.7235 -1.4019
  553MOL0     H74621  10.515   8.258   1.085  0.1090  1.4629  1.4278
  553MOL0     H74622  10.585   8.115   1.182 -1.7372 -1.9157  4.1169
  553MOL0     H74623  10.378   8.142   1.323 -2.7607 -2.2269 -0.6200
  553MOL0     H74624  10.306   8.235   1.179  1.2542  0.8702 -2.3925
  553MOL0     H74625  10.231   7.998   1.210 -0.1471  0.4299  1.4902
  553MOL0     H74626  10.391   7.945   1.171 -0.4458  0.4981  2.9538
  553MOL0     H74627  10.392   8.079   0.948 -0.1523 -0.1615 -1.4445
  553MOL0     H74628  10.222   8.110   0.976  1.4024  1.9813  0.2324
  553MOL0     H74629  10.326   7.925   0.822 -0.5691 -1.3337  0.4958
  553MOL0     H74630  10.329   7.830   0.966  3.2589  0.9950  0.6562
  553MOL0     H74631  10.064   7.962   0.879  1.6970  0.3998  2.2685
  553MOL0     H74632  10.097   7.840   0.999  0.1286 -0.4745  0.4815
  553MOL0     H74633  10.171   7.807   0.706 -3.6381  0.9198 -1.2759
  553MOL0     H74634  10.171   7.678   0.830  2.1083  0.4523 -0.4371
  553MOL0     H74635  10.782   8.164   1.589  0.4905  0.1539  2.3290
  553MOL0     H74636  10.929   8.270   1.721  0.9872  1.3998 -0.5684
  553MOL0     H74637  11.051   8.636   1.946 -1.8334  4.4578 -0.8111
  553MOL0     H74638  11.205   8.736   2.107  3.4006  4.0451  0.2470
  553MOL0     H74639  11.151   9.869   1.730  0.4770  2.1257  2.1031
  553MOL0     H74640  10.974   9.740   1.637 -1.5835 -0.7553  0.1082
  553MOL0     H74641  10.558   9.606   1.545 -1.7592  0.9747  1.5816
  553MOL0     H74642  10.362   9.494   1.515 -0.5144  0.8181  1.1956
  553MOL0     H74643  10.165   9.420   1.586  0.5129 -0.3107  1.2854
  553MOL0     H74644  10.072   9.277   1.605  0.1506  0.9977  1.6522
  553MOL0     H74645  10.277   9.300   1.389  0.6994  1.2201 -0.9088
  553MOL0     H74646  10.113   9.347   1.359 -1.1087 -0.1889  1.3382
  553MOL0     H74647  10.018   9.129   1.426 -0.7144 -1.4755 -1.7289
  553MOL0     H74648  10.178   9.066   1.453  0.9994  1.0457 -0.8796
  553MOL0     H74649  10.095   9.008   1.224 -1.9704  0.7006 -0.9829
  553MOL0     H74650  10.065   9.172   1.196 -0.1592 -0.7984 -0.3822
  553MOL0     H74651  10.494   9.146   1.155 -0.5471  2.0892 -1.0026
  553MOL0     H74652  10.484   9.183   1.784  1.4302 -0.3105  1.4795
  553MOL0     H74653  10.666   9.225   1.931 -1.4581 -0.6663 -2.6157
  553MOL0     H74654  10.800   9.268   1.824  0.8828 -0.1152  0.5520
  553MOL0     H74655  10.767   9.368   1.957  0.7036 -2.1707  0.6565
  554MOL0     O74656   2.802   0.507   9.944  0.3221 -0.1260 -1.4931
  554MOL0     C74657   2.781   0.503  10.068  0.1134 -0.0515  0.4858
  554MOL0     O74658   2.859   0.447  10.162  0.6958 -0.2300  0.6000
  554MOL0     C74659   2.978   0.388  10.117 -0.8417  0.2531 -0.6483
  554MOL0     C74660   2.988   0.290  10.016 -0.2928 -0.4531  0.1330
  554MOL0     C74661   3.111   0.245   9.972  1.2076  0.6077  0.2077
  554MOL0     C74662   3.225   0.276  10.039  0.1087 -0.0389  0.2457
  554MOL0     O74663   3.340   0.210   9.985  0.1495 -0.0777 -0.2560
  554MOL0     C74664   3.464   0.247  10.049  0.6824 -0.2474 -0.9608
  554MOL0     C74665   3.574   0.167   9.988 -0.2291 -0.3829 -0.2111
  554MOL0     C74666   3.703   0.161  10.063 -0.4370 -0.0295  0.2319
  554MOL0     C74667   3.831   0.162   9.972  0.3323 -0.0278 -0.3052
  554MOL0     C74668   3.955   0.156  10.056  0.0904 -0.6829 -0.3547
  554MOL0     C74669   4.080   0.146   9.969  0.0525 -0.3873  0.2362
  554MOL0     C74670   4.211   0.126  10.064 -0.4313 -0.1782 -0.2156
  554MOL0     C74671   4.261   0.233  10.150 -0.3995  0.0644  0.3529
  554MOL0     N74672   4.347   0.334  10.085  0.0087 -0.1690 -0.2693
  554MOL0     C74673   4.477   0.359  10.120  0.2770 -0.3457  0.2387
  554MOL0     C74674   4.522   0.452  10.032 -0.3933  0.4885  0.6838
  554MOL0     C74675   4.658   0.528  10.036 -0.6845  0.8308 -0.3275
  554MOL0     C74676   4.687   0.608  10.177  0.4917  0.2641 -0.0292
  554MOL0     C74677   4.748   0.748  10.150 -0.5353 -0.1653  0.0762
  554MOL0     C74678   4.851   0.802  10.257  0.2328 -0.8341  0.7337
  554MOL0     O74679   4.960   0.712  10.276 -0.4343 -0.2969  1.0256
  554MOL0     C74680   5.088   0.763  10.275 -0.2472  0.5426 -0.0520
  554MOL0     C74681   5.118   0.887  10.323  0.6279 -0.6387 -0.7183
  554MOL0     C74682   5.242   0.938  10.303 -0.2127  0.5786  0.0780
  554MOL0     C74683   5.345   0.864  10.248 -0.6038  0.3508  0.1266
  554MOL0     C74684   5.486   0.914  10.229  0.9616 -0.0006 -1.1147
  554MOL0     O74685   5.581   0.816  10.199  0.3776 -0.1019 -0.7288
  554MOL0     C74686   5.714   0.860  10.186 -0.1477  0.5198  0.1097
  554MOL0     C74687   5.780   0.787  10.090 -0.3616  0.1434 -0.9469
  554MOL0     C74688   5.922   0.814  10.082  0.5406  0.8307  0.0850
  554MOL0     C74689   5.993   0.913  10.158  0.2545  0.8884 -0.2335
  554MOL0     O74690   6.125   0.920  10.144 -0.0406  0.1156  0.2286
  554MOL0     C74691   6.188   1.042  10.169  0.2562 -0.9911 -0.3497
  554MOL0     C74692   6.341   1.049  10.165  0.0238  0.4337 -0.3354
  554MOL0     C74693   6.393   0.999  10.033 -0.1551 -0.3514  0.1070
  554MOL0     C74694   6.543   0.979  10.033 -0.5528 -0.3853  0.7146
  554MOL0     C74695   6.596   0.880  10.131  0.1857 -0.7050 -0.0484
  554MOL0     C74696   6.736   0.844  10.098 -0.5224  0.7203 -0.2987
  554MOL0     C74697   6.800   0.805  10.230 -0.6105 -0.2237  0.3283
  554MOL0     C74698   6.776   0.659  10.277  0.5519 -0.4509  0.1944
  554MOL0    Cl74699   6.614   0.627  10.361 -0.2777  0.1986  0.7563
  554MOL0     C74700   5.915   0.990  10.243 -0.6658  0.3376  0.3705
  554MOL0     C74701   5.774   0.966  10.259  0.2072  0.3926  0.4875
  554MOL0     O74702   5.511   1.033  10.240  0.1102  0.3791  0.2605
  554MOL0     C74703   5.316   0.731  10.221  0.9270 -0.0062  0.3502
  554MOL0     C74704   5.190   0.679  10.233  0.0006 -0.7447  0.7209
  554MOL0     N74705   4.422   0.474   9.943  0.6453 -0.2254 -0.2269
  554MOL0     N74706   4.318   0.410   9.978 -0.3831  0.0418  0.3320
  554MOL0     C74707   3.221   0.383  10.133  1.1167 -0.6827 -0.4672
  554MOL0     C74708   3.089   0.431  10.169 -0.5795 -0.2065  0.4959
  554MOL0     C74709   2.651   0.560  10.121  0.8200 -0.0860  0.0451
  554MOL0     C74710   2.629   0.582  10.258  0.4874  0.3818  0.3689
  554MOL0     C74711   2.507   0.614  10.310  0.7153  0.2965  0.4577
  554MOL0     C74712   2.399   0.648  10.227  0.3044 -0.9277  0.7027
  554MOL0     O74713   2.288   0.700  10.291  0.8227  0.0763  0.1024
  554MOL0     C74714   2.168   0.740  10.232  0.0743  0.4633 -0.0812
  554MOL0     C74715   2.169   0.880  10.178 -0.5067  0.3142 -1.2879
  554MOL0     C74716   2.036   0.919  10.123  0.7211 -0.7038  0.1966
  554MOL0     C74717   1.914   0.922  10.217  0.0608 -1.0864  0.4841
  554MOL0     C74718   1.813   0.993  10.151 -0.2070  0.4093 -0.4158
  554MOL0     C74719   1.732   1.045  10.083 -0.1916 -0.9675  0.4151
  554MOL0     C74720   2.422   0.631  10.091  0.1606  0.1999 -0.2086
  554MOL0     C74721   2.542   0.592  10.039 -0.5346 -0.5550 -0.0471
  554MOL0     C74722   2.543   0.608   9.891 -0.0263 -0.7008 -0.4763
  554MOL0     H74723   2.893   0.254   9.978 -0.2443  0.6278 -1.0829
  554MOL0     H74724   3.117   0.174   9.890  0.3655  3.3423 -2.4144
  554MOL0     H74725   3.489   0.353  10.040 -0.4050  0.4274  2.5805
  554MOL0     H74726   3.455   0.210  10.151 -0.8405 -1.9528 -1.6450
  554MOL0     H74727   3.591   0.217   9.892 -2.3954  1.3530  0.2310
  554MOL0     H74728   3.536   0.067   9.964 -0.3801  0.0619 -2.0099
  554MOL0     H74729   3.704   0.068  10.121  3.4238  0.0224  0.5041
  554MOL0     H74730   3.714   0.245  10.133  0.9872 -0.4976  0.6036
  554MOL0     H74731   3.823   0.090   9.890 -0.8493 -2.0165  1.4660
  554MOL0     H74732   3.831   0.263   9.931 -0.3063 -0.7106 -2.0646
  554MOL0     H74733   3.953   0.237  10.130 -5.3075 -0.2057 -0.6242
  554MOL0     H74734   3.947   0.060  10.108 -1.0757 -0.7109 -0.5779
  554MOL0     H74735   4.072   0.056   9.906 -2.0313 -0.2362  0.2274
  554MOL0     H74736   4.106   0.236   9.912  0.5805 -1.0053 -0.5292
  554MOL0     H74737   4.299   0.091  10.009  0.1632  2.1101 -0.8020
  554MOL0     H74738   4.187   0.047  10.136  0.3110 -0.3912 -0.1873
  554MOL0     H74739   4.179   0.280  10.204 -1.0211  0.4703 -0.8911
  554MOL0     H74740   4.314   0.196  10.238 -1.3925  0.2111  1.0316
  554MOL0     H74741   4.526   0.315  10.205 -3.8994 -0.6736  2.7696
  554MOL0     H74742   4.742   0.459  10.022 -1.0853  0.5366 -1.3709
  554MOL0     H74743   4.675   0.590   9.947 -2.6890  0.2321 -1.1815
  554MOL0     H74744   4.589   0.617  10.225  1.5241  0.0796  2.2486
  554MOL0     H74745   4.746   0.533  10.231 -0.3435 -1.1278 -0.9782
  554MOL0     H74746   4.670   0.823  10.137 -1.5053 -0.8783  1.5830
  554MOL0     H74747   4.798   0.732  10.053 -2.2163 -1.2659 -0.6505
  554MOL0     H74748   4.801   0.825  10.352 -1.0074 -0.2148 -0.0381
  554MOL0     H74749   4.879   0.896  10.209  0.4682 -0.5801  1.3669
  554MOL0     H74750   5.045   0.949  10.373 -0.5181 -0.0149 -3.0502
  554MOL0     H74751   5.256   1.039  10.341 -2.2500  0.4744  1.2437
  554MOL0     H74752   5.741   0.711  10.024 -0.8801 -0.6018  0.1864
  554MOL0     H74753   5.986   0.754  10.018 -1.1589 -1.2134  0.2154
  554MOL0     H74754   6.152   1.098  10.082 -1.4884 -0.4959  0.6483
  554MOL0     H74755   6.153   1.103  10.253  2.5127  0.9470 -0.7156
  554MOL0     H74756   6.381   1.148  10.185  0.9881 -0.1386  0.6939
  554MOL0     H74757   6.377   0.972  10.234  0.9922 -1.3398 -2.6398
  554MOL0     H74758   6.337   0.911  10.001  2.3242 -1.4331 -1.5688
  554MOL0     H74759   6.365   1.069   9.954 -0.6362 -0.2616  0.3556
  554MOL0     H74760   6.582   1.079  10.057 -1.2454 -0.4349  2.1723
  554MOL0     H74761   6.585   0.962   9.933  2.2979  2.2316  1.3061
  554MOL0     H74762   6.531   0.793  10.140 -3.1405  1.6860  1.3109
  554MOL0     H74763   6.586   0.932  10.227  1.0088  1.5687 -1.1214
  554MOL0     H74764   6.739   0.759  10.029 -2.3878 -0.0857  0.5533
  554MOL0     H74765   6.782   0.930  10.050 -2.3832  0.3739 -2.9385
  554MOL0     H74766   6.771   0.884  10.299 -1.6651  1.4782 -1.9497
  554MOL0     H74767   6.910   0.806  10.223 -0.6002 -1.7371 -0.1290
  554MOL0     H74768   6.794   0.577  10.206 -1.6358  0.2657 -1.3148
  554MOL0     H74769   6.853   0.645  10.353  1.9496  1.8809 -0.7026
  554MOL0     H74770   5.950   1.073  10.305  2.5108 -0.5516 -0.0538
  554MOL0     H74771   5.728   1.016  10.343  0.8471  1.3254  0.2999
  554MOL0     H74772   5.393   0.659  10.197  1.3565  0.7175 -0.4972
  554MOL0     H74773   5.173   0.578  10.198 -2.1420 -0.2893  0.2974
  554MOL0     H74774   3.315   0.417  10.176  0.5455  1.1145 -0.5940
  554MOL0     H74775   3.075   0.508  10.243 -2.5248 -1.2959  1.3176
  554MOL0     H74776   2.708   0.573  10.332  0.7819 -1.4562 -0.1347
  554MOL0     H74777   2.497   0.617  10.418  1.3890 -0.2142  0.5423
  554MOL0     H74778   2.089   0.725  10.307  0.4410 -1.3330 -0.0205
  554MOL0     H74779   2.125   0.680  10.151  0.7863  1.5585 -1.2987
  554MOL0     H74780   2.242   0.885  10.096 -0.5138 -1.3623 -1.4247
  554MOL0     H74781   2.212   0.948  10.253  0.0657 -1.9735  0.6098
  554MOL0     H74782   2.013   0.856  10.037 -0.0795  0.0386 -0.1456
  554MOL0     H74783   2.049   1.026  10.101 -4.5103  0.5430  1.7691
  554MOL0     H74784   1.886   0.819  10.241  0.7249 -1.7924 -1.5219
  554MOL0     H74785   1.945   0.975  10.307 -2.1340 -1.4011  1.4864
  554MOL0     H74786   1.665   1.101  10.020 -1.9921 -1.4296  1.8493
  554MOL0     H74787   2.332   0.655  10.035  1.3201 -0.0636 -2.2993
  554MOL0     H74788   2.457   0.648   9.837 -0.2933 -0.5434  0.0579
  554MOL0     H74789   2.632   0.665   9.864  0.2321 -0.5598  0.6196
  554MOL0     H74790   2.564   0.513   9.840 -0.3636 -2.7013  2.7768
  555MOL0     O74791   6.487   8.967   3.472 -0.4812  1.3669 -0.3236
  555MOL0     C74792   6.479   8.844   3.463 -0.7910  0.1736  0.0626
  555MOL0     O74793   6.559   8.751   3.518  0.6998  0.1731  0.2633
  555MOL0     C74794   6.664   8.782   3.586  0.2247  0.5495 -0.1344
  555MOL0     C74795   6.663   8.804   3.726  0.2220 -0.1688 -1.1060
  555MOL0     C74796   6.783   8.845   3.786  0.4776  0.2259 -0.2445
  555MOL0     C74797   6.897   8.872   3.719 -0.1566 -0.4742  0.4648
  555MOL0     O74798   7.018   8.910   3.778  0.6340 -0.3292  0.6450
  555MOL0     C74799   7.026   8.888   3.923 -0.1725  0.3780 -0.1125
  555MOL0     C74800   7.151   8.941   3.994  0.6450 -0.8616  0.0572
  555MOL0     C74801   7.285   8.865   3.960 -0.9440 -0.8974 -0.5264
  555MOL0     C74802   7.406   8.951   3.967  1.0544 -0.9677  0.4238
  555MOL0     C74803   7.429   9.030   4.092 -0.7685  0.7984  1.4261
  555MOL0     C74804   7.494   8.916   4.176  0.0971 -0.2188  0.1131
  555MOL0     C74805   7.555   8.972   4.300 -0.5222  0.5155 -0.7448
  555MOL0     C74806   7.660   9.081   4.267 -0.3420 -0.4064 -0.7020
  555MOL0     N74807   7.735   9.121   4.387 -0.1624 -0.7243  0.0821
  555MOL0     C74808   7.687   9.145   4.514 -1.0178 -0.8373  0.1507
  555MOL0     C74809   7.792   9.191   4.589  0.3546  0.2671 -0.4693
  555MOL0     C74810   7.797   9.216   4.736  0.1816 -0.7570  0.3179
  555MOL0     C74811   7.932   9.237   4.788 -0.8709 -0.2174  0.7616
  555MOL0     C74812   7.940   9.271   4.931  0.6396  0.9453 -0.1201
  555MOL0     C74813   8.082   9.301   4.981 -0.7512  0.1283  0.2898
  555MOL0     O74814   8.125   9.424   4.921  0.0128 -0.3154  0.1520
  555MOL0     C74815   8.250   9.477   4.960 -1.4296 -0.4443  0.0830
  555MOL0     C74816   8.331   9.528   4.858  0.2491  0.2162  0.0227
  555MOL0     C74817   8.454   9.599   4.872 -0.6329 -0.2868 -0.3899
  555MOL0     C74818   8.516   9.603   4.996 -0.1991 -0.0038  0.1672
  555MOL0     C74819   8.638   9.675   5.018 -0.0796 -1.1480 -0.8738
  555MOL0     O74820   8.719   9.693   4.915 -0.5087  1.0704 -0.7971
  555MOL0     C74821   8.828   9.778   4.923 -0.6383  0.6985  0.1433
  555MOL0     C74822   8.816   9.907   4.967  0.7268  0.1500 -0.0046
  555MOL0     C74823   8.924   9.994   4.970  0.5366 -0.0371 -0.4022
  555MOL0     C74824   9.049   9.952   4.925  0.3389  0.1578 -0.1929
  555MOL0     O74825   9.153  10.049   4.926  0.1191 -0.5532  0.2349
  555MOL0     C74826   9.195  10.100   5.053 -0.0158  0.3337 -0.3792
  555MOL0     C74827   9.341  10.112   5.059 -0.1243  0.7798  0.3216
  555MOL0     C74828   9.427   9.990   5.004  0.7426 -0.7709 -0.1004
  555MOL0     C74829   9.455   9.888   5.112  0.0001  0.3669  0.0741
  555MOL0     C74830   9.552   9.782   5.062  0.0660 -0.3179  0.0258
  555MOL0     C74831   9.582   9.685   5.187  0.5152  1.2962  0.3115
  555MOL0     C74832   9.646   9.554   5.152 -0.2266  0.2071  0.3259
  555MOL0     C74833   9.678   9.462   5.277  0.8600  0.1747 -0.4386
  555MOL0    Cl74834   9.743   9.564   5.418 -0.0165 -0.0110 -0.1976
  555MOL0     C74835   9.061   9.816   4.887 -0.2191 -0.2341  1.0759
  555MOL0     C74836   8.949   9.732   4.874  0.2181  0.1728  0.3210
  555MOL0     O74837   8.669   9.703   5.133  0.4940  0.1615 -0.0160
  555MOL0     C74838   8.442   9.542   5.109  0.0704 -0.4626  0.3635
  555MOL0     C74839   8.310   9.488   5.088 -0.4508 -0.3133  0.2479
  555MOL0     N74840   7.898   9.199   4.492 -0.6305 -0.6430  0.0839
  555MOL0     N74841   7.862   9.160   4.380 -0.2412  0.2314 -0.6881
  555MOL0     C74842   6.897   8.850   3.575  0.7388 -0.7208  0.9140
  555MOL0     C74843   6.777   8.799   3.512 -0.1037  0.1694 -0.5029
  555MOL0     C74844   6.368   8.789   3.381 -0.6404 -0.2715  0.0569
  555MOL0     C74845   6.239   8.839   3.391  0.0449 -0.1735  0.0757
  555MOL0     C74846   6.131   8.824   3.295 -0.4345  0.4945  1.1291
  555MOL0     C74847   6.154   8.732   3.189  0.1246  0.3805  0.0191
  555MOL0     O74848   6.069   8.705   3.086 -0.5019  0.2181  0.2456
  555MOL0     C74849   6.028   8.820   3.018  0.4095 -0.9514  0.6626
  555MOL0     C74850   5.870   8.831   3.007 -0.3784  0.4636 -0.0913
  555MOL0     C74851   5.806   8.860   3.139  1.0396 -0.6736 -0.5480
  555MOL0     C74852   5.645   8.864   3.122  0.3087  0.2666  0.5780
  555MOL0     C74853   5.584   8.939   3.011  0.2632 -0.0214 -0.9628
  555MOL0     C74854   5.520   8.987   2.916  0.0568 -0.1595 -0.3922
  555MOL0     C74855   6.278   8.660   3.192  0.3257 -0.5792  0.2319
  555MOL0     C74856   6.384   8.694   3.280  0.5953  1.0918 -0.1108
  555MOL0     C74857   6.518   8.634   3.248  0.2462 -0.7425  0.0916
  555MOL0     H74858   6.573   8.799   3.786  2.9292 -1.6781  3.3096
  555MOL0     H74859   6.771   8.864   3.892 -1.6926 -0.9980 -0.2235
  555MOL0     H74860   6.941   8.940   3.967  1.8758  1.3617  3.0495
  555MOL0     H74861   7.023   8.783   3.952  1.2714  0.5047  0.5720
  555MOL0     H74862   7.141   8.946   4.103  2.0073  0.1833  0.1622
  555MOL0     H74863   7.165   9.045   3.964 -2.6090 -0.5848 -0.7881
  555MOL0     H74864   7.277   8.832   3.856 -0.5829  2.8351 -1.8901
  555MOL0     H74865   7.307   8.786   4.032 -0.7629  1.3746  2.0470
  555MOL0     H74866   7.491   8.895   3.927 -2.3689 -3.4169 -4.4577
  555MOL0     H74867   7.400   9.024   3.886 -0.1740 -1.2887  0.1985
  555MOL0     H74868   7.494   9.111   4.061  0.3285 -0.9955 -1.2786
  555MOL0     H74869   7.339   9.076   4.134 -1.4974  3.5921 -2.6316
  555MOL0     H74870   7.412   8.849   4.205 -2.0137  1.7944 -0.9362
  555MOL0     H74871   7.564   8.860   4.113 -0.7486  0.0653 -1.1245
  555MOL0     H74872   7.591   8.884   4.353 -0.0773 -0.1244 -2.0517
  555MOL0     H74873   7.471   9.012   4.358 -1.6567 -1.7571 -0.7270
  555MOL0     H74874   7.733   9.047   4.193  1.4103  2.6975 -0.6054
  555MOL0     H74875   7.611   9.172   4.232 -1.8099  0.0438  2.2698
  555MOL0     H74876   7.586   9.125   4.548 -0.4382  0.6952  3.1775
  555MOL0     H74877   7.745   9.309   4.760 -2.4174 -1.8563 -0.6714
  555MOL0     H74878   7.748   9.141   4.799 -0.6958  2.9403  4.5263
  555MOL0     H74879   7.983   9.141   4.775 -1.9277 -1.1360  2.8320
  555MOL0     H74880   7.990   9.320   4.747  0.8245 -0.5389  2.3548
  555MOL0     H74881   7.905   9.183   4.986  1.6937  1.2503  1.0944
  555MOL0     H74882   7.871   9.350   4.961 -2.1050 -1.1420 -0.4972
  555MOL0     H74883   8.160   9.229   4.958  0.1205  1.7257 -2.1947
  555MOL0     H74884   8.079   9.306   5.090 -0.2342 -0.8049  0.3490
  555MOL0     H74885   8.289   9.532   4.758  0.1876 -1.7185 -0.0664
  555MOL0     H74886   8.491   9.651   4.784 -0.6256 -2.1864 -1.5655
  555MOL0     H74887   8.728   9.949   5.015  1.5011 -0.2836  1.8794
  555MOL0     H74888   8.910  10.095   5.009  1.1374 -0.2979  0.5144
  555MOL0     H74889   9.147  10.198   5.058  3.6769  2.2888  1.5427
  555MOL0     H74890   9.164  10.030   5.131 -1.9218  0.9244 -0.5636
  555MOL0     H74891   9.364  10.194   4.991 -0.9870  0.3892 -0.4644
  555MOL0     H74892   9.369  10.140   5.161  2.4426  0.3115 -0.1888
  555MOL0     H74893   9.370   9.949   4.921  1.2193 -0.4385 -0.5971
  555MOL0     H74894   9.526  10.029   4.979  0.2114  2.0185  1.6830
  555MOL0     H74895   9.362   9.838   5.140  0.1083  1.8384  3.4065
  555MOL0     H74896   9.501   9.933   5.200 -0.2771 -2.1492  1.6054
  555MOL0     H74897   9.646   9.828   5.029 -0.9376  2.3727  0.6059
  555MOL0     H74898   9.509   9.726   4.979  0.2323 -1.0772  0.4429
  555MOL0     H74899   9.658   9.730   5.251  1.3423 -1.3561  1.3455
  555MOL0     H74900   9.485   9.666   5.235  0.4983  1.4677  0.3455
  555MOL0     H74901   9.740   9.588   5.109  0.0261  1.1793  1.5883
  555MOL0     H74902   9.581   9.506   5.078 -1.5386  2.1811  0.0994
  555MOL0     H74903   9.582   9.420   5.309  2.6625 -2.2319  2.2044
  555MOL0     H74904   9.739   9.383   5.232 -0.4138  0.4878 -2.8839
  555MOL0     H74905   9.157   9.777   4.855  0.0180  0.5682  0.7632
  555MOL0     H74906   8.964   9.628   4.847 -0.4823  0.2564 -0.4124
  555MOL0     H74907   8.486   9.543   5.208  2.8931 -1.7169 -0.7562
  555MOL0     H74908   8.258   9.442   5.172  0.8949 -0.1786  1.1758
  555MOL0     H74909   6.982   8.880   3.515 -1.4025  2.4807 -0.8083
  555MOL0     H74910   6.781   8.779   3.406 -0.9880 -0.9468 -0.3523
  555MOL0     H74911   6.218   8.895   3.482 -0.3029 -0.9816  0.5031
  555MOL0     H74912   6.040   8.880   3.314 -0.5365  0.0558  2.0203
  555MOL0     H74913   6.070   8.815   2.916 -1.7512 -0.9194 -0.2692
  555MOL0     H74914   6.065   8.910   3.069 -2.6492  0.0388  1.2917
  555MOL0     H74915   5.836   8.738   2.963  0.6216 -1.5616  3.0503
  555MOL0     H74916   5.834   8.904   2.934 -0.4329 -0.8969 -1.4535
  555MOL0     H74917   5.836   8.962   3.163 -2.2526 -0.0698  1.5818
  555MOL0     H74918   5.846   8.789   3.212 -0.1095  0.8629  1.6678
  555MOL0     H74919   5.608   8.761   3.126  2.3030 -0.5536 -0.5191
  555MOL0     H74920   5.611   8.911   3.215 -1.0871  2.3697 -0.9016
  555MOL0     H74921   5.466   9.022   2.830 -0.2424 -0.2025 -0.2210
  555MOL0     H74922   6.303   8.589   3.114  0.4765 -1.7211  1.2755
  555MOL0     H74923   6.525   8.560   3.329  0.4988 -2.0170 -1.0675
  555MOL0     H74924   6.524   8.582   3.152 -1.9911 -0.1765 -0.4223
  555MOL0     H74925   6.587   8.719   3.253  1.2844 -1.6291  2.7735
  556MOL0     O74926  11.058   1.711   2.051  0.5374 -0.0229  0.4849
  556MOL0     C74927  10.944   1.763   2.059 -0.1721  0.3201  0.5114
  556MOL0     O74928  10.831   1.682   2.066  0.1914  0.2892  0.2784
  556MOL0     C74929  10.849   1.545   2.088 -0.0383  0.1713 -0.4521
  556MOL0     C74930  10.896   1.465   1.986 -0.1724 -0.1044  0.3304
  556MOL0     C74931  10.904   1.326   2.004  0.2018  0.1428 -0.9703
  556MOL0     C74932  10.881   1.261   2.128  1.1011 -0.5603  0.4551
  556MOL0     O74933  10.886   1.130   2.159  0.7971  0.1003 -0.3812
  556MOL0     C74934  11.003   1.067   2.113 -0.4875 -0.1773  0.3825
  556MOL0     C74935  11.017   0.924   2.161  0.1874 -0.5561  0.1802
  556MOL0     C74936  11.131   0.852   2.092 -0.0400  0.4589  0.6544
  556MOL0     C74937  11.156   0.707   2.150 -0.4209  0.2669 -0.9515
  556MOL0     C74938  11.273   0.639   2.086  0.5025 -0.0144  0.1616
  556MOL0     C74939  11.298   0.512   2.148 -0.4472 -0.2812  0.0350
  556MOL0     C74940  11.429   0.443   2.097 -0.0310 -0.0092 -0.5395
  556MOL0     C74941  11.467   0.337   2.202 -0.9216 -0.1265  0.2584
  556MOL0     N74942  11.590   0.264   2.161 -0.5463  0.5266  0.3657
  556MOL0     C74943  11.605   0.125   2.170  0.5299  1.1635 -0.1237
  556MOL0     C74944  11.739   0.109   2.161 -0.3674 -1.1076 -0.1299
  556MOL0     C74945  11.807  -0.035   2.163 -1.1427  0.1789 -0.5012
  556MOL0     C74946  11.796  -0.125   2.035 -0.3287 -0.3207 -0.5892
  556MOL0     C74947  11.849  -0.046   1.908 -0.0983  0.0010  0.5970
  556MOL0     C74948  11.817  -0.125   1.778 -0.2277  0.6281 -0.5205
  556MOL0     O74949  11.922  -0.228   1.768  0.1148  0.2168  0.2978
  556MOL0     C74950  12.054  -0.195   1.735 -0.5540 -0.2413 -0.2596
  556MOL0     C74951  12.156  -0.285   1.759 -0.3966 -0.0289 -0.2040
  556MOL0     C74952  12.297  -0.257   1.736 -0.1147  0.6831  0.6865
  556MOL0     C74953  12.333  -0.144   1.668 -0.1182 -0.4238 -0.9805
  556MOL0     C74954  12.478  -0.117   1.641  0.3100 -0.8495  1.0966
  556MOL0     O74955  12.566  -0.223   1.631  0.6027 -0.3584  0.0188
  556MOL0     C74956  12.696  -0.202   1.614  0.3688 -0.4593  0.3319
  556MOL0     C74957  12.745  -0.142   1.500 -0.4906  0.8011  0.6051
  556MOL0     C74958  12.887  -0.130   1.483 -0.0129 -0.4142 -0.4872
  556MOL0     C74959  12.974  -0.178   1.589 -0.0339 -1.3957  0.1857
  556MOL0     O74960  13.102  -0.156   1.563  0.1104  0.4065  0.4085
  556MOL0     C74961  13.193  -0.237   1.636 -0.2614  0.1641 -0.2787
  556MOL0     C74962  13.323  -0.254   1.559 -1.0920 -1.1740 -0.2074
  556MOL0     C74963  13.427  -0.139   1.567  0.5913  0.3435  0.7756
  556MOL0     C74964  13.548  -0.192   1.494 -0.0257 -0.3481  0.8594
  556MOL0     C74965  13.640  -0.073   1.442 -0.0374  0.5375 -1.3533
  556MOL0     C74966  13.734  -0.020   1.551 -0.5393 -0.3468  0.2590
  556MOL0     C74967  13.806  -0.135   1.631 -0.6264 -1.0577 -0.2069
  556MOL0     C74968  13.919  -0.080   1.727  0.0721 -0.4086  0.3922
  556MOL0    Cl74969  13.830   0.026   1.844 -0.3906  0.3245 -0.1046
  556MOL0     C74970  12.920  -0.227   1.704 -0.7698 -0.1738  0.0129
  556MOL0     C74971  12.782  -0.239   1.714  0.2987 -0.9015 -0.1818
  556MOL0     O74972  12.515   0.002   1.631  0.5625  0.0839  1.0729
  556MOL0     C74973  12.231  -0.046   1.639  1.1567  0.1217  0.6745
  556MOL0     C74974  12.092  -0.077   1.661 -0.1106  0.7661 -0.5914
  556MOL0     N74975  11.800   0.231   2.123 -0.1781  0.0375 -0.1331
  556MOL0     N74976  11.708   0.320   2.120  1.3766 -0.4493 -0.1347
  556MOL0     C74977  10.829   1.348   2.231  0.2069  0.0048  1.2189
  556MOL0     C74978  10.819   1.486   2.210  0.0007 -0.4196 -0.7556
  556MOL0     C74979  10.920   1.913   2.071  0.0224 -0.8067  0.0589
  556MOL0     C74980  10.792   1.967   2.103  0.5873 -0.4250 -0.2135
  556MOL0     C74981  10.776   2.107   2.123 -0.2462  0.0044 -0.2221
  556MOL0     C74982  10.886   2.193   2.111 -0.4479 -0.4996  0.3376
  556MOL0     O74983  10.847   2.321   2.131 -0.1649 -0.5856  0.1945
  556MOL0     C74984  10.939   2.427   2.155  0.0931 -0.0680  0.0210
  556MOL0     C74985  10.986   2.513   2.036 -0.1851  0.3652 -0.4303
  556MOL0     C74986  10.877   2.527   1.922 -0.2199  0.5126  0.8247
  556MOL0     C74987  10.915   2.633   1.813  0.3986 -0.4033 -0.1744
  556MOL0     C74988  10.955   2.759   1.879  0.5446 -0.2034 -0.5289
  556MOL0     C74989  10.990   2.856   1.941  0.6124  0.4190  0.0946
  556MOL0     C74990  11.013   2.145   2.085  0.0038  0.1273  0.1991
  556MOL0     C74991  11.024   2.010   2.054 -0.3637  0.7197 -0.0004
  556MOL0     C74992  11.159   1.971   2.000 -0.7758 -0.4414  0.0398
  556MOL0     H74993  10.913   1.502   1.885 -0.1503 -1.8207 -0.3269
  556MOL0     H74994  10.947   1.276   1.918  1.4952  0.9468 -0.8233
  556MOL0     H74995  11.012   1.068   2.004  2.5707  3.9095  0.4447
  556MOL0     H74996  11.094   1.126   2.130 -2.8257  3.7186  0.3715
  556MOL0     H74997  10.927   0.870   2.132 -1.5033  2.2414 -0.1645
  556MOL0     H74998  11.023   0.914   2.270 -0.6048 -4.6691 -0.0217
  556MOL0     H74999  11.219   0.911   2.121  0.3682  0.7862 -1.1703
  556MOL0     H75000  11.104   0.854   1.986 -1.8859 -0.0757  1.0810
  556MOL0     H75001  11.171   0.725   2.257 -0.3908  1.6518 -1.1694
  556MOL0     H75002  11.065   0.649   2.130  0.4922 -0.5447 -2.9693
  556MOL0     H75003  11.234   0.632   1.984 -1.6694 -1.7029  1.0141
  556MOL0     H75004  11.371   0.687   2.083  0.3960  0.2103 -2.2725
  556MOL0     H75005  11.301   0.526   2.256  0.5554 -1.9265  0.2486
  556MOL0     H75006  11.216   0.443   2.126  0.1767 -0.9193 -0.3186
  556MOL0     H75007  11.508   0.516   2.078  2.0575 -0.9139  3.6232
  556MOL0     H75008  11.414   0.394   2.000 -2.7668  0.3560 -0.3860
  556MOL0     H75009  11.479   0.395   2.294 -0.5762 -1.0650  0.8201
  556MOL0     H75010  11.382   0.268   2.207 -1.3799  0.3516 -0.7278
  556MOL0     H75011  11.533   0.044   2.177  2.2921 -0.5002 -0.2492
  556MOL0     H75012  11.912  -0.023   2.191 -0.5603  1.8477 -3.1088
  556MOL0     H75013  11.752  -0.082   2.246  3.8182 -1.6343  2.1850
  556MOL0     H75014  11.845  -0.221   2.049 -2.7485 -1.2937  2.0147
  556MOL0     H75015  11.688  -0.143   2.032 -1.0741  2.8133  1.9486
  556MOL0     H75016  11.957  -0.042   1.923  0.4578 -3.7798 -1.2229
  556MOL0     H75017  11.800   0.052   1.909 -1.0727 -0.3124  5.1803
  556MOL0     H75018  11.818  -0.064   1.688 -1.4229 -1.3326 -1.9332
  556MOL0     H75019  11.716  -0.167   1.778  0.0756 -0.3035 -3.4913
  556MOL0     H75020  12.134  -0.384   1.798  0.1986 -0.4023 -0.7899
  556MOL0     H75021  12.369  -0.324   1.782  2.5878  2.8046 -0.1679
  556MOL0     H75022  12.677  -0.112   1.422 -2.6339 -1.7411  1.3119
  556MOL0     H75023  12.924  -0.093   1.388  3.1616 -0.1244  0.7504
  556MOL0     H75024  13.210  -0.179   1.728  0.3712 -3.8820  2.3892
  556MOL0     H75025  13.156  -0.338   1.652 -1.4474  0.1394 -2.7158
  556MOL0     H75026  13.369  -0.348   1.589  1.9834  0.2162 -0.1756
  556MOL0     H75027  13.295  -0.257   1.453 -0.6171 -0.3619 -0.3638
  556MOL0     H75028  13.389  -0.050   1.517 -3.1805 -1.6109 -0.2620
  556MOL0     H75029  13.455  -0.109   1.669 -2.4524  1.6672  1.3262
  556MOL0     H75030  13.514  -0.235   1.400 -0.0505 -0.7468  1.0486
  556MOL0     H75031  13.604  -0.273   1.542  1.7396 -1.0483 -2.1346
  556MOL0     H75032  13.569   0.001   1.404 -1.8405  0.2237  1.1049
  556MOL0     H75033  13.706  -0.105   1.361  1.6040  0.0207  0.1302
  556MOL0     H75034  13.806   0.049   1.505 -0.4026 -0.1811  0.7174
  556MOL0     H75035  13.668   0.038   1.616  0.1682  1.7676 -0.8097
  556MOL0     H75036  13.860  -0.199   1.560  2.5431  2.1406 -0.9951
  556MOL0     H75037  13.740  -0.197   1.692  0.3268  0.3656  2.4023
  556MOL0     H75038  13.969  -0.161   1.781 -0.9821 -0.2953  1.5808
  556MOL0     H75039  13.990  -0.023   1.666 -1.7904 -0.5356 -2.0444
  556MOL0     H75040  12.983  -0.272   1.780  0.1108 -2.2542 -1.8006
  556MOL0     H75041  12.735  -0.287   1.799 -1.1592 -2.0608 -1.5707
  556MOL0     H75042  12.262   0.045   1.588  0.7560 -0.6386 -0.9568
  556MOL0     H75043  12.015  -0.008   1.628 -0.8751  0.5659  0.7014
  556MOL0     H75044  10.795   1.300   2.323 -0.9324  2.3756  2.1298
  556MOL0     H75045  10.789   1.551   2.290  1.0258  1.5642 -1.9082
  556MOL0     H75046  10.708   1.899   2.110  0.4677 -0.3530 -0.9247
  556MOL0     H75047  10.679   2.150   2.144  0.5675  0.1635  4.3055
  556MOL0     H75048  11.028   2.394   2.210 -1.7775 -2.3228  1.9031
  556MOL0     H75049  10.886   2.489   2.228  1.8412 -0.5129  1.7640
  556MOL0     H75050  11.079   2.471   1.996  1.0111  4.2247 -2.1714
  556MOL0     H75051  11.011   2.615   2.067 -2.3186  0.8852 -0.2162
  556MOL0     H75052  10.784   2.564   1.967 -0.9631 -1.1724  0.7573
  556MOL0     H75053  10.854   2.431   1.875  1.6313  1.1842 -1.6437
  556MOL0     H75054  10.995   2.605   1.744 -0.3797  0.6537 -1.5498
  556MOL0     H75055  10.826   2.651   1.751  0.3351 -1.4551 -0.3987
  556MOL0     H75056  11.026   2.947   1.984 -0.1468  2.2910 -2.9930
  556MOL0     H75057  11.090   2.221   2.077 -0.8169  1.1970  2.0402
  556MOL0     H75058  11.225   1.936   2.079  0.4215 -0.1458 -0.8049
  556MOL0     H75059  11.155   1.896   1.920  2.6390  1.0223 -1.7160
  556MOL0     H75060  11.209   2.062   1.963 -0.3629 -0.6142  0.1699
  557MOL0     O75061   7.286  11.294   4.913 -1.3086  0.0794 -0.8155
  557MOL0     C75062   7.167  11.292   4.948 -0.4731  0.0452 -0.0132
  557MOL0     O75063   7.113  11.233   5.061 -0.0560  0.3058 -0.2909
  557MOL0     C75064   7.199  11.191   5.164  0.6917 -0.9421 -0.0180
  557MOL0     C75065   7.199  11.056   5.194  0.1243  0.1202 -0.2918
  557MOL0     C75066   7.287  11.004   5.297 -0.7434 -0.1881  0.2370
  557MOL0     C75067   7.380  11.092   5.358 -0.0395 -0.2732 -0.2501
  557MOL0     O75068   7.470  11.053   5.447  0.3764  0.1933 -0.2908
  557MOL0     C75069   7.566  10.958   5.400 -0.1788 -0.0804  0.5265
  557MOL0     C75070   7.697  11.018   5.327  0.6561 -0.1006 -0.7386
  557MOL0     C75071   7.800  11.078   5.418 -0.2817 -0.3585  0.9526
  557MOL0     C75072   7.942  11.041   5.365 -0.1935  0.0775 -0.8295
  557MOL0     C75073   8.056  11.123   5.430 -0.3546 -0.0138  0.5343
  557MOL0     C75074   8.185  11.052   5.409 -0.8013  0.1461 -0.2632
  557MOL0     C75075   8.292  11.111   5.505  0.6122  0.9935  0.5352
  557MOL0     C75076   8.294  11.061   5.648  0.3463 -0.3548  0.5347
  557MOL0     N75077   8.331  10.920   5.641  0.1657  0.3846  0.5144
  557MOL0     C75078   8.453  10.876   5.605 -0.6134 -0.6669 -1.4335
  557MOL0     C75079   8.424  10.749   5.574  0.5768  0.7400 -0.0227
  557MOL0     C75080   8.531  10.653   5.514  0.0492  0.0489  0.3554
  557MOL0     C75081   8.600  10.598   5.638 -0.4934 -0.2983 -0.8214
  557MOL0     C75082   8.704  10.490   5.609  0.2782 -0.3943 -0.9032
  557MOL0     C75083   8.841  10.543   5.588  0.9961 -0.3592 -0.3986
  557MOL0     O75084   8.871  10.624   5.703  0.2916  0.2058 -0.7498
  557MOL0     C75085   8.994  10.680   5.689 -0.0975  0.1222 -0.3995
  557MOL0     C75086   9.107  10.621   5.637 -0.0128  1.3137 -0.6690
  557MOL0     C75087   9.234  10.681   5.616 -1.0415 -0.8080 -0.0614
  557MOL0     C75088   9.239  10.816   5.647  0.1603  0.9536  0.3552
  557MOL0     C75089   9.360  10.897   5.616 -0.0692  0.3521 -0.2605
  557MOL0     O75090   9.448  10.838   5.526 -0.4791  0.9586 -0.5106
  557MOL0     C75091   9.577  10.881   5.520  0.4973 -0.6216  0.9599
  557MOL0     C75092   9.612  11.021   5.504  0.2283  1.2513 -0.4201
  557MOL0     C75093   9.741  11.060   5.468 -0.2640 -0.4095  0.2085
  557MOL0     C75094   9.837  10.959   5.445  0.6174 -0.4027  0.1695
  557MOL0     O75095   9.965  10.988   5.407 -0.1015 -0.2702  0.3345
  557MOL0     C75096  10.049  11.035   5.514 -0.9540 -0.6234  0.2118
  557MOL0     C75097  10.174  10.962   5.501 -0.4980 -1.1053 -0.1729
  557MOL0     C75098  10.283  11.013   5.603  0.4956  0.0306  1.1793
  557MOL0     C75099  10.417  10.940   5.564 -0.3695 -0.5893 -0.2592
  557MOL0     C75100  10.528  10.997   5.661  0.0575  0.3415 -0.2137
  557MOL0     C75101  10.667  10.924   5.651  0.3121 -0.1446  0.2221
  557MOL0     C75102  10.667  10.774   5.630 -0.5122 -0.1706 -0.2570
  557MOL0     C75103  10.812  10.719   5.637  0.2509 -0.0485 -0.7533
  557MOL0    Cl75104  10.914  10.755   5.497 -0.1451  0.3862 -0.0372
  557MOL0     C75105   9.806  10.823   5.465  0.0484  0.3480 -0.0614
  557MOL0     C75106   9.678  10.785   5.512  0.8576  0.4709 -0.2819
  557MOL0     O75107   9.380  10.989   5.694 -0.2484 -0.4198  0.1952
  557MOL0     C75108   9.124  10.883   5.700 -0.3217 -0.2307 -0.0772
  557MOL0     C75109   9.005  10.818   5.723  0.4288 -0.9391 -0.4185
  557MOL0     N75110   8.290  10.721   5.586  0.0205  0.1526 -0.1397
  557MOL0     N75111   8.233  10.822   5.634 -0.8585 -1.6260  0.3515
  557MOL0     C75112   7.375  11.232   5.319 -0.1214 -0.0147 -0.2646
  557MOL0     C75113   7.286  11.278   5.225  0.1965 -0.3007  0.6623
  557MOL0     C75114   7.077  11.360   4.852 -0.0425 -0.0479 -1.1849
  557MOL0     C75115   6.966  11.431   4.896 -0.0435 -0.2096  0.5914
  557MOL0     C75116   6.873  11.483   4.809 -0.2968 -1.1689 -0.0160
  557MOL0     C75117   6.884  11.473   4.674  0.0862 -0.4878  0.3108
  557MOL0     O75118   6.779  11.536   4.602  0.1434 -0.7320 -0.6562
  557MOL0     C75119   6.786  11.506   4.457  0.5666  0.1255  0.0495
  557MOL0     C75120   6.690  11.601   4.380 -0.2063  0.3130 -0.3432
  557MOL0     C75121   6.744  11.754   4.382  1.0946 -0.2552 -0.6072
  557MOL0     C75122   6.642  11.837   4.301 -0.0132  0.6359  1.0546
  557MOL0     C75123   6.639  11.799   4.159 -0.3741  0.4299 -0.2188
  557MOL0     C75124   6.656  11.754   4.047 -0.5779 -0.3592 -0.1918
  557MOL0     C75125   6.993  11.404   4.620  0.1625 -0.3753  0.8499
  557MOL0     C75126   7.093  11.356   4.706  0.5943  0.3452  0.4353
  557MOL0     C75127   7.213  11.283   4.649  0.5308 -0.2529 -0.4597
  557MOL0     H75128   7.130  10.988   5.145 -1.3112 -0.5162  2.4197
  557MOL0     H75129   7.286  10.902   5.333 -1.5880 -0.9550 -1.7698
  557MOL0     H75130   7.598  10.903   5.489  0.1629  0.8595  0.9974
  557MOL0     H75131   7.532  10.884   5.327 -0.6412  0.2438  0.4067
  557MOL0     H75132   7.662  11.095   5.258 -2.9957 -0.4546  0.4707
  557MOL0     H75133   7.748  10.942   5.267  2.3064  1.9390 -2.0694
  557MOL0     H75134   7.793  11.041   5.521 -0.8457 -1.4991  0.5230
  557MOL0     H75135   7.785  11.187   5.414 -2.2285 -0.6301 -0.4168
  557MOL0     H75136   7.948  10.933   5.384  2.7117 -0.1213 -2.2599
  557MOL0     H75137   7.957  11.048   5.257  0.5192  1.7376 -0.6539
  557MOL0     H75138   8.064  11.217   5.376  0.9142 -0.3730  0.0736
  557MOL0     H75139   8.035  11.149   5.534 -0.5653  2.9667 -0.1747
  557MOL0     H75140   8.173  10.945   5.430 -1.8513  0.4337  0.7231
  557MOL0     H75141   8.214  11.058   5.304  0.4044 -0.3776  0.0263
  557MOL0     H75142   8.285  11.219   5.493  1.4701  0.7795 -3.3143
  557MOL0     H75143   8.387  11.082   5.459  2.2794  0.1664  4.1098
  557MOL0     H75144   8.371  11.101   5.714  1.5460 -2.9272  0.8160
  557MOL0     H75145   8.198  11.075   5.698  2.0548 -0.1879  4.0992
  557MOL0     H75146   8.540  10.942   5.601 -0.8038 -0.3212 -0.2013
  557MOL0     H75147   8.479  10.575   5.457 -0.5761  0.1314  0.8014
  557MOL0     H75148   8.604  10.709   5.455 -2.0207  0.4395 -2.0000
  557MOL0     H75149   8.639  10.682   5.697 -4.2687  0.1920  1.2912
  557MOL0     H75150   8.526  10.565   5.712  1.2954 -0.5201  0.9517
  557MOL0     H75151   8.670  10.425   5.528 -0.6493 -4.3047  2.3077
  557MOL0     H75152   8.711  10.430   5.700 -1.5749  0.0122 -0.4655
  557MOL0     H75153   8.842  10.602   5.496  0.8397  0.8073  0.3262
  557MOL0     H75154   8.905  10.454   5.583  0.8567 -0.4884  0.0778
  557MOL0     H75155   9.101  10.518   5.602  1.7743  1.3488 -1.1451
  557MOL0     H75156   9.317  10.637   5.562 -0.4702 -0.8254  0.8076
  557MOL0     H75157   9.532  11.094   5.511 -1.1055 -0.1932  0.1669
  557MOL0     H75158   9.750  11.166   5.445  0.1057 -0.6227 -0.6627
  557MOL0     H75159  10.083  11.134   5.481 -0.3288 -0.7800  0.3721
  557MOL0     H75160  10.007  11.023   5.614 -1.3606 -1.2924 -0.0323
  557MOL0     H75161  10.161  10.855   5.518 -1.8231 -1.3058 -2.1092
  557MOL0     H75162  10.212  10.976   5.399 -1.3238  2.4151 -0.1281
  557MOL0     H75163  10.298  11.122   5.596 -0.8305  0.1812  0.4379
  557MOL0     H75164  10.246  10.996   5.704 -2.7465  0.2010  0.1150
  557MOL0     H75165  10.442  10.965   5.460  1.3004 -2.7088 -0.4296
  557MOL0     H75166  10.408  10.832   5.575  1.2968 -0.7590 -0.2979
  557MOL0     H75167  10.476  10.982   5.755  0.0784 -2.9448 -0.6066
  557MOL0     H75168  10.544  11.105   5.656  1.5488  0.1339 -0.5675
  557MOL0     H75169  10.731  10.967   5.573 -1.0330  0.8573 -0.3624
  557MOL0     H75170  10.717  10.948   5.745 -0.0924  2.1338 -0.0873
  557MOL0     H75171  10.611  10.745   5.541  0.5626 -2.5520 -0.2431
  557MOL0     H75172  10.620  10.729   5.718  2.1218 -0.2024  1.2485
  557MOL0     H75173  10.859  10.773   5.720  0.4196  0.2544 -1.0463
  557MOL0     H75174  10.820  10.610   5.649 -0.0258 -0.4375 -3.5815
  557MOL0     H75175   9.882  10.748   5.446 -0.9101 -0.4125 -1.0308
  557MOL0     H75176   9.667  10.678   5.521 -0.8968  0.5085 -1.5132
  557MOL0     H75177   9.131  10.988   5.726 -1.2151  0.4313 -2.2788
  557MOL0     H75178   8.920  10.880   5.751  1.2741  0.6961 -1.3262
  557MOL0     H75179   7.456  11.290   5.362  0.1699 -1.1823  0.8193
  557MOL0     H75180   7.291  11.382   5.197 -0.5889  0.2921  2.5572
  557MOL0     H75181   6.947  11.451   5.001  0.6080 -2.1869  1.1224
  557MOL0     H75182   6.810  11.564   4.844 -0.9471 -1.0481 -1.3890
  557MOL0     H75183   6.753  11.404   4.437 -1.3982  0.9680 -1.3099
  557MOL0     H75184   6.885  11.524   4.413 -0.6000  1.5437 -2.1794
  557MOL0     H75185   6.587  11.587   4.415 -0.2968 -0.4703 -0.8953
  557MOL0     H75186   6.697  11.565   4.277  0.3853  0.3925 -0.3314
  557MOL0     H75187   6.848  11.760   4.350  0.9485  1.5145 -0.8377
  557MOL0     H75188   6.739  11.789   4.486 -1.6551 -2.0784 -0.0057
  557MOL0     H75189   6.546  11.839   4.354  0.2889  0.2174  1.6332
  557MOL0     H75190   6.672  11.942   4.298 -0.8302  0.8606 -1.3506
  557MOL0     H75191   6.666  11.719   3.946  1.9764  1.8088 -0.8080
  557MOL0     H75192   7.004  11.395   4.512 -2.0996  2.6133  0.2321
  557MOL0     H75193   7.192  11.255   4.545  1.4568  2.8778 -1.6072
  557MOL0     H75194   7.300  11.348   4.641  1.9422 -2.2554 -3.6164
  557MOL0     H75195   7.239  11.196   4.710 -1.2447  0.1228  0.9245
  558MOL0     O75196   2.004   8.595   7.901  0.2715  0.4769  0.4880
  558MOL0     C75197   1.990   8.483   7.934  0.2240  0.1951 -0.4844
  558MOL0     O75198   2.093   8.400   7.966  0.2162  0.3425 -0.3284
  558MOL0     C75199   2.220   8.438   7.939  0.7717 -0.4267 -0.6088
  558MOL0     C75200   2.281   8.440   7.810 -0.7928  0.4347  0.3279
  558MOL0     C75201   2.410   8.481   7.789  0.1767 -1.2281 -0.0798
  558MOL0     C75202   2.492   8.523   7.892  0.2529  0.0981 -1.0048
  558MOL0     O75203   2.624   8.548   7.862 -0.4433  0.6375  0.0803
  558MOL0     C75204   2.718   8.544   7.974  0.0309  0.1607  0.5611
  558MOL0     C75205   2.851   8.583   7.911 -0.1899 -0.0500 -0.0282
  558MOL0     C75206   2.864   8.721   7.848  0.1622  0.2873 -0.0511
  558MOL0     C75207   2.958   8.711   7.730 -0.6039  0.0620  0.5734
  558MOL0     C75208   3.105   8.675   7.772  0.6237 -0.5773  0.2438
  558MOL0     C75209   3.176   8.805   7.808 -0.4490  0.0889 -0.6293
  558MOL0     C75210   3.320   8.776   7.853 -0.3835 -0.0280 -0.5482
  558MOL0     C75211   3.388   8.915   7.889  0.1180  1.5100 -0.3998
  558MOL0     N75212   3.521   8.880   7.942  0.3893 -0.3517 -0.6166
  558MOL0     C75213   3.635   8.947   7.912  0.3235  0.9070  0.6487
  558MOL0     C75214   3.733   8.904   8.001  0.8266  0.0555 -0.5611
  558MOL0     C75215   3.880   8.943   8.005  0.0202  0.2130 -0.2615
  558MOL0     C75216   3.952   8.915   8.133 -0.6858 -0.6285  0.0996
  558MOL0     C75217   4.048   9.031   8.152  0.0075 -1.3492  0.0895
  558MOL0     C75218   4.120   9.014   8.281  0.4207  0.2098 -0.0139
  558MOL0     O75219   4.204   9.130   8.303 -0.2844 -0.5656 -0.1871
  558MOL0     C75220   4.306   9.114   8.398  0.3986  0.7061 -0.1144
  558MOL0     C75221   4.315   9.011   8.492  0.3195 -0.3751 -0.6168
  558MOL0     C75222   4.432   9.008   8.574  0.7872  0.2931  0.5590
  558MOL0     C75223   4.518   9.114   8.585  1.1806 -0.6812 -0.2123
  558MOL0     C75224   4.615   9.112   8.694 -0.1237  0.3507  0.1776
  558MOL0     O75225   4.720   9.198   8.680 -0.3982 -0.9032 -0.9673
  558MOL0     C75226   4.807   9.208   8.787 -0.1278 -0.1062  0.6150
  558MOL0     C75227   4.925   9.133   8.782 -0.5404 -0.4308  0.1406
  558MOL0     C75228   5.018   9.141   8.882  0.2376  0.3638 -0.1235
  558MOL0     C75229   4.995   9.214   8.997  0.1034  0.2771 -0.5501
  558MOL0     O75230   5.083   9.211   9.110 -0.2647 -0.6389 -0.1735
  558MOL0     C75231   5.216   9.150   9.099 -0.4725 -0.9604 -0.3023
  558MOL0     C75232   5.295   9.153   9.227 -0.1719  0.4052  0.6139
  558MOL0     C75233   5.450   9.135   9.202 -0.3536 -0.2607 -0.4548
  558MOL0     C75234   5.546   9.146   9.323  0.0828 -0.2500 -0.5670
  558MOL0     C75235   5.694   9.115   9.284 -0.7360  0.0773  0.0047
  558MOL0     C75236   5.762   9.147   9.413 -0.3465  0.2500  0.1087
  558MOL0     C75237   5.907   9.109   9.403 -0.8065 -0.9918 -0.0240
  558MOL0     C75238   5.974   9.153   9.526 -0.0037  0.7682 -0.3689
  558MOL0    Cl75239   6.149   9.119   9.523 -0.0054 -0.3121  0.3227
  558MOL0     C75240   4.877   9.290   9.006 -0.5925 -0.1752 -0.5784
  558MOL0     C75241   4.787   9.283   8.897  0.4829  0.5744 -0.5042
  558MOL0     O75242   4.595   9.033   8.793  0.8884 -0.6123  0.0059
  558MOL0     C75243   4.496   9.230   8.500  0.3518  0.5396  0.6911
  558MOL0     C75244   4.389   9.225   8.406 -0.5296  0.7370  0.1903
  558MOL0     N75245   3.679   8.805   8.083  0.2256  0.1683  0.3249
  558MOL0     N75246   3.553   8.805   8.055 -0.0519 -0.2518  0.7388
  558MOL0     C75247   2.440   8.513   8.021  0.0567  0.4020 -0.5302
  558MOL0     C75248   2.304   8.475   8.047  0.4715  0.2901 -0.4154
  558MOL0     C75249   1.852   8.437   7.938  0.7618  0.3438  0.0017
  558MOL0     C75250   1.759   8.518   7.873  0.5827 -0.3096  0.1907
  558MOL0     C75251   1.626   8.475   7.869 -0.7048  0.2100  0.4300
  558MOL0     C75252   1.589   8.353   7.907 -0.0088 -0.0413 -0.1724
  558MOL0     O75253   1.459   8.321   7.893 -0.0635  0.2284  0.4161
  558MOL0     C75254   1.395   8.258   8.012 -0.3210 -0.3478  0.1481
  558MOL0     C75255   1.253   8.220   7.982  0.0998  0.4488 -0.4074
  558MOL0     C75256   1.175   8.355   7.955 -0.1090  0.3883 -0.7995
  558MOL0     C75257   1.026   8.331   7.922  0.2430  1.2661  0.6913
  558MOL0     C75258   0.952   8.337   8.052 -0.6533  0.4521  0.0493
  558MOL0     C75259   0.891   8.368   8.152  0.6021  0.4081 -0.3614
  558MOL0     C75260   1.677   8.273   7.960  0.3363 -0.2931 -0.2430
  558MOL0     C75261   1.809   8.314   7.988  0.5353  0.7589 -0.6147
  558MOL0     C75262   1.901   8.220   8.074 -0.3332 -0.4686  0.0581
  558MOL0     H75263   2.221   8.405   7.727 -1.4311 -1.7456  1.6281
  558MOL0     H75264   2.463   8.497   7.695  3.0879  0.0642  1.6086
  558MOL0     H75265   2.696   8.619   8.051 -1.0231 -0.8403  1.2637
  558MOL0     H75266   2.729   8.441   8.010  1.7313 -0.1947 -0.8083
  558MOL0     H75267   2.864   8.517   7.825  1.4965  1.0811 -0.6802
  558MOL0     H75268   2.938   8.568   7.976 -0.5853  0.9789  0.7744
  558MOL0     H75269   2.899   8.791   7.925  0.6556 -0.2328  0.2025
  558MOL0     H75270   2.768   8.744   7.801 -1.4857  3.6406  4.2903
  558MOL0     H75271   2.924   8.632   7.662 -1.1949 -0.9568  1.9969
  558MOL0     H75272   2.964   8.808   7.680 -1.5568  0.7362  1.7370
  558MOL0     H75273   3.104   8.597   7.848 -0.7406 -1.7598 -0.9251
  558MOL0     H75274   3.157   8.633   7.685 -0.8102  1.7375 -1.8364
  558MOL0     H75275   3.174   8.876   7.725  0.7386  0.6181 -0.2217
  558MOL0     H75276   3.117   8.840   7.893  0.5405 -1.4446  0.7385
  558MOL0     H75277   3.376   8.726   7.773 -1.2205 -2.9065  0.5500
  558MOL0     H75278   3.303   8.707   7.936 -3.3874  0.1556 -0.9253
  558MOL0     H75279   3.406   8.981   7.804  0.8145  0.5825 -0.9908
  558MOL0     H75280   3.331   8.960   7.972 -1.2002 -1.4543  0.4212
  558MOL0     H75281   3.656   9.017   7.832 -0.0555  2.7157  2.0689
  558MOL0     H75282   3.935   8.888   7.928 -0.6364  0.7282 -1.1151
  558MOL0     H75283   3.883   9.051   7.987  1.0025  0.0302 -1.3210
  558MOL0     H75284   3.884   8.912   8.219 -1.3452 -1.5591 -0.4428
  558MOL0     H75285   4.010   8.825   8.115 -1.7746 -1.0545 -1.5559
  558MOL0     H75286   3.989   9.123   8.157  1.9284 -0.1133  1.7214
  558MOL0     H75287   4.122   9.052   8.074 -2.2856  1.7055 -1.4720
  558MOL0     H75288   4.191   8.931   8.270  3.4591  2.5235  0.8074
  558MOL0     H75289   4.044   8.992   8.357 -0.2944  0.9278 -0.5079
  558MOL0     H75290   4.238   8.938   8.512 -0.7038  0.6859 -0.5679
  558MOL0     H75291   4.445   8.919   8.635 -0.2178 -0.4070 -0.2255
  558MOL0     H75292   4.934   9.068   8.696  0.0436  0.5408 -0.5468
  558MOL0     H75293   5.101   9.074   8.861  0.1218  0.9918 -2.9694
  558MOL0     H75294   5.219   9.050   9.056  0.1166 -0.4926 -1.3722
  558MOL0     H75295   5.267   9.207   9.021 -1.3389 -0.4998 -0.5431
  558MOL0     H75296   5.281   9.251   9.273 -2.1433  0.6631 -0.4566
  558MOL0     H75297   5.254   9.079   9.296 -0.4078  1.1266  1.2679
  558MOL0     H75298   5.479   9.042   9.154  1.2226  2.1089 -4.5594
  558MOL0     H75299   5.481   9.211   9.131 -2.0959  1.0811  0.1269
  558MOL0     H75300   5.503   9.080   9.398 -2.4609  1.1051 -0.7299
  558MOL0     H75301   5.547   9.251   9.353  0.7498 -0.8862  1.8512
  558MOL0     H75302   5.729   9.184   9.206  0.8212 -1.3676 -0.6315
  558MOL0     H75303   5.709   9.017   9.237  0.1273 -0.2928  1.0235
  558MOL0     H75304   5.748   9.254   9.429  0.3071  0.5668 -1.2975
  558MOL0     H75305   5.710   9.092   9.492 -3.1816  0.3129 -1.5909
  558MOL0     H75306   5.950   9.157   9.315  0.2565  1.0341  1.5164
  558MOL0     H75307   5.914   9.000   9.393 -1.5789 -1.0814  0.3174
  558MOL0     H75308   5.960   9.260   9.539  5.0092  1.7313 -0.7125
  558MOL0     H75309   5.937   9.100   9.614  1.6881 -1.4497 -0.8855
  558MOL0     H75310   4.862   9.357   9.090  2.6515  0.1588 -0.1362
  558MOL0     H75311   4.699   9.346   8.907 -1.0199 -1.6071  0.9759
  558MOL0     H75312   4.573   9.306   8.498  1.8552 -0.8626 -2.4706
  558MOL0     H75313   4.374   9.314   8.346  2.3457  1.4048  0.2873
  558MOL0     H75314   2.488   8.544   8.113 -1.9675  2.5698 -0.1209
  558MOL0     H75315   2.269   8.468   8.150  4.6835 -0.3501  1.1643
  558MOL0     H75316   1.784   8.599   7.806  0.8870 -0.5329  0.0288
  558MOL0     H75317   1.547   8.530   7.819  0.9374  2.2559 -0.0597
  558MOL0     H75318   1.400   8.333   8.091 -0.2973  2.6052 -2.4438
  558MOL0     H75319   1.446   8.166   8.042 -0.7514 -0.2267  1.2815
  558MOL0     H75320   1.221   8.172   8.075  1.0038  1.9135  0.7177
  558MOL0     H75321   1.239   8.152   7.898 -4.2785  0.1149  0.3545
  558MOL0     H75322   1.210   8.410   7.866  0.5745  0.1757 -0.6663
  558MOL0     H75323   1.188   8.422   8.040  0.1710 -0.3903 -0.2215
  558MOL0     H75324   0.986   8.413   7.862  3.2802  2.2946 -0.0864
  558MOL0     H75325   1.009   8.235   7.872  1.2462  0.8354  1.1557
  558MOL0     H75326   0.837   8.398   8.239  1.4934 -0.3569  0.4838
  558MOL0     H75327   1.641   8.180   8.002 -2.4070  0.7647 -0.0874
  558MOL0     H75328   1.939   8.268   8.164 -1.1436 -0.4552  0.4032
  558MOL0     H75329   1.846   8.133   8.111 -1.1028  0.0667  0.1928
  558MOL0     H75330   1.986   8.187   8.014  0.9966  2.5844  0.1114
  559MOL0     O75331   7.143   9.453   5.479 -0.4293  0.4323  0.3224
  559MOL0     C75332   7.214   9.424   5.576  0.6111  0.8312 -0.0983
  559MOL0     O75333   7.349   9.390   5.580  0.2366  0.2804  0.1174
  559MOL0     C75334   7.418   9.426   5.471 -0.0615 -0.8892  0.0628
  559MOL0     C75335   7.401   9.359   5.346 -0.0167  0.9583 -0.5548
  559MOL0     C75336   7.471   9.396   5.233 -0.2483  0.4234 -0.1135
  559MOL0     C75337   7.560   9.504   5.232  0.6107 -0.6386 -0.3988
  559MOL0     O75338   7.629   9.532   5.119 -0.5014  0.4987 -0.0605
  559MOL0     C75339   7.702   9.652   5.098  0.7569  0.2385  0.6520
  559MOL0     C75340   7.843   9.630   5.145  1.1999  0.3471  0.2206
  559MOL0     C75341   7.907   9.762   5.158 -0.5439 -0.1086  0.2141
  559MOL0     C75342   8.039   9.757   5.239  0.2318 -0.5137  0.1331
  559MOL0     C75343   8.132   9.880   5.219 -0.0371  0.1602 -0.6659
  559MOL0     C75344   8.233   9.899   5.341  0.3553  0.1870 -0.5203
  559MOL0     C75345   8.325  10.018   5.321  0.4437 -0.5376 -0.5735
  559MOL0     C75346   8.441   9.968   5.233 -0.0929 -0.4895 -0.0346
  559MOL0     N75347   8.524  10.089   5.203  0.1325  0.5482  0.2077
  559MOL0     C75348   8.579  10.179   5.298  0.3229 -0.2337 -0.2133
  559MOL0     C75349   8.673  10.250   5.227  0.1249  0.1509 -0.4746
  559MOL0     C75350   8.782  10.341   5.281 -0.2547 -0.2024  0.1740
  559MOL0     C75351   8.910  10.358   5.188  1.4278 -0.5372 -0.6430
  559MOL0     C75352   9.024  10.434   5.248 -0.0645 -0.1386 -0.1597
  559MOL0     C75353   9.126  10.479   5.157 -0.4034 -1.0423  0.0394
  559MOL0     O75354   9.231  10.537   5.225 -0.0711  0.8711 -0.8056
  559MOL0     C75355   9.345  10.564   5.152  0.7771  0.1586  0.4213
  559MOL0     C75356   9.355  10.544   5.010 -0.5818 -0.2502 -0.7673
  559MOL0     C75357   9.477  10.545   4.947  0.0881 -0.4705  0.2377
  559MOL0     C75358   9.587  10.581   5.018  0.6673 -0.0163 -0.2275
  559MOL0     C75359   9.727  10.568   4.966  0.9870  0.8583 -0.6583
  559MOL0     O75360   9.826  10.494   5.022  0.5396 -0.9490 -0.5051
  559MOL0     C75361   9.810  10.415   5.130 -0.1025 -0.1607  0.1790
  559MOL0     C75362   9.892  10.420   5.243 -0.0537 -1.0829 -0.4625
  559MOL0     C75363   9.881  10.341   5.353  0.1459 -0.2127  1.1855
  559MOL0     C75364   9.775  10.245   5.353 -0.5112 -0.1119  0.3838
  559MOL0     O75365   9.785  10.157   5.455  0.3090 -0.6483 -0.4677
  559MOL0     C75366   9.673  10.063   5.476  0.5158 -0.7520  0.0789
  559MOL0     C75367   9.707   9.990   5.602 -0.4794 -0.8041 -0.0405
  559MOL0     C75368   9.628   9.872   5.636 -0.0971  1.1986  0.4069
  559MOL0     C75369   9.479   9.915   5.661  0.0108  0.4848 -0.0606
  559MOL0     C75370   9.421   9.797   5.743  0.4004  1.4039  0.5022
  559MOL0     C75371   9.270   9.817   5.768 -0.3404  0.7931  0.5027
  559MOL0     C75372   9.180   9.774   5.641  0.9759 -0.9093  0.2926
  559MOL0     C75373   9.078   9.663   5.677 -0.4191 -0.2137 -1.1274
  559MOL0    Cl75374   8.928   9.745   5.744  0.6711  0.1488 -0.2347
  559MOL0     C75375   9.689  10.237   5.247 -0.4230 -0.3057 -0.7841
  559MOL0     C75376   9.701  10.320   5.133  0.1559  0.1708 -0.1886
  559MOL0     O75377   9.737  10.632   4.866  0.3801  0.3851 -0.1151
  559MOL0     C75378   9.578  10.615   5.153 -0.2579 -0.4765 -0.5660
  559MOL0     C75379   9.456  10.615   5.221  0.9603 -0.4259  0.2106
  559MOL0     N75380   8.656  10.222   5.097 -0.4322 -0.2499  0.7833
  559MOL0     N75381   8.561  10.137   5.083  0.1791 -0.0712  0.1137
  559MOL0     C75382   7.572   9.575   5.354  0.3115  0.5362  0.8053
  559MOL0     C75383   7.501   9.538   5.469 -0.0093  0.5875  0.9968
  559MOL0     C75384   7.150   9.410   5.707  0.6038  1.0167  0.7855
  559MOL0     C75385   7.190   9.302   5.790  0.1059 -0.5279  0.0051
  559MOL0     C75386   7.103   9.265   5.902 -0.8636  0.4258 -0.4904
  559MOL0     C75387   6.986   9.331   5.917  0.2049  0.4019  0.4357
  559MOL0     O75388   6.929   9.290   6.030 -0.4870 -0.3185  0.4126
  559MOL0     C75389   6.784   9.285   6.033 -0.2690  0.8799 -0.6235
  559MOL0     C75390   6.718   9.168   5.953  0.0247  0.7437  1.3121
  559MOL0     C75391   6.790   9.035   5.976 -0.7009 -0.1067 -0.3627
  559MOL0     C75392   6.706   8.934   5.897 -0.1694  0.0715  0.1888
  559MOL0     C75393   6.591   8.872   5.966  0.2120 -0.3694  0.8150
  559MOL0     C75394   6.506   8.834   6.039 -0.4643  0.0722  0.5005
  559MOL0     C75395   6.944   9.433   5.836  0.2342 -1.1633 -0.2670
  559MOL0     C75396   7.024   9.478   5.733 -1.0841 -0.6189 -0.3795
  559MOL0     C75397   6.975   9.594   5.655  0.0829  0.4657 -0.1818
  559MOL0     H75398   7.330   9.278   5.342  1.1251 -0.2387  1.4788
  559MOL0     H75399   7.457   9.345   5.138 -3.1365  2.2006 -0.7799
  559MOL0     H75400   7.701   9.682   4.992 -0.8434  4.6582  1.6795
  559MOL0     H75401   7.651   9.733   5.151  1.4784  0.2496  1.3517
  559MOL0     H75402   7.890   9.553   5.083  0.6724 -1.4975  2.0134
  559MOL0     H75403   7.830   9.591   5.246  0.7736  0.0547  0.0553
  559MOL0     H75404   7.837   9.829   5.207  0.4553  1.5556 -0.5123
  559MOL0     H75405   7.916   9.803   5.057 -1.5070 -1.5669 -0.4891
  559MOL0     H75406   8.005   9.758   5.343 -2.2988 -3.2879 -0.5330
  559MOL0     H75407   8.088   9.662   5.213  1.0460 -0.2084  0.5046
  559MOL0     H75408   8.192   9.868   5.128  0.7244  1.4574 -0.3638
  559MOL0     H75409   8.069   9.969   5.227  1.5248  1.1549  3.0349
  559MOL0     H75410   8.176   9.922   5.431  1.7264 -1.4229  0.8405
  559MOL0     H75411   8.291   9.808   5.360  3.2874  1.6566 -1.8725
  559MOL0     H75412   8.357  10.052   5.420  0.1009 -2.2330  0.1599
  559MOL0     H75413   8.277  10.100   5.268 -1.6998 -0.6799  1.0406
  559MOL0     H75414   8.486   9.876   5.273  0.6056 -0.2835 -0.3334
  559MOL0     H75415   8.396   9.933   5.140 -0.6983 -4.5193  1.5588
  559MOL0     H75416   8.539  10.181   5.399 -2.3616 -0.0689 -1.1870
  559MOL0     H75417   8.732  10.437   5.297  0.5867 -0.1219  2.9429
  559MOL0     H75418   8.820  10.311   5.379  1.7613 -1.1604 -0.8513
  559MOL0     H75419   8.939  10.256   5.157 -0.6756 -1.0856 -0.9572
  559MOL0     H75420   8.879  10.412   5.098  3.2552 -3.0712 -2.9743
  559MOL0     H75421   9.067  10.388   5.338 -2.4984 -0.4184  0.9544
  559MOL0     H75422   8.972  10.518   5.294 -3.5013 -0.8532 -2.3428
  559MOL0     H75423   9.084  10.561   5.097 -2.0214 -2.5676 -1.0443
  559MOL0     H75424   9.173  10.405   5.091  2.5270 -0.0160  0.8327
  559MOL0     H75425   9.283  10.495   4.945  0.7902 -4.7980  0.7834
  559MOL0     H75426   9.505  10.520   4.845 -0.7245  0.8189 -0.3298
  559MOL0     H75427   9.969  10.497   5.249  1.3096 -2.2623 -2.0543
  559MOL0     H75428   9.954  10.349   5.433  1.0262  2.8941  0.2045
  559MOL0     H75429   9.577  10.115   5.480  1.2336  0.6135  0.4331
  559MOL0     H75430   9.675   9.999   5.388  0.9427  2.2416 -2.2819
  559MOL0     H75431   9.812   9.959   5.595 -0.2412 -0.4943  1.6743
  559MOL0     H75432   9.714  10.061   5.685  0.5255 -3.5450  2.4194
  559MOL0     H75433   9.635   9.809   5.547  0.5609 -0.2118  1.4337
  559MOL0     H75434   9.675   9.811   5.713 -4.8444 -4.2894 -0.3281
  559MOL0     H75435   9.420   9.924   5.569  0.5007  1.0045 -0.3351
  559MOL0     H75436   9.467  10.012   5.712  0.1693 -0.1478  1.2295
  559MOL0     H75437   9.470   9.793   5.841 -0.4038  1.4430  0.9118
  559MOL0     H75438   9.423   9.707   5.680 -0.2845  1.3872  0.4975
  559MOL0     H75439   9.239   9.766   5.859  0.9255 -1.3147 -0.1710
  559MOL0     H75440   9.245   9.923   5.780  1.6962  1.2289  1.3502
  559MOL0     H75441   9.237   9.735   5.555 -0.4965 -4.8883  0.9243
  559MOL0     H75442   9.135   9.868   5.608 -0.6902 -1.4882  0.8500
  559MOL0     H75443   9.057   9.604   5.588  0.7166 -0.0211 -1.5478
  559MOL0     H75444   9.109   9.589   5.751 -3.5194 -1.3120 -0.8027
  559MOL0     H75445   9.617  10.156   5.239  1.2140 -1.8646 -0.3611
  559MOL0     H75446   9.626  10.314   5.056 -1.2745  0.7020  1.1117
  559MOL0     H75447   9.660  10.639   5.220 -0.5260  0.0812 -0.4339
  559MOL0     H75448   9.442  10.633   5.327  1.3539 -1.8120  0.5152
  559MOL0     H75449   7.642   9.658   5.350  0.7421  0.1622  0.2426
  559MOL0     H75450   7.505   9.597   5.560 -0.4721  0.8137  0.8726
  559MOL0     H75451   7.287   9.259   5.767  0.9062  2.1164 -2.1372
  559MOL0     H75452   7.135   9.196   5.980 -1.1876 -0.5627 -1.2206
  559MOL0     H75453   6.741   9.382   6.008 -0.6981  1.6627  2.6579
  559MOL0     H75454   6.760   9.267   6.139  3.6302 -0.6402  0.1633
  559MOL0     H75455   6.729   9.197   5.848 -1.9589 -1.9623  0.2220
  559MOL0     H75456   6.610   9.162   5.968 -0.0887  2.2319  1.1710
  559MOL0     H75457   6.791   9.009   6.083  0.4954 -1.6573 -0.7030
  559MOL0     H75458   6.898   9.031   5.959 -0.6137 -3.3991  0.1750
  559MOL0     H75459   6.677   8.981   5.803  3.8896  2.3222 -0.1545
  559MOL0     H75460   6.771   8.849   5.876 -2.8288 -1.1503 -4.3497
  559MOL0     H75461   6.427   8.795   6.100  0.3112 -2.5861 -0.0921
  559MOL0     H75462   6.858   9.493   5.865 -0.3318 -1.3057 -1.5723
  559MOL0     H75463   7.049   9.666   5.619  4.0117 -1.6410  2.8595
  559MOL0     H75464   6.927   9.556   5.565 -1.6506  0.8595  0.5291
  559MOL0     H75465   6.906   9.651   5.718 -0.4125  0.2003 -0.4749
  560MOL0     O75466   6.508   6.958   8.324 -0.7933 -0.6305  0.1906
  560MOL0     C75467   6.427   6.889   8.380 -0.1792  0.5757  0.3835
  560MOL0     O75468   6.440   6.824   8.498 -0.2714  0.4451 -0.5063
  560MOL0     C75469   6.570   6.812   8.556 -0.1607 -0.4849 -0.3738
  560MOL0     C75470   6.596   6.846   8.681 -1.1509  1.0816 -2.4005
  560MOL0     C75471   6.730   6.840   8.734 -0.6758 -0.1474  0.2978
  560MOL0     C75472   6.837   6.798   8.659 -0.4515 -0.3943  0.7196
  560MOL0     O75473   6.970   6.780   8.700 -0.6386 -0.1679 -0.1724
  560MOL0     C75474   7.019   6.844   8.817 -0.0353  0.2272 -0.0868
  560MOL0     C75475   7.173   6.807   8.831 -0.3253  0.1186 -0.2145
  560MOL0     C75476   7.256   6.837   8.709  0.1769 -0.3430  0.0462
  560MOL0     C75477   7.349   6.721   8.661  0.8419  0.3743 -0.7353
  560MOL0     C75478   7.465   6.750   8.564  0.1265 -0.4621  0.8844
  560MOL0     C75479   7.402   6.811   8.439  0.3100 -0.5705  0.6544
  560MOL0     C75480   7.491   6.805   8.316  0.6357 -0.6023 -0.0953
  560MOL0     C75481   7.428   6.864   8.193  0.1447 -0.7221  0.2221
  560MOL0     N75482   7.500   6.814   8.071 -0.0425 -0.6664 -0.1747
  560MOL0     C75483   7.630   6.842   8.032 -0.6605 -1.2718  0.2680
  560MOL0     C75484   7.650   6.763   7.921  0.1965  0.1111 -0.2405
  560MOL0     C75485   7.769   6.749   7.826  0.7303  0.0999  0.2743
  560MOL0     C75486   7.816   6.888   7.766 -0.1430  0.8397  0.1146
  560MOL0     C75487   7.966   6.912   7.752 -0.2692 -0.0155  0.8851
  560MOL0     C75488   8.016   6.823   7.633 -0.1990 -0.0254 -0.5389
  560MOL0     O75489   8.142   6.873   7.593  0.2309 -0.4327  0.1096
  560MOL0     C75490   8.264   6.831   7.657  0.4462 -0.8321  0.6950
  560MOL0     C75491   8.387   6.883   7.612  0.2104  0.7721  0.2857
  560MOL0     C75492   8.511   6.845   7.671 -0.1363  0.1609 -0.1721
  560MOL0     C75493   8.512   6.761   7.780  0.7594  1.2935  0.3779
  560MOL0     C75494   8.641   6.719   7.841 -0.4643  0.4299 -0.2660
  560MOL0     O75495   8.753   6.753   7.770 -0.1170 -0.4080 -0.3829
  560MOL0     C75496   8.850   6.654   7.758  0.2196 -0.4175  0.9701
  560MOL0     C75497   8.822   6.527   7.723  0.0247 -0.1962 -0.1108
  560MOL0     C75498   8.920   6.438   7.692  0.0239  1.1710 -0.7904
  560MOL0     C75499   9.057   6.469   7.703  0.2145 -0.8781  0.4327
  560MOL0     O75500   9.158   6.385   7.667  0.0274 -0.2549  0.3464
  560MOL0     C75501   9.141   6.289   7.559 -0.4310 -0.9724  0.6753
  560MOL0     C75502   9.083   6.151   7.602 -1.0797 -1.0077  0.4162
  560MOL0     C75503   9.082   6.063   7.477  1.0078 -0.4998 -0.3555
  560MOL0     C75504   8.973   5.957   7.485  0.0292 -0.1224  0.0230
  560MOL0     C75505   8.969   5.856   7.371 -0.4767  0.6450 -0.0798
  560MOL0     C75506   9.082   5.757   7.368 -0.1287  0.2721  0.2570
  560MOL0     C75507   9.073   5.645   7.261  0.2165 -0.3882 -0.3585
  560MOL0     C75508   9.197   5.593   7.201 -0.7089 -0.1336  0.1684
  560MOL0    Cl75509   9.284   5.730   7.130  0.1659 -0.3677  0.3941
  560MOL0     C75510   9.093   6.596   7.749 -0.0299  0.1074 -0.0059
  560MOL0     C75511   8.987   6.689   7.775 -0.1964  1.0477 -0.3006
  560MOL0     O75512   8.651   6.662   7.955 -1.1429 -0.4437  0.7419
  560MOL0     C75513   8.387   6.706   7.825  0.3785 -0.4824 -0.2392
  560MOL0     C75514   8.267   6.743   7.765 -0.8026 -0.6641  0.1136
  560MOL0     N75515   7.541   6.681   7.913  0.2658  0.6379  0.6816
  560MOL0     N75516   7.455   6.706   7.994  0.5352  0.6757 -0.6891
  560MOL0     C75517   6.817   6.770   8.521 -0.1851  0.7022  0.2644
  560MOL0     C75518   6.683   6.763   8.480 -0.8617 -0.0697  0.5897
  560MOL0     C75519   6.290   6.878   8.327  0.4996  0.5271 -0.0595
  560MOL0     C75520   6.176   6.872   8.418 -0.4786  0.3614 -0.4170
  560MOL0     C75521   6.043   6.862   8.372 -0.1109  0.1948 -0.1721
  560MOL0     C75522   6.010   6.861   8.242  0.0407 -0.0092 -0.3772
  560MOL0     O75523   5.874   6.851   8.203  0.4305  0.2096 -0.2557
  560MOL0     C75524   5.765   6.868   8.289 -1.2553 -0.7565  0.6629
  560MOL0     C75525   5.743   7.009   8.348 -0.1852  0.5088 -0.6305
  560MOL0     C75526   5.778   7.112   8.249 -0.0824 -0.1328  0.8278
  560MOL0     C75527   5.766   7.253   8.313  0.4290  0.2851  0.0109
  560MOL0     C75528   5.625   7.289   8.335  1.3475  0.6299  0.1075
  560MOL0     C75529   5.507   7.297   8.380 -0.3089 -0.0403 -0.1354
  560MOL0     C75530   6.120   6.857   8.155  0.3421 -0.2177 -0.1881
  560MOL0     C75531   6.254   6.875   8.195 -1.0795  0.4054  0.3356
  560MOL0     C75532   6.364   6.863   8.089 -0.4057 -0.7450 -0.3953
  560MOL0     H75533   6.523   6.878   8.755  1.3378  0.6344  0.4997
  560MOL0     H75534   6.737   6.858   8.841 -0.2010  0.6211  0.1417
  560MOL0     H75535   7.010   6.953   8.807  0.0261  0.3802  1.2575
  560MOL0     H75536   6.950   6.817   8.898 -1.6087  2.6084 -0.5477
  560MOL0     H75537   7.187   6.702   8.860  0.7851  0.3261  0.0471
  560MOL0     H75538   7.226   6.863   8.909  0.2874 -2.8890  1.6920
  560MOL0     H75539   7.322   6.924   8.720  2.3537 -1.5394 -2.3642
  560MOL0     H75540   7.200   6.869   8.620  3.4456  1.4517 -1.5662
  560MOL0     H75541   7.387   6.683   8.756 -1.1628 -1.6279 -0.6566
  560MOL0     H75542   7.289   6.643   8.613 -3.0233  3.7927 -2.0254
  560MOL0     H75543   7.534   6.819   8.614 -1.1363  0.6077  1.2114
  560MOL0     H75544   7.513   6.661   8.523 -0.5070 -0.2674 -0.3474
  560MOL0     H75545   7.304   6.767   8.417  1.4023 -3.3017  0.9415
  560MOL0     H75546   7.384   6.917   8.463 -1.4607 -1.1396  2.0914
  560MOL0     H75547   7.516   6.699   8.304 -0.2377 -0.8586  0.2656
  560MOL0     H75548   7.587   6.854   8.335 -0.3774  0.6796  2.0075
  560MOL0     H75549   7.322   6.838   8.197  0.4517 -2.0392  0.2057
  560MOL0     H75550   7.428   6.974   8.192 -0.9080 -0.7099 -0.2813
  560MOL0     H75551   7.682   6.922   8.082 -5.0568  2.0574  0.1165
  560MOL0     H75552   7.852   6.706   7.883  0.1734  1.7920  2.4804
  560MOL0     H75553   7.729   6.683   7.748  1.0165  1.8446 -1.4015
  560MOL0     H75554   7.759   6.907   7.674 -3.0177  1.1782  1.8562
  560MOL0     H75555   7.775   6.967   7.829 -0.9441  1.1806 -0.7937
  560MOL0     H75556   8.011   6.890   7.850  0.2284 -2.9551  0.0821
  560MOL0     H75557   7.981   7.017   7.724  1.8581 -0.5750 -0.3233
  560MOL0     H75558   7.946   6.821   7.549 -1.4157  1.6401  0.3811
  560MOL0     H75559   8.031   6.720   7.666 -2.2910  0.2948  1.6116
  560MOL0     H75560   8.387   6.954   7.530  0.3764  1.2514  0.7021
  560MOL0     H75561   8.602   6.895   7.640 -0.6325  2.1943  1.4203
  560MOL0     H75562   8.721   6.488   7.714 -0.3756  0.7811  0.0899
  560MOL0     H75563   8.880   6.347   7.648  2.3462 -0.7060  0.7220
  560MOL0     H75564   9.067   6.325   7.486  0.1199  1.2390  1.1690
  560MOL0     H75565   9.240   6.282   7.514 -1.9277 -1.4104 -2.9050
  560MOL0     H75566   9.144   6.098   7.676  0.7335 -2.4558 -2.0037
  560MOL0     H75567   8.984   6.161   7.649 -0.7317  0.6647  0.8888
  560MOL0     H75568   9.061   6.127   7.391  1.1160 -0.5203 -0.3965
  560MOL0     H75569   9.183   6.027   7.456  0.4215 -3.5208  1.4107
  560MOL0     H75570   8.871   5.994   7.490  0.3560  1.1550 -1.9056
  560MOL0     H75571   8.998   5.901   7.576  0.0815  0.5319  0.4207
  560MOL0     H75572   8.959   5.899   7.271 -1.5709 -3.7423 -2.1380
  560MOL0     H75573   8.873   5.804   7.375 -0.5095  0.2804 -3.2014
  560MOL0     H75574   9.177   5.810   7.360 -0.3978  0.8725  0.8752
  560MOL0     H75575   9.078   5.714   7.469  1.3490 -1.7428 -0.4957
  560MOL0     H75576   9.021   5.692   7.176  1.0895  0.7349 -0.3034
  560MOL0     H75577   9.011   5.563   7.297  0.0365 -1.0639 -2.1134
  560MOL0     H75578   9.254   5.529   7.268 -1.4036 -1.1815 -0.2197
  560MOL0     H75579   9.176   5.531   7.113 -3.2907  0.5924  0.1878
  560MOL0     H75580   9.197   6.627   7.761 -0.2583  0.6517  0.6469
  560MOL0     H75581   9.008   6.789   7.813  0.3453  1.0756 -0.6628
  560MOL0     H75582   8.384   6.627   7.900 -3.5012  0.2266  0.5437
  560MOL0     H75583   8.175   6.710   7.812 -1.3459  1.2752  0.5070
  560MOL0     H75584   6.904   6.750   8.460  0.4753  0.1508  1.3477
  560MOL0     H75585   6.669   6.747   8.374  2.5579 -1.9495  0.2549
  560MOL0     H75586   6.200   6.875   8.523  0.4880  0.6491 -0.6403
  560MOL0     H75587   5.968   6.858   8.450 -0.5764 -3.4610 -0.6000
  560MOL0     H75588   5.786   6.795   8.368  1.8202  0.6387  1.3175
  560MOL0     H75589   5.675   6.847   8.232  0.3948 -1.9519 -1.6612
  560MOL0     H75590   5.809   7.018   8.434 -2.3523 -1.9940  1.4825
  560MOL0     H75591   5.640   7.018   8.383  0.0403  0.1746  0.1194
  560MOL0     H75592   5.713   7.090   8.164  0.4523 -3.6676  1.1681
  560MOL0     H75593   5.883   7.084   8.233 -0.4513 -1.5158  0.7329
  560MOL0     H75594   5.827   7.262   8.404  0.8159 -2.3363  0.0925
  560MOL0     H75595   5.800   7.326   8.239  0.3010 -0.9077 -1.2768
  560MOL0     H75596   5.403   7.300   8.404 -1.0583 -0.4076 -2.9316
  560MOL0     H75597   6.085   6.823   8.058  0.6028 -0.3223 -0.2476
  560MOL0     H75598   6.329   6.889   7.989 -1.4532  0.1998  0.2011
  560MOL0     H75599   6.436   6.941   8.117 -1.0950 -0.5402  0.9058
  560MOL0     H75600   6.407   6.763   8.099  0.8205 -0.1425  0.6626
  561MOL0     O75601   8.724   0.668   5.631 -0.4893 -0.0336  0.3041
  561MOL0     C75602   8.714   0.788   5.659  0.4896  0.6954 -0.7354
  561MOL0     O75603   8.804   0.886   5.652 -0.0031  0.1418  0.1886
  561MOL0     C75604   8.907   0.871   5.567  0.5508  0.6916 -0.1923
  561MOL0     C75605   9.026   0.939   5.593 -0.0999  0.1777 -0.3352
  561MOL0     C75606   9.146   0.921   5.515 -0.2136 -0.1247 -0.0634
  561MOL0     C75607   9.148   0.829   5.415 -0.9103  0.0569 -0.0893
  561MOL0     O75608   9.263   0.797   5.340  0.4646  0.2551  0.0198
  561MOL0     C75609   9.384   0.865   5.372 -0.5334 -0.1729 -0.1922
  561MOL0     C75610   9.475   0.814   5.257  0.0471  0.1558  0.6129
  561MOL0     C75611   9.602   0.895   5.257  0.1326 -0.3707 -1.1875
  561MOL0     C75612   9.712   0.809   5.208 -0.0454  0.4956 -0.3263
  561MOL0     C75613   9.841   0.885   5.204  0.6367  0.0810  0.2818
  561MOL0     C75614   9.947   0.802   5.122  1.3285 -0.2342  0.1031
  561MOL0     C75615  10.082   0.891   5.124 -0.4945  1.1098  0.4306
  561MOL0     C75616  10.195   0.816   5.057 -0.2767  0.1767  0.1509
  561MOL0     N75617  10.247   0.708   5.131 -0.0026  1.5618  0.2414
  561MOL0     C75618  10.319   0.732   5.242 -1.4192  0.1243 -0.0906
  561MOL0     C75619  10.377   0.616   5.274 -0.5321 -0.6319  0.0705
  561MOL0     C75620  10.459   0.580   5.396  0.6439  0.3062  0.4642
  561MOL0     C75621  10.602   0.545   5.357  0.3223  1.1693 -0.2170
  561MOL0     C75622  10.692   0.664   5.321  0.1315 -0.1970  0.2883
  561MOL0     C75623  10.839   0.626   5.310 -0.6903  0.4351  0.1310
  561MOL0     O75624  10.877   0.577   5.440 -0.1012 -0.2699 -0.4866
  561MOL0     C75625  10.999   0.605   5.492 -0.3998  0.5580 -0.9618
  561MOL0     C75626  11.005   0.679   5.607  0.7479 -0.8816  0.0540
  561MOL0     C75627  11.126   0.725   5.669  0.5012 -0.4913 -0.5483
  561MOL0     C75628  11.247   0.690   5.598 -0.0914  0.1039 -0.3686
  561MOL0     C75629  11.381   0.728   5.644  0.3062 -0.1952 -0.1985
  561MOL0     O75630  11.384   0.814   5.743  1.4968 -0.3515 -0.6755
  561MOL0     C75631  11.498   0.838   5.814 -0.2012  0.0194  0.5634
  561MOL0     C75632  11.594   0.931   5.776 -0.2926  0.0644  0.6515
  561MOL0     C75633  11.714   0.938   5.844 -0.4787 -0.0719  0.2272
  561MOL0     C75634  11.757   0.835   5.938  0.7128 -1.0203 -0.2975
  561MOL0     O75635  11.889   0.809   5.990 -0.0408  0.5841  0.3635
  561MOL0     C75636  11.994   0.876   5.926  0.2696  0.0002 -0.6143
  561MOL0     C75637  12.122   0.850   6.007 -0.6385  0.3883  0.0678
  561MOL0     C75638  12.243   0.943   5.973 -0.5924 -0.3593  0.0088
  561MOL0     C75639  12.372   0.874   5.973 -0.1408 -0.6024  0.3373
  561MOL0     C75640  12.483   0.957   5.896  0.3978  1.1505 -0.1547
  561MOL0     C75641  12.511   1.082   5.971 -0.3083 -0.0533  1.3974
  561MOL0     C75642  12.609   1.164   5.894 -0.5619  0.9499 -0.2637
  561MOL0     C75643  12.660   1.286   5.972  0.1316  0.7591 -0.3802
  561MOL0    Cl75644  12.763   1.220   6.112  0.3531 -0.0048  0.2008
  561MOL0     C75645  11.662   0.737   5.957 -0.1504 -0.0337 -0.5187
  561MOL0     C75646  11.536   0.734   5.899  0.5879  0.6002  0.6294
  561MOL0     O75647  11.470   0.646   5.619 -0.6036  0.0770  0.0667
  561MOL0     C75648  11.237   0.614   5.475  0.4835  0.2388  1.0639
  561MOL0     C75649  11.116   0.576   5.417 -0.7366  0.3759 -0.9588
  561MOL0     N75650  10.319   0.525   5.196 -0.7446 -0.6702  0.0505
  561MOL0     N75651  10.242   0.576   5.113  0.3864 -0.2166  0.7591
  561MOL0     C75652   9.023   0.784   5.366  0.5826 -0.0877 -0.9464
  561MOL0     C75653   8.909   0.798   5.448  0.4643  0.4898  0.2329
  561MOL0     C75654   8.578   0.817   5.722 -0.4818 -0.6032 -0.9645
  561MOL0     C75655   8.562   0.944   5.785 -1.6199  0.7408  0.0712
  561MOL0     C75656   8.463   0.970   5.876  0.1408 -0.0993  0.8103
  561MOL0     C75657   8.354   0.885   5.890 -0.0147  0.0659  0.4773
  561MOL0     O75658   8.243   0.911   5.959  0.1528 -0.1064  0.4334
  561MOL0     C75659   8.214   1.048   5.982  0.5705  0.1437 -0.1033
  561MOL0     C75660   8.073   1.069   6.041  1.1580  0.5292  0.4090
  561MOL0     C75661   8.064   0.991   6.178  0.6662 -0.0381 -0.0021
  561MOL0     C75662   7.916   0.955   6.196  0.5846  0.4713 -0.9973
  561MOL0     C75663   7.831   1.077   6.184  1.2541  0.2059 -0.2865
  561MOL0     C75664   7.756   1.168   6.153 -0.2223  0.1709  0.6814
  561MOL0     C75665   8.374   0.756   5.841  0.4784  0.0151 -0.1649
  561MOL0     C75666   8.478   0.724   5.753 -0.3554  0.3631  0.2360
  561MOL0     C75667   8.455   0.585   5.700  0.4197 -0.5402 -0.3494
  561MOL0     H75668   9.035   1.012   5.673  4.4294  1.6189 -1.8805
  561MOL0     H75669   9.230   0.989   5.530  0.6249 -0.9619 -0.8106
  561MOL0     H75670   9.370   0.974   5.366  1.5584  0.2546  1.3406
  561MOL0     H75671   9.425   0.835   5.469  1.2443 -0.5346 -1.0164
  561MOL0     H75672   9.417   0.838   5.167 -0.9995  1.2918  1.5567
  561MOL0     H75673   9.489   0.706   5.267  1.5650  0.1277 -1.1186
  561MOL0     H75674   9.625   0.923   5.360 -4.7153 -2.1384  0.6532
  561MOL0     H75675   9.598   0.977   5.185  1.6337  1.0538  0.2705
  561MOL0     H75676   9.723   0.720   5.271 -0.3229  0.5652 -0.1786
  561MOL0     H75677   9.690   0.766   5.110  1.1437 -1.0287  0.0294
  561MOL0     H75678   9.829   0.979   5.148 -2.1484 -0.9988 -1.1520
  561MOL0     H75679   9.863   0.915   5.306 -0.8368 -1.0299  0.9785
  561MOL0     H75680   9.962   0.711   5.180  2.3960  0.3005  0.7168
  561MOL0     H75681   9.921   0.781   5.017  0.7156  0.5361  0.0900
  561MOL0     H75682  10.113   0.915   5.226 -2.8727 -0.4062  1.6034
  561MOL0     H75683  10.063   0.986   5.073 -3.0502  1.3057  1.6033
  561MOL0     H75684  10.161   0.794   4.955  1.6207 -2.2649 -0.0532
  561MOL0     H75685  10.270   0.894   5.042 -1.1014  0.7282 -1.2238
  561MOL0     H75686  10.352   0.824   5.289  0.7841  0.6431 -2.4264
  561MOL0     H75687  10.470   0.665   5.465  2.5148  0.3393  0.1783
  561MOL0     H75688  10.413   0.487   5.428 -0.9126 -0.2090 -2.8457
  561MOL0     H75689  10.650   0.483   5.434 -0.6554 -1.9676 -1.9539
  561MOL0     H75690  10.602   0.487   5.264  0.3453  0.2341  0.3487
  561MOL0     H75691  10.669   0.734   5.402 -1.5673  0.1931 -0.4955
  561MOL0     H75692  10.658   0.705   5.225  0.2971 -0.2962  0.1860
  561MOL0     H75693  10.900   0.711   5.280  1.2741 -0.8999  0.2129
  561MOL0     H75694  10.846   0.541   5.241  0.5813 -0.2858  1.0972
  561MOL0     H75695  10.910   0.699   5.657  0.9911  1.1142 -0.1737
  561MOL0     H75696  11.111   0.790   5.755 -2.5680  2.5681 -3.0911
  561MOL0     H75697  11.563   1.003   5.701  0.1876  0.8709  1.2142
  561MOL0     H75698  11.783   1.017   5.816  0.0270 -0.2012  1.0958
  561MOL0     H75699  12.004   0.855   5.819  2.9823  1.3629 -0.7161
  561MOL0     H75700  11.990   0.984   5.942  0.5170 -0.2143  1.0220
  561MOL0     H75701  12.103   0.857   6.114 -1.8733 -0.5227 -0.0722
  561MOL0     H75702  12.153   0.747   5.987 -0.4256  0.5334 -0.3530
  561MOL0     H75703  12.227   0.983   5.872  3.2585  0.4491 -0.4232
  561MOL0     H75704  12.244   1.030   6.039 -2.0666  0.3285 -0.8158
  561MOL0     H75705  12.368   0.778   5.920  1.0211 -1.0449  1.0287
  561MOL0     H75706  12.402   0.853   6.077  2.0430  2.0537  0.3372
  561MOL0     H75707  12.464   0.974   5.789  2.9597 -3.7546 -1.7263
  561MOL0     H75708  12.573   0.896   5.904 -0.0586  0.7135  3.2123
  561MOL0     H75709  12.420   1.142   5.981 -1.4345 -0.7571 -2.6415
  561MOL0     H75710  12.553   1.054   6.068  0.7637 -0.2749  0.8849
  561MOL0     H75711  12.564   1.193   5.799  1.8045  1.8306 -1.1749
  561MOL0     H75712  12.681   1.097   5.847  0.0823  2.8983 -2.2302
  561MOL0     H75713  12.714   1.359   5.911  0.0956  1.5652  0.5208
  561MOL0     H75714  12.571   1.332   6.014 -1.3674 -0.5133 -2.0135
  561MOL0     H75715  11.686   0.650   6.018 -0.5592 -1.5323 -2.4099
  561MOL0     H75716  11.467   0.652   5.919  1.3161 -0.0162  0.6534
  561MOL0     H75717  11.325   0.582   5.419  0.8187 -2.2916  2.8507
  561MOL0     H75718  11.117   0.508   5.332 -2.9361  0.4137 -1.0656
  561MOL0     H75719   9.016   0.725   5.276 -0.9231  0.7802 -1.4216
  561MOL0     H75720   8.819   0.751   5.412  0.9199 -0.6543  0.5336
  561MOL0     H75721   8.643   1.016   5.786 -0.7571 -0.1389  3.1870
  561MOL0     H75722   8.454   1.072   5.911 -2.5085  1.8080 -4.3907
  561MOL0     H75723   8.232   1.111   5.895 -0.1201 -0.8034 -0.9627
  561MOL0     H75724   8.281   1.084   6.060 -0.0496 -0.0014  0.5099
  561MOL0     H75725   8.009   1.017   5.969  0.9498 -0.3740  1.2204
  561MOL0     H75726   8.053   1.174   6.062  1.5644  0.5769  0.5583
  561MOL0     H75727   8.098   1.043   6.268  0.8393 -0.0320 -0.0715
  561MOL0     H75728   8.112   0.893   6.182 -2.2936 -1.5744  0.9279
  561MOL0     H75729   7.894   0.875   6.125 -0.4860  1.0024 -1.2799
  561MOL0     H75730   7.907   0.910   6.295  2.8660  2.7211  0.3750
  561MOL0     H75731   7.688   1.249   6.135  0.4101  0.2052 -2.0838
  561MOL0     H75732   8.301   0.681   5.867  0.1109  0.4132 -0.0285
  561MOL0     H75733   8.350   0.576   5.670 -0.9230  1.3413  3.2203
  561MOL0     H75734   8.513   0.554   5.613 -0.2366  0.3103 -1.1024
  561MOL0     H75735   8.474   0.511   5.779  3.0558 -1.9384 -2.1222
  562MOL0     O75736   4.330   0.650   8.302 -0.4013 -0.6154 -0.1685
  562MOL0     C75737   4.214   0.623   8.303 -0.5603  0.4768 -0.4456
  562MOL0     O75738   4.158   0.509   8.257  0.0397  0.0257  0.6169
  562MOL0     C75739   4.239   0.403   8.220  0.5909 -0.3872 -0.0594
  562MOL0     C75740   4.376   0.371   8.250  0.1746  0.4169 -0.9027
  562MOL0     C75741   4.433   0.257   8.195  0.5844 -0.2347  0.1465
  562MOL0     C75742   4.371   0.183   8.099 -0.5768  0.7639 -0.1349
  562MOL0     O75743   4.445   0.077   8.048  0.4870 -0.2341  0.5904
  562MOL0     C75744   4.385  -0.036   7.976 -0.2133  0.0595  0.1621
  562MOL0     C75745   4.435  -0.163   8.047 -0.7148  0.1557  0.1626
  562MOL0     C75746   4.417  -0.297   7.974  0.1512 -0.3267  0.3036
  562MOL0     C75747   4.480  -0.416   8.041  0.7084 -0.0377 -1.5810
  562MOL0     C75748   4.482  -0.521   7.931 -0.5483  0.9334 -1.1702
  562MOL0     C75749   4.549  -0.645   8.003  0.5141 -0.8177 -0.3210
  562MOL0     C75750   4.498  -0.770   7.929  1.0313 -0.3793  0.1430
  562MOL0     C75751   4.548  -0.902   7.995 -0.2863  0.0258  0.1385
  562MOL0     N75752   4.698  -0.903   8.025  0.6988 -0.7369 -0.3757
  562MOL0     C75753   4.805  -0.896   7.936 -0.4920 -1.1025  0.7160
  562MOL0     C75754   4.912  -0.863   8.012 -0.1561 -0.0896 -0.4447
  562MOL0     C75755   5.049  -0.881   7.954  0.9844 -0.5780 -0.9932
  562MOL0     C75756   5.149  -0.911   8.070  0.5879 -0.4018  1.1335
  562MOL0     C75757   5.278  -0.950   7.996 -0.2414 -0.2722  0.0161
  562MOL0     C75758   5.400  -0.991   8.080 -0.3260 -0.3672  0.4943
  562MOL0     O75759   5.511  -0.998   7.990  0.0389  0.4595 -0.3435
  562MOL0     C75760   5.638  -1.007   8.041  0.1741  0.3813 -0.1695
  562MOL0     C75761   5.668  -1.049   8.169  0.4468  0.5102 -0.2180
  562MOL0     C75762   5.802  -1.069   8.208  0.6673  0.8693 -0.2167
  562MOL0     C75763   5.910  -1.068   8.111  0.6934  0.3831  0.1980
  562MOL0     C75764   6.054  -1.097   8.148  0.0425  0.3162  0.3311
  562MOL0     O75765   6.075  -1.128   8.276 -0.4946  0.3132  0.7099
  562MOL0     C75766   6.190  -1.195   8.307 -0.8798 -0.0560 -0.0782
  562MOL0     C75767   6.208  -1.332   8.272 -0.8211  0.0842 -0.2872
  562MOL0     C75768   6.323  -1.387   8.315 -0.7676 -0.5882 -0.3265
  562MOL0     C75769   6.424  -1.319   8.390 -0.7387  0.5165  0.3437
  562MOL0     O75770   6.536  -1.395   8.414 -0.3266 -0.0152 -0.3505
  562MOL0     C75771   6.621  -1.361   8.535 -0.3459 -0.1245 -0.4456
  562MOL0     C75772   6.699  -1.482   8.577  0.4781  0.6676  0.0349
  562MOL0     C75773   6.816  -1.459   8.670  0.3114 -0.1580  0.0147
  562MOL0     C75774   6.932  -1.387   8.602 -1.4179  0.7939 -0.3028
  562MOL0     C75775   7.057  -1.383   8.694  0.5364  0.0262 -0.0758
  562MOL0     C75776   7.175  -1.342   8.611 -0.0131 -0.6690  0.3680
  562MOL0     C75777   7.306  -1.361   8.691  1.1124  0.1190  0.4095
  562MOL0     C75778   7.421  -1.291   8.618  0.4090 -0.8639  0.3152
  562MOL0    Cl75779   7.447  -1.350   8.456 -0.2910 -0.5537 -0.2908
  562MOL0     C75780   6.403  -1.188   8.425 -0.1191  0.1136 -0.2880
  562MOL0     C75781   6.283  -1.125   8.382  0.1827  0.2550 -0.1096
  562MOL0     O75782   6.133  -1.106   8.051  0.2775  0.3784 -0.2459
  562MOL0     C75783   5.884  -1.025   7.982  0.7772  0.2180 -0.3978
  562MOL0     C75784   5.742  -0.994   7.952 -1.5096 -0.0918  0.8355
  562MOL0     N75785   4.866  -0.854   8.145  0.0240  0.5488 -0.2383
  562MOL0     N75786   4.745  -0.895   8.149 -0.2177  0.5801 -0.2574
  562MOL0     C75787   4.237   0.206   8.075 -0.3919 -0.0698  1.5198
  562MOL0     C75788   4.182   0.318   8.129  0.0020 -0.3125 -0.1577
  562MOL0     C75789   4.121   0.698   8.392  0.6342  0.3177  0.8049
  562MOL0     C75790   3.998   0.640   8.410 -0.5008  0.0484 -0.4503
  562MOL0     C75791   3.899   0.709   8.488  0.2764  0.2071 -0.0896
  562MOL0     C75792   3.920   0.840   8.531  0.3141  0.1934  0.1558
  562MOL0     O75793   3.827   0.929   8.594 -1.0148 -0.2517  0.7014
  562MOL0     C75794   3.693   0.890   8.607 -0.5324  0.5012  0.9725
  562MOL0     C75795   3.599   1.013   8.597 -0.0167 -0.5478  1.7143
  562MOL0     C75796   3.641   1.151   8.660  0.5710  0.1772  0.1834
  562MOL0     C75797   3.528   1.256   8.615 -1.1822 -0.5114  0.4658
  562MOL0     C75798   3.573   1.400   8.633  0.3320  0.3901  0.5242
  562MOL0     C75799   3.618   1.512   8.653  0.1493  0.4681 -0.3568
  562MOL0     C75800   4.036   0.904   8.511 -0.6194  0.9972  0.6764
  562MOL0     C75801   4.140   0.834   8.449 -0.5091  0.2457 -0.1305
  562MOL0     C75802   4.274   0.902   8.419  0.0288 -0.8567 -0.5810
  562MOL0     H75803   4.433   0.431   8.321 -0.5127 -0.5195  0.4740
  562MOL0     H75804   4.531   0.233   8.236  0.6707  2.4426  1.7344
  562MOL0     H75805   4.277  -0.045   7.961  0.1086 -2.4970 -1.2744
  562MOL0     H75806   4.430  -0.033   7.876  0.7833 -0.7382  0.5676
  562MOL0     H75807   4.379  -0.159   8.141  2.2997  0.1342  2.1224
  562MOL0     H75808   4.542  -0.152   8.069 -0.6371  1.4039 -0.7330
  562MOL0     H75809   4.465  -0.281   7.876 -0.1086  2.4541  0.5509
  562MOL0     H75810   4.310  -0.315   7.964  0.0457  1.2850 -3.1594
  562MOL0     H75811   4.585  -0.399   8.069  0.4478  1.1776 -1.3071
  562MOL0     H75812   4.424  -0.446   8.131  0.3326  2.6626 -0.8397
  562MOL0     H75813   4.383  -0.543   7.890  0.3931 -0.4713 -2.8313
  562MOL0     H75814   4.538  -0.494   7.841  1.0117  0.6408 -0.3298
  562MOL0     H75815   4.658  -0.643   7.990  0.6274 -0.4270  0.6152
  562MOL0     H75816   4.522  -0.647   8.109  2.8127  1.8992  0.4364
  562MOL0     H75817   4.540  -0.774   7.828  0.9610 -0.1523  0.1040
  562MOL0     H75818   4.389  -0.767   7.922  0.7959  0.7517  2.9481
  562MOL0     H75819   4.493  -0.929   8.085 -0.9375 -3.2371 -1.0889
  562MOL0     H75820   4.541  -0.989   7.929 -1.0693 -2.2979  3.0922
  562MOL0     H75821   4.804  -0.903   7.827  0.5213 -2.8816  0.7794
  562MOL0     H75822   5.041  -0.970   7.891  0.0950 -2.1913  1.2803
  562MOL0     H75823   5.078  -0.800   7.887 -0.6083  2.0796  1.2778
  562MOL0     H75824   5.156  -0.823   8.134 -0.2767  0.7499 -0.2779
  562MOL0     H75825   5.111  -0.993   8.131  1.5922 -0.4855  1.6674
  562MOL0     H75826   5.312  -0.870   7.929 -0.3254 -1.5145 -1.5877
  562MOL0     H75827   5.267  -1.032   7.925  3.7000 -1.1541  0.1711
  562MOL0     H75828   5.383  -1.091   8.120 -0.8510 -1.3870 -2.0285
  562MOL0     H75829   5.418  -0.911   8.151  0.8981  0.8302 -1.0798
  562MOL0     H75830   5.585  -1.073   8.234 -0.0671 -0.0164 -1.0532
  562MOL0     H75831   5.796  -1.093   8.314 -1.1502 -0.9047 -0.6593
  562MOL0     H75832   6.146  -1.391   8.205  0.9038  0.4199 -2.2735
  562MOL0     H75833   6.342  -1.492   8.295  1.4414 -0.2695 -0.0864
  562MOL0     H75834   6.688  -1.278   8.514 -0.0529  0.2477  1.7218
  562MOL0     H75835   6.560  -1.327   8.620  0.9466 -0.1106  0.5062
  562MOL0     H75836   6.632  -1.550   8.631 -0.8750  1.7229 -0.2551
  562MOL0     H75837   6.735  -1.535   8.488  0.3582 -0.3008  0.5469
  562MOL0     H75838   6.776  -1.397   8.751  2.0795 -0.2285  0.9971
  562MOL0     H75839   6.833  -1.556   8.718  1.8216 -0.7875 -1.6780
  562MOL0     H75840   6.912  -1.281   8.585  2.1479  1.9846  1.8206
  562MOL0     H75841   6.960  -1.447   8.515 -1.8224 -0.9420  0.7189
  562MOL0     H75842   7.070  -1.487   8.724  0.0573  0.6630  2.6057
  562MOL0     H75843   7.028  -1.313   8.774 -1.5934 -0.2395 -0.5819
  562MOL0     H75844   7.168  -1.399   8.518  1.1043 -1.9364  1.0341
  562MOL0     H75845   7.170  -1.238   8.580  1.7474 -0.4612  0.6945
  562MOL0     H75846   7.314  -1.469   8.701  0.9011  0.1805  1.3638
  562MOL0     H75847   7.306  -1.311   8.788  0.6079  1.9102 -0.4557
  562MOL0     H75848   7.422  -1.182   8.629  3.0147 -0.8038  0.2324
  562MOL0     H75849   7.509  -1.319   8.676  1.1555  0.7307  0.0173
  562MOL0     H75850   6.471  -1.131   8.488 -0.0017  1.6109 -1.7040
  562MOL0     H75851   6.272  -1.022   8.416 -0.3344  0.4471 -0.8442
  562MOL0     H75852   5.966  -1.015   7.911 -0.6844  2.2189 -1.9446
  562MOL0     H75853   5.712  -0.952   7.856 -2.2934  0.5704  1.3497
  562MOL0     H75854   4.191   0.138   8.003 -0.5702  1.5180  0.0628
  562MOL0     H75855   4.078   0.345   8.114 -0.9818 -1.1982  3.8911
  562MOL0     H75856   3.968   0.546   8.366 -0.1105  0.5244 -1.8066
  562MOL0     H75857   3.803   0.662   8.505 -0.5483  1.4708 -1.1111
  562MOL0     H75858   3.664   0.835   8.697 -0.4748 -3.0843 -1.0085
  562MOL0     H75859   3.663   0.825   8.524  0.9676 -2.6007  2.7226
  562MOL0     H75860   3.512   0.975   8.652 -0.1611 -0.6297  1.4317
  562MOL0     H75861   3.573   1.044   8.495  0.2312 -0.9353  1.5334
  562MOL0     H75862   3.739   1.175   8.618  0.7449 -3.1201 -1.5679
  562MOL0     H75863   3.653   1.150   8.769 -2.2273  1.3769  0.6181
  562MOL0     H75864   3.516   1.254   8.507 -1.1309 -0.6536  0.4629
  562MOL0     H75865   3.429   1.244   8.658 -2.0259  0.1569 -1.1978
  562MOL0     H75866   3.648   1.615   8.658 -2.7311  1.4724 -1.8106
  562MOL0     H75867   4.061   1.007   8.535 -1.9592  1.5229 -0.0689
  562MOL0     H75868   4.264   1.008   8.442  1.6935 -0.7350 -0.2643
  562MOL0     H75869   4.357   0.847   8.465  0.2794 -1.6600 -1.9350
  562MOL0     H75870   4.298   0.898   8.312  1.2217  1.0814 -0.4251
  563MOL0     O75871   6.388   1.049   0.211 -0.1427 -0.9873 -1.1394
  563MOL0     C75872   6.410   1.084   0.095  0.4437 -0.3213  0.1688
  563MOL0     O75873   6.532   1.088   0.044  0.8818 -0.5745 -0.9404
  563MOL0     C75874   6.642   1.022   0.091 -0.7163 -0.9793 -0.7332
  563MOL0     C75875   6.648   0.910   0.179  0.1994 -0.4312  0.7328
  563MOL0     C75876   6.771   0.860   0.225 -0.3381 -0.2290  0.7983
  563MOL0     C75877   6.894   0.915   0.185 -0.7773  0.0869  0.3773
  563MOL0     O75878   7.015   0.872   0.237  0.4799  0.4551  0.7173
  563MOL0     C75879   7.027   0.833   0.373 -0.0581 -0.3239  0.8289
  563MOL0     C75880   7.167   0.832   0.416 -0.0046 -0.8866 -0.0918
  563MOL0     C75881   7.272   0.731   0.348  0.0260 -0.1324  0.3030
  563MOL0     C75882   7.388   0.704   0.447 -0.4882 -0.0914 -0.5325
  563MOL0     C75883   7.506   0.614   0.384 -0.2355  0.6313  1.0760
  563MOL0     C75884   7.574   0.710   0.286 -0.5174 -0.1290 -0.9072
  563MOL0     C75885   7.670   0.644   0.179 -0.7537  0.3308  0.9209
  563MOL0     C75886   7.764   0.539   0.232 -0.0023  0.5260  0.3639
  563MOL0     N75887   7.853   0.496   0.128  0.1652  0.0177 -0.1597
  563MOL0     C75888   7.815   0.425   0.021  0.0341 -0.0012 -0.4394
  563MOL0     C75889   7.921   0.418  -0.064  0.4021  0.3859  0.2050
  563MOL0     C75890   7.936   0.349  -0.199  0.4008 -0.1146  0.5063
  563MOL0     C75891   7.910   0.438  -0.328 -0.7438  0.1798  0.4194
  563MOL0     C75892   7.877   0.361  -0.451 -0.3084 -0.1425  0.3054
  563MOL0     C75893   7.899   0.433  -0.591 -0.3087 -0.0814 -1.0053
  563MOL0     O75894   7.834   0.563  -0.600 -0.1363  0.1775 -0.1348
  563MOL0     C75895   7.912   0.657  -0.669  0.2861  0.3163 -0.4463
  563MOL0     C75896   8.025   0.722  -0.608 -0.0111  0.0829 -0.8186
  563MOL0     C75897   8.104   0.813  -0.679 -0.0435 -0.4948  0.6462
  563MOL0     C75898   8.080   0.823  -0.825 -0.0103 -0.0731  0.6591
  563MOL0     C75899   8.166   0.919  -0.904  0.4305 -0.0991  1.1641
  563MOL0     O75900   8.279   0.964  -0.838 -0.1510 -0.0709  0.3590
  563MOL0     C75901   8.363   1.056  -0.904 -0.2364  0.4093 -0.2530
  563MOL0     C75902   8.316   1.185  -0.948 -0.5790  0.1761 -0.1689
  563MOL0     C75903   8.396   1.267  -1.034  0.9366 -0.9265 -0.3979
  563MOL0     C75904   8.520   1.221  -1.067 -0.0964  0.2962 -0.1791
  563MOL0     O75905   8.612   1.294  -1.125 -0.0198  0.4217 -0.2578
  563MOL0     C75906   8.683   1.391  -1.046 -0.2360 -1.3127 -0.4731
  563MOL0     C75907   8.828   1.403  -1.096  0.2238 -0.8249 -0.0152
  563MOL0     C75908   8.893   1.262  -1.132  0.3104 -0.9942 -0.8411
  563MOL0     C75909   8.937   1.197  -1.000 -1.3579 -0.1421  0.4197
  563MOL0     C75910   9.044   1.088  -1.001 -0.9770 -0.4516  0.5098
  563MOL0     C75911   9.185   1.143  -1.047  0.1141 -0.3007 -0.0762
  563MOL0     C75912   9.296   1.047  -0.998  1.3667  0.1599  0.1691
  563MOL0     C75913   9.429   1.083  -1.049 -0.8756  1.2241  0.1490
  563MOL0    Cl75914   9.492   1.246  -1.012  0.1553 -0.2633  0.0618
  563MOL0     C75915   8.566   1.091  -1.030  1.1726 -0.2964 -0.0093
  563MOL0     C75916   8.488   1.006  -0.957 -0.6849 -0.3437  0.5621
  563MOL0     O75917   8.115   0.961  -1.010 -0.2239 -0.1949  0.3740
  563MOL0     C75918   7.969   0.754  -0.888  0.6056 -1.3260 -0.2689
  563MOL0     C75919   7.885   0.680  -0.808 -0.3576  0.7278  0.6717
  563MOL0     N75920   8.023   0.492  -0.011 -0.6755 -0.3368 -0.6950
  563MOL0     N75921   7.983   0.538   0.101 -0.2992 -0.5649  0.5190
  563MOL0     C75922   6.884   1.019   0.089  0.2694  0.3719  0.3022
  563MOL0     C75923   6.761   1.083   0.052  0.7243 -0.0568  0.5013
  563MOL0     C75924   6.290   1.126   0.013 -0.3946  0.8112 -0.1662
  563MOL0     C75925   6.166   1.121   0.069 -0.1664  0.0951 -0.0001
  563MOL0     C75926   6.047   1.157  -0.002 -0.0341  0.4139  0.6113
  563MOL0     C75927   6.050   1.179  -0.140 -0.3089  0.4891 -1.2489
  563MOL0     O75928   5.940   1.183  -0.217 -0.6668  0.7600  0.0040
  563MOL0     C75929   5.821   1.112  -0.185 -0.1998  0.0942 -0.3914
  563MOL0     C75930   5.707   1.159  -0.277 -0.1630 -0.2489 -0.0864
  563MOL0     C75931   5.686   1.314  -0.270 -0.2517  0.1129 -0.3837
  563MOL0     C75932   5.574   1.352  -0.372  0.4220 -0.7456 -0.0527
  563MOL0     C75933   5.544   1.498  -0.369  0.6912  0.2371  0.0686
  563MOL0     C75934   5.511   1.619  -0.358  0.4721 -0.0976 -0.0102
  563MOL0     C75935   6.177   1.187  -0.205  0.4363  0.5902  0.0807
  563MOL0     C75936   6.296   1.157  -0.130  0.7079  0.2130 -0.2558
  563MOL0     C75937   6.425   1.153  -0.208 -1.0428 -0.3049  0.4575
  563MOL0     H75938   6.549   0.875   0.208  0.1656 -0.2015  0.8952
  563MOL0     H75939   6.765   0.781   0.299 -1.9446 -1.1759 -0.2839
  563MOL0     H75940   6.976   0.905   0.437 -1.2423  1.1333 -1.6025
  563MOL0     H75941   6.993   0.730   0.387 -1.3604 -0.4244 -2.2939
  563MOL0     H75942   7.164   0.798   0.520 -1.5916 -0.2122  0.1196
  563MOL0     H75943   7.203   0.935   0.409 -1.0444 -0.6132 -3.6753
  563MOL0     H75944   7.299   0.766   0.247 -0.9595 -1.2960 -0.3871
  563MOL0     H75945   7.226   0.636   0.321 -0.8499  0.6327 -1.0489
  563MOL0     H75946   7.435   0.798   0.475  3.5924 -1.6240 -1.5393
  563MOL0     H75947   7.354   0.646   0.533  0.4895  1.6176  1.0762
  563MOL0     H75948   7.582   0.591   0.459  0.0331 -1.3010  0.2741
  563MOL0     H75949   7.472   0.528   0.326 -0.9428  1.8773 -0.4669
  563MOL0     H75950   7.512   0.782   0.232  0.9224  1.6255 -0.3285
  563MOL0     H75951   7.646   0.766   0.347  2.1614 -2.4365 -1.7367
  563MOL0     H75952   7.724   0.726   0.130 -1.7400  1.8999  2.3624
  563MOL0     H75953   7.602   0.596   0.108 -0.5258  2.6549 -1.0203
  563MOL0     H75954   7.826   0.584   0.311  0.5952 -1.6106  1.1889
  563MOL0     H75955   7.703   0.458   0.273  0.8156  0.6083  1.8158
  563MOL0     H75956   7.712   0.397   0.001 -1.0002  2.0736  1.6340
  563MOL0     H75957   8.035   0.302  -0.204  1.8868  2.8815 -0.6650
  563MOL0     H75958   7.858   0.274  -0.214 -0.5895  0.7162  1.3337
  563MOL0     H75959   7.830   0.510  -0.310 -2.3266 -1.7549  1.6267
  563MOL0     H75960   8.007   0.486  -0.341 -0.7388  0.4336  1.3375
  563MOL0     H75961   7.771   0.336  -0.442  0.5765 -3.9730  2.4907
  563MOL0     H75962   7.930   0.265  -0.452 -5.4416 -3.3700  0.1610
  563MOL0     H75963   7.853   0.374  -0.671  0.3602  0.1806 -1.5974
  563MOL0     H75964   8.005   0.459  -0.598 -0.7207  1.2899 -2.8034
  563MOL0     H75965   8.034   0.709  -0.501 -1.9312  1.6907 -0.3978
  563MOL0     H75966   8.178   0.856  -0.613 -0.4927  0.7427  0.3672
  563MOL0     H75967   8.219   1.225  -0.920  0.3563  2.5517 -0.1097
  563MOL0     H75968   8.361   1.365  -1.063 -1.1626 -1.3514  0.5041
  563MOL0     H75969   8.640   1.491  -1.054  1.6348 -0.3009  1.1090
  563MOL0     H75970   8.680   1.358  -0.941 -0.2536  0.1836  0.0149
  563MOL0     H75971   8.838   1.464  -1.186  0.4361 -2.0902 -0.8807
  563MOL0     H75972   8.887   1.459  -1.023  0.4986 -0.1298 -0.7490
  563MOL0     H75973   8.821   1.200  -1.185 -3.1039 -0.4493  2.7538
  563MOL0     H75974   8.985   1.276  -1.190 -0.8171  0.9242 -2.3028
  563MOL0     H75975   8.851   1.166  -0.940  0.2044 -1.5196  2.0967
  563MOL0     H75976   8.980   1.282  -0.946 -0.0669 -1.1492  1.0443
  563MOL0     H75977   9.011   1.006  -1.065  1.7488 -0.3255 -1.2147
  563MOL0     H75978   9.046   1.054  -0.896 -1.1092  0.3246  0.7665
  563MOL0     H75979   9.185   1.159  -1.155  0.2094  2.6055  0.2828
  563MOL0     H75980   9.194   1.246  -1.011 -1.4918  0.3688 -1.4658
  563MOL0     H75981   9.265   0.945  -1.024  2.9769 -0.3401  0.1417
  563MOL0     H75982   9.305   1.039  -0.889  0.1952  2.5244  0.5091
  563MOL0     H75983   9.508   1.010  -1.032 -0.4624  1.6873  0.2254
  563MOL0     H75984   9.429   1.074  -1.158 -0.7557 -1.7499  0.3131
  563MOL0     H75985   8.664   1.063  -1.067  1.6064  0.7314  0.3297
  563MOL0     H75986   8.521   0.907  -0.927 -0.5950 -0.0143  1.5940
  563MOL0     H75987   7.950   0.754  -0.994 -0.7106  0.8663 -0.1069
  563MOL0     H75988   7.795   0.634  -0.848  0.1778 -0.8581  1.1827
  563MOL0     H75989   6.974   1.069   0.054 -0.1314  0.2562 -0.9667
  563MOL0     H75990   6.750   1.161  -0.022  2.9490  0.5745  0.7623
  563MOL0     H75991   6.165   1.103   0.176  1.0846  1.7358  0.3273
  563MOL0     H75992   5.958   1.159   0.060 -0.4968  0.2509 -0.0408
  563MOL0     H75993   5.795   1.138  -0.082  1.5250 -1.8940  0.6286
  563MOL0     H75994   5.829   1.003  -0.189 -2.1908 -0.0749 -0.8582
  563MOL0     H75995   5.616   1.101  -0.261 -1.2999  1.6418  0.6046
  563MOL0     H75996   5.743   1.145  -0.380  0.5705  0.0689  0.1219
  563MOL0     H75997   5.779   1.368  -0.292 -0.8171  0.5830 -1.7291
  563MOL0     H75998   5.649   1.342  -0.171  1.9154  3.4211 -0.3332
  563MOL0     H75999   5.600   1.335  -0.476 -3.3233 -0.2283 -1.2051
  563MOL0     H76000   5.482   1.299  -0.348  1.4978 -2.8661 -0.3438
  563MOL0     H76001   5.465   1.709  -0.322 -2.1437 -1.3394 -0.0422
  563MOL0     H76002   6.179   1.202  -0.312  0.7373 -0.2556 -0.0373
  563MOL0     H76003   6.468   1.055  -0.187 -0.3568  0.0136  0.5836
  563MOL0     H76004   6.416   1.168  -0.316 -1.4457  1.9638  0.7579
  563MOL0     H76005   6.504   1.222  -0.177  0.9866 -1.8755 -0.9532
  564MOL0     O76006   3.705   5.881   4.257  0.1810 -0.0999 -0.5098
  564MOL0     C76007   3.644   5.988   4.268 -1.0286  0.5636  0.2273
  564MOL0     O76008   3.659   6.076   4.374  0.0467 -0.2711 -0.3251
  564MOL0     C76009   3.737   6.053   4.484  0.3808 -1.1523 -0.1572
  564MOL0     C76010   3.697   5.946   4.563  0.2722 -0.0877  0.2367
  564MOL0     C76011   3.785   5.909   4.671  0.7758  0.2943  0.6886
  564MOL0     C76012   3.916   5.960   4.680 -0.5627 -0.0713 -0.0137
  564MOL0     O76013   4.004   5.897   4.772  0.0253 -0.1520  0.2813
  564MOL0     C76014   4.143   5.929   4.753 -0.1592 -0.0398 -0.2018
  564MOL0     C76015   4.222   5.808   4.804 -0.0016 -0.3955 -0.2937
  564MOL0     C76016   4.233   5.832   4.953  0.5008 -1.4476 -0.3320
  564MOL0     C76017   4.307   5.710   5.019 -1.0340  0.0590  0.0159
  564MOL0     C76018   4.340   5.748   5.165 -0.5193 -0.4989  0.1672
  564MOL0     C76019   4.419   5.639   5.248 -0.8096  0.1241  0.8050
  564MOL0     C76020   4.566   5.631   5.199  0.3306  0.1886  0.6110
  564MOL0     C76021   4.651   5.556   5.298  0.0521  0.3061  0.6236
  564MOL0     N76022   4.795   5.576   5.255 -0.2557 -0.6236  0.6077
  564MOL0     C76023   4.876   5.660   5.321 -0.4899 -0.0515 -0.7314
  564MOL0     C76024   4.989   5.664   5.249 -0.7011 -0.2970  0.3977
  564MOL0     C76025   5.119   5.748   5.261  0.2625  0.4890  0.0991
  564MOL0     C76026   5.109   5.865   5.169 -0.1660 -0.1019  0.3970
  564MOL0     C76027   5.247   5.936   5.173  0.1257 -0.3222  0.5522
  564MOL0     C76028   5.244   6.058   5.080 -0.3398 -0.2653  0.6017
  564MOL0     O76029   5.321   6.165   5.142  0.4666 -0.2972 -0.0146
  564MOL0     C76030   5.459   6.170   5.137 -0.0609 -0.4987 -0.5531
  564MOL0     C76031   5.539   6.067   5.086 -1.1183 -0.6928  0.5375
  564MOL0     C76032   5.684   6.078   5.088  0.0378 -0.6743 -0.6184
  564MOL0     C76033   5.747   6.198   5.136  0.5749  0.4973  0.0523
  564MOL0     C76034   5.891   6.214   5.146  0.1360 -0.3018  0.4139
  564MOL0     O76035   5.948   6.342   5.150 -0.0373  0.2076  0.0615
  564MOL0     C76036   6.086   6.343   5.186 -0.3777 -1.7654 -0.6681
  564MOL0     C76037   6.124   6.292   5.316 -0.4940 -0.0749  0.0772
  564MOL0     C76038   6.257   6.304   5.356  0.3226  0.7441  0.1576
  564MOL0     C76039   6.350   6.363   5.281  0.3504  0.1568  0.0334
  564MOL0     O76040   6.478   6.364   5.315  0.2776 -0.6963  1.4605
  564MOL0     C76041   6.517   6.345   5.445  0.1356 -0.7384 -1.1872
  564MOL0     C76042   6.659   6.401   5.457 -0.1955 -0.0440  0.5462
  564MOL0     C76043   6.759   6.336   5.354  0.7486 -0.1593 -0.1814
  564MOL0     C76044   6.892   6.400   5.380 -0.2199  0.4309  0.5734
  564MOL0     C76045   6.987   6.390   5.257 -0.2651  0.4836  0.0745
  564MOL0     C76046   7.133   6.406   5.299 -0.2406  0.0227 -0.3625
  564MOL0     C76047   7.212   6.434   5.175 -0.2393 -0.0055 -0.1103
  564MOL0     C76048   7.367   6.444   5.208  0.4364 -0.2694  0.3357
  564MOL0    Cl76049   7.407   6.599   5.286  0.0056 -0.1027  0.3909
  564MOL0     C76050   6.315   6.418   5.155  0.4791 -0.9182 -0.5556
  564MOL0     C76051   6.183   6.413   5.108  0.3171 -0.9751 -0.9055
  564MOL0     O76052   5.959   6.111   5.128 -0.8952 -0.3841 -0.3398
  564MOL0     C76053   5.659   6.300   5.166  0.1565 -0.5853  0.1411
  564MOL0     C76054   5.514   6.290   5.167 -0.8236 -0.1615  0.0906
  564MOL0     N76055   4.965   5.582   5.139 -0.4386  0.3692 -0.4644
  564MOL0     N76056   4.848   5.527   5.143 -0.1523 -0.1090  0.2993
  564MOL0     C76057   3.945   6.071   4.598  0.6224  0.1923 -0.7088
  564MOL0     C76058   3.853   6.122   4.510  0.5819 -0.1807 -0.0208
  564MOL0     C76059   3.563   6.039   4.152 -0.1004  0.2813 -0.1925
  564MOL0     C76060   3.494   6.157   4.177  0.7034 -0.1755 -0.1152
  564MOL0     C76061   3.393   6.198   4.090 -0.3523 -0.8248  0.3978
  564MOL0     C76062   3.371   6.123   3.971 -0.3786 -0.2442  0.1852
  564MOL0     O76063   3.274   6.149   3.879 -0.0813  0.2365  0.6705
  564MOL0     C76064   3.243   6.283   3.850 -0.2015 -0.0850 -0.3712
  564MOL0     C76065   3.096   6.312   3.906  0.7580 -0.4213 -0.1743
  564MOL0     C76066   2.995   6.227   3.830  0.6738  0.1888  0.5946
  564MOL0     C76067   2.848   6.273   3.856 -0.4107 -0.6719  0.4587
  564MOL0     C76068   2.826   6.302   3.998  0.2477 -0.0296  0.6047
  564MOL0     C76069   2.825   6.321   4.118 -0.4964  0.0797 -0.6691
  564MOL0     C76070   3.462   6.022   3.939  0.2951  0.3618  0.0777
  564MOL0     C76071   3.552   5.975   4.025 -0.2593  0.0779 -0.4580
  564MOL0     C76072   3.629   5.851   3.989 -0.4132  0.4929  0.2755
  564MOL0     H76073   3.600   5.900   4.547  0.6522 -0.7162 -0.2886
  564MOL0     H76074   3.755   5.836   4.746 -0.7955  1.5929  1.3908
  564MOL0     H76075   4.164   5.949   4.648 -0.0981 -0.4765 -0.2717
  564MOL0     H76076   4.177   6.022   4.800 -0.2468  0.3529 -0.9079
  564MOL0     H76077   4.322   5.820   4.760 -0.5108  0.2435 -1.3087
  564MOL0     H76078   4.181   5.712   4.773 -2.4633  0.2347  0.8335
  564MOL0     H76079   4.131   5.845   4.990 -0.7165 -0.4162 -3.7251
  564MOL0     H76080   4.282   5.929   4.967 -0.2098 -1.2038  0.5230
  564MOL0     H76081   4.238   5.625   5.013  0.0812 -1.1015  2.2640
  564MOL0     H76082   4.405   5.692   4.975 -0.9915 -0.2894  0.2460
  564MOL0     H76083   4.383   5.848   5.173 -0.4016 -0.6152  1.1952
  564MOL0     H76084   4.246   5.752   5.221 -0.5261  3.1397  0.1087
  564MOL0     H76085   4.412   5.670   5.353 -0.8495  2.7761  0.0745
  564MOL0     H76086   4.374   5.540   5.237 -1.3651  0.2372  1.9254
  564MOL0     H76087   4.597   5.733   5.174 -0.5287  0.1058 -0.9287
  564MOL0     H76088   4.566   5.581   5.101 -1.9216  0.2658  0.5331
  564MOL0     H76089   4.632   5.576   5.403 -2.0598 -1.0636  0.5722
  564MOL0     H76090   4.638   5.447   5.293 -1.6259  0.5204 -2.5317
  564MOL0     H76091   4.837   5.703   5.413 -1.2457 -0.6213 -0.7684
  564MOL0     H76092   5.134   5.783   5.363  0.5497 -1.8122  0.9083
  564MOL0     H76093   5.198   5.678   5.229 -0.2728 -0.6573  1.2276
  564MOL0     H76094   5.088   5.831   5.067 -0.3237 -0.8621  0.6781
  564MOL0     H76095   5.029   5.925   5.214  0.9974  2.8053 -1.1602
  564MOL0     H76096   5.325   5.866   5.141  1.3430  0.1321  2.3227
  564MOL0     H76097   5.267   5.978   5.272 -2.8230  1.1635  0.6133
  564MOL0     H76098   5.144   6.100   5.064 -0.1170 -0.0991 -0.4310
  564MOL0     H76099   5.277   6.022   4.983  0.4112  0.0753  0.7256
  564MOL0     H76100   5.493   5.980   5.040 -4.4875  2.2426 -2.1696
  564MOL0     H76101   5.739   5.991   5.054 -0.9072 -0.7977 -1.8931
  564MOL0     H76102   6.065   6.224   5.376 -0.3465  0.3888  0.7528
  564MOL0     H76103   6.270   6.251   5.450 -2.6992  1.0569  0.8671
  564MOL0     H76104   6.463   6.406   5.518  1.9226  0.2538 -0.6254
  564MOL0     H76105   6.510   6.239   5.474 -1.7973  0.1207  2.0388
  564MOL0     H76106   6.652   6.509   5.439  0.4173 -0.3326 -1.8475
  564MOL0     H76107   6.698   6.378   5.556  0.3416  2.3304  0.9522
  564MOL0     H76108   6.766   6.230   5.381 -2.4549  0.2183  2.9265
  564MOL0     H76109   6.721   6.346   5.252  2.5029  0.2833 -0.8115
  564MOL0     H76110   6.936   6.367   5.474 -1.5330 -0.2287  0.9771
  564MOL0     H76111   6.887   6.502   5.420  0.2892  1.4852 -1.8448
  564MOL0     H76112   6.954   6.470   5.191  2.2212 -0.1831 -2.1377
  564MOL0     H76113   6.977   6.295   5.204 -1.1663 -0.3522  1.6507
  564MOL0     H76114   7.135   6.499   5.358 -3.6859 -0.3008  0.4831
  564MOL0     H76115   7.162   6.318   5.355 -1.1961 -0.8205 -1.1386
  564MOL0     H76116   7.193   6.526   5.119  0.5495  0.5511  0.5164
  564MOL0     H76117   7.191   6.346   5.113 -1.1806  0.7242 -0.8590
  564MOL0     H76118   7.406   6.353   5.254 -1.3382  0.0642  2.6761
  564MOL0     H76119   7.428   6.447   5.117 -2.3657 -0.0726 -1.6713
  564MOL0     H76120   6.385   6.478   5.098 -1.4390  0.7638 -1.2406
  564MOL0     H76121   6.160   6.475   5.022  0.9628  2.0335  0.9445
  564MOL0     H76122   5.707   6.390   5.203  2.3832 -2.0299  0.9141
  564MOL0     H76123   5.459   6.376   5.204 -1.4741  0.6974 -2.6411
  564MOL0     H76124   4.039   6.124   4.606 -0.8840  2.9795  0.0349
  564MOL0     H76125   3.883   6.205   4.447  1.1554 -1.0978 -0.9883
  564MOL0     H76126   3.510   6.225   4.260 -3.2235  0.4623  0.3484
  564MOL0     H76127   3.330   6.281   4.119  1.6590  1.7322 -2.0038
  564MOL0     H76128   3.247   6.290   3.741  1.6804  0.2944 -0.3099
  564MOL0     H76129   3.310   6.353   3.901 -1.7950  1.0137  0.3021
  564MOL0     H76130   3.068   6.417   3.899 -0.1188 -0.5440  1.1168
  564MOL0     H76131   3.104   6.276   4.009  1.7808 -1.7913 -0.6997
  564MOL0     H76132   3.017   6.125   3.865  0.2413  0.1589  0.7916
  564MOL0     H76133   3.013   6.235   3.723 -0.9878  1.1019  0.3587
  564MOL0     H76134   2.832   6.359   3.791  2.4157 -1.3438 -1.2800
  564MOL0     H76135   2.770   6.201   3.830 -0.4473  0.0999 -1.7751
  564MOL0     H76136   2.839   6.345   4.222 -1.2848  0.0289 -0.5425
  564MOL0     H76137   3.459   5.974   3.842  2.0208  1.9224 -0.8191
  564MOL0     H76138   3.616   5.769   4.060 -1.5021 -1.1306 -1.7036
  564MOL0     H76139   3.632   5.826   3.883  0.8016  3.1653 -0.4304
  564MOL0     H76140   3.734   5.878   4.006  0.4044 -0.8215 -2.2953
  565MOL0     O76141   7.676   9.457   0.640 -0.2507 -0.1363 -0.0841
  565MOL0     C76142   7.684   9.420   0.756 -0.6487  1.0682  0.1581
  565MOL0     O76143   7.791   9.413   0.837 -0.0791 -0.4679 -0.1742
  565MOL0     C76144   7.922   9.396   0.789  0.4094  0.7655 -0.4984
  565MOL0     C76145   7.963   9.383   0.651  0.1758 -0.3412 -0.8592
  565MOL0     C76146   8.099   9.358   0.622  0.7509  0.7078 -1.5245
  565MOL0     C76147   8.197   9.360   0.723  0.1377 -1.0620 -0.1481
  565MOL0     O76148   8.328   9.357   0.671  0.2923  0.0466 -0.0180
  565MOL0     C76149   8.434   9.346   0.773  0.1326  0.4650 -0.4547
  565MOL0     C76150   8.552   9.266   0.723  0.3576  0.9436  0.6559
  565MOL0     C76151   8.692   9.331   0.749 -0.2434 -0.0950  0.5475
  565MOL0     C76152   8.711   9.373   0.906  0.2753 -0.5395  0.3821
  565MOL0     C76153   8.684   9.244   1.002 -0.7804 -0.5903  0.2232
  565MOL0     C76154   8.689   9.274   1.151  0.2476  0.1457  0.4705
  565MOL0     C76155   8.562   9.362   1.191  0.8945  0.8187  0.0314
  565MOL0     C76156   8.570   9.405   1.335  0.4957 -0.0153  0.8632
  565MOL0     N76157   8.690   9.488   1.367 -0.0458  0.3263 -0.3988
  565MOL0     C76158   8.732   9.598   1.297  1.1349  0.4172 -0.7876
  565MOL0     C76159   8.863   9.607   1.315  0.1903 -0.5975  0.0430
  565MOL0     C76160   8.953   9.698   1.246 -0.0086 -0.1556 -0.2883
  565MOL0     C76161   9.045   9.634   1.142 -0.3029  0.5109 -0.6742
  565MOL0     C76162   9.143   9.729   1.078  0.8935  1.1156  0.4080
  565MOL0     C76163   9.265   9.765   1.162  0.0218  0.8607  0.2064
  565MOL0     O76164   9.339   9.849   1.074 -0.4112  0.1141 -0.2001
  565MOL0     C76165   9.448   9.915   1.115  0.4380  0.0394 -0.5426
  565MOL0     C76166   9.523   9.871   1.216 -0.0753  0.9277  0.2722
  565MOL0     C76167   9.641   9.946   1.245 -0.8476 -0.4574  0.0968
  565MOL0     C76168   9.682  10.064   1.176  0.2480 -0.1597 -0.7804
  565MOL0     C76169   9.805  10.136   1.213 -0.5908  0.3680 -1.2201
  565MOL0     O76170   9.897  10.073   1.301  0.5936  0.1468 -0.7782
  565MOL0     C76171  10.001  10.155   1.347  0.5333  0.3948  0.1467
  565MOL0     C76172  10.129  10.135   1.297 -0.4358  0.2286 -1.1001
  565MOL0     C76173  10.223  10.214   1.341 -0.1189  0.0650 -0.9455
  565MOL0     C76174  10.202  10.311   1.437  0.6432 -0.0428 -0.2623
  565MOL0     O76175  10.302  10.391   1.464 -0.0749  0.1209  0.0085
  565MOL0     C76176  10.313  10.427   1.605  0.2186 -0.2361 -0.2636
  565MOL0     C76177  10.453  10.488   1.636  0.2940 -0.5324 -0.5824
  565MOL0     C76178  10.455  10.643   1.604 -1.0766 -0.3335 -0.1936
  565MOL0     C76179  10.566  10.720   1.680  0.2096  0.6231  0.2279
  565MOL0     C76180  10.708  10.653   1.669  1.6799 -0.0377 -0.0115
  565MOL0     C76181  10.754  10.659   1.524 -0.5495 -0.5830  0.5481
  565MOL0     C76182  10.865  10.562   1.497 -0.5994 -0.0250 -0.1716
  565MOL0     C76183  10.915  10.567   1.351  0.2531  0.0169  0.9447
  565MOL0    Cl76184  10.762  10.505   1.252 -0.1612  0.0262  0.1435
  565MOL0     C76185  10.077  10.335   1.489 -0.3468 -0.7180 -0.4602
  565MOL0     C76186   9.973  10.254   1.445  0.3160 -0.0513 -0.9595
  565MOL0     O76187   9.823  10.249   1.179  0.5786 -0.7839 -0.0899
  565MOL0     C76188   9.603  10.104   1.067 -0.4115  0.2190 -0.4294
  565MOL0     C76189   9.482  10.032   1.044  1.0069 -0.4747  0.0598
  565MOL0     N76190   8.903   9.514   1.411  0.6672  0.2401  0.5789
  565MOL0     N76191   8.800   9.446   1.438 -0.3413 -0.1757 -0.0246
  565MOL0     C76192   8.158   9.394   0.855 -0.2615 -0.0908  0.6245
  565MOL0     C76193   8.023   9.406   0.887  0.2296  0.4771  0.0066
  565MOL0     C76194   7.569   9.364   0.820 -0.0978  0.1170  0.8410
  565MOL0     C76195   7.532   9.419   0.941 -0.9027 -0.1245  0.8817
  565MOL0     C76196   7.425   9.368   1.021 -0.5195  0.2186  0.1623
  565MOL0     C76197   7.355   9.252   0.979 -0.3144  0.2988  0.4705
  565MOL0     O76198   7.271   9.196   1.073  0.3427 -0.5887  0.2885
  565MOL0     C76199   7.202   9.078   1.055 -0.6963  0.4862  0.2826
  565MOL0     C76200   7.076   9.098   0.954  0.0874  0.0286  0.6330
  565MOL0     C76201   6.970   8.991   0.962  0.3480 -0.1740 -0.6464
  565MOL0     C76202   6.881   9.002   1.087 -0.0243  0.6834  0.0401
  565MOL0     C76203   6.770   8.907   1.067 -0.1361 -0.5746  0.0274
  565MOL0     C76204   6.662   8.842   1.062 -0.7469 -0.5614 -0.3635
  565MOL0     C76205   7.381   9.214   0.845  0.5378  1.0097  0.4399
  565MOL0     C76206   7.490   9.261   0.769 -0.1502 -0.3076 -0.8486
  565MOL0     C76207   7.523   9.204   0.633  0.1789 -0.0226  0.2264
  565MOL0     H76208   7.891   9.381   0.570  0.7811  0.8497 -1.4547
  565MOL0     H76209   8.126   9.330   0.520  2.3640 -4.6958  0.0701
  565MOL0     H76210   8.464   9.445   0.808  4.3760 -0.4343 -1.0186
  565MOL0     H76211   8.409   9.295   0.866  2.1708  0.3767  0.0886
  565MOL0     H76212   8.543   9.268   0.614  1.3465  1.5011  0.5843
  565MOL0     H76213   8.548   9.159   0.747 -2.6657  0.8496  0.1135
  565MOL0     H76214   8.691   9.417   0.681 -2.4157 -1.5337 -1.3923
  565MOL0     H76215   8.775   9.265   0.723 -0.6043  0.2454 -1.6372
  565MOL0     H76216   8.812   9.413   0.922  0.2625 -0.0458 -0.6814
  565MOL0     H76217   8.649   9.458   0.935  1.4014  1.2468 -2.0020
  565MOL0     H76218   8.589   9.194   0.981 -0.6740 -1.5436  1.8614
  565MOL0     H76219   8.761   9.168   0.985  0.9605  1.4780 -1.7855
  565MOL0     H76220   8.697   9.184   1.213  2.5191  0.1692  0.2731
  565MOL0     H76221   8.776   9.334   1.179 -0.2693  1.0599  0.1699
  565MOL0     H76222   8.472   9.300   1.196  1.6610 -0.2074  2.5527
  565MOL0     H76223   8.539   9.448   1.127 -2.0369 -0.1738 -0.4104
  565MOL0     H76224   8.481   9.467   1.353  1.3482  0.6284  3.3416
  565MOL0     H76225   8.572   9.316   1.399  1.0084 -3.0045 -2.9491
  565MOL0     H76226   8.670   9.660   1.233 -2.7325 -2.8899 -0.7391
  565MOL0     H76227   8.893   9.784   1.217  0.3259  0.5662  1.0660
  565MOL0     H76228   9.023   9.741   1.318 -0.4871  0.2953 -0.0891
  565MOL0     H76229   9.104   9.553   1.185 -0.2970 -0.0832 -1.7502
  565MOL0     H76230   8.990   9.588   1.059 -0.3956 -1.9270  0.6601
  565MOL0     H76231   9.090   9.820   1.048 -2.5090 -0.4687  1.1798
  565MOL0     H76232   9.168   9.690   0.979 -1.6979  2.0136 -0.6821
  565MOL0     H76233   9.314   9.671   1.189 -3.1687 -0.9258  0.1801
  565MOL0     H76234   9.232   9.827   1.245  0.9655  1.3275  0.2431
  565MOL0     H76235   9.511   9.775   1.264  0.8576 -0.2836 -1.7793
  565MOL0     H76236   9.703   9.910   1.327 -1.1967  0.6116  0.8440
  565MOL0     H76237  10.160  10.042   1.249  0.0917 -2.6938  4.1447
  565MOL0     H76238  10.328  10.204   1.316  0.1512 -0.1550  0.2261
  565MOL0     H76239  10.243  10.509   1.623  3.4137  2.5588  0.4559
  565MOL0     H76240  10.293  10.351   1.681 -0.9491  0.4616  0.1489
  565MOL0     H76241  10.478  10.480   1.743 -2.1133  3.7564  0.5611
  565MOL0     H76242  10.534  10.442   1.579  0.0862  0.3197 -1.6032
  565MOL0     H76243  10.463  10.647   1.495 -1.4109 -2.8159 -0.3696
  565MOL0     H76244  10.358  10.684   1.635 -1.3489  0.8950 -2.4396
  565MOL0     H76245  10.549  10.713   1.788  1.4972 -0.5469  0.3891
  565MOL0     H76246  10.570  10.823   1.645  5.3529  0.6910  0.2044
  565MOL0     H76247  10.691  10.552   1.708  0.8668  0.7618  1.8238
  565MOL0     H76248  10.776  10.716   1.727 -0.7833  2.3151  0.4902
  565MOL0     H76249  10.675  10.620   1.459 -0.1753 -3.7378  1.7852
  565MOL0     H76250  10.770  10.765   1.505 -0.5683 -0.8317 -1.0231
  565MOL0     H76251  10.827  10.464   1.525 -0.3889 -0.5646 -1.6881
  565MOL0     H76252  10.952  10.583   1.561 -0.1358 -0.4778 -0.6456
  565MOL0     H76253  10.938  10.672   1.335 -0.2120  0.4188  2.7483
  565MOL0     H76254  11.000  10.501   1.332 -0.0851 -0.0366 -0.4972
  565MOL0     H76255  10.055  10.418   1.555  0.5419 -1.4211  0.7571
  565MOL0     H76256   9.878  10.261   1.498  0.9868 -1.6574  0.5485
  565MOL0     H76257   9.626  10.195   1.012 -3.6254 -0.7762 -3.8574
  565MOL0     H76258   9.422  10.065   0.959  2.0893 -0.6023 -0.7721
  565MOL0     H76259   8.230   9.403   0.936  0.2100 -1.2605  0.3566
  565MOL0     H76260   7.996   9.424   0.991  0.6721 -1.4104  0.4867
  565MOL0     H76261   7.589   9.510   0.955  0.8890 -0.5142 -2.7585
  565MOL0     H76262   7.404   9.410   1.119 -1.1996  1.3052 -0.4346
  565MOL0     H76263   7.157   9.037   1.146 -0.0226 -0.2421  0.3034
  565MOL0     H76264   7.273   8.998   1.028 -2.5961 -1.2030  0.0816
  565MOL0     H76265   7.118   9.084   0.855  0.9925  1.2038  0.8210
  565MOL0     H76266   7.039   9.201   0.962  1.3876  0.7445 -1.7347
  565MOL0     H76267   7.006   8.891   0.939  1.2040  0.2662 -1.2727
  565MOL0     H76268   6.902   9.010   0.878 -0.9290 -1.2084  0.1172
  565MOL0     H76269   6.944   8.971   1.171 -0.4414  0.9210  0.4456
  565MOL0     H76270   6.850   9.106   1.100 -2.7980 -0.3582  3.4963
  565MOL0     H76271   6.585   8.768   1.062 -0.3833 -0.9804 -2.0912
  565MOL0     H76272   7.310   9.142   0.804  0.1571  1.2805  0.6230
  565MOL0     H76273   7.615   9.145   0.618 -0.1963  0.1802 -4.3988
  565MOL0     H76274   7.446   9.136   0.594 -2.5187  2.1891  1.3501
  565MOL0     H76275   7.533   9.285   0.560 -1.5714  1.2166  1.2844
  566MOL0     O76276   1.138  10.764   7.464  0.5202 -1.4542 -0.0938
  566MOL0     C76277   1.129  10.833   7.563 -0.5647 -0.3172  0.1752
  566MOL0     O76278   1.009  10.870   7.622 -0.7718  0.0337  0.2933
  566MOL0     C76279   0.891  10.801   7.605 -0.0457  0.0720  0.0259
  566MOL0     C76280   0.781  10.857   7.677 -0.3736  0.1242 -0.3835
  566MOL0     C76281   0.657  10.801   7.671  0.1399  0.2977 -0.2611
  566MOL0     C76282   0.636  10.679   7.612 -0.5582  0.5547  0.2924
  566MOL0     O76283   0.523  10.601   7.608 -0.3575  0.0650 -0.8451
  566MOL0     C76284   0.405  10.661   7.655 -0.4045  0.1187  0.5622
  566MOL0     C76285   0.284  10.569   7.642 -0.2294 -0.3195 -0.6355
  566MOL0     C76286   0.236  10.562   7.488  0.1878 -0.4233 -0.9896
  566MOL0     C76287   0.140  10.444   7.489 -0.5629  0.4055  0.1425
  566MOL0     C76288   0.134  10.403   7.345 -0.0136 -0.5627  0.3991
  566MOL0     C76289   0.072  10.264   7.331  0.3705 -0.3982  0.2102
  566MOL0     C76290   0.103  10.218   7.185  0.2545 -0.4998  0.4124
  566MOL0     C76291   0.063  10.320   7.075 -0.5575  0.5382  0.4112
  566MOL0     N76292  -0.077  10.363   7.089 -0.1008  0.8090  0.7493
  566MOL0     C76293  -0.178  10.287   7.133  0.4814 -0.0607 -0.4158
  566MOL0     C76294  -0.290  10.362   7.140 -0.3149 -0.3921  0.8542
  566MOL0     C76295  -0.427  10.321   7.178 -0.2680  0.3999 -0.2146
  566MOL0     C76296  -0.536  10.420   7.133  0.6218  0.5086 -0.4783
  566MOL0     C76297  -0.608  10.500   7.245  0.7958 -0.3817  0.1830
  566MOL0     C76298  -0.513  10.606   7.304  0.1871  0.3046  0.3417
  566MOL0     O76299  -0.573  10.689   7.400  0.0100 -0.3711 -0.3008
  566MOL0     C76300  -0.506  10.802   7.421 -0.8481 -0.0619  0.3521
  566MOL0     C76301  -0.385  10.847   7.357 -0.9012  0.3433 -1.3233
  566MOL0     C76302  -0.336  10.973   7.398 -0.2124  0.2178  0.4817
  566MOL0     C76303  -0.395  11.059   7.495  0.0521  0.1410  0.6396
  566MOL0     C76304  -0.328  11.186   7.538 -0.7444 -0.0031 -0.6474
  566MOL0     O76305  -0.214  11.216   7.461 -0.2350  0.6368  0.5232
  566MOL0     C76306  -0.130  11.298   7.522 -0.2932 -0.0490 -0.8674
  566MOL0     C76307  -0.096  11.297   7.656  0.2796 -0.0765  0.8004
  566MOL0     C76308  -0.001  11.378   7.703 -1.0042  0.1306 -0.7787
  566MOL0     C76309   0.067  11.471   7.626  0.5938  0.4806 -0.0959
  566MOL0     O76310   0.153  11.563   7.694  0.6562  0.3467  0.1610
  566MOL0     C76311   0.231  11.631   7.601 -0.7087 -0.5325 -0.4511
  566MOL0     C76312   0.348  11.707   7.652 -0.2202  0.1569  0.4130
  566MOL0     C76313   0.451  11.631   7.732  0.4749  0.3210 -1.3655
  566MOL0     C76314   0.541  11.732   7.807  0.1381  0.9512 -0.4795
  566MOL0     C76315   0.632  11.658   7.905 -0.3433  0.2790 -0.8421
  566MOL0     C76316   0.698  11.752   8.009 -0.3789  0.5853 -0.8558
  566MOL0     C76317   0.784  11.674   8.102 -0.9104 -0.6466 -0.5579
  566MOL0     C76318   0.795  11.752   8.237 -1.0893  0.3375 -0.2321
  566MOL0    Cl76319   0.658  11.719   8.359 -0.1897 -0.2128  0.3394
  566MOL0     C76320   0.029  11.480   7.486  0.1643  0.2889  0.2679
  566MOL0     C76321  -0.063  11.383   7.438 -0.0981 -0.0329  0.9848
  566MOL0     O76322  -0.367  11.247   7.639 -0.4172  0.9395  0.7598
  566MOL0     C76323  -0.507  11.011   7.559  0.1760 -0.3288 -0.6014
  566MOL0     C76324  -0.562  10.885   7.524 -0.4668  0.2296 -0.7890
  566MOL0     N76325  -0.249  10.494   7.103 -0.2813  0.7443  0.3240
  566MOL0     N76326  -0.129  10.485   7.061  0.6858 -1.0698  0.0877
  566MOL0     C76327   0.740  10.628   7.524  0.0260 -0.6627  0.0801
  566MOL0     C76328   0.864  10.687   7.526 -0.3000 -0.3576  0.4020
  566MOL0     C76329   1.240  10.931   7.569  0.4435 -0.4994 -0.8783
  566MOL0     C76330   1.233  11.052   7.643 -0.7545 -1.2525  0.3528
  566MOL0     C76331   1.333  11.142   7.658 -0.2573 -0.4382 -1.2721
  566MOL0     C76332   1.460  11.114   7.610 -0.5921 -0.2036  0.4774
  566MOL0     O76333   1.558  11.211   7.638  0.2227  0.2209 -0.0616
  566MOL0     C76334   1.685  11.172   7.595  0.2025  0.3606 -0.3060
  566MOL0     C76335   1.740  11.074   7.704  0.5075 -0.6299 -0.3278
  566MOL0     C76336   1.889  11.033   7.673 -0.5029  0.1509  0.4908
  566MOL0     C76337   1.909  10.891   7.623  0.3210  0.1010  0.2178
  566MOL0     C76338   2.048  10.870   7.587 -0.0095 -0.6579 -0.4869
  566MOL0     C76339   2.158  10.880   7.541 -1.0469  0.2406 -0.0787
  566MOL0     C76340   1.478  10.996   7.530  0.3887 -0.7743 -0.0568
  566MOL0     C76341   1.371  10.911   7.508  0.6632  0.0730 -0.1261
  566MOL0     C76342   1.409  10.768   7.459  1.2680 -0.1075  0.4713
  566MOL0     H76343   0.795  10.934   7.751 -1.0777 -0.5317  0.4482
  566MOL0     H76344   0.571  10.846   7.719  1.1775 -0.7647  2.8331
  566MOL0     H76345   0.422  10.695   7.757 -0.4614  0.7176  0.3768
  566MOL0     H76346   0.377  10.741   7.586 -1.2462  0.3600  1.1683
  566MOL0     H76347   0.206  10.615   7.704 -1.0879 -0.6099 -1.4701
  566MOL0     H76348   0.303  10.471   7.686  1.5226 -0.7315 -2.1617
  566MOL0     H76349   0.321  10.551   7.421 -1.5426  2.6870 -4.0274
  566MOL0     H76350   0.188  10.656   7.457 -1.1982 -0.9550 -0.5326
  566MOL0     H76351   0.169  10.366   7.559  2.1372  1.3761  0.2268
  566MOL0     H76352   0.039  10.473   7.521 -1.7491 -2.2606 -0.8852
  566MOL0     H76353   0.085  10.485   7.291 -0.9007 -0.0729  1.8900
  566MOL0     H76354   0.235  10.382   7.309  0.3303 -0.3813  1.2353
  566MOL0     H76355   0.129  10.201   7.400 -1.2435 -0.0048  1.9577
  566MOL0     H76356  -0.034  10.269   7.358 -0.4819 -3.5379 -2.0245
  566MOL0     H76357   0.056  10.123   7.159 -0.7235  0.1913 -0.4539
  566MOL0     H76358   0.207  10.192   7.169 -0.4895 -3.2225 -0.4488
  566MOL0     H76359   0.124  10.410   7.068 -0.5474  0.6573  1.8904
  566MOL0     H76360   0.066  10.264   6.980 -1.3198  0.9206  0.1530
  566MOL0     H76361  -0.179  10.179   7.149 -0.9506  0.3395  3.0434
  566MOL0     H76362  -0.453  10.222   7.138  1.2825  0.3241 -1.1263
  566MOL0     H76363  -0.428  10.320   7.288 -2.1741  1.8422 -0.1872
  566MOL0     H76364  -0.492  10.484   7.056 -0.1806 -0.4854 -1.8222
  566MOL0     H76365  -0.615  10.368   7.077  0.3322 -3.5938  3.2099
  566MOL0     H76366  -0.644  10.433   7.324  3.0095 -1.6176  0.2176
  566MOL0     H76367  -0.696  10.544   7.198 -0.0202 -3.6590 -1.7063
  566MOL0     H76368  -0.493  10.669   7.217 -1.3228 -1.1631 -1.1522
  566MOL0     H76369  -0.421  10.561   7.340 -0.8221 -0.7333  1.7473
  566MOL0     H76370  -0.330  10.779   7.294  2.9968 -0.0106  2.0640
  566MOL0     H76371  -0.246  11.012   7.352 -0.7473  3.6940  2.0389
  566MOL0     H76372  -0.145  11.233   7.729  3.2642  0.8586  3.8582
  566MOL0     H76373   0.009  11.367   7.811 -0.5521  0.6907 -0.7545
  566MOL0     H76374   0.278  11.554   7.539 -1.9841 -1.7580  0.0683
  566MOL0     H76375   0.178  11.703   7.538 -0.0662 -1.3598 -1.9814
  566MOL0     H76376   0.406  11.746   7.568 -1.5325 -1.0465 -1.1342
  566MOL0     H76377   0.299  11.786   7.710  0.4075  0.0315  1.1170
  566MOL0     H76378   0.399  11.572   7.808 -0.5057  0.1350 -2.1547
  566MOL0     H76379   0.504  11.559   7.669  0.0023 -1.0076 -0.3039
  566MOL0     H76380   0.485  11.804   7.867  1.3296  3.1572 -1.8909
  566MOL0     H76381   0.604  11.790   7.740  0.6214  1.0141  0.0200
  566MOL0     H76382   0.714  11.600   7.864  0.4383 -0.0835  1.1305
  566MOL0     H76383   0.560  11.597   7.961 -2.4837  1.9756 -1.6232
  566MOL0     H76384   0.752  11.836   7.964  0.5431  1.0175  1.0061
  566MOL0     H76385   0.616  11.794   8.069 -0.8129 -0.1368 -0.9323
  566MOL0     H76386   0.885  11.666   8.063 -0.2006 -1.1935  1.2715
  566MOL0     H76387   0.742  11.577   8.132 -1.1558 -0.3297  0.1580
  566MOL0     H76388   0.883  11.717   8.292 -1.7465 -3.3939 -1.2567
  566MOL0     H76389   0.812  11.860   8.230 -1.2235  0.4585  1.1334
  566MOL0     H76390   0.064  11.552   7.413 -0.3468 -1.2126 -1.5391
  566MOL0     H76391  -0.088  11.382   7.333  0.9239 -1.1220  0.7281
  566MOL0     H76392  -0.539  11.069   7.645  0.9143 -0.8808  0.0639
  566MOL0     H76393  -0.650  10.855   7.579 -0.3824  2.7000  0.8705
  566MOL0     H76394   0.730  10.548   7.452 -1.4718  0.9142 -1.5661
  566MOL0     H76395   0.938  10.640   7.463 -1.3782 -0.1591 -1.0788
  566MOL0     H76396   1.145  11.084   7.699 -0.4835  0.3560 -0.0842
  566MOL0     H76397   1.303  11.236   7.703  0.6932 -0.3418 -0.8130
  566MOL0     H76398   1.755  11.255   7.587 -0.1544  0.6283 -0.6421
  566MOL0     H76399   1.689  11.132   7.493  1.3908 -0.5580  0.0714
  566MOL0     H76400   1.675  10.985   7.701 -0.4410 -0.0515  1.4746
  566MOL0     H76401   1.722  11.128   7.798  1.7202 -2.2730  0.9152
  566MOL0     H76402   1.956  11.052   7.757  0.3021 -0.2019 -0.0563
  566MOL0     H76403   1.935  11.101   7.601 -0.3060  0.9029  1.3210
  566MOL0     H76404   1.881  10.838   7.714 -0.9476  2.4819  1.2990
  566MOL0     H76405   1.836  10.855   7.550 -0.1592 -0.9435  1.1947
  566MOL0     H76406   2.255  10.877   7.496 -1.2405  1.6708 -0.6515
  566MOL0     H76407   1.576  10.974   7.487  0.6127 -1.9693  1.0085
  566MOL0     H76408   1.515  10.746   7.449  0.4986 -5.4185  0.7855
  566MOL0     H76409   1.374  10.699   7.537  1.9556 -0.0260  0.8625
  566MOL0     H76410   1.348  10.751   7.369  0.9579 -0.6372  0.7720
  567MOL0     O76411   3.793   3.709   6.754  0.0942  0.3485  0.7378
  567MOL0     C76412   3.754   3.645   6.851 -0.0436 -0.0337 -0.5428
  567MOL0     O76413   3.791   3.661   6.980  0.3955 -0.2418  0.1749
  567MOL0     C76414   3.878   3.763   7.002 -1.0383 -0.2751  0.5962
  567MOL0     C76415   4.027   3.752   6.977 -0.5729 -0.2135 -0.8389
  567MOL0     C76416   4.096   3.870   6.995  0.8848  0.8239 -0.1711
  567MOL0     C76417   4.041   3.990   7.043 -0.4970 -0.4012  0.6760
  567MOL0     O76418   4.120   4.107   7.060  0.0600  0.5960  0.2664
  567MOL0     C76419   4.257   4.102   7.085 -1.3469  0.1403 -0.6546
  567MOL0     C76420   4.303   4.232   7.138 -0.4330  0.0172 -0.0195
  567MOL0     C76421   4.439   4.243   7.201  0.6793  0.4442  0.0373
  567MOL0     C76422   4.452   4.372   7.282  0.7922  0.3817  0.2468
  567MOL0     C76423   4.581   4.403   7.361 -0.0849  0.3079 -0.2553
  567MOL0     C76424   4.702   4.338   7.317 -0.3966  1.1820 -0.0635
  567MOL0     C76425   4.836   4.394   7.386  1.1596  0.1522  0.0732
  567MOL0     C76426   4.956   4.380   7.296 -0.0030 -0.5996  0.4932
  567MOL0     N76427   5.070   4.405   7.377 -0.7874 -0.1880  0.0241
  567MOL0     C76428   5.135   4.306   7.438  0.0288  0.2269 -0.1755
  567MOL0     C76429   5.257   4.357   7.473  0.6668  0.5536 -0.6551
  567MOL0     C76430   5.362   4.284   7.564  0.8741  0.1929  0.6192
  567MOL0     C76431   5.501   4.278   7.505  0.1602  0.2065 -0.0673
  567MOL0     C76432   5.589   4.172   7.579  0.2004  1.2385  0.1137
  567MOL0     C76433   5.736   4.193   7.526  0.8351 -0.5740 -0.2480
  567MOL0     O76434   5.724   4.185   7.386  0.7426  0.2244 -0.6948
  567MOL0     C76435   5.842   4.158   7.330  0.4520  0.1117  0.7221
  567MOL0     C76436   5.839   4.084   7.209  0.8892 -0.1905 -0.5917
  567MOL0     C76437   5.960   4.046   7.137 -0.0796 -0.3860 -0.9665
  567MOL0     C76438   6.081   4.110   7.175  0.3853 -0.0873  0.7604
  567MOL0     C76439   6.204   4.085   7.106 -0.7357 -0.4371  0.1913
  567MOL0     O76440   6.193   4.058   6.974  0.5161  0.2189 -0.2797
  567MOL0     C76441   6.297   4.056   6.888 -0.7481  0.4487 -0.3824
  567MOL0     C76442   6.386   3.946   6.874  0.5416 -0.5714 -0.4484
  567MOL0     C76443   6.496   3.958   6.793 -0.3144  0.3910  1.3909
  567MOL0     C76444   6.521   4.071   6.711  0.2154 -0.6673  0.0288
  567MOL0     O76445   6.636   4.080   6.636  0.1684  0.4422  0.1747
  567MOL0     C76446   6.687   4.202   6.580 -0.3132  0.0335 -0.0341
  567MOL0     C76447   6.814   4.180   6.486 -0.1755 -0.1632 -0.3983
  567MOL0     C76448   6.940   4.130   6.561 -0.7138 -0.4998  0.0445
  567MOL0     C76449   7.051   4.139   6.461  0.4139 -0.2021 -0.4037
  567MOL0     C76450   7.184   4.099   6.524  0.0465 -0.4617  0.8448
  567MOL0     C76451   7.292   4.084   6.426 -0.8984  0.3451  0.1616
  567MOL0     C76452   7.408   4.003   6.489 -0.1683 -0.6300  0.7008
  567MOL0     C76453   7.511   3.975   6.375  0.8916 -0.7182  0.6720
  567MOL0    Cl76454   7.571   4.126   6.302 -0.2220  0.1337  0.6574
  567MOL0     C76455   6.431   4.178   6.729  0.2708 -1.3050 -0.4654
  567MOL0     C76456   6.324   4.180   6.822 -0.3976  0.2873  0.5530
  567MOL0     O76457   6.312   4.116   7.157  0.1634 -0.5864  0.7578
  567MOL0     C76458   6.076   4.203   7.284 -0.7630  1.0082  0.1673
  567MOL0     C76459   5.962   4.222   7.362 -0.1571  0.3853 -0.5358
  567MOL0     N76460   5.268   4.481   7.432 -0.2407  0.2486  0.1370
  567MOL0     N76461   5.157   4.511   7.378  0.1679  0.1738 -0.6235
  567MOL0     C76462   3.903   3.989   7.079 -0.6931 -0.2870  0.3869
  567MOL0     C76463   3.824   3.879   7.051  0.3331 -0.2544 -0.8047
  567MOL0     C76464   3.672   3.526   6.837  0.0008 -0.7404 -0.0741
  567MOL0     C76465   3.585   3.497   6.941  0.4018 -0.2136 -0.9806
  567MOL0     C76466   3.501   3.382   6.944  0.0507 -0.3956  0.0365
  567MOL0     C76467   3.501   3.299   6.828  0.1777 -0.3599 -0.7025
  567MOL0     O76468   3.419   3.185   6.836 -0.6518  0.1542  0.9335
  567MOL0     C76469   3.412   3.096   6.716  0.2130 -0.6902  0.0093
  567MOL0     C76470   3.288   3.137   6.644 -0.3548 -0.1070  0.4626
  567MOL0     C76471   3.166   3.116   6.742  0.5165  0.3138 -0.3513
  567MOL0     C76472   3.127   2.973   6.775  1.2533  0.1794  0.4875
  567MOL0     C76473   3.112   2.898   6.649  0.7446  0.2215  0.7768
  567MOL0     C76474   3.108   2.832   6.538 -0.0267 -0.0223 -0.2698
  567MOL0     C76475   3.586   3.326   6.723 -0.1242  0.3343 -0.2773
  567MOL0     C76476   3.673   3.438   6.727 -0.1860 -0.3542 -0.0221
  567MOL0     C76477   3.770   3.465   6.620 -0.4887  0.8140 -0.2774
  567MOL0     H76478   4.072   3.660   6.941  0.9945  0.6587 -1.1928
  567MOL0     H76479   4.201   3.869   6.969  0.5288  0.0752 -1.7452
  567MOL0     H76480   4.281   4.030   7.164  0.1565 -0.6028 -1.7420
  567MOL0     H76481   4.309   4.084   6.990 -1.2231 -0.7240 -0.4366
  567MOL0     H76482   4.237   4.253   7.222  0.1522 -3.1713  1.4229
  567MOL0     H76483   4.292   4.309   7.062  1.3809 -0.1359 -0.4901
  567MOL0     H76484   4.525   4.244   7.133  2.2387 -2.9235  1.6961
  567MOL0     H76485   4.462   4.153   7.260  1.9822 -0.9419 -2.4285
  567MOL0     H76486   4.442   4.451   7.207  1.8496 -0.9515 -1.3666
  567MOL0     H76487   4.372   4.383   7.356 -0.1322  0.8752 -0.8006
  567MOL0     H76488   4.598   4.511   7.355 -2.0768  0.7221  0.6828
  567MOL0     H76489   4.568   4.385   7.468  1.9574 -0.1419 -0.0531
  567MOL0     H76490   4.703   4.230   7.335  0.1805  1.2471  0.3061
  567MOL0     H76491   4.701   4.341   7.208 -1.0154 -2.3365 -0.2823
  567MOL0     H76492   4.858   4.331   7.473  0.4274 -1.4286 -0.8525
  567MOL0     H76493   4.811   4.497   7.416 -3.1420 -0.8774  0.7466
  567MOL0     H76494   4.964   4.287   7.239  0.4375  0.2554 -0.8884
  567MOL0     H76495   4.943   4.455   7.217  1.8646  0.0429  0.7556
  567MOL0     H76496   5.099   4.204   7.446  0.2452  0.3349  3.4678
  567MOL0     H76497   5.363   4.331   7.662 -0.2767  0.7393  0.3912
  567MOL0     H76498   5.325   4.182   7.579  2.9110 -0.7640 -0.4582
  567MOL0     H76499   5.486   4.242   7.403  0.4752  0.6693 -0.2804
  567MOL0     H76500   5.545   4.378   7.493  1.8769 -0.5459 -0.3121
  567MOL0     H76501   5.548   4.073   7.555 -0.8479  1.6927 -0.0203
  567MOL0     H76502   5.590   4.185   7.688  0.5257 -1.8830  0.5812
  567MOL0     H76503   5.804   4.117   7.564 -1.1209 -2.5424 -0.4537
  567MOL0     H76504   5.769   4.292   7.558  3.8064 -1.0919 -1.3823
  567MOL0     H76505   5.745   4.033   7.190  1.4727 -2.6881  2.4888
  567MOL0     H76506   5.943   3.973   7.058 -1.2696  0.2595 -1.3353
  567MOL0     H76507   6.363   3.852   6.923 -2.2944  0.0180 -0.4433
  567MOL0     H76508   6.558   3.872   6.768 -0.4252  0.8322 -0.6022
  567MOL0     H76509   6.604   4.247   6.524 -1.5334 -1.8898  0.1594
  567MOL0     H76510   6.718   4.260   6.667  0.0254 -0.5072  0.2093
  567MOL0     H76511   6.785   4.107   6.410 -1.1624  0.2948 -0.4852
  567MOL0     H76512   6.837   4.268   6.427  0.3754 -0.8802 -1.2816
  567MOL0     H76513   6.969   4.192   6.646  4.8416 -2.7234  0.1672
  567MOL0     H76514   6.904   4.039   6.610 -0.1739 -0.2482  0.9421
  567MOL0     H76515   7.057   4.233   6.405  1.9251 -0.6460 -1.0206
  567MOL0     H76516   7.027   4.060   6.389  1.9018 -0.2651 -0.8539
  567MOL0     H76517   7.175   4.010   6.586  1.0533 -1.0747  0.1389
  567MOL0     H76518   7.217   4.177   6.593  0.3185 -0.2087  0.4381
  567MOL0     H76519   7.254   4.045   6.331  1.9772  1.4611 -1.6115
  567MOL0     H76520   7.339   4.180   6.403  5.6532 -2.2691  0.4755
  567MOL0     H76521   7.378   3.908   6.534  2.7676 -0.2407  3.8561
  567MOL0     H76522   7.462   4.068   6.558 -0.4578 -2.0301  2.3193
  567MOL0     H76523   7.588   3.906   6.411  1.7445 -1.1878 -1.8344
  567MOL0     H76524   7.442   3.927   6.304 -2.0940  0.3797  2.6248
  567MOL0     H76525   6.446   4.278   6.690 -2.5924  0.8821  3.2901
  567MOL0     H76526   6.248   4.256   6.834 -0.3470  0.6671 -1.3282
  567MOL0     H76527   6.163   4.265   7.302  1.2686 -1.3899 -0.8605
  567MOL0     H76528   5.978   4.282   7.451  0.7787  2.1513 -1.8465
  567MOL0     H76529   3.845   4.071   7.121 -2.2938 -1.2679  0.1703
  567MOL0     H76530   3.717   3.883   7.071  0.5874  3.1658  0.6196
  567MOL0     H76531   3.576   3.560   7.029 -3.1871 -0.7348 -0.8032
  567MOL0     H76532   3.431   3.348   7.020  0.4564  0.1963  0.6930
  567MOL0     H76533   3.407   2.994   6.752  2.0986 -0.2940  1.5486
  567MOL0     H76534   3.492   3.088   6.642 -0.7990 -0.8276 -1.1119
  567MOL0     H76535   3.273   3.075   6.555  0.0469  1.2543 -0.5888
  567MOL0     H76536   3.299   3.242   6.615  2.1348  0.0975  1.8776
  567MOL0     H76537   3.081   3.166   6.694 -0.1824 -1.4203 -1.0066
  567MOL0     H76538   3.182   3.172   6.834 -0.6333 -2.2916  1.5703
  567MOL0     H76539   3.199   2.920   6.838  2.1385 -0.4095 -0.9484
  567MOL0     H76540   3.031   2.970   6.826  2.7555 -3.4608  3.6022
  567MOL0     H76541   3.097   2.781   6.444 -2.3332  0.5031 -0.3449
  567MOL0     H76542   3.602   3.255   6.642 -1.3363 -0.3585  0.0595
  567MOL0     H76543   3.734   3.555   6.569 -0.5877  2.2913  2.2402
  567MOL0     H76544   3.868   3.494   6.660 -0.2496 -0.2624 -0.0624
  567MOL0     H76545   3.773   3.386   6.545 -0.7293  0.6004 -0.0627
  568MOL0     O76546   8.726   9.779   1.002  0.6944  0.2832 -0.1648
  568MOL0     C76547   8.674   9.751   0.892  0.9549 -0.5083 -0.6286
  568MOL0     O76548   8.741   9.731   0.779  0.5516  0.1390 -1.0409
  568MOL0     C76549   8.877   9.762   0.769 -0.6024 -0.6263 -0.1260
  568MOL0     C76550   8.919   9.899   0.793 -0.0905  0.1875 -0.3761
  568MOL0     C76551   9.059   9.925   0.790  1.0295  0.5596  0.1457
  568MOL0     C76552   9.142   9.832   0.733  0.4496  0.0572  0.3271
  568MOL0     O76553   9.276   9.861   0.709  0.2466  0.0766 -0.2130
  568MOL0     C76554   9.322   9.847   0.569  1.0529 -0.0425 -0.9249
  568MOL0     C76555   9.472   9.839   0.578 -0.1676 -0.1370 -0.0391
  568MOL0     C76556   9.540   9.970   0.622  0.9142  1.1130 -0.5654
  568MOL0     C76557   9.658   9.936   0.716 -0.3460  0.0767  0.8502
  568MOL0     C76558   9.741  10.063   0.730 -1.4313  0.4430  0.1338
  568MOL0     C76559   9.884  10.034   0.804  0.6031  0.0633  1.3006
  568MOL0     C76560   9.974  10.154   0.820 -0.3209  0.2972 -0.3829
  568MOL0     C76561  10.102  10.101   0.893 -0.7748 -0.4507  0.3256
  568MOL0     N76562  10.203  10.197   0.944 -0.3000 -0.6784 -0.4250
  568MOL0     C76563  10.163  10.319   0.997 -0.0123 -0.0959 -0.6564
  568MOL0     C76564  10.281  10.386   1.014  0.7376 -0.3726 -0.6061
  568MOL0     C76565  10.305  10.517   1.091  0.3135  0.3344 -0.3661
  568MOL0     C76566  10.307  10.623   0.978 -0.0865 -0.2903  0.0394
  568MOL0     C76567  10.449  10.641   0.916  0.4381  0.4642  0.1742
  568MOL0     C76568  10.456  10.755   0.803  0.3418 -0.4117  0.7267
  568MOL0     O76569  10.534  10.868   0.847  0.7703  0.4038  0.3585
  568MOL0     C76570  10.624  10.919   0.758  1.2584  0.1048  0.3857
  568MOL0     C76571  10.749  10.950   0.819  0.5257  0.7818  0.1099
  568MOL0     C76572  10.841  11.025   0.752 -0.9725 -0.1003 -0.1534
  568MOL0     C76573  10.825  11.058   0.617 -0.2815  0.6115  0.2204
  568MOL0     C76574  10.924  11.132   0.536  0.0378 -0.1706 -0.2471
  568MOL0     O76575  10.906  11.131   0.402  0.4711 -0.1631  1.0981
  568MOL0     C76576  10.997  11.190   0.321  0.2543 -0.5265  0.7322
  568MOL0     C76577  10.948  11.264   0.215  0.4512 -0.2509 -1.3075
  568MOL0     C76578  11.039  11.314   0.120  0.0545  0.4790 -0.3881
  568MOL0     C76579  11.182  11.289   0.130  0.0529  0.8193  0.6765
  568MOL0     O76580  11.254  11.330   0.023  0.0794 -0.5734 -0.4120
  568MOL0     C76581  11.394  11.328   0.017  0.0111 -0.5895  0.3337
  568MOL0     C76582  11.434  11.384  -0.122 -0.2311 -0.5344 -0.4372
  568MOL0     C76583  11.574  11.449  -0.122  0.1315 -0.8559  0.7807
  568MOL0     C76584  11.629  11.465  -0.270  0.4012  0.1249 -0.1941
  568MOL0     C76585  11.790  11.474  -0.266  0.4576  0.1314 -0.4839
  568MOL0     C76586  11.845  11.477  -0.406 -0.8970 -0.7091 -0.5827
  568MOL0     C76587  11.997  11.484  -0.394  0.0534 -0.3823 -0.2043
  568MOL0     C76588  12.063  11.450  -0.525 -0.3410  0.0161 -0.3505
  568MOL0    Cl76589  12.240  11.413  -0.475  0.5378 -0.0375 -0.1151
  568MOL0     C76590  11.232  11.218   0.237  0.8621  0.7790 -0.1458
  568MOL0     C76591  11.136  11.170   0.330  0.2034 -0.1346  0.0606
  568MOL0     O76592  11.021  11.180   0.591  0.3872  0.8356  0.7465
  568MOL0     C76593  10.707  11.015   0.552 -0.7108 -0.1154  0.6526
  568MOL0     C76594  10.606  10.940   0.618 -0.5112  0.6235  0.7371
  568MOL0     N76595  10.381  10.306   0.956  0.4430 -0.1150  0.3731
  568MOL0     N76596  10.335  10.191   0.927  0.4033 -0.7558  0.6259
  568MOL0     C76597   9.099   9.707   0.706  0.8095 -0.1112  0.2451
  568MOL0     C76598   8.966   9.663   0.724 -0.1658 -0.4692  0.0823
  568MOL0     C76599   8.523   9.745   0.884  0.4939 -0.1503  0.0107
  568MOL0     C76600   8.444   9.749   1.003 -0.5214  0.4728  0.4968
  568MOL0     C76601   8.307   9.763   1.003  0.4379  0.1149  0.4100
  568MOL0     C76602   8.236   9.755   0.877  0.6429 -0.0203 -0.5396
  568MOL0     O76603   8.101   9.772   0.874 -0.0206 -0.1912  0.8841
  568MOL0     C76604   8.030   9.768   0.749  0.1978  0.3978  0.1888
  568MOL0     C76605   7.882   9.781   0.770 -0.4820 -0.7795 -0.3992
  568MOL0     C76606   7.814   9.793   0.626  0.9506  0.3276  0.4840
  568MOL0     C76607   7.673   9.847   0.619 -0.2443 -0.4251 -0.1420
  568MOL0     C76608   7.571   9.774   0.694  0.3401  0.0357  0.3209
  568MOL0     C76609   7.495   9.716   0.763  0.0152 -0.3395 -0.6230
  568MOL0     C76610   8.312   9.748   0.763  0.3939  0.1646  0.3207
  568MOL0     C76611   8.456   9.764   0.764 -1.0795  0.2004  0.1875
  568MOL0     C76612   8.529   9.769   0.622  0.3339 -0.3345 -0.8666
  568MOL0     H76613   8.852   9.975   0.831 -0.3879  0.7687 -1.9701
  568MOL0     H76614   9.089  10.024   0.823  1.0574  0.2358  1.1139
  568MOL0     H76615   9.267   9.759   0.532  0.1066  0.8903 -1.7955
  568MOL0     H76616   9.301   9.930   0.502 -0.1203  0.2850 -0.1802
  568MOL0     H76617   9.508   9.802   0.481  0.4813 -1.3472  0.6265
  568MOL0     H76618   9.496   9.763   0.654 -2.9693  0.0764  1.1527
  568MOL0     H76619   9.470  10.033   0.678  0.9911  0.4226  0.3439
  568MOL0     H76620   9.568  10.022   0.530 -0.7620 -2.9432 -3.7011
  568MOL0     H76621   9.620   9.897   0.811  1.4462 -2.7787  0.5158
  568MOL0     H76622   9.713   9.853   0.671 -1.5703 -0.1175 -0.3803
  568MOL0     H76623   9.768  10.091   0.628  1.3302  0.9589  0.9296
  568MOL0     H76624   9.684  10.142   0.779 -0.5945  0.4390  1.1539
  568MOL0     H76625   9.869  10.002   0.907 -0.1431 -2.0786  0.5759
  568MOL0     H76626   9.936   9.954   0.750 -0.9937  1.3931 -2.5573
  568MOL0     H76627   9.931  10.233   0.883  0.8981  0.5753  0.1260
  568MOL0     H76628   9.999  10.206   0.727 -1.5275 -0.2050 -1.0167
  568MOL0     H76629  10.067  10.051   0.984 -1.6782  0.7572  0.6646
  568MOL0     H76630  10.151  10.026   0.830 -1.1873 -0.8055  0.4227
  568MOL0     H76631  10.067  10.363   1.023 -0.6315 -1.2897 -0.8564
  568MOL0     H76632  10.216  10.527   1.154 -2.3512  0.1421 -3.7571
  568MOL0     H76633  10.391  10.509   1.158 -0.8540 -0.0770  1.1465
  568MOL0     H76634  10.234  10.605   0.898  1.3293 -0.6367 -1.2356
  568MOL0     H76635  10.283  10.725   1.010 -1.0559 -0.7175  0.7108
  568MOL0     H76636  10.476  10.545   0.871 -1.9277 -1.0113  1.6436
  568MOL0     H76637  10.517  10.666   0.998  1.4113 -0.5090 -0.3090
  568MOL0     H76638  10.363  10.811   0.784  1.7550  1.5637 -0.8247
  568MOL0     H76639  10.483  10.709   0.707  0.1855  3.3157 -1.2908
  568MOL0     H76640  10.767  10.938   0.925 -1.1128 -0.7408  0.2486
  568MOL0     H76641  10.930  11.069   0.795 -1.8434 -0.0642  1.7064
  568MOL0     H76642  10.840  11.270   0.223  0.3327 -2.2015 -1.0487
  568MOL0     H76643  11.004  11.382   0.042  3.9935 -0.5219 -3.3953
  568MOL0     H76644  11.433  11.389   0.100 -2.1934  1.6888 -0.1886
  568MOL0     H76645  11.440  11.230   0.032  1.4850 -0.1004 -0.6761
  568MOL0     H76646  11.423  11.308  -0.199 -0.5010 -2.2611  1.2344
  568MOL0     H76647  11.365  11.463  -0.152 -0.3950 -0.4390  0.1691
  568MOL0     H76648  11.574  11.548  -0.075  0.1248 -0.1439 -0.6716
  568MOL0     H76649  11.644  11.384  -0.068  0.4152 -0.9391  0.3104
  568MOL0     H76650  11.592  11.555  -0.320 -0.9946 -1.4574 -2.1517
  568MOL0     H76651  11.587  11.375  -0.315 -0.4856  0.3400  0.1796
  568MOL0     H76652  11.833  11.385  -0.219 -2.7028  0.3479  3.3190
  568MOL0     H76653  11.823  11.567  -0.218  1.3514  0.9457 -2.5665
  568MOL0     H76654  11.823  11.389  -0.467  2.0953 -2.1836  0.2973
  568MOL0     H76655  11.816  11.566  -0.462  2.2877  0.9037  0.1138
  568MOL0     H76656  12.031  11.413  -0.318  0.8717  0.2771  0.0566
  568MOL0     H76657  12.039  11.581  -0.366 -1.2371 -0.0612  0.6828
  568MOL0     H76658  12.018  11.360  -0.569  0.0273 -0.8399  0.9593
  568MOL0     H76659  12.067  11.539  -0.588 -1.6637 -0.2771 -0.8874
  568MOL0     H76660  11.338  11.195   0.245  0.6721  0.1866  0.7870
  568MOL0     H76661  11.164  11.109   0.415 -3.7416 -0.0939  1.5927
  568MOL0     H76662  10.691  11.041   0.448 -0.4182 -1.1547  0.3341
  568MOL0     H76663  10.513  10.917   0.566 -0.1829 -0.3902  0.5888
  568MOL0     H76664   9.163   9.633   0.658  1.2914  1.7642 -2.2100
  568MOL0     H76665   8.922   9.567   0.702 -2.1222  0.4023 -0.0537
  568MOL0     H76666   8.489   9.743   1.101 -1.5154  2.7614  1.1614
  568MOL0     H76667   8.255   9.778   1.098 -0.1881 -3.0395  0.6544
  568MOL0     H76668   8.057   9.671   0.705  1.0699  0.9173 -0.4445
  568MOL0     H76669   8.071   9.842   0.680  0.5924 -1.3172 -1.4911
  568MOL0     H76670   7.861   9.866   0.835  1.5779 -0.4959 -0.0164
  568MOL0     H76671   7.841   9.699   0.829 -1.1025  0.1429  0.4809
  568MOL0     H76672   7.807   9.695   0.577  0.2440 -0.1074  1.4301
  568MOL0     H76673   7.861   9.865   0.558 -0.1131  0.2121 -0.4070
  568MOL0     H76674   7.670   9.951   0.651  0.2426 -0.4374 -0.0568
  568MOL0     H76675   7.631   9.833   0.519 -1.1800 -1.0376  0.3127
  568MOL0     H76676   7.426   9.648   0.808 -1.6328  1.3230 -0.5082
  568MOL0     H76677   8.279   9.745   0.659  0.6778 -1.0786  0.2534
  568MOL0     H76678   8.619   9.830   0.618  1.6608 -2.1034  0.4239
  568MOL0     H76679   8.569   9.672   0.589 -1.6035 -0.6323 -2.5812
  568MOL0     H76680   8.453   9.790   0.546 -0.9131 -0.8336  0.1930
  569MOL0     O76681   9.862   7.744   0.261 -0.4414 -0.8311 -0.4756
  569MOL0     C76682   9.761   7.814   0.267 -0.3952  0.1053 -0.1875
  569MOL0     O76683   9.744   7.931   0.321 -0.1378 -0.6524 -0.6115
  569MOL0     C76684   9.855   7.978   0.378  0.3298 -0.2506  0.1173
  569MOL0     C76685   9.910   7.937   0.505  0.4909  0.5135  0.2604
  569MOL0     C76686  10.017   8.005   0.562 -0.6075  0.3606 -0.2395
  569MOL0     C76687  10.083   8.108   0.486  0.2698 -0.8573 -0.2865
  569MOL0     O76688  10.193   8.176   0.534 -0.0499 -0.2906 -0.0339
  569MOL0     C76689  10.208   8.201   0.671  0.4553 -0.3967  0.2380
  569MOL0     C76690  10.354   8.242   0.684  0.3997 -0.1543  0.6037
  569MOL0     C76691  10.362   8.364   0.775 -0.1611  0.7890  0.3339
  569MOL0     C76692  10.478   8.457   0.758 -1.4028  0.2675  0.4335
  569MOL0     C76693  10.510   8.552   0.868  0.3668  0.6160  0.1731
  569MOL0     C76694  10.387   8.645   0.894 -0.7448  0.0583  0.2042
  569MOL0     C76695  10.410   8.742   0.995  1.2442 -0.1464  0.4060
  569MOL0     C76696  10.288   8.826   1.005  0.3917 -0.4905 -0.3268
  569MOL0     N76697  10.300   8.920   0.892  0.6338 -0.6263  0.5157
  569MOL0     C76698  10.410   8.992   0.849  0.7062  0.6887 -0.0192
  569MOL0     C76699  10.356   9.084   0.770  0.0149  0.1247  0.0668
  569MOL0     C76700  10.420   9.198   0.703 -0.3730  0.2543 -0.2780
  569MOL0     C76701  10.405   9.324   0.790 -0.1520 -0.3269 -0.1334
  569MOL0     C76702  10.462   9.449   0.727 -0.4355 -1.1313  0.4509
  569MOL0     C76703  10.614   9.449   0.678  0.4231 -0.5895 -0.5291
  569MOL0     O76704  10.703   9.430   0.788  0.0324 -0.0594 -0.1875
  569MOL0     C76705  10.838   9.431   0.769  0.1386  0.2095 -0.4515
  569MOL0     C76706  10.922   9.367   0.868  0.4894  1.0559  0.3650
  569MOL0     C76707  11.062   9.375   0.853  0.4641  0.9488 -0.0679
  569MOL0     C76708  11.126   9.455   0.763  0.0168 -0.3073 -0.0917
  569MOL0     C76709  11.271   9.454   0.767  0.2174 -0.1994  0.0790
  569MOL0     O76710  11.330   9.402   0.881 -0.3179  0.3619  0.2070
  569MOL0     C76711  11.467   9.405   0.874  0.1690 -0.1609 -0.6797
  569MOL0     C76712  11.535   9.309   0.804 -0.2986  0.0090 -1.3445
  569MOL0     C76713  11.681   9.308   0.814 -0.2979 -0.8870  0.1772
  569MOL0     C76714  11.746   9.395   0.903  0.0798 -0.4490 -0.6466
  569MOL0     O76715  11.877   9.385   0.919 -0.5233 -0.4854 -0.0261
  569MOL0     C76716  11.933   9.253   0.960 -0.1186  0.1937 -0.2697
  569MOL0     C76717  12.077   9.262   1.015  0.8950  0.1575  1.2169
  569MOL0     C76718  12.169   9.346   0.917 -0.3059  0.7193 -0.4367
  569MOL0     C76719  12.314   9.299   0.934 -0.0413  0.0892  0.5087
  569MOL0     C76720  12.400   9.377   0.835  0.2572 -0.0098 -0.4232
  569MOL0     C76721  12.549   9.344   0.847  0.4577  0.2739  0.0726
  569MOL0     C76722  12.639   9.458   0.805 -0.4111  0.6646 -0.9176
  569MOL0     C76723  12.774   9.446   0.878  0.9912 -0.0086  0.0129
  569MOL0    Cl76724  12.861   9.609   0.876 -0.1127 -0.0352 -0.0048
  569MOL0     C76725  11.670   9.489   0.977 -0.5411  1.1716  1.0281
  569MOL0     C76726  11.533   9.494   0.956  0.3928 -0.1388 -0.1214
  569MOL0     O76727  11.328   9.495   0.666  0.4012  0.6077 -0.1520
  569MOL0     C76728  11.044   9.524   0.668 -0.0541  0.0639 -0.2606
  569MOL0     C76729  10.903   9.508   0.674  0.8871 -1.1255  0.4600
  569MOL0     N76730  10.226   9.060   0.749  0.3766 -0.7092  0.5852
  569MOL0     N76731  10.195   8.956   0.822 -0.2233 -0.8601  0.9964
  569MOL0     C76732  10.044   8.122   0.353 -0.0363  0.3043 -0.0135
  569MOL0     C76733   9.929   8.058   0.301 -0.3659 -0.4525  0.3299
  569MOL0     C76734   9.640   7.775   0.202 -0.1025  1.0484  0.4571
  569MOL0     C76735   9.560   7.870   0.133  1.4031 -0.1597 -1.2688
  569MOL0     C76736   9.454   7.826   0.056 -0.5381  0.1942  0.5793
  569MOL0     C76737   9.413   7.692   0.055  0.3453  0.2120 -0.0096
  569MOL0     O76738   9.319   7.643  -0.021  0.2681 -0.2563  0.2142
  569MOL0     C76739   9.191   7.703  -0.007 -0.5049 -0.2964 -0.0905
  569MOL0     C76740   9.122   7.674  -0.135  0.3734 -0.1140 -0.5671
  569MOL0     C76741   8.979   7.730  -0.129 -1.5028 -0.3356 -0.2270
  569MOL0     C76742   8.884   7.670  -0.232 -0.9056  0.2182  0.0199
  569MOL0     C76743   8.924   7.709  -0.370  0.6749  0.4441  0.6854
  569MOL0     C76744   8.962   7.727  -0.482 -0.0594 -0.4900 -0.7618
  569MOL0     C76745   9.496   7.593   0.111 -0.3168 -0.3170  0.2024
  569MOL0     C76746   9.610   7.638   0.185 -0.1201 -0.1810 -0.7034
  569MOL0     C76747   9.680   7.528   0.260  0.0500 -0.3224 -0.1162
  569MOL0     H76748   9.866   7.858   0.564 -1.3181  1.4696  0.2701
  569MOL0     H76749  10.070   7.973   0.651  1.2494  2.9774 -0.2590
  569MOL0     H76750  10.137   8.277   0.703  0.5502  0.2002 -0.9405
  569MOL0     H76751  10.190   8.107   0.724 -0.3652  0.0752  0.8114
  569MOL0     H76752  10.395   8.269   0.586 -0.1521  0.6982  0.6009
  569MOL0     H76753  10.421   8.170   0.732  3.2133  1.8926  0.0325
  569MOL0     H76754  10.370   8.334   0.880  2.0244  3.0257  0.8926
  569MOL0     H76755  10.277   8.428   0.749  1.2699  2.5792 -0.1253
  569MOL0     H76756  10.570   8.402   0.734  0.2128  1.9659  2.3003
  569MOL0     H76757  10.464   8.529   0.677  1.3633 -1.4048 -1.7012
  569MOL0     H76758  10.532   8.499   0.961 -3.3627  1.1934  1.5645
  569MOL0     H76759  10.590   8.622   0.840  0.8350 -0.0929 -0.2894
  569MOL0     H76760  10.367   8.685   0.794 -0.8597 -1.6078 -0.4856
  569MOL0     H76761  10.300   8.586   0.926  0.1646 -1.4939 -0.0399
  569MOL0     H76762  10.497   8.807   0.982 -0.3814  1.9101 -1.1391
  569MOL0     H76763  10.419   8.688   1.089 -0.4710 -2.0104 -0.4335
  569MOL0     H76764  10.191   8.776   1.004 -0.1346  0.5118 -0.8374
  569MOL0     H76765  10.289   8.875   1.103 -2.8440 -0.7988 -0.0454
  569MOL0     H76766  10.517   8.987   0.871  1.2673  0.8582 -2.4871
  569MOL0     H76767  10.526   9.170   0.701 -0.4619 -0.0394 -0.8081
  569MOL0     H76768  10.383   9.209   0.601  0.3414  0.2507 -0.5446
  569MOL0     H76769  10.300   9.356   0.798 -0.4959 -1.8580  2.6203
  569MOL0     H76770  10.460   9.314   0.884  1.3426  0.3781 -0.9025
  569MOL0     H76771  10.457   9.530   0.800  0.3438  0.1119 -0.8265
  569MOL0     H76772  10.398   9.489   0.648 -2.0846 -2.7133  0.9127
  569MOL0     H76773  10.625   9.548   0.632 -2.1538  0.0404  0.0258
  569MOL0     H76774  10.629   9.378   0.596 -4.8501 -0.5967 -1.8658
  569MOL0     H76775  10.877   9.308   0.947  1.7492  0.2427  0.5123
  569MOL0     H76776  11.104   9.314   0.933  0.3599  2.8256  1.4914
  569MOL0     H76777  11.495   9.225   0.748 -0.5892 -0.8762  0.1432
  569MOL0     H76778  11.734   9.230   0.760 -1.0094 -1.8497  0.8426
  569MOL0     H76779  11.873   9.211   1.041  0.2220  0.5794  0.1870
  569MOL0     H76780  11.939   9.193   0.869  3.5386  1.3350 -0.9255
  569MOL0     H76781  12.076   9.327   1.102 -0.8292 -1.5380  2.5617
  569MOL0     H76782  12.116   9.163   1.042  2.4403  0.6580  0.9456
  569MOL0     H76783  12.140   9.347   0.812  0.2211 -1.6806 -0.6696
  569MOL0     H76784  12.160   9.450   0.950 -0.0570  0.4922  0.3813
  569MOL0     H76785  12.327   9.193   0.908  0.9311  0.1208  0.8124
  569MOL0     H76786  12.339   9.328   1.037  0.2062  1.0210  0.1921
  569MOL0     H76787  12.379   9.479   0.867 -0.4372 -0.7063  1.4993
  569MOL0     H76788  12.374   9.357   0.730  0.9698  2.1980 -1.0642
  569MOL0     H76789  12.564   9.290   0.941 -1.9769 -1.7549 -0.5948
  569MOL0     H76790  12.559   9.269   0.769  2.2953  0.9199 -0.3808
  569MOL0     H76791  12.585   9.552   0.820 -2.5320 -0.3161 -1.9286
  569MOL0     H76792  12.665   9.454   0.699  1.8147 -2.7885 -0.4153
  569MOL0     H76793  12.770   9.420   0.984  1.0062  1.4011  0.3837
  569MOL0     H76794  12.840   9.374   0.828 -0.6719  0.0905 -2.4843
  569MOL0     H76795  11.714   9.558   1.048  2.8519  0.0661  0.1933
  569MOL0     H76796  11.472   9.568   1.006  0.1626  1.2481 -2.2940
  569MOL0     H76797  11.083   9.586   0.588  3.6757 -0.8579  0.6432
  569MOL0     H76798  10.850   9.568   0.600  2.4309  0.1603  0.3481
  569MOL0     H76799  10.104   8.193   0.296  0.9771  0.8618  1.6760
  569MOL0     H76800   9.888   8.096   0.208  2.4673  0.7408 -0.5596
  569MOL0     H76801   9.589   7.975   0.139 -1.5075  0.6521  3.4480
  569MOL0     H76802   9.394   7.903   0.009  0.4025 -0.2779 -1.4751
  569MOL0     H76803   9.196   7.812  -0.007 -1.2839 -0.2093 -2.6524
  569MOL0     H76804   9.142   7.656   0.079 -0.2053  0.8481  0.7215
  569MOL0     H76805   9.122   7.564  -0.141  1.1531 -0.1644  0.2106
  569MOL0     H76806   9.170   7.718  -0.223  3.4259 -0.5353  0.7452
  569MOL0     H76807   8.987   7.838  -0.139  1.2818 -0.5239 -0.7612
  569MOL0     H76808   8.932   7.703  -0.034 -3.4601 -3.2645 -1.8476
  569MOL0     H76809   8.892   7.561  -0.237 -1.6101 -0.0746  3.1488
  569MOL0     H76810   8.784   7.710  -0.216 -0.2871  0.7813  3.0004
  569MOL0     H76811   8.984   7.731  -0.587  1.1946 -2.8624 -0.6555
  569MOL0     H76812   9.461   7.491   0.106 -1.5687  0.1137 -0.1562
  569MOL0     H76813   9.787   7.513   0.240  0.7891 -1.7264  3.9493
  569MOL0     H76814   9.667   7.528   0.368  1.6890 -1.0586  0.1155
  569MOL0     H76815   9.620   7.438   0.240 -4.2809  2.8817 -3.4779
  570MOL0     O76816   5.803   2.608   4.590 -0.0360  0.0399 -0.6757
  570MOL0     C76817   5.890   2.659   4.659  0.0641  0.3707 -1.1972
  570MOL0     O76818   5.864   2.723   4.776  0.3362 -0.5219 -0.3527
  570MOL0     C76819   5.733   2.748   4.812  0.4889  0.1886 -0.4166
  570MOL0     C76820   5.680   2.707   4.931 -0.2472  0.3468  0.1944
  570MOL0     C76821   5.553   2.744   4.971  0.3770 -0.7997  0.2259
  570MOL0     C76822   5.478   2.833   4.896 -0.4633 -0.4758 -0.4103
  570MOL0     O76823   5.364   2.874   4.952  0.5531 -0.2771  0.0739
  570MOL0     C76824   5.346   3.021   4.954 -0.1887 -0.2675 -0.3767
  570MOL0     C76825   5.224   3.075   5.017  0.0350  0.2303  0.1738
  570MOL0     C76826   5.218   3.227   4.997  0.7945 -0.9999 -0.3733
  570MOL0     C76827   5.091   3.295   5.070 -0.4889 -0.2960  0.0295
  570MOL0     C76828   5.099   3.274   5.227 -0.2212  0.2692 -0.5688
  570MOL0     C76829   4.979   3.355   5.284 -0.9519  0.5042 -0.0088
  570MOL0     C76830   4.951   3.315   5.436  0.2926  0.9571  0.5133
  570MOL0     C76831   4.887   3.174   5.453  1.0984  0.5449 -0.5466
  570MOL0     N76832   4.991   3.069   5.467  0.3888  0.2130  0.3526
  570MOL0     C76833   4.993   2.959   5.379  0.3115  0.3382 -0.5042
  570MOL0     C76834   5.092   2.875   5.420 -0.5167 -0.5939 -0.2358
  570MOL0     C76835   5.142   2.734   5.386  0.6699  0.9360  0.3571
  570MOL0     C76836   5.185   2.716   5.240  0.9334 -0.4207  0.3036
  570MOL0     C76837   5.230   2.569   5.214  0.0232 -0.8766  0.6530
  570MOL0     C76838   5.342   2.523   5.297 -0.5949  0.7154 -0.4188
  570MOL0     O76839   5.403   2.404   5.238  1.0675  0.1637 -0.7178
  570MOL0     C76840   5.520   2.362   5.291 -0.4091  0.1856 -0.2347
  570MOL0     C76841   5.597   2.271   5.217  0.1529 -0.5928 -0.2687
  570MOL0     C76842   5.718   2.219   5.261 -0.2072  0.1180  0.4999
  570MOL0     C76843   5.770   2.244   5.390  0.3533  0.0545 -0.2812
  570MOL0     C76844   5.885   2.175   5.445 -0.9330 -0.1061 -1.1905
  570MOL0     O76845   5.922   2.061   5.392 -0.3938  0.2014  0.4312
  570MOL0     C76846   6.053   2.011   5.403 -0.1297  0.0748 -0.7910
  570MOL0     C76847   6.084   1.879   5.430  0.9340 -0.4064  0.4843
  570MOL0     C76848   6.216   1.833   5.433  0.0024 -0.0292  1.1813
  570MOL0     C76849   6.328   1.919   5.418 -0.7469  0.9878 -0.9644
  570MOL0     O76850   6.449   1.858   5.439  0.1342  0.3617  0.1554
  570MOL0     C76851   6.572   1.929   5.424 -0.5667 -0.1709 -0.6654
  570MOL0     C76852   6.683   1.838   5.464  0.3867 -0.2895  0.0152
  570MOL0     C76853   6.818   1.908   5.441  1.1477 -0.2019  0.2840
  570MOL0     C76854   6.940   1.820   5.442  0.4734  0.3061  0.4214
  570MOL0     C76855   7.065   1.904   5.462  0.7127 -0.7545  1.2576
  570MOL0     C76856   7.193   1.822   5.477 -0.9247  0.4571 -0.3001
  570MOL0     C76857   7.310   1.920   5.509 -0.7232 -0.3236  0.5399
  570MOL0     C76858   7.440   1.851   5.538 -0.7317  1.2105  0.2633
  570MOL0    Cl76859   7.466   1.749   5.394  0.3168  0.2563  0.1565
  570MOL0     C76860   6.296   2.058   5.381 -0.4736  1.0490 -0.5268
  570MOL0     C76861   6.166   2.102   5.387  1.1044 -0.2593  0.2517
  570MOL0     O76862   5.948   2.236   5.541  0.7988  0.0339 -0.4410
  570MOL0     C76863   5.685   2.322   5.471  0.3297 -0.3721 -0.0815
  570MOL0     C76864   5.567   2.385   5.429 -0.5243  0.7248  0.6426
  570MOL0     N76865   5.149   2.933   5.538 -0.6227  0.1007 -0.0612
  570MOL0     N76866   5.095   3.051   5.553  0.2465  0.7844  0.3811
  570MOL0     C76867   5.541   2.884   4.779 -0.3310  0.7914  0.2833
  570MOL0     C76868   5.665   2.841   4.742 -0.1774  0.1097 -0.1874
  570MOL0     C76869   6.034   2.630   4.633  0.0321 -0.5653  0.6738
  570MOL0     C76870   6.131   2.653   4.737  0.0670  0.0654 -0.3854
  570MOL0     C76871   6.268   2.634   4.716  0.0627 -0.5294 -0.5119
  570MOL0     C76872   6.309   2.600   4.593  0.2286  0.7588 -0.3130
  570MOL0     O76873   6.438   2.575   4.572 -0.1179 -0.3070 -0.0291
  570MOL0     C76874   6.535   2.668   4.617 -0.1302  0.0696  0.2918
  570MOL0     C76875   6.634   2.696   4.508  0.7921 -0.4338  0.2633
  570MOL0     C76876   6.683   2.566   4.451  0.6446 -0.5424 -0.3490
  570MOL0     C76877   6.815   2.582   4.366  1.0421  0.1131  0.4306
  570MOL0     C76878   6.933   2.616   4.436 -0.2616 -0.5212 -0.0557
  570MOL0     C76879   7.041   2.628   4.489  0.5508 -0.1908 -0.2050
  570MOL0     C76880   6.218   2.562   4.493 -0.3535  0.4740 -0.0900
  570MOL0     C76881   6.078   2.574   4.510 -0.4212 -1.3529  0.9167
  570MOL0     C76882   5.991   2.543   4.393 -0.5767 -0.2100  0.6409
  570MOL0     H76883   5.748   2.638   4.981 -1.4092 -1.0374 -0.0572
  570MOL0     H76884   5.506   2.701   5.059 -0.8215  0.7814  0.4158
  570MOL0     H76885   5.433   3.063   5.006  0.3564  1.0164 -2.2285
  570MOL0     H76886   5.345   3.054   4.850 -0.1263 -2.7517 -1.2256
  570MOL0     H76887   5.221   3.046   5.122 -1.9493 -3.5038 -0.7262
  570MOL0     H76888   5.132   3.035   4.972 -0.1965  2.9461 -2.0115
  570MOL0     H76889   5.206   3.247   4.890 -2.6446  1.3396  0.2984
  570MOL0     H76890   5.309   3.268   5.042  0.0190  1.3854 -0.8496
  570MOL0     H76891   5.092   3.404   5.057 -0.2110  0.0926  2.7633
  570MOL0     H76892   4.996   3.251   5.040 -0.1452  0.0087 -1.6262
  570MOL0     H76893   5.093   3.168   5.250 -0.9844  0.9226  2.6386
  570MOL0     H76894   5.195   3.319   5.255  1.6644 -2.9745 -1.3049
  570MOL0     H76895   4.992   3.462   5.265 -0.8989  0.7845  1.5146
  570MOL0     H76896   4.884   3.324   5.240  0.0657 -2.0864 -0.5710
  570MOL0     H76897   4.893   3.395   5.482  2.5027  2.2663  1.1741
  570MOL0     H76898   5.040   3.312   5.499  1.3984 -2.1553 -0.9759
  570MOL0     H76899   4.825   3.185   5.542  1.9708  1.9647 -0.0689
  570MOL0     H76900   4.815   3.142   5.377 -0.0683  1.6757  0.0548
  570MOL0     H76901   4.923   2.943   5.298  1.1958 -1.8923 -0.8896
  570MOL0     H76902   5.234   2.719   5.444  1.5717  2.0857 -0.7025
  570MOL0     H76903   5.077   2.655   5.425  1.5264  0.0522  0.0479
  570MOL0     H76904   5.101   2.758   5.184  0.7177 -0.3683  0.6631
  570MOL0     H76905   5.265   2.787   5.214  1.0250 -0.3217  0.8509
  570MOL0     H76906   5.269   2.577   5.112  2.6083  1.3170  1.6829
  570MOL0     H76907   5.148   2.497   5.217 -1.5461  0.8666  2.4424
  570MOL0     H76908   5.307   2.507   5.399  1.3036  3.0925  0.7003
  570MOL0     H76909   5.423   2.595   5.311 -1.0645  0.9178  1.5029
  570MOL0     H76910   5.561   2.250   5.117  1.3844  0.2193 -0.9070
  570MOL0     H76911   5.764   2.152   5.188 -2.3234 -1.6762  0.7218
  570MOL0     H76912   5.998   1.813   5.441 -1.1352  1.8603 -1.2025
  570MOL0     H76913   6.239   1.728   5.445  1.3115  0.1920  0.7894
  570MOL0     H76914   6.589   1.962   5.321  2.2103  0.1321 -0.1689
  570MOL0     H76915   6.572   2.022   5.482 -3.9656  0.0894 -0.8539
  570MOL0     H76916   6.655   1.804   5.564  0.2752 -2.7103 -0.7691
  570MOL0     H76917   6.689   1.750   5.399  0.7185  0.8980 -1.6173
  570MOL0     H76918   6.822   1.959   5.344  0.1478  1.8969  1.2721
  570MOL0     H76919   6.828   1.991   5.511 -1.7328  0.1139  0.4556
  570MOL0     H76920   6.948   1.757   5.352  1.2887 -1.8813  1.9262
  570MOL0     H76921   6.929   1.749   5.525 -0.3807 -0.0747  0.0085
  570MOL0     H76922   7.053   1.961   5.555  0.8590  1.3092  0.0934
  570MOL0     H76923   7.085   1.980   5.385  0.6053 -0.2919  1.6787
  570MOL0     H76924   7.205   1.733   5.540  0.4255  1.2801  0.6419
  570MOL0     H76925   7.209   1.772   5.381  1.5107  1.0090 -0.2576
  570MOL0     H76926   7.278   1.965   5.604 -0.6085  1.5771 -0.2717
  570MOL0     H76927   7.318   1.985   5.422 -0.4819 -0.6836  0.2916
  570MOL0     H76928   7.521   1.922   5.557  0.3455 -0.2370  1.2630
  570MOL0     H76929   7.426   1.793   5.629 -0.8498  0.0894 -0.4414
  570MOL0     H76930   6.381   2.123   5.363 -0.8785  0.8238 -3.8917
  570MOL0     H76931   6.154   2.208   5.367 -0.0684 -0.4329 -0.0465
  570MOL0     H76932   5.706   2.353   5.573 -0.1226  0.7761 -0.3170
  570MOL0     H76933   5.505   2.443   5.496 -0.1884  1.2440  0.5022
  570MOL0     H76934   5.498   2.966   4.723 -5.1908 -0.9511  0.9925
  570MOL0     H76935   5.709   2.880   4.651  2.9298  1.0342  1.5959
  570MOL0     H76936   6.098   2.684   4.835 -1.2781 -1.8785 -0.1631
  570MOL0     H76937   6.341   2.651   4.794  2.4082  0.1497 -2.7321
  570MOL0     H76938   6.588   2.626   4.703 -2.6100 -1.2478  1.2607
  570MOL0     H76939   6.495   2.767   4.643  0.1108  0.4206 -0.6399
  570MOL0     H76940   6.717   2.755   4.547 -1.3710  0.7986  3.4164
  570MOL0     H76941   6.595   2.749   4.421  3.7181  1.5209 -0.0231
  570MOL0     H76942   6.609   2.519   4.386 -1.8438 -0.9499  2.5664
  570MOL0     H76943   6.711   2.492   4.528 -0.3585 -0.3422  0.2213
  570MOL0     H76944   6.827   2.484   4.317 -1.6503  1.3033 -3.0867
  570MOL0     H76945   6.796   2.641   4.275  0.8213  0.6141  0.8004
  570MOL0     H76946   7.141   2.610   4.522  0.7676 -2.6036 -1.9218
  570MOL0     H76947   6.249   2.518   4.398  1.0791  2.5820 -0.6735
  570MOL0     H76948   5.930   2.627   4.360  0.3887  0.7248  1.1600
  570MOL0     H76949   6.060   2.528   4.310  0.9756  0.2831  1.7872
  570MOL0     H76950   5.930   2.458   4.425  0.9577 -1.5278  0.2293
  571MOL0     O76951   3.459   0.336   7.735 -0.0529 -0.1025 -0.6926
  571MOL0     C76952   3.347   0.314   7.771  0.0664 -0.1548 -0.3627
  571MOL0     O76953   3.282   0.189   7.784  0.8980 -0.6711  0.3932
  571MOL0     C76954   3.345   0.085   7.719  0.6247  0.1250  0.0376
  571MOL0     C76955   3.400  -0.014   7.796 -0.9411 -0.6620  0.2701
  571MOL0     C76956   3.471  -0.119   7.729  0.8456 -0.6428 -0.6496
  571MOL0     C76957   3.477  -0.115   7.588  0.3890  0.7210 -0.7890
  571MOL0     O76958   3.540  -0.222   7.535  0.6414 -0.0807 -0.8513
  571MOL0     C76959   3.492  -0.280   7.410  0.7537  0.6252 -1.2095
  571MOL0     C76960   3.534  -0.422   7.433 -1.1744  0.6439  0.8874
  571MOL0     C76961   3.463  -0.497   7.318 -1.1951  1.2648 -0.5752
  571MOL0     C76962   3.541  -0.627   7.268  0.0995 -0.0069 -0.6935
  571MOL0     C76963   3.488  -0.678   7.142  0.2651  0.0822 -0.2820
  571MOL0     C76964   3.539  -0.824   7.124  0.2631 -0.3834 -0.7252
  571MOL0     C76965   3.490  -0.878   6.987  0.3964  1.1622 -0.1825
  571MOL0     C76966   3.505  -1.028   6.957 -0.2563 -1.1675  0.5449
  571MOL0     N76967   3.650  -1.065   6.952  0.4344  0.2859  0.0566
  571MOL0     C76968   3.747  -1.041   6.859 -0.8052 -1.0235 -0.2805
  571MOL0     C76969   3.850  -1.115   6.894  0.5299 -0.4524  0.1227
  571MOL0     C76970   3.986  -1.100   6.835 -0.0750  0.0243  0.1882
  571MOL0     C76971   4.094  -1.073   6.943  0.7936 -0.0294 -0.6179
  571MOL0     C76972   4.245  -1.072   6.887 -0.0692  0.1291 -0.6213
  571MOL0     C76973   4.329  -0.975   6.968 -0.1465 -0.2112 -0.6648
  571MOL0     O76974   4.466  -1.027   6.982 -0.0166 -0.4610 -0.4433
  571MOL0     C76975   4.500  -1.101   7.094 -0.2942  0.0132 -0.2625
  571MOL0     C76976   4.633  -1.085   7.135 -0.5379 -0.3280  0.5597
  571MOL0     C76977   4.671  -1.126   7.263  0.3165 -0.4775 -0.1608
  571MOL0     C76978   4.585  -1.199   7.345  0.0699 -0.2741 -0.1601
  571MOL0     C76979   4.640  -1.244   7.475 -0.6045  1.0121  0.3979
  571MOL0     O76980   4.772  -1.235   7.496 -0.0855  0.1633 -0.8965
  571MOL0     C76981   4.832  -1.233   7.623  0.6112 -0.6772  0.6278
  571MOL0     C76982   4.766  -1.222   7.743 -0.1374  0.6788 -0.3396
  571MOL0     C76983   4.832  -1.228   7.870  0.0660 -0.9761 -0.2585
  571MOL0     C76984   4.972  -1.242   7.869 -0.7149 -0.1333 -0.1274
  571MOL0     O76985   5.059  -1.255   7.975 -0.3123 -0.3159 -0.0364
  571MOL0     C76986   5.006  -1.268   8.108  0.2481 -0.2079  0.7718
  571MOL0     C76987   5.119  -1.304   8.202 -0.3200 -0.1567 -0.0714
  571MOL0     C76988   5.077  -1.275   8.348  0.5006 -0.2356  0.1706
  571MOL0     C76989   5.192  -1.288   8.451 -0.9247  0.1081  0.3808
  571MOL0     C76990   5.153  -1.211   8.584  0.1888 -1.4913  0.6034
  571MOL0     C76991   5.269  -1.204   8.691 -0.2150 -0.3005 -0.1977
  571MOL0     C76992   5.404  -1.165   8.646  0.1297  0.3233 -0.0478
  571MOL0     C76993   5.407  -1.022   8.583 -0.3614  0.4699 -0.6429
  571MOL0    Cl76994   5.571  -0.991   8.513 -0.1645 -0.5391 -0.1511
  571MOL0     C76995   5.040  -1.259   7.749 -0.6727  0.8857  0.6611
  571MOL0     C76996   4.972  -1.259   7.626 -0.7799  0.7731 -0.0160
  571MOL0     O76997   4.559  -1.286   7.556 -0.0247  0.6783  0.2605
  571MOL0     C76998   4.454  -1.224   7.305 -0.2608  0.2337 -0.0121
  571MOL0     C76999   4.415  -1.178   7.173 -0.0660 -0.2910  0.1592
  571MOL0     N77000   3.811  -1.180   7.012  0.3133 -0.3423 -0.9974
  571MOL0     N77001   3.688  -1.155   7.047 -0.8771 -0.1718  0.0529
  571MOL0     C77002   3.426  -0.013   7.514 -0.2354  0.8552 -0.9789
  571MOL0     C77003   3.360   0.089   7.578  0.1768  0.3846 -0.0756
  571MOL0     C77004   3.271   0.424   7.840 -0.2984 -1.0430  0.0589
  571MOL0     C77005   3.153   0.474   7.780  0.1512  0.1092  0.2381
  571MOL0     C77006   3.091   0.590   7.823  0.1805 -0.8742 -0.3061
  571MOL0     C77007   3.148   0.658   7.931 -0.1568  0.4999 -0.0739
  571MOL0     O77008   3.092   0.777   7.980  0.1255 -0.1779  0.3344
  571MOL0     C77009   3.069   0.775   8.126 -0.9624 -0.7088  0.0011
  571MOL0     C77010   2.953   0.874   8.168  0.1978  1.0091 -0.2826
  571MOL0     C77011   2.919   0.869   8.320 -0.0010 -0.3977 -0.1552
  571MOL0     C77012   2.832   0.984   8.359  0.9546 -0.4158  0.5229
  571MOL0     C77013   2.693   0.968   8.311  0.4618 -0.4882  0.2482
  571MOL0     C77014   2.591   0.923   8.254  0.2845 -0.3405 -0.3539
  571MOL0     C77015   3.255   0.600   7.998 -0.2615 -0.2015  0.0515
  571MOL0     C77016   3.314   0.482   7.960  0.3998 -0.5287  0.2505
  571MOL0     C77017   3.415   0.411   8.040 -0.6601 -0.0931 -0.3739
  571MOL0     H77018   3.384  -0.012   7.903 -0.9430  2.4847  0.3158
  571MOL0     H77019   3.538  -0.195   7.766  0.9126 -1.0399 -1.5562
  571MOL0     H77020   3.386  -0.259   7.393 -0.2178  0.9055  3.6925
  571MOL0     H77021   3.544  -0.235   7.325  3.4064  0.6544  0.3176
  571MOL0     H77022   3.484  -0.448   7.527 -0.9977  1.0134  1.0858
  571MOL0     H77023   3.641  -0.435   7.446 -1.2723 -1.1072  0.1245
  571MOL0     H77024   3.447  -0.445   7.223  2.1107  0.1741 -1.8791
  571MOL0     H77025   3.365  -0.526   7.356 -1.1412  0.4507 -1.0348
  571MOL0     H77026   3.642  -0.591   7.248  1.6611 -2.6020  1.8031
  571MOL0     H77027   3.548  -0.704   7.345  0.5552  0.8179  0.1061
  571MOL0     H77028   3.380  -0.662   7.138  0.2778 -0.0816 -1.9659
  571MOL0     H77029   3.530  -0.625   7.055 -2.0384 -1.4823 -2.4823
  571MOL0     H77030   3.647  -0.810   7.133 -0.2507  4.3303  1.4746
  571MOL0     H77031   3.508  -0.891   7.204  0.3967  1.2610  0.7775
  571MOL0     H77032   3.542  -0.829   6.904 -2.2447  2.8297 -0.9552
  571MOL0     H77033   3.389  -0.839   6.971 -0.0740 -0.6432 -1.9005
  571MOL0     H77034   3.452  -1.087   7.033  0.6371  0.3279  2.4059
  571MOL0     H77035   3.467  -1.041   6.855  1.6480  0.5963 -0.4750
  571MOL0     H77036   3.737  -0.970   6.777 -1.3131 -2.1812 -1.2520
  571MOL0     H77037   3.996  -1.204   6.802 -1.2566 -0.4323  1.2092
  571MOL0     H77038   3.994  -1.032   6.749  0.4808 -0.6735 -0.3331
  571MOL0     H77039   4.070  -0.983   6.999 -0.6042 -1.8754  1.9675
  571MOL0     H77040   4.091  -1.161   7.009  2.2484 -0.1151 -0.6158
  571MOL0     H77041   4.252  -1.054   6.779 -1.2478 -0.3605 -0.7882
  571MOL0     H77042   4.284  -1.171   6.913 -1.0708  0.3376  1.9651
  571MOL0     H77043   4.284  -0.959   7.066  0.8443  4.6316 -0.7902
  571MOL0     H77044   4.328  -0.876   6.922  3.0293 -0.5222 -1.6642
  571MOL0     H77045   4.705  -1.046   7.063 -3.0560 -0.7824 -2.4558
  571MOL0     H77046   4.772  -1.107   7.298  0.5779 -0.4919 -0.8978
  571MOL0     H77047   4.664  -1.192   7.760  0.3532  1.2207  2.0703
  571MOL0     H77048   4.790  -1.206   7.968  1.7670  1.5602 -0.0151
  571MOL0     H77049   4.962  -1.174   8.143 -1.2802 -0.2680 -0.7877
  571MOL0     H77050   4.925  -1.342   8.117  0.7094 -0.6691  1.1552
  571MOL0     H77051   5.152  -1.407   8.192 -0.5430 -0.1178 -1.2922
  571MOL0     H77052   5.209  -1.245   8.185  1.3712 -2.7803 -0.7158
  571MOL0     H77053   5.045  -1.171   8.355 -1.7665 -0.8570 -0.3439
  571MOL0     H77054   4.988  -1.336   8.367  1.7119 -3.1398 -2.5485
  571MOL0     H77055   5.286  -1.249   8.411 -1.0376  1.4537  1.3575
  571MOL0     H77056   5.206  -1.392   8.480  0.4281 -0.1218 -0.9763
  571MOL0     H77057   5.072  -1.275   8.619  0.2626 -0.4369  2.8184
  571MOL0     H77058   5.106  -1.113   8.571  0.7757 -0.9775  2.1485
  571MOL0     H77059   5.243  -1.128   8.765  2.1215  0.0227  0.3607
  571MOL0     H77060   5.282  -1.297   8.746  5.2204  0.4108  0.2169
  571MOL0     H77061   5.430  -1.234   8.566  0.3285 -2.9018  2.6035
  571MOL0     H77062   5.469  -1.193   8.730 -1.2323 -1.5009  0.4522
  571MOL0     H77063   5.336  -1.010   8.501 -0.3604  0.2219 -0.6801
  571MOL0     H77064   5.390  -0.951   8.664 -1.4027  0.2002 -0.6090
  571MOL0     H77065   5.144  -1.290   7.752 -1.1857 -0.8901  1.6247
  571MOL0     H77066   5.024  -1.281   7.534  1.0268  3.3073  0.2889
  571MOL0     H77067   4.384  -1.279   7.367 -0.7229  2.2318  1.3635
  571MOL0     H77068   4.318  -1.203   7.132  0.0477 -1.1438  0.3894
  571MOL0     H77069   3.451  -0.010   7.408 -2.0586  2.3834 -1.4310
  571MOL0     H77070   3.323   0.174   7.521  2.2278  1.2948 -0.1531
  571MOL0     H77071   3.120   0.424   7.689 -2.4136  0.7061  0.7816
  571MOL0     H77072   3.003   0.635   7.778  1.5880  1.0037 -1.3199
  571MOL0     H77073   3.159   0.803   8.181 -0.1599  2.5304 -2.6284
  571MOL0     H77074   3.056   0.670   8.156  2.4088 -1.1465  0.2970
  571MOL0     H77075   2.860   0.853   8.115  0.6058 -1.9532  0.0080
  571MOL0     H77076   2.986   0.976   8.146  0.5099  1.7852  3.1466
  571MOL0     H77077   3.010   0.854   8.379 -0.0726  1.7271  0.5617
  571MOL0     H77078   2.860   0.778   8.337 -0.1680  0.0873  2.3942
  571MOL0     H77079   2.826   0.990   8.468 -1.0155 -0.9728  0.5014
  571MOL0     H77080   2.870   1.076   8.316  1.0441 -0.9613 -0.6015
  571MOL0     H77081   2.503   0.882   8.208  0.4229 -0.1829 -0.7586
  571MOL0     H77082   3.291   0.658   8.083 -1.7048  0.5099  0.2067
  571MOL0     H77083   3.426   0.453   8.141  1.9811 -1.5105  0.0133
  571MOL0     H77084   3.393   0.304   8.040  0.4568 -0.3354 -0.8451
  571MOL0     H77085   3.513   0.427   7.994  0.7242 -2.3417  1.5786
  572MOL0     O77086   5.776   1.093   4.921 -0.0176 -0.7544 -0.2163
  572MOL0     C77087   5.806   0.999   4.998  0.7082 -0.6105 -0.1564
  572MOL0     O77088   5.717   0.911   5.053 -0.0501  0.1106  0.7364
  572MOL0     C77089   5.589   0.922   5.009 -0.1489  0.6174  0.9953
  572MOL0     C77090   5.495   0.983   5.091  0.3765  0.3400  0.0371
  572MOL0     C77091   5.360   0.983   5.064 -1.2164 -0.4900 -0.2906
  572MOL0     C77092   5.320   0.929   4.938  0.3708 -0.3680 -0.0784
  572MOL0     O77093   5.186   0.922   4.911  0.3356 -1.2612 -0.6334
  572MOL0     C77094   5.136   1.034   4.844  0.5390 -0.1617  0.4848
  572MOL0     C77095   5.001   1.001   4.775  0.0225  1.1954 -0.7254
  572MOL0     C77096   4.908   1.124   4.775 -0.4499 -0.0310 -0.4318
  572MOL0     C77097   4.793   1.106   4.686 -0.5591 -0.4938 -0.0829
  572MOL0     C77098   4.720   1.242   4.656 -0.1663 -0.4757  0.1971
  572MOL0     C77099   4.586   1.228   4.580  0.4519 -0.5005  0.2630
  572MOL0     C77100   4.533   1.372   4.537 -0.6955  0.6606 -0.0773
  572MOL0     C77101   4.402   1.329   4.461 -0.0170 -0.4395  0.0344
  572MOL0     N77102   4.362   1.422   4.360  0.3141  0.2281 -0.6366
  572MOL0     C77103   4.380   1.553   4.357 -0.5399 -0.7047 -0.0051
  572MOL0     C77104   4.310   1.596   4.253 -0.4237  0.5563 -0.6260
  572MOL0     C77105   4.293   1.726   4.197  0.1064  0.1743  0.5146
  572MOL0     C77106   4.409   1.755   4.092  0.2910 -0.0447  0.2661
  572MOL0     C77107   4.390   1.874   3.994 -0.4630  0.5488 -0.3032
  572MOL0     C77108   4.512   1.877   3.901 -0.0134 -0.6170  0.8413
  572MOL0     O77109   4.541   1.756   3.823 -0.0315 -1.1063  0.1171
  572MOL0     C77110   4.446   1.712   3.737  0.1840 -0.5315 -0.1452
  572MOL0     C77111   4.342   1.793   3.684 -0.2814 -0.5486  1.1427
  572MOL0     C77112   4.251   1.746   3.586 -0.5009 -0.3019 -0.7548
  572MOL0     C77113   4.280   1.627   3.526 -0.2158  0.5350 -0.5513
  572MOL0     C77114   4.186   1.579   3.415 -0.5429  0.1562 -0.6083
  572MOL0     O77115   4.055   1.610   3.425  0.0431 -0.4499  0.1700
  572MOL0     C77116   3.967   1.550   3.344  0.0988 -0.4351 -0.3949
  572MOL0     C77117   3.954   1.412   3.350  1.5689  0.2151 -0.6961
  572MOL0     C77118   3.846   1.353   3.285  0.0630  0.0674 -0.1060
  572MOL0     C77119   3.755   1.437   3.216  0.2398  0.3731  0.6777
  572MOL0     O77120   3.638   1.386   3.161  0.0882 -0.2433  0.1193
  572MOL0     C77121   3.656   1.267   3.084 -0.0262  0.1156  0.5460
  572MOL0     C77122   3.570   1.266   2.950 -0.2602 -0.7436 -0.3572
  572MOL0     C77123   3.577   1.393   2.876 -0.3302 -0.0640  0.2861
  572MOL0     C77124   3.541   1.373   2.726  0.0913 -0.3266  0.4398
  572MOL0     C77125   3.511   1.510   2.655  0.0818 -0.4294 -0.5357
  572MOL0     C77126   3.372   1.560   2.691 -0.3313  0.4790  0.0166
  572MOL0     C77127   3.327   1.691   2.618 -0.6485  1.6029 -0.7466
  572MOL0     C77128   3.412   1.808   2.664  0.1786 -0.5965 -0.0813
  572MOL0    Cl77129   3.404   1.842   2.840 -0.1184  0.1417  0.2776
  572MOL0     C77130   3.774   1.572   3.207  0.8705 -0.3214  0.1793
  572MOL0     C77131   3.882   1.633   3.276  0.4210  0.1894  0.5752
  572MOL0     O77132   4.235   1.506   3.334 -0.9691 -0.0530 -0.3576
  572MOL0     C77133   4.389   1.549   3.572 -1.1342 -0.5610  0.2135
  572MOL0     C77134   4.469   1.594   3.675  0.5375 -0.6576 -0.6854
  572MOL0     N77135   4.251   1.485   4.200 -0.1812  0.2513  0.2041
  572MOL0     N77136   4.269   1.380   4.276 -0.3447  0.6060  0.4755
  572MOL0     C77137   5.407   0.877   4.852 -1.1978  0.3277 -0.3213
  572MOL0     C77138   5.546   0.874   4.882  0.2952  0.0019  0.5276
  572MOL0     C77139   5.944   1.004   5.052 -0.6331  0.2587  1.6636
  572MOL0     C77140   6.009   1.134   5.048 -0.2832  0.2287 -0.0199
  572MOL0     C77141   6.139   1.140   5.105  0.9023  0.0889 -0.7045
  572MOL0     C77142   6.201   1.027   5.169 -0.1636  0.2416 -0.4118
  572MOL0     O77143   6.314   1.026   5.248  0.1635  0.0287 -0.3410
  572MOL0     C77144   6.362   1.152   5.286  0.0305 -0.5220  0.4842
  572MOL0     C77145   6.457   1.157   5.411 -0.2694 -1.4249 -0.3693
  572MOL0     C77146   6.597   1.099   5.383  0.4988 -0.1249  0.2155
  572MOL0     C77147   6.680   1.080   5.507 -0.4690 -0.0843  0.1806
  572MOL0     C77148   6.819   1.050   5.474  0.5280  0.3754  0.0663
  572MOL0     C77149   6.938   1.042   5.446  0.1023 -1.0252 -1.0259
  572MOL0     C77150   6.133   0.908   5.165 -1.0650  0.0799  0.2773
  572MOL0     C77151   6.008   0.894   5.102 -0.6162 -0.1134  0.6244
  572MOL0     C77152   5.955   0.761   5.108 -0.4246 -0.0328 -0.5498
  572MOL0     H77153   5.534   1.007   5.189  1.3573 -1.9067  0.2740
  572MOL0     H77154   5.287   1.020   5.135 -1.4112 -0.1351 -0.6685
  572MOL0     H77155   5.116   1.112   4.918 -0.6824 -1.3619  1.4705
  572MOL0     H77156   5.213   1.068   4.773  0.9393  0.9128  1.4058
  572MOL0     H77157   4.958   0.916   4.828  3.3390  0.0748  0.4283
  572MOL0     H77158   5.016   0.963   4.673 -0.1796 -2.3362  0.4577
  572MOL0     H77159   4.964   1.212   4.742  0.3029  0.5313  2.0849
  572MOL0     H77160   4.868   1.153   4.873 -2.7021 -1.6044 -0.8248
  572MOL0     H77161   4.823   1.062   4.590 -1.3100 -0.0345 -0.5448
  572MOL0     H77162   4.719   1.035   4.724  0.5375 -2.0665 -0.7645
  572MOL0     H77163   4.709   1.313   4.738  1.8617 -0.4275  0.4766
  572MOL0     H77164   4.797   1.289   4.593  0.5802 -2.3862 -0.3809
  572MOL0     H77165   4.602   1.167   4.491  1.7422 -2.9322  2.0424
  572MOL0     H77166   4.511   1.177   4.641  1.9198 -4.7984 -1.2003
  572MOL0     H77167   4.608   1.406   4.465 -2.2394 -1.0871 -2.6787
  572MOL0     H77168   4.519   1.433   4.627 -0.1104 -0.5966  0.8974
  572MOL0     H77169   4.417   1.235   4.408 -1.7359 -0.9337  0.3533
  572MOL0     H77170   4.319   1.303   4.528  0.3151 -0.1116  0.5778
  572MOL0     H77171   4.432   1.620   4.424 -1.5785 -0.9261  1.0460
  572MOL0     H77172   4.196   1.719   4.146  1.7671 -0.7900 -2.7897
  572MOL0     H77173   4.274   1.802   4.273  0.1439 -0.4081  1.1165
  572MOL0     H77174   4.505   1.769   4.141 -0.5586  3.4989  1.2258
  572MOL0     H77175   4.415   1.671   4.023  1.9089 -0.4326  0.8394
  572MOL0     H77176   4.388   1.958   4.064 -2.7679  1.7467 -1.7012
  572MOL0     H77177   4.303   1.868   3.928 -3.1211 -0.3756  3.0531
  572MOL0     H77178   4.603   1.907   3.955  1.6841 -0.5747 -1.8828
  572MOL0     H77179   4.480   1.954   3.830 -0.5235 -2.0438 -0.5396
  572MOL0     H77180   4.331   1.899   3.702  1.8001  0.3443 -1.9149
  572MOL0     H77181   4.167   1.807   3.555 -0.6251  1.0951  2.0372
  572MOL0     H77182   4.012   1.351   3.419 -0.2162 -0.2582  0.4616
  572MOL0     H77183   3.826   1.246   3.293  1.5158 -0.5858 -3.5483
  572MOL0     H77184   3.761   1.263   3.052 -0.0428  1.6337  0.2453
  572MOL0     H77185   3.639   1.178   3.146  0.0161  0.4331  1.0187
  572MOL0     H77186   3.603   1.178   2.892  1.2599 -1.4721  1.5093
  572MOL0     H77187   3.467   1.253   2.982 -1.3317  2.3237 -2.1725
  572MOL0     H77188   3.509   1.464   2.922  0.7240  1.5104 -0.5109
  572MOL0     H77189   3.677   1.438   2.881 -0.7875  1.3534 -2.1855
  572MOL0     H77190   3.460   1.302   2.710  0.1826 -0.7042  1.5800
  572MOL0     H77191   3.628   1.329   2.676 -0.5381 -1.8744  0.6535
  572MOL0     H77192   3.520   1.501   2.546  2.0092 -1.1501 -0.3583
  572MOL0     H77193   3.572   1.588   2.700 -0.5343 -0.2780  0.0517
  572MOL0     H77194   3.316   1.474   2.654  0.6269  0.3825 -1.3026
  572MOL0     H77195   3.358   1.570   2.799  1.0944 -3.2274  0.6765
  572MOL0     H77196   3.222   1.702   2.647 -0.7636  2.4173 -1.4093
  572MOL0     H77197   3.338   1.675   2.510  1.4925 -1.2031 -0.2254
  572MOL0     H77198   3.516   1.781   2.645  0.0672 -1.0504 -0.0502
  572MOL0     H77199   3.385   1.905   2.621 -1.0565  0.0561  1.9980
  572MOL0     H77200   3.703   1.642   3.162  0.0294  1.0465  3.3488
  572MOL0     H77201   3.892   1.741   3.273  2.1068  0.1837  2.8810
  572MOL0     H77202   4.400   1.453   3.522 -2.7084 -0.2218 -0.8763
  572MOL0     H77203   4.557   1.551   3.722  1.4889  3.5445  1.9377
  572MOL0     H77204   5.376   0.824   4.762 -1.4959  2.1578 -1.3493
  572MOL0     H77205   5.611   0.824   4.812  0.8750  0.1514  0.9535
  572MOL0     H77206   5.951   1.222   5.021  1.2269  2.5544  3.5537
  572MOL0     H77207   6.186   1.237   5.104 -3.5637  2.6058  1.9006
  572MOL0     H77208   6.277   1.214   5.313 -0.7646 -1.1007 -0.5900
  572MOL0     H77209   6.405   1.206   5.201 -1.0006 -0.5690 -0.0798
  572MOL0     H77210   6.405   1.112   5.496 -1.6329  0.9429  0.1219
  572MOL0     H77211   6.471   1.262   5.435  1.6944 -1.3001 -1.8188
  572MOL0     H77212   6.640   1.175   5.318  1.2935 -0.4386  0.3624
  572MOL0     H77213   6.586   1.006   5.325  0.8571  0.7847 -1.3609
  572MOL0     H77214   6.674   1.164   5.577 -0.2479  0.7594 -0.7895
  572MOL0     H77215   6.637   0.992   5.557  0.8645 -0.7999  0.1140
  572MOL0     H77216   7.041   1.037   5.418  0.5669 -0.1121  0.4017
  572MOL0     H77217   6.188   0.832   5.220  1.3260  0.0946 -1.9085
  572MOL0     H77218   5.886   0.754   5.192  2.1317  1.9344  1.9318
  572MOL0     H77219   5.898   0.724   5.023 -0.3237 -0.9891 -0.2060
  572MOL0     H77220   6.045   0.700   5.118 -0.8672 -0.7697 -1.0516
  573MOL0     O77221   4.688   5.417   4.657  0.0853  0.7957 -0.0301
  573MOL0     C77222   4.736   5.309   4.650  0.2496  0.6625 -0.5339
  573MOL0     O77223   4.866   5.280   4.679  0.2410  0.6213 -0.5107
  573MOL0     C77224   4.963   5.373   4.708 -0.0628 -0.0415  1.1823
  573MOL0     C77225   4.953   5.487   4.785 -0.1842  0.0092 -0.1102
  573MOL0     C77226   5.070   5.557   4.843 -0.3135 -0.8219 -0.1096
  573MOL0     C77227   5.192   5.513   4.801  0.0755 -1.1863 -0.3848
  573MOL0     O77228   5.296   5.593   4.833  0.3133 -0.0899 -0.3183
  573MOL0     C77229   5.392   5.533   4.913  0.2925  0.5160 -0.8739
  573MOL0     C77230   5.496   5.644   4.931  0.5398  0.4107  0.5689
  573MOL0     C77231   5.573   5.665   4.799 -1.0150  0.3099 -0.8165
  573MOL0     C77232   5.692   5.746   4.818  0.3643 -0.2592 -0.6668
  573MOL0     C77233   5.809   5.663   4.880 -0.8667  0.3641  0.1296
  573MOL0     C77234   5.925   5.756   4.894 -1.2965  0.6340 -0.1532
  573MOL0     C77235   6.059   5.682   4.932 -0.1392  0.0227 -0.0555
  573MOL0     C77236   6.143   5.760   5.033  0.5711  0.5508 -0.1850
  573MOL0     N77237   6.249   5.844   4.968  0.0957 -0.1445 -0.4491
  573MOL0     C77238   6.269   5.970   5.009  0.4216  0.9688  0.0297
  573MOL0     C77239   6.383   6.008   4.938  0.4245  0.4727  0.8447
  573MOL0     C77240   6.449   6.138   4.939 -0.0408  0.4904 -0.9698
  573MOL0     C77241   6.590   6.136   5.011 -0.0940  1.0545  0.1135
  573MOL0     C77242   6.694   6.061   4.922 -0.4109  0.4365 -0.1406
  573MOL0     C77243   6.828   6.103   4.977  0.2756  0.3729 -0.2772
  573MOL0     O77244   6.941   6.071   4.897  0.3629  0.1820 -0.0667
  573MOL0     C77245   7.062   6.061   4.960 -0.3072  0.7487 -0.2270
  573MOL0     C77246   7.077   5.988   5.080  0.2982  0.0862  0.0223
  573MOL0     C77247   7.183   5.991   5.160 -0.8417  0.2454  0.7515
  573MOL0     C77248   7.298   6.058   5.110 -0.8624  0.7194 -0.0758
  573MOL0     C77249   7.432   6.056   5.182 -0.0576 -0.0788  0.0827
  573MOL0     O77250   7.526   6.151   5.140  0.2481  0.9971  0.0668
  573MOL0     C77251   7.650   6.117   5.171  0.9186 -0.2096  0.6926
  573MOL0     C77252   7.738   6.067   5.074 -0.3472  0.2359  0.1529
  573MOL0     C77253   7.872   6.047   5.110 -0.1319 -0.1293  0.2963
  573MOL0     C77254   7.929   6.084   5.235 -0.5675 -0.1188  0.7263
  573MOL0     O77255   8.064   6.077   5.260  0.4227 -0.1773 -0.2878
  573MOL0     C77256   8.138   5.992   5.169  0.3431 -0.0460 -0.3869
  573MOL0     C77257   8.279   5.992   5.212  0.4122  0.4489 -0.8710
  573MOL0     C77258   8.357   6.126   5.204  0.2405  0.2808 -0.2106
  573MOL0     C77259   8.499   6.094   5.248  0.3628  0.4648  0.4789
  573MOL0     C77260   8.594   6.217   5.267  0.2862  0.0769  0.6259
  573MOL0     C77261   8.730   6.158   5.295  0.2681  0.2267 -0.1105
  573MOL0     C77262   8.822   6.234   5.392 -0.8743  0.0234 -0.1603
  573MOL0     C77263   8.973   6.198   5.394  0.0599  0.6042  0.4518
  573MOL0    Cl77264   9.063   6.277   5.261 -0.3856 -0.5824  0.6166
  573MOL0     C77265   7.836   6.132   5.334  0.6955 -1.3087  0.0524
  573MOL0     C77266   7.702   6.135   5.305 -0.0714 -0.4475  0.7774
  573MOL0     O77267   7.451   5.979   5.271 -0.2133 -0.0761  0.3192
  573MOL0     C77268   7.292   6.126   4.985 -0.2380  0.1673 -0.0052
  573MOL0     C77269   7.172   6.127   4.913  0.3471  0.0311 -0.3284
  573MOL0     N77270   6.429   5.903   4.858  0.5818 -0.1078 -0.3158
  573MOL0     N77271   6.343   5.810   4.871  0.4767  0.1447 -0.0680
  573MOL0     C77272   5.206   5.404   4.717  0.5920  0.7430 -0.0486
  573MOL0     C77273   5.091   5.326   4.679  0.1835  0.0518  0.9117
  573MOL0     C77274   4.646   5.198   4.598 -0.7246 -0.4127  0.3804
  573MOL0     C77275   4.518   5.230   4.541 -0.2071  0.0382  0.3679
  573MOL0     C77276   4.431   5.128   4.499  0.4078  0.1611 -0.2358
  573MOL0     C77277   4.469   4.994   4.493 -0.4554  0.2508 -0.0675
  573MOL0     O77278   4.392   4.897   4.433 -0.0972  0.3732 -0.5939
  573MOL0     C77279   4.249   4.910   4.433 -0.4757  0.6400 -0.5242
  573MOL0     C77280   4.193   4.842   4.561 -0.7700 -0.6258  0.0905
  573MOL0     C77281   4.170   4.687   4.545  0.3929  0.2954  0.3343
  573MOL0     C77282   4.082   4.661   4.424 -0.5616  0.1183 -1.4134
  573MOL0     C77283   3.955   4.743   4.428  0.9847 -0.0851  0.4937
  573MOL0     C77284   3.842   4.796   4.448  0.2463 -0.7410  0.4046
  573MOL0     C77285   4.590   4.969   4.543  0.3209  0.2177 -0.3737
  573MOL0     C77286   4.688   5.062   4.590  0.7622 -0.5553 -0.6293
  573MOL0     C77287   4.821   5.006   4.646 -0.0194  0.3725  0.8154
  573MOL0     H77288   4.859   5.533   4.812 -0.2892  0.7209 -1.5637
  573MOL0     H77289   5.061   5.642   4.910 -0.4806 -1.5058  0.7500
  573MOL0     H77290   5.340   5.516   5.007  2.1210 -0.3436  0.0405
  573MOL0     H77291   5.429   5.445   4.861 -2.0984 -0.4807 -1.0083
  573MOL0     H77292   5.563   5.614   5.012  1.7380  0.6075 -0.3313
  573MOL0     H77293   5.438   5.736   4.946  0.5946  0.7447 -1.1141
  573MOL0     H77294   5.504   5.702   4.723 -0.0952  0.7258 -1.4721
  573MOL0     H77295   5.622   5.578   4.755  3.6975  2.4939 -0.5015
  573MOL0     H77296   5.708   5.798   4.723 -3.4260 -0.3787 -1.5349
  573MOL0     H77297   5.671   5.836   4.878  1.3158  1.3577 -2.6351
  573MOL0     H77298   5.781   5.608   4.970 -0.0708  1.6536  1.2027
  573MOL0     H77299   5.835   5.584   4.809 -0.9976  1.3796 -1.0888
  573MOL0     H77300   5.948   5.816   4.806 -0.5302  4.6485  2.5034
  573MOL0     H77301   5.905   5.835   4.967  1.3922  2.4863 -1.2967
  573MOL0     H77302   6.108   5.642   4.843  0.8559  2.2139 -0.5610
  573MOL0     H77303   6.037   5.586   4.980 -1.5879 -1.9821 -4.2058
  573MOL0     H77304   6.069   5.810   5.097  0.7303 -1.0459  1.3402
  573MOL0     H77305   6.188   5.695   5.108  2.7124  1.3033 -0.7603
  573MOL0     H77306   6.213   6.032   5.079  0.2957  0.7767  0.0987
  573MOL0     H77307   6.463   6.174   4.836 -0.2687 -2.2257 -2.0370
  573MOL0     H77308   6.389   6.207   4.999 -0.9640 -1.3299  0.2966
  573MOL0     H77309   6.614   6.241   5.031 -0.6433  1.3554 -0.7395
  573MOL0     H77310   6.586   6.087   5.109  1.6508 -1.6405 -1.0433
  573MOL0     H77311   6.693   6.098   4.819  0.1576 -0.6074 -0.5351
  573MOL0     H77312   6.682   5.953   4.932 -1.3542  0.4557 -0.9237
  573MOL0     H77313   6.842   6.042   5.067 -1.7741 -2.0788 -1.5128
  573MOL0     H77314   6.831   6.209   5.002 -0.8073  0.3200  0.1244
  573MOL0     H77315   6.998   5.918   5.105 -0.4218 -0.4707 -3.4059
  573MOL0     H77316   7.191   5.943   5.257  0.0802  1.3319  1.2332
  573MOL0     H77317   7.717   6.031   4.974  2.1291 -3.0050  0.6501
  573MOL0     H77318   7.936   6.015   5.028 -0.9394 -1.4904  0.1685
  573MOL0     H77319   8.108   5.887   5.162  2.1236 -0.4804 -3.2942
  573MOL0     H77320   8.127   6.015   5.063  1.8849  3.4941  0.0727
  573MOL0     H77321   8.280   5.957   5.316  0.9876  0.3328 -0.9093
  573MOL0     H77322   8.334   5.926   5.144  1.1989  1.6467 -1.4204
  573MOL0     H77323   8.360   6.172   5.106  4.6900 -1.1430 -0.9588
  573MOL0     H77324   8.312   6.202   5.268  1.2878  1.1660 -0.5060
  573MOL0     H77325   8.541   6.021   5.179 -1.6842  1.7254 -2.3125
  573MOL0     H77326   8.495   6.037   5.341 -1.7288 -0.0276  0.1420
  573MOL0     H77327   8.546   6.276   5.345 -0.0707 -0.1591  0.5853
  573MOL0     H77328   8.591   6.275   5.174 -1.7889  1.2960  1.3939
  573MOL0     H77329   8.721   6.063   5.348 -0.1031  0.1075 -0.3829
  573MOL0     H77330   8.789   6.142   5.204  1.8853  0.1431  0.9202
  573MOL0     H77331   8.797   6.207   5.495 -0.1228 -0.1860 -0.0258
  573MOL0     H77332   8.805   6.341   5.378 -2.0735  0.2058  2.1273
  573MOL0     H77333   9.005   6.231   5.493  0.8881  0.5006  0.2247
  573MOL0     H77334   8.990   6.090   5.383 -1.8534  0.4385 -1.7193
  573MOL0     H77335   7.852   6.151   5.439 -2.4988 -5.2281  1.5200
  573MOL0     H77336   7.638   6.167   5.386 -4.2012 -2.0471 -1.5278
  573MOL0     H77337   7.382   6.178   4.956 -1.5006  1.7406 -1.2782
  573MOL0     H77338   7.156   6.179   4.820 -3.8618  3.5466  1.9907
  573MOL0     H77339   5.298   5.367   4.672 -1.1459 -2.4811 -1.2674
  573MOL0     H77340   5.109   5.231   4.628 -0.1488  0.1754  0.5571
  573MOL0     H77341   4.489   5.332   4.515  1.5006  0.6744  0.8198
  573MOL0     H77342   4.334   5.163   4.468  0.8346  3.0237  1.3099
  573MOL0     H77343   4.203   4.862   4.346 -0.2634 -0.3545 -0.1092
  573MOL0     H77344   4.215   5.013   4.418  0.3139  0.7823 -1.4357
  573MOL0     H77345   4.098   4.890   4.586 -0.7489 -1.0985  1.1429
  573MOL0     H77346   4.262   4.870   4.641  0.0478  1.2130 -1.1781
  573MOL0     H77347   4.140   4.644   4.641  2.2419 -1.2603  0.2761
  573MOL0     H77348   4.267   4.642   4.523  1.9044  3.3568  0.1151
  573MOL0     H77349   4.140   4.662   4.331  1.8922 -2.3500 -0.0272
  573MOL0     H77350   4.056   4.556   4.434  2.5992 -0.8072 -1.9802
  573MOL0     H77351   3.747   4.833   4.480  0.3929 -1.0418  1.2073
  573MOL0     H77352   4.620   4.865   4.550 -3.8067 -1.0290  2.3297
  573MOL0     H77353   4.838   5.010   4.754  1.5745 -0.6578  0.6225
  573MOL0     H77354   4.821   4.899   4.622  2.7876 -0.1412  2.5763
  573MOL0     H77355   4.903   5.055   4.593  0.6323 -3.1956 -1.8450
  574MOL0     O77356   1.271  11.367   8.109  0.3333 -0.3338  0.2840
  574MOL0     C77357   1.321  11.274   8.057  0.1929 -0.1904 -0.6903
  574MOL0     O77358   1.256  11.163   8.013 -0.1495  0.1131  0.0962
  574MOL0     C77359   1.122  11.183   7.992 -0.3654 -0.0573  0.2361
  574MOL0     C77360   1.073  11.274   7.900 -0.0202  0.4236 -0.1074
  574MOL0     C77361   0.933  11.286   7.890  0.0266 -0.1996  1.3083
  574MOL0     C77362   0.848  11.208   7.959  0.0598  0.6944 -0.1874
  574MOL0     O77363   0.711  11.217   7.957  0.2584 -0.3245  0.0612
  574MOL0     C77364   0.649  11.270   7.830 -0.6146  0.5995  0.0025
  574MOL0     C77365   0.661  11.170   7.712 -0.4612 -0.7278  0.1237
  574MOL0     C77366   0.615  11.219   7.579  0.0812  1.0888  0.2881
  574MOL0     C77367   0.628  11.119   7.461 -0.8248 -0.4992  0.0773
  574MOL0     C77368   0.538  11.171   7.348 -0.0937  0.5710  0.6869
  574MOL0     C77369   0.520  11.068   7.230 -0.1644  0.0999  1.0858
  574MOL0     C77370   0.491  10.920   7.262  0.7138  0.0800  0.3093
  574MOL0     C77371   0.597  10.819   7.284  0.5870  0.7728  0.4925
  574MOL0     N77372   0.682  10.806   7.163 -0.4341  0.3829 -0.4758
  574MOL0     C77373   0.815  10.826   7.159 -1.2632 -1.3403 -0.6924
  574MOL0     C77374   0.850  10.817   7.029  1.0183  0.0537  0.2951
  574MOL0     C77375   0.991  10.819   6.967  0.3652 -0.3331  0.4677
  574MOL0     C77376   1.079  10.703   7.025 -0.5001 -0.0496 -0.1511
  574MOL0     C77377   1.219  10.689   6.957  0.0205 -0.4498 -0.2772
  574MOL0     C77378   1.314  10.806   6.968 -0.0041  0.0227 -1.0392
  574MOL0     O77379   1.420  10.791   6.873  0.4726  0.7070 -0.7807
  574MOL0     C77380   1.517  10.885   6.840  0.5122 -0.1877 -0.4023
  574MOL0     C77381   1.617  10.850   6.754  0.4373  1.2890 -0.2022
  574MOL0     C77382   1.702  10.948   6.691 -0.2712  0.5157  0.5695
  574MOL0     C77383   1.675  11.082   6.715  0.1897  0.1067 -0.7398
  574MOL0     C77384   1.766  11.178   6.649 -0.9585 -0.8695 -0.5205
  574MOL0     O77385   1.715  11.304   6.634 -0.0365 -0.3349 -0.2265
  574MOL0     C77386   1.797  11.397   6.572 -0.1172  0.1330 -0.0610
  574MOL0     C77387   1.860  11.495   6.643  0.4916  0.0291 -0.1282
  574MOL0     C77388   1.950  11.581   6.587 -0.5507  0.1726  0.8501
  574MOL0     C77389   1.989  11.572   6.458 -0.5129 -0.0800 -0.3892
  574MOL0     O77390   2.072  11.666   6.399 -0.0981  0.2726  0.2632
  574MOL0     C77391   2.162  11.627   6.297 -0.6477  0.0907 -0.4971
  574MOL0     C77392   2.263  11.731   6.281 -0.7918  0.2170  0.2109
  574MOL0     C77393   2.376  11.708   6.172  1.0242  0.0778  0.8183
  574MOL0     C77394   2.487  11.817   6.186  1.1428 -0.5850 -0.5937
  574MOL0     C77395   2.566  11.810   6.059  0.0321  0.3610 -0.2067
  574MOL0     C77396   2.708  11.850   6.064 -1.0072 -0.2929  0.5413
  574MOL0     C77397   2.783  11.805   5.924  0.4359  0.7643 -0.7338
  574MOL0     C77398   2.908  11.896   5.910 -0.6350  0.4718  0.9266
  574MOL0    Cl77399   3.047  11.825   5.996 -0.4000 -0.0933 -0.2787
  574MOL0     C77400   1.916  11.482   6.384 -0.5648 -0.4743 -0.0813
  574MOL0     C77401   1.829  11.389   6.435  0.0453 -0.1312 -0.3101
  574MOL0     O77402   1.873  11.140   6.610  0.2570 -0.2408 -0.1033
  574MOL0     C77403   1.561  11.120   6.792  0.3248  0.2428  0.1053
  574MOL0     C77404   1.489  11.022   6.852  0.1025 -0.0940 -0.0109
  574MOL0     N77405   0.733  10.796   6.962  0.7852  0.1624 -0.3082
  574MOL0     N77406   0.635  10.787   7.040 -1.0123 -0.3283  0.7991
  574MOL0     C77407   0.903  11.108   8.042  0.2992  0.8699  0.0086
  574MOL0     C77408   1.032  11.104   8.064 -0.3662  0.1120 -0.1272
  574MOL0     C77409   1.470  11.293   8.054 -0.3474  0.3384 -0.2572
  574MOL0     C77410   1.520  11.419   8.010  0.5965 -0.6564 -0.2587
  574MOL0     C77411   1.661  11.443   7.997  0.1993  0.2161 -0.3712
  574MOL0     C77412   1.755  11.341   8.027 -0.3193  0.1703 -0.4354
  574MOL0     O77413   1.892  11.345   8.022  0.0426 -0.5949 -0.8163
  574MOL0     C77414   1.958  11.468   7.983  0.5211  1.0160 -0.4782
  574MOL0     C77415   1.971  11.467   7.833  0.1016  0.1633 -0.0577
  574MOL0     C77416   2.033  11.342   7.791 -0.9434  0.1544  0.5246
  574MOL0     C77417   2.071  11.339   7.635 -0.2980  0.2860 -0.1906
  574MOL0     C77418   2.185  11.259   7.609  1.0060 -0.1533  0.7402
  574MOL0     C77419   2.286  11.201   7.573  0.1129 -0.0850 -0.3192
  574MOL0     C77420   1.701  11.222   8.079  0.0247 -0.3752  0.3499
  574MOL0     C77421   1.561  11.196   8.088  0.0351 -0.6840  0.8927
  574MOL0     C77422   1.516  11.061   8.132 -0.0195  0.5302 -0.4009
  574MOL0     H77423   1.147  11.328   7.841  3.5890 -3.9690 -0.1394
  574MOL0     H77424   0.909  11.364   7.818  1.5747  0.1404  1.1373
  574MOL0     H77425   0.545  11.276   7.864 -0.1676 -0.3458  1.6655
  574MOL0     H77426   0.675  11.376   7.819 -1.3185  0.6399 -1.4502
  574MOL0     H77427   0.626  11.072   7.745  0.5867  0.0145  3.9982
  574MOL0     H77428   0.767  11.149   7.696  0.2274  1.9049  0.6985
  574MOL0     H77429   0.665  11.312   7.551 -0.3746  1.5107  0.8556
  574MOL0     H77430   0.509  11.246   7.590 -1.1509 -2.4211 -1.4213
  574MOL0     H77431   0.731  11.120   7.425 -0.8851  1.4421 -0.1579
  574MOL0     H77432   0.594  11.018   7.483 -2.3763 -0.0826 -0.3149
  574MOL0     H77433   0.436  11.203   7.374 -0.7950 -0.6215 -0.4779
  574MOL0     H77434   0.589  11.262   7.316  1.3842  0.3310  2.2418
  574MOL0     H77435   0.433  11.117   7.186 -1.2350  0.2435  3.2306
  574MOL0     H77436   0.608  11.070   7.165 -1.2700 -0.7787 -0.4994
  574MOL0     H77437   0.430  10.873   7.185  3.1850 -2.7868 -0.0799
  574MOL0     H77438   0.428  10.922   7.352  1.7537  0.8741  1.0388
  574MOL0     H77439   0.654  10.841   7.374  2.4128  0.9826 -0.6603
  574MOL0     H77440   0.547  10.723   7.295  3.6782 -1.0499 -0.1720
  574MOL0     H77441   0.878  10.854   7.243 -4.1460  1.4928  0.7348
  574MOL0     H77442   0.989  10.815   6.857  1.5798  3.2644  0.1861
  574MOL0     H77443   1.028  10.917   6.998  0.1649  0.9228 -2.7596
  574MOL0     H77444   1.094  10.721   7.132  0.8002 -0.4407 -0.2578
  574MOL0     H77445   1.027  10.609   7.005  0.5639 -0.2911 -1.9425
  574MOL0     H77446   1.199  10.669   6.852 -4.5691 -0.5914  0.4036
  574MOL0     H77447   1.277  10.603   6.994  0.9993  0.0187 -0.6964
  574MOL0     H77448   1.348  10.825   7.070 -0.2894 -2.3558 -0.4488
  574MOL0     H77449   1.265  10.896   6.930  3.0130  1.8763 -0.9313
  574MOL0     H77450   1.635  10.744   6.736  1.7095  1.0451  2.1504
  574MOL0     H77451   1.772  10.912   6.616  0.0179  1.4164  0.3966
  574MOL0     H77452   1.841  11.507   6.749 -0.5711  1.0851 -0.4160
  574MOL0     H77453   1.996  11.657   6.650  2.6405 -1.7401  1.1015
  574MOL0     H77454   2.212  11.532   6.319  2.0782  1.0084 -2.2131
  574MOL0     H77455   2.116  11.603   6.200  1.6278 -3.2662 -0.9267
  574MOL0     H77456   2.213  11.826   6.262 -2.6977 -1.2426 -2.7417
  574MOL0     H77457   2.318  11.749   6.375  0.4031  0.4465 -0.5070
  574MOL0     H77458   2.420  11.609   6.186 -0.4587 -1.0113 -1.6301
  574MOL0     H77459   2.326  11.709   6.075 -0.8365 -0.2289  1.7280
  574MOL0     H77460   2.547  11.797   6.275  1.0965  3.2966  0.4633
  574MOL0     H77461   2.445  11.916   6.201 -0.3422 -1.4573  1.4044
  574MOL0     H77462   2.506  11.861   5.983 -0.9689 -2.9002 -1.7739
  574MOL0     H77463   2.571  11.706   6.025 -0.1360 -0.6948  2.7097
  574MOL0     H77464   2.730  11.957   6.072 -0.0311 -0.5425  1.4357
  574MOL0     H77465   2.752  11.801   6.151 -0.6776 -0.1690  0.4477
  574MOL0     H77466   2.703  11.813   5.850 -1.2758  1.0559  1.0536
  574MOL0     H77467   2.810  11.699   5.924 -1.5351  0.1957  0.6907
  574MOL0     H77468   2.936  11.907   5.805 -2.9444  0.2896  0.2472
  574MOL0     H77469   2.894  12.000   5.941 -1.0182  0.9699 -0.8564
  574MOL0     H77470   1.938  11.489   6.278  1.0356  1.0398  0.2937
  574MOL0     H77471   1.790  11.302   6.383  0.5018 -1.6790  1.8293
  574MOL0     H77472   1.529  11.222   6.811  1.5663  0.1590  3.1871
  574MOL0     H77473   1.399  11.057   6.901  1.4145  0.8077  1.8619
  574MOL0     H77474   0.839  11.036   8.093 -1.7946  3.1326  0.7708
  574MOL0     H77475   1.071  11.039   8.142 -1.5185 -1.1580 -0.5599
  574MOL0     H77476   1.451  11.497   7.980 -0.0803 -1.7664 -1.7093
  574MOL0     H77477   1.701  11.538   7.963  1.4434  0.3201  1.2503
  574MOL0     H77478   2.055  11.464   8.033 -1.3251  0.6468  3.4436
  574MOL0     H77479   1.908  11.558   8.021 -0.2888  0.1296  0.5988
  574MOL0     H77480   2.026  11.549   7.787 -0.0610 -0.3442 -1.1746
  574MOL0     H77481   1.869  11.466   7.795 -0.0759  0.1629  0.4124
  574MOL0     H77482   1.957  11.266   7.810  1.4042 -2.1982  0.9994
  574MOL0     H77483   2.124  11.323   7.848 -1.4456 -0.7243  1.0596
  574MOL0     H77484   1.987  11.310   7.571 -0.8970  1.9280 -0.1949
  574MOL0     H77485   2.097  11.440   7.604 -1.4079  0.2233 -1.4289
  574MOL0     H77486   2.372  11.156   7.528 -0.6201  1.0391 -3.0525
  574MOL0     H77487   1.766  11.140   8.105  2.3954  0.6943 -1.8085
  574MOL0     H77488   1.454  11.006   8.062  2.3024 -0.6822 -1.6375
  574MOL0     H77489   1.606  10.999   8.139 -0.8342 -1.3563 -3.9320
  574MOL0     H77490   1.468  11.061   8.230  0.0816 -1.1215 -0.3316
  575MOL0     O77491   1.140   2.522  10.175  0.3791  0.6871 -0.2004
  575MOL0     C77492   1.165   2.639  10.203  0.7516 -0.2729  0.0924
  575MOL0     O77493   1.278   2.706  10.156 -1.0961  0.1185 -0.3724
  575MOL0     C77494   1.380   2.631  10.093 -0.2896 -0.3257  0.3973
  575MOL0     C77495   1.358   2.554   9.975  0.2581  0.7600  0.3918
  575MOL0     C77496   1.458   2.468   9.924  0.8436 -0.5010 -0.0284
  575MOL0     C77497   1.590   2.487   9.980  0.4259 -0.2402 -0.3440
  575MOL0     O77498   1.688   2.410   9.922  0.1020 -0.5525 -0.1753
  575MOL0     C77499   1.829   2.424   9.969  0.4195 -0.6995  0.0199
  575MOL0     C77500   1.933   2.379   9.873 -0.6383 -0.1573 -0.4535
  575MOL0     C77501   2.071   2.414   9.922 -0.5457 -0.0203 -0.1730
  575MOL0     C77502   2.183   2.339   9.852  0.1407 -0.3379 -0.2484
  575MOL0     C77503   2.320   2.391   9.898 -0.0514 -0.5347 -0.1581
  575MOL0     C77504   2.426   2.328   9.801  0.2365 -0.1398 -1.1920
  575MOL0     C77505   2.570   2.367   9.836  0.0456  0.2451  0.2898
  575MOL0     C77506   2.674   2.263   9.784 -0.7645  0.1509  0.3562
  575MOL0     N77507   2.750   2.307   9.669 -0.0461  0.1404  0.1584
  575MOL0     C77508   2.885   2.334   9.666  0.8582  0.4168  0.8085
  575MOL0     C77509   2.911   2.385   9.544 -0.3368 -1.1865  0.0771
  575MOL0     C77510   3.048   2.441   9.494 -0.2544  0.8299 -0.5194
  575MOL0     C77511   3.047   2.585   9.430 -0.0287 -0.1012 -0.3038
  575MOL0     C77512   3.180   2.650   9.424 -0.3184 -0.4672 -0.3179
  575MOL0     C77513   3.261   2.603   9.307 -0.2206 -0.3932 -0.2966
  575MOL0     O77514   3.315   2.474   9.322 -0.2959  0.8788 -0.8826
  575MOL0     C77515   3.379   2.416   9.215  0.4623 -0.6674  0.2721
  575MOL0     C77516   3.366   2.446   9.078  0.9258  0.6226 -0.3009
  575MOL0     C77517   3.433   2.369   8.985 -0.4254 -0.1762  0.1279
  575MOL0     C77518   3.520   2.268   9.015 -0.1504 -1.1112  0.2726
  575MOL0     C77519   3.577   2.191   8.908  0.5009 -0.0690  0.7049
  575MOL0     O77520   3.649   2.088   8.954 -0.0643  0.4183 -0.1525
  575MOL0     C77521   3.725   2.013   8.871 -0.6266 -0.9121 -1.1347
  575MOL0     C77522   3.740   1.884   8.910 -0.9032  0.3542 -0.8957
  575MOL0     C77523   3.834   1.805   8.841  0.2867 -0.1786 -0.4563
  575MOL0     C77524   3.932   1.859   8.757  0.1840 -0.2068  0.6123
  575MOL0     O77525   4.028   1.787   8.700  0.0724 -0.1584 -0.1366
  575MOL0     C77526   4.147   1.849   8.671 -0.1435 -0.6192  0.1582
  575MOL0     C77527   4.261   1.745   8.667  0.2591 -0.2123 -0.3408
  575MOL0     C77528   4.281   1.687   8.813  0.5904 -0.2525  1.0857
  575MOL0     C77529   4.430   1.650   8.833  0.6867 -0.5758  0.8395
  575MOL0     C77530   4.447   1.600   8.977 -0.2284 -0.3627  0.2149
  575MOL0     C77531   4.387   1.678   9.096  0.1240 -0.2971  0.1182
  575MOL0     C77532   4.454   1.636   9.230  0.3268  0.7121 -0.6426
  575MOL0     C77533   4.377   1.691   9.348  0.0096  0.2599  0.1692
  575MOL0    Cl77534   4.348   1.865   9.348 -0.5978  0.2252  0.1635
  575MOL0     C77535   3.919   1.997   8.723  0.1669 -0.1762  0.7174
  575MOL0     C77536   3.798   2.061   8.764 -0.0448 -0.4162  0.0880
  575MOL0     O77537   3.583   2.243   8.791 -0.4929 -0.4768 -0.3175
  575MOL0     C77538   3.549   2.249   9.152 -0.4620  0.5727  0.1543
  575MOL0     C77539   3.478   2.319   9.249 -0.4258 -0.6485  0.0554
  575MOL0     N77540   2.794   2.376   9.472 -0.2045 -0.0701  0.1460
  575MOL0     N77541   2.701   2.325   9.542  0.3429  0.2608 -0.2717
  575MOL0     C77542   1.608   2.571  10.090 -0.6519  0.0329 -0.1793
  575MOL0     C77543   1.506   2.641  10.149  0.2474  0.6359 -0.1000
  575MOL0     C77544   1.062   2.730  10.272 -0.5388  0.8774  0.7361
  575MOL0     C77545   1.078   2.868  10.259 -0.3693  0.1183 -0.1831
  575MOL0     C77546   0.989   2.950  10.333  0.1783  0.3644  1.4083
  575MOL0     C77547   0.877   2.912  10.398  0.4191  0.8730  0.3641
  575MOL0     O77548   0.783   3.005  10.439 -0.1084  0.0254  0.2574
  575MOL0     C77549   0.649   2.968  10.486  0.4135 -1.1716  0.4590
  575MOL0     C77550   0.552   2.919  10.370 -0.5689  0.1519 -0.2376
  575MOL0     C77551   0.529   3.028  10.271  0.1667 -0.6673  0.2427
  575MOL0     C77552   0.499   2.987  10.126 -0.8907 -0.2820  0.4751
  575MOL0     C77553   0.599   2.934  10.042 -0.3749  0.7117  0.2455
  575MOL0     C77554   0.686   2.873   9.984 -0.3020 -0.4655 -0.1788
  575MOL0     C77555   0.859   2.773  10.410  0.2998 -0.5277  0.2981
  575MOL0     C77556   0.953   2.680  10.346  0.6981 -0.1125 -0.5721
  575MOL0     C77557   0.940   2.533  10.375 -0.4081  0.2327 -0.1624
  575MOL0     H77558   1.258   2.555   9.932  1.5560  3.2261 -3.0431
  575MOL0     H77559   1.436   2.396   9.846 -0.7318 -1.7770  1.4876
  575MOL0     H77560   1.864   2.525   9.995  1.8532 -0.8495 -1.1576
  575MOL0     H77561   1.841   2.355  10.053  0.7172  0.2072  0.7443
  575MOL0     H77562   1.919   2.415   9.771 -0.4812  0.1905 -0.3521
  575MOL0     H77563   1.926   2.270   9.870  1.5031 -0.3545  0.2215
  575MOL0     H77564   2.088   2.395  10.028 -0.8591  0.5846 -0.0131
  575MOL0     H77565   2.088   2.521   9.906 -0.5325  0.1546  0.9238
  575MOL0     H77566   2.167   2.234   9.875 -0.8466 -0.4860 -1.4886
  575MOL0     H77567   2.170   2.350   9.744 -1.2827  2.9979  0.1464
  575MOL0     H77568   2.329   2.499   9.890  1.5856 -0.6091  0.3911
  575MOL0     H77569   2.342   2.358  10.000  0.5798 -1.1559 -0.4857
  575MOL0     H77570   2.422   2.220   9.816 -2.2384  0.2170  1.5647
  575MOL0     H77571   2.414   2.360   9.697 -0.4382  1.7769 -0.5604
  575MOL0     H77572   2.575   2.369   9.945 -1.0991 -2.4716  0.4643
  575MOL0     H77573   2.600   2.463   9.793  0.9939 -0.3074 -0.3142
  575MOL0     H77574   2.741   2.237   9.866 -0.5604  1.2752  0.5564
  575MOL0     H77575   2.630   2.167   9.756  1.8026 -1.0947  0.3335
  575MOL0     H77576   2.959   2.316   9.743  0.2993  0.4699  1.3640
  575MOL0     H77577   3.122   2.430   9.574 -2.0924  0.2873  1.1777
  575MOL0     H77578   3.086   2.373   9.417  0.1901  0.0687  0.3577
  575MOL0     H77579   3.007   2.582   9.329  3.8000  1.6897 -2.1047
  575MOL0     H77580   2.982   2.637   9.501  1.7689  0.1225  1.2662
  575MOL0     H77581   3.223   2.645   9.525 -1.9007  1.6043  0.5419
  575MOL0     H77582   3.182   2.758   9.409  3.3275 -0.7520 -3.5116
  575MOL0     H77583   3.347   2.670   9.295  0.6597 -1.6734 -1.5866
  575MOL0     H77584   3.196   2.612   9.219 -1.6082 -1.8838  0.5334
  575MOL0     H77585   3.313   2.536   9.049 -1.1376 -0.7728 -1.0238
  575MOL0     H77586   3.422   2.409   8.885  1.1566 -1.7043 -0.7125
  575MOL0     H77587   3.685   1.836   8.991 -1.8886  1.9807 -0.5555
  575MOL0     H77588   3.835   1.702   8.874  0.7312  1.2501  5.0636
  575MOL0     H77589   4.134   1.905   8.578  0.3066  0.8418  0.9566
  575MOL0     H77590   4.166   1.925   8.746 -0.3504 -1.8224  1.4803
  575MOL0     H77591   4.233   1.663   8.599 -1.4157 -1.3095  1.5663
  575MOL0     H77592   4.359   1.784   8.636  0.9869 -2.5720 -1.3126
  575MOL0     H77593   4.239   1.754   8.889 -0.8541 -0.5266  0.5688
  575MOL0     H77594   4.214   1.601   8.810 -0.8160  0.7182 -3.4577
  575MOL0     H77595   4.491   1.739   8.816  1.2508 -1.1071  0.0367
  575MOL0     H77596   4.452   1.573   8.758  0.4835  0.0600  0.1185
  575MOL0     H77597   4.556   1.599   8.986  0.1336 -4.1383 -2.0401
  575MOL0     H77598   4.408   1.497   8.981 -0.1757 -0.4134 -0.3756
  575MOL0     H77599   4.420   1.778   9.067  0.4847 -0.7999 -1.2706
  575MOL0     H77600   4.279   1.664   9.099  0.2480 -1.3584 -0.0874
  575MOL0     H77601   4.556   1.675   9.240 -0.1959  2.4003 -1.4706
  575MOL0     H77602   4.477   1.530   9.245  0.3396  0.7627 -0.2832
  575MOL0     H77603   4.284   1.636   9.363 -0.3467  0.5245 -0.9894
  575MOL0     H77604   4.440   1.666   9.435 -0.2846  1.9182  0.9101
  575MOL0     H77605   3.987   2.059   8.666  1.2754 -0.5117  1.6310
  575MOL0     H77606   3.791   2.168   8.747  0.5993 -0.8118 -3.4337
  575MOL0     H77607   3.609   2.169   9.194 -1.0449  1.3137  2.5469
  575MOL0     H77608   3.496   2.303   9.354  2.0429  1.5241  0.0442
  575MOL0     H77609   1.702   2.579  10.144  0.3999 -1.1543 -1.7698
  575MOL0     H77610   1.513   2.701  10.238 -1.9108  0.6040  0.1370
  575MOL0     H77611   1.144   2.924  10.192  0.3085  1.7247  1.7299
  575MOL0     H77612   1.005   3.055  10.313  1.7007 -0.4086 -2.2438
  575MOL0     H77613   0.609   3.057  10.534  0.6378  0.0493 -1.4878
  575MOL0     H77614   0.657   2.886  10.558 -4.3925 -1.3753  1.0258
  575MOL0     H77615   0.464   2.888  10.428  0.0835 -0.1348  0.6182
  575MOL0     H77616   0.605   2.834  10.327  1.7590  0.8297  1.1203
  575MOL0     H77617   0.609   3.102  10.264 -1.0541  0.7298  0.4592
  575MOL0     H77618   0.452   3.093  10.313  1.6071  0.8515  0.6211
  575MOL0     H77619   0.420   2.912  10.137  1.2241 -2.7000  0.1160
  575MOL0     H77620   0.458   3.074  10.073 -0.0445 -0.0728  0.1524
  575MOL0     H77621   0.766   2.829   9.930  1.4860  2.1137  0.1802
  575MOL0     H77622   0.768   2.741  10.460 -1.2151  1.2615 -1.1475
  575MOL0     H77623   0.890   2.482  10.292  0.4902 -2.0015  0.5879
  575MOL0     H77624   1.039   2.494  10.402 -0.2246  0.7735 -0.0457
  575MOL0     H77625   0.883   2.532  10.468  0.4560  1.1496  0.3929
  576MOL0     O77626  11.189   5.345   9.688  0.1571  0.5348  0.6452
  576MOL0     C77627  11.202   5.415   9.792  0.4563 -0.5989  0.2022
  576MOL0     O77628  11.313   5.432   9.857 -0.5970 -0.7034  0.2292
  576MOL0     C77629  11.426   5.390   9.800  0.5866 -0.4555  0.3070
  576MOL0     C77630  11.507   5.482   9.729  0.5891  0.6852 -0.4261
  576MOL0     C77631  11.622   5.439   9.674 -0.5568 -0.3837 -0.1936
  576MOL0     C77632  11.665   5.304   9.673  0.1592 -0.5786 -0.0690
  576MOL0     O77633  11.760   5.254   9.584  0.5622 -0.3567  1.1021
  576MOL0     C77634  11.858   5.333   9.511 -0.3467 -1.6666  0.1701
  576MOL0     C77635  11.962   5.249   9.437  0.0944  1.4970 -0.6227
  576MOL0     C77636  12.067   5.193   9.534 -0.7499 -0.6087 -0.3801
  576MOL0     C77637  12.009   5.104   9.643 -0.2589  0.3004 -0.4018
  576MOL0     C77638  12.118   5.019   9.704  0.1254 -0.3471  0.5899
  576MOL0     C77639  12.066   4.927   9.821 -0.1200  0.0935 -0.0730
  576MOL0     C77640  12.195   4.849   9.867  0.7972 -0.4010 -0.5208
  576MOL0     C77641  12.161   4.743   9.970  0.2269 -0.2197 -0.6896
  576MOL0     N77642  12.278   4.670  10.005  0.2696  0.1956  0.0630
  576MOL0     C77643  12.275   4.530  10.004 -0.2024  1.0002 -0.3205
  576MOL0     C77644  12.376   4.491  10.087 -0.8148  0.3628 -0.0226
  576MOL0     C77645  12.425   4.350  10.101  0.2014  1.0023 -0.7743
  576MOL0     C77646  12.348   4.278  10.211 -0.6330 -0.1220  0.0212
  576MOL0     C77647  12.416   4.140  10.254  0.0059 -0.8632  0.3030
  576MOL0     C77648  12.329   4.060  10.360  0.3887 -0.3828  0.4117
  576MOL0     O77649  12.336   4.123  10.490 -0.5847 -0.4662  0.1062
  576MOL0     C77650  12.438   4.101  10.581  0.2285 -0.3320  0.2862
  576MOL0     C77651  12.567   4.035  10.553 -0.8453 -0.1367 -0.5500
  576MOL0     C77652  12.663   4.024  10.662  0.1903  0.2035 -0.3663
  576MOL0     C77653  12.643   4.102  10.783 -0.3604  0.1721  0.5602
  576MOL0     C77654  12.742   4.099  10.889 -0.4066 -0.2185 -0.2043
  576MOL0     O77655  12.822   3.986  10.884 -0.1239  0.0857 -0.4581
  576MOL0     C77656  12.890   3.969  10.998  0.5181  0.0636  0.1484
  576MOL0     C77657  12.822   3.924  11.109 -0.0572  0.5315  0.6532
  576MOL0     C77658  12.887   3.895  11.227  0.2782 -0.0180 -0.4113
  576MOL0     C77659  13.025   3.912  11.235  0.0943 -0.4728 -0.4048
  576MOL0     O77660  13.089   3.883  11.358 -0.0628 -0.1281  0.2135
  576MOL0     C77661  13.196   3.966  11.407 -0.7569 -0.1842  0.0909
  576MOL0     C77662  13.271   3.883  11.516  0.1892  0.2473 -0.0606
  576MOL0     C77663  13.273   3.958  11.652 -0.7442 -0.4480  0.4686
  576MOL0     C77664  13.154   3.919  11.748  0.1910 -0.3736 -0.6973
  576MOL0     C77665  13.019   3.975  11.699  0.1358  0.9732 -1.0626
  576MOL0     C77666  12.908   3.969  11.801 -0.3608 -0.2587 -0.1214
  576MOL0     C77667  12.775   4.017  11.747  0.6047 -0.9699 -0.2827
  576MOL0     C77668  12.771   4.177  11.722  0.6790  0.2669 -0.4564
  576MOL0    Cl77669  12.801   4.271  11.859 -0.1544 -0.1596 -0.4889
  576MOL0     C77670  13.099   3.976  11.124  0.3542  0.6439 -0.1798
  576MOL0     C77671  13.026   4.001  11.004  0.3024  0.6927  0.1574
  576MOL0     O77672  12.740   4.188  10.976  0.1159 -0.4409 -1.0384
  576MOL0     C77673  12.525   4.183  10.800  0.0006 -0.0512 -0.1341
  576MOL0     C77674  12.422   4.181  10.698  0.5290  0.2469 -0.3093
  576MOL0     N77675  12.432   4.608  10.132 -0.0836 -0.0854 -0.8384
  576MOL0     N77676  12.381   4.711  10.085 -0.8529 -0.3537 -0.5384
  576MOL0     C77677  11.589   5.210   9.755  0.0370  0.2651  0.6911
  576MOL0     C77678  11.466   5.255   9.815  0.2540  0.0037 -0.0615
  576MOL0     C77679  11.083   5.482   9.859  0.3128  0.0444 -0.1935
  576MOL0     C77680  11.098   5.526   9.997 -0.1007  1.0042 -0.4962
  576MOL0     C77681  11.001   5.609  10.055  0.1986 -0.4568  0.3117
  576MOL0     C77682  10.880   5.635   9.992 -0.3427  0.8977 -1.2169
  576MOL0     O77683  10.796   5.702  10.075  0.3752  0.5136  0.4229
  576MOL0     C77684  10.662   5.719  10.050 -0.8212 -0.5782  0.2236
  576MOL0     C77685  10.593   5.708  10.195 -0.3102  0.9213 -0.1061
  576MOL0     C77686  10.445   5.727  10.175  0.0076 -0.5406  0.5809
  576MOL0     C77687  10.366   5.705  10.303  0.0742  0.7268  0.3215
  576MOL0     C77688  10.222   5.738  10.281 -0.2278  0.8657  0.1305
  576MOL0     C77689  10.119   5.799  10.276  0.2387 -0.3861 -0.5104
  576MOL0     C77690  10.856   5.584   9.866 -0.0906 -0.0667  0.0288
  576MOL0     C77691  10.956   5.508   9.798 -0.4209 -0.5374 -0.3097
  576MOL0     C77692  10.919   5.463   9.660  0.3871 -0.7107  0.3358
  576MOL0     H77693  11.478   5.586   9.723  1.0395  0.9482  1.3766
  576MOL0     H77694  11.675   5.520   9.626  1.4761 -1.2723  0.4451
  576MOL0     H77695  11.801   5.385   9.434  0.2025 -0.7826  0.3481
  576MOL0     H77696  11.895   5.411   9.579 -1.9270  0.3638 -1.1868
  576MOL0     H77697  12.013   5.317   9.369 -0.1547  2.8321  0.4982
  576MOL0     H77698  11.917   5.170   9.375 -0.7919 -0.3614  2.2036
  576MOL0     H77699  12.121   5.274   9.584  0.9126 -0.9719 -1.5012
  576MOL0     H77700  12.141   5.134   9.478  1.4847  0.4848  1.2233
  576MOL0     H77701  11.967   5.162   9.726 -2.0500 -1.2498 -0.1556
  576MOL0     H77702  11.933   5.036   9.605  2.4584 -3.1936 -0.0656
  576MOL0     H77703  12.159   4.961   9.621 -3.1662 -0.0179 -1.4213
  576MOL0     H77704  12.194   5.087   9.744  0.6455 -0.8634  0.4930
  576MOL0     H77705  12.020   4.981   9.904  1.8171 -1.1592  1.9167
  576MOL0     H77706  11.986   4.861   9.788 -0.2929  1.3863 -2.5074
  576MOL0     H77707  12.286   4.907   9.888  0.6198 -0.1287 -0.4958
  576MOL0     H77708  12.216   4.790   9.778  1.2560 -0.3928 -0.4191
  576MOL0     H77709  12.116   4.792  10.056 -2.1910 -0.3264 -1.8113
  576MOL0     H77710  12.081   4.681   9.927 -1.6878  1.3812  0.4032
  576MOL0     H77711  12.211   4.458   9.952 -0.7402  0.1695  1.4267
  576MOL0     H77712  12.397   4.300  10.008 -2.5316  2.9492 -1.1131
  576MOL0     H77713  12.534   4.351  10.111  0.1585  1.6696 -0.3246
  576MOL0     H77714  12.348   4.343  10.299 -0.4223 -0.9608  0.6523
  576MOL0     H77715  12.246   4.253  10.180  0.0749 -3.0601 -0.2150
  576MOL0     H77716  12.521   4.147  10.285 -0.0394 -0.4189  0.3675
  576MOL0     H77717  12.424   4.073  10.169 -2.3330 -0.8385 -0.0067
  576MOL0     H77718  12.372   3.959  10.363 -1.0505 -1.2222 -3.0280
  576MOL0     H77719  12.223   4.050  10.336  0.7077 -0.7467 -0.9026
  576MOL0     H77720  12.586   3.983  10.460  2.4963 -3.0847  1.5505
  576MOL0     H77721  12.758   3.972  10.663 -0.1731 -0.6485  3.1907
  576MOL0     H77722  12.717   3.899  11.099  0.2660 -0.6575 -0.0793
  576MOL0     H77723  12.842   3.849  11.315 -0.1748 -3.3414 -2.2384
  576MOL0     H77724  13.279   3.991  11.339 -0.0287 -1.4532  0.4930
  576MOL0     H77725  13.144   4.053  11.449 -0.3288 -0.2567  0.7787
  576MOL0     H77726  13.239   3.779  11.528 -1.3514  0.7960  0.9206
  576MOL0     H77727  13.371   3.857  11.478 -0.8193  0.0267 -2.7955
  576MOL0     H77728  13.366   3.926  11.700 -0.5835 -2.3587 -0.9818
  576MOL0     H77729  13.286   4.066  11.642  2.8973 -0.9331 -1.6976
  576MOL0     H77730  13.172   3.963  11.846 -2.3164  2.2469 -1.2519
  576MOL0     H77731  13.166   3.811  11.758  1.5573 -0.2049 -0.2574
  576MOL0     H77732  12.985   3.931  11.604 -2.4946 -1.1654  0.6965
  576MOL0     H77733  13.037   4.081  11.683  2.3353  0.8578  0.3399
  576MOL0     H77734  12.903   3.873  11.852 -1.5621 -0.9413 -1.4441
  576MOL0     H77735  12.937   4.043  11.877 -0.3030  0.1671 -0.5539
  576MOL0     H77736  12.692   3.995  11.815  0.5501 -0.9199 -0.3327
  576MOL0     H77737  12.760   3.961  11.654 -1.1613 -0.8460 -0.1056
  576MOL0     H77738  12.830   4.207  11.635  0.3535  0.8976 -0.4697
  576MOL0     H77739  12.668   4.199  11.694  0.1972 -0.7769  0.4129
  576MOL0     H77740  13.200   4.012  11.135 -0.1124  1.8175  0.3966
  576MOL0     H77741  13.085   4.038  10.921  1.6470 -1.1386  0.2375
  576MOL0     H77742  12.509   4.247  10.886 -0.7296 -0.0982 -0.2364
  576MOL0     H77743  12.333   4.243  10.694  2.6745  4.0632  3.0637
  576MOL0     H77744  11.624   5.108   9.764  0.5735  0.1631 -1.8390
  576MOL0     H77745  11.394   5.189   9.861  0.8032  0.3135  1.2878
  576MOL0     H77746  11.183   5.500  10.059 -1.0966  1.8616  1.3033
  576MOL0     H77747  11.012   5.640  10.158  1.1844  2.5550 -0.5894
  576MOL0     H77748  10.622   5.640   9.986 -1.3788 -0.1964  0.0944
  576MOL0     H77749  10.637   5.814  10.003  2.1605  1.0855  1.6977
  576MOL0     H77750  10.630   5.778  10.271  3.5831 -3.5988  2.7258
  576MOL0     H77751  10.605   5.604  10.227 -0.3149  1.1595  0.6799
  576MOL0     H77752  10.415   5.654  10.098  0.9813 -0.4023  0.0537
  576MOL0     H77753  10.434   5.830  10.140  0.7164  0.1350  2.2393
  576MOL0     H77754  10.379   5.600  10.329  2.9667  0.6449 -1.0254
  576MOL0     H77755  10.413   5.773  10.375  2.2649  1.1845 -1.4264
  576MOL0     H77756  10.026   5.853  10.280  0.7268  0.4436 -0.2142
  576MOL0     H77757  10.761   5.610   9.821 -0.9107 -0.8804  1.2453
  576MOL0     H77758  10.962   5.516   9.574 -0.7022  0.1009  0.2689
  576MOL0     H77759  10.945   5.359   9.641 -2.4443 -2.0363  3.0678
  576MOL0     H77760  10.810   5.459   9.655  0.4448 -2.0890 -0.4349
  577MOL0     O77761   9.087  10.263  11.309 -0.4501  0.5664 -0.9384
  577MOL0     C77762   9.044  10.170  11.385  0.3450 -0.4744  0.6769
  577MOL0     O77763   9.116  10.086  11.452 -0.4395  0.7980 -0.1239
  577MOL0     C77764   9.251  10.105  11.445 -0.0076  0.3217  0.3394
  577MOL0     C77765   9.335  10.071  11.343 -1.0498  0.1237 -0.5625
  577MOL0     C77766   9.482  10.060  11.361 -0.8475  0.1795 -0.6419
  577MOL0     C77767   9.527  10.076  11.491  0.1355 -0.0487 -0.2825
  577MOL0     O77768   9.655  10.073  11.536  0.2029 -0.2239 -0.7549
  577MOL0     C77769   9.713   9.944  11.540 -0.4552  0.9099 -0.9793
  577MOL0     C77770   9.781   9.942  11.675  0.1624  0.1787  0.3968
  577MOL0     C77771   9.905  10.042  11.667  0.2914 -0.0815 -0.4738
  577MOL0     C77772  10.007  10.035  11.779  0.4551  0.0037  0.2253
  577MOL0     C77773  10.098  10.154  11.776 -0.1087 -0.4778  0.5778
  577MOL0     C77774  10.215  10.154  11.872  1.1182  0.6656  1.1324
  577MOL0     C77775  10.280  10.293  11.881  0.2194 -0.3470  0.5214
  577MOL0     C77776  10.378  10.319  11.768 -0.3144  0.2247 -0.1017
  577MOL0     N77777  10.461  10.437  11.794  0.0413  0.7014  0.3622
  577MOL0     C77778  10.597  10.440  11.800  0.2457  0.7352  0.1976
  577MOL0     C77779  10.631  10.572  11.779 -0.1302 -0.4244 -0.3697
  577MOL0     C77780  10.768  10.641  11.775  0.2749  0.6525  0.8040
  577MOL0     C77781  10.820  10.663  11.917 -0.2766 -0.1346 -0.2057
  577MOL0     C77782  10.958  10.736  11.920  0.5393 -0.4245 -0.4746
  577MOL0     C77783  11.075  10.642  11.876 -0.1485 -0.5621  0.3571
  577MOL0     O77784  11.168  10.731  11.807  0.0385  0.3031  0.0019
  577MOL0     C77785  11.300  10.709  11.813 -0.2160 -0.0615  0.5281
  577MOL0     C77786  11.396  10.811  11.788  1.5748  0.2661  0.9747
  577MOL0     C77787  11.534  10.785  11.780  0.0351  1.4282 -0.2153
  577MOL0     C77788  11.582  10.649  11.797 -0.6304 -0.4568 -0.1683
  577MOL0     C77789  11.725  10.627  11.781 -0.5998 -0.3943 -0.8988
  577MOL0     O77790  11.794  10.685  11.678 -0.3083 -0.2722  0.6612
  577MOL0     C77791  11.929  10.670  11.649  0.2031 -0.0866  0.8248
  577MOL0     C77792  12.028  10.589  11.715  0.4605 -0.3012  0.1341
  577MOL0     C77793  12.156  10.586  11.670  0.4464  0.5966 -0.9595
  577MOL0     C77794  12.199  10.656  11.560  1.1208  0.0776  0.8214
  577MOL0     O77795  12.334  10.643  11.524 -0.0320  0.1461  0.5092
  577MOL0     C77796  12.429  10.540  11.567  0.1753  1.1511  0.5270
  577MOL0     C77797  12.547  10.559  11.475 -0.3115  0.2486 -0.4758
  577MOL0     C77798  12.507  10.551  11.332  0.3440 -0.3575  0.4962
  577MOL0     C77799  12.629  10.581  11.242 -0.9292 -0.1441  0.0184
  577MOL0     C77800  12.609  10.571  11.095  0.2505  0.3190  0.7593
  577MOL0     C77801  12.734  10.610  11.015 -0.0189 -0.7144  0.0284
  577MOL0     C77802  12.857  10.524  11.059 -0.9735  0.2966  0.1415
  577MOL0     C77803  12.984  10.567  10.983  0.5977  0.0485 -0.0581
  577MOL0    Cl77804  13.057  10.707  11.065  0.3890  0.1545  0.2950
  577MOL0     C77805  12.107  10.747  11.496  0.3155 -0.3360 -0.7508
  577MOL0     C77806  11.972  10.753  11.548 -0.6820  0.0929  0.5367
  577MOL0     O77807  11.773  10.555  11.874 -0.1675 -0.1402 -0.2486
  577MOL0     C77808  11.489  10.561  11.850 -0.1554  0.3316  0.5387
  577MOL0     C77809  11.351  10.589  11.853 -0.4397 -0.2781 -0.0943
  577MOL0     N77810  10.513  10.650  11.774 -0.2052  0.5098 -0.0088
  577MOL0     N77811  10.419  10.565  11.769  0.5135  0.1462  0.2049
  577MOL0     C77812   9.434  10.108  11.594 -0.6065  0.8823 -0.4180
  577MOL0     C77813   9.297  10.127  11.573 -0.6335 -0.2246  0.6896
  577MOL0     C77814   8.895  10.152  11.402  0.2203 -0.5312 -0.1567
  577MOL0     C77815   8.852  10.029  11.461  0.8575 -0.0841 -0.2949
  577MOL0     C77816   8.722   9.998  11.491  0.6108 -0.3228 -0.2282
  577MOL0     C77817   8.619  10.088  11.473  0.2679  0.9028  0.2548
  577MOL0     O77818   8.486  10.050  11.504 -0.7862  0.1327  0.3030
  577MOL0     C77819   8.382  10.145  11.511  0.8490 -0.8893  0.3352
  577MOL0     C77820   8.260  10.091  11.578  0.5300  0.9611 -0.4447
  577MOL0     C77821   8.261  10.076  11.736  0.0272 -0.7876  1.1771
  577MOL0     C77822   8.176   9.957  11.778 -0.9539 -0.1097  0.5033
  577MOL0     C77823   8.046   9.937  11.707  0.3563 -0.4832  1.3287
  577MOL0     C77824   7.948   9.903  11.639  0.0164 -1.2101 -0.3220
  577MOL0     C77825   8.656  10.206  11.403  0.1251 -1.7552 -0.2346
  577MOL0     C77826   8.794  10.247  11.371  1.0744  1.2907 -0.3174
  577MOL0     C77827   8.820  10.371  11.303  0.1441 -0.5704  0.2688
  577MOL0     H77828   9.282  10.027  11.259  0.9015 -1.8163 -0.8758
  577MOL0     H77829   9.558  10.034  11.289  1.3376  4.9334 -0.4152
  577MOL0     H77830   9.633   9.869  11.542  0.5636 -0.2363 -1.7424
  577MOL0     H77831   9.773   9.921  11.452  0.2003 -2.3337  0.1940
  577MOL0     H77832   9.809   9.847  11.721  0.3250 -1.2920 -2.5417
  577MOL0     H77833   9.714   9.971  11.757  2.0554  2.2026  1.3129
  577MOL0     H77834   9.879  10.147  11.651 -0.0554 -0.1206 -0.1763
  577MOL0     H77835   9.968  10.019  11.581  2.1023 -0.4972  0.9067
  577MOL0     H77836   9.957  10.023  11.876 -2.6763 -3.2168 -1.5541
  577MOL0     H77837  10.068   9.947  11.757  0.0563 -0.1364 -0.3421
  577MOL0     H77838  10.138  10.143  11.674  1.0836 -2.2632  1.1880
  577MOL0     H77839  10.043  10.247  11.792 -1.1850 -0.5902 -1.9488
  577MOL0     H77840  10.181  10.122  11.971  0.8940  1.9081  1.4817
  577MOL0     H77841  10.290  10.081  11.842  0.2060 -0.0772  0.6209
  577MOL0     H77842  10.321  10.307  11.981 -1.4020  0.7302  1.0777
  577MOL0     H77843  10.204  10.371  11.871  1.2896  0.6762  0.1767
  577MOL0     H77844  10.446  10.238  11.741  0.5970  0.8778  0.1973
  577MOL0     H77845  10.323  10.339  11.675  3.4174  0.4441 -2.4796
  577MOL0     H77846  10.659  10.354  11.821 -2.2262 -1.3038 -0.4335
  577MOL0     H77847  10.833  10.575  11.718 -2.9972 -0.6302 -1.8017
  577MOL0     H77848  10.749  10.732  11.717  1.7511  2.1865  2.5828
  577MOL0     H77849  10.746  10.715  11.979  1.0167  2.7489 -0.9200
  577MOL0     H77850  10.837  10.565  11.963  0.2857 -0.1921 -0.5273
  577MOL0     H77851  10.977  10.778  12.019  1.5091  2.1737 -1.6875
  577MOL0     H77852  10.950  10.826  11.858 -0.0994  0.0164  0.2374
  577MOL0     H77853  11.043  10.567  11.803 -0.4383  0.6124 -0.7730
  577MOL0     H77854  11.128  10.603  11.964 -0.4897 -0.0306  0.8041
  577MOL0     H77855  11.354  10.908  11.767 -1.4501 -0.7172  1.8932
  577MOL0     H77856  11.621  10.848  11.766  1.2887  0.1964  1.4511
  577MOL0     H77857  12.016  10.523  11.800  0.2981 -1.3016 -0.6401
  577MOL0     H77858  12.231  10.527  11.722 -0.3016  0.8955  0.5245
  577MOL0     H77859  12.453  10.569  11.669 -0.6371  2.2526  0.4194
  577MOL0     H77860  12.381  10.441  11.570  3.5458 -0.5964  2.9464
  577MOL0     H77861  12.586  10.661  11.487  1.4302  0.1504 -3.9679
  577MOL0     H77862  12.626  10.489  11.502 -0.5514 -0.0756 -0.6085
  577MOL0     H77863  12.472  10.449  11.313 -3.5739  1.1545 -1.7794
  577MOL0     H77864  12.429  10.622  11.301  0.5775 -1.5839 -3.4210
  577MOL0     H77865  12.716  10.523  11.274 -1.6287  0.0126  2.3389
  577MOL0     H77866  12.658  10.685  11.259  2.4254 -0.3867 -2.8674
  577MOL0     H77867  12.521  10.632  11.077 -0.7983 -0.6912  2.2301
  577MOL0     H77868  12.577  10.467  11.084 -0.1177  0.4637  0.4792
  577MOL0     H77869  12.721  10.596  10.908  0.4402 -0.4206 -0.0645
  577MOL0     H77870  12.756  10.716  11.034  2.2977 -1.1845  0.2549
  577MOL0     H77871  12.841  10.421  11.028 -1.7974  0.7853 -1.1566
  577MOL0     H77872  12.884  10.522  11.165  2.9171 -5.1909 -0.5452
  577MOL0     H77873  13.060  10.489  10.981  1.5660  0.9760 -1.5643
  577MOL0     H77874  12.968  10.600  10.880 -2.9571  0.4088  0.4727
  577MOL0     H77875  12.126  10.801  11.403 -1.4964  0.2587 -0.8094
  577MOL0     H77876  11.898  10.814  11.497  0.6642  3.0058  1.8470
  577MOL0     H77877  11.518  10.464  11.889 -0.8162  0.4200  1.2700
  577MOL0     H77878  11.289  10.506  11.886  0.5519 -1.3099 -0.7205
  577MOL0     H77879   9.474  10.108  11.695  2.8743 -1.1900 -1.6269
  577MOL0     H77880   9.224  10.143  11.652 -1.1482 -0.7450  0.3298
  577MOL0     H77881   8.929   9.957  11.487  3.1860  2.7389  1.3696
  577MOL0     H77882   8.700   9.897  11.526 -1.3027  0.9144  2.5041
  577MOL0     H77883   8.345  10.184  11.416 -1.4077 -2.2137  0.5831
  577MOL0     H77884   8.405  10.235  11.569 -1.1661 -0.4492  0.5467
  577MOL0     H77885   8.247   9.990  11.537 -1.2876 -0.1039  2.3933
  577MOL0     H77886   8.172  10.149  11.549 -1.7723 -1.7131  0.6410
  577MOL0     H77887   8.217  10.166  11.780 -1.1096 -1.4793  1.5167
  577MOL0     H77888   8.367  10.072  11.762  0.6861  0.1869 -1.1045
  577MOL0     H77889   8.241   9.870  11.767 -1.8957 -0.6730 -1.0216
  577MOL0     H77890   8.154   9.965  11.885 -1.6799 -0.5705  0.3943
  577MOL0     H77891   7.869   9.863  11.579 -0.4608  2.0879 -2.1718
  577MOL0     H77892   8.578  10.275  11.374 -1.7233 -3.5457  0.3076
  577MOL0     H77893   8.865  10.451  11.362  0.9370 -0.4686 -0.4582
  577MOL0     H77894   8.870  10.354  11.208  0.5790 -2.2350  0.7777
  577MOL0     H77895   8.721  10.417  11.295  0.7360  0.8227  0.5857
  578MOL0     O77896   4.755   9.871   9.518  0.2122 -0.5020  0.1909
  578MOL0     C77897   4.823   9.766   9.493  0.6670 -0.1196  0.1357
  578MOL0     O77898   4.948   9.736   9.554  0.7869  0.7517  0.4066
  578MOL0     C77899   5.014   9.843   9.592 -0.4122  0.3428  0.1617
  578MOL0     C77900   5.078   9.929   9.507  0.6904  0.3187 -1.0185
  578MOL0     C77901   5.144  10.031   9.563 -0.7671 -0.3156  0.6153
  578MOL0     C77902   5.146  10.067   9.700 -0.8731 -0.5491  0.6144
  578MOL0     O77903   5.216  10.182   9.737  0.3263  0.3620 -0.8026
  578MOL0     C77904   5.226  10.203   9.884 -0.5786  0.9313  0.0250
  578MOL0     C77905   5.290  10.345   9.900 -0.4794  0.2365 -0.2837
  578MOL0     C77906   5.439  10.318   9.903  0.2543  0.4299  1.1581
  578MOL0     C77907   5.521  10.453   9.908  0.1999 -0.4793 -0.2372
  578MOL0     C77908   5.662  10.423   9.880 -0.4552  0.3809 -0.2679
  578MOL0     C77909   5.760  10.539   9.856  0.6994  0.2338  0.4074
  578MOL0     C77910   5.736  10.649   9.951  0.2637 -1.1385  0.4566
  578MOL0     C77911   5.853  10.750   9.944 -0.1651 -0.0258 -0.2126
  578MOL0     N77912   5.980  10.703   9.989 -0.9305 -0.1654  0.4984
  578MOL0     C77913   6.026  10.659  10.111  0.8630 -0.7945  0.0988
  578MOL0     C77914   6.147  10.600  10.081 -0.1370  0.3530  0.1230
  578MOL0     C77915   6.233  10.528  10.183  0.1174 -0.5159 -0.3345
  578MOL0     C77916   6.382  10.502  10.139 -0.5116  0.0331  0.9869
  578MOL0     C77917   6.464  10.479  10.263 -0.2147  0.3508 -0.4104
  578MOL0     C77918   6.607  10.469  10.255 -0.2935 -0.6853  0.2813
  578MOL0     O77919   6.652  10.426  10.383 -0.3514 -0.9567 -0.2705
  578MOL0     C77920   6.769  10.476  10.433  0.4329 -0.2455 -1.1519
  578MOL0     C77921   6.872  10.542  10.355  0.2464  0.5139 -0.6683
  578MOL0     C77922   6.996  10.566  10.414  0.5603 -0.9502 -0.2802
  578MOL0     C77923   7.018  10.556  10.551 -0.8172  0.4263  0.3506
  578MOL0     C77924   7.148  10.602  10.617 -0.5912 -0.0098 -0.6836
  578MOL0     O77925   7.243  10.657  10.536 -0.1292 -0.2720 -0.0931
  578MOL0     C77926   7.364  10.689  10.588  0.0581  0.3680  0.0062
  578MOL0     C77927   7.455  10.580  10.624 -0.9724 -0.3149  1.3175
  578MOL0     C77928   7.595  10.614  10.641  0.7280 -1.2123 -0.4300
  578MOL0     C77929   7.641  10.738  10.631  0.5601 -0.1678 -0.2945
  578MOL0     O77930   7.771  10.770  10.640  0.3119 -0.3560 -0.8259
  578MOL0     C77931   7.852  10.692  10.736 -0.8180 -0.2154 -0.5597
  578MOL0     C77932   8.000  10.737  10.721  0.6774  0.4601 -0.0161
  578MOL0     C77933   8.055  10.725  10.578  0.0082 -0.2134 -0.1034
  578MOL0     C77934   8.176  10.811  10.546  0.4166  1.0069  0.4542
  578MOL0     C77935   8.287  10.725  10.472  0.0178  1.0602  0.1702
  578MOL0     C77936   8.399  10.823  10.433  0.7187  0.1623 -0.2550
  578MOL0     C77937   8.500  10.759  10.336  0.1992  0.1394 -0.1411
  578MOL0     C77938   8.614  10.858  10.310 -0.3806 -0.8070  0.6628
  578MOL0    Cl77939   8.679  10.839  10.142  0.6060 -0.3011  0.1141
  578MOL0     C77940   7.555  10.841  10.604  0.9724  0.5433  0.3836
  578MOL0     C77941   7.419  10.813  10.575 -0.5579  0.6605  0.1099
  578MOL0     O77942   7.154  10.586  10.741  0.3098 -0.2473 -0.4186
  578MOL0     C77943   6.914  10.503  10.627 -0.3094  0.7228  0.0093
  578MOL0     C77944   6.803  10.457  10.569  1.4555  0.4129  1.0571
  578MOL0     N77945   6.179  10.624   9.945 -0.4350  0.3976  0.1247
  578MOL0     N77946   6.086  10.697   9.903  0.9494 -0.3015  0.5488
  578MOL0     C77947   5.075   9.979   9.781  0.4815 -0.4142 -0.1277
  578MOL0     C77948   5.007   9.869   9.724  0.1511  0.4344  0.4040
  578MOL0     C77949   4.765   9.654   9.399 -0.8435  0.2009 -0.5534
  578MOL0     C77950   4.799   9.518   9.420  0.0577  0.3737 -0.5044
  578MOL0     C77951   4.749   9.420   9.334  0.3954 -0.1906 -0.0987
  578MOL0     C77952   4.656   9.456   9.236  0.3481 -0.0656  0.3297
  578MOL0     O77953   4.613   9.370   9.142  0.1389  0.7406 -0.0843
  578MOL0     C77954   4.524   9.265   9.187 -1.2094 -0.5400 -0.7490
  578MOL0     C77955   4.518   9.163   9.086 -0.2695 -0.2570 -0.0009
  578MOL0     C77956   4.397   9.069   9.101  0.4349 -1.0030 -0.0198
  578MOL0     C77957   4.430   8.984   9.225  0.6012  0.6778  0.1151
  578MOL0     C77958   4.308   8.914   9.265  0.6956  1.0286  0.1037
  578MOL0     C77959   4.214   8.844   9.310  0.0296  0.0788  0.3437
  578MOL0     C77960   4.625   9.589   9.210  0.2805  0.5055 -0.5636
  578MOL0     C77961   4.690   9.685   9.284  0.8377 -0.0157  0.5498
  578MOL0     C77962   4.676   9.827   9.234  0.4876 -0.3059  0.4402
  578MOL0     H77963   5.083   9.905   9.402 -0.4499  0.9636 -1.2269
  578MOL0     H77964   5.215  10.087   9.503 -0.4772 -1.9021 -0.5979
  578MOL0     H77965   5.127  10.201   9.931 -0.1618  1.9601  1.0010
  578MOL0     H77966   5.287  10.126   9.933 -2.7483  0.1214  1.6329
  578MOL0     H77967   5.255  10.383   9.996 -0.8965 -0.4185 -0.1678
  578MOL0     H77968   5.262  10.405   9.812 -1.3637  0.6486  0.2643
  578MOL0     H77969   5.464  10.268   9.809 -0.4364  3.4438 -0.7472
  578MOL0     H77970   5.456  10.245   9.983 -2.6920 -0.0154  1.4925
  578MOL0     H77971   5.469  10.523   9.842 -1.5942  0.9498  2.5020
  578MOL0     H77972   5.517  10.505  10.004  1.6257 -0.6609 -0.0573
  578MOL0     H77973   5.697  10.361   9.963 -0.8779  0.8344  0.2562
  578MOL0     H77974   5.659  10.363   9.788 -2.5881 -0.7371  0.4710
  578MOL0     H77975   5.863  10.503   9.858  0.8167  0.4357 -0.8342
  578MOL0     H77976   5.741  10.572   9.753 -2.3466  0.2400  0.8889
  578MOL0     H77977   5.732  10.610  10.053  0.5589 -1.7308  0.2441
  578MOL0     H77978   5.638  10.690   9.927  0.4644 -1.3433 -0.7661
  578MOL0     H77979   5.852  10.797   9.845  1.2740  2.5185  0.8800
  578MOL0     H77980   5.820  10.840   9.997  1.0708  0.8209 -0.8445
  578MOL0     H77981   5.979  10.669  10.208  4.7175 -0.2969  2.1301
  578MOL0     H77982   6.231  10.599  10.266  1.1006  2.1369 -2.4202
  578MOL0     H77983   6.188  10.432  10.209 -1.6075  0.5413  0.7052
  578MOL0     H77984   6.394  10.417  10.070 -0.2141  1.2253 -0.4728
  578MOL0     H77985   6.425  10.586  10.084  1.8580 -0.6072  1.7115
  578MOL0     H77986   6.429  10.391  10.317  0.4718 -0.5689 -1.4414
  578MOL0     H77987   6.433  10.567  10.322 -0.3549  0.4714 -0.6618
  578MOL0     H77988   6.648  10.568  10.232  1.2905 -1.4912 -0.5340
  578MOL0     H77989   6.644  10.390  10.190  0.1686 -0.2099 -0.0409
  578MOL0     H77990   6.851  10.547  10.249 -2.6950 -1.3470 -0.3053
  578MOL0     H77991   7.072  10.616  10.355  0.8269  0.3301  1.1082
  578MOL0     H77992   7.415  10.480  10.637  1.0510 -1.1384  1.5758
  578MOL0     H77993   7.658  10.531  10.673  0.4203 -0.9511  0.8930
  578MOL0     H77994   7.814  10.723  10.834  1.7801  1.4896  0.0298
  578MOL0     H77995   7.850  10.583  10.726  0.0696 -0.2013 -1.0093
  578MOL0     H77996   7.985  10.842  10.746  1.9250  1.1147 -1.8189
  578MOL0     H77997   8.074  10.696  10.790  0.7154 -1.0009 -0.8719
  578MOL0     H77998   8.094  10.624  10.570  2.2968  0.6364 -0.3881
  578MOL0     H77999   7.982  10.747  10.498 -0.8602  0.9405  0.9630
  578MOL0     H78000   8.208  10.864  10.637 -0.4827  1.6583  0.3993
  578MOL0     H78001   8.142  10.895  10.485 -1.3649  0.1423  0.2105
  578MOL0     H78002   8.255  10.684  10.376 -1.4810  1.1405  0.5953
  578MOL0     H78003   8.324  10.639  10.529 -1.2749 -1.3324 -2.3441
  578MOL0     H78004   8.367  10.922  10.401  3.5070  0.9830 -0.8121
  578MOL0     H78005   8.444  10.855  10.528 -0.5178  3.4355 -0.6440
  578MOL0     H78006   8.444  10.725  10.248 -0.8948 -1.5060  1.1212
  578MOL0     H78007   8.534  10.668  10.387 -1.9899  0.6670  2.4912
  578MOL0     H78008   8.576  10.960  10.304 -1.9821 -1.3711  0.6205
  578MOL0     H78009   8.702  10.852  10.374 -0.4712  1.2447  1.0586
  578MOL0     H78010   7.587  10.943  10.584 -0.2931  1.1504  1.2814
  578MOL0     H78011   7.370  10.899  10.531 -3.1056 -1.0466 -0.5964
  578MOL0     H78012   6.916  10.489  10.735  2.2420 -1.6545 -0.2198
  578MOL0     H78013   6.723  10.423  10.633 -0.0513 -2.3809 -2.0391
  578MOL0     H78014   5.069   9.995   9.888  1.4106 -1.4044  0.0792
  578MOL0     H78015   4.939   9.807   9.782  1.0815  0.5431  1.6373
  578MOL0     H78016   4.884   9.495   9.483 -0.9950 -0.0108  0.8061
  578MOL0     H78017   4.793   9.322   9.346  1.8408 -0.1941 -3.9111
  578MOL0     H78018   4.429   9.310   9.218 -0.5351  1.1460 -1.0143
  578MOL0     H78019   4.570   9.219   9.274  3.6965  3.0589 -0.9745
  578MOL0     H78020   4.615   9.113   9.095  1.0855  2.1369 -0.2052
  578MOL0     H78021   4.512   9.210   8.987  1.9829 -4.4704 -2.4384
  578MOL0     H78022   4.389   9.002   9.016  1.9852  1.2835 -2.1332
  578MOL0     H78023   4.305   9.122   9.127  0.6113 -1.0970  0.8171
  578MOL0     H78024   4.500   8.905   9.198 -1.9849 -0.6427 -3.4456
  578MOL0     H78025   4.465   9.037   9.314 -2.5733  0.5175  1.5866
  578MOL0     H78026   4.137   8.781   9.350  0.0525  0.6207  1.2906
  578MOL0     H78027   4.564   9.607   9.123  1.1518  4.1983 -0.5650
  578MOL0     H78028   4.761   9.887   9.267  0.8307  0.8196 -2.2629
  578MOL0     H78029   4.671   9.822   9.125  1.2556 -0.1530  0.3957
  578MOL0     H78030   4.581   9.866   9.272  0.0631 -1.2025  0.3466
  579MOL0     O78031   9.005   4.360   5.054  0.0456 -0.4882 -0.1758
  579MOL0     C78032   9.007   4.258   5.125  0.4177 -0.7823  0.0710
  579MOL0     O78033   9.120   4.192   5.159 -1.1903  0.2149  0.3544
  579MOL0     C78034   9.222   4.203   5.074 -0.4306  0.2596  0.1775
  579MOL0     C78035   9.243   4.102   4.977 -0.3451 -0.4932  0.5648
  579MOL0     C78036   9.341   4.119   4.884  0.1000 -0.2458  0.5173
  579MOL0     C78037   9.424   4.238   4.891  0.2757  0.1159  0.2545
  579MOL0     O78038   9.518   4.249   4.791 -0.0116 -0.3156  0.0529
  579MOL0     C78039   9.643   4.186   4.808  0.3861  0.0790 -0.3672
  579MOL0     C78040   9.759   4.264   4.748  0.0121  0.0028  1.3463
  579MOL0     C78041   9.764   4.249   4.594  0.3972 -0.2726  0.0436
  579MOL0     C78042   9.868   4.329   4.514  0.5669  1.1851 -0.0796
  579MOL0     C78043   9.866   4.280   4.369  0.2763  0.9020 -0.4566
  579MOL0     C78044   9.721   4.293   4.299 -0.4510  0.3048 -0.0403
  579MOL0     C78045   9.718   4.217   4.158  1.2394 -0.4554  0.1607
  579MOL0     C78046   9.765   4.309   4.043  0.9259  0.2525 -0.0415
  579MOL0     N78047   9.838   4.235   3.936 -0.0561 -0.4969 -0.3683
  579MOL0     C78048   9.828   4.103   3.911  0.3557  0.1181  0.4402
  579MOL0     C78049   9.902   4.084   3.796 -0.9140 -0.2713 -0.1626
  579MOL0     C78050   9.929   3.949   3.728  0.0446  0.2392 -0.0028
  579MOL0     C78051  10.048   3.867   3.788  0.1035  0.1840 -0.0292
  579MOL0     C78052  10.172   3.943   3.809  0.4272  0.1754  0.7187
  579MOL0     C78053  10.231   4.000   3.682  0.1417 -0.7618 -0.2558
  579MOL0     O78054  10.379   3.994   3.674  0.0277 -0.5299 -0.0402
  579MOL0     C78055  10.438   4.099   3.755 -0.6354  0.1048  0.2311
  579MOL0     C78056  10.579   4.100   3.746  0.7778  0.6598  1.0268
  579MOL0     C78057  10.653   4.205   3.799 -0.6170  1.1315 -0.5819
  579MOL0     C78058  10.593   4.317   3.862  0.1983 -0.3573 -0.4140
  579MOL0     C78059  10.672   4.417   3.939  0.0919 -0.9615  0.4912
  579MOL0     O78060  10.611   4.474   4.044 -0.2717  0.9915 -0.5507
  579MOL0     C78061  10.681   4.580   4.099 -0.1456 -0.1463 -0.1075
  579MOL0     C78062  10.764   4.572   4.211 -0.3472  0.7657  0.1730
  579MOL0     C78063  10.830   4.699   4.243 -0.7795  1.6440 -0.0340
  579MOL0     C78064  10.810   4.813   4.179  0.1283  1.0186  0.0860
  579MOL0     O78065  10.880   4.919   4.232  0.1782 -0.1952 -0.7258
  579MOL0     C78066  10.851   5.045   4.184 -0.5063  1.0514 -0.0806
  579MOL0     C78067  10.934   5.067   4.061 -0.6213  0.2165 -0.2827
  579MOL0     C78068  11.091   5.081   4.075  0.1360 -0.2159 -0.2740
  579MOL0     C78069  11.169   5.086   3.934 -0.6230  0.2470  0.4878
  579MOL0     C78070  11.203   4.943   3.877  0.2669 -1.0496  0.1000
  579MOL0     C78071  11.302   4.963   3.754 -0.2635  0.7079  0.5547
  579MOL0     C78072  11.251   5.006   3.623  0.0830 -0.0863 -0.5607
  579MOL0     C78073  11.353   5.006   3.499  0.7385  0.4597  0.4176
  579MOL0    Cl78074  11.517   5.083   3.533  0.1948 -0.3316 -0.0347
  579MOL0     C78075  10.709   4.812   4.077 -1.4289 -0.7708  0.4948
  579MOL0     C78076  10.662   4.693   4.031 -0.0012 -0.2667 -0.2801
  579MOL0     O78077  10.790   4.438   3.906  0.4560 -0.3029  0.4858
  579MOL0     C78078  10.452   4.305   3.879 -0.2660 -0.4367  0.8515
  579MOL0     C78079  10.377   4.195   3.839 -0.2986 -0.9343 -0.6303
  579MOL0     N78080   9.952   4.209   3.759 -0.2169  0.7916  0.1516
  579MOL0     N78081   9.914   4.297   3.843 -0.3359  1.0721 -0.4302
  579MOL0     C78082   9.407   4.332   4.992 -0.1751 -0.1097 -0.2431
  579MOL0     C78083   9.313   4.311   5.087  0.0165 -0.6582  0.4083
  579MOL0     C78084   8.882   4.200   5.180  0.2669 -0.0974  0.2110
  579MOL0     C78085   8.871   4.061   5.191  0.5534 -0.7284  1.1536
  579MOL0     C78086   8.752   3.994   5.234  0.2968 -1.0155  0.4172
  579MOL0     C78087   8.640   4.072   5.240  0.1784 -0.1970  0.5628
  579MOL0     O78088   8.519   4.005   5.260  0.3878  1.4426  0.4898
  579MOL0     C78089   8.392   4.073   5.255  1.2541  0.3787 -0.1245
  579MOL0     C78090   8.273   3.985   5.298 -0.6857 -0.8373 -0.5663
  579MOL0     C78091   8.137   4.047   5.285  0.1846 -0.5015 -0.9065
  579MOL0     C78092   8.030   3.937   5.262  0.6545 -0.6945  0.6222
  579MOL0     C78093   7.897   3.989   5.275 -0.0720 -0.0670  0.0932
  579MOL0     C78094   7.802   4.056   5.299  0.0525  0.6340  0.3748
  579MOL0     C78095   8.646   4.214   5.231 -0.6385  0.1107 -0.4920
  579MOL0     C78096   8.775   4.278   5.205 -0.1458  0.2576  0.2111
  579MOL0     C78097   8.772   4.428   5.194 -0.5725 -0.0115 -0.3715
  579MOL0     H78098   9.181   4.014   4.969  1.2159 -1.4369 -4.1135
  579MOL0     H78099   9.349   4.056   4.796 -1.9680  2.5018 -1.8456
  579MOL0     H78100   9.662   4.160   4.913 -1.6195 -0.5875 -0.1271
  579MOL0     H78101   9.635   4.088   4.760  2.2152  0.5258 -1.6551
  579MOL0     H78102   9.850   4.213   4.780  0.7728  1.0657  0.9426
  579MOL0     H78103   9.769   4.367   4.784 -0.1492  0.4693  0.1251
  579MOL0     H78104   9.667   4.281   4.555  1.0122  0.2925 -1.0797
  579MOL0     H78105   9.770   4.140   4.590 -3.2430 -0.6620  1.3246
  579MOL0     H78106   9.861   4.437   4.527 -0.5725  1.1548 -0.3994
  579MOL0     H78107   9.963   4.293   4.555 -0.2744 -0.6907  0.3242
  579MOL0     H78108   9.938   4.336   4.310  2.4904  0.0485  1.2737
  579MOL0     H78109   9.904   4.178   4.361 -0.2011  0.7226 -0.4851
  579MOL0     H78110   9.648   4.243   4.364 -0.7804  3.4066  2.2490
  579MOL0     H78111   9.681   4.395   4.299 -2.5387 -0.4575  0.1034
  579MOL0     H78112   9.610   4.204   4.148  0.6405  3.6080 -0.4455
  579MOL0     H78113   9.777   4.125   4.163 -1.2718 -2.1261  0.5391
  579MOL0     H78114   9.679   4.362   4.002 -0.3462 -1.0119  0.8827
  579MOL0     H78115   9.829   4.386   4.088  1.8232 -0.3741 -0.2047
  579MOL0     H78116   9.778   4.025   3.969 -1.6985  0.1641 -1.1686
  579MOL0     H78117   9.843   3.886   3.751 -1.0671  1.1411 -1.5299
  579MOL0     H78118   9.918   3.958   3.620 -0.1633 -0.2699 -0.0258
  579MOL0     H78119  10.016   3.826   3.884 -2.1971  3.5328  0.8044
  579MOL0     H78120  10.062   3.774   3.731  4.0395 -1.9551  3.8399
  579MOL0     H78121  10.246   3.876   3.853 -0.6854 -2.1952 -0.8251
  579MOL0     H78122  10.153   4.026   3.878 -0.0513  1.3117 -0.7298
  579MOL0     H78123  10.192   4.102   3.675 -0.5246 -0.9568  0.5480
  579MOL0     H78124  10.191   3.940   3.600 -4.8956  1.8661 -0.1100
  579MOL0     H78125  10.621   4.025   3.680 -1.5146  1.8839 -2.0653
  579MOL0     H78126  10.761   4.199   3.796 -0.7062 -0.5812 -2.0633
  579MOL0     H78127  10.772   4.475   4.258  0.5132 -1.4999 -4.2018
  579MOL0     H78128  10.908   4.708   4.318  1.9589  0.7410 -2.5554
  579MOL0     H78129  10.743   5.063   4.175 -0.8707 -0.7311  0.2271
  579MOL0     H78130  10.886   5.113   4.262 -0.1481 -0.2015  0.8982
  579MOL0     H78131  10.920   4.979   3.998  0.3127 -0.6857  0.7357
  579MOL0     H78132  10.899   5.160   4.014 -0.0509  0.5374 -0.0867
  579MOL0     H78133  11.113   5.176   4.124  1.9394  0.6421 -2.5647
  579MOL0     H78134  11.137   5.005   4.139 -0.3348  0.1490  0.5066
  579MOL0     H78135  11.263   5.140   3.952 -0.7150  1.3113 -1.9178
  579MOL0     H78136  11.116   5.146   3.860  1.7781  0.3983 -1.2407
  579MOL0     H78137  11.110   4.889   3.856  0.1781 -0.8482 -0.0279
  579MOL0     H78138  11.255   4.882   3.951 -0.4417 -0.4508  1.1217
  579MOL0     H78139  11.383   5.033   3.777 -0.7974  1.7678 -0.6648
  579MOL0     H78140  11.350   4.866   3.736  1.3921  1.8111 -1.3709
  579MOL0     H78141  11.213   5.107   3.635  1.6622  0.4051  0.6551
  579MOL0     H78142  11.161   4.953   3.588 -0.6707  1.7329 -1.5152
  579MOL0     H78143  11.361   4.896   3.498 -3.1284  0.0382 -1.3590
  579MOL0     H78144  11.318   5.034   3.400 -2.3887  0.3449  1.3904
  579MOL0     H78145  10.684   4.903   4.023 -0.3757 -0.3964  0.6111
  579MOL0     H78146  10.590   4.695   3.950  1.5229  0.7048 -1.6721
  579MOL0     H78147  10.396   4.374   3.942 -1.1679  0.0293 -0.4288
  579MOL0     H78148  10.269   4.201   3.850 -0.4823 -2.4739 -1.3813
  579MOL0     H78149   9.486   4.407   4.994  0.1111 -0.2998  3.5631
  579MOL0     H78150   9.311   4.376   5.174 -1.2580  0.4397 -0.4082
  579MOL0     H78151   8.951   3.989   5.179 -0.2879 -2.2318  3.7276
  579MOL0     H78152   8.746   3.886   5.238  2.0855 -1.3450 -2.8167
  579MOL0     H78153   8.364   4.089   5.150  0.1821 -1.0985 -0.0917
  579MOL0     H78154   8.396   4.160   5.322  0.4021 -0.8061  1.5410
  579MOL0     H78155   8.289   3.957   5.403 -1.7975  5.4664  1.7424
  579MOL0     H78156   8.271   3.897   5.234 -0.7022 -0.3746 -1.2166
  579MOL0     H78157   8.132   4.120   5.204  0.9226  1.0639  0.4052
  579MOL0     H78158   8.104   4.097   5.377  0.8391  1.1431 -1.5189
  579MOL0     H78159   8.038   3.900   5.159 -1.2312 -1.6267  0.7634
  579MOL0     H78160   8.033   3.859   5.339 -0.0776 -0.0309  1.3375
  579MOL0     H78161   7.721   4.122   5.320 -1.5409 -1.0661 -0.2243
  579MOL0     H78162   8.564   4.282   5.251  1.2031  2.0141  1.0090
  579MOL0     H78163   8.832   4.477   5.271 -0.7568 -0.6239  0.1754
  579MOL0     H78164   8.786   4.481   5.099 -1.0824 -0.8325 -0.9181
  579MOL0     H78165   8.666   4.447   5.211 -0.4207 -0.8731  1.8649
  580MOL0     O78166  11.289   5.168   0.901  0.2336 -0.5539 -0.3413
  580MOL0     C78167  11.299   5.281   0.946 -0.0532  0.1795  0.2367
  580MOL0     O78168  11.375   5.310   1.053  1.0814 -0.5348  0.0139
  580MOL0     C78169  11.465   5.223   1.108  0.1102 -0.5927 -0.3225
  580MOL0     C78170  11.478   5.234   1.250 -2.2561  0.0867  1.0120
  580MOL0     C78171  11.555   5.145   1.317 -0.1711 -0.2780  0.4420
  580MOL0     C78172  11.638   5.044   1.257 -0.9450 -0.5827 -0.0984
  580MOL0     O78173  11.723   4.957   1.327 -0.4461 -0.3926  0.1293
  580MOL0     C78174  11.730   4.950   1.466  0.2035  0.2199 -0.2838
  580MOL0     C78175  11.859   4.876   1.513 -0.4908 -0.7009 -0.2818
  580MOL0     C78176  11.877   4.719   1.492 -0.0293  0.6270 -0.6608
  580MOL0     C78177  11.875   4.688   1.345  0.6029  0.3430 -0.7251
  580MOL0     C78178  11.861   4.541   1.329 -0.1090  0.2108 -1.7465
  580MOL0     C78179  11.860   4.507   1.182  0.7198 -0.1591 -0.4455
  580MOL0     C78180  11.919   4.379   1.164 -0.2137 -0.4040 -0.1372
  580MOL0     C78181  11.876   4.329   1.029  0.0568 -0.1657 -0.1658
  580MOL0     N78182  11.922   4.190   1.002 -0.1950  0.1649 -0.6830
  580MOL0     C78183  12.059   4.143   0.997 -0.1105  0.0084  0.1810
  580MOL0     C78184  12.048   4.018   0.946  0.0030 -0.5212 -0.6063
  580MOL0     C78185  12.155   3.919   0.919  0.7290 -0.2803  0.6655
  580MOL0     C78186  12.227   3.895   1.052 -0.8804 -0.5056  0.2144
  580MOL0     C78187  12.362   3.823   1.038  0.4198 -1.0203  0.4203
  580MOL0     C78188  12.460   3.851   1.156  0.1776  0.6678  0.5680
  580MOL0     O78189  12.587   3.791   1.122 -0.4039 -0.1803  0.2753
  580MOL0     C78190  12.676   3.781   1.225  0.4288 -0.6382  0.4696
  580MOL0     C78191  12.793   3.709   1.204 -0.1763  0.4422 -0.2724
  580MOL0     C78192  12.895   3.691   1.299  0.3736  0.1135 -0.2301
  580MOL0     C78193  12.886   3.766   1.423  0.0888 -0.5355  0.5089
  580MOL0     C78194  12.995   3.753   1.523 -0.2094 -0.8248 -0.2112
  580MOL0     O78195  12.950   3.795   1.653  0.3462 -0.5343  0.4846
  580MOL0     C78196  13.030   3.816   1.762  0.0407  0.8265 -0.5421
  580MOL0     C78197  13.163   3.789   1.770 -1.0352 -0.7051  0.7390
  580MOL0     C78198  13.240   3.811   1.879  0.1621  0.5095 -0.0377
  580MOL0     C78199  13.171   3.869   1.992 -0.4331 -0.1941 -1.0085
  580MOL0     O78200  13.265   3.901   2.092  0.1619  0.6639 -0.5794
  580MOL0     C78201  13.216   3.912   2.224 -0.0226 -1.0234  0.2907
  580MOL0     C78202  13.333   3.966   2.316 -0.2539 -0.4472 -0.2774
  580MOL0     C78203  13.449   3.864   2.307  0.4265 -0.1644 -0.2386
  580MOL0     C78204  13.559   3.892   2.407  0.2783 -0.5794 -0.0693
  580MOL0     C78205  13.657   3.770   2.428  0.9177 -0.1137  0.5608
  580MOL0     C78206  13.793   3.816   2.478  0.2572 -0.7879  0.0730
  580MOL0     C78207  13.878   3.703   2.546 -0.2676 -0.5130 -0.0010
  580MOL0     C78208  13.875   3.705   2.701  0.1988 -0.3240  0.1529
  580MOL0    Cl78209  13.966   3.576   2.776 -0.0333  0.4062  0.3436
  580MOL0     C78210  13.035   3.903   1.986 -0.2756  0.0160  0.0782
  580MOL0     C78211  12.960   3.873   1.872 -0.0551  0.1179 -0.3487
  580MOL0     O78212  13.103   3.716   1.489 -0.1095 -0.8179 -0.1702
  580MOL0     C78213  12.774   3.859   1.439 -0.2327  0.2153 -0.9487
  580MOL0     C78214  12.665   3.851   1.349 -0.7862  0.2940 -0.0040
  580MOL0     N78215  11.918   3.997   0.914  0.4046  0.1610  0.0011
  580MOL0     N78216  11.848   4.087   0.963 -0.3710  0.3592 -1.0595
  580MOL0     C78217  11.621   5.032   1.119 -0.3712  0.9968  0.2165
  580MOL0     C78218  11.528   5.113   1.053 -0.0035  0.2332 -0.7850
  580MOL0     C78219  11.220   5.395   0.874  0.6407  0.0772 -0.2665
  580MOL0     C78220  11.231   5.528   0.929 -0.6227 -0.0276  0.8852
  580MOL0     C78221  11.186   5.641   0.862  0.1854 -0.2247 -0.2714
  580MOL0     C78222  11.106   5.632   0.748 -0.2187  0.1604  0.1173
  580MOL0     O78223  11.052   5.735   0.675 -0.2894 -0.0377  0.0393
  580MOL0     C78224  11.043   5.868   0.727 -0.0264 -0.2861 -0.4906
  580MOL0     C78225  10.913   5.943   0.682  0.1210 -0.1168  0.4100
  580MOL0     C78226  10.950   6.013   0.555 -0.0211  0.1341  0.2308
  580MOL0     C78227  10.823   6.056   0.474  0.2987 -1.2886 -0.0787
  580MOL0     C78228  10.757   6.174   0.540 -0.7632  0.1983  0.0055
  580MOL0     C78229  10.702   6.272   0.598  0.0930 -0.3209 -0.6266
  580MOL0     C78230  11.081   5.501   0.699 -0.6083  0.5154  0.7671
  580MOL0     C78231  11.140   5.383   0.750 -0.4229 -0.1241 -0.5593
  580MOL0     C78232  11.132   5.255   0.673 -0.1070 -0.3382  0.2829
  580MOL0     H78233  11.429   5.320   1.294  0.7935  1.7536  1.4508
  580MOL0     H78234  11.568   5.146   1.424  1.5132  0.6511  0.2701
  580MOL0     H78235  11.748   5.048   1.510 -1.2861 -0.1653  1.2672
  580MOL0     H78236  11.642   4.907   1.515  1.6467 -2.5722  0.0822
  580MOL0     H78237  11.876   4.895   1.619 -1.3275  1.7347 -0.5200
  580MOL0     H78238  11.940   4.935   1.468  1.2962  0.2704  3.7476
  580MOL0     H78239  11.793   4.663   1.534  0.0442  0.2797 -0.9679
  580MOL0     H78240  11.967   4.677   1.536 -2.2138 -3.1384  0.6631
  580MOL0     H78241  11.781   4.726   1.303 -0.7554 -1.5221  0.4412
  580MOL0     H78242  11.953   4.729   1.281  1.0604  0.5460 -0.0509
  580MOL0     H78243  11.959   4.505   1.361 -0.5343 -0.1812 -0.8408
  580MOL0     H78244  11.783   4.495   1.391  0.2816 -1.2800 -2.3203
  580MOL0     H78245  11.756   4.495   1.151  0.2306  2.2632  0.0011
  580MOL0     H78246  11.901   4.583   1.115  2.0436 -0.6872 -0.2546
  580MOL0     H78247  11.886   4.314   1.245  0.3398  3.7058  3.7465
  580MOL0     H78248  12.028   4.380   1.174 -0.1800 -2.3077  0.1092
  580MOL0     H78249  11.767   4.318   1.018  0.0621  0.7098 -1.2245
  580MOL0     H78250  11.908   4.391   0.946  0.9414 -0.4893 -0.0714
  580MOL0     H78251  12.147   4.203   1.016 -2.7848  3.2463  4.0669
  580MOL0     H78252  12.121   3.819   0.890 -0.7538  0.5609 -0.6748
  580MOL0     H78253  12.213   3.956   0.833  1.7975 -1.8896  0.6520
  580MOL0     H78254  12.248   3.997   1.088  0.7683 -1.6012  2.5965
  580MOL0     H78255  12.165   3.847   1.127  0.4695 -1.2223  0.9041
  580MOL0     H78256  12.415   3.864   0.952 -0.4649 -2.1252 -0.6907
  580MOL0     H78257  12.356   3.716   1.019 -0.6849 -0.6140 -1.9266
  580MOL0     H78258  12.421   3.800   1.245  2.3961 -2.4491 -0.0774
  580MOL0     H78259  12.470   3.958   1.176 -1.4689  0.9692 -0.1052
  580MOL0     H78260  12.804   3.667   1.105 -2.2708 -0.4984 -0.1531
  580MOL0     H78261  12.970   3.614   1.283 -1.0592 -1.1310 -1.3460
  580MOL0     H78262  13.207   3.735   1.686  0.8721  0.2962  1.0362
  580MOL0     H78263  13.343   3.778   1.879  0.2733  0.8544 -0.3135
  580MOL0     H78264  13.133   3.982   2.239  2.7042  2.0659  2.3020
  580MOL0     H78265  13.185   3.812   2.256 -0.7688 -0.6457  0.7966
  580MOL0     H78266  13.359   4.069   2.289 -0.9656 -0.1098  0.3038
  580MOL0     H78267  13.288   3.964   2.416 -0.6626 -0.8478 -0.4717
  580MOL0     H78268  13.407   3.764   2.314 -1.8068  0.1643 -4.9558
  580MOL0     H78269  13.491   3.871   2.206 -0.0151 -1.3157 -0.5193
  580MOL0     H78270  13.511   3.909   2.504 -0.9123 -1.4367 -0.4756
  580MOL0     H78271  13.614   3.985   2.387  0.3095  0.2244  3.1808
  580MOL0     H78272  13.664   3.718   2.332  1.3207 -1.0864  1.1005
  580MOL0     H78273  13.608   3.701   2.498  0.6684  1.4924  2.0454
  580MOL0     H78274  13.857   3.856   2.398 -0.5447 -1.8293 -1.1418
  580MOL0     H78275  13.775   3.893   2.553  0.2399 -1.9281  1.2699
  580MOL0     H78276  13.981   3.702   2.509 -0.6054  1.0941 -1.1097
  580MOL0     H78277  13.830   3.609   2.518  0.9403 -0.6811 -1.6309
  580MOL0     H78278  13.917   3.800   2.733  0.6253  0.0797 -1.4854
  580MOL0     H78279  13.770   3.700   2.732 -0.7131  3.6875 -1.6925
  580MOL0     H78280  13.001   3.940   2.082 -0.1634 -3.2886  1.5148
  580MOL0     H78281  12.854   3.894   1.858 -0.6334 -2.4827 -0.4322
  580MOL0     H78282  12.758   3.911   1.533  1.4006 -2.3392  0.8906
  580MOL0     H78283  12.585   3.925   1.356 -0.7393  0.8000 -3.0811
  580MOL0     H78284  11.674   4.957   1.061  0.3317  2.0201 -0.5081
  580MOL0     H78285  11.514   5.087   0.948 -0.9678 -1.9513 -0.1753
  580MOL0     H78286  11.275   5.539   1.028  1.6864 -2.1764  0.2051
  580MOL0     H78287  11.197   5.742   0.901 -2.2100  1.2456 -2.9414
  580MOL0     H78288  11.125   5.936   0.701 -0.9359  0.2609 -2.0828
  580MOL0     H78289  11.035   5.864   0.836  1.1063  1.1601 -0.3216
  580MOL0     H78290  10.865   6.013   0.751 -0.7357 -0.6320  0.3583
  580MOL0     H78291  10.841   5.864   0.656  1.5579 -0.5889 -2.4862
  580MOL0     H78292  11.003   5.945   0.488 -3.7446 -0.5166 -2.3591
  580MOL0     H78293  11.003   6.108   0.571  0.1091  0.0480  0.3059
  580MOL0     H78294  10.840   6.079   0.368 -1.0139 -4.4419 -1.1110
  580MOL0     H78295  10.743   5.981   0.472 -0.0927 -0.8682 -1.3276
  580MOL0     H78296  10.656   6.343   0.664 -0.1115 -3.0058  2.3546
  580MOL0     H78297  11.021   5.491   0.608 -2.2710  0.9242  1.7763
  580MOL0     H78298  11.085   5.181   0.738 -2.3183  0.5234 -0.2599
  580MOL0     H78299  11.065   5.274   0.589 -1.0368  1.9201  1.4358
  580MOL0     H78300  11.231   5.229   0.636 -0.7887 -2.5222 -0.1394
  581MOL0     O78301  10.537   6.551   0.090 -0.7085 -0.3129 -0.1967
  581MOL0     C78302  10.430   6.494   0.101 -0.2210 -0.4192  0.0841
  581MOL0     O78303  10.312   6.545   0.076 -0.1931  0.0835 -0.9876
  581MOL0     C78304  10.313   6.678   0.029 -0.5319  0.6312  0.5446
  581MOL0     C78305  10.345   6.712  -0.102  0.7415  0.7726 -0.4945
  581MOL0     C78306  10.330   6.841  -0.137 -0.3010  0.1015 -0.2780
  581MOL0     C78307  10.289   6.938  -0.043  1.0085 -0.4636  0.0101
  581MOL0     O78308  10.295   7.072  -0.070  0.3891 -0.3999 -0.1174
  581MOL0     C78309  10.432   7.115  -0.096 -0.1411 -0.0841 -0.6701
  581MOL0     C78310  10.430   7.261  -0.070  0.2755 -0.5540 -1.0428
  581MOL0     C78311  10.556   7.333  -0.124  1.2232 -0.4199  0.5972
  581MOL0     C78312  10.516   7.474  -0.135 -0.2674  0.1995 -0.0699
  581MOL0     C78313  10.626   7.564  -0.199  0.2826  0.0730  0.6420
  581MOL0     C78314  10.589   7.714  -0.169  0.3169 -1.1661 -0.2834
  581MOL0     C78315  10.694   7.808  -0.215 -0.0297 -0.6775 -0.5339
  581MOL0     C78316  10.656   7.955  -0.170  0.7639 -0.5539 -1.1336
  581MOL0     N78317  10.744   8.051  -0.217 -0.1351  0.3520  0.8057
  581MOL0     C78318  10.857   8.021  -0.281 -0.6912  0.4833 -0.0889
  581MOL0     C78319  10.893   8.141  -0.331  0.0897 -0.3450  0.6153
  581MOL0     C78320  11.022   8.157  -0.408  0.2580 -0.1304  0.7886
  581MOL0     C78321  11.131   8.237  -0.335  0.2523 -0.2142 -0.4402
  581MOL0     C78322  11.193   8.332  -0.433  0.6598 -0.6674  0.1899
  581MOL0     C78323  11.322   8.405  -0.383  0.2680 -0.4446  0.3496
  581MOL0     O78324  11.422   8.306  -0.335 -0.2672  0.5090 -0.3572
  581MOL0     C78325  11.529   8.354  -0.253 -0.3552  0.0511 -0.3035
  581MOL0     C78326  11.612   8.259  -0.199  0.3589  0.1021  0.0586
  581MOL0     C78327  11.723   8.290  -0.124  0.5851  0.3958  0.5365
  581MOL0     C78328  11.746   8.423  -0.103  0.4916  0.7483 -0.1442
  581MOL0     C78329  11.854   8.464  -0.006  0.5359 -0.2460 -1.0782
  581MOL0     O78330  11.889   8.365   0.078 -0.0255 -0.2537  0.4321
  581MOL0     C78331  11.935   8.396   0.201  1.1347  0.0562  0.4945
  581MOL0     C78332  12.065   8.365   0.236 -0.7280  0.6911 -0.5093
  581MOL0     C78333  12.112   8.391   0.361  0.0256  0.0489 -0.4706
  581MOL0     C78334  12.020   8.428   0.468 -0.5084  0.7430 -0.6993
  581MOL0     O78335  12.051   8.449   0.608 -0.8500  0.0542  0.5429
  581MOL0     C78336  12.186   8.415   0.651 -0.0454  0.4985 -0.4620
  581MOL0     C78337  12.196   8.389   0.807 -0.8673  0.6353 -0.7262
  581MOL0     C78338  12.330   8.312   0.821 -1.3840  0.1004 -0.7938
  581MOL0     C78339  12.452   8.413   0.838  0.2889 -0.2894 -0.1230
  581MOL0     C78340  12.585   8.334   0.853 -0.2206 -0.2236 -0.2639
  581MOL0     C78341  12.705   8.441   0.867  0.5652 -0.1930  0.1186
  581MOL0     C78342  12.844   8.383   0.875 -0.7362  0.8044  0.1474
  581MOL0     C78343  12.860   8.298   0.750  0.3782 -0.2700 -0.3558
  581MOL0    Cl78344  12.850   8.408   0.609  0.0160  0.3285  0.6650
  581MOL0     C78345  11.885   8.457   0.436 -0.6976 -0.4530 -0.6563
  581MOL0     C78346  11.845   8.447   0.300 -0.6188  0.3812  0.0102
  581MOL0     O78347  11.891   8.578   0.005 -0.2482 -0.1967  0.1263
  581MOL0     C78348  11.670   8.520  -0.166 -1.2771  0.7087  0.1765
  581MOL0     C78349  11.558   8.484  -0.239 -0.0572 -0.0852  0.1149
  581MOL0     N78350  10.791   8.235  -0.315  0.2933 -0.3132  0.9688
  581MOL0     N78351  10.701   8.179  -0.244 -0.4878 -0.5347 -0.0393
  581MOL0     C78352  10.253   6.901   0.087 -0.7922  0.2587 -0.2545
  581MOL0     C78353  10.268   6.769   0.128  0.6089  0.1623  0.4719
  581MOL0     C78354  10.425   6.355   0.161 -0.4660  0.4871  0.6597
  581MOL0     C78355  10.315   6.275   0.150 -0.4101 -0.8077  0.0265
  581MOL0     C78356  10.315   6.140   0.181 -0.2215 -0.7677 -0.3460
  581MOL0     C78357  10.434   6.077   0.217 -0.1964  0.0465 -0.1905
  581MOL0     O78358  10.430   5.938   0.230  0.4385  0.1756 -0.0563
  581MOL0     C78359  10.542   5.862   0.283  0.9979 -0.1505  0.0020
  581MOL0     C78360  10.627   5.802   0.178 -0.4230 -0.2580 -0.1488
  581MOL0     C78361  10.757   5.754   0.234 -0.3657  0.6620  0.1210
  581MOL0     C78362  10.844   5.692   0.128  0.5751 -1.4009  0.5685
  581MOL0     C78363  10.898   5.792   0.033  0.0673 -1.3943 -0.6209
  581MOL0     C78364  10.935   5.878  -0.042  0.4839  0.4687 -0.8493
  581MOL0     C78365  10.553   6.152   0.222  0.0435 -0.5392  0.3409
  581MOL0     C78366  10.540   6.293   0.206  0.2298 -0.1121 -0.2895
  581MOL0     C78367  10.679   6.351   0.242 -0.6833  1.2186  0.3621
  581MOL0     H78368  10.390   6.635  -0.165  0.0657 -1.4831  1.6192
  581MOL0     H78369  10.366   6.856  -0.239  0.2016 -1.1873 -0.3143
  581MOL0     H78370  10.501   7.063  -0.029  1.5849  1.4688 -1.1640
  581MOL0     H78371  10.459   7.087  -0.198  0.0175 -2.8686  0.0552
  581MOL0     H78372  10.426   7.283   0.037 -0.1363  3.8727 -1.7721
  581MOL0     H78373  10.343   7.309  -0.115  0.4018  2.5231  1.6365
  581MOL0     H78374  10.574   7.288  -0.222  0.8646 -1.4881  1.0064
  581MOL0     H78375  10.649   7.325  -0.066  2.4280  0.7817 -1.0661
  581MOL0     H78376  10.432   7.479  -0.204  2.5957 -2.6331 -4.3136
  581MOL0     H78377  10.490   7.503  -0.033 -3.0631 -1.6067 -0.1636
  581MOL0     H78378  10.730   7.540  -0.172  2.0098  3.1883 -2.4245
  581MOL0     H78379  10.622   7.544  -0.306  2.5245  0.7416  0.3613
  581MOL0     H78380  10.492   7.734  -0.216  0.6801 -4.3564 -2.7999
  581MOL0     H78381  10.591   7.732  -0.061  1.8961 -0.5442 -0.4029
  581MOL0     H78382  10.704   7.810  -0.324  0.2984  0.7731 -0.4986
  581MOL0     H78383  10.787   7.788  -0.161  1.0625  0.7171 -1.7674
  581MOL0     H78384  10.560   7.970  -0.220  0.2483 -1.3038 -0.3876
  581MOL0     H78385  10.638   7.963  -0.063 -1.9961 -0.9718 -1.4947
  581MOL0     H78386  10.899   7.925  -0.307 -2.0110  0.1372 -1.0546
  581MOL0     H78387  11.079   8.064  -0.417  1.4480  0.6609 -0.3574
  581MOL0     H78388  10.990   8.193  -0.507  0.4007 -3.2553 -0.4961
  581MOL0     H78389  11.091   8.301  -0.256  0.6189 -1.0099  0.4072
  581MOL0     H78390  11.203   8.175  -0.280  1.1048  1.8670  0.9338
  581MOL0     H78391  11.117   8.402  -0.470  1.4368 -1.2511 -2.7534
  581MOL0     H78392  11.223   8.277  -0.523  0.6619  2.5337 -1.9431
  581MOL0     H78393  11.298   8.473  -0.300 -1.8575 -0.8556  0.1292
  581MOL0     H78394  11.364   8.460  -0.467 -1.0566 -0.9220 -0.6692
  581MOL0     H78395  11.580   8.155  -0.206  0.9623 -0.3370  2.8027
  581MOL0     H78396  11.776   8.202  -0.091 -0.6545 -0.5218  0.1851
  581MOL0     H78397  12.134   8.332   0.159  1.2609 -0.7370  1.7291
  581MOL0     H78398  12.218   8.375   0.379 -0.3437 -0.4011  1.6627
  581MOL0     H78399  12.210   8.320   0.602 -1.7745  0.0799 -0.5394
  581MOL0     H78400  12.255   8.495   0.620 -1.0469  0.8543 -1.8718
  581MOL0     H78401  12.194   8.485   0.860  0.4354  1.3605 -1.9441
  581MOL0     H78402  12.117   8.328   0.852  1.0489 -0.6740  1.0227
  581MOL0     H78403  12.308   8.239   0.900  1.5736 -0.9415 -0.7978
  581MOL0     H78404  12.339   8.243   0.737 -1.5645 -2.3934  1.1101
  581MOL0     H78405  12.448   8.461   0.936  1.5964  0.8776 -0.6096
  581MOL0     H78406  12.463   8.478   0.751 -1.8485 -0.2701 -0.4146
  581MOL0     H78407  12.606   8.266   0.770  0.7866 -3.1729  2.2013
  581MOL0     H78408  12.590   8.274   0.944  1.4608 -1.0781 -0.8759
  581MOL0     H78409  12.700   8.523   0.794  2.6101 -0.5666 -0.5271
  581MOL0     H78410  12.691   8.506   0.953  2.7206  1.7346 -0.8699
  581MOL0     H78411  12.864   8.326   0.966  0.6070 -1.0065 -1.2278
  581MOL0     H78412  12.918   8.464   0.884 -1.5945  1.3819  3.1663
  581MOL0     H78413  12.953   8.242   0.736  0.6057  0.3324 -1.3074
  581MOL0     H78414  12.778   8.225   0.746 -3.5552  3.4795  2.1300
  581MOL0     H78415  11.824   8.497   0.517  2.2778  0.1910  1.4246
  581MOL0     H78416  11.742   8.464   0.272 -0.0820  0.7904 -1.8172
  581MOL0     H78417  11.692   8.623  -0.140  0.3876  0.6078 -0.6762
  581MOL0     H78418  11.497   8.566  -0.276  0.4517 -0.7669 -2.4292
  581MOL0     H78419  10.215   6.969   0.163  1.2136 -3.2353  4.4339
  581MOL0     H78420  10.235   6.722   0.220 -0.5260 -2.7601 -1.2937
  581MOL0     H78421  10.221   6.302   0.104  0.5889  0.5905 -1.3072
  581MOL0     H78422  10.246   6.063   0.151 -0.9634  0.0906 -0.9022
  581MOL0     H78423  10.502   5.773   0.334 -0.5525  0.4657 -0.0736
  581MOL0     H78424  10.593   5.927   0.355  1.3744  0.6228 -0.9403
  581MOL0     H78425  10.639   5.882   0.105 -0.6520  0.0356  0.1288
  581MOL0     H78426  10.577   5.722   0.123 -1.2917 -2.5688  3.5973
  581MOL0     H78427  10.742   5.688   0.320 -2.1561 -0.1705 -0.7924
  581MOL0     H78428  10.804   5.845   0.272  0.2005  0.6664 -0.5610
  581MOL0     H78429  10.925   5.631   0.168  0.4052 -1.7895  0.3230
  581MOL0     H78430  10.783   5.626   0.067 -3.1439  2.9502 -1.0227
  581MOL0     H78431  10.956   5.947  -0.121 -0.8816  0.2998 -1.4027
  581MOL0     H78432  10.653   6.112   0.237 -0.0277  0.3674  4.4613
  581MOL0     H78433  10.677   6.443   0.302 -3.7206  0.2483  1.9237
  581MOL0     H78434  10.751   6.282   0.286  0.8390  1.0950 -2.1253
  581MOL0     H78435  10.712   6.366   0.138 -1.8603 -1.8687 -0.5513
  582MOL0     O78436   4.606   2.285   2.361  0.2350  0.0616 -0.1256
  582MOL0     C78437   4.542   2.329   2.453 -0.6376  0.3504 -0.1800
  582MOL0     O78438   4.440   2.414   2.433 -0.1954  0.8108 -0.3482
  582MOL0     C78439   4.388   2.446   2.313 -0.0397  0.0264  0.3491
  582MOL0     C78440   4.429   2.564   2.251  0.1256  0.1466  0.2662
  582MOL0     C78441   4.373   2.588   2.125 -0.1740 -0.4462 -0.9261
  582MOL0     C78442   4.266   2.509   2.060 -1.0254  0.2254  0.0434
  582MOL0     O78443   4.195   2.536   1.943 -0.4745 -0.3435 -0.2031
  582MOL0     C78444   4.170   2.672   1.930 -0.6632  0.0586  0.2470
  582MOL0     C78445   4.091   2.701   1.810  0.2952 -0.0393  0.2904
  582MOL0     C78446   3.953   2.646   1.837  0.8349 -0.0590  0.3993
  582MOL0     C78447   3.856   2.687   1.727  0.0821 -0.2958  1.1172
  582MOL0     C78448   3.718   2.627   1.742 -0.5388 -0.1211 -0.2116
  582MOL0     C78449   3.702   2.495   1.662  0.4826 -0.7878  0.6914
  582MOL0     C78450   3.553   2.453   1.648 -0.1908  0.0276  0.1227
  582MOL0     C78451   3.482   2.535   1.531 -0.1050  0.0170 -0.0229
  582MOL0     N78452   3.332   2.512   1.550 -0.6066  0.6531 -0.4981
  582MOL0     C78453   3.284   2.389   1.535  0.2951  0.2136 -0.3618
  582MOL0     C78454   3.152   2.402   1.558  0.4052 -0.1381 -0.6963
  582MOL0     C78455   3.048   2.282   1.575  0.2003  0.2798 -0.1020
  582MOL0     C78456   2.949   2.258   1.458  0.6677 -0.7006  0.2127
  582MOL0     C78457   2.830   2.171   1.501 -0.5245  0.1316 -0.0429
  582MOL0     C78458   2.870   2.028   1.540  0.0242  0.7151  1.0827
  582MOL0     O78459   2.921   2.045   1.674  0.0380  0.2936 -0.5277
  582MOL0     C78460   2.997   1.946   1.729  0.0517  0.5841 -0.4894
  582MOL0     C78461   3.043   1.831   1.662  1.3977 -0.4313 -1.0321
  582MOL0     C78462   3.111   1.736   1.735 -0.8751 -0.0301 -0.7181
  582MOL0     C78463   3.139   1.748   1.867  0.1317  0.0163 -0.2104
  582MOL0     C78464   3.220   1.656   1.940 -0.5482  0.2389  0.0920
  582MOL0     O78465   3.263   1.686   2.068  0.0793  0.3489 -0.0655
  582MOL0     C78466   3.330   1.585   2.147  0.1459 -0.0056 -0.1313
  582MOL0     C78467   3.253   1.511   2.237 -0.0445  0.3272 -0.9240
  582MOL0     C78468   3.311   1.409   2.309  0.7561 -0.2507 -0.2697
  582MOL0     C78469   3.444   1.391   2.300  0.2809 -0.1763 -0.8935
  582MOL0     O78470   3.501   1.293   2.382 -0.0810 -0.7206  0.5578
  582MOL0     C78471   3.585   1.200   2.307  0.6132 -0.0345  0.7354
  582MOL0     C78472   3.630   1.072   2.385 -0.0631  0.1443  0.5918
  582MOL0     C78473   3.516   1.023   2.477 -0.2924  0.0417 -0.7399
  582MOL0     C78474   3.547   0.896   2.543 -0.8896  0.1796 -0.6138
  582MOL0     C78475   3.467   0.853   2.667 -1.0822 -0.1602  0.2336
  582MOL0     C78476   3.398   0.962   2.756 -0.0437 -0.3725 -0.0524
  582MOL0     C78477   3.321   0.904   2.871  0.2172  0.1859  0.0050
  582MOL0     C78478   3.393   0.809   2.969 -0.3641  0.6020 -0.3497
  582MOL0    Cl78479   3.512   0.892   3.058 -0.2763  0.1242 -0.5721
  582MOL0     C78480   3.527   1.468   2.208 -0.5803  0.2636  0.5450
  582MOL0     C78481   3.472   1.568   2.140  0.4432  0.6072  0.7786
  582MOL0     O78482   3.227   1.537   1.892  0.1914 -0.6807 -0.1695
  582MOL0     C78483   3.111   1.875   1.933  1.0117  0.3367  0.4487
  582MOL0     C78484   3.036   1.968   1.859  0.3906  0.4089 -0.3560
  582MOL0     N78485   3.122   2.541   1.567  1.0590  1.0140  0.7779
  582MOL0     N78486   3.230   2.600   1.557 -0.4410 -0.8841  0.6502
  582MOL0     C78487   4.219   2.400   2.135 -0.4424  0.4720 -0.3099
  582MOL0     C78488   4.287   2.366   2.249 -0.5071 -0.6494 -0.2363
  582MOL0     C78489   4.587   2.307   2.592 -0.5866  0.6075 -0.8499
  582MOL0     C78490   4.543   2.404   2.682 -0.1861  0.5384 -0.3564
  582MOL0     C78491   4.587   2.399   2.816  0.4123  0.6682  0.9446
  582MOL0     C78492   4.687   2.305   2.864  0.6312 -0.1428  0.3552
  582MOL0     O78493   4.711   2.321   2.998 -0.1090 -0.3583  0.5759
  582MOL0     C78494   4.798   2.228   3.064 -0.9087 -0.6237  0.0452
  582MOL0     C78495   4.942   2.275   3.038  0.2427  0.4985  0.6199
  582MOL0     C78496   5.051   2.201   3.121  0.1424 -0.5983 -0.1218
  582MOL0     C78497   5.186   2.258   3.089  0.0367 -0.2526  0.0732
  582MOL0     C78498   5.285   2.191   3.167  0.2228  0.4506 -0.7719
  582MOL0     C78499   5.366   2.138   3.240  0.0319  0.2919 -0.1158
  582MOL0     C78500   4.732   2.215   2.772  0.4987  0.6264 -0.2060
  582MOL0     C78501   4.692   2.216   2.639 -0.5218  0.8830  0.4402
  582MOL0     C78502   4.748   2.105   2.549  0.6059  0.0373 -0.8073
  582MOL0     H78503   4.507   2.628   2.292 -0.5755  0.7515  0.6683
  582MOL0     H78504   4.425   2.668   2.073  1.6011 -0.5227  0.6338
  582MOL0     H78505   4.105   2.704   2.012 -2.9938 -1.2610 -0.9841
  582MOL0     H78506   4.265   2.727   1.932  0.1869 -1.3662  2.6130
  582MOL0     H78507   4.146   2.664   1.723  0.2741  2.1743 -0.7363
  582MOL0     H78508   4.083   2.808   1.789 -0.6341 -0.0377  0.5902
  582MOL0     H78509   3.918   2.680   1.935 -0.2394 -0.6259  0.2191
  582MOL0     H78510   3.965   2.538   1.847  1.5178 -0.0083  0.1666
  582MOL0     H78511   3.854   2.796   1.731 -3.8381 -0.2200  1.1739
  582MOL0     H78512   3.904   2.660   1.632  2.3242 -1.8122  2.5953
  582MOL0     H78513   3.714   2.601   1.848 -3.6432 -1.1659 -0.4785
  582MOL0     H78514   3.638   2.694   1.707 -2.0775 -1.7980 -0.0625
  582MOL0     H78515   3.744   2.513   1.563 -2.3111 -0.8068 -0.5687
  582MOL0     H78516   3.748   2.409   1.711  0.9969 -0.5056  0.7166
  582MOL0     H78517   3.499   2.457   1.743  1.7293 -0.1620  1.2728
  582MOL0     H78518   3.537   2.350   1.614 -1.4895  0.8917 -2.1750
  582MOL0     H78519   3.517   2.638   1.540  5.0798 -1.6097  2.1296
  582MOL0     H78520   3.511   2.499   1.432 -0.1065  1.2477 -0.4939
  582MOL0     H78521   3.331   2.293   1.517  0.1898 -0.0964  0.9278
  582MOL0     H78522   3.103   2.194   1.609 -1.7176 -0.5941  0.9135
  582MOL0     H78523   2.986   2.303   1.663  0.0835 -1.7581  0.3588
  582MOL0     H78524   2.918   2.358   1.428  2.3559 -0.5440 -1.2441
  582MOL0     H78525   3.002   2.210   1.374 -1.6488 -3.3927  0.1288
  582MOL0     H78526   2.750   2.158   1.427 -3.9349  0.5225  3.2698
  582MOL0     H78527   2.776   2.228   1.577 -0.6862  1.6606 -1.2457
  582MOL0     H78528   2.940   1.979   1.473 -1.2695 -1.7237  1.3845
  582MOL0     H78529   2.777   1.970   1.539 -0.8262  1.7050 -4.3032
  582MOL0     H78530   3.030   1.811   1.556  2.4223 -2.7439 -0.7867
  582MOL0     H78531   3.149   1.644   1.694  1.9158 -0.7016  2.8247
  582MOL0     H78532   3.148   1.533   2.254 -0.9095 -3.8656  0.2278
  582MOL0     H78533   3.247   1.350   2.375  0.9940  0.3307  0.4996
  582MOL0     H78534   3.525   1.178   2.218 -0.1132  1.5928  0.7756
  582MOL0     H78535   3.674   1.254   2.274  0.3671 -0.4247 -0.6449
  582MOL0     H78536   3.647   1.001   2.304  0.5768  2.0025 -1.0011
  582MOL0     H78537   3.722   1.094   2.440  0.3658  0.3146 -0.1739
  582MOL0     H78538   3.512   1.096   2.558 -2.1449 -1.9003  1.0394
  582MOL0     H78539   3.424   1.020   2.418 -0.4991 -0.1468 -0.4078
  582MOL0     H78540   3.652   0.895   2.572 -1.2467  1.8965  0.9893
  582MOL0     H78541   3.522   0.815   2.474 -2.8128 -2.0583  2.3750
  582MOL0     H78542   3.533   0.791   2.728 -3.5235 -0.6785  2.5400
  582MOL0     H78543   3.385   0.785   2.641  0.1626 -0.4001 -3.6738
  582MOL0     H78544   3.478   1.020   2.805  0.8315 -1.5496 -0.0378
  582MOL0     H78545   3.327   1.025   2.702 -1.8939 -3.1464 -1.0702
  582MOL0     H78546   3.230   0.853   2.838  1.2151 -0.4867 -1.8354
  582MOL0     H78547   3.279   0.986   2.931  1.6327 -0.2498  1.6929
  582MOL0     H78548   3.325   0.759   3.038 -0.5970  1.8082  0.3311
  582MOL0     H78549   3.439   0.731   2.908 -0.8093  0.9445 -1.1333
  582MOL0     H78550   3.636   1.463   2.210 -0.4184 -2.8064 -3.3467
  582MOL0     H78551   3.529   1.637   2.079  0.2032  1.3452  1.3745
  582MOL0     H78552   3.146   1.912   2.028 -0.0490 -1.0184  1.4009
  582MOL0     H78553   3.018   2.062   1.912 -0.1785 -0.2171  0.5906
  582MOL0     H78554   4.146   2.339   2.083 -0.0273  0.7563 -1.2689
  582MOL0     H78555   4.255   2.276   2.301  0.5988 -0.3322  1.0658
  582MOL0     H78556   4.492   2.497   2.658  2.6262  3.4992  3.6110
  582MOL0     H78557   4.542   2.469   2.886 -0.8784  1.0768 -0.2376
  582MOL0     H78558   4.792   2.127   3.022 -0.8035  0.0832 -1.7319
  582MOL0     H78559   4.777   2.230   3.171 -3.1054  1.9502 -0.3328
  582MOL0     H78560   4.951   2.381   3.065 -0.6413  1.3855 -2.1921
  582MOL0     H78561   4.967   2.263   2.932  1.1514  1.4761  0.7074
  582MOL0     H78562   5.057   2.094   3.095 -0.4480 -0.6582 -0.0150
  582MOL0     H78563   5.026   2.211   3.227 -1.5570 -1.9498 -0.3570
  582MOL0     H78564   5.218   2.250   2.985  1.4002  4.0097 -0.0106
  582MOL0     H78565   5.189   2.366   3.102 -0.0825  0.3449 -3.6642
  582MOL0     H78566   5.448   2.095   3.294  1.1466 -1.6863 -3.1210
  582MOL0     H78567   4.797   2.139   2.815  0.6789  0.8693 -0.0436
  582MOL0     H78568   4.659   2.047   2.522  0.7416 -1.4546  1.6514
  582MOL0     H78569   4.803   2.152   2.467 -0.3786 -2.0213 -2.7441
  582MOL0     H78570   4.812   2.033   2.601 -2.1138 -1.8948  0.1243
  583MOL0     O78571   1.094   8.122   3.088  0.0145  0.5377 -0.3495
  583MOL0     C78572   1.161   8.219   3.052  0.4219  0.4136  0.5475
  583MOL0     O78573   1.128   8.318   2.964  0.4916  0.1711 -0.7473
  583MOL0     C78574   0.995   8.317   2.925  0.6752 -0.2221  0.1939
  583MOL0     C78575   0.950   8.232   2.824 -0.8644 -0.5705  0.1764
  583MOL0     C78576   0.816   8.236   2.793 -1.0673  0.3891  0.9119
  583MOL0     C78577   0.715   8.301   2.867 -0.0263  0.0295  0.4814
  583MOL0     O78578   0.585   8.290   2.830 -0.2749  0.0656  0.1958
  583MOL0     C78579   0.488   8.387   2.870 -0.4802 -1.0201  0.8877
  583MOL0     C78580   0.372   8.356   2.781 -0.2064  0.4801 -0.1136
  583MOL0     C78581   0.296   8.224   2.833 -0.4535 -1.3096 -0.8389
  583MOL0     C78582   0.160   8.209   2.766 -0.0802 -0.6218 -1.5962
  583MOL0     C78583   0.099   8.076   2.828 -0.2004 -1.1429 -0.4495
  583MOL0     C78584  -0.046   8.064   2.789  0.7560 -0.0903 -0.0616
  583MOL0     C78585  -0.134   8.111   2.897  0.2838 -0.5608 -0.5766
  583MOL0     C78586  -0.141   8.031   3.029  0.1421  0.8780 -0.5923
  583MOL0     N78587  -0.247   8.075   3.128  0.3886  0.1678 -0.9287
  583MOL0     C78588  -0.215   8.153   3.233 -0.7405 -0.3493 -0.8334
  583MOL0     C78589  -0.329   8.169   3.301  0.2301 -0.7563 -0.2204
  583MOL0     C78590  -0.351   8.243   3.429 -0.0046 -1.0905  0.1066
  583MOL0     C78591  -0.323   8.397   3.422 -0.5963  0.0515  0.3348
  583MOL0     C78592  -0.292   8.459   3.559  0.2073  0.1955 -0.0078
  583MOL0     C78593  -0.226   8.601   3.545 -0.0771 -0.8779 -0.6179
  583MOL0     O78594  -0.110   8.600   3.462 -0.3360 -0.4489 -0.1807
  583MOL0     C78595  -0.043   8.715   3.438 -0.2681 -0.0792 -0.1262
  583MOL0     C78596  -0.004   8.757   3.307  0.2574 -0.7762 -0.1927
  583MOL0     C78597   0.055   8.886   3.287  0.0344 -0.2355 -0.3968
  583MOL0     C78598   0.093   8.964   3.396 -0.4844 -0.7540  0.5084
  583MOL0     C78599   0.146   9.094   3.377 -0.1496  0.3274 -1.0642
  583MOL0     O78600   0.172   9.161   3.493 -0.2917  0.2257 -0.1058
  583MOL0     C78601   0.247   9.274   3.516 -0.3055  0.8461  0.0601
  583MOL0     C78602   0.325   9.334   3.414  0.0745 -0.9664  0.1312
  583MOL0     C78603   0.380   9.455   3.436 -0.9159  0.1830 -1.3350
  583MOL0     C78604   0.371   9.523   3.561  0.4041  1.2978 -0.6471
  583MOL0     O78605   0.421   9.649   3.592  0.0337  0.1392 -0.5911
  583MOL0     C78606   0.550   9.684   3.533  0.5739 -0.3464 -0.4610
  583MOL0     C78607   0.617   9.796   3.607 -1.5559  0.1645  0.4798
  583MOL0     C78608   0.776   9.808   3.590  0.1692  0.5927 -0.2133
  583MOL0     C78609   0.825   9.932   3.669 -0.6806 -0.0453 -0.1588
  583MOL0     C78610   0.968   9.930   3.699  0.4954 -0.1334  0.3657
  583MOL0     C78611   1.006   9.833   3.820 -0.0270  0.1528 -0.2875
  583MOL0     C78612   1.153   9.826   3.865 -0.8337 -0.0550 -0.1994
  583MOL0     C78613   1.220   9.703   3.903 -0.2962  0.0248 -0.1989
  583MOL0    Cl78614   1.298   9.630   3.758  0.2054  0.3401 -0.1743
  583MOL0     C78615   0.305   9.454   3.663 -0.4908 -0.2572  0.2401
  583MOL0     C78616   0.234   9.337   3.643 -0.4434 -1.1035 -1.2067
  583MOL0     O78617   0.151   9.139   3.267  0.2087 -0.3902 -0.7123
  583MOL0     C78618   0.069   8.909   3.526  1.0819 -0.1384  0.4213
  583MOL0     C78619  -0.013   8.793   3.542 -0.0915 -0.0833 -0.5819
  583MOL0     N78620  -0.420   8.090   3.236 -0.0785 -0.2380  0.3624
  583MOL0     N78621  -0.370   8.035   3.139  0.3357  0.6317 -0.0297
  583MOL0     C78622   0.762   8.386   2.970  0.2040 -0.7056 -0.5992
  583MOL0     C78623   0.899   8.400   2.992 -0.9317 -0.1912  0.8036
  583MOL0     C78624   1.304   8.207   3.093 -0.0422  0.8164 -0.2814
  583MOL0     C78625   1.406   8.186   3.004 -0.3445  0.3682  0.0563
  583MOL0     C78626   1.534   8.174   3.049 -0.7814  0.0045 -0.0764
  583MOL0     C78627   1.570   8.177   3.177 -0.8349  0.3126  0.1141
  583MOL0     O78628   1.699   8.186   3.231 -0.0099  0.0566  0.4046
  583MOL0     C78629   1.801   8.122   3.149  0.6096  0.8778 -0.0127
  583MOL0     C78630   1.939   8.155   3.214 -0.2887 -0.0826  0.0239
  583MOL0     C78631   1.974   8.053   3.324  0.3643  0.0536  1.1072
  583MOL0     C78632   2.096   8.092   3.410 -0.4881 -1.3402  0.7069
  583MOL0     C78633   2.207   8.083   3.323 -1.2264  0.1784 -0.2616
  583MOL0     C78634   2.305   8.066   3.248 -0.1535 -0.2683  1.0343
  583MOL0     C78635   1.471   8.203   3.273 -0.0250 -0.6006 -1.1028
  583MOL0     C78636   1.343   8.224   3.233  0.0058  0.6770 -0.3249
  583MOL0     C78637   1.239   8.269   3.336 -0.8939 -0.1081  0.1822
  583MOL0     H78638   1.011   8.163   2.766  1.4418 -0.5384  2.4174
  583MOL0     H78639   0.788   8.159   2.721  1.4741 -1.7915  2.1106
  583MOL0     H78640   0.453   8.378   2.973  0.7318 -0.0621  1.4155
  583MOL0     H78641   0.520   8.491   2.852 -3.6689  0.3648  2.4390
  583MOL0     H78642   0.412   8.349   2.679  2.3943 -1.2900  0.9383
  583MOL0     H78643   0.306   8.443   2.786  1.8110  2.0425  0.1136
  583MOL0     H78644   0.281   8.239   2.940  0.1680 -0.3439 -0.8725
  583MOL0     H78645   0.363   8.142   2.805 -2.9719 -2.7863 -3.0409
  583MOL0     H78646   0.090   8.288   2.795  0.7558 -0.8562  1.3973
  583MOL0     H78647   0.165   8.212   2.657  0.0422  0.7426 -1.5619
  583MOL0     H78648   0.158   7.991   2.792 -1.6514 -2.2865 -0.2186
  583MOL0     H78649   0.121   8.083   2.935  0.8994  0.8587 -0.7537
  583MOL0     H78650  -0.055   8.112   2.691  2.8264 -3.6344 -2.2270
  583MOL0     H78651  -0.073   7.960   2.770 -1.2800  0.7867 -2.6355
  583MOL0     H78652  -0.236   8.119   2.857 -0.9291  0.8772  2.4543
  583MOL0     H78653  -0.102   8.212   2.925  0.3781 -1.0763  1.3136
  583MOL0     H78654  -0.152   7.926   2.999 -2.2456  0.5839  0.9903
  583MOL0     H78655  -0.045   8.030   3.082 -1.2016  3.0338  2.1402
  583MOL0     H78656  -0.119   8.195   3.263  0.2885 -3.1725  0.2089
  583MOL0     H78657  -0.451   8.230   3.472  0.4238 -0.4974  1.3496
  583MOL0     H78658  -0.290   8.199   3.510 -1.4879 -1.4698  1.0521
  583MOL0     H78659  -0.232   8.414   3.364  0.8612  2.5382  3.0582
  583MOL0     H78660  -0.407   8.448   3.375  0.0448  0.2777 -0.5886
  583MOL0     H78661  -0.227   8.392   3.615  0.1619 -1.9046 -2.3251
  583MOL0     H78662  -0.389   8.483   3.604  1.1920  3.5514  0.5961
  583MOL0     H78663  -0.206   8.634   3.648  0.1910 -3.4056  0.2264
  583MOL0     H78664  -0.288   8.670   3.488  0.5260 -0.7252 -1.0935
  583MOL0     H78665  -0.032   8.695   3.223  2.0780 -0.6331 -0.9494
  583MOL0     H78666   0.079   8.911   3.184 -1.0779  1.4675 -0.2925
  583MOL0     H78667   0.329   9.294   3.313 -0.1596 -0.9607  0.1206
  583MOL0     H78668   0.436   9.513   3.362  3.3187  1.2618  2.2896
  583MOL0     H78669   0.617   9.598   3.542 -0.7816 -1.4192 -0.2283
  583MOL0     H78670   0.553   9.717   3.428  1.7279  0.4319 -0.2064
  583MOL0     H78671   0.572   9.887   3.566 -1.6518  0.5040  1.3286
  583MOL0     H78672   0.595   9.786   3.714 -0.7419 -0.8310  0.5736
  583MOL0     H78673   0.807   9.714   3.637  0.4463  0.2836 -1.0049
  583MOL0     H78674   0.818   9.820   3.490  1.4187  4.1052  0.5837
  583MOL0     H78675   0.769   9.933   3.763 -0.1658 -0.5420  0.1593
  583MOL0     H78676   0.804  10.022   3.611  0.2795  2.1768  2.7046
  583MOL0     H78677   1.004  10.029   3.728 -1.3278 -0.2866  3.6433
  583MOL0     H78678   1.028   9.889   3.617 -0.4152 -1.7718  0.4657
  583MOL0     H78679   0.942   9.856   3.905 -2.5843 -0.3668 -1.9586
  583MOL0     H78680   0.982   9.737   3.774  2.6802 -2.4952  3.2145
  583MOL0     H78681   1.162   9.885   3.956  1.3544 -0.5496 -0.0505
  583MOL0     H78682   1.207   9.891   3.796  3.3383 -1.6302  1.2626
  583MOL0     H78683   1.295   9.726   3.979 -0.2353  1.3321 -0.6356
  583MOL0     H78684   1.143   9.631   3.933 -2.7880  1.6135 -2.2956
  583MOL0     H78685   0.306   9.505   3.758  1.9523  1.9319 -0.8260
  583MOL0     H78686   0.169   9.302   3.722 -0.4891  0.3653 -0.5657
  583MOL0     H78687   0.108   8.967   3.609 -0.4269  0.0473  1.0407
  583MOL0     H78688  -0.024   8.746   3.639  1.3894 -1.5685 -1.0873
  583MOL0     H78689   0.695   8.446   3.030  1.9151  0.8580 -0.1590
  583MOL0     H78690   0.940   8.456   3.076 -1.5835 -0.3636  1.2494
  583MOL0     H78691   1.396   8.182   2.896  1.4410  1.1432 -0.1539
  583MOL0     H78692   1.613   8.167   2.975 -0.5448 -0.1665  0.1912
  583MOL0     H78693   1.798   8.156   3.044 -1.8446  1.2525  0.1062
  583MOL0     H78694   1.795   8.013   3.147 -0.0377  0.9066 -0.0622
  583MOL0     H78695   1.922   8.256   3.251 -1.0470  0.2138 -1.0718
  583MOL0     H78696   2.024   8.158   3.145  0.7026  0.2842  1.2303
  583MOL0     H78697   1.996   7.960   3.271  0.4992  1.3105 -1.1865
  583MOL0     H78698   1.886   8.037   3.387 -0.1343 -1.7189  0.0435
  583MOL0     H78699   2.079   8.192   3.450  0.0767 -1.1619  0.5114
  583MOL0     H78700   2.112   8.022   3.492  1.5197  0.8550  2.3167
  583MOL0     H78701   2.388   8.054   3.182  0.1052 -2.1988  1.6644
  583MOL0     H78702   1.488   8.218   3.379 -0.6857 -2.1332 -0.7503
  583MOL0     H78703   1.286   8.248   3.432  2.0128 -1.4424 -1.3858
  583MOL0     H78704   1.220   8.376   3.320 -1.7261  0.0225  1.9059
  583MOL0     H78705   1.146   8.212   3.325  0.9169 -3.3114  0.1222
  584MOL0     O78706   9.054   1.176   2.934 -0.3400 -0.3701  1.1543
  584MOL0     C78707   8.982   1.244   2.866  0.2075 -0.0343  0.6833
  584MOL0     O78708   9.015   1.359   2.799  0.0102  0.0725 -0.0021
  584MOL0     C78709   9.152   1.388   2.789  0.4011  0.4070  0.1799
  584MOL0     C78710   9.246   1.312   2.719  0.8313  0.1523  0.4709
  584MOL0     C78711   9.379   1.340   2.743 -0.2323  0.1342  0.9459
  584MOL0     C78712   9.426   1.439   2.825  0.4627  0.0856 -0.2881
  584MOL0     O78713   9.556   1.453   2.865  0.1613 -0.0139  0.0660
  584MOL0     C78714   9.616   1.331   2.912  0.3124  0.2225 -0.0647
  584MOL0     C78715   9.632   1.344   3.067  0.6288 -0.5984  0.8685
  584MOL0     C78716   9.680   1.482   3.120 -0.3190 -0.0275 -0.0895
  584MOL0     C78717   9.815   1.516   3.063  0.1261 -0.4056  0.5099
  584MOL0     C78718   9.867   1.656   3.100  0.9458  0.2933  0.1544
  584MOL0     C78719   9.946   1.636   3.232  0.1057  0.2239 -0.1427
  584MOL0     C78720  10.032   1.769   3.254  0.1027  1.1576 -0.0840
  584MOL0     C78721  10.081   1.780   3.394  0.3465  1.3881 -0.0148
  584MOL0     N78722  10.226   1.802   3.398  0.2217 -1.2996 -0.1423
  584MOL0     C78723  10.301   1.915   3.356  0.5305  0.2136  0.0718
  584MOL0     C78724  10.417   1.901   3.427  0.4014 -0.2812  0.5145
  584MOL0     C78725  10.520   2.008   3.429  0.1758 -0.6832  0.7119
  584MOL0     C78726  10.662   1.973   3.477 -0.7650  0.5018 -0.6439
  584MOL0     C78727  10.752   2.099   3.508  0.1996 -0.3907 -0.1882
  584MOL0     C78728  10.897   2.066   3.548  1.4619 -0.1246  0.3848
  584MOL0     O78729  10.948   1.952   3.479 -0.4963 -1.1391  0.4595
  584MOL0     C78730  11.070   1.903   3.517 -0.0355 -1.3671  0.3552
  584MOL0     C78731  11.105   1.801   3.436 -0.5065 -0.2404  0.0305
  584MOL0     C78732  11.225   1.730   3.445 -0.0581 -0.8306  1.0779
  584MOL0     C78733  11.311   1.769   3.548 -1.1113  0.6103  0.7658
  584MOL0     C78734  11.445   1.698   3.565 -0.0266  0.3736 -0.1721
  584MOL0     O78735  11.525   1.730   3.666  0.1185 -0.4729 -1.0100
  584MOL0     C78736  11.643   1.658   3.674  0.2026 -0.1761  0.4307
  584MOL0     C78737  11.766   1.716   3.659  0.4902 -0.2051 -0.1440
  584MOL0     C78738  11.892   1.650   3.672 -0.1317 -0.4323  0.0554
  584MOL0     C78739  11.886   1.512   3.701 -0.2158  0.4901  0.6000
  584MOL0     O78740  11.993   1.431   3.720  0.1203 -0.3500 -0.0890
  584MOL0     C78741  12.051   1.428   3.854  0.2388  0.8986  0.5398
  584MOL0     C78742  12.173   1.334   3.842 -0.2732 -0.3382 -0.1546
  584MOL0     C78743  12.262   1.341   3.973 -0.1554  0.2315 -0.6459
  584MOL0     C78744  12.201   1.268   4.089  0.2594 -0.3306 -1.2494
  584MOL0     C78745  12.278   1.287   4.218 -1.0407 -1.0050 -0.0203
  584MOL0     C78746  12.272   1.424   4.271  0.1773 -0.5589  0.6533
  584MOL0     C78747  12.150   1.463   4.354 -0.4533  0.7258  0.1391
  584MOL0     C78748  12.186   1.584   4.433  1.5437 -0.5472 -0.4801
  584MOL0    Cl78749  12.032   1.633   4.528  0.5195 -0.0273 -0.4260
  584MOL0     C78750  11.755   1.446   3.705 -0.9459 -0.9719  1.3834
  584MOL0     C78751  11.640   1.516   3.693  0.8880 -0.1979 -0.1955
  584MOL0     O78752  11.473   1.615   3.481 -0.1885 -0.2697 -0.1507
  584MOL0     C78753  11.282   1.870   3.642  0.3952 -0.5628  0.9260
  584MOL0     C78754  11.154   1.939   3.628 -0.4669 -0.1081 -0.2944
  584MOL0     N78755  10.409   1.781   3.501 -0.1747 -0.2375  0.7871
  584MOL0     N78756  10.300   1.720   3.480 -0.3298 -0.5010  0.1865
  584MOL0     C78757   9.334   1.531   2.882  0.1826 -0.2624 -1.4030
  584MOL0     C78758   9.194   1.505   2.862  0.0567  0.3695  0.1251
  584MOL0     C78759   8.842   1.203   2.856 -0.7285  0.5391 -0.3468
  584MOL0     C78760   8.752   1.300   2.801 -0.3386  0.1663 -0.0414
  584MOL0     C78761   8.617   1.271   2.789 -0.3450  0.2787 -0.6832
  584MOL0     C78762   8.563   1.152   2.832  0.9178  0.5777 -0.4909
  584MOL0     O78763   8.426   1.155   2.848  0.1776 -0.3463 -0.0705
  584MOL0     C78764   8.355   1.030   2.883 -0.0244 -0.7140 -0.0539
  584MOL0     C78765   8.209   1.075   2.906 -0.7664 -0.1507  0.1542
  584MOL0     C78766   8.182   1.056   3.061  1.5595  0.7798  0.0621
  584MOL0     C78767   8.029   1.053   3.094  0.2678  0.3584 -0.3033
  584MOL0     C78768   8.002   1.064   3.242 -1.4702 -1.0161  0.1869
  584MOL0     C78769   7.970   1.088   3.355 -0.2291  0.5023  0.1141
  584MOL0     C78770   8.649   1.050   2.872 -0.4483 -0.0454 -0.2681
  584MOL0     C78771   8.787   1.073   2.894 -0.4763  1.4831  0.4472
  584MOL0     C78772   8.865   0.956   2.947  0.2677 -0.0682 -0.6066
  584MOL0     H78773   9.233   1.219   2.665  4.5562 -1.3024  1.8048
  584MOL0     H78774   9.457   1.279   2.700 -2.4432 -3.5669  1.7238
  584MOL0     H78775   9.558   1.240   2.891  0.2891  0.3274 -0.4676
  584MOL0     H78776   9.715   1.319   2.868 -1.0625 -1.1526 -3.1068
  584MOL0     H78777   9.701   1.264   3.096  0.5605 -2.5328 -3.4925
  584MOL0     H78778   9.532   1.317   3.104 -0.3435  0.3038 -0.9490
  584MOL0     H78779   9.691   1.474   3.229  2.1240  0.8018 -0.2088
  584MOL0     H78780   9.615   1.559   3.079  0.1134  1.0052  1.0755
  584MOL0     H78781   9.888   1.435   3.079  0.3257 -0.2436  0.4298
  584MOL0     H78782   9.811   1.509   2.954  0.8971  1.0253  0.3754
  584MOL0     H78783   9.922   1.699   3.016  1.9127 -1.5760 -0.2230
  584MOL0     H78784   9.775   1.715   3.105  0.9873  0.3521  0.2355
  584MOL0     H78785   9.872   1.612   3.309 -0.5384 -0.9132 -1.0783
  584MOL0     H78786  10.013   1.550   3.225  0.0799  0.1468  0.5654
  584MOL0     H78787   9.959   1.848   3.236  0.0072  0.6079 -2.3396
  584MOL0     H78788  10.113   1.787   3.183  1.7047  0.1368  1.3770
  584MOL0     H78789  10.023   1.858   3.445  0.1247  0.5067  1.1204
  584MOL0     H78790  10.056   1.691   3.452  0.9318  0.2727 -1.4096
  584MOL0     H78791  10.283   1.997   3.288 -0.3296  0.7979  0.9913
  584MOL0     H78792  10.527   2.041   3.325  0.2841 -1.3921  0.4918
  584MOL0     H78793  10.480   2.092   3.487 -0.2845  0.3545 -1.0498
  584MOL0     H78794  10.648   1.916   3.569 -0.9167 -1.4221 -1.7982
  584MOL0     H78795  10.714   1.911   3.403  0.5231  1.7158 -0.7964
  584MOL0     H78796  10.707   2.155   3.590  1.1101  0.3675 -0.1843
  584MOL0     H78797  10.740   2.162   3.419 -0.9076  1.5726  1.2659
  584MOL0     H78798  10.902   2.046   3.656  1.5032  3.0890  1.0775
  584MOL0     H78799  10.952   2.158   3.525 -2.2672  1.8792 -1.3165
  584MOL0     H78800  11.040   1.767   3.355 -4.1975  3.8774  0.8533
  584MOL0     H78801  11.261   1.657   3.374  1.4702  0.4258  0.5077
  584MOL0     H78802  11.778   1.824   3.655 -2.0785  0.1593  0.4167
  584MOL0     H78803  11.986   1.705   3.678 -1.3541  1.7128  0.4575
  584MOL0     H78804  12.076   1.527   3.892 -0.1399  1.0925  0.2917
  584MOL0     H78805  11.977   1.381   3.920 -0.3266 -0.0014 -0.6907
  584MOL0     H78806  12.148   1.232   3.811 -0.6611 -0.1736 -0.3830
  584MOL0     H78807  12.244   1.377   3.771  0.2455  1.3809  1.3220
  584MOL0     H78808  12.354   1.286   3.948 -0.5600 -1.1853  0.8733
  584MOL0     H78809  12.295   1.443   3.995 -1.0216  1.1273 -3.0830
  584MOL0     H78810  12.197   1.161   4.065  1.6147 -1.2131  1.9131
  584MOL0     H78811  12.093   1.285   4.085  0.5893  1.8766 -2.7940
  584MOL0     H78812  12.384   1.273   4.193 -1.4012 -1.2725 -1.4837
  584MOL0     H78813  12.244   1.216   4.295 -0.4480 -1.2516  0.0226
  584MOL0     H78814  12.353   1.433   4.345 -1.7948  2.9854  2.6742
  584MOL0     H78815  12.278   1.504   4.196  0.8579  2.2340  3.4577
  584MOL0     H78816  12.117   1.377   4.413 -1.8787 -0.0162 -1.6424
  584MOL0     H78817  12.070   1.498   4.288 -0.1149 -1.4393 -1.5355
  584MOL0     H78818  12.273   1.578   4.499 -0.0187 -0.7020  1.6640
  584MOL0     H78819  12.213   1.658   4.356  2.7575 -1.3911 -0.8958
  584MOL0     H78820  11.741   1.338   3.709 -2.0795 -0.9670 -0.7488
  584MOL0     H78821  11.556   1.447   3.689  2.0418 -1.8190  1.7418
  584MOL0     H78822  11.348   1.896   3.724  1.1540 -3.5594  1.3625
  584MOL0     H78823  11.134   2.018   3.701 -0.5683  0.5413 -1.0141
  584MOL0     H78824   9.370   1.615   2.940  1.6635 -2.4182  1.0003
  584MOL0     H78825   9.119   1.580   2.885  0.5045  0.9980 -0.3781
  584MOL0     H78826   8.783   1.402   2.782  1.2318  0.1087  1.8207
  584MOL0     H78827   8.561   1.361   2.766  0.5829  1.9305  2.7744
  584MOL0     H78828   8.404   0.974   2.964  1.3015 -0.0943 -0.4078
  584MOL0     H78829   8.362   0.964   2.797 -4.1561  0.0951 -1.2566
  584MOL0     H78830   8.132   1.030   2.842  0.0890  0.0115 -1.0198
  584MOL0     H78831   8.216   1.183   2.890  2.7813 -0.3613 -0.4043
  584MOL0     H78832   8.230   1.142   3.107  2.0228 -0.0419  1.1464
  584MOL0     H78833   8.226   0.960   3.087  0.3755 -0.7923 -3.1815
  584MOL0     H78834   7.969   1.122   3.034 -2.0808  0.6418  2.1748
  584MOL0     H78835   8.005   0.947   3.081  2.9079 -0.9651  3.7214
  584MOL0     H78836   7.954   1.117   3.458 -0.3952 -1.4672  0.6752
  584MOL0     H78837   8.609   0.952   2.894 -4.8771  1.3578 -1.1218
  584MOL0     H78838   8.957   0.946   2.888  1.6971 -0.5301  1.5865
  584MOL0     H78839   8.887   0.969   3.054 -3.0061 -2.8301  0.5977
  584MOL0     H78840   8.812   0.860   2.943 -5.3385  2.5734  0.7557
  585MOL0     O78841  10.853   6.296  11.090 -0.4466 -0.5737 -1.1308
  585MOL0     C78842  10.896   6.406  11.129 -0.2338  0.3943  0.7669
  585MOL0     O78843  11.000   6.423  11.215 -0.6290 -0.4234  0.2335
  585MOL0     C78844  11.062   6.318  11.276  0.1399  0.9566 -1.2062
  585MOL0     C78845  11.188   6.270  11.228  0.1147 -0.4097 -0.4671
  585MOL0     C78846  11.250   6.160  11.297  0.2133 -0.6443 -0.1046
  585MOL0     C78847  11.203   6.123  11.420  0.2246  0.3403  0.0084
  585MOL0     O78848  11.289   6.032  11.486  0.9498 -0.2178 -0.0916
  585MOL0     C78849  11.216   5.925  11.553 -0.1081  0.6193  0.0409
  585MOL0     C78850  11.311   5.834  11.631 -0.3163 -0.1884  0.6626
  585MOL0     C78851  11.244   5.730  11.715  0.0504  0.4976 -0.0867
  585MOL0     C78852  11.339   5.647  11.813 -0.9564  0.0668 -0.1245
  585MOL0     C78853  11.432   5.559  11.725  0.8268  0.5157  0.9126
  585MOL0     C78854  11.523   5.468  11.812 -0.6244 -1.1346 -0.1768
  585MOL0     C78855  11.620   5.383  11.722  0.2783  0.0607  0.0949
  585MOL0     C78856  11.744   5.451  11.665  0.3745 -1.5217 -0.2165
  585MOL0     N78857  11.852   5.341  11.655  0.9304 -0.6537 -0.1962
  585MOL0     C78858  11.835   5.232  11.565  0.0437 -0.3389 -0.2071
  585MOL0     C78859  11.961   5.181  11.543  0.3803  1.0745 -0.0875
  585MOL0     C78860  12.007   5.056  11.462 -0.1957 -1.0277 -0.2763
  585MOL0     C78861  12.139   4.988  11.507 -0.4543 -0.1692 -0.1190
  585MOL0     C78862  12.213   4.899  11.396  0.5356  0.1239  0.1565
  585MOL0     C78863  12.339   4.830  11.449  0.5757 -0.3857  1.2137
  585MOL0     O78864  12.433   4.926  11.510 -0.2433  0.2727  0.0690
  585MOL0     C78865  12.561   4.881  11.542 -0.9977 -0.5764  0.3158
  585MOL0     C78866  12.609   4.752  11.513 -0.3167  0.4046 -0.6453
  585MOL0     C78867  12.738   4.707  11.550  0.3667  0.1206 -0.9965
  585MOL0     C78868  12.816   4.792  11.628 -0.1712 -0.6863 -0.8400
  585MOL0     C78869  12.948   4.743  11.676 -0.1205  0.1197 -0.2336
  585MOL0     O78870  13.014   4.839  11.746 -0.3437 -0.1036 -0.0389
  585MOL0     C78871  13.141   4.809  11.786  0.3703  0.3839  0.8440
  585MOL0     C78872  13.159   4.720  11.897 -0.6193 -0.8202  0.3812
  585MOL0     C78873  13.286   4.661  11.925 -0.6850 -0.3098  0.0055
  585MOL0     C78874  13.396   4.706  11.852 -0.3214  0.1827  0.7871
  585MOL0     O78875  13.526   4.653  11.878 -0.4435 -0.7428 -0.1539
  585MOL0     C78876  13.637   4.681  11.786 -0.6568  0.4917 -0.6289
  585MOL0     C78877  13.766   4.607  11.834  0.0761  0.6952 -0.1849
  585MOL0     C78878  13.875   4.593  11.715  0.3277 -0.1402 -0.2257
  585MOL0     C78879  13.987   4.701  11.730  0.2483  0.1356  0.0669
  585MOL0     C78880  14.092   4.690  11.617  0.9632 -0.8080 -0.4107
  585MOL0     C78881  14.227   4.757  11.641 -0.0046  0.0002  0.2336
  585MOL0     C78882  14.227   4.910  11.659 -0.2489 -0.7978  0.5132
  585MOL0     C78883  14.366   4.972  11.660 -0.6364 -1.2053 -0.2536
  585MOL0    Cl78884  14.462   4.947  11.512  0.1084  0.1599 -0.2224
  585MOL0     C78885  13.377   4.799  11.743  0.3542  0.4409  0.4645
  585MOL0     C78886  13.259   4.856  11.718  0.2370 -0.0595  0.3417
  585MOL0     O78887  12.998   4.631  11.653 -0.4626  0.4396 -0.3778
  585MOL0     C78888  12.769   4.928  11.662 -0.3507  0.7744  0.2642
  585MOL0     C78889  12.644   4.965  11.615  0.3483  0.2204 -0.1501
  585MOL0     N78890  12.049   5.255  11.624 -0.7365  0.3067  0.2759
  585MOL0     N78891  11.986   5.356  11.683 -0.1514 -0.0362  0.0823
  585MOL0     C78892  11.082   6.177  11.475  0.6881 -0.4920  1.3324
  585MOL0     C78893  11.015   6.277  11.402 -0.0183  0.4107  1.1072
  585MOL0     C78894  10.833   6.523  11.078  0.0418  0.3081  0.8152
  585MOL0     C78895  10.746   6.601  11.163  0.2223 -0.2501 -0.7050
  585MOL0     C78896  10.668   6.701  11.112  0.4323  1.3250  0.2141
  585MOL0     C78897  10.667   6.719  10.973  0.7378 -0.8618  0.3150
  585MOL0     O78898  10.573   6.807  10.931  0.3496 -0.1856 -0.3005
  585MOL0     C78899  10.582   6.943  10.977  0.1503 -0.2602  0.2522
  585MOL0     C78900  10.611   7.028  10.845  0.8451  0.3377  0.7285
  585MOL0     C78901  10.635   7.171  10.874  0.0455  0.3980  0.9461
  585MOL0     C78902  10.782   7.211  10.871  0.1600 -0.4343  0.0176
  585MOL0     C78903  10.858   7.159  10.987  0.3194  0.7054  0.8393
  585MOL0     C78904  10.917   7.105  11.080 -0.5094  0.5012 -0.2895
  585MOL0     C78905  10.748   6.651  10.892 -0.0978  0.1398  0.0936
  585MOL0     C78906  10.837   6.552  10.938 -0.0210  0.7835  0.2157
  585MOL0     C78907  10.926   6.474  10.844  0.5704 -0.3007  0.6879
  585MOL0     H78908  11.228   6.317  11.138 -3.0266  0.2915 -1.6374
  585MOL0     H78909  11.337   6.107  11.261 -0.7489 -1.8468 -0.7214
  585MOL0     H78910  11.135   5.965  11.615  1.9641  1.9764  2.0543
  585MOL0     H78911  11.185   5.860  11.471  1.4950  0.6121 -0.5985
  585MOL0     H78912  11.368   5.904  11.694  1.2664  0.6666 -1.6054
  585MOL0     H78913  11.382   5.786  11.563 -0.6396 -0.1577  0.3044
  585MOL0     H78914  11.194   5.663  11.645  1.2069  0.9108 -1.3478
  585MOL0     H78915  11.163   5.769  11.777 -0.9504 -1.1908 -0.2521
  585MOL0     H78916  11.396   5.717  11.876  0.4918 -2.1220  1.1320
  585MOL0     H78917  11.277   5.580  11.873 -1.8443 -0.5156 -1.6383
  585MOL0     H78918  11.363   5.491  11.675  3.0666 -1.6006  0.4921
  585MOL0     H78919  11.485   5.606  11.641  0.9067  0.4610  0.9318
  585MOL0     H78920  11.574   5.534  11.883 -0.5649  1.3951 -2.4148
  585MOL0     H78921  11.456   5.399  11.863 -1.2780  0.8570  1.7578
  585MOL0     H78922  11.568   5.334  11.639  1.5643 -0.3443 -0.5014
  585MOL0     H78923  11.647   5.314  11.803  1.0565  2.8117  2.3425
  585MOL0     H78924  11.724   5.504  11.571  0.7061  0.1958  0.6423
  585MOL0     H78925  11.776   5.535  11.727  0.5048 -1.7992  0.0962
  585MOL0     H78926  11.745   5.198  11.515  0.5653  0.3871 -1.7032
  585MOL0     H78927  11.931   4.978  11.454 -1.2187 -0.0390 -0.4534
  585MOL0     H78928  12.035   5.089  11.361  1.8747  0.9938  0.8583
  585MOL0     H78929  12.213   5.064  11.534  0.6598 -1.5971  1.0062
  585MOL0     H78930  12.111   4.939  11.600  1.5377  1.0370  1.2016
  585MOL0     H78931  12.247   4.953  11.307 -0.3734  0.9095  0.2678
  585MOL0     H78932  12.157   4.814  11.357  0.3757 -0.2355  1.1310
  585MOL0     H78933  12.385   4.799  11.355 -2.0500 -0.5385 -0.1075
  585MOL0     H78934  12.317   4.757  11.528  0.9825 -1.2100  0.5816
  585MOL0     H78935  12.535   4.681  11.475  0.9880 -2.6106  1.9844
  585MOL0     H78936  12.773   4.607  11.528 -0.9347 -0.2260 -1.5468
  585MOL0     H78937  13.072   4.681  11.949 -0.9573 -1.6901 -0.7977
  585MOL0     H78938  13.309   4.593  12.006  1.0961  3.1809  2.7194
  585MOL0     H78939  13.613   4.655  11.683 -1.3454 -1.2656 -0.0674
  585MOL0     H78940  13.654   4.789  11.791 -1.4702  0.6335 -0.7789
  585MOL0     H78941  13.807   4.662  11.919  0.5676  0.2925 -0.1596
  585MOL0     H78942  13.735   4.513  11.881  2.5814 -0.5868 -0.9433
  585MOL0     H78943  13.924   4.495  11.712  0.8660  0.1314 -2.7540
  585MOL0     H78944  13.832   4.607  11.616  0.0704  0.7107 -0.0007
  585MOL0     H78945  14.028   4.696  11.832 -2.6175  1.7406  1.4241
  585MOL0     H78946  13.941   4.800  11.722  2.4096  1.3465  1.5415
  585MOL0     H78947  14.051   4.728  11.523 -0.9678 -2.2612 -0.2204
  585MOL0     H78948  14.095   4.581  11.603 -0.0452 -0.8274 -0.5045
  585MOL0     H78949  14.279   4.710  11.725  2.8336  0.5615 -1.1176
  585MOL0     H78950  14.293   4.733  11.558  0.3440  0.7447  0.2850
  585MOL0     H78951  14.174   4.936  11.751  0.1212 -0.1690  0.5497
  585MOL0     H78952  14.174   4.948  11.572 -0.8470 -1.6582  0.4856
  585MOL0     H78953  14.352   5.079  11.678 -0.2318 -1.2415  0.2812
  585MOL0     H78954  14.419   4.923  11.742  1.8586 -2.0128 -2.2308
  585MOL0     H78955  13.463   4.828  11.684  0.5988 -0.3867  0.3986
  585MOL0     H78956  13.249   4.927  11.636 -0.9812 -3.1144 -2.3991
  585MOL0     H78957  12.819   4.984  11.740 -1.0812  0.7543  0.7552
  585MOL0     H78958  12.609   5.059  11.657  1.0497  0.5085 -0.1873
  585MOL0     H78959  11.040   6.144  11.569 -0.3366 -0.7203  0.8099
  585MOL0     H78960  10.919   6.318  11.431 -1.5872  0.7011 -3.6990
  585MOL0     H78961  10.738   6.592  11.271  0.6002  0.8375 -0.5781
  585MOL0     H78962  10.596   6.744  11.181 -1.3203 -3.5565  1.8197
  585MOL0     H78963  10.649   6.958  11.061 -0.3839 -2.0440  1.0475
  585MOL0     H78964  10.479   6.964  11.009 -0.7501 -1.4361 -1.6551
  585MOL0     H78965  10.517   7.036  10.789  0.3879  0.6648  1.5274
  585MOL0     H78966  10.694   6.979  10.794  1.4851  1.1390  0.9668
  585MOL0     H78967  10.592   7.196  10.971 -1.0398  2.6030 -0.0367
  585MOL0     H78968  10.583   7.238  10.805 -0.6238  0.1223  1.1771
  585MOL0     H78969  10.834   7.172  10.783 -0.5603 -1.1986 -0.0875
  585MOL0     H78970  10.786   7.320  10.884  4.5350 -0.7350  3.5517
  585MOL0     H78971  10.976   7.059  11.157  0.1549 -1.3372 -1.8096
  585MOL0     H78972  10.732   6.676  10.787 -5.2640 -0.8526  0.3555
  585MOL0     H78973  10.942   6.522  10.747 -2.2449  2.3706  1.3915
  585MOL0     H78974  11.019   6.465  10.901  1.3702  0.9990 -0.3558
  585MOL0     H78975  10.889   6.373  10.823 -1.4251  0.2332  1.4587
  586MOL0     O78976   7.731   8.118   1.902  0.1984  0.5408  0.2932
  586MOL0     C78977   7.754   8.170   1.792  0.0636 -0.0380 -0.3129
  586MOL0     O78978   7.879   8.193   1.737 -0.2957  0.6156  0.6223
  586MOL0     C78979   7.999   8.171   1.807  1.2500  0.0478 -0.3542
  586MOL0     C78980   8.008   8.204   1.947  0.1613  0.3483  0.0794
  586MOL0     C78981   8.132   8.190   2.010 -0.1907  0.6764  0.2657
  586MOL0     C78982   8.253   8.155   1.938  0.6011 -0.8857  0.5859
  586MOL0     O78983   8.380   8.143   1.992  0.1188  0.2008  0.0040
  586MOL0     C78984   8.407   8.209   2.116 -0.9089 -0.0786 -0.1106
  586MOL0     C78985   8.545   8.162   2.167 -0.3011  0.1979  0.2691
  586MOL0     C78986   8.534   8.016   2.204 -0.0239  0.8686  0.7505
  586MOL0     C78987   8.580   7.932   2.085 -0.0593 -0.1003  0.0352
  586MOL0     C78988   8.634   7.793   2.124  0.2398 -0.2501 -0.4567
  586MOL0     C78989   8.777   7.790   2.194 -0.1761  0.1684 -0.3964
  586MOL0     C78990   8.887   7.851   2.110 -0.3644  0.0699  0.7350
  586MOL0     C78991   9.029   7.835   2.174  0.3106 -0.6422 -0.3025
  586MOL0     N78992   9.133   7.894   2.083 -0.3181  0.1917  0.0979
  586MOL0     C78993   9.149   7.877   1.947  0.5842  0.7714  0.2756
  586MOL0     C78994   9.280   7.893   1.917 -0.3719  0.5499 -0.4573
  586MOL0     C78995   9.349   7.869   1.784  0.4822  0.1689 -0.2862
  586MOL0     C78996   9.480   7.947   1.763 -0.4037 -0.1555 -0.3203
  586MOL0     C78997   9.562   7.917   1.629  0.2282  0.0139  0.5829
  586MOL0     C78998   9.605   7.774   1.604 -0.3051 -0.9893  0.4305
  586MOL0     O78999   9.672   7.715   1.712 -0.9224  0.1559 -0.4641
  586MOL0     C79000   9.811   7.705   1.711 -0.7303  0.3639  0.5551
  586MOL0     C79001   9.881   7.640   1.602  0.2384  0.1639  0.5656
  586MOL0     C79002  10.018   7.649   1.594 -0.2358 -0.0594 -0.2751
  586MOL0     C79003  10.090   7.727   1.687 -0.4472 -0.4586 -0.4367
  586MOL0     C79004  10.235   7.749   1.668  0.5661 -0.7191  0.3655
  586MOL0     O79005  10.295   7.712   1.549  1.0179 -0.3641 -0.6889
  586MOL0     C79006  10.427   7.753   1.536 -0.5191 -0.8970 -0.1099
  586MOL0     C79007  10.467   7.894   1.531 -0.3407  0.1383  0.2282
  586MOL0     C79008  10.600   7.935   1.501  0.7466  0.0938  0.0103
  586MOL0     C79009  10.698   7.835   1.478  1.5268  0.6448 -0.2360
  586MOL0     O79010  10.824   7.871   1.451  0.1785  0.8009 -0.0462
  586MOL0     C79011  10.847   7.962   1.343  0.6345 -0.6184 -0.4876
  586MOL0     C79012  10.999   7.991   1.309  0.8031 -0.1221  0.3314
  586MOL0     C79013  11.058   8.104   1.402  0.0266  0.5212 -0.2926
  586MOL0     C79014  11.200   8.139   1.349  0.3687 -0.1011  0.0832
  586MOL0     C79015  11.260   8.269   1.408  0.2576 -0.7074 -0.2117
  586MOL0     C79016  11.381   8.312   1.314 -0.7455 -0.3584 -0.0679
  586MOL0     C79017  11.503   8.366   1.395  0.4691 -0.0276 -0.6161
  586MOL0     C79018  11.557   8.288   1.506  0.3654  0.2635 -0.4129
  586MOL0    Cl79019  11.698   8.375   1.571 -0.0278 -0.0012  0.2039
  586MOL0     C79020  10.663   7.705   1.494  0.3085 -0.1536  0.2571
  586MOL0     C79021  10.527   7.660   1.530  0.2191 -0.4371 -0.1719
  586MOL0     O79022  10.291   7.803   1.755 -0.2911 -0.8652  0.0758
  586MOL0     C79023  10.022   7.779   1.803 -0.0977 -0.3589  0.1793
  586MOL0     C79024   9.885   7.769   1.808  0.5848  0.3329 -1.1559
  586MOL0     N79025   9.342   7.919   2.037  0.1638 -0.1862  0.0019
  586MOL0     N79026   9.254   7.918   2.130 -0.0235  0.0935  0.2358
  586MOL0     C79027   8.235   8.124   1.802 -0.2267 -0.1380 -0.2039
  586MOL0     C79028   8.106   8.130   1.741 -0.2802  0.1073  0.7044
  586MOL0     C79029   7.637   8.218   1.715  0.2496 -0.3133 -0.3840
  586MOL0     C79030   7.514   8.166   1.738  0.1821 -0.4623  0.8524
  586MOL0     C79031   7.399   8.215   1.677 -0.5939  0.7504  0.0054
  586MOL0     C79032   7.407   8.302   1.569 -0.4307 -0.5245  0.4649
  586MOL0     O79033   7.307   8.336   1.486  0.0938  0.3013  0.1050
  586MOL0     C79034   7.178   8.328   1.542  1.1940  0.9950  0.3871
  586MOL0     C79035   7.094   8.427   1.461 -0.4765 -0.8762 -0.0335
  586MOL0     C79036   7.139   8.570   1.487 -0.7159 -0.1129 -0.1181
  586MOL0     C79037   7.111   8.654   1.364  0.0140  0.0047 -0.4587
  586MOL0     C79038   6.970   8.683   1.352  0.2753 -0.2754  0.1775
  586MOL0     C79039   6.850   8.706   1.330 -0.9801 -0.6028  0.7731
  586MOL0     C79040   7.530   8.355   1.534 -0.2422  0.4850  0.3507
  586MOL0     C79041   7.644   8.320   1.613  0.6494 -0.8960  0.2681
  586MOL0     C79042   7.765   8.401   1.568  0.4965 -0.7694  0.3321
  586MOL0     H79043   7.920   8.243   1.997 -0.4454 -0.7325 -0.1079
  586MOL0     H79044   8.142   8.207   2.117 -2.0718 -0.4696  0.6650
  586MOL0     H79045   8.413   8.317   2.098 -1.6425 -0.0680 -0.3036
  586MOL0     H79046   8.323   8.178   2.179 -1.7130 -1.8149 -1.9313
  586MOL0     H79047   8.565   8.213   2.262  1.0033 -0.8865  0.6062
  586MOL0     H79048   8.630   8.185   2.102 -0.8314  0.0631 -0.4870
  586MOL0     H79049   8.434   7.983   2.233 -0.4129 -1.6798 -2.7828
  586MOL0     H79050   8.599   7.983   2.285 -0.8470 -1.1501  0.6313
  586MOL0     H79051   8.503   7.929   2.008  1.2780  1.4182 -1.4657
  586MOL0     H79052   8.663   7.984   2.034 -1.0650  0.9598 -0.5830
  586MOL0     H79053   8.558   7.747   2.188  0.7424  1.0490  1.1275
  586MOL0     H79054   8.642   7.742   2.027  1.1296  0.1269 -0.5896
  586MOL0     H79055   8.771   7.831   2.295  1.0809  0.2798 -0.3542
  586MOL0     H79056   8.804   7.686   2.216  2.1790  0.5118 -1.4008
  586MOL0     H79057   8.864   7.957   2.097 -2.0943 -0.5594 -2.3553
  586MOL0     H79058   8.879   7.808   2.009  1.4927  2.1530 -0.3879
  586MOL0     H79059   9.022   7.893   2.266  0.4648 -2.4507  0.9019
  586MOL0     H79060   9.056   7.732   2.199 -2.0832 -1.9229 -2.4792
  586MOL0     H79061   9.065   7.857   1.881  1.3127 -5.0945  0.5827
  586MOL0     H79062   9.373   7.762   1.784 -0.0196 -0.0720  3.5589
  586MOL0     H79063   9.281   7.879   1.699  0.4843 -0.7699 -0.4143
  586MOL0     H79064   9.457   8.053   1.746 -0.0463 -0.4533 -3.2573
  586MOL0     H79065   9.543   7.936   1.852  1.4698 -1.1358 -1.6982
  586MOL0     H79066   9.647   7.986   1.624 -1.2920  1.9893  0.6046
  586MOL0     H79067   9.505   7.940   1.538  1.2829 -2.1759 -0.7065
  586MOL0     H79068   9.673   7.782   1.519 -1.2726  1.0675 -0.1990
  586MOL0     H79069   9.522   7.708   1.577 -0.0290 -1.3984  0.5742
  586MOL0     H79070   9.824   7.594   1.521  1.2026 -1.2084  0.6344
  586MOL0     H79071  10.061   7.602   1.506  0.5764 -1.6710  0.9230
  586MOL0     H79072  10.393   7.974   1.537  0.2966  0.6427  2.0173
  586MOL0     H79073  10.625   8.040   1.511 -0.2653  0.2682  0.9296
  586MOL0     H79074  10.803   7.939   1.245 -0.8200  1.0025 -0.2617
  586MOL0     H79075  10.806   8.059   1.370 -2.6175 -0.7064 -4.1187
  586MOL0     H79076  11.058   7.899   1.308  1.5464  0.3505  0.3375
  586MOL0     H79077  11.003   8.029   1.207 -0.1941 -0.6613  0.0765
  586MOL0     H79078  10.991   8.191   1.407 -0.6331 -0.0008  0.2045
  586MOL0     H79079  11.066   8.053   1.498 -1.6434  0.0250 -0.3799
  586MOL0     H79080  11.188   8.147   1.241 -0.7064 -0.9842  0.1175
  586MOL0     H79081  11.275   8.062   1.368  0.9188  0.7427  1.5187
  586MOL0     H79082  11.300   8.250   1.507  0.1232  0.3826  0.0618
  586MOL0     H79083  11.184   8.348   1.415  1.2016  0.2408 -0.4419
  586MOL0     H79084  11.405   8.228   1.248 -1.2171 -1.3515  1.0075
  586MOL0     H79085  11.336   8.388   1.250  0.0869  1.2504  1.1829
  586MOL0     H79086  11.476   8.461   1.442  3.3163 -0.2278  1.6440
  586MOL0     H79087  11.589   8.381   1.329  2.1715 -1.9048  1.0752
  586MOL0     H79088  11.484   8.283   1.587 -0.9795 -0.9676 -1.6471
  586MOL0     H79089  11.598   8.189   1.484  0.6526 -0.0558  1.3621
  586MOL0     H79090  10.736   7.626   1.485 -0.0558 -0.2976 -2.0308
  586MOL0     H79091  10.503   7.558   1.557 -0.1574  0.1145  1.7697
  586MOL0     H79092  10.082   7.827   1.881 -0.3523 -0.6265  0.5443
  586MOL0     H79093   9.840   7.818   1.894  3.9250 -0.5708  1.3004
  586MOL0     H79094   8.320   8.095   1.741  1.9993 -1.0438  3.0295
  586MOL0     H79095   8.095   8.109   1.635 -0.8620  0.0886  0.7679
  586MOL0     H79096   7.495   8.090   1.813  0.5951  0.3573  1.8019
  586MOL0     H79097   7.300   8.176   1.695 -0.2819 -1.5182 -2.4286
  586MOL0     H79098   7.164   8.347   1.649 -1.4952  2.4184 -0.1408
  586MOL0     H79099   7.139   8.228   1.523  0.9784  1.2988 -0.8326
  586MOL0     H79100   6.990   8.421   1.494 -0.9576 -0.1681 -1.3794
  586MOL0     H79101   7.099   8.395   1.357 -2.0070 -2.4658  0.3278
  586MOL0     H79102   7.248   8.576   1.494 -0.7062 -0.0557 -0.2980
  586MOL0     H79103   7.112   8.612   1.584  1.1281 -1.3916  1.0067
  586MOL0     H79104   7.175   8.741   1.380  2.2143 -1.0609 -2.7268
  586MOL0     H79105   7.147   8.620   1.266 -1.6308 -0.5438 -0.9023
  586MOL0     H79106   6.747   8.721   1.304 -0.5398  0.3653 -0.4892
  586MOL0     H79107   7.543   8.421   1.449  1.6175  0.9553  0.9596
  586MOL0     H79108   7.833   8.420   1.651  0.2380 -1.4908  0.7163
  586MOL0     H79109   7.820   8.344   1.492 -1.3388  1.0748 -2.5971
  586MOL0     H79110   7.733   8.492   1.517 -1.5201 -3.3221 -3.4194
  587MOL0     O79111   1.730   5.326   3.136 -0.3078  0.1978 -0.6234
  587MOL0     C79112   1.682   5.307   3.023 -0.0195  0.9786  0.3320
  587MOL0     O79113   1.735   5.249   2.921  0.7286 -0.6581  0.0602
  587MOL0     C79114   1.860   5.194   2.927  0.9115  0.1696 -0.5170
  587MOL0     C79115   1.872   5.073   2.867 -0.7173 -0.4724  0.3670
  587MOL0     C79116   1.991   5.001   2.859 -0.4650  0.3612 -0.3927
  587MOL0     C79117   2.111   5.058   2.914  1.2973  0.5042  0.0611
  587MOL0     O79118   2.235   5.004   2.909 -0.2101  0.4596  0.1488
  587MOL0     C79119   2.256   4.871   2.866 -0.3130 -0.1682 -0.0317
  587MOL0     C79120   2.401   4.843   2.908 -0.3138 -0.5323 -1.3584
  587MOL0     C79121   2.457   4.700   2.890 -0.0680  0.4028 -0.1067
  587MOL0     C79122   2.612   4.703   2.870  1.1601  0.2005  0.4416
  587MOL0     C79123   2.658   4.568   2.825 -0.7907 -0.5604  0.4851
  587MOL0     C79124   2.812   4.573   2.781  1.3398 -0.2613 -0.2622
  587MOL0     C79125   2.835   4.666   2.661 -0.0546 -0.4527 -0.4342
  587MOL0     C79126   2.981   4.658   2.614 -0.5005  0.4193 -0.0878
  587MOL0     N79127   3.074   4.740   2.694 -0.3667 -0.5580 -0.6767
  587MOL0     C79128   3.156   4.675   2.783  0.7267 -1.0765 -0.6980
  587MOL0     C79129   3.248   4.768   2.816  0.4276  0.5121  0.4130
  587MOL0     C79130   3.362   4.745   2.907 -0.7780  1.0665 -0.6073
  587MOL0     C79131   3.330   4.783   3.056  0.3284  0.2112  0.8920
  587MOL0     C79132   3.339   4.938   3.062 -0.1969  0.0598  0.1006
  587MOL0     C79133   3.271   4.983   3.194  0.6441  0.7239  0.8354
  587MOL0     O79134   3.292   5.119   3.231  0.2022  0.9538 -0.1341
  587MOL0     C79135   3.168   5.184   3.251 -0.5809 -0.5069 -0.9675
  587MOL0     C79136   3.073   5.147   3.351 -0.0191  0.2733  0.0690
  587MOL0     C79137   2.952   5.206   3.357  0.6868 -0.3193 -0.2161
  587MOL0     C79138   2.918   5.307   3.263  0.3258 -0.2001  0.0084
  587MOL0     C79139   2.780   5.376   3.275  0.1390  0.3416  0.7965
  587MOL0     O79140   2.751   5.473   3.177 -1.0247  0.1848 -0.2239
  587MOL0     C79141   2.616   5.507   3.161 -0.8933  0.0882 -0.2290
  587MOL0     C79142   2.587   5.640   3.181  0.0783  0.2673  0.2382
  587MOL0     C79143   2.451   5.679   3.187 -0.5126 -0.0390  0.2516
  587MOL0     C79144   2.351   5.593   3.145 -0.3264  0.2477 -0.5547
  587MOL0     O79145   2.218   5.619   3.143 -0.0814 -0.1197 -0.0822
  587MOL0     C79146   2.159   5.675   3.261  0.0420 -0.6358  0.4746
  587MOL0     C79147   2.018   5.621   3.258 -0.6849 -0.1225 -0.0570
  587MOL0     C79148   1.939   5.663   3.379  0.4075  0.5233  0.1241
  587MOL0     C79149   1.914   5.816   3.388  0.7069  0.1775 -0.4446
  587MOL0     C79150   1.814   5.838   3.498  0.1637  1.1514  0.6135
  587MOL0     C79151   1.772   5.979   3.518  0.1703 -0.6321 -0.0838
  587MOL0     C79152   1.639   5.981   3.596  0.2578  0.3215 -0.4240
  587MOL0     C79153   1.614   6.131   3.637  0.8041 -0.5891  0.0724
  587MOL0    Cl79154   1.649   6.255   3.512 -0.1491 -0.0722  0.5344
  587MOL0     C79155   2.390   5.460   3.116 -0.6679 -0.2091 -0.0771
  587MOL0     C79156   2.515   5.417   3.134  0.1437  0.8394  0.6550
  587MOL0     O79157   2.707   5.334   3.363 -0.3020 -0.1856  0.2972
  587MOL0     C79158   3.012   5.345   3.156  0.9494 -0.7219 -0.2602
  587MOL0     C79159   3.138   5.286   3.161 -0.4504 -0.3052  1.3470
  587MOL0     N79160   3.234   4.883   2.739  0.6398  0.7672 -0.1800
  587MOL0     N79161   3.123   4.868   2.679  0.0522 -0.5799 -0.1197
  587MOL0     C79162   2.098   5.182   2.980  0.3561 -0.1677  0.5628
  587MOL0     C79163   1.979   5.252   2.979 -0.2428 -0.0730 -0.4920
  587MOL0     C79164   1.544   5.358   3.015 -0.1624  0.2714  0.1222
  587MOL0     C79165   1.452   5.295   2.932  0.5386  0.5086 -0.8616
  587MOL0     C79166   1.328   5.355   2.915 -1.2059 -0.1375  1.0072
  587MOL0     C79167   1.287   5.466   2.982 -0.3075 -0.4690 -0.4616
  587MOL0     O79168   1.163   5.525   2.962 -0.6318  0.1956 -0.1985
  587MOL0     C79169   1.092   5.482   2.851  0.1440  0.9583 -0.0489
  587MOL0     C79170   0.962   5.563   2.826 -0.3171 -0.0603 -1.1385
  587MOL0     C79171   0.990   5.717   2.845 -0.5552 -0.0721 -0.8009
  587MOL0     C79172   0.854   5.803   2.844  0.5938  1.0014  0.3324
  587MOL0     C79173   0.873   5.951   2.875 -0.3562 -0.2519  0.5549
  587MOL0     C79174   0.887   6.068   2.908  0.5607  0.0282 -0.3986
  587MOL0     C79175   1.374   5.527   3.073  0.0675 -0.6827 -0.5558
  587MOL0     C79176   1.503   5.476   3.078 -0.0603 -0.2903 -0.7020
  587MOL0     C79177   1.601   5.562   3.151  0.4022 -0.3055  0.9234
  587MOL0     H79178   1.781   5.034   2.821 -1.8525  1.2521  1.0797
  587MOL0     H79179   1.997   4.909   2.803 -2.1306 -2.3500  3.4717
  587MOL0     H79180   2.198   4.801   2.926  0.5186  0.1793  1.2166
  587MOL0     H79181   2.240   4.884   2.758 -0.1543  0.7549  0.0481
  587MOL0     H79182   2.417   4.867   3.013  1.3208  0.5080 -1.8038
  587MOL0     H79183   2.461   4.917   2.853 -2.2871  1.8158 -0.5300
  587MOL0     H79184   2.399   4.643   2.816 -1.8177 -0.2867  1.6953
  587MOL0     H79185   2.430   4.647   2.982 -3.0316  1.0258 -0.5055
  587MOL0     H79186   2.648   4.785   2.807  0.7010 -0.3794 -0.5924
  587MOL0     H79187   2.659   4.721   2.967 -0.8547  2.2636  1.1533
  587MOL0     H79188   2.653   4.487   2.898 -0.1115 -0.5449  0.5567
  587MOL0     H79189   2.606   4.539   2.733  1.1769  2.2565 -1.7053
  587MOL0     H79190   2.879   4.584   2.867 -0.2632 -1.6957  1.2485
  587MOL0     H79191   2.841   4.473   2.747  2.1280 -0.5242  1.1277
  587MOL0     H79192   2.808   4.770   2.679 -1.2590 -0.7615 -0.3772
  587MOL0     H79193   2.768   4.631   2.582 -0.5693  0.0494 -0.2297
  587MOL0     H79194   3.004   4.551   2.612  1.2101  0.7533 -2.4851
  587MOL0     H79195   2.995   4.703   2.515  0.3772  4.2797  1.6191
  587MOL0     H79196   3.138   4.579   2.829 -0.7229 -0.2059  0.6455
  587MOL0     H79197   3.401   4.643   2.911 -0.7855  1.0870  0.4211
  587MOL0     H79198   3.445   4.807   2.870 -0.5105  1.4605  0.5853
  587MOL0     H79199   3.229   4.750   3.084 -0.7944  2.9305  0.4376
  587MOL0     H79200   3.405   4.748   3.128  1.2622  2.0830  0.9117
  587MOL0     H79201   3.295   4.991   2.976 -2.2661 -0.4269  0.7882
  587MOL0     H79202   3.445   4.964   3.063 -0.6841  2.4488 -1.4582
  587MOL0     H79203   3.312   4.923   3.276  1.0426  2.2182  1.7627
  587MOL0     H79204   3.165   4.956   3.193  0.7550  0.1852  1.8922
  587MOL0     H79205   3.103   5.072   3.423  3.8743  1.2837 -0.2803
  587MOL0     H79206   2.879   5.168   3.427 -2.2849 -0.2768 -3.0349
  587MOL0     H79207   2.661   5.714   3.210  0.5156 -0.5693  1.3376
  587MOL0     H79208   2.434   5.782   3.217  2.5510  0.6792 -0.2115
  587MOL0     H79209   2.202   5.675   3.361  1.3839  0.8294 -0.0631
  587MOL0     H79210   2.150   5.783   3.243  1.9718 -0.7896 -1.9969
  587MOL0     H79211   1.974   5.656   3.164 -0.4885 -1.7023 -0.7565
  587MOL0     H79212   2.020   5.512   3.258  0.9029 -0.1572 -2.0020
  587MOL0     H79213   1.842   5.612   3.375  1.3431 -1.5285  1.9817
  587MOL0     H79214   1.983   5.619   3.468 -1.3469 -1.0840  0.2591
  587MOL0     H79215   1.882   5.863   3.294 -2.6766 -0.4591  0.2382
  587MOL0     H79216   2.008   5.864   3.417  0.0098  1.2501  0.1185
  587MOL0     H79217   1.844   5.792   3.593 -0.9811  0.6050  0.7331
  587MOL0     H79218   1.731   5.775   3.466  1.6811 -1.8066  2.1394
  587MOL0     H79219   1.857   6.026   3.568  1.6495 -2.4740 -0.7427
  587MOL0     H79220   1.768   6.036   3.425 -1.0915  1.6330  1.2741
  587MOL0     H79221   1.644   5.926   3.690 -4.1837 -2.0691 -1.3299
  587MOL0     H79222   1.560   5.936   3.536  0.0506 -0.3469  0.3273
  587MOL0     H79223   1.514   6.153   3.674  2.1493  0.6351  3.3455
  587MOL0     H79224   1.684   6.153   3.718  0.4459  1.4802 -0.1339
  587MOL0     H79225   2.313   5.387   3.093 -2.1547  0.7726  1.5491
  587MOL0     H79226   2.550   5.314   3.141 -0.4268  0.7051  1.7077
  587MOL0     H79227   2.989   5.420   3.081  1.9268 -2.0454 -1.9314
  587MOL0     H79228   3.207   5.301   3.078 -2.6804 -2.1215 -1.0067
  587MOL0     H79229   2.191   5.209   3.029  1.4368 -0.3860 -1.2703
  587MOL0     H79230   1.966   5.347   3.030 -0.4803  0.4629 -1.5352
  587MOL0     H79231   1.477   5.202   2.881  0.9042 -0.9072  1.7181
  587MOL0     H79232   1.258   5.308   2.847 -0.5208 -0.3820  0.4607
  587MOL0     H79233   1.057   5.380   2.866 -1.9458  1.4794 -0.9792
  587MOL0     H79234   1.153   5.490   2.760 -2.3183 -0.9082 -1.9922
  587MOL0     H79235   0.883   5.532   2.895 -0.1682  0.8422 -0.5606
  587MOL0     H79236   0.920   5.539   2.727  0.8777 -2.3961 -1.1561
  587MOL0     H79237   1.055   5.756   2.767  0.5608  2.2828  1.1751
  587MOL0     H79238   1.033   5.726   2.945  2.1946  0.2930 -1.9386
  587MOL0     H79239   0.807   5.794   2.746  0.9781  2.5248 -0.0191
  587MOL0     H79240   0.789   5.758   2.920  0.3488  3.2338  1.5214
  587MOL0     H79241   0.926   6.159   2.950  1.4503 -0.2538 -0.5792
  587MOL0     H79242   1.339   5.614   3.127  2.9351  0.7788 -0.8674
  587MOL0     H79243   1.614   5.530   3.255  0.4552  0.3460  1.1232
  587MOL0     H79244   1.700   5.571   3.107 -0.0585 -1.5815 -0.4502
  587MOL0     H79245   1.555   5.661   3.142  3.0122  1.0045  1.1376
  588MOL0     O79246   3.156   4.763   9.733 -0.1875 -0.2970  0.5295
  588MOL0     C79247   3.133   4.736   9.612  0.6808 -0.4953 -0.5982
  588MOL0     O79248   3.226   4.705   9.514  0.2691 -0.1828  0.5347
  588MOL0     C79249   3.358   4.700   9.546 -0.8779 -0.5499 -0.9479
  588MOL0     C79250   3.421   4.582   9.598 -1.0446  0.1952 -0.7509
  588MOL0     C79251   3.558   4.580   9.627  0.0351 -0.7240  0.4500
  588MOL0     C79252   3.635   4.699   9.610  0.2336  0.6636  0.1281
  588MOL0     O79253   3.770   4.698   9.640  0.2053  0.1760  0.3084
  588MOL0     C79254   3.808   4.638   9.762  1.0376 -0.0328 -0.2827
  588MOL0     C79255   3.952   4.652   9.789  0.0014 -0.7617  0.0376
  588MOL0     C79256   4.032   4.530   9.742 -0.7019 -0.6192  0.0751
  588MOL0     C79257   4.190   4.544   9.765  0.0480  0.0101 -0.4005
  588MOL0     C79258   4.263   4.412   9.747 -0.4994 -1.1752 -0.4183
  588MOL0     C79259   4.235   4.358   9.610  0.8329  0.8350 -0.7007
  588MOL0     C79260   4.332   4.241   9.579 -0.5180  1.4271  0.0765
  588MOL0     C79261   4.323   4.116   9.674 -0.2491 -0.1147 -0.4843
  588MOL0     N79262   4.375   3.990   9.605 -0.0044 -0.4095 -0.1925
  588MOL0     C79263   4.509   3.963   9.577  0.8154  0.5451 -0.4811
  588MOL0     C79264   4.507   3.835   9.540 -0.3126 -0.2526 -0.1013
  588MOL0     C79265   4.627   3.765   9.488 -0.6722  0.8416 -0.4792
  588MOL0     C79266   4.659   3.796   9.343  0.7635 -0.8480  0.3170
  588MOL0     C79267   4.792   3.747   9.297  0.9568  1.1785  0.7302
  588MOL0     C79268   4.914   3.824   9.339 -0.2633 -0.4289  0.0627
  588MOL0     O79269   4.922   3.946   9.262  0.2510  0.6878  0.3179
  588MOL0     C79270   5.031   4.021   9.300 -0.0671 -0.4665  0.7152
  588MOL0     C79271   5.051   4.121   9.209 -0.7431 -0.0522  0.1086
  588MOL0     C79272   5.153   4.215   9.225 -0.2578 -0.3015  0.2037
  588MOL0     C79273   5.256   4.199   9.323  0.2550 -0.3194 -0.6941
  588MOL0     C79274   5.378   4.287   9.331 -0.0230 -0.6602 -0.9369
  588MOL0     O79275   5.460   4.265   9.443  0.3793  1.1687  0.1657
  588MOL0     C79276   5.570   4.343   9.466 -0.6286  0.3025  0.7576
  588MOL0     C79277   5.589   4.471   9.420  0.1901  0.5481  0.4030
  588MOL0     C79278   5.705   4.541   9.438  0.2204  0.2344  0.8397
  588MOL0     C79279   5.804   4.497   9.518 -0.3094 -0.1384 -0.0544
  588MOL0     O79280   5.904   4.584   9.552 -0.3695  0.5885  0.3577
  588MOL0     C79281   5.976   4.551   9.670 -0.4012 -1.2236 -0.5914
  588MOL0     C79282   6.052   4.670   9.725 -0.9142 -0.1165  0.6480
  588MOL0     C79283   6.155   4.727   9.629 -0.1413  0.4077  0.5885
  588MOL0     C79284   6.198   4.865   9.687  0.8390 -0.1359  0.0887
  588MOL0     C79285   6.327   4.916   9.624 -0.1220 -0.1222 -0.6483
  588MOL0     C79286   6.375   5.047   9.684  0.0406 -0.3535 -0.0954
  588MOL0     C79287   6.510   5.089   9.619  0.4849 -1.6085 -0.3917
  588MOL0     C79288   6.543   5.238   9.640 -0.3915 -0.3173 -0.7605
  588MOL0    Cl79289   6.556   5.267   9.818 -0.2913  0.2284  0.2158
  588MOL0     C79290   5.792   4.356   9.566 -0.5089 -1.0071  0.3740
  588MOL0     C79291   5.680   4.288   9.542 -0.2047  0.2397 -0.1372
  588MOL0     O79292   5.402   4.360   9.234 -0.4815 -0.2512  0.0901
  588MOL0     C79293   5.234   4.094   9.415  0.1899  0.6217 -0.1346
  588MOL0     C79294   5.116   4.011   9.406  0.2534 -0.4309  0.3538
  588MOL0     N79295   4.381   3.789   9.540 -0.2805  0.7071  0.2532
  588MOL0     N79296   4.298   3.880   9.577  0.5342 -0.0261  0.0815
  588MOL0     C79297   3.579   4.809   9.552  0.0784 -0.1932 -0.3697
  588MOL0     C79298   3.442   4.813   9.521 -0.5394 -0.2268  0.1365
  588MOL0     C79299   3.000   4.729   9.564  0.7307  0.8344 -0.6508
  588MOL0     C79300   2.968   4.621   9.477  0.3781 -0.8503  0.2955
  588MOL0     C79301   2.840   4.609   9.412  0.5925  0.0326  0.6433
  588MOL0     C79302   2.746   4.715   9.432 -0.0538  0.5100 -0.8282
  588MOL0     O79303   2.632   4.701   9.362 -0.1558  0.4220 -0.2824
  588MOL0     C79304   2.563   4.821   9.331 -0.2259 -0.4852  0.6028
  588MOL0     C79305   2.435   4.793   9.254  0.0238 -0.2984 -0.5250
  588MOL0     C79306   2.400   4.917   9.163  0.1756 -0.8608 -0.3799
  588MOL0     C79307   2.305   5.026   9.229  0.0966 -0.2892 -0.5169
  588MOL0     C79308   2.169   4.980   9.272 -0.0303  1.1713 -0.0380
  588MOL0     C79309   2.063   4.939   9.307  0.5466  0.6668 -0.5762
  588MOL0     C79310   2.768   4.805   9.541  0.1505  0.8332  1.1005
  588MOL0     C79311   2.893   4.816   9.609 -0.3330 -0.8937 -0.1257
  588MOL0     C79312   2.893   4.910   9.731  0.0244  0.8607  0.4050
  588MOL0     H79313   3.353   4.498   9.607 -1.9918  1.0877  0.9227
  588MOL0     H79314   3.602   4.483   9.646 -1.1018 -1.3247  0.1375
  588MOL0     H79315   3.755   4.691   9.842 -2.4538 -2.8022 -0.5180
  588MOL0     H79316   3.786   4.531   9.761 -1.2112  0.1753 -5.5941
  588MOL0     H79317   3.963   4.651   9.898  1.8694 -2.1666 -0.1263
  588MOL0     H79318   3.987   4.747   9.747 -0.8269  0.6774  2.3757
  588MOL0     H79319   4.018   4.516   9.634  0.3075  0.9986 -0.2927
  588MOL0     H79320   3.990   4.441   9.790 -4.2886  1.0678  0.4067
  588MOL0     H79321   4.232   4.620   9.698 -0.4138  0.1762 -0.5063
  588MOL0     H79322   4.206   4.576   9.868 -2.3096  1.8246 -0.5193
  588MOL0     H79323   4.368   4.430   9.772 -0.5999 -2.4781  1.1044
  588MOL0     H79324   4.226   4.334   9.815 -1.9194  0.2119  0.4826
  588MOL0     H79325   4.133   4.318   9.601  1.2263 -0.5837  0.7958
  588MOL0     H79326   4.240   4.432   9.530  1.2228 -0.6539 -2.1125
  588MOL0     H79327   4.431   4.288   9.574 -0.1538  0.6048 -0.9741
  588MOL0     H79328   4.309   4.202   9.479  4.1171 -1.2272 -0.2620
  588MOL0     H79329   4.373   4.126   9.771  0.1132  2.3292 -0.8784
  588MOL0     H79330   4.215   4.102   9.690 -0.0790 -1.8370 -0.6277
  588MOL0     H79331   4.598   4.019   9.604  0.1933  0.6394  1.5231
  588MOL0     H79332   4.705   3.799   9.556 -2.4266  2.1365  0.9815
  588MOL0     H79333   4.605   3.659   9.504  2.4410  0.2626  0.6178
  588MOL0     H79334   4.572   3.746   9.298 -0.3730  0.8007  0.6184
  588MOL0     H79335   4.641   3.902   9.324  0.3542 -1.2937 -2.1175
  588MOL0     H79336   4.798   3.740   9.188  2.8008  0.0243  0.8578
  588MOL0     H79337   4.810   3.650   9.345  2.9951 -0.4121 -2.8362
  588MOL0     H79338   4.986   3.754   9.296 -1.7508 -1.2357 -1.2166
  588MOL0     H79339   4.911   3.827   9.449  1.6208 -1.6160  0.1855
  588MOL0     H79340   4.991   4.126   9.118  1.3660 -0.9732 -1.4076
  588MOL0     H79341   5.155   4.302   9.160 -2.5235  0.8549  1.5497
  588MOL0     H79342   5.516   4.525   9.361 -0.0852  1.5140  1.5743
  588MOL0     H79343   5.702   4.641   9.397 -1.0584 -0.3487 -0.5805
  588MOL0     H79344   5.907   4.522   9.751 -0.6248  3.3916  1.1656
  588MOL0     H79345   6.049   4.474   9.642 -1.2919 -2.0471 -0.7158
  588MOL0     H79346   5.979   4.751   9.733 -1.7794 -0.2148 -3.5758
  588MOL0     H79347   6.109   4.634   9.811  0.3635  0.5127  0.1022
  588MOL0     H79348   6.249   4.675   9.610 -0.9170 -0.7655 -0.1893
  588MOL0     H79349   6.111   4.739   9.530  1.6571 -1.3724 -0.5183
  588MOL0     H79350   6.201   4.858   9.796 -2.2238 -3.1239  0.1727
  588MOL0     H79351   6.119   4.940   9.676  2.3610  1.3423 -1.2452
  588MOL0     H79352   6.307   4.933   9.518 -2.4990  1.3789 -0.0375
  588MOL0     H79353   6.397   4.833   9.635  0.6317  0.7448  1.8351
  588MOL0     H79354   6.290   5.116   9.679 -0.5692 -0.9701  1.2469
  588MOL0     H79355   6.395   5.020   9.788  1.4462  1.9061  0.2844
  588MOL0     H79356   6.514   5.072   9.511  1.4991 -0.2503 -0.5858
  588MOL0     H79357   6.591   5.025   9.656  0.2419 -2.0307 -0.5808
  588MOL0     H79358   6.630   5.255   9.576 -1.2670  0.1489 -1.8528
  588MOL0     H79359   6.456   5.296   9.609  0.1407 -0.5217 -2.8270
  588MOL0     H79360   5.862   4.304   9.630  1.0808  0.0173 -0.4532
  588MOL0     H79361   5.671   4.190   9.589 -2.0605  2.1670  4.0953
  588MOL0     H79362   5.294   4.099   9.505 -1.4616 -1.2390  1.1673
  588MOL0     H79363   5.099   3.940   9.486  2.7789 -0.6852  0.7467
  588MOL0     H79364   3.628   4.905   9.543 -4.6198  2.4237 -1.4349
  588MOL0     H79365   3.399   4.905   9.484  1.2851  0.7268  0.2745
  588MOL0     H79366   3.033   4.541   9.441 -1.2028 -0.8795 -2.8623
  588MOL0     H79367   2.817   4.529   9.342 -0.1420  0.4442  0.3996
  588MOL0     H79368   2.632   4.888   9.279  0.1239  0.6115  2.4015
  588MOL0     H79369   2.535   4.862   9.428 -2.1636 -0.2323 -0.0254
  588MOL0     H79370   2.357   4.760   9.324  0.2414  0.9607  0.3212
  588MOL0     H79371   2.459   4.709   9.187 -1.5076 -0.4599 -0.9264
  588MOL0     H79372   2.351   4.866   9.080 -1.0889 -3.4600  1.7906
  588MOL0     H79373   2.483   4.980   9.129 -0.0721 -0.2206  0.1652
  588MOL0     H79374   2.368   5.072   9.306  4.1703 -0.3050 -3.4909
  588MOL0     H79375   2.298   5.102   9.151 -0.9207  0.7390  0.5552
  588MOL0     H79376   1.970   4.899   9.344  0.9401  1.4053  1.3746
  588MOL0     H79377   2.688   4.869   9.575  0.5467  2.3631 -0.6749
  588MOL0     H79378   2.940   4.855   9.814 -3.3524 -2.2662  0.5117
  588MOL0     H79379   2.958   4.995   9.709  6.2602 -3.0590  0.9327
  588MOL0     H79380   2.792   4.938   9.763 -0.4482 -0.2481 -0.0761
  589MOL0     O79381   4.702   0.305   5.242 -0.4652  0.5607 -0.3323
  589MOL0     C79382   4.763   0.333   5.345 -0.1628  0.2164 -0.4271
  589MOL0     O79383   4.873   0.264   5.398 -0.0805  0.0658  0.0949
  589MOL0     C79384   4.921   0.169   5.320 -0.9806 -0.9244  0.3667
  589MOL0     C79385   4.851   0.054   5.277  0.1371 -0.2836 -0.4660
  589MOL0     C79386   4.920  -0.055   5.214  0.2001 -0.0319  0.0511
  589MOL0     C79387   5.057  -0.045   5.191 -0.0938 -0.9007  0.3034
  589MOL0     O79388   5.138  -0.146   5.133  0.0666 -0.4780 -0.0240
  589MOL0     C79389   5.083  -0.284   5.137 -0.7164 -0.0910  0.3344
  589MOL0     C79390   5.096  -0.327   5.282  1.1768  0.4645 -0.0824
  589MOL0     C79391   5.234  -0.304   5.341 -0.5630 -0.6565  0.1810
  589MOL0     C79392   5.271  -0.383   5.467  0.8241 -0.8264  0.0504
  589MOL0     C79393   5.395  -0.355   5.541 -1.0677 -0.2721 -0.4696
  589MOL0     C79394   5.525  -0.381   5.459 -0.2634  0.1152 -1.0200
  589MOL0     C79395   5.646  -0.323   5.529  0.0602  0.0293  0.0466
  589MOL0     C79396   5.772  -0.334   5.437  0.3456 -0.3446 -0.5518
  589MOL0     N79397   5.893  -0.276   5.500  0.0372 -0.1673  0.6579
  589MOL0     C79398   5.951  -0.324   5.615 -0.6002  0.2563 -0.1027
  589MOL0     C79399   6.055  -0.246   5.637  0.6700 -0.7283 -0.2389
  589MOL0     C79400   6.164  -0.244   5.747  0.0968  0.4414 -0.0199
  589MOL0     C79401   6.232  -0.385   5.744  0.5747  1.0937  0.1686
  589MOL0     C79402   6.328  -0.402   5.629  0.0286  0.7110  1.2360
  589MOL0     C79403   6.366  -0.546   5.599  1.1010 -0.3513  0.8362
  589MOL0     O79404   6.479  -0.540   5.502  0.1291  0.2505  0.2739
  589MOL0     C79405   6.508  -0.657   5.439  0.1625 -0.2365 -0.6685
  589MOL0     C79406   6.619  -0.638   5.355  0.0299  0.2042 -0.3131
  589MOL0     C79407   6.681  -0.749   5.311  0.4561  0.9210 -0.0990
  589MOL0     C79408   6.609  -0.880   5.317 -0.1504  0.0935 -0.6296
  589MOL0     C79409   6.666  -1.004   5.254  0.8867 -0.0276 -0.3677
  589MOL0     O79410   6.752  -0.997   5.154 -0.0009 -0.3106  0.3992
  589MOL0     C79411   6.792  -1.107   5.078  0.4735  0.3732 -0.1174
  589MOL0     C79412   6.719  -1.229   5.062  0.4750 -0.0326  0.5622
  589MOL0     C79413   6.777  -1.321   4.977 -0.7250  0.5447  0.6708
  589MOL0     C79414   6.893  -1.299   4.899 -0.8413  0.6952  0.3285
  589MOL0     O79415   6.941  -1.395   4.816  0.1093  0.3767 -0.2633
  589MOL0     C79416   7.068  -1.382   4.761  0.6001  0.3945  0.3303
  589MOL0     C79417   7.084  -1.505   4.664 -0.5461 -0.8448 -0.7763
  589MOL0     C79418   7.225  -1.517   4.636 -0.6381  0.1612  0.3014
  589MOL0     C79419   7.295  -1.401   4.564  0.0331  0.0307  0.2686
  589MOL0     C79420   7.388  -1.445   4.452  0.3487 -0.1600  0.1971
  589MOL0     C79421   7.317  -1.514   4.332 -0.4134 -0.3702 -0.5149
  589MOL0     C79422   7.421  -1.601   4.257  0.2537 -0.3982 -0.0518
  589MOL0     C79423   7.337  -1.693   4.159 -0.6206 -0.2995  0.4921
  589MOL0    Cl79424   7.434  -1.836   4.107 -0.5724  0.6853  0.0546
  589MOL0     C79425   6.958  -1.181   4.915  0.1410 -0.5145  0.0404
  589MOL0     C79426   6.902  -1.090   5.002 -0.6111 -0.0862  0.4535
  589MOL0     O79427   6.624  -1.110   5.306  0.3687  0.1576 -0.4247
  589MOL0     C79428   6.484  -0.891   5.379 -0.0451  0.1827 -0.0425
  589MOL0     C79429   6.435  -0.775   5.438  0.4049  0.0142 -0.1792
  589MOL0     N79430   6.049  -0.143   5.550 -0.4562 -0.3222 -0.0617
  589MOL0     N79431   5.952  -0.162   5.464  0.9115 -0.0039 -0.0333
  589MOL0     C79432   5.116   0.079   5.222  0.0182  0.8807 -0.6277
  589MOL0     C79433   5.050   0.177   5.288 -0.2821  0.8467 -0.2304
  589MOL0     C79434   4.691   0.431   5.434 -0.4879 -0.8377  0.6893
  589MOL0     C79435   4.552   0.412   5.447 -0.4634  0.1551  0.2317
  589MOL0     C79436   4.479   0.482   5.542  0.0775 -1.5906  0.1760
  589MOL0     C79437   4.544   0.576   5.625  0.1507  0.0162  0.4817
  589MOL0     O79438   4.481   0.664   5.716 -0.1383 -0.1857  0.4489
  589MOL0     C79439   4.352   0.712   5.687  0.3056 -1.1685 -0.0623
  589MOL0     C79440   4.351   0.811   5.568 -0.6073  0.4936  0.2726
  589MOL0     C79441   4.451   0.922   5.596 -0.5091 -0.1064 -0.0819
  589MOL0     C79442   4.440   1.023   5.473 -0.5409 -0.0997  0.2474
  589MOL0     C79443   4.499   0.955   5.350  1.0476 -0.4821 -0.6641
  589MOL0     C79444   4.527   0.891   5.253  0.0075 -0.4618 -0.7460
  589MOL0     C79445   4.681   0.586   5.614 -0.5526 -0.3066 -0.7749
  589MOL0     C79446   4.761   0.520   5.518  0.7452  0.4197  0.2983
  589MOL0     C79447   4.906   0.535   5.511 -0.4494 -0.2355  0.1970
  589MOL0     H79448   4.743   0.052   5.294  0.1305 -4.2235  0.1525
  589MOL0     H79449   4.867  -0.146   5.187  1.4043 -0.4996 -0.8354
  589MOL0     H79450   4.980  -0.276   5.102  0.7804  3.2057 -4.3497
  589MOL0     H79451   5.142  -0.348   5.071 -0.5840 -2.3026  2.4984
  589MOL0     H79452   5.071  -0.433   5.297 -0.0515  0.7751  0.0954
  589MOL0     H79453   5.015  -0.271   5.327  2.9708  1.8487  1.5815
  589MOL0     H79454   5.245  -0.198   5.368 -4.4318 -0.5228  1.9038
  589MOL0     H79455   5.308  -0.334   5.267 -0.4171 -1.6498  0.7047
  589MOL0     H79456   5.189  -0.365   5.537  1.6578  3.8887  0.1702
  589MOL0     H79457   5.273  -0.486   5.432 -1.3407 -1.3880  1.3797
  589MOL0     H79458   5.396  -0.252   5.577  0.6315 -0.2395 -0.5073
  589MOL0     H79459   5.404  -0.422   5.626  2.2273 -0.1904 -0.5932
  589MOL0     H79460   5.542  -0.489   5.455 -0.4373  0.0356  0.0902
  589MOL0     H79461   5.530  -0.345   5.356  0.4626  3.4452  0.0549
  589MOL0     H79462   5.653  -0.385   5.619 -1.7754 -1.7223 -0.9239
  589MOL0     H79463   5.624  -0.220   5.557 -1.3897 -0.5824  1.3277
  589MOL0     H79464   5.781  -0.438   5.407  1.7578  0.6695 -4.1057
  589MOL0     H79465   5.743  -0.286   5.343 -3.0502 -2.4782 -0.7681
  589MOL0     H79466   5.927  -0.416   5.669 -0.3996  0.0979 -0.2804
  589MOL0     H79467   6.254  -0.187   5.723  0.2893 -0.6653 -2.1855
  589MOL0     H79468   6.111  -0.220   5.840 -2.3539 -3.3981 -0.1916
  589MOL0     H79469   6.289  -0.397   5.837 -1.6776  0.6298  1.5472
  589MOL0     H79470   6.166  -0.473   5.744  0.7936  0.8442  2.7709
  589MOL0     H79471   6.421  -0.351   5.653  0.3009  0.5698  0.4986
  589MOL0     H79472   6.286  -0.351   5.541 -2.9779 -2.3637  0.6466
  589MOL0     H79473   6.284  -0.588   5.540  1.5389  1.0067 -0.8492
  589MOL0     H79474   6.386  -0.600   5.692 -0.7686  0.9650  2.0639
  589MOL0     H79475   6.666  -0.540   5.353  0.0486  0.2397  1.0970
  589MOL0     H79476   6.778  -0.752   5.262  1.5149 -2.0870  1.8535
  589MOL0     H79477   6.625  -1.247   5.113  0.7682 -2.8811  0.2988
  589MOL0     H79478   6.722  -1.414   4.967 -0.7289  0.6207 -0.0687
  589MOL0     H79479   7.064  -1.292   4.699 -0.2349  2.1347  2.7798
  589MOL0     H79480   7.138  -1.374   4.844  1.0265  3.0111 -0.1811
  589MOL0     H79481   7.048  -1.596   4.713 -0.5252 -2.0809 -2.9275
  589MOL0     H79482   7.026  -1.494   4.572 -3.3007  1.2135  1.0427
  589MOL0     H79483   7.286  -1.531   4.725 -1.3937  0.8305  0.9456
  589MOL0     H79484   7.234  -1.607   4.574 -1.0244  0.2254  0.1443
  589MOL0     H79485   7.361  -1.351   4.636  3.9292 -4.4774  0.3299
  589MOL0     H79486   7.229  -1.322   4.528 -0.4141 -0.5138 -0.1402
  589MOL0     H79487   7.456  -1.514   4.502  2.2994  2.5383  1.5050
  589MOL0     H79488   7.448  -1.362   4.413  0.5828 -0.1709  0.5334
  589MOL0     H79489   7.232  -1.577   4.359  0.0151 -0.0270  1.8158
  589MOL0     H79490   7.277  -1.440   4.262  0.0949  0.1628 -0.2471
  589MOL0     H79491   7.473  -1.665   4.330  2.2987 -2.0449 -2.7713
  589MOL0     H79492   7.492  -1.534   4.208 -2.7938  3.1479 -0.0513
  589MOL0     H79493   7.246  -1.733   4.206 -0.9400 -0.4182 -0.2093
  589MOL0     H79494   7.301  -1.626   4.080  1.1959 -0.1493 -0.2507
  589MOL0     H79495   7.041  -1.151   4.852  0.5104  0.5618  1.0190
  589MOL0     H79496   6.949  -0.992   5.007 -0.3440 -0.1435 -0.6545
  589MOL0     H79497   6.433  -0.987   5.386  1.3002 -0.4392  3.0999
  589MOL0     H79498   6.339  -0.790   5.487 -0.1697 -2.1941 -1.8138
  589MOL0     H79499   5.221   0.080   5.196  0.3310  2.5849  0.5407
  589MOL0     H79500   5.105   0.268   5.310  1.9205 -0.4232 -0.2071
  589MOL0     H79501   4.496   0.357   5.372 -0.4095 -1.4516  1.3454
  589MOL0     H79502   4.373   0.460   5.547 -0.7124  1.9784  2.6914
  589MOL0     H79503   4.324   0.762   5.780 -4.3397  2.7671 -3.0153
  589MOL0     H79504   4.283   0.628   5.677 -1.9541  0.4254  0.9234
  589MOL0     H79505   4.252   0.857   5.557 -0.5963  0.5230  0.2986
  589MOL0     H79506   4.373   0.761   5.473  0.4022  1.1593  0.1294
  589MOL0     H79507   4.552   0.885   5.611 -0.6471  0.8325  4.7983
  589MOL0     H79508   4.436   0.975   5.691  1.2799  0.6963 -0.2113
  589MOL0     H79509   4.336   1.055   5.470 -1.1656 -1.9747  0.9593
  589MOL0     H79510   4.503   1.107   5.504  2.1561 -1.4274 -1.1796
  589MOL0     H79511   4.572   0.836   5.173  0.3613 -0.8233 -0.3059
  589MOL0     H79512   4.738   0.650   5.682 -1.4411 -1.7827  1.4707
  589MOL0     H79513   4.950   0.463   5.581  0.1149  1.8557  2.1172
  589MOL0     H79514   4.946   0.535   5.410 -0.3822  1.8467  0.1842
  589MOL0     H79515   4.936   0.635   5.544  0.0657 -0.5307  0.6560
  590MOL0     O79516   6.859   2.592   5.070 -0.6137  0.6780  0.2207
  590MOL0     C79517   6.828   2.668   4.983  0.0648  0.7822 -0.3681
  590MOL0     O79518   6.920   2.734   4.906  0.3231 -0.4969 -0.7036
  590MOL0     C79519   7.044   2.686   4.883  0.8473  0.4329 -0.7130
  590MOL0     C79520   7.158   2.753   4.931  0.0789 -0.0940  0.2004
  590MOL0     C79521   7.279   2.691   4.896 -0.4055  0.2794 -0.3984
  590MOL0     C79522   7.298   2.576   4.821  0.2692 -0.6944 -0.1030
  590MOL0     O79523   7.427   2.534   4.809 -0.6469  0.2827  0.4053
  590MOL0     C79524   7.473   2.465   4.924  0.2907 -0.3592 -0.7104
  590MOL0     C79525   7.609   2.393   4.895 -0.0674 -0.6690 -0.1918
  590MOL0     C79526   7.719   2.493   4.852  0.6767 -0.2525  0.3946
  590MOL0     C79527   7.857   2.428   4.842  0.6221 -0.2152  0.2561
  590MOL0     C79528   7.964   2.521   4.781 -0.1202  0.1590 -0.2636
  590MOL0     C79529   8.094   2.445   4.739 -0.0867  0.0706  0.0100
  590MOL0     C79530   8.182   2.537   4.654  0.3198 -0.1827 -0.3385
  590MOL0     C79531   8.304   2.450   4.601 -0.4370 -0.3634 -0.3924
  590MOL0     N79532   8.368   2.371   4.711  0.0446 -0.4477 -0.3913
  590MOL0     C79533   8.444   2.435   4.796 -0.1733  0.6630 -0.5091
  590MOL0     C79534   8.436   2.351   4.909  0.1596 -0.2134 -0.0857
  590MOL0     C79535   8.489   2.377   5.048  0.4610  0.0535 -0.2364
  590MOL0     C79536   8.462   2.528   5.095 -0.6611  0.8966 -0.2868
  590MOL0     C79537   8.524   2.565   5.229 -0.1444  0.1985  0.1290
  590MOL0     C79538   8.517   2.715   5.255 -0.8017  0.9632  0.0365
  590MOL0     O79539   8.535   2.752   5.390  0.0120 -0.3722 -0.3194
  590MOL0     C79540   8.660   2.766   5.432  0.8956 -0.5615 -0.6901
  590MOL0     C79541   8.657   2.796   5.569 -0.4481 -0.4199  0.1045
  590MOL0     C79542   8.770   2.838   5.640  0.7165  0.1382 -1.3046
  590MOL0     C79543   8.897   2.829   5.571  0.1900  0.0009 -0.4418
  590MOL0     C79544   9.023   2.868   5.648 -0.4392  0.5324  0.5692
  590MOL0     O79545   9.140   2.859   5.580 -0.3280 -0.2482 -0.1315
  590MOL0     C79546   9.251   2.917   5.653  0.0044  0.5626  0.1405
  590MOL0     C79547   9.361   2.837   5.655  0.0778  0.4407 -0.5595
  590MOL0     C79548   9.478   2.882   5.723 -0.6864  0.1745 -0.4613
  590MOL0     C79549   9.481   3.002   5.792 -0.1694 -0.6409  0.3612
  590MOL0     O79550   9.597   3.052   5.862  0.3288  0.2628  0.3769
  590MOL0     C79551   9.711   2.971   5.864  0.2768 -0.8179 -0.8347
  590MOL0     C79552   9.788   3.053   5.957 -0.0588  0.7508 -0.6851
  590MOL0     C79553   9.906   2.964   5.983  0.8703 -0.0835  0.1043
  590MOL0     C79554   9.983   3.023   6.093  0.2063  0.3523  0.4592
  590MOL0     C79555  10.073   2.906   6.137 -1.0656  0.1004  0.2509
  590MOL0     C79556  10.136   2.936   6.269  0.8033  0.2150  0.7102
  590MOL0     C79557  10.255   3.033   6.249 -0.3025  0.0459 -0.3598
  590MOL0     C79558  10.299   3.105   6.392  0.3736 -0.1732 -0.5739
  590MOL0    Cl79559  10.298   2.988   6.520  0.4007 -0.8489  0.2891
  590MOL0     C79560   9.374   3.099   5.778 -1.0761  0.7770 -0.9494
  590MOL0     C79561   9.259   3.051   5.712  0.5586 -0.3221 -0.4614
  590MOL0     O79562   9.012   2.919   5.762 -0.2000  0.6242  0.4014
  590MOL0     C79563   8.905   2.792   5.438  0.1839 -1.2370 -0.6335
  590MOL0     C79564   8.787   2.767   5.366 -0.5791  0.0691 -0.2986
  590MOL0     N79565   8.377   2.235   4.863 -0.5288  0.6338 -0.3026
  590MOL0     N79566   8.343   2.242   4.746  0.9606  0.2488  0.5765
  590MOL0     C79567   7.182   2.509   4.788 -0.2573  0.0035  0.7171
  590MOL0     C79568   7.054   2.566   4.812 -0.1977 -1.0208  0.0988
  590MOL0     C79569   6.685   2.702   4.968 -0.0304  0.6248 -0.5186
  590MOL0     C79570   6.652   2.822   4.905  0.1860  0.6848  0.1046
  590MOL0     C79571   6.521   2.877   4.915  1.1641 -0.2807  0.0200
  590MOL0     C79572   6.422   2.799   4.988  0.5917 -0.6283  0.3099
  590MOL0     O79573   6.290   2.839   5.006  0.0071 -0.2110  0.0571
  590MOL0     C79574   6.245   2.966   4.953  0.0726 -0.1956  0.0257
  590MOL0     C79575   6.092   2.980   5.004  0.0757  0.6679  0.1477
  590MOL0     C79576   6.035   3.118   4.991  0.7531 -0.0263 -1.0298
  590MOL0     C79577   5.899   3.101   5.071 -0.4600  0.0150  0.3547
  590MOL0     C79578   5.828   3.232   5.065  1.2871 -0.1219  0.7203
  590MOL0     C79579   5.766   3.330   5.085 -0.3930 -0.6467 -0.5663
  590MOL0     C79580   6.453   2.674   5.025  0.4167  1.0262  1.0587
  590MOL0     C79581   6.582   2.623   5.028  0.0124 -0.4607 -0.3597
  590MOL0     C79582   6.606   2.489   5.101  0.0575 -0.1530  0.0090
  590MOL0     H79583   7.142   2.847   4.984 -0.3182  0.7531 -1.3576
  590MOL0     H79584   7.375   2.733   4.921 -0.9568 -0.6538  4.0173
  590MOL0     H79585   7.496   2.533   5.007  1.1271 -0.4101 -0.8957
  590MOL0     H79586   7.391   2.396   4.948 -0.2940  0.1909 -1.1268
  590MOL0     H79587   7.593   2.312   4.823 -0.7194 -0.9358  0.2425
  590MOL0     H79588   7.646   2.339   4.983  0.0185 -1.1933 -0.5443
  590MOL0     H79589   7.722   2.578   4.921  2.5447 -0.5937  0.7860
  590MOL0     H79590   7.697   2.534   4.753  0.2936 -0.8044  0.2513
  590MOL0     H79591   7.896   2.409   4.942  1.8193  1.8185  0.2394
  590MOL0     H79592   7.849   2.331   4.792 -3.8652  0.7342 -1.3775
  590MOL0     H79593   7.933   2.562   4.685  2.6893 -2.2953 -2.4097
  590MOL0     H79594   7.974   2.603   4.853 -0.5765  0.9962 -1.1396
  590MOL0     H79595   8.142   2.431   4.836 -1.1546 -0.1409  0.5297
  590MOL0     H79596   8.069   2.355   4.682 -1.9567  1.9061 -2.3087
  590MOL0     H79597   8.224   2.609   4.724  1.2226 -1.5059  0.5423
  590MOL0     H79598   8.145   2.599   4.572  0.0487 -0.7748 -0.6677
  590MOL0     H79599   8.268   2.389   4.517 -1.4806 -0.7645  0.3193
  590MOL0     H79600   8.384   2.519   4.573 -1.6071  1.2149  0.0229
  590MOL0     H79601   8.473   2.540   4.799  0.4067  0.4891 -0.0081
  590MOL0     H79602   8.442   2.308   5.119 -3.3358  0.0470 -2.4731
  590MOL0     H79603   8.597   2.362   5.052  0.5438  0.4693  4.6105
  590MOL0     H79604   8.498   2.607   5.029 -5.4123  4.4914  0.9316
  590MOL0     H79605   8.354   2.544   5.097 -0.8893 -0.4533  1.6354
  590MOL0     H79606   8.621   2.517   5.219 -1.9362 -3.7883  0.0186
  590MOL0     H79607   8.456   2.511   5.296 -2.5992 -0.7803 -2.8849
  590MOL0     H79608   8.416   2.746   5.226 -0.4546  1.6962 -0.4150
  590MOL0     H79609   8.587   2.762   5.185 -0.2780 -0.1146 -0.1852
  590MOL0     H79610   8.559   2.797   5.616 -0.7646 -2.3347 -0.3927
  590MOL0     H79611   8.776   2.855   5.747 -1.3237 -2.8007 -0.5975
  590MOL0     H79612   9.365   2.743   5.601 -0.4551  0.4632 -0.6455
  590MOL0     H79613   9.568   2.821   5.717 -1.4332 -1.4008  2.2095
  590MOL0     H79614   9.668   2.882   5.912  2.9918  0.0935  3.9279
  590MOL0     H79615   9.762   2.960   5.767  3.3958 -0.2555  0.6132
  590MOL0     H79616   9.811   3.155   5.925 -0.3362  1.4909  1.3314
  590MOL0     H79617   9.723   3.063   6.044 -0.2139 -2.6602 -0.2787
  590MOL0     H79618   9.862   2.868   6.011 -1.6072  0.6607 -1.0009
  590MOL0     H79619   9.963   2.956   5.890  1.9765 -0.0718  0.7640
  590MOL0     H79620   9.918   3.049   6.177 -1.2286  0.5060 -0.6572
  590MOL0     H79621  10.034   3.115   6.065 -1.3743  1.1976  0.2609
  590MOL0     H79622  10.141   2.871   6.059  0.0132 -1.5292  1.8409
  590MOL0     H79623  10.013   2.816   6.156 -1.1628  0.0464 -0.2955
  590MOL0     H79624  10.062   2.993   6.325  0.8975  2.9490 -1.7057
  590MOL0     H79625  10.162   2.845   6.322  0.2982 -0.4607 -0.1705
  590MOL0     H79626  10.235   3.113   6.176  2.0162  1.9043  0.8810
  590MOL0     H79627  10.335   2.972   6.206  0.1932  0.8858 -0.6774
  590MOL0     H79628  10.393   3.158   6.380 -0.4310  2.2894  2.4859
  590MOL0     H79629  10.239   3.193   6.421  0.2521 -0.3262 -0.3502
  590MOL0     H79630   9.372   3.198   5.824  1.4029  0.8876 -0.9217
  590MOL0     H79631   9.171   3.111   5.690 -0.2127 -2.5637 -4.3339
  590MOL0     H79632   9.004   2.804   5.396  0.3439  2.0978  0.3635
  590MOL0     H79633   8.787   2.742   5.260 -0.9397 -1.0759 -0.0438
  590MOL0     H79634   7.190   2.413   4.739 -1.4849  0.8163 -1.1842
  590MOL0     H79635   6.972   2.506   4.774 -0.0770 -1.8100  1.0363
  590MOL0     H79636   6.732   2.871   4.851  1.4655 -0.7358  0.6346
  590MOL0     H79637   6.494   2.971   4.869 -0.0320 -0.3912  0.4533
  590MOL0     H79638   6.250   2.970   4.844 -2.7157 -1.1680 -0.2026
  590MOL0     H79639   6.300   3.058   4.976 -1.7412  0.1343  3.7553
  590MOL0     H79640   6.092   2.954   5.110  1.6451  1.6235  0.4125
  590MOL0     H79641   6.023   2.918   4.945  0.0612  2.6004 -1.9953
  590MOL0     H79642   6.017   3.131   4.884  0.6014  1.0649 -0.8833
  590MOL0     H79643   6.104   3.192   5.032  0.6956  0.3134 -1.5422
  590MOL0     H79644   5.840   3.020   5.026 -2.5424  2.4527 -1.6191
  590MOL0     H79645   5.917   3.078   5.176 -3.3554 -2.0323  0.5265
  590MOL0     H79646   5.702   3.417   5.088  0.9302  0.3189  1.3996
  590MOL0     H79647   6.368   2.621   5.067  1.0074 -2.1867 -1.4269
  590MOL0     H79648   6.518   2.424   5.093 -0.2876  0.0297  1.8464
  590MOL0     H79649   6.683   2.425   5.056 -0.1757  0.9938 -2.1600
  590MOL0     H79650   6.641   2.507   5.203  2.6170  1.6967 -1.0753
  591MOL0     O79651   6.735   7.070   4.809  0.1694 -0.8318 -0.4378
  591MOL0     C79652   6.669   7.101   4.911 -0.1321 -0.1025  0.4049
  591MOL0     O79653   6.694   7.199   4.997 -0.2555  0.0981  0.1514
  591MOL0     C79654   6.811   7.265   4.980  0.1636 -0.9184 -0.4592
  591MOL0     C79655   6.930   7.206   5.018 -0.3572  0.5035  0.4719
  591MOL0     C79656   7.049   7.278   5.003 -0.3597  0.9127 -0.2424
  591MOL0     C79657   7.052   7.404   4.944 -0.4352 -0.8318 -0.0815
  591MOL0     O79658   7.168   7.487   4.921 -0.1565 -0.3498  0.2790
  591MOL0     C79659   7.278   7.467   5.004  0.2944  0.2766  0.7609
  591MOL0     C79660   7.374   7.580   4.970  0.6197  0.3994  0.3861
  591MOL0     C79661   7.517   7.567   5.039 -0.5441 -0.2875  0.0886
  591MOL0     C79662   7.587   7.439   4.999  0.3654 -0.6304  0.4106
  591MOL0     C79663   7.730   7.420   5.054 -0.2501 -0.2367  0.2062
  591MOL0     C79664   7.791   7.289   5.002 -0.4966  0.3444 -0.3375
  591MOL0     C79665   7.934   7.276   5.049 -0.1119 -0.0276 -0.6146
  591MOL0     C79666   7.995   7.144   4.993 -0.0707 -0.8258 -0.1358
  591MOL0     N79667   8.141   7.130   5.030 -0.3913  0.5988 -0.0894
  591MOL0     C79668   8.190   7.064   5.136 -1.3900  0.3948  0.3935
  591MOL0     C79669   8.328   7.068   5.126 -0.2801  0.1619  0.5393
  591MOL0     C79670   8.420   7.006   5.223 -0.0017  0.3543  0.2073
  591MOL0     C79671   8.555   7.070   5.223 -1.0350 -0.2683 -0.5504
  591MOL0     C79672   8.674   6.996   5.289 -0.6942  0.3298  0.0576
  591MOL0     C79673   8.781   7.095   5.339 -0.3758 -0.7056  0.4443
  591MOL0     O79674   8.894   7.021   5.382  0.2190  0.3409 -0.4344
  591MOL0     C79675   9.006   7.086   5.403 -1.5030  0.3776 -0.3868
  591MOL0     C79676   9.116   6.995   5.420  0.2484 -0.4522 -0.1335
  591MOL0     C79677   9.247   7.045   5.428 -0.0727  0.5827 -0.4108
  591MOL0     C79678   9.263   7.182   5.423 -0.5440  0.4643  0.3323
  591MOL0     C79679   9.399   7.241   5.428  0.2941 -0.7357 -0.0012
  591MOL0     O79680   9.497   7.148   5.402  0.9101 -0.1541  0.1714
  591MOL0     C79681   9.623   7.195   5.389 -0.3635  0.0091 -0.6279
  591MOL0     C79682   9.668   7.306   5.306  0.4415  0.6383 -0.5300
  591MOL0     C79683   9.790   7.362   5.339  0.2929  0.3265 -0.8186
  591MOL0     C79684   9.884   7.298   5.424  0.0837 -0.1405  0.4937
  591MOL0     O79685  10.013   7.337   5.433  0.8971  0.0729  0.4343
  591MOL0     C79686  10.062   7.452   5.357  0.7462  0.4239  0.8258
  591MOL0     C79687  10.209   7.480   5.400  0.2622 -0.1075 -0.5639
  591MOL0     C79688  10.313   7.397   5.316  0.6057 -0.3695 -0.0443
  591MOL0     C79689  10.420   7.483   5.254  0.9516  0.4168 -0.0404
  591MOL0     C79690  10.519   7.534   5.368  0.4351  0.6411  0.0302
  591MOL0     C79691  10.641   7.588   5.301  0.4105 -0.1506 -0.6976
  591MOL0     C79692  10.732   7.689   5.376  0.1659 -0.0576  0.2573
  591MOL0     C79693  10.759   7.659   5.520  0.3699 -0.2335  0.5064
  591MOL0    Cl79694  10.822   7.815   5.591 -0.2447  0.1363  0.0578
  591MOL0     C79695   9.836   7.192   5.497 -0.0688  0.3025  1.0972
  591MOL0     C79696   9.709   7.133   5.481 -0.5982 -0.3985  0.3523
  591MOL0     O79697   9.413   7.361   5.457  0.5011 -0.1246  0.9127
  591MOL0     C79698   9.160   7.274   5.407  0.0015 -0.3981 -0.1602
  591MOL0     C79699   9.024   7.221   5.396 -0.3629  0.1821 -0.8208
  591MOL0     N79700   8.354   7.146   5.020 -0.0447  0.0333 -0.5326
  591MOL0     N79701   8.244   7.188   4.966  0.0116  0.6077  1.1214
  591MOL0     C79702   6.930   7.464   4.906 -0.5342  0.1814  0.5508
  591MOL0     C79703   6.807   7.392   4.922 -0.4483 -0.4703 -1.0412
  591MOL0     C79704   6.550   7.021   4.944 -0.5201 -0.6668 -0.0503
  591MOL0     C79705   6.488   7.048   5.065  0.2404 -0.8794  0.7651
  591MOL0     C79706   6.380   6.974   5.108  0.0380 -0.6953 -0.1975
  591MOL0     C79707   6.312   6.883   5.031 -0.4368  0.1418  0.2639
  591MOL0     O79708   6.194   6.825   5.049 -0.1807 -0.4624  0.0819
  591MOL0     C79709   6.135   6.813   5.184 -0.6840 -0.0311  0.4194
  591MOL0     C79710   6.003   6.742   5.189 -0.2114 -0.2759  0.8917
  591MOL0     C79711   5.961   6.708   5.335  0.1031  0.2519  0.2053
  591MOL0     C79712   5.840   6.613   5.356 -0.2731 -0.4526 -0.1360
  591MOL0     C79713   5.728   6.665   5.274  0.3009  0.2403 -0.0002
  591MOL0     C79714   5.641   6.713   5.200 -0.2220  0.4559 -0.5199
  591MOL0     C79715   6.363   6.871   4.898 -0.8872  1.2504 -0.5911
  591MOL0     C79716   6.484   6.930   4.858 -0.4923 -1.1466 -0.4725
  591MOL0     C79717   6.531   6.899   4.720 -0.5168 -0.3601 -0.5497
  591MOL0     H79718   6.932   7.106   5.061  3.2868  1.0902  2.0260
  591MOL0     H79719   7.132   7.223   5.045 -0.0799  0.8017 -0.9327
  591MOL0     H79720   7.249   7.490   5.107  1.9581 -1.2748  1.6344
  591MOL0     H79721   7.320   7.366   5.001  1.6045  0.7762  1.4572
  591MOL0     H79722   7.332   7.678   4.993  1.7152  0.9003  0.2687
  591MOL0     H79723   7.383   7.568   4.862 -0.6856 -0.7540  0.3690
  591MOL0     H79724   7.500   7.575   5.147 -1.1077  1.1090 -0.0755
  591MOL0     H79725   7.582   7.648   5.003  0.4897 -1.6715 -1.2571
  591MOL0     H79726   7.530   7.359   5.046  0.8482 -1.4011 -0.2836
  591MOL0     H79727   7.591   7.435   4.889  1.8303  2.2003  0.2492
  591MOL0     H79728   7.801   7.495   5.020  0.8654 -1.2340  0.2800
  591MOL0     H79729   7.731   7.429   5.163  0.7102  2.4254  0.0553
  591MOL0     H79730   7.734   7.200   5.028  0.6193 -0.7236 -1.4035
  591MOL0     H79731   7.798   7.289   4.892  0.4499  2.4155 -0.3327
  591MOL0     H79732   7.930   7.258   5.157 -1.4896  1.5684 -0.3709
  591MOL0     H79733   7.995   7.362   5.019  1.9070 -0.4841  1.8093
  591MOL0     H79734   7.938   7.065   5.042 -1.3471 -0.7447 -1.4266
  591MOL0     H79735   7.982   7.121   4.887  1.8366 -0.7209 -0.4379
  591MOL0     H79736   8.129   7.033   5.220 -2.5938  5.1982  1.5635
  591MOL0     H79737   8.369   7.011   5.320 -0.0436 -0.7244  0.2577
  591MOL0     H79738   8.428   6.905   5.180  0.3530  0.9550 -1.1916
  591MOL0     H79739   8.581   7.086   5.118 -0.1577  1.5936 -0.0818
  591MOL0     H79740   8.526   7.166   5.265 -0.7976  0.6027 -2.2618
  591MOL0     H79741   8.726   6.940   5.210  2.2278  3.7965 -0.7458
  591MOL0     H79742   8.654   6.931   5.374  0.9113 -2.3994 -1.4870
  591MOL0     H79743   8.744   7.166   5.414 -0.3295 -0.9481  0.7009
  591MOL0     H79744   8.808   7.159   5.255 -2.7377  2.1818  1.7170
  591MOL0     H79745   9.108   6.887   5.423  1.6020 -0.5533  1.6607
  591MOL0     H79746   9.333   6.979   5.426 -0.6017 -0.1022 -2.0903
  591MOL0     H79747   9.604   7.349   5.229 -1.6167 -0.4957  0.4560
  591MOL0     H79748   9.816   7.450   5.282  0.2917  0.2800 -0.8918
  591MOL0     H79749  10.056   7.444   5.248  4.1171 -1.2785  0.6313
  591MOL0     H79750  10.019   7.551   5.374  2.6322  1.3128  0.7221
  591MOL0     H79751  10.229   7.585   5.377 -2.2134  1.3189  2.8933
  591MOL0     H79752  10.224   7.464   5.507 -0.2499 -1.4826 -0.6833
  591MOL0     H79753  10.366   7.331   5.387  2.3494  1.0666  0.0473
  591MOL0     H79754  10.263   7.337   5.239 -1.6615 -0.1355  1.1473
  591MOL0     H79755  10.375   7.571   5.207  3.6349  2.5923  1.1883
  591MOL0     H79756  10.472   7.421   5.181 -0.8082 -0.2766 -0.7396
  591MOL0     H79757  10.552   7.451   5.430  0.7405  1.9036  1.6186
  591MOL0     H79758  10.461   7.609   5.424  0.2557  2.2173 -2.1177
  591MOL0     H79759  10.714   7.507   5.287  2.6964  1.8690 -1.3091
  591MOL0     H79760  10.623   7.636   5.204  0.1623  0.2734 -0.4413
  591MOL0     H79761  10.681   7.786   5.372  1.4688  0.7739  2.2269
  591MOL0     H79762  10.830   7.692   5.328  1.7941 -4.0868  2.7458
  591MOL0     H79763  10.669   7.636   5.579 -0.3031  0.0692 -0.3824
  591MOL0     H79764  10.834   7.580   5.531  1.2842  0.6733  0.9691
  591MOL0     H79765   9.912   7.142   5.556 -0.5375  0.6679  2.0295
  591MOL0     H79766   9.670   7.058   5.549 -4.5542  0.8397 -0.2964
  591MOL0     H79767   9.167   7.380   5.384  1.5658 -0.4599 -0.0324
  591MOL0     H79768   8.939   7.286   5.382 -1.9563 -0.8597  2.8278
  591MOL0     H79769   6.919   7.557   4.849 -1.3666 -0.4883 -0.4153
  591MOL0     H79770   6.716   7.446   4.897  0.1433  0.6884 -0.7821
  591MOL0     H79771   6.514   7.139   5.118  0.2000  0.7256 -1.8102
  591MOL0     H79772   6.350   6.991   5.211 -0.5870  0.1563 -0.5105
  591MOL0     H79773   6.137   6.908   5.238  1.7788  1.4073 -1.9315
  591MOL0     H79774   6.206   6.753   5.241  0.2683 -1.5188 -2.1362
  591MOL0     H79775   6.016   6.644   5.143  0.8428  0.4527 -0.4276
  591MOL0     H79776   5.931   6.800   5.131  0.0305 -0.0630  0.8016
  591MOL0     H79777   5.944   6.806   5.381 -2.5386  0.2274 -0.5643
  591MOL0     H79778   6.045   6.662   5.388 -0.1745 -0.6437 -0.1138
  591MOL0     H79779   5.877   6.512   5.336  1.9092  0.4447 -0.9297
  591MOL0     H79780   5.820   6.614   5.463  0.6899 -2.9785  0.1406
  591MOL0     H79781   5.562   6.755   5.141 -1.5947 -1.8138 -0.4217
  591MOL0     H79782   6.320   6.810   4.819  0.2530 -0.0762 -0.2147
  591MOL0     H79783   6.531   6.984   4.652  3.4445  2.6169  2.6672
  591MOL0     H79784   6.634   6.863   4.730 -0.8047 -0.5676  3.5522
  591MOL0     H79785   6.475   6.816   4.675 -0.5663  0.4173 -1.9742
  592MOL0     O79786  10.001   1.198  10.003  0.2488 -0.5060  0.1686
  592MOL0     C79787   9.967   1.284   9.919  1.2616  1.0006 -0.1522
  592MOL0     O79788  10.045   1.318   9.815 -0.1709  0.0145  0.4925
  592MOL0     C79789  10.174   1.275   9.819  0.1192  0.8438  0.3934
  592MOL0     C79790  10.281   1.333   9.884  0.5894 -0.2891  0.0309
  592MOL0     C79791  10.404   1.276   9.883  0.0235 -0.3701  0.3905
  592MOL0     C79792  10.432   1.154   9.829 -0.5881  0.3418  0.2106
  592MOL0     O79793  10.560   1.108   9.821 -0.5203 -0.5143  0.0847
  592MOL0     C79794  10.582   0.981   9.751  0.0574  0.1097 -0.3554
  592MOL0     C79795  10.733   0.954   9.765 -0.1552 -0.9050  0.7980
  592MOL0     C79796  10.823   1.066   9.707  0.0728  0.7745 -0.3103
  592MOL0     C79797  10.804   1.124   9.567  0.2652 -0.8862 -0.3861
  592MOL0     C79798  10.923   1.202   9.516 -0.8434 -0.4797  0.9353
  592MOL0     C79799  10.902   1.269   9.376  0.4612  0.8367  0.3467
  592MOL0     C79800  11.018   1.359   9.331 -0.4516 -0.0429  0.2722
  592MOL0     C79801  11.132   1.274   9.273  0.1373 -0.1563  0.2807
  592MOL0     N79802  11.259   1.339   9.249  0.7837 -0.0729 -0.2841
  592MOL0     C79803  11.261   1.459   9.181  0.1073 -0.0557 -1.7697
  592MOL0     C79804  11.395   1.479   9.154  0.0274 -0.7832 -1.2763
  592MOL0     C79805  11.467   1.598   9.093 -0.1898  1.0555  0.0831
  592MOL0     C79806  11.521   1.591   8.950  0.8099 -0.4653  0.3352
  592MOL0     C79807  11.539   1.728   8.890 -0.7461 -0.3274  0.2224
  592MOL0     C79808  11.591   1.727   8.737 -0.8412  0.2010  0.1689
  592MOL0     O79809  11.598   1.861   8.687 -0.9200  0.2438  0.9791
  592MOL0     C79810  11.703   1.901   8.601  0.0977  0.2772 -0.5428
  592MOL0     C79811  11.781   1.809   8.527  1.0974 -0.5312  0.3972
  592MOL0     C79812  11.886   1.847   8.443  0.4548 -0.0623 -0.9345
  592MOL0     C79813  11.914   1.989   8.437 -0.4911  0.7520 -0.8816
  592MOL0     C79814  12.027   2.026   8.355  0.5720  0.6850 -0.2427
  592MOL0     O79815  12.047   1.955   8.234  0.7285  0.0483 -0.8854
  592MOL0     C79816  12.177   1.901   8.208 -0.2758 -0.5335 -0.3860
  592MOL0     C79817  12.288   1.911   8.298 -0.6668 -0.4269  1.1522
  592MOL0     C79818  12.398   1.828   8.281 -0.2774  0.8741 -0.2398
  592MOL0     C79819  12.412   1.744   8.168  0.2001 -0.5868  0.2677
  592MOL0     O79820  12.527   1.671   8.162 -0.2022 -0.6101  0.1653
  592MOL0     C79821  12.542   1.581   8.050  0.2413 -0.2245 -0.2713
  592MOL0     C79822  12.688   1.555   8.038  0.1169  0.9441 -0.1643
  592MOL0     C79823  12.740   1.474   8.156 -0.0087 -0.7448  0.0194
  592MOL0     C79824  12.884   1.518   8.185 -0.2718  1.4376  0.3402
  592MOL0     C79825  12.939   1.437   8.301  0.9861  0.7485  0.8427
  592MOL0     C79826  13.096   1.444   8.310  0.2814 -0.2486  0.0745
  592MOL0     C79827  13.141   1.311   8.367  0.3668 -0.0258 -0.6033
  592MOL0     C79828  13.300   1.303   8.375 -0.4459 -0.6537  0.0029
  592MOL0    Cl79829  13.315   1.134   8.439 -0.3808  0.3154  0.4130
  592MOL0     C79830  12.300   1.741   8.085 -0.2184 -0.8242  0.5014
  592MOL0     C79831  12.179   1.807   8.110  0.1554 -0.3870  0.1812
  592MOL0     O79832  12.095   2.119   8.396 -0.0811 -0.4554  0.6730
  592MOL0     C79833  11.857   2.078   8.531 -0.0368 -0.5218 -0.6107
  592MOL0     C79834  11.751   2.032   8.611  0.1607  0.2506 -0.4362
  592MOL0     N79835  11.467   1.367   9.192  0.2856  0.4719 -0.0712
  592MOL0     N79836  11.378   1.284   9.240 -0.5106 -0.4170  0.4615
  592MOL0     C79837  10.320   1.080   9.775  0.9208  0.2556  0.5653
  592MOL0     C79838  10.194   1.143   9.761  0.6619  0.4640 -1.1614
  592MOL0     C79839   9.833   1.341   9.949  0.3289  0.0591 -1.0251
  592MOL0     C79840   9.824   1.478   9.912 -0.3870  0.3188  1.1058
  592MOL0     C79841   9.692   1.535   9.910  0.4925  0.3852  0.2945
  592MOL0     C79842   9.578   1.473   9.960  0.4020 -0.5002  0.6512
  592MOL0     O79843   9.455   1.537   9.956 -0.0966 -0.4537 -0.5848
  592MOL0     C79844   9.364   1.542   9.850  0.9079 -0.4006  0.0695
  592MOL0     C79845   9.384   1.647   9.749  0.3462 -0.4602 -0.1404
  592MOL0     C79846   9.368   1.783   9.804 -0.3905 -0.3370  0.7807
  592MOL0     C79847   9.454   1.893   9.729 -0.2961 -0.0460  0.2159
  592MOL0     C79848   9.434   2.020   9.812  0.3572  0.0884 -0.9946
  592MOL0     C79849   9.407   2.116   9.880 -0.1830  0.5698 -1.0964
  592MOL0     C79850   9.593   1.337  10.003  0.1757  0.6025 -0.3319
  592MOL0     C79851   9.717   1.271   9.994 -0.8951 -0.7870  0.1016
  592MOL0     C79852   9.724   1.129  10.039 -0.0331 -0.1697  0.3076
  592MOL0     H79853  10.262   1.423   9.942  1.2381  0.2432 -0.5705
  592MOL0     H79854  10.494   1.327   9.918  0.5240 -0.8770 -0.1373
  592MOL0     H79855  10.527   0.894   9.787 -3.1776  1.3570 -1.8007
  592MOL0     H79856  10.549   1.001   9.648 -4.3814  3.2530  1.3219
  592MOL0     H79857  10.758   0.863   9.710  0.5695 -2.1051  2.9585
  592MOL0     H79858  10.755   0.923   9.868 -1.2314 -0.3349  1.2125
  592MOL0     H79859  10.918   1.011   9.704 -0.3091  0.1403 -2.9197
  592MOL0     H79860  10.820   1.147   9.781  0.7942 -2.4183  3.6184
  592MOL0     H79861  10.782   1.049   9.490  0.2544  0.9145 -2.2258
  592MOL0     H79862  10.721   1.196   9.574 -1.2858 -2.6883  5.0073
  592MOL0     H79863  10.961   1.274   9.589 -0.5655  1.8051 -1.3307
  592MOL0     H79864  10.999   1.125   9.498 -1.1653 -0.3983 -0.9276
  592MOL0     H79865  10.876   1.195   9.300 -2.2839  1.2772  0.7555
  592MOL0     H79866  10.811   1.331   9.380  0.0329  0.5823 -2.6933
  592MOL0     H79867  11.050   1.424   9.413 -2.7413  1.1220  0.3380
  592MOL0     H79868  10.990   1.430   9.253  0.5288 -0.8898 -0.9048
  592MOL0     H79869  11.155   1.188   9.337  0.1390 -0.2820  0.1116
  592MOL0     H79870  11.102   1.236   9.175 -1.9923 -0.7277  1.1165
  592MOL0     H79871  11.179   1.530   9.167  1.2935  1.6664 -0.3869
  592MOL0     H79872  11.408   1.690   9.094  1.9589  2.5390 -0.5377
  592MOL0     H79873  11.558   1.610   9.153 -0.4396  0.3116  0.6138
  592MOL0     H79874  11.619   1.541   8.949  1.6816  1.1519 -0.1031
  592MOL0     H79875  11.446   1.538   8.891  0.2084  1.3865 -0.6613
  592MOL0     H79876  11.617   1.771   8.953 -0.1920  0.3398 -0.8761
  592MOL0     H79877  11.449   1.790   8.894 -1.3420 -1.1255 -0.4592
  592MOL0     H79878  11.525   1.659   8.683  0.7375 -2.2526  1.1760
  592MOL0     H79879  11.686   1.678   8.715 -2.1660 -1.9245 -1.1059
  592MOL0     H79880  11.759   1.703   8.529  0.8201 -0.4590  1.3201
  592MOL0     H79881  11.941   1.770   8.391  0.1347 -0.8115 -0.1939
  592MOL0     H79882  12.296   1.984   8.379  0.9195 -0.5036  1.0775
  592MOL0     H79883  12.480   1.840   8.352 -0.8327 -3.0108  1.3192
  592MOL0     H79884  12.492   1.485   8.064  0.2812 -0.1120  0.7164
  592MOL0     H79885  12.503   1.624   7.957 -0.3418 -0.5702 -0.1931
  592MOL0     H79886  12.717   1.505   7.945 -1.8194 -0.5719 -0.0241
  592MOL0     H79887  12.735   1.654   8.044  1.4331  0.3341 -0.0181
  592MOL0     H79888  12.681   1.494   8.246 -2.6909  1.5601 -2.0810
  592MOL0     H79889  12.737   1.367   8.133 -2.7746 -0.3828 -1.6640
  592MOL0     H79890  12.884   1.622   8.221 -0.9885  1.6021 -0.1071
  592MOL0     H79891  12.943   1.515   8.093  0.4139  5.0886  0.4986
  592MOL0     H79892  12.915   1.331   8.289  2.0456  0.7457 -1.9211
  592MOL0     H79893  12.891   1.481   8.389 -1.0930  2.1486 -0.8997
  592MOL0     H79894  13.128   1.436   8.206  0.3767  2.9103 -0.2452
  592MOL0     H79895  13.138   1.535   8.354  0.3719  0.4312 -1.3493
  592MOL0     H79896  13.110   1.227   8.304  0.1439  0.2642 -0.8830
  592MOL0     H79897  13.106   1.295   8.469 -0.4124  2.2551 -0.4699
  592MOL0     H79898  13.361   1.316   8.286  1.7726 -1.2941  1.3634
  592MOL0     H79899  13.344   1.371   8.448  1.7600  1.1472 -2.7998
  592MOL0     H79900  12.309   1.699   7.986  2.2258  0.7549 -0.0340
  592MOL0     H79901  12.092   1.790   8.047 -0.5085  1.4979  0.5247
  592MOL0     H79902  11.889   2.182   8.537 -0.5879 -0.4113  0.8776
  592MOL0     H79903  11.705   2.101   8.682  1.3659  1.8890 -1.1810
  592MOL0     H79904  10.324   0.986   9.720 -0.8588 -0.2919  1.3036
  592MOL0     H79905  10.121   1.084   9.707 -0.5526  0.6678  0.2112
  592MOL0     H79906   9.902   1.541   9.872 -1.1149 -1.0046 -2.9220
  592MOL0     H79907   9.695   1.634   9.866  5.3382  0.8156  1.0871
  592MOL0     H79908   9.261   1.545   9.886  1.0721 -1.1047  0.6228
  592MOL0     H79909   9.384   1.454   9.788  2.3906  0.7412 -1.1687
  592MOL0     H79910   9.307   1.631   9.673  0.2022  1.4932 -0.4515
  592MOL0     H79911   9.484   1.635   9.706  1.6306  1.5977  1.9835
  592MOL0     H79912   9.414   1.782   9.903 -1.8201  2.9156  1.5960
  592MOL0     H79913   9.264   1.815   9.811 -0.2475  0.1339  0.7364
  592MOL0     H79914   9.558   1.860   9.717 -1.4343 -4.1087 -0.1482
  592MOL0     H79915   9.415   1.915   9.630 -0.6755 -1.1649  0.1062
  592MOL0     H79916   9.391   2.199   9.946 -2.3095  0.3557 -1.2728
  592MOL0     H79917   9.510   1.292  10.056  2.3938 -1.3438  1.7242
  592MOL0     H79918   9.788   1.079   9.965 -0.5624 -0.7913  0.2612
  592MOL0     H79919   9.765   1.122  10.141 -2.6913 -1.1605  1.3924
  592MOL0     H79920   9.622   1.090  10.039 -0.4949  0.3441  5.2441
  593MOL0     O79921   3.111   4.691   8.390  0.1866  0.2805  0.5979
  593MOL0     C79922   3.199   4.605   8.396  0.1411 -0.3376 -0.1872
  593MOL0     O79923   3.184   4.486   8.333  0.9512  0.4251  0.2644
  593MOL0     C79924   3.079   4.460   8.242 -0.9408 -0.5369 -0.0574
  593MOL0     C79925   2.950   4.529   8.234 -0.6649  0.1248  0.1175
  593MOL0     C79926   2.867   4.514   8.116  0.3124  0.0555 -0.9094
  593MOL0     C79927   2.889   4.398   8.031  0.5910 -0.0364 -0.0689
  593MOL0     O79928   2.791   4.365   7.945 -0.7314 -0.3686 -0.4623
  593MOL0     C79929   2.768   4.222   7.911  0.7851 -0.6733  0.2071
  593MOL0     C79930   2.652   4.159   7.986  0.8187  0.0177 -0.7893
  593MOL0     C79931   2.522   4.231   7.968  0.2813 -0.1855  0.9533
  593MOL0     C79932   2.404   4.187   8.058 -1.2204  0.0666 -0.2897
  593MOL0     C79933   2.278   4.262   8.044 -0.1305 -0.0130 -1.1141
  593MOL0     C79934   2.203   4.264   8.165  0.3354  0.5493  0.5264
  593MOL0     C79935   2.060   4.269   8.127  1.0302  0.2848  0.0400
  593MOL0     C79936   1.959   4.264   8.241 -0.5950  0.9480  0.4798
  593MOL0     N79937   1.961   4.143   8.330 -0.4834  0.1754  0.4683
  593MOL0     C79938   1.980   4.008   8.290  1.2721  0.8565 -0.3766
  593MOL0     C79939   1.938   3.937   8.392 -0.2197 -0.3896 -0.5285
  593MOL0     C79940   1.922   3.785   8.405 -0.4129  0.6854  0.6977
  593MOL0     C79941   2.057   3.716   8.377 -0.4584 -0.4848 -0.2027
  593MOL0     C79942   2.136   3.708   8.504 -0.9566  0.1751 -0.2662
  593MOL0     C79943   2.286   3.675   8.473 -0.7331  0.3585  0.5534
  593MOL0     O79944   2.302   3.597   8.360  0.0668 -0.0080  1.0883
  593MOL0     C79945   2.416   3.522   8.342  1.0113 -0.0119 -0.5037
  593MOL0     C79946   2.535   3.533   8.417  0.2159  0.3405  0.3595
  593MOL0     C79947   2.645   3.470   8.383 -0.2382 -0.5543  0.1509
  593MOL0     C79948   2.644   3.383   8.266  0.5287  0.3843  0.5400
  593MOL0     C79949   2.774   3.323   8.218  0.3364  0.2251  0.1089
  593MOL0     O79950   2.879   3.299   8.304  0.5253 -0.5163  0.0856
  593MOL0     C79951   3.002   3.302   8.245  0.8736 -0.4825 -0.4526
  593MOL0     C79952   3.071   3.183   8.227  0.1254  0.6719 -0.0297
  593MOL0     C79953   3.207   3.172   8.209 -0.6664 -0.4066  0.1819
  593MOL0     C79954   3.282   3.286   8.203  0.1642 -0.4127  0.6634
  593MOL0     O79955   3.412   3.276   8.191 -0.1080 -0.1807  0.1610
  593MOL0     C79956   3.491   3.337   8.296 -0.2348 -0.1594 -0.3274
  593MOL0     C79957   3.630   3.354   8.245 -1.2500 -0.4721  0.5544
  593MOL0     C79958   3.724   3.420   8.343 -0.0458  0.6609  0.2883
  593MOL0     C79959   3.776   3.338   8.463  0.5703  0.7268  0.2785
  593MOL0     C79960   3.862   3.421   8.553  0.1170 -0.4648 -0.0137
  593MOL0     C79961   3.961   3.330   8.631 -0.4222  0.1665 -0.7679
  593MOL0     C79962   4.049   3.410   8.732  0.5372 -0.5706  0.5870
  593MOL0     C79963   3.977   3.500   8.833  0.4189  0.1922 -0.0706
  593MOL0    Cl79964   3.857   3.388   8.914  0.1904 -0.0012  0.0834
  593MOL0     C79965   3.218   3.414   8.221  0.8472  0.0900  0.7436
  593MOL0     C79966   3.078   3.422   8.246 -0.6357  0.4178 -0.3336
  593MOL0     O79967   2.771   3.276   8.107 -0.0568  0.4325  0.2090
  593MOL0     C79968   2.520   3.370   8.196 -0.5234 -0.1894 -0.3031
  593MOL0     C79969   2.407   3.430   8.244 -0.3394 -0.0418 -0.5688
  593MOL0     N79970   1.902   4.026   8.498  0.2181  0.1130 -0.0198
  593MOL0     N79971   1.908   4.146   8.454  0.4719 -0.4289  0.0207
  593MOL0     C79972   3.009   4.332   8.061  0.8468 -0.5246  0.0194
  593MOL0     C79973   3.111   4.355   8.150 -0.1230 -0.0063 -0.2933
  593MOL0     C79974   3.320   4.618   8.489 -0.6338 -0.1123  0.1152
  593MOL0     C79975   3.438   4.543   8.452  1.1522  1.2136 -0.0955
  593MOL0     C79976   3.555   4.554   8.517 -0.1604 -0.1155 -0.5812
  593MOL0     C79977   3.567   4.638   8.638  0.2051  0.7689 -0.4449
  593MOL0     O79978   3.693   4.643   8.692 -0.7522 -0.6403 -0.6786
  593MOL0     C79979   3.726   4.713   8.810  1.1009  0.0273 -0.0915
  593MOL0     C79980   3.861   4.674   8.861  0.0286 -0.4742  0.8775
  593MOL0     C79981   3.986   4.721   8.774  0.1771  0.1697  0.3369
  593MOL0     C79982   4.107   4.641   8.827  0.2550  0.1373  0.2656
  593MOL0     C79983   4.232   4.699   8.774 -0.8270 -0.7744  0.1687
  593MOL0     C79984   4.347   4.749   8.763  0.2814 -0.2244 -0.5530
  593MOL0     C79985   3.450   4.707   8.676  0.9542 -0.8232  0.3055
  593MOL0     C79986   3.329   4.697   8.607  0.4219  0.1926 -0.1956
  593MOL0     C79987   3.204   4.764   8.666  0.5876  0.5896  0.4060
  593MOL0     H79988   2.910   4.592   8.314 -0.6166 -1.3398  1.3350
  593MOL0     H79989   2.773   4.568   8.112  1.0705  1.6775  1.1017
  593MOL0     H79990   2.740   4.206   7.806  0.4601 -0.3500  0.2410
  593MOL0     H79991   2.860   4.168   7.931  2.2235  2.3613  2.5252
  593MOL0     H79992   2.672   4.163   8.093 -0.2390  0.4639 -0.5898
  593MOL0     H79993   2.622   4.060   7.950 -2.5279  0.7415 -0.3104
  593MOL0     H79994   2.495   4.232   7.862 -0.8863  2.8788  1.1792
  593MOL0     H79995   2.539   4.335   7.996 -1.8012 -0.3192  2.9573
  593MOL0     H79996   2.383   4.083   8.034  1.0589 -0.4891 -0.1356
  593MOL0     H79997   2.432   4.191   8.164 -0.6136  0.1375 -0.4482
  593MOL0     H79998   2.290   4.370   8.035  0.8595 -0.1725 -1.7874
  593MOL0     H79999   2.222   4.222   7.960 -0.0445 -0.2094 -1.0778
  593MOL0     H80000   2.212   4.167   8.214 -1.8413 -1.4289 -2.6231
  593MOL0     H80001   2.234   4.339   8.239  3.2909  0.8049 -0.8208
  593MOL0     H80002   2.031   4.194   8.052  0.8654  0.5457 -0.1617
  593MOL0     H80003   2.041   4.359   8.068 -2.0092 -0.0752  0.2921
  593MOL0     H80004   1.962   4.353   8.304 -1.4942 -0.3973  2.5526
  593MOL0     H80005   1.864   4.276   8.189 -0.5964  1.0132  0.4968
  593MOL0     H80006   2.019   3.967   8.198  0.0489 -0.0090 -0.5146
  593MOL0     H80007   1.877   3.757   8.500 -2.5390 -0.9554 -0.6926
  593MOL0     H80008   1.852   3.755   8.326  0.2681  1.1241 -0.0937
  593MOL0     H80009   2.043   3.613   8.344 -0.2602 -1.0196  1.2705
  593MOL0     H80010   2.111   3.782   8.308 -0.4656 -0.5083 -0.2308
  593MOL0     H80011   2.100   3.625   8.567  0.5010  0.0063  0.3919
  593MOL0     H80012   2.132   3.806   8.553 -0.6017  0.1043 -0.0938
  593MOL0     H80013   2.325   3.628   8.564 -1.9323  1.0030  1.4375
  593MOL0     H80014   2.338   3.770   8.460  0.1372 -0.1483  0.2897
  593MOL0     H80015   2.535   3.605   8.499  1.8916 -1.1235  1.7036
  593MOL0     H80016   2.733   3.488   8.443 -1.2592  0.9554  1.2709
  593MOL0     H80017   3.019   3.090   8.246 -1.8737  1.6143 -0.6042
  593MOL0     H80018   3.269   3.085   8.192 -0.5221  0.1890 -2.8043
  593MOL0     H80019   3.463   3.441   8.311  2.3243  0.4823  0.3705
  593MOL0     H80020   3.486   3.275   8.387 -2.9188  1.9392  1.1298
  593MOL0     H80021   3.670   3.256   8.217 -1.5070 -1.5659  3.6783
  593MOL0     H80022   3.628   3.419   8.156 -0.9047  1.3517  1.8217
  593MOL0     H80023   3.811   3.457   8.287 -0.2292  1.8023  0.7323
  593MOL0     H80024   3.674   3.512   8.374  1.4429  1.7511 -0.4230
  593MOL0     H80025   3.834   3.249   8.435 -2.3677 -1.5494  0.9350
  593MOL0     H80026   3.692   3.307   8.526  1.1409 -0.0488  0.6723
  593MOL0     H80027   3.800   3.477   8.624  1.3645 -2.2539  2.6335
  593MOL0     H80028   3.916   3.497   8.496 -0.3431  0.3374  0.5936
  593MOL0     H80029   3.906   3.258   8.692  4.6578 -1.4042  2.6023
  593MOL0     H80030   4.030   3.270   8.571 -1.0500 -1.4099  0.0124
  593MOL0     H80031   4.109   3.481   8.675 -0.3484 -0.1343  0.1821
  593MOL0     H80032   4.122   3.341   8.776  2.6473  0.7635 -0.6427
  593MOL0     H80033   4.038   3.543   8.913  0.9740  1.8196 -1.3085
  593MOL0     H80034   3.921   3.583   8.788  2.9788  0.9809 -2.0626
  593MOL0     H80035   3.278   3.504   8.209  0.5354  0.2745  0.5196
  593MOL0     H80036   3.040   3.524   8.245  1.5004  1.3242  1.7091
  593MOL0     H80037   2.501   3.316   8.104 -1.6542 -1.7212  0.7682
  593MOL0     H80038   2.311   3.416   8.194 -1.1630  2.2653  0.2160
  593MOL0     H80039   3.038   4.245   8.004  3.2649 -1.0755  1.9263
  593MOL0     H80040   3.206   4.302   8.148  1.9848  3.3000  1.7259
  593MOL0     H80041   3.438   4.482   8.363  0.8616  3.6916 -1.8963
  593MOL0     H80042   3.637   4.499   8.473  0.6821  1.3934 -0.9438
  593MOL0     H80043   3.654   4.687   8.888  0.6279 -3.0530 -1.4297
  593MOL0     H80044   3.720   4.821   8.790  2.8507  0.1596 -0.0702
  593MOL0     H80045   3.857   4.565   8.853  0.0375 -0.3537 -1.5742
  593MOL0     H80046   3.865   4.719   8.961 -3.7466 -0.4474  1.1710
  593MOL0     H80047   4.010   4.827   8.787  0.8464  0.0718 -0.0131
  593MOL0     H80048   3.973   4.698   8.668  4.2480  2.4608 -0.8877
  593MOL0     H80049   4.090   4.646   8.935  1.6843 -0.4296  0.5447
  593MOL0     H80050   4.104   4.534   8.804  0.4423  0.2837 -0.4508
  593MOL0     H80051   4.444   4.794   8.760  0.2494 -0.1649 -3.2426
  593MOL0     H80052   3.445   4.773   8.762 -1.7030  0.5565 -0.8140
  593MOL0     H80053   3.226   4.854   8.724  0.7559  0.2960  0.8026
  593MOL0     H80054   3.137   4.806   8.590  1.3095  1.8732  0.4622
  593MOL0     H80055   3.152   4.697   8.735  3.2892  1.0359  3.0603
  594MOL0     O80056  10.243   6.760   9.117 -0.6570  0.1406 -0.1745
  594MOL0     C80057  10.312   6.657   9.110  0.1110  0.3026 -0.7651
  594MOL0     O80058  10.261   6.535   9.073 -0.0920 -0.0212  0.3727
  594MOL0     C80059  10.126   6.525   9.049 -0.6612  0.4597 -0.3185
  594MOL0     C80060  10.040   6.438   9.118 -0.1263  0.4066  0.0822
  594MOL0     C80061   9.905   6.420   9.085 -0.8744 -0.5976 -0.1444
  594MOL0     C80062   9.852   6.491   8.980 -0.6887 -0.4034  1.3469
  594MOL0     O80063   9.725   6.460   8.943 -0.4901  0.4660 -0.0136
  594MOL0     C80064   9.662   6.523   8.831 -0.0411  0.1225  0.3734
  594MOL0     C80065   9.518   6.476   8.823  0.1092  0.1496  0.5417
  594MOL0     C80066   9.446   6.518   8.693  0.0223 -0.4511  0.5009
  594MOL0     C80067   9.388   6.659   8.693 -0.7168  0.4726  0.4769
  594MOL0     C80068   9.332   6.699   8.558 -0.6814  0.2185 -0.0835
  594MOL0     C80069   9.309   6.855   8.552 -0.5205  0.0321  0.1808
  594MOL0     C80070   9.270   6.906   8.409 -0.1357 -0.3399 -0.8466
  594MOL0     C80071   9.204   7.042   8.415  0.5473  0.2077  0.0412
  594MOL0     N80072   9.282   7.147   8.475 -0.3750  0.3844  0.3635
  594MOL0     C80073   9.371   7.225   8.405 -0.4708  0.0899 -0.4023
  594MOL0     C80074   9.391   7.328   8.496 -0.5432  0.3618 -0.8790
  594MOL0     C80075   9.478   7.440   8.461  0.2009  0.8346 -0.0596
  594MOL0     C80076   9.602   7.457   8.548 -0.0338 -0.1668 -0.7251
  594MOL0     C80077   9.677   7.573   8.485 -0.5403  0.4375 -0.0010
  594MOL0     C80078   9.825   7.586   8.533  0.0944 -0.2209 -0.1089
  594MOL0     O80079   9.896   7.480   8.481  0.7473 -0.3677  0.1858
  594MOL0     C80080  10.029   7.470   8.501  0.8306 -0.0665 -0.4409
  594MOL0     C80081  10.096   7.376   8.431 -0.2325  0.2225  0.6820
  594MOL0     C80082  10.233   7.358   8.443 -0.3344 -0.5273  0.4561
  594MOL0     C80083  10.310   7.452   8.516  0.5289  0.5720 -0.4818
  594MOL0     C80084  10.456   7.436   8.522  0.6221 -0.6115  0.0578
  594MOL0     O80085  10.514   7.314   8.496  0.3676  0.0368  0.7594
  594MOL0     C80086  10.651   7.310   8.481  0.0229  0.1719 -0.4737
  594MOL0     C80087  10.718   7.207   8.550  0.8900 -0.0117 -0.3893
  594MOL0     C80088  10.858   7.185   8.548 -0.1417  0.3788 -0.0462
  594MOL0     C80089  10.932   7.268   8.473 -0.5128 -0.6916 -0.6168
  594MOL0     O80090  11.069   7.242   8.458  0.0996 -0.4375 -0.2716
  594MOL0     C80091  11.104   7.112   8.418  0.5772 -0.0205  0.1485
  594MOL0     C80092  11.260   7.111   8.421 -0.1911  0.0274  0.0162
  594MOL0     C80093  11.318   7.084   8.569 -1.2756 -0.6872  0.1649
  594MOL0     C80094  11.459   7.018   8.567 -0.7253 -0.9905  0.5034
  594MOL0     C80095  11.518   7.016   8.708  0.1892  0.1557  0.5173
  594MOL0     C80096  11.663   6.958   8.708  0.0739 -0.3732  0.9366
  594MOL0     C80097  11.710   6.909   8.850 -1.0097 -0.3314 -0.4818
  594MOL0     C80098  11.833   6.815   8.852  0.2453 -0.3338  0.1130
  594MOL0    Cl80099  11.991   6.894   8.819  0.5450  0.0237  0.1905
  594MOL0     C80100  10.874   7.364   8.389 -0.6047 -0.6172  0.0551
  594MOL0     C80101  10.734   7.384   8.395 -0.5103 -0.5489  0.0587
  594MOL0     O80102  10.520   7.538   8.554 -0.2557  0.1889 -0.3690
  594MOL0     C80103  10.244   7.561   8.588 -0.4039 -0.3143 -0.4136
  594MOL0     C80104  10.102   7.565   8.578  0.1311 -0.3675 -0.4530
  594MOL0     N80105   9.316   7.300   8.609  0.2366 -0.7671  0.6367
  594MOL0     N80106   9.257   7.192   8.602  0.2682  0.2152  0.0611
  594MOL0     C80107   9.936   6.572   8.901 -0.1269 -0.4743 -0.5637
  594MOL0     C80108  10.074   6.584   8.938  0.4399 -0.5727  0.2647
  594MOL0     C80109  10.457   6.658   9.141  0.5428  1.0133  1.1249
  594MOL0     C80110  10.534   6.568   9.058 -0.1274  0.5163 -0.2895
  594MOL0     C80111  10.675   6.566   9.070 -0.0072  0.5877  0.1830
  594MOL0     C80112  10.739   6.654   9.164  0.1534  1.0711  0.0295
  594MOL0     O80113  10.866   6.672   9.180 -0.2416  0.4222 -0.7369
  594MOL0     C80114  10.964   6.597   9.109 -0.3554 -0.5431 -0.4714
  594MOL0     C80115  11.103   6.632   9.157 -0.5847  0.1435 -0.6588
  594MOL0     C80116  11.143   6.781   9.171 -0.2755 -0.3938  0.9297
  594MOL0     C80117  11.301   6.797   9.173 -0.4477  0.4205 -0.0041
  594MOL0     C80118  11.368   6.708   9.267 -0.0451  0.5707  0.3739
  594MOL0     C80119  11.400   6.640   9.360 -0.2043 -0.6673  0.0593
  594MOL0     C80120  10.669   6.736   9.239  0.1662  0.1549 -0.9085
  594MOL0     C80121  10.529   6.740   9.229  0.2444  0.0428 -0.3323
  594MOL0     C80122  10.467   6.841   9.318  1.3780  0.1432 -0.5783
  594MOL0     H80123  10.069   6.381   9.205 -0.2245  2.9014  1.8720
  594MOL0     H80124   9.842   6.338   9.117  0.2981 -3.1715 -3.8621
  594MOL0     H80125   9.642   6.630   8.845 -1.6712 -0.3371  1.9723
  594MOL0     H80126   9.711   6.499   8.736 -2.3950  0.5034 -1.0326
  594MOL0     H80127   9.467   6.507   8.915  2.8120  0.7734  1.9249
  594MOL0     H80128   9.515   6.367   8.825 -2.2788  0.1578  0.7869
  594MOL0     H80129   9.360   6.453   8.673  2.5411 -3.6247 -0.9522
  594MOL0     H80130   9.522   6.506   8.615 -2.8366 -1.5535 -2.3143
  594MOL0     H80131   9.310   6.659   8.770  0.0991 -0.0679  1.3352
  594MOL0     H80132   9.469   6.725   8.727 -1.3318  0.2055  2.5787
  594MOL0     H80133   9.397   6.669   8.475  0.0148  3.6531 -0.9312
  594MOL0     H80134   9.236   6.647   8.557  0.1592 -1.4133 -1.2230
  594MOL0     H80135   9.243   6.882   8.635  1.9781 -2.1966  3.1553
  594MOL0     H80136   9.412   6.891   8.564  0.7872 -2.9084 -1.0614
  594MOL0     H80137   9.194   6.838   8.368 -0.7705 -0.3713  0.3332
  594MOL0     H80138   9.352   6.903   8.337  1.7654  2.7210  1.0038
  594MOL0     H80139   9.167   7.086   8.322 -0.3330  1.3400  0.8839
  594MOL0     H80140   9.115   7.026   8.476 -0.3583  0.6705 -1.1118
  594MOL0     H80141   9.407   7.222   8.303 -2.9085  0.9529 -1.3414
  594MOL0     H80142   9.510   7.423   8.358  1.5076  0.3026  0.4078
  594MOL0     H80143   9.411   7.526   8.468 -0.2965  0.4825 -0.4047
  594MOL0     H80144   9.570   7.480   8.649  1.4464 -0.7418 -0.0894
  594MOL0     H80145   9.663   7.366   8.546 -1.5964 -1.3411  1.7665
  594MOL0     H80146   9.623   7.662   8.519 -1.5702  0.7673 -2.2951
  594MOL0     H80147   9.674   7.568   8.376 -1.2980  1.2082 -0.0277
  594MOL0     H80148   9.819   7.576   8.642 -0.9163  1.6004  0.0395
  594MOL0     H80149   9.862   7.687   8.515 -1.6003  0.2400 -1.2704
  594MOL0     H80150  10.037   7.312   8.366  0.0235 -0.5712  1.2262
  594MOL0     H80151  10.288   7.282   8.388  0.1672  0.5678 -0.6318
  594MOL0     H80152  10.656   7.137   8.605  1.4258  0.2764  0.6014
  594MOL0     H80153  10.903   7.105   8.606 -2.5229 -0.1014  1.2681
  594MOL0     H80154  11.060   7.046   8.492 -1.2117  1.6329  0.6432
  594MOL0     H80155  11.062   7.081   8.321  0.5544 -0.3927  0.2750
  594MOL0     H80156  11.302   7.035   8.354 -0.0660  1.1321 -1.2068
  594MOL0     H80157  11.291   7.212   8.392 -2.8719  0.7493 -0.6157
  594MOL0     H80158  11.306   7.173   8.632  0.2869  2.7357 -3.8892
  594MOL0     H80159  11.260   7.009   8.624 -1.1409 -0.6348  0.3802
  594MOL0     H80160  11.522   7.083   8.505 -1.2780 -0.3041  0.6476
  594MOL0     H80161  11.457   6.922   8.515  1.9018 -1.1052  0.4629
  594MOL0     H80162  11.457   6.952   8.773  0.4444 -0.7510 -0.1269
  594MOL0     H80163  11.519   7.114   8.757 -2.3790  0.3449  0.3302
  594MOL0     H80164  11.662   6.881   8.630 -0.2014  0.2971  0.2612
  594MOL0     H80165  11.726   7.046   8.688  2.3340 -1.5474  2.4933
  594MOL0     H80166  11.623   6.857   8.891 -0.5183 -0.8710 -0.0979
  594MOL0     H80167  11.732   6.988   8.922 -1.0954 -1.1711  0.5002
  594MOL0     H80168  11.861   6.767   8.946  0.8745  0.2920  0.2584
  594MOL0     H80169  11.819   6.738   8.776 -0.1002  2.4556 -2.9105
  594MOL0     H80170  10.937   7.425   8.325 -0.7004 -0.9210 -0.3364
  594MOL0     H80171  10.691   7.460   8.330 -0.1005  2.4989  3.0488
  594MOL0     H80172  10.296   7.635   8.648 -1.5417 -0.5693  0.9456
  594MOL0     H80173  10.055   7.655   8.616  1.0198  1.5609 -3.6075
  594MOL0     H80174   9.898   6.608   8.807 -0.2863 -1.0069 -0.7089
  594MOL0     H80175  10.135   6.645   8.871 -0.7812 -2.5380 -2.8400
  594MOL0     H80176  10.484   6.513   8.979 -2.5341 -0.9453  2.0828
  594MOL0     H80177  10.733   6.501   9.006  1.3575  1.2859  0.6646
  594MOL0     H80178  10.960   6.619   9.002  1.7117 -2.3109 -0.9676
  594MOL0     H80179  10.963   6.488   9.120 -0.4000 -0.4635  0.3956
  594MOL0     H80180  11.173   6.585   9.087  1.7852  2.8784 -0.3260
  594MOL0     H80181  11.122   6.584   9.253 -0.4222 -0.8399 -1.1666
  594MOL0     H80182  11.107   6.836   9.259  1.2488 -0.1480  1.4399
  594MOL0     H80183  11.115   6.828   9.077 -0.9095 -2.6753 -0.0827
  594MOL0     H80184  11.326   6.794   9.067 -2.4422  0.3258 -0.5022
  594MOL0     H80185  11.321   6.899   9.206  0.4309 -0.9465  4.3654
  594MOL0     H80186  11.425   6.582   9.446  1.3371 -0.0285  0.0682
  594MOL0     H80187  10.724   6.809   9.298  1.3715  2.4269 -4.4537
  594MOL0     H80188  10.428   6.931   9.269  0.1211  0.0591  0.2261
  594MOL0     H80189  10.378   6.802   9.368  1.7920 -0.2375 -0.1239
  594MOL0     H80190  10.533   6.865   9.402 -0.1241  1.6950  0.2212
  595MOL0     O80191   1.933   8.061   2.047  0.4964  0.7006  0.6660
  595MOL0     C80192   1.981   8.136   2.133 -0.1018 -0.5250  0.0050
  595MOL0     O80193   1.913   8.249   2.193 -0.2185 -0.3624  0.1477
  595MOL0     C80194   1.773   8.257   2.182 -0.6200  0.3471  0.6671
  595MOL0     C80195   1.684   8.150   2.185  0.3612 -0.0280  0.3783
  595MOL0     C80196   1.542   8.157   2.161  0.2506 -0.2302  0.5079
  595MOL0     C80197   1.486   8.286   2.143 -0.5930 -0.0509 -0.3346
  595MOL0     O80198   1.353   8.326   2.133  0.0080 -0.7654  0.7592
  595MOL0     C80199   1.253   8.224   2.134  0.0680  0.3488  0.5028
  595MOL0     C80200   1.124   8.285   2.064  0.2982  0.5647 -0.1911
  595MOL0     C80201   1.011   8.192   2.075 -0.7736  0.9825 -0.2593
  595MOL0     C80202   0.879   8.249   2.031  0.6191  0.0016  0.3301
  595MOL0     C80203   0.864   8.241   1.886  0.1785  0.1950  0.1669
  595MOL0     C80204   0.751   8.323   1.823  0.8311  0.7504 -0.0124
  595MOL0     C80205   0.723   8.285   1.676  0.0282  0.5867 -0.3379
  595MOL0     C80206   0.839   8.301   1.581 -0.4995 -0.2179  0.3897
  595MOL0     N80207   0.883   8.441   1.585  0.9504 -0.2262 -0.1094
  595MOL0     C80208   0.806   8.556   1.565 -0.8539 -0.0445  0.7868
  595MOL0     C80209   0.875   8.657   1.611 -0.5184  0.7134 -0.5872
  595MOL0     C80210   0.844   8.804   1.623  0.1188  0.2436  0.1155
  595MOL0     C80211   0.845   8.873   1.478 -0.0676  0.0907 -0.8102
  595MOL0     C80212   0.891   9.023   1.484 -0.2052  0.5783  0.6403
  595MOL0     C80213   0.937   9.071   1.343  0.3655  0.8402 -1.5456
  595MOL0     O80214   0.995   9.197   1.355 -0.1010  0.3665  0.0191
  595MOL0     C80215   1.126   9.215   1.308  0.3442  0.0422  0.5016
  595MOL0     C80216   1.181   9.137   1.203  1.3985 -0.1553  0.3466
  595MOL0     C80217   1.304   9.154   1.151 -0.7829  0.3866  0.1975
  595MOL0     C80218   1.384   9.248   1.217 -0.1017 -0.7120  0.3794
  595MOL0     C80219   1.532   9.253   1.192  0.3519 -0.6102 -0.3850
  595MOL0     O80220   1.596   9.360   1.236  0.1485 -0.0107 -0.7676
  595MOL0     C80221   1.734   9.382   1.234 -0.5432 -0.5730 -0.1662
  595MOL0     C80222   1.823   9.279   1.238 -0.7377  0.2867 -0.5522
  595MOL0     C80223   1.966   9.295   1.250  0.3456 -0.3551  0.0418
  595MOL0     C80224   2.014   9.429   1.227  0.3480 -0.1315  0.6020
  595MOL0     O80225   2.148   9.455   1.215 -0.0737 -0.4244  0.3270
  595MOL0     C80226   2.194   9.542   1.112 -0.8464 -0.1218 -0.0223
  595MOL0     C80227   2.335   9.507   1.057  0.3653  0.6100  0.0185
  595MOL0     C80228   2.449   9.513   1.159  0.2894 -0.6287  0.1432
  595MOL0     C80229   2.581   9.442   1.116 -0.7004 -0.5292  0.3983
  595MOL0     C80230   2.658   9.512   1.008  0.5301 -0.2461 -0.6993
  595MOL0     C80231   2.714   9.649   1.038  1.0609  0.2031 -0.0778
  595MOL0     C80232   2.813   9.664   1.155  0.4205  0.3081 -0.6234
  595MOL0     C80233   2.884   9.799   1.170 -0.9399  0.8027 -0.7273
  595MOL0    Cl80234   3.017   9.804   1.301  0.0241  0.0747 -0.1128
  595MOL0     C80235   1.922   9.538   1.228  0.5733  0.4788 -0.4444
  595MOL0     C80236   1.786   9.509   1.231  0.2700 -0.9834  0.3553
  595MOL0     O80237   1.582   9.163   1.123 -0.3574  0.2167 -0.0092
  595MOL0     C80238   1.337   9.338   1.315  0.1797  0.2450 -0.4405
  595MOL0     C80239   1.201   9.325   1.353  0.1421  0.0075  0.7647
  595MOL0     N80240   0.984   8.605   1.667 -0.4047  0.3355 -0.0355
  595MOL0     N80241   0.990   8.479   1.644  0.6487 -0.5572 -0.6037
  595MOL0     C80242   1.578   8.395   2.159 -0.0521 -1.0903  0.4888
  595MOL0     C80243   1.715   8.381   2.170  0.7042 -0.1742 -0.1034
  595MOL0     C80244   2.115   8.109   2.196 -0.2339  0.0041 -0.1228
  595MOL0     C80245   2.188   8.221   2.255 -0.5733 -0.3075  0.0189
  595MOL0     C80246   2.316   8.206   2.319  0.0667  0.1005 -0.1134
  595MOL0     C80247   2.373   8.075   2.316  0.8200 -0.7283  0.1947
  595MOL0     O80248   2.502   8.061   2.362 -0.2472  0.7133 -0.3825
  595MOL0     C80249   2.511   7.944   2.451 -0.1696 -0.2206  0.0104
  595MOL0     C80250   2.625   7.966   2.540  0.0875  0.3019  0.0508
  595MOL0     C80251   2.762   8.000   2.481 -0.4991 -0.3647  0.3184
  595MOL0     C80252   2.867   7.989   2.592  0.2877 -0.0712 -0.9354
  595MOL0     C80253   2.993   8.004   2.536  0.1660  0.3940  0.7285
  595MOL0     C80254   3.102   8.015   2.492  0.6421  1.0186  0.4042
  595MOL0     C80255   2.298   7.967   2.257 -0.0448 -0.8080 -0.0961
  595MOL0     C80256   2.175   7.977   2.202 -0.0689 -0.5913  0.5079
  595MOL0     C80257   2.100   7.859   2.149 -0.1385 -0.3485 -0.3471
  595MOL0     H80258   1.728   8.052   2.206 -1.6807 -0.2465  4.7592
  595MOL0     H80259   1.484   8.067   2.181 -0.3373 -1.1824 -4.2693
  595MOL0     H80260   1.293   8.141   2.076  1.0656  1.2690 -0.1699
  595MOL0     H80261   1.245   8.202   2.241  3.4968  0.0619  0.8155
  595MOL0     H80262   1.143   8.313   1.961  0.4982  0.0222 -0.3074
  595MOL0     H80263   1.092   8.375   2.118 -1.3645 -0.2155  0.1737
  595MOL0     H80264   0.998   8.177   2.182 -1.3955 -3.0841 -0.7585
  595MOL0     H80265   1.031   8.102   2.017  0.8899  2.8460 -2.8422
  595MOL0     H80266   0.805   8.173   2.060  0.8372 -0.2960  0.1189
  595MOL0     H80267   0.853   8.347   2.072 -2.2041 -0.0346 -1.1293
  595MOL0     H80268   0.953   8.278   1.834 -0.8780  0.1012 -1.8088
  595MOL0     H80269   0.863   8.136   1.853 -0.3779 -0.0640  1.0041
  595MOL0     H80270   0.657   8.300   1.873  0.8073  1.8513  0.4795
  595MOL0     H80271   0.788   8.425   1.832  0.0636  0.9581  0.8930
  595MOL0     H80272   0.633   8.340   1.648 -0.1239  1.3359  1.4546
  595MOL0     H80273   0.701   8.178   1.674  0.9627  0.3452  0.9481
  595MOL0     H80274   0.915   8.227   1.608  0.7978  0.9881  0.1198
  595MOL0     H80275   0.814   8.285   1.476  1.7552  0.3452 -0.2881
  595MOL0     H80276   0.715   8.556   1.506  0.6737 -0.0706 -1.7186
  595MOL0     H80277   0.752   8.824   1.680 -0.2425  0.9262 -0.6865
  595MOL0     H80278   0.929   8.851   1.674  3.9094 -0.9112 -4.4172
  595MOL0     H80279   0.902   8.808   1.411 -2.2484 -3.8416  0.8379
  595MOL0     H80280   0.746   8.879   1.433  0.6752 -3.1066 -3.2841
  595MOL0     H80281   0.965   9.029   1.565 -0.6678  2.4689  0.9703
  595MOL0     H80282   0.814   9.090   1.523 -0.3169 -0.7721  2.9205
  595MOL0     H80283   0.850   9.066   1.276  0.5609  0.8203 -1.7976
  595MOL0     H80284   1.010   9.000   1.305  1.3125  2.6248 -3.2545
  595MOL0     H80285   1.130   9.059   1.147  3.6379 -0.9656 -0.6687
  595MOL0     H80286   1.347   9.098   1.068  1.8931  0.1397  1.6206
  595MOL0     H80287   1.787   9.176   1.241  0.4486 -0.1433 -0.4458
  595MOL0     H80288   2.036   9.214   1.261  0.7756 -0.0667 -0.5270
  595MOL0     H80289   2.123   9.536   1.029  0.2519 -3.8120 -0.8571
  595MOL0     H80290   2.197   9.644   1.152 -0.8599 -0.5567  1.1148
  595MOL0     H80291   2.335   9.401   1.029 -3.5097 -0.3930  3.0457
  595MOL0     H80292   2.363   9.568   0.970  1.6481 -0.2812 -0.2279
  595MOL0     H80293   2.470   9.617   1.187  1.5099 -0.7946 -0.0819
  595MOL0     H80294   2.410   9.457   1.244 -0.5363 -1.7146 -0.9293
  595MOL0     H80295   2.562   9.336   1.100  0.2973 -0.4945 -1.3038
  595MOL0     H80296   2.649   9.451   1.201 -0.0588 -1.2943 -0.0233
  595MOL0     H80297   2.585   9.528   0.928 -1.3219 -1.0551  0.7555
  595MOL0     H80298   2.741   9.446   0.980  1.4466  0.0308  1.2613
  595MOL0     H80299   2.761   9.690   0.948 -0.9765  1.4299 -0.6471
  595MOL0     H80300   2.633   9.722   1.052  0.7541 -0.0102 -0.7013
  595MOL0     H80301   2.898   9.596   1.141  1.6017  1.9821 -1.9372
  595MOL0     H80302   2.756   9.640   1.245 -1.3574 -0.4831 -1.8976
  595MOL0     H80303   2.939   9.823   1.078  2.1779 -0.0607  0.7752
  595MOL0     H80304   2.809   9.876   1.192 -2.6764 -0.3180 -2.3401
  595MOL0     H80305   1.958   9.638   1.207  1.8543 -0.5640 -3.8509
  595MOL0     H80306   1.715   9.590   1.226  1.5294  0.3216  2.3095
  595MOL0     H80307   1.395   9.414   1.366  1.4890 -0.4200 -0.8854
  595MOL0     H80308   1.156   9.398   1.420  0.0282  0.5470  0.1204
  595MOL0     H80309   1.547   8.494   2.126 -0.7926 -1.3773  0.2925
  595MOL0     H80310   1.776   8.470   2.171 -0.0485  0.3448  0.5851
  595MOL0     H80311   2.146   8.321   2.257 -3.0046 -1.2448 -0.5284
  595MOL0     H80312   2.381   8.288   2.348  0.9694  0.0116 -1.7984
  595MOL0     H80313   2.511   7.847   2.400 -2.9369 -0.3209  0.0680
  595MOL0     H80314   2.421   7.947   2.513 -0.9336  0.3934 -1.0990
  595MOL0     H80315   2.642   7.873   2.595  2.9033  1.5184  1.4196
  595MOL0     H80316   2.604   8.043   2.615  4.7145 -0.3838  2.3995
  595MOL0     H80317   2.767   8.098   2.433  2.9058 -0.2567  0.6400
  595MOL0     H80318   2.776   7.919   2.409 -0.5759 -2.2478  2.3186
  595MOL0     H80319   2.855   8.061   2.674 -1.9383 -1.3101 -0.0827
  595MOL0     H80320   2.861   7.887   2.632  2.3230  0.0509 -0.2576
  595MOL0     H80321   3.208   8.021   2.479  0.8821 -1.5183  0.6379
  595MOL0     H80322   2.347   7.871   2.244  0.5229 -0.8792  2.1426
  595MOL0     H80323   2.126   7.762   2.191 -0.9485  0.8101  3.1750
  595MOL0     H80324   1.997   7.871   2.185 -0.2236 -1.6789 -0.0994
  595MOL0     H80325   2.089   7.853   2.040  0.8331 -0.7739 -0.4325
  596MOL0     O80326   7.039   7.809   6.094 -0.0925 -0.3980 -0.3737
  596MOL0     C80327   6.979   7.714   6.142 -0.0498 -0.5486  0.1837
  596MOL0     O80328   6.997   7.581   6.106 -0.3276  1.0620  0.2993
  596MOL0     C80329   7.074   7.553   5.996 -0.0592  0.1789  0.4048
  596MOL0     C80330   7.168   7.455   6.014  0.2953  0.3074  0.5063
  596MOL0     C80331   7.241   7.401   5.906  0.5456 -0.4937 -0.4645
  596MOL0     C80332   7.237   7.469   5.783 -0.5186 -0.2608  0.5432
  596MOL0     O80333   7.320   7.430   5.685  0.2933 -0.0361  0.2714
  596MOL0     C80334   7.454   7.491   5.690 -0.5762 -0.2502  0.2621
  596MOL0     C80335   7.536   7.409   5.591  0.6893  0.4763 -0.4848
  596MOL0     C80336   7.684   7.444   5.594  0.0469 -0.0035  0.1480
  596MOL0     C80337   7.736   7.435   5.450  0.4700 -0.7880 -0.3484
  596MOL0     C80338   7.883   7.481   5.427 -0.7937 -0.6059 -0.3901
  596MOL0     C80339   7.992   7.384   5.473  0.1380  0.9346  0.2769
  596MOL0     C80340   8.129   7.426   5.418  0.1641 -0.0957 -0.3840
  596MOL0     C80341   8.215   7.299   5.411  0.3945 -0.2109  0.5925
  596MOL0     N80342   8.341   7.350   5.366  0.0918  0.3804 -0.3110
  596MOL0     C80343   8.382   7.414   5.255  0.3437 -0.1395 -0.4888
  596MOL0     C80344   8.513   7.436   5.260  0.3748  0.1223 -0.1392
  596MOL0     C80345   8.594   7.498   5.152 -0.0809  0.0791  0.4929
  596MOL0     C80346   8.626   7.395   5.046  0.4476 -0.0355  0.1867
  596MOL0     C80347   8.706   7.453   4.914  0.2985  0.3951  0.5965
  596MOL0     C80348   8.850   7.405   4.909  0.3691 -0.4228  0.3541
  596MOL0     O80349   8.905   7.479   5.018 -0.3244  0.0622 -0.8626
  596MOL0     C80350   9.042   7.481   5.028 -0.7859 -0.4959 -0.0102
  596MOL0     C80351   9.091   7.586   5.108  0.4806  0.0863  0.4395
  596MOL0     C80352   9.231   7.609   5.105  0.1461 -0.9469  0.6192
  596MOL0     C80353   9.324   7.537   5.034  0.0792 -1.2655  0.2056
  596MOL0     C80354   9.458   7.579   5.044 -0.9544  0.3925 -0.7919
  596MOL0     O80355   9.509   7.666   5.137 -0.0284 -0.0299  0.2716
  596MOL0     C80356   9.646   7.701   5.144 -0.3316 -0.1038  0.0517
  596MOL0     C80357   9.700   7.741   5.023  0.0707  0.0512 -0.5590
  596MOL0     C80358   9.829   7.789   5.012  0.1511 -0.1078 -0.5872
  596MOL0     C80359   9.909   7.791   5.126  0.3360 -0.0624  0.4833
  596MOL0     O80360  10.034   7.849   5.113 -0.5204  0.4450  0.0046
  596MOL0     C80361  10.115   7.878   5.232  0.0322  0.2895 -0.5899
  596MOL0     C80362  10.260   7.894   5.180 -0.2663 -0.0870  1.6573
  596MOL0     C80363  10.370   7.956   5.268  0.0363  0.6120  0.1447
  596MOL0     C80364  10.365   7.896   5.409 -0.3450  0.5412  0.0328
  596MOL0     C80365  10.447   7.975   5.498  0.5527  1.0426 -0.3703
  596MOL0     C80366  10.446   7.916   5.644  0.8511  1.0272 -0.0634
  596MOL0     C80367  10.519   8.021   5.734  0.3068  0.5164  0.1350
  596MOL0     C80368  10.538   7.966   5.871  0.3997 -0.3895 -0.2870
  596MOL0    Cl80369  10.366   7.933   5.931 -0.1832 -0.0734 -0.2220
  596MOL0     C80370   9.859   7.746   5.244  0.3806 -0.3791 -0.4527
  596MOL0     C80371   9.722   7.703   5.260  0.0248  0.0189  0.1110
  596MOL0     O80372   9.531   7.512   4.972 -0.5817 -0.1102 -0.8099
  596MOL0     C80373   9.274   7.425   4.962  0.6233  0.0124 -0.1083
  596MOL0     C80374   9.138   7.397   4.956 -0.0088  0.4097  0.5729
  596MOL0     N80375   8.557   7.383   5.381 -0.0902 -0.2309 -0.0669
  596MOL0     N80376   8.453   7.336   5.442 -0.2665  0.0786  0.3122
  596MOL0     C80377   7.147   7.577   5.768  0.0092  0.6525 -0.1166
  596MOL0     C80378   7.058   7.614   5.872 -0.6428 -0.6782  0.2442
  596MOL0     C80379   6.886   7.750   6.251 -0.6739  0.1696  0.4802
  596MOL0     C80380   6.904   7.705   6.382  0.0736  0.1027  0.0723
  596MOL0     C80381   6.814   7.739   6.481 -0.2441 -0.3013 -0.7143
  596MOL0     C80382   6.712   7.829   6.462 -0.3111 -0.9065 -0.7065
  596MOL0     O80383   6.628   7.852   6.569 -0.4546  0.1303 -0.3792
  596MOL0     C80384   6.523   7.953   6.562 -0.0833 -0.0833 -0.7430
  596MOL0     C80385   6.585   8.093   6.597 -0.5323 -0.6812  0.2526
  596MOL0     C80386   6.515   8.222   6.550 -0.4040 -0.8471  1.0266
  596MOL0     C80387   6.580   8.357   6.574 -0.3388 -0.3760 -0.4212
  596MOL0     C80388   6.713   8.373   6.518 -0.0936 -0.2257  1.0972
  596MOL0     C80389   6.830   8.371   6.494  0.0934  0.1216  0.6736
  596MOL0     C80390   6.707   7.893   6.338  0.3199  0.4914 -0.2610
  596MOL0     C80391   6.784   7.846   6.228  0.2422 -0.2422  0.8951
  596MOL0     C80392   6.756   7.914   6.092  0.0724 -0.0923 -0.6744
  596MOL0     H80393   7.161   7.406   6.111  0.6393 -0.3544  0.2073
  596MOL0     H80394   7.297   7.310   5.926 -4.0857 -3.0633  2.9494
  596MOL0     H80395   7.451   7.595   5.655  0.3736 -0.0482  0.7344
  596MOL0     H80396   7.498   7.494   5.790 -3.1401 -0.1602  1.4852
  596MOL0     H80397   7.484   7.420   5.495  2.1082 -0.1899 -1.3676
  596MOL0     H80398   7.525   7.301   5.608 -1.3092  0.5802 -0.8806
  596MOL0     H80399   7.735   7.375   5.661  2.2911 -0.3638 -1.7819
  596MOL0     H80400   7.709   7.545   5.626  0.0161  0.8027 -2.1467
  596MOL0     H80401   7.733   7.331   5.419  1.9822 -1.2238  0.8426
  596MOL0     H80402   7.672   7.498   5.388  2.5864  0.9258 -0.9489
  596MOL0     H80403   7.888   7.498   5.319 -0.0276 -0.6170 -0.3569
  596MOL0     H80404   7.893   7.582   5.468  1.6696 -0.2366 -1.7236
  596MOL0     H80405   8.001   7.387   5.581  1.5381  0.0950  0.1980
  596MOL0     H80406   7.972   7.281   5.440  1.7602  0.3939  0.9368
  596MOL0     H80407   8.165   7.507   5.482  0.1139  0.1112 -0.6172
  596MOL0     H80408   8.112   7.469   5.319 -0.2293  0.1888 -0.1927
  596MOL0     H80409   8.219   7.256   5.511  0.0931 -0.5745  0.4541
  596MOL0     H80410   8.170   7.222   5.346  0.0799 -0.0940  0.6702
  596MOL0     H80411   8.321   7.421   5.166  0.8565  2.9579 -0.7155
  596MOL0     H80412   8.547   7.585   5.106  0.9157  0.8682  0.9188
  596MOL0     H80413   8.689   7.544   5.182  0.3925 -1.1854  0.9757
  596MOL0     H80414   8.676   7.308   5.090 -0.6524  0.1524  1.9211
  596MOL0     H80415   8.535   7.357   4.999 -1.6265  1.1127  3.0258
  596MOL0     H80416   8.710   7.562   4.915 -0.0562  0.4093  0.8060
  596MOL0     H80417   8.659   7.404   4.828  0.4754 -1.8916  1.7163
  596MOL0     H80418   8.896   7.442   4.817 -0.5674 -0.9999 -0.3700
  596MOL0     H80419   8.858   7.297   4.918 -1.1496 -0.4080  2.9178
  596MOL0     H80420   9.028   7.657   5.162  2.0151  0.2930  2.0478
  596MOL0     H80421   9.256   7.700   5.159  0.1278 -1.3070  1.2402
  596MOL0     H80422   9.647   7.728   4.929  0.2310  0.8872 -0.7732
  596MOL0     H80423   9.871   7.807   4.913  0.5860  0.5996 -0.2779
  596MOL0     H80424  10.071   7.960   5.290  1.9497  0.7076  0.3754
  596MOL0     H80425  10.120   7.789   5.294  0.3750  1.1857  0.7100
  596MOL0     H80426  10.305   7.798   5.155  2.7675  0.8167  3.1449
  596MOL0     H80427  10.252   7.962   5.095 -1.1489  1.2386  2.7656
  596MOL0     H80428  10.467   7.938   5.222 -0.3172 -0.8680 -0.0656
  596MOL0     H80429  10.356   8.064   5.260  0.4984  0.5103 -4.3658
  596MOL0     H80430  10.395   7.790   5.411  2.6300  1.2676  3.3475
  596MOL0     H80431  10.266   7.894   5.454 -0.7646 -2.3066 -0.7891
  596MOL0     H80432  10.407   8.076   5.505  0.5373  1.1188 -1.4092
  596MOL0     H80433  10.547   7.981   5.455  0.7854 -3.9506 -1.1419
  596MOL0     H80434  10.342   7.902   5.674  0.5303  3.0455 -0.1358
  596MOL0     H80435  10.492   7.817   5.650  0.7824  1.0115  0.2234
  596MOL0     H80436  10.452   8.104   5.757 -1.0538 -1.4125  4.1506
  596MOL0     H80437  10.615   8.051   5.691  0.4951  0.5493  0.5685
  596MOL0     H80438  10.602   7.878   5.867  1.1052  0.1369 -1.0627
  596MOL0     H80439  10.583   8.038   5.939 -1.5673  0.7841 -0.1451
  596MOL0     H80440   9.906   7.760   5.341 -0.5771 -0.4554  0.0385
  596MOL0     H80441   9.673   7.679   5.354  1.9298 -0.0683  1.1247
  596MOL0     H80442   9.346   7.368   4.904 -1.3721 -1.5776 -1.1726
  596MOL0     H80443   9.109   7.319   4.887  0.5176  2.0534 -1.6417
  596MOL0     H80444   7.139   7.623   5.671  0.1686 -0.2792 -0.5812
  596MOL0     H80445   6.995   7.701   5.856 -0.1681  0.2058  2.6242
  596MOL0     H80446   6.986   7.637   6.404 -2.4606 -3.4162 -0.4931
  596MOL0     H80447   6.811   7.698   6.581  1.4181  1.0590 -0.0618
  596MOL0     H80448   6.446   7.927   6.636  1.7619 -1.6530  0.7368
  596MOL0     H80449   6.476   7.964   6.464 -0.8890 -0.1064 -0.3631
  596MOL0     H80450   6.687   8.103   6.559 -0.9743 -0.5512 -0.9232
  596MOL0     H80451   6.574   8.097   6.706 -0.1657 -1.5022  0.3236
  596MOL0     H80452   6.416   8.222   6.596 -2.0724 -2.6479 -2.1571
  596MOL0     H80453   6.504   8.221   6.441  0.4447 -1.7998  0.9253
  596MOL0     H80454   6.506   8.432   6.545 -2.8215 -1.9041  1.5119
  596MOL0     H80455   6.596   8.371   6.681 -0.8912 -0.7971 -0.2783
  596MOL0     H80456   6.932   8.389   6.466  0.1267 -3.1051 -1.8747
  596MOL0     H80457   6.629   7.960   6.305  2.7498  2.0914 -3.2496
  596MOL0     H80458   6.651   7.928   6.065  0.0715  0.1107 -0.5633
  596MOL0     H80459   6.808   8.010   6.090 -1.8080  0.9850 -0.3058
  596MOL0     H80460   6.795   7.848   6.014  4.1787  0.0572  0.9741
  597MOL0     O80461   5.616   5.455   1.748  0.3171 -0.0602  0.4951
  597MOL0     C80462   5.627   5.522   1.848 -0.3986 -0.4334 -0.1220
  597MOL0     O80463   5.529   5.556   1.942  0.2857  0.5508  0.5685
  597MOL0     C80464   5.403   5.526   1.893 -0.1814 -0.2746 -0.7165
  597MOL0     C80465   5.338   5.622   1.800 -0.4507 -0.2583  0.1457
  597MOL0     C80466   5.207   5.590   1.750 -0.8101 -0.5911  0.6166
  597MOL0     C80467   5.156   5.461   1.783 -1.0329 -0.8494  0.0728
  597MOL0     O80468   5.040   5.404   1.728  0.9722  0.2526  0.9483
  597MOL0     C80469   4.978   5.461   1.616 -0.0545  0.0914 -0.6573
  597MOL0     C80470   4.863   5.385   1.555 -0.5715 -0.4220 -0.2338
  597MOL0     C80471   4.739   5.380   1.643  0.0975  0.2041 -1.2983
  597MOL0     C80472   4.668   5.247   1.620  1.2663  0.1359  0.4021
  597MOL0     C80473   4.535   5.246   1.701  0.5542  0.1101  0.2420
  597MOL0     C80474   4.412   5.311   1.634  0.2294  0.3641 -0.0404
  597MOL0     C80475   4.304   5.320   1.743  0.1833  0.0978  0.9694
  597MOL0     C80476   4.163   5.358   1.681 -1.3251  0.3420  0.0358
  597MOL0     N80477   4.062   5.339   1.788  0.3659 -0.7065  0.3348
  597MOL0     C80478   4.055   5.412   1.909  0.2304  0.1243 -0.3715
  597MOL0     C80479   3.940   5.363   1.975 -0.1147 -0.0979  0.1857
  597MOL0     C80480   3.890   5.429   2.098  0.8257  0.9105  0.4085
  597MOL0     C80481   3.823   5.321   2.194 -0.1211  0.2499 -0.2193
  597MOL0     C80482   3.743   5.381   2.312  0.6090 -0.4932  1.0808
  597MOL0     C80483   3.825   5.483   2.390  0.0326 -0.7290  0.2136
  597MOL0     O80484   3.949   5.421   2.435 -0.2090 -0.2971  0.1946
  597MOL0     C80485   4.042   5.498   2.503  0.2127  0.7392  0.2049
  597MOL0     C80486   4.176   5.444   2.517  0.7649  0.1283 -0.0107
  597MOL0     C80487   4.278   5.517   2.583  0.8864 -0.1261  0.6860
  597MOL0     C80488   4.249   5.647   2.638  0.0175 -0.0613  0.2947
  597MOL0     C80489   4.354   5.703   2.727 -0.5326  0.5116  0.4228
  597MOL0     O80490   4.333   5.827   2.776  0.2931 -0.8554 -0.0618
  597MOL0     C80491   4.414   5.893   2.867  0.0379 -0.1623 -0.8474
  597MOL0     C80492   4.357   5.972   2.968  0.9733  0.0222  0.1854
  597MOL0     C80493   4.445   6.060   3.041 -0.1702 -1.1487  0.1976
  597MOL0     C80494   4.581   6.056   3.025 -0.0573 -0.4654  0.1058
  597MOL0     O80495   4.658   6.141   3.109 -0.8677  0.2468  0.1359
  597MOL0     C80496   4.812   6.132   3.094 -0.1135 -1.1530 -1.0469
  597MOL0     C80497   4.889   6.045   3.197  0.4632 -0.3275 -0.4124
  597MOL0     C80498   4.871   6.090   3.337  0.2567  0.2915 -0.7303
  597MOL0     C80499   4.912   5.985   3.441 -0.2085  0.1221  0.2347
  597MOL0     C80500   5.030   6.028   3.530  0.5638 -1.1583 -1.2641
  597MOL0     C80501   5.090   5.922   3.622  0.7287  0.4644  0.6130
  597MOL0     C80502   5.186   5.993   3.718 -0.3523 -0.5489  0.1343
  597MOL0     C80503   5.243   5.895   3.827  0.5656 -0.5545 -0.0008
  597MOL0    Cl80504   5.382   5.801   3.769  0.0854  0.1290  0.1821
  597MOL0     C80505   4.634   5.967   2.929  0.3061 -0.4485 -0.1909
  597MOL0     C80506   4.553   5.890   2.847  0.1259  0.7336  0.3077
  597MOL0     O80507   4.449   5.634   2.757 -0.4599  0.2294 -0.0896
  597MOL0     C80508   4.112   5.688   2.630 -0.2652 -0.9870  0.1561
  597MOL0     C80509   4.018   5.630   2.551  0.8568 -0.0421 -0.2915
  597MOL0     N80510   3.888   5.260   1.897  0.2631 -0.1352 -0.8874
  597MOL0     N80511   3.956   5.252   1.784 -0.3588  0.0254 -0.0508
  597MOL0     C80512   5.225   5.371   1.867  0.5841 -0.5961  0.1573
  597MOL0     C80513   5.347   5.403   1.926 -0.0816  0.3770 -0.2158
  597MOL0     C80514   5.756   5.583   1.882  0.9596  0.6997 -0.4870
  597MOL0     C80515   5.757   5.715   1.941 -0.7930  0.9124 -0.7098
  597MOL0     C80516   5.878   5.770   1.966 -0.5276  0.1996 -0.0209
  597MOL0     C80517   5.997   5.711   1.926 -0.1736  0.2058  0.6388
  597MOL0     O80518   6.109   5.777   1.944 -0.0775  0.1162 -0.1783
  597MOL0     C80519   6.201   5.719   2.041  0.1835  0.2015 -0.0888
  597MOL0     C80520   6.227   5.841   2.127  0.4404  0.3700 -0.7024
  597MOL0     C80521   6.311   5.811   2.259  0.3645 -0.3892  1.0475
  597MOL0     C80522   6.298   5.920   2.375  0.3636  0.6210  0.2430
  597MOL0     C80523   6.160   5.920   2.420 -0.0101 -1.0975  0.0109
  597MOL0     C80524   6.044   5.910   2.459 -0.3034 -0.3201 -0.0195
  597MOL0     C80525   6.002   5.580   1.874  1.1169  0.0132 -0.0223
  597MOL0     C80526   5.882   5.508   1.855 -0.2151  0.1030  0.0945
  597MOL0     C80527   5.891   5.371   1.794 -0.0397  0.0153 -0.3347
  597MOL0     H80528   5.395   5.712   1.779  3.1641 -2.5476 -0.8587
  597MOL0     H80529   5.149   5.652   1.682  1.0708 -0.3298 -0.8387
  597MOL0     H80530   4.952   5.563   1.645  0.0576  0.0723 -0.4881
  597MOL0     H80531   5.056   5.466   1.539  3.3983 -0.1606  2.5801
  597MOL0     H80532   4.910   5.286   1.542  1.0022  0.0011  1.6837
  597MOL0     H80533   4.841   5.423   1.455 -3.5884  1.5873  1.0638
  597MOL0     H80534   4.680   5.469   1.616  0.2293  0.3819 -1.0051
  597MOL0     H80535   4.759   5.405   1.748 -2.9729  3.9599 -1.3691
  597MOL0     H80536   4.647   5.202   1.522  0.9798 -1.5960  1.2064
  597MOL0     H80537   4.739   5.172   1.657  0.5896 -0.7466 -0.0448
  597MOL0     H80538   4.497   5.147   1.726 -0.5100 -1.4498 -5.8995
  597MOL0     H80539   4.564   5.300   1.792  1.1501  1.8060 -0.9098
  597MOL0     H80540   4.439   5.407   1.590  2.8731  0.7803  2.1744
  597MOL0     H80541   4.380   5.241   1.557 -0.2359  0.8569 -0.2944
  597MOL0     H80542   4.342   5.396   1.812  1.6981 -1.5313  2.0023
  597MOL0     H80543   4.300   5.222   1.791  3.2801 -0.6158  0.0174
  597MOL0     H80544   4.172   5.465   1.663 -1.3451  0.5880  1.3668
  597MOL0     H80545   4.128   5.305   1.592 -3.0852  1.3454  0.0891
  597MOL0     H80546   4.125   5.489   1.940  0.5285 -1.0795  2.3129
  597MOL0     H80547   3.971   5.476   2.155  0.9898 -0.4922  1.3719
  597MOL0     H80548   3.804   5.491   2.073 -0.5408 -0.7620  0.8290
  597MOL0     H80549   3.753   5.270   2.127  0.8666  0.0118 -1.0798
  597MOL0     H80550   3.892   5.244   2.229  0.6897  0.4600 -1.3011
  597MOL0     H80551   3.708   5.297   2.372  0.5003 -0.3001  1.2892
  597MOL0     H80552   3.651   5.424   2.272  1.4489 -0.4579 -0.9386
  597MOL0     H80553   3.770   5.516   2.479 -0.8364 -1.3770 -0.0756
  597MOL0     H80554   3.852   5.570   2.328  2.9981 -1.2775  0.5809
  597MOL0     H80555   4.194   5.346   2.474  0.2227  0.5463 -1.2440
  597MOL0     H80556   4.376   5.471   2.583  0.6261 -0.7141 -0.2554
  597MOL0     H80557   4.249   5.975   2.973  0.9440 -1.3081  0.8154
  597MOL0     H80558   4.409   6.137   3.109 -3.9477 -0.7806 -1.9442
  597MOL0     H80559   4.845   6.097   2.996  1.6746 -1.2609 -0.4317
  597MOL0     H80560   4.846   6.235   3.104 -0.6173 -1.0752  0.0415
  597MOL0     H80561   4.853   5.942   3.190  0.5259 -0.3809 -0.0080
  597MOL0     H80562   4.992   6.062   3.167  0.1797  4.0853  0.3559
  597MOL0     H80563   4.932   6.180   3.354 -2.5771  1.9805  1.6703
  597MOL0     H80564   4.765   6.115   3.353  0.1756  0.4380 -1.4630
  597MOL0     H80565   4.956   5.897   3.393  0.6933  0.9655 -0.5520
  597MOL0     H80566   4.829   5.955   3.505 -0.9835 -0.5115 -1.0229
  597MOL0     H80567   4.997   6.121   3.577  1.7924 -1.2691 -0.1379
  597MOL0     H80568   5.117   6.059   3.471  2.7574 -1.8569  1.4037
  597MOL0     H80569   5.006   5.884   3.680 -1.6656  3.2017 -0.7984
  597MOL0     H80570   5.146   5.855   3.557 -0.8033 -0.2322 -0.0337
  597MOL0     H80571   5.134   6.075   3.768  0.2901 -0.1786  0.2107
  597MOL0     H80572   5.269   6.030   3.657 -0.8755 -1.6902 -1.3390
  597MOL0     H80573   5.272   5.941   3.922  3.2773 -0.8281 -0.6276
  597MOL0     H80574   5.165   5.824   3.854  2.2588 -1.9390  1.4406
  597MOL0     H80575   4.741   5.957   2.912  0.6124  0.3564  1.1308
  597MOL0     H80576   4.600   5.829   2.770 -0.8268  1.1631 -0.6520
  597MOL0     H80577   4.101   5.783   2.680  0.8559  0.9449 -2.9634
  597MOL0     H80578   3.928   5.690   2.541  0.3998  0.1174  3.2563
  597MOL0     H80579   5.171   5.282   1.898  1.0235  0.1941  3.6066
  597MOL0     H80580   5.399   5.332   1.989 -0.6938  0.3924  0.3092
  597MOL0     H80581   5.670   5.779   1.955  0.9610  2.8466  2.6760
  597MOL0     H80582   5.875   5.874   1.996  1.6452  0.4261 -0.4398
  597MOL0     H80583   6.300   5.691   2.004  1.5274  2.7851  1.2010
  597MOL0     H80584   6.172   5.637   2.107  0.1101  1.8118  1.9826
  597MOL0     H80585   6.130   5.884   2.155  1.6305  1.8217  1.5310
  597MOL0     H80586   6.287   5.906   2.063  0.3646  1.0988 -0.0502
  597MOL0     H80587   6.412   5.818   2.218 -0.2554  1.9366 -0.2781
  597MOL0     H80588   6.285   5.710   2.293  0.0258 -0.2536  1.1967
  597MOL0     H80589   6.368   5.885   2.452  1.6765  0.4073 -1.0079
  597MOL0     H80590   6.325   6.024   2.354  1.0190  0.7363  1.5630
  597MOL0     H80591   5.940   5.917   2.486 -0.9852  0.7329 -2.5805
  597MOL0     H80592   6.092   5.530   1.841  0.6215 -1.2846  0.5304
  597MOL0     H80593   5.842   5.296   1.857  1.9456 -1.8397 -0.8886
  597MOL0     H80594   5.859   5.376   1.690 -0.4230 -2.2148 -0.3739
  597MOL0     H80595   5.991   5.326   1.789 -0.6861 -1.3084 -3.0300
  598MOL0     O80596   0.249   5.505  10.699 -0.4529 -0.0261 -0.6305
  598MOL0     C80597   0.185   5.439  10.623 -0.6950  0.2664 -0.6562
  598MOL0     O80598   0.230   5.324  10.562 -0.5193  0.3284 -0.6284
  598MOL0     C80599   0.365   5.292  10.572  1.0177 -0.3124 -0.4679
  598MOL0     C80600   0.445   5.334  10.471 -1.0375 -0.5889  0.3281
  598MOL0     C80601   0.591   5.320  10.481  0.2768 -0.0659  0.0574
  598MOL0     C80602   0.641   5.273  10.604 -0.0317  0.2281  1.8854
  598MOL0     O80603   0.774   5.269  10.610 -0.3896 -0.2825  0.2025
  598MOL0     C80604   0.838   5.387  10.661 -0.8853 -0.4696  0.8620
  598MOL0     C80605   0.982   5.351  10.714  1.7371 -0.6127  0.3822
  598MOL0     C80606   0.982   5.326  10.861 -0.2558 -0.6450 -0.1505
  598MOL0     C80607   0.914   5.190  10.883 -0.1476 -0.6084  0.0815
  598MOL0     C80608   0.968   5.114  11.009  0.6040  0.1565 -0.3588
  598MOL0     C80609   1.099   5.043  10.973  0.1555  0.5114 -0.2025
  598MOL0     C80610   1.126   4.943  11.092 -0.0479  0.8138 -0.3086
  598MOL0     C80611   1.060   4.807  11.063 -1.5861 -0.6187 -0.4256
  598MOL0     N80612   1.144   4.698  11.116 -0.0106  0.2898  0.0152
  598MOL0     C80613   1.279   4.676  11.108 -0.3966  0.2125  0.5543
  598MOL0     C80614   1.305   4.553  11.154  0.1844  0.0415 -0.9067
  598MOL0     C80615   1.447   4.489  11.155 -0.0022 -0.3957 -0.1735
  598MOL0     C80616   1.459   4.373  11.253  0.0261 -0.1022  0.2415
  598MOL0     C80617   1.590   4.299  11.242 -0.0777 -0.4286  0.1668
  598MOL0     C80618   1.703   4.366  11.308 -0.2355  0.2565 -0.2804
  598MOL0     O80619   1.832   4.304  11.275 -0.1704 -0.5655  0.4568
  598MOL0     C80620   1.943   4.388  11.280 -0.1934  0.7901  0.6569
  598MOL0     C80621   2.014   4.394  11.159  0.2613  0.0501  0.0382
  598MOL0     C80622   2.133   4.465  11.147 -0.4091 -0.0212 -0.3980
  598MOL0     C80623   2.187   4.511  11.269  0.4161  0.6805 -0.1670
  598MOL0     C80624   2.325   4.567  11.274  1.5775 -0.6520 -0.8433
  598MOL0     O80625   2.396   4.562  11.158  0.1336 -0.0061  0.2763
  598MOL0     C80626   2.501   4.647  11.161 -0.0229  0.0524 -0.6749
  598MOL0     C80627   2.493   4.746  11.057  0.2542 -1.6618  0.3596
  598MOL0     C80628   2.594   4.848  11.050 -0.8303  0.7452  1.0172
  598MOL0     C80629   2.702   4.849  11.131  0.1732 -0.2204  0.1559
  598MOL0     O80630   2.798   4.949  11.116  0.3683 -0.2824  0.3326
  598MOL0     C80631   2.923   4.937  11.190  0.2566 -0.6514 -0.2482
  598MOL0     C80632   3.027   5.050  11.139 -0.3409 -0.9377  0.1037
  598MOL0     C80633   3.006   5.192  11.208  1.0792 -0.3598 -0.3710
  598MOL0     C80634   2.865   5.257  11.193  0.5534  0.7135  0.1775
  598MOL0     C80635   2.866   5.413  11.233  1.0678 -0.0934 -0.3012
  598MOL0     C80636   2.725   5.458  11.286  0.9652  0.0176  0.1684
  598MOL0     C80637   2.611   5.436  11.183 -0.4039 -0.6545 -0.2202
  598MOL0     C80638   2.478   5.502  11.233 -0.1629 -0.8061 -1.0032
  598MOL0    Cl80639   2.490   5.679  11.206  0.0620  0.3200  0.1473
  598MOL0     C80640   2.713   4.752  11.233 -0.1858 -0.4626 -0.1801
  598MOL0     C80641   2.620   4.649  11.241 -0.4080 -1.0153  0.2239
  598MOL0     O80642   2.351   4.616  11.382 -0.4332 -0.1237  0.1603
  598MOL0     C80643   2.113   4.507  11.391  0.4179 -0.3293  0.5923
  598MOL0     C80644   1.986   4.454  11.396 -0.6001 -0.4624 -0.5339
  598MOL0     N80645   1.182   4.496  11.176 -0.4407  0.7066  0.1725
  598MOL0     N80646   1.093   4.588  11.167  0.9037 -0.2574 -0.0351
  598MOL0     C80647   0.557   5.217  10.707 -0.2283  0.3295  0.8792
  598MOL0     C80648   0.417   5.218  10.683 -0.3366 -0.0249  0.3569
  598MOL0     C80649   0.045   5.492  10.581 -0.3552  0.2068 -0.0675
  598MOL0     C80650  -0.014   5.415  10.481  0.0014  0.5563 -0.7020
  598MOL0     C80651  -0.145   5.432  10.437 -0.4194 -0.6158  0.0951
  598MOL0     C80652  -0.225   5.536  10.490  0.1097 -0.7093  0.5345
  598MOL0     O80653  -0.348   5.562  10.434 -0.1736 -0.6717  0.0511
  598MOL0     C80654  -0.435   5.670  10.479 -0.4027 -0.0462  0.6960
  598MOL0     C80655  -0.490   5.634  10.619  0.0919 -0.4726  0.1042
  598MOL0     C80656  -0.622   5.551  10.603  0.9106 -0.2663 -0.5379
  598MOL0     C80657  -0.722   5.552  10.723  0.4137 -0.3969 -0.0365
  598MOL0     C80658  -0.751   5.690  10.770 -0.5076  0.4795 -0.3949
  598MOL0     C80659  -0.781   5.797  10.807  0.6073  0.1855 -0.0422
  598MOL0     C80660  -0.171   5.609  10.600 -1.3382  0.5263  0.2591
  598MOL0     C80661  -0.033   5.589  10.652 -0.1038  0.9180 -0.1708
  598MOL0     C80662   0.013   5.663  10.777  0.1218 -0.1532  0.3631
  598MOL0     H80663   0.396   5.388  10.391 -1.5278 -0.7428  0.5208
  598MOL0     H80664   0.651   5.364  10.402  0.5981 -0.0493  0.3105
  598MOL0     H80665   0.847   5.466  10.586  1.1343 -0.9691  0.5218
  598MOL0     H80666   0.778   5.430  10.742 -0.9852 -1.0286  1.0894
  598MOL0     H80667   1.047   5.437  10.694  0.4884  0.2048 -0.3061
  598MOL0     H80668   1.035   5.276  10.655  0.2244 -1.2033 -0.2799
  598MOL0     H80669   0.928   5.409  10.908 -2.8077 -1.4842 -1.4601
  598MOL0     H80670   1.088   5.331  10.888  0.1202 -2.5533 -1.1469
  598MOL0     H80671   0.810   5.221  10.899 -0.2617 -0.2215 -1.3160
  598MOL0     H80672   0.915   5.122  10.798  0.1904 -1.0304  0.4192
  598MOL0     H80673   0.975   5.188  11.089 -0.3057  0.9851 -1.0156
  598MOL0     H80674   0.891   5.041  11.035 -0.8230  1.5392 -0.5369
  598MOL0     H80675   1.099   4.997  10.874  0.2233  1.1877 -0.5212
  598MOL0     H80676   1.175   5.121  10.965 -0.6548  1.5149  1.3937
  598MOL0     H80677   1.078   4.983  11.181 -3.1674  3.5724 -2.9587
  598MOL0     H80678   1.232   4.933  11.119 -0.6312  0.6193  2.1301
  598MOL0     H80679   0.961   4.814  11.109 -1.0124  1.9809  0.5921
  598MOL0     H80680   1.055   4.780  10.957  0.0588 -2.0891 -0.1796
  598MOL0     H80681   1.351   4.747  11.071 -0.8475 -0.2453 -1.2891
  598MOL0     H80682   1.488   4.449  11.062  2.2978 -0.2129  0.6870
  598MOL0     H80683   1.512   4.573  11.183  0.2335  0.1730 -2.2620
  598MOL0     H80684   1.446   4.402  11.357  2.0773 -3.5264  1.6191
  598MOL0     H80685   1.372   4.312  11.226 -0.4432 -0.2404  1.9517
  598MOL0     H80686   1.611   4.276  11.137  1.7002  1.0222  0.1546
  598MOL0     H80687   1.574   4.207  11.300 -0.9124 -0.1431  0.4087
  598MOL0     H80688   1.695   4.350  11.416 -0.3348  3.9377  0.3957
  598MOL0     H80689   1.704   4.474  11.296 -1.3731  0.2071 -0.8854
  598MOL0     H80690   1.970   4.355  11.069 -2.1170  1.9478  0.2742
  598MOL0     H80691   2.179   4.479  11.050 -1.0734  1.7002 -0.5166
  598MOL0     H80692   2.399   4.759  11.003  0.2728  4.9302  1.1988
  598MOL0     H80693   2.577   4.932  10.983 -1.3631  0.6087  0.9728
  598MOL0     H80694   2.898   4.952  11.295 -0.3510 -0.6565 -0.3859
  598MOL0     H80695   2.974   4.844  11.163 -0.3668 -0.4446 -2.3100
  598MOL0     H80696   3.124   5.019  11.178 -1.0681 -0.1115  2.8345
  598MOL0     H80697   3.038   5.066  11.032  2.8586  2.7293  0.8072
  598MOL0     H80698   3.021   5.177  11.315  1.9909 -4.4703 -0.8965
  598MOL0     H80699   3.078   5.267  11.174 -0.8790  1.7996 -0.0316
  598MOL0     H80700   2.786   5.199  11.241  1.8222  0.7980  2.5344
  598MOL0     H80701   2.836   5.243  11.089 -1.4283  0.5618  0.7109
  598MOL0     H80702   2.912   5.469  11.151  0.6813  2.7980  1.3041
  598MOL0     H80703   2.932   5.425  11.319 -0.6250 -3.1216  1.6208
  598MOL0     H80704   2.702   5.411  11.382 -2.4226  2.1997  0.5931
  598MOL0     H80705   2.717   5.566  11.305 -1.3029 -0.0160 -0.3299
  598MOL0     H80706   2.590   5.332  11.158  1.4729 -1.0525 -0.2732
  598MOL0     H80707   2.649   5.485  11.092 -1.2139  0.4180 -0.0006
  598MOL0     H80708   2.394   5.471  11.170  0.6081 -1.5585 -1.6751
  598MOL0     H80709   2.448   5.482  11.337 -1.0612  2.1158 -0.6099
  598MOL0     H80710   2.791   4.753  11.309 -1.9382  3.3477  1.8775
  598MOL0     H80711   2.626   4.568  11.313  0.5238 -1.7686 -0.6674
  598MOL0     H80712   2.167   4.543  11.478  1.8689  0.5537 -0.6118
  598MOL0     H80713   1.948   4.444  11.497  3.0318 -1.2937  0.9078
  598MOL0     H80714   0.595   5.166  10.795  1.1292  1.5563  1.0362
  598MOL0     H80715   0.348   5.166  10.747  1.6978 -0.1361  2.5845
  598MOL0     H80716   0.038   5.332  10.433  0.8743 -0.8393  2.3598
  598MOL0     H80717  -0.188   5.375  10.356  1.1007 -2.3938  0.4789
  598MOL0     H80718  -0.509   5.694  10.401 -0.5520 -1.4285  0.3872
  598MOL0     H80719  -0.373   5.758  10.501 -2.9497  1.6041  1.7570
  598MOL0     H80720  -0.508   5.732  10.663  0.3995 -0.1509 -0.4725
  598MOL0     H80721  -0.419   5.580  10.682  1.0026  1.8152  1.1423
  598MOL0     H80722  -0.606   5.448  10.568  0.5220 -1.1529  1.7383
  598MOL0     H80723  -0.677   5.607  10.527 -0.8917 -2.0616 -0.6316
  598MOL0     H80724  -0.811   5.490  10.715 -0.9740  1.5259 -0.4284
  598MOL0     H80725  -0.675   5.504  10.809 -1.8797 -1.8182  0.5079
  598MOL0     H80726  -0.803   5.893  10.849 -0.1862  1.5165 -3.2235
  598MOL0     H80727  -0.230   5.695  10.632  0.2408  2.3319 -1.3804
  598MOL0     H80728   0.035   5.589  10.854  0.8084 -0.4001 -0.0677
  598MOL0     H80729   0.096   5.732  10.761  0.7562 -1.2841 -1.4010
  598MOL0     H80730  -0.063   5.725  10.825 -2.3541 -2.5022 -0.2775
  599MOL0     O80731   6.822   5.464   8.639  0.1193 -0.1325 -0.4697
  599MOL0     C80732   6.805   5.347   8.677  0.6164 -0.6441 -0.3870
  599MOL0     O80733   6.893   5.246   8.673 -0.3048 -0.4233 -0.0170
  599MOL0     C80734   7.011   5.256   8.610 -0.3004 -0.4547 -0.1662
  599MOL0     C80735   7.126   5.261   8.689  0.8293  0.2597 -0.3331
  599MOL0     C80736   7.249   5.259   8.632  0.8974 -0.3965  0.8876
  599MOL0     C80737   7.270   5.242   8.490  0.3239  0.0205 -0.2860
  599MOL0     O80738   7.395   5.227   8.443 -0.2224  0.5676 -0.0976
  599MOL0     C80739   7.442   5.092   8.437  0.1776 -0.1751  0.8108
  599MOL0     C80740   7.599   5.092   8.411  0.5400 -0.0764 -0.4023
  599MOL0     C80741   7.674   5.141   8.535 -0.3221  0.4208 -0.8687
  599MOL0     C80742   7.826   5.153   8.501 -0.0521  0.9950 -0.5863
  599MOL0     C80743   7.901   5.245   8.596  0.1393 -0.2015 -0.0109
  599MOL0     C80744   7.870   5.395   8.560  0.8407 -0.2762  0.9521
  599MOL0     C80745   7.961   5.494   8.631 -0.2333  0.6521 -0.0608
  599MOL0     C80746   8.115   5.478   8.598  0.3538 -0.2606  0.3608
  599MOL0     N80747   8.186   5.592   8.659 -0.6273 -0.1117 -0.4835
  599MOL0     C80748   8.220   5.604   8.790  0.3703  0.8945 -1.0165
  599MOL0     C80749   8.256   5.735   8.816  0.7280  0.9239  0.2377
  599MOL0     C80750   8.289   5.785   8.947 -0.2263 -0.3902 -0.9334
  599MOL0     C80751   8.407   5.890   8.922  0.5152  0.0291 -0.8185
  599MOL0     C80752   8.515   5.856   8.817 -0.4319 -0.0825 -0.0350
  599MOL0     C80753   8.651   5.936   8.828 -0.3679  0.3773 -0.5463
  599MOL0     O80754   8.723   5.905   8.951 -0.3922 -0.2671 -0.2310
  599MOL0     C80755   8.862   5.913   8.953 -0.3736 -0.2551 -0.2560
  599MOL0     C80756   8.924   5.841   9.057  0.1861  0.4838  1.1382
  599MOL0     C80757   9.065   5.837   9.053  0.0252 -0.4629 -0.7332
  599MOL0     C80758   9.147   5.892   8.956  0.1303 -0.4322  0.3194
  599MOL0     C80759   9.293   5.876   8.945  0.0617  0.5358 -0.6336
  599MOL0     O80760   9.348   5.910   8.831 -0.4292  0.5601  0.1440
  599MOL0     C80761   9.486   5.932   8.833  0.2115  0.1843 -0.5921
  599MOL0     C80762   9.534   6.040   8.899  0.2867 -0.3327 -0.6910
  599MOL0     C80763   9.675   6.061   8.916 -0.5341 -0.1574 -0.2364
  599MOL0     C80764   9.762   5.969   8.851  0.0306 -0.3472 -0.2536
  599MOL0     O80765   9.901   5.967   8.866 -0.4611  0.0337  0.7009
  599MOL0     C80766   9.960   6.073   8.944  0.2057 -0.7526  0.2484
  599MOL0     C80767  10.118   6.076   8.939 -0.1400 -0.1410 -0.0096
  599MOL0     C80768  10.190   6.092   9.079 -0.0259  0.8888  0.2667
  599MOL0     C80769  10.221   5.953   9.148  0.3864 -0.3992 -0.0708
  599MOL0     C80770  10.264   5.960   9.299  0.2841 -0.2252  0.8628
  599MOL0     C80771  10.395   6.037   9.327 -0.1533  0.3235  0.0007
  599MOL0     C80772  10.520   5.969   9.266  0.6459  0.8118 -0.2696
  599MOL0     C80773  10.657   6.028   9.296 -0.1241  0.0967  1.2953
  599MOL0    Cl80774  10.769   5.969   9.169  0.3998 -0.3282 -0.3735
  599MOL0     C80775   9.705   5.866   8.774 -0.1956 -0.0966 -0.5577
  599MOL0     C80776   9.570   5.833   8.774  0.1447 -0.4357 -0.0573
  599MOL0     O80777   9.354   5.838   9.050  0.3907 -0.0397  1.3300
  599MOL0     C80778   9.083   5.972   8.855  0.8021 -0.2580 -0.2511
  599MOL0     C80779   8.942   5.983   8.856  0.2437 -0.3593 -0.0504
  599MOL0     N80780   8.239   5.795   8.694  1.1449 -0.9642 -0.0180
  599MOL0     N80781   8.198   5.709   8.601 -0.1107 -0.2782  0.7088
  599MOL0     C80782   7.165   5.246   8.409  0.2063  0.1721 -0.8326
  599MOL0     C80783   7.035   5.263   8.473 -0.0644  1.2219  0.2634
  599MOL0     C80784   6.674   5.324   8.741 -0.0480 -0.3234 -0.0007
  599MOL0     C80785   6.621   5.426   8.816  0.2964 -0.0223  0.3277
  599MOL0     C80786   6.500   5.408   8.884 -0.0954  0.1178  0.3639
  599MOL0     C80787   6.426   5.287   8.875 -0.4912  0.3066  0.1113
  599MOL0     O80788   6.307   5.281   8.941  0.1568  0.1834 -0.6536
  599MOL0     C80789   6.218   5.179   8.898  0.6688 -0.0252  0.9881
  599MOL0     C80790   6.097   5.168   8.991  0.0136  0.1448 -0.6980
  599MOL0     C80791   5.997   5.285   8.997 -0.0966  0.8092  0.7600
  599MOL0     C80792   5.865   5.260   9.081  0.3778  0.0142  0.7245
  599MOL0     C80793   5.804   5.126   9.068  0.4587  0.1807 -0.1926
  599MOL0     C80794   5.739   5.024   9.057  0.3142 -0.6849 -0.4901
  599MOL0     C80795   6.483   5.179   8.793  0.8706  0.3153 -0.4152
  599MOL0     C80796   6.609   5.203   8.724 -0.1220  0.4480  0.4743
  599MOL0     C80797   6.653   5.095   8.630 -0.6689  0.0131  0.4845
  599MOL0     H80798   7.111   5.269   8.796  0.2160  3.5106 -0.5517
  599MOL0     H80799   7.332   5.276   8.700 -0.3227 -0.6512  2.4801
  599MOL0     H80800   7.413   5.029   8.523 -0.5102  0.2600  0.9111
  599MOL0     H80801   7.395   5.040   8.353  0.4482 -2.8669  2.1889
  599MOL0     H80802   7.631   5.163   8.335  3.5757 -1.2653 -0.3689
  599MOL0     H80803   7.619   4.990   8.378 -3.9963 -1.6381  0.9046
  599MOL0     H80804   7.659   5.056   8.602  2.0820 -0.3322 -1.1846
  599MOL0     H80805   7.634   5.231   8.582 -1.4007 -1.0929  1.2756
  599MOL0     H80806   7.879   5.058   8.495  0.1126  1.1390 -1.4485
  599MOL0     H80807   7.840   5.190   8.399 -1.0621  0.0404 -1.0884
  599MOL0     H80808   7.863   5.236   8.698 -0.3501  0.0078 -0.1726
  599MOL0     H80809   8.010   5.233   8.603  0.4609  1.6510 -1.0072
  599MOL0     H80810   7.875   5.402   8.451 -3.5651 -0.5159  0.5667
  599MOL0     H80811   7.764   5.412   8.583 -0.0841  0.9130 -3.2757
  599MOL0     H80812   7.946   5.478   8.738 -2.0271 -0.0666 -0.3936
  599MOL0     H80813   7.930   5.598   8.618  0.7628  0.8998 -0.5645
  599MOL0     H80814   8.151   5.382   8.636  0.7338 -1.0861 -1.9248
  599MOL0     H80815   8.134   5.482   8.490 -1.3900  0.6435  0.0600
  599MOL0     H80816   8.215   5.540   8.878  0.4081  1.8426 -0.3197
  599MOL0     H80817   8.206   5.847   8.983 -1.3544 -2.9692  1.3217
  599MOL0     H80818   8.317   5.711   9.023 -0.9779 -0.2540 -0.5198
  599MOL0     H80819   8.372   5.990   8.897 -3.6243 -0.8702  0.5755
  599MOL0     H80820   8.465   5.891   9.015 -0.0072 -3.2287 -0.3596
  599MOL0     H80821   8.472   5.892   8.723 -1.4054  1.0183  0.7987
  599MOL0     H80822   8.532   5.748   8.821  2.0382  0.2145 -0.9242
  599MOL0     H80823   8.621   6.041   8.816  0.5277  0.8232  0.9060
  599MOL0     H80824   8.716   5.911   8.744 -1.3051 -0.2374 -1.1101
  599MOL0     H80825   8.880   5.793   9.144 -2.2896  0.6449  0.0468
  599MOL0     H80826   9.118   5.787   9.133  0.3349 -0.7959 -1.1371
  599MOL0     H80827   9.469   6.113   8.946 -1.0081 -1.6317 -0.3870
  599MOL0     H80828   9.709   6.138   8.984  3.0937 -1.3988 -0.3781
  599MOL0     H80829   9.934   6.164   8.887  1.1566 -1.3052 -1.1328
  599MOL0     H80830   9.921   6.076   9.046  0.2309  3.5336  0.3137
  599MOL0     H80831  10.141   5.986   8.880 -3.0233  0.2928 -2.0317
  599MOL0     H80832  10.138   6.164   8.878 -2.1158  1.8808  2.0791
  599MOL0     H80833  10.278   6.156   9.065 -1.3895  2.6216 -0.9673
  599MOL0     H80834  10.126   6.147   9.148 -0.9252 -0.4052  0.4902
  599MOL0     H80835  10.295   5.890   9.098 -0.2537 -2.4664  1.4041
  599MOL0     H80836  10.134   5.889   9.130  0.6902 -0.8424  0.0047
  599MOL0     H80837  10.272   5.862   9.347 -3.8612 -0.6582  0.9899
  599MOL0     H80838  10.179   5.998   9.358 -0.7162  0.1555 -0.7611
  599MOL0     H80839  10.383   6.140   9.290 -0.0359  0.3971  0.1642
  599MOL0     H80840  10.402   6.059   9.434  3.4650  1.2743 -0.3032
  599MOL0     H80841  10.504   5.974   9.157 -1.2933  1.6491  0.0068
  599MOL0     H80842  10.517   5.865   9.300  3.5787  0.1885 -1.5619
  599MOL0     H80843  10.653   6.137   9.286  0.3618  0.0737  0.8255
  599MOL0     H80844  10.696   6.002   9.395 -0.0600  0.2642  1.3135
  599MOL0     H80845   9.781   5.809   8.722 -1.1390 -1.4001 -0.5465
  599MOL0     H80846   9.534   5.749   8.716  3.5357 -0.7887 -1.9187
  599MOL0     H80847   9.132   6.009   8.766 -0.5824  0.4020 -0.7674
  599MOL0     H80848   8.892   6.041   8.779 -2.5752 -0.6072  1.4841
  599MOL0     H80849   7.177   5.236   8.301  0.6842  1.0280 -0.8734
  599MOL0     H80850   6.939   5.276   8.423 -1.5645  2.9336  3.3561
  599MOL0     H80851   6.672   5.521   8.827 -1.3254  0.7877  1.2561
  599MOL0     H80852   6.473   5.486   8.954  0.6943  0.5311  0.2137
  599MOL0     H80853   6.251   5.075   8.892 -1.5823 -0.7359 -2.1353
  599MOL0     H80854   6.186   5.201   8.795  0.1998 -0.4567  1.0368
  599MOL0     H80855   6.147   5.140   9.084 -1.7968 -2.2439 -0.3565
  599MOL0     H80856   6.044   5.077   8.962 -0.9624  0.6691 -0.6058
  599MOL0     H80857   5.973   5.296   8.891 -0.2401 -3.9975  0.0774
  599MOL0     H80858   6.049   5.367   9.047  0.6661 -1.6990  4.4918
  599MOL0     H80859   5.889   5.279   9.186 -1.5355  0.1919  1.1560
  599MOL0     H80860   5.791   5.336   9.055  0.0548 -0.8677 -1.0189
  599MOL0     H80861   5.687   4.930   9.051  1.5301 -1.3921 -0.3018
  599MOL0     H80862   6.436   5.082   8.782  2.4691 -0.5245 -0.2224
  599MOL0     H80863   6.748   5.048   8.654 -1.2931 -1.7763 -0.3319
  599MOL0     H80864   6.580   5.013   8.629 -1.4983  0.6991  1.6667
  599MOL0     H80865   6.662   5.131   8.527  0.0964  0.9829  0.8887
  600MOL0     O80866   9.467   0.769   2.602 -0.2196  0.4495 -0.3541
  600MOL0     C80867   9.518   0.737   2.715  0.2386  0.7670 -0.0121
  600MOL0     O80868   9.648   0.722   2.742 -0.7350  0.0147  0.5936
  600MOL0     C80869   9.733   0.768   2.644  0.4447 -0.7643  0.2592
  600MOL0     C80870   9.766   0.902   2.620  1.0396 -0.9536 -0.7301
  600MOL0     C80871   9.846   0.943   2.512  0.2681 -0.0210 -0.6116
  600MOL0     C80872   9.925   0.852   2.452 -0.2274  0.7962  0.0524
  600MOL0     O80873  10.022   0.877   2.360 -0.2610  0.2791 -0.2451
  600MOL0     C80874   9.998   0.963   2.246  0.0906 -0.3146  0.2896
  600MOL0     C80875  10.125   0.986   2.159  0.0352  1.0335 -0.1862
  600MOL0     C80876  10.105   1.093   2.053 -0.1590 -0.4592 -0.2181
  600MOL0     C80877  10.215   1.083   1.944  0.4612  0.0248  0.4478
  600MOL0     C80878  10.342   1.129   2.015 -0.9702  0.0905 -0.0333
  600MOL0     C80879  10.449   1.184   1.912 -0.0849 -0.0821 -0.3223
  600MOL0     C80880  10.460   1.330   1.885 -0.3629  0.3608 -0.4549
  600MOL0     C80881  10.533   1.411   2.003 -0.6601  0.4861 -0.2046
  600MOL0     N80882  10.437   1.434   2.110  0.6061 -0.3571 -1.2498
  600MOL0     C80883  10.312   1.492   2.109 -0.2120  0.4969  0.4662
  600MOL0     C80884  10.266   1.480   2.233 -0.1167 -0.7103 -0.5168
  600MOL0     C80885  10.134   1.549   2.268 -1.1366 -0.0986 -0.1057
  600MOL0     C80886  10.106   1.503   2.412  0.0712 -1.1544 -0.5717
  600MOL0     C80887  10.190   1.595   2.520  0.2430  0.3753 -0.6560
  600MOL0     C80888  10.179   1.528   2.664 -0.2646  0.3556  0.3743
  600MOL0     O80889  10.038   1.497   2.709  0.0564  0.6240  0.1958
  600MOL0     C80890   9.951   1.607   2.707  0.1060  1.6998  0.4818
  600MOL0     C80891   9.811   1.570   2.704 -1.3202 -0.3055 -0.2356
  600MOL0     C80892   9.709   1.670   2.699  0.6016  1.0683 -0.0334
  600MOL0     C80893   9.746   1.805   2.717 -0.1857  0.0015 -0.1983
  600MOL0     C80894   9.641   1.909   2.706  0.1702 -0.6926 -0.1895
  600MOL0     O80895   9.506   1.874   2.708 -0.2451  0.2958 -0.1345
  600MOL0     C80896   9.408   1.965   2.674 -0.2308  0.4515  0.4703
  600MOL0     C80897   9.415   2.035   2.552 -0.9308  0.0984  0.3781
  600MOL0     C80898   9.317   2.120   2.509 -0.1501  0.0101  0.4446
  600MOL0     C80899   9.201   2.143   2.589  0.5011 -0.7167 -0.9757
  600MOL0     O80900   9.106   2.238   2.556  0.2536  0.4560 -0.0739
  600MOL0     C80901   9.095   2.278   2.421 -0.2489 -0.3064  0.1781
  600MOL0     C80902   9.036   2.185   2.321 -0.2796 -0.4120 -0.2113
  600MOL0     C80903   8.893   2.176   2.358 -0.3355  0.5348 -0.4423
  600MOL0     C80904   8.831   2.064   2.261 -0.1285 -0.7887  0.3775
  600MOL0     C80905   8.691   2.027   2.296  0.7660  0.4661  0.2920
  600MOL0     C80906   8.641   1.924   2.198 -0.0606  0.4374  0.4760
  600MOL0     C80907   8.614   1.967   2.057  0.2283 -0.9331  0.3570
  600MOL0     C80908   8.559   2.106   2.032  0.1669  0.2988 -0.0214
  600MOL0    Cl80909   8.471   2.101   1.872 -0.0929 -0.3983  0.0069
  600MOL0     C80910   9.189   2.062   2.702 -0.1666  0.1315 -0.3751
  600MOL0     C80911   9.292   1.975   2.745  0.6373 -0.7246  0.8470
  600MOL0     O80912   9.678   2.023   2.674 -0.3037 -0.3137 -0.7536
  600MOL0     C80913   9.884   1.839   2.723  0.2056  0.0671 -0.2454
  600MOL0     C80914   9.978   1.740   2.727 -0.2443  0.2609  0.6195
  600MOL0     N80915  10.359   1.416   2.307  0.1819 -0.1730 -0.4934
  600MOL0     N80916  10.450   1.380   2.230 -0.1159 -0.2477 -1.1014
  600MOL0     C80917   9.912   0.719   2.489 -0.2774 -0.8825 -0.7840
  600MOL0     C80918   9.814   0.675   2.580  0.3744  0.1746  0.3007
  600MOL0     C80919   9.421   0.698   2.820  0.4562  0.4426 -0.0666
  600MOL0     C80920   9.424   0.568   2.871  0.0933 -1.0020 -0.4181
  600MOL0     C80921   9.320   0.529   2.958 -0.3054  0.3104  0.2050
  600MOL0     C80922   9.211   0.604   2.984  0.3895  0.1154 -0.5834
  600MOL0     O80923   9.107   0.569   3.068  0.0066  0.7967  0.6683
  600MOL0     C80924   9.124   0.458   3.157 -0.1699 -0.3895 -0.1539
  600MOL0     C80925   8.993   0.423   3.240 -0.1763 -0.2093  0.1039
  600MOL0     C80926   8.950   0.547   3.315  0.0942  0.1399  0.9680
  600MOL0     C80927   8.856   0.629   3.225  0.4488 -0.2307 -0.1800
  600MOL0     C80928   8.819   0.766   3.278  0.6489  0.8718 -0.2790
  600MOL0     C80929   8.790   0.868   3.329 -0.9050 -1.3889 -0.7806
  600MOL0     C80930   9.208   0.735   2.935  0.1058 -0.7589 -0.4556
  600MOL0     C80931   9.312   0.781   2.856  0.1300 -0.0099  0.4618
  600MOL0     C80932   9.299   0.930   2.803  0.4872  0.7247 -0.7026
  600MOL0     H80933   9.712   0.977   2.677  2.6422 -0.0314 -0.3669
  600MOL0     H80934   9.835   1.050   2.499  2.2294  0.3129  0.1693
  600MOL0     H80935   9.920   0.909   2.192 -1.0652  1.5029  0.0572
  600MOL0     H80936   9.965   1.063   2.277 -4.5153 -0.9556 -1.6730
  600MOL0     H80937  10.145   0.891   2.107 -0.7923  1.0350 -0.5281
  600MOL0     H80938  10.203   1.016   2.230 -1.5025  1.3869  1.4202
  600MOL0     H80939  10.094   1.192   2.097  1.3345  0.2905 -1.4431
  600MOL0     H80940  10.010   1.074   2.001  0.8972 -0.6090 -2.1620
  600MOL0     H80941  10.215   0.977   1.918 -0.8507 -0.8065  3.4508
  600MOL0     H80942  10.191   1.147   1.859  0.7165 -0.4649  0.0022
  600MOL0     H80943  10.314   1.197   2.096 -2.8690  0.1239 -0.6666
  600MOL0     H80944  10.375   1.043   2.072 -3.1303 -1.9614 -1.6738
  600MOL0     H80945  10.550   1.153   1.941  0.3698  1.8239  0.2708
  600MOL0     H80946  10.429   1.130   1.819  0.1533 -0.6645 -0.0423
  600MOL0     H80947  10.362   1.372   1.859  0.5229  1.8907 -1.5352
  600MOL0     H80948  10.532   1.339   1.803  1.1020 -2.1533  0.4675
  600MOL0     H80949  10.613   1.349   2.043  0.3939  2.1753  0.3972
  600MOL0     H80950  10.582   1.502   1.968 -0.2159  0.5465  0.5723
  600MOL0     H80951  10.257   1.553   2.039 -1.5369 -0.9850  0.1668
  600MOL0     H80952  10.142   1.658   2.263 -2.0056  0.0488  1.1276
  600MOL0     H80953  10.055   1.508   2.205 -2.1733  1.1948  0.3064
  600MOL0     H80954  10.001   1.520   2.436  0.5417  0.1359  0.7303
  600MOL0     H80955  10.126   1.397   2.433  0.1286 -1.4131 -1.8388
  600MOL0     H80956  10.149   1.696   2.526  1.1584  0.7553 -0.6628
  600MOL0     H80957  10.294   1.594   2.484  0.6256  1.2618  0.3538
  600MOL0     H80958  10.243   1.573   2.740  1.6635  0.3618 -1.1674
  600MOL0     H80959  10.222   1.428   2.661 -0.8406  0.0831  0.9982
  600MOL0     H80960   9.784   1.465   2.700 -2.9465  0.1132 -2.7574
  600MOL0     H80961   9.607   1.636   2.683  1.3565 -1.6651  0.4934
  600MOL0     H80962   9.481   2.013   2.468 -2.8805  0.0603 -1.2036
  600MOL0     H80963   9.319   2.174   2.415 -0.7648  2.4982  1.7808
  600MOL0     H80964   9.034   2.369   2.428  2.0103  1.2492  0.7572
  600MOL0     H80965   9.179   2.333   2.377 -4.3576  3.2476 -4.4094
  600MOL0     H80966   9.038   2.237   2.225  0.9241  0.2301  0.1369
  600MOL0     H80967   9.095   2.092   2.320  1.2995  0.5278 -2.3177
  600MOL0     H80968   8.888   2.130   2.458 -1.3873 -0.4850 -0.9422
  600MOL0     H80969   8.840   2.271   2.361  2.7069  2.3588  0.2247
  600MOL0     H80970   8.890   1.971   2.261  0.0357 -0.6955  1.6043
  600MOL0     H80971   8.835   2.108   2.161  0.9488  0.9949  1.1648
  600MOL0     H80972   8.622   2.111   2.305 -2.0573 -1.2890 -2.7407
  600MOL0     H80973   8.685   1.970   2.390  1.1892 -1.4728 -0.7918
  600MOL0     H80974   8.712   1.841   2.198 -2.0434 -1.3956  2.6724
  600MOL0     H80975   8.539   1.902   2.233 -0.5762  1.0848 -0.5594
  600MOL0     H80976   8.544   1.895   2.013  1.1237 -1.2698 -0.5424
  600MOL0     H80977   8.711   1.957   2.008  1.7033  0.9422  2.6770
  600MOL0     H80978   8.486   2.124   2.112  0.2686  4.4442 -0.5984
  600MOL0     H80979   8.628   2.190   2.017 -0.5223  0.3974 -3.3745
  600MOL0     H80980   9.105   2.081   2.768  1.3993  1.3847  1.3629
  600MOL0     H80981   9.276   1.928   2.842 -1.4660 -1.9462 -0.0358
  600MOL0     H80982   9.913   1.944   2.732  2.6203 -0.7320  3.1711
  600MOL0     H80983  10.083   1.757   2.749 -0.1407 -1.0796  1.2680
  600MOL0     H80984   9.994   0.654   2.459  0.0791 -0.7189 -0.1681
  600MOL0     H80985   9.799   0.574   2.618  1.2010 -0.5624 -1.2454
  600MOL0     H80986   9.508   0.504   2.845 -0.8238 -1.8924 -1.2636
  600MOL0     H80987   9.332   0.426   2.989  1.4251 -0.3749 -2.3855
  600MOL0     H80988   9.215   0.469   3.217  0.4207 -1.2922 -0.8579
  600MOL0     H80989   9.154   0.368   3.102  1.5685 -0.8115  1.3732
  600MOL0     H80990   9.013   0.349   3.317 -0.3805 -0.6956 -0.3037
  600MOL0     H80991   8.918   0.381   3.173  2.4837 -0.8755 -2.7113
  600MOL0     H80992   9.037   0.604   3.350  1.2564  0.1729 -1.7268
  600MOL0     H80993   8.890   0.508   3.398 -0.2588 -1.1310  0.1335
  600MOL0     H80994   8.899   0.636   3.124  1.7467 -1.9282  0.2055
  600MOL0     H80995   8.769   0.564   3.226  0.9577 -0.9442  1.9068
  600MOL0     H80996   8.750   0.956   3.376 -0.2809 -1.1536 -0.6756
  600MOL0     H80997   9.115   0.785   2.961  0.1549 -0.2433 -1.2264
  600MOL0     H80998   9.242   0.931   2.710 -1.1412 -1.8389  0.1774
  600MOL0     H80999   9.247   0.985   2.881 -1.5689  0.7452 -2.0231
  600MOL0     H81000   9.401   0.969   2.792  1.2513 -0.7827  0.5478
  601MOL0     O81001   4.778   4.061   2.613  0.2849  0.3698 -0.2465
  601MOL0     C81002   4.679   3.980   2.596  0.3548 -0.4878  0.0510
  601MOL0     O81003   4.688   3.852   2.558 -0.6131 -0.1147  0.3972
  601MOL0     C81004   4.816   3.806   2.525 -0.7702 -0.1366  0.3335
  601MOL0     C81005   4.895   3.866   2.425 -0.8136 -0.1804  0.0063
  601MOL0     C81006   5.015   3.799   2.395 -0.8562  1.3225 -0.4141
  601MOL0     C81007   5.057   3.684   2.466 -0.0803 -0.3380 -0.2180
  601MOL0     O81008   5.166   3.609   2.426 -0.0377 -0.5629 -0.5864
  601MOL0     C81009   5.289   3.687   2.434  0.0324  1.0636 -0.3879
  601MOL0     C81010   5.376   3.647   2.316 -0.2317  0.2867  0.1643
  601MOL0     C81011   5.329   3.738   2.196 -0.9089  0.0486 -0.6804
  601MOL0     C81012   5.407   3.695   2.076 -0.8361  0.7834  0.4129
  601MOL0     C81013   5.410   3.807   1.961  0.3005  0.2412  0.6926
  601MOL0     C81014   5.502   3.777   1.846 -0.2304  0.7095 -0.2489
  601MOL0     C81015   5.465   3.848   1.716 -1.0106 -0.4328  0.7103
  601MOL0     C81016   5.554   3.805   1.594  0.7126  0.1972  0.0838
  601MOL0     N81017   5.677   3.877   1.589  0.3703  0.4090  0.4040
  601MOL0     C81018   5.703   4.008   1.626 -0.0185  0.6341  0.0902
  601MOL0     C81019   5.830   4.027   1.586  0.6374  0.2039 -0.0158
  601MOL0     C81020   5.898   4.156   1.626  0.2811 -0.2852 -0.5564
  601MOL0     C81021   5.962   4.149   1.763  0.7192 -0.3008  0.4557
  601MOL0     C81022   6.002   4.291   1.800  0.4565 -0.2068  0.0879
  601MOL0     C81023   6.072   4.300   1.927  0.0514  0.0194  0.0631
  601MOL0     O81024   6.112   4.435   1.958  0.2655 -0.2278  0.0976
  601MOL0     C81025   6.189   4.471   2.071 -0.5622  0.3961 -0.0294
  601MOL0     C81026   6.230   4.368   2.151  0.2696  0.4255  0.3610
  601MOL0     C81027   6.306   4.405   2.269 -0.2110 -0.0222  0.2248
  601MOL0     C81028   6.345   4.539   2.300 -0.2021  0.6094  0.1773
  601MOL0     C81029   6.443   4.568   2.411 -0.4236  0.0494  0.5736
  601MOL0     O81030   6.509   4.455   2.456 -0.2433 -0.4807  0.3619
  601MOL0     C81031   6.599   4.473   2.554  0.2406  0.0155  0.3192
  601MOL0     C81032   6.710   4.558   2.546  0.0145 -0.2826  0.5997
  601MOL0     C81033   6.805   4.558   2.647  0.2773 -0.9810 -0.0038
  601MOL0     C81034   6.796   4.480   2.762 -1.0200 -0.0374  0.4874
  601MOL0     O81035   6.888   4.492   2.865  0.4442 -0.6286  0.6023
  601MOL0     C81036   6.962   4.375   2.907  0.2009  0.7446  0.4455
  601MOL0     C81037   7.075   4.409   2.998 -0.6796  0.3271  0.6494
  601MOL0     C81038   7.223   4.417   2.941  0.2630  0.5978 -0.2915
  601MOL0     C81039   7.306   4.497   3.035  0.2782  0.1180  0.8158
  601MOL0     C81040   7.440   4.541   2.973  0.4457  0.6815  0.5658
  601MOL0     C81041   7.554   4.474   3.061 -0.8959  0.6834  0.0848
  601MOL0     C81042   7.691   4.527   3.028 -0.8345  0.2032 -0.2877
  601MOL0     C81043   7.796   4.453   3.102  0.6924  0.5595  0.1217
  601MOL0    Cl81044   7.942   4.511   3.021 -0.3534 -0.2888 -0.5319
  601MOL0     C81045   6.698   4.385   2.765  0.7444 -0.2981  0.0828
  601MOL0     C81046   6.599   4.384   2.663 -0.1148 -0.6484  0.4095
  601MOL0     O81047   6.443   4.683   2.466 -1.1419  0.0605 -0.1736
  601MOL0     C81048   6.302   4.632   2.203  0.8621  0.6424 -0.6945
  601MOL0     C81049   6.220   4.597   2.090 -0.2050 -0.9093 -0.1275
  601MOL0     N81050   5.875   3.919   1.512 -0.1164  0.5392  0.4232
  601MOL0     N81051   5.784   3.829   1.524 -0.6460  0.0846  0.6903
  601MOL0     C81052   4.966   3.623   2.561  0.0982 -0.9662  0.2654
  601MOL0     C81053   4.847   3.689   2.591  0.4449  0.5336  0.6811
  601MOL0     C81054   4.534   4.021   2.619  0.1003 -0.4066  1.1172
  601MOL0     C81055   4.437   3.925   2.642  0.1250 -0.0285 -0.1994
  601MOL0     C81056   4.304   3.944   2.682  1.0342 -0.3486  0.3935
  601MOL0     C81057   4.266   4.079   2.706 -0.1636 -0.3109  0.8094
  601MOL0     O81058   4.133   4.107   2.741  0.0653  0.1045  0.0523
  601MOL0     C81059   4.063   4.165   2.630  0.2974  0.6526 -0.2224
  601MOL0     C81060   3.909   4.180   2.654 -0.0204  0.7081  0.3101
  601MOL0     C81061   3.873   4.278   2.762  0.6838 -0.4829  1.1159
  601MOL0     C81062   3.785   4.402   2.714 -0.1115 -0.1646 -0.4824
  601MOL0     C81063   3.853   4.478   2.608  0.5664 -0.0643 -0.7821
  601MOL0     C81064   3.897   4.547   2.519  0.0301 -0.0552  0.4645
  601MOL0     C81065   4.356   4.182   2.682  0.6975  0.2521 -0.5307
  601MOL0     C81066   4.487   4.154   2.635  0.3086  0.1133  0.1425
  601MOL0     C81067   4.569   4.273   2.612  0.0959  0.4733 -0.7614
  601MOL0     H81068   4.866   3.960   2.379  2.3940  0.5584 -0.7663
  601MOL0     H81069   5.081   3.827   2.314  2.7554 -1.5083  1.2881
  601MOL0     H81070   5.269   3.794   2.438 -1.3820  0.7942  0.2705
  601MOL0     H81071   5.335   3.651   2.527 -1.2854 -1.4938 -0.6375
  601MOL0     H81072   5.361   3.540   2.300  0.6901 -0.2555  2.4966
  601MOL0     H81073   5.483   3.664   2.329  0.0183  0.7409 -2.1308
  601MOL0     H81074   5.362   3.841   2.212  3.3371 -0.7677 -2.5860
  601MOL0     H81075   5.223   3.728   2.175 -1.5132  3.1283  0.3503
  601MOL0     H81076   5.513   3.673   2.095 -0.6187  0.9153 -0.5474
  601MOL0     H81077   5.360   3.607   2.032  1.7714 -0.5068 -0.0106
  601MOL0     H81078   5.312   3.836   1.924  1.3681  1.2600 -1.5752
  601MOL0     H81079   5.456   3.895   2.007 -1.4908  2.1072 -0.9255
  601MOL0     H81080   5.603   3.803   1.880 -0.9272 -0.0229  2.6853
  601MOL0     H81081   5.497   3.669   1.830 -0.0069  0.5743  0.5574
  601MOL0     H81082   5.465   3.957   1.727 -2.7868 -0.0512 -2.0383
  601MOL0     H81083   5.362   3.817   1.696  0.0723 -2.3599 -2.7422
  601MOL0     H81084   5.570   3.698   1.612 -0.7289 -0.1656 -0.6250
  601MOL0     H81085   5.500   3.809   1.499 -1.1435  0.2463  1.1048
  601MOL0     H81086   5.650   4.083   1.683 -1.3963  3.1373 -4.0844
  601MOL0     H81087   5.984   4.161   1.558  2.0415 -3.7700  1.1766
  601MOL0     H81088   5.845   4.248   1.600  0.3998  0.2768  1.0720
  601MOL0     H81089   5.888   4.109   1.832  0.3749  2.5426  1.8995
  601MOL0     H81090   6.049   4.083   1.760  0.4287 -0.6586 -0.4655
  601MOL0     H81091   5.911   4.352   1.797 -1.3695 -2.8152 -0.7277
  601MOL0     H81092   6.071   4.330   1.724  1.1156  0.1906  0.8763
  601MOL0     H81093   6.157   4.231   1.923  1.3723  1.5792  0.2237
  601MOL0     H81094   6.009   4.260   2.007 -1.2383 -1.9364 -1.8332
  601MOL0     H81095   6.231   4.262   2.128  0.8245  0.5394 -0.1718
  601MOL0     H81096   6.344   4.321   2.327 -1.0796  0.4335  1.5090
  601MOL0     H81097   6.719   4.643   2.478  0.7104 -1.7164 -1.1869
  601MOL0     H81098   6.892   4.622   2.655 -2.1415  2.4664  1.0302
  601MOL0     H81099   6.890   4.301   2.943  0.2914  1.2029  1.6272
  601MOL0     H81100   6.996   4.327   2.814  0.4396 -0.5060  1.1505
  601MOL0     H81101   7.050   4.501   3.051 -2.8681  0.4410 -0.4767
  601MOL0     H81102   7.074   4.343   3.085  2.4243 -0.2310  0.3904
  601MOL0     H81103   7.272   4.320   2.933  0.8471  0.9226 -0.7389
  601MOL0     H81104   7.207   4.458   2.841 -1.0723  0.2635 -0.2378
  601MOL0     H81105   7.305   4.439   3.128  0.1579  0.6487  1.1535
  601MOL0     H81106   7.247   4.589   3.045 -1.6656 -0.9263 -0.4491
  601MOL0     H81107   7.450   4.648   2.994  4.3489  0.4409  0.6920
  601MOL0     H81108   7.440   4.511   2.868 -4.8219 -0.6989  0.6613
  601MOL0     H81109   7.538   4.507   3.164  1.8662 -0.4113  0.9925
  601MOL0     H81110   7.548   4.365   3.061 -1.3140  0.7018  0.6602
  601MOL0     H81111   7.699   4.635   3.045 -0.2264  0.0881  0.2216
  601MOL0     H81112   7.720   4.514   2.923  3.1942  1.2759  0.5079
  601MOL0     H81113   7.793   4.482   3.208 -3.1371 -2.5284  1.0747
  601MOL0     H81114   7.776   4.347   3.087 -0.6967  0.7833  0.2857
  601MOL0     H81115   6.704   4.316   2.849 -1.5546 -3.3125 -2.0068
  601MOL0     H81116   6.522   4.307   2.667  0.8224 -1.8747 -2.5068
  601MOL0     H81117   6.342   4.732   2.217  1.9150  0.2538 -0.8339
  601MOL0     H81118   6.200   4.671   2.012 -0.2711 -0.6462  0.1393
  601MOL0     H81119   5.003   3.529   2.602  0.2172 -1.0017  0.0775
  601MOL0     H81120   4.780   3.644   2.664  1.4888 -2.6219 -0.1491
  601MOL0     H81121   4.471   3.823   2.636  0.9949  0.2076  0.5966
  601MOL0     H81122   4.222   3.873   2.680 -0.8984  1.4764 -5.0235
  601MOL0     H81123   4.072   4.090   2.551  2.1099 -0.5373  1.0359
  601MOL0     H81124   4.100   4.263   2.602 -0.0897  0.9828  0.3966
  601MOL0     H81125   3.874   4.085   2.694  0.1972  0.4210 -0.1737
  601MOL0     H81126   3.866   4.207   2.557  4.2223  2.5517 -1.3551
  601MOL0     H81127   3.968   4.315   2.800  1.5955 -2.8403  1.3044
  601MOL0     H81128   3.813   4.230   2.839 -1.4244 -2.3102 -1.4650
  601MOL0     H81129   3.692   4.365   2.669 -0.6617  0.1732  0.3336
  601MOL0     H81130   3.768   4.468   2.799  2.0707  0.6972 -0.6710
  601MOL0     H81131   3.941   4.612   2.446  1.0937  0.8420  1.8468
  601MOL0     H81132   4.325   4.284   2.700  2.1131  0.7065 -0.5612
  601MOL0     H81133   4.625   4.279   2.706 -0.3737 -1.2171 -0.3327
  601MOL0     H81134   4.629   4.247   2.524 -1.1496 -0.0621 -1.4795
  601MOL0     H81135   4.510   4.362   2.590 -2.0373 -0.4166  1.0303
  602MOL0     O81136   7.452  10.015   5.233 -0.0378  0.3360  0.3092
  602MOL0     C81137   7.334  10.024   5.201  0.4602  0.0367  0.7341
  602MOL0     O81138   7.294  10.049   5.073  0.4038  0.7380  0.0110
  602MOL0     C81139   7.387  10.046   4.973  0.2490  0.6321 -0.1672
  602MOL0     C81140   7.437  10.158   4.919 -0.6590 -0.5157  0.8382
  602MOL0     C81141   7.537  10.150   4.817  0.7497  0.1117  0.1698
  602MOL0     C81142   7.596  10.025   4.786  0.0741 -0.1794 -0.4476
  602MOL0     O81143   7.694  10.002   4.689 -0.6124  0.7969 -0.3918
  602MOL0     C81144   7.825  10.065   4.709  0.2107  0.6933  0.0162
  602MOL0     C81145   7.924   9.976   4.798  0.3051 -0.7758  0.3712
  602MOL0     C81146   8.073  10.012   4.749 -0.3333 -0.6717  0.8024
  602MOL0     C81147   8.186   9.950   4.840  0.2082  0.4912  1.0399
  602MOL0     C81148   8.322   9.930   4.777  1.0958  0.2314  0.6819
  602MOL0     C81149   8.382  10.063   4.717  0.5333  0.3758 -0.3962
  602MOL0     C81150   8.518  10.039   4.643  1.0996 -0.0182  1.4715
  602MOL0     C81151   8.626   9.991   4.732 -1.2171 -0.3211 -0.9212
  602MOL0     N81152   8.750   9.971   4.652  0.4040  0.3608 -0.0439
  602MOL0     C81153   8.849  10.059   4.617  0.4030 -0.0905  0.8388
  602MOL0     C81154   8.925   9.986   4.534  0.2871  0.3268  0.1504
  602MOL0     C81155   9.052  10.055   4.488  0.1128  0.6259 -0.7699
  602MOL0     C81156   9.142  10.084   4.600 -0.9210 -0.8224 -0.2931
  602MOL0     C81157   9.263  10.176   4.560 -0.2843 -0.0548  0.6098
  602MOL0     C81158   9.325  10.244   4.685  1.1711 -0.2104  1.2996
  602MOL0     O81159   9.443  10.316   4.663 -0.3194  0.5125  0.7379
  602MOL0     C81160   9.561  10.237   4.681 -0.1640 -0.3409 -0.3053
  602MOL0     C81161   9.578  10.101   4.669  0.2671 -0.3261  0.1904
  602MOL0     C81162   9.695  10.044   4.680 -1.2526 -0.2761 -0.1367
  602MOL0     C81163   9.814  10.121   4.692 -0.5598  0.0828 -0.6696
  602MOL0     C81164   9.954  10.071   4.674  0.1849 -0.4391  0.1574
  602MOL0     O81165  10.053  10.154   4.715  0.6315 -0.0417  0.2678
  602MOL0     C81166  10.175  10.102   4.726 -0.3335  0.8107 -0.0981
  602MOL0     C81167  10.215  10.025   4.833  0.3679  0.6303 -0.4791
  602MOL0     C81168  10.347   9.976   4.838 -0.3919 -1.0679 -0.5527
  602MOL0     C81169  10.436  10.007   4.735 -0.8741  0.1509  0.0728
  602MOL0     O81170  10.564   9.954   4.731  1.1329  0.4393  0.3016
  602MOL0     C81171  10.598   9.836   4.802  0.0338  0.1079  0.2469
  602MOL0     C81172  10.732   9.780   4.762 -0.4258 -0.5174 -0.7058
  602MOL0     C81173  10.733   9.714   4.623 -0.6405 -0.1284 -0.4892
  602MOL0     C81174  10.877   9.671   4.580 -0.3880  0.0184  0.9631
  602MOL0     C81175  10.890   9.682   4.424 -0.0574 -0.2366 -0.3819
  602MOL0     C81176  11.022   9.604   4.392 -0.1788 -0.3799  0.0145
  602MOL0     C81177  11.063   9.567   4.253 -0.9748  0.6526 -0.3950
  602MOL0     C81178  10.964   9.489   4.167 -0.4904 -0.2024  0.1270
  602MOL0    Cl81179  10.847   9.600   4.096  0.4929  0.2870  0.0846
  602MOL0     C81180  10.400  10.100   4.639 -0.8198  0.0883  0.8446
  602MOL0     C81181  10.271  10.142   4.636 -0.3236 -0.5997  0.5844
  602MOL0     O81182   9.974   9.958   4.626  0.1737 -0.1597  0.3543
  602MOL0     C81183   9.806  10.257   4.702  0.3705  0.0196 -0.3271
  602MOL0     C81184   9.681  10.313   4.708 -0.1682 -0.2900  0.5820
  602MOL0     N81185   8.877   9.861   4.509  0.6037 -0.1808 -0.1072
  602MOL0     N81186   8.768   9.857   4.579 -0.3945  0.1292  1.1125
  602MOL0     C81187   7.542   9.910   4.837  0.0551  0.5360 -0.3740
  602MOL0     C81188   7.443   9.914   4.934 -0.4488 -0.7561  0.5383
  602MOL0     C81189   7.222  10.024   5.296 -0.4948 -1.6375 -0.2332
  602MOL0     C81190   7.107  10.103   5.266  0.2778 -0.0356 -0.5746
  602MOL0     C81191   7.004  10.109   5.362 -0.3377 -0.4871 -0.0321
  602MOL0     C81192   7.023  10.055   5.490  0.0550  0.4290 -0.6080
  602MOL0     O81193   6.938  10.047   5.590  0.3084 -0.2504  0.0883
  602MOL0     C81194   6.830  10.139   5.578  0.3651  0.8142 -0.2692
  602MOL0     C81195   6.753  10.114   5.711  0.5344 -0.1451  0.2319
  602MOL0     C81196   6.665  10.229   5.731  0.3420 -0.0254  0.3489
  602MOL0     C81197   6.527  10.205   5.669  0.1951  0.0591  0.0944
  602MOL0     C81198   6.428  10.311   5.696 -0.8504  0.3652 -0.4666
  602MOL0     C81199   6.348  10.397   5.713  0.1850 -0.8928 -0.1073
  602MOL0     C81200   7.132   9.983   5.516  0.7892  0.3123 -0.2677
  602MOL0     C81201   7.223   9.959   5.418 -0.7569 -0.0148 -0.3188
  602MOL0     C81202   7.342   9.874   5.459 -0.7621  0.6115 -0.4352
  602MOL0     H81203   7.391  10.254   4.938 -1.2488 -0.2132 -1.7741
  602MOL0     H81204   7.577  10.241   4.774  0.6455 -0.7039 -1.7805
  602MOL0     H81205   7.855  10.077   4.605 -0.7108 -2.7944 -0.8042
  602MOL0     H81206   7.809  10.164   4.751 -1.6912 -0.1426  1.4354
  602MOL0     H81207   7.904   9.870   4.782  0.4732 -0.4963 -2.0677
  602MOL0     H81208   7.899  10.005   4.900 -3.2422  2.0055 -1.0866
  602MOL0     H81209   8.085  10.120   4.745 -1.0247 -0.5140 -4.6582
  602MOL0     H81210   8.089   9.969   4.650  0.7941 -1.2565  1.2194
  602MOL0     H81211   8.195  10.016   4.927 -1.1385  1.2460  0.6472
  602MOL0     H81212   8.143   9.856   4.875 -1.1203  0.4113 -0.6865
  602MOL0     H81213   8.380   9.883   4.856  2.4393 -2.6750 -1.8520
  602MOL0     H81214   8.319   9.849   4.704 -0.7108 -0.4514  1.4570
  602MOL0     H81215   8.305  10.111   4.655  1.2029  0.0850 -1.4930
  602MOL0     H81216   8.397  10.140   4.792 -0.0923 -0.7168  0.8949
  602MOL0     H81217   8.550  10.135   4.600 -1.3981  0.0421 -0.4779
  602MOL0     H81218   8.512   9.960   4.568 -1.4794  1.3793  0.0802
  602MOL0     H81219   8.645  10.070   4.806 -1.4334 -1.2461  0.1654
  602MOL0     H81220   8.585   9.901   4.781 -0.0995 -0.1842  0.3445
  602MOL0     H81221   8.849  10.160   4.657  1.2177  0.1890  0.1529
  602MOL0     H81222   9.106   9.996   4.414 -0.9900 -0.3252 -0.8295
  602MOL0     H81223   9.023  10.145   4.433 -0.3946 -0.1860 -1.8594
  602MOL0     H81224   9.084  10.136   4.676 -2.1930  0.1862 -1.8917
  602MOL0     H81225   9.184   9.990   4.637  0.5297 -1.1665 -2.5910
  602MOL0     H81226   9.230  10.248   4.484 -2.4420 -1.3646  0.2247
  602MOL0     H81227   9.326  10.102   4.511 -1.0954 -2.3049  2.7782
  602MOL0     H81228   9.336  10.169   4.765 -0.8247 -0.7253  1.1597
  602MOL0     H81229   9.262  10.330   4.707  0.3653 -0.4866  0.1581
  602MOL0     H81230   9.493  10.039   4.641  0.3996 -1.3580  1.9111
  602MOL0     H81231   9.700   9.938   4.659 -2.4730 -0.1880 -0.9553
  602MOL0     H81232  10.144   9.998   4.911  0.0132  1.7442 -0.3925
  602MOL0     H81233  10.393   9.912   4.913  1.1162 -2.7640 -2.7803
  602MOL0     H81234  10.628   9.870   4.902  1.8363 -1.6212  0.3564
  602MOL0     H81235  10.525   9.754   4.806  1.9074 -1.8313 -2.2022
  602MOL0     H81236  10.802   9.864   4.764 -1.3257  0.2553 -0.9515
  602MOL0     H81237  10.767   9.698   4.826 -1.3476 -1.1446 -0.9870
  602MOL0     H81238  10.668   9.626   4.629  1.6949 -1.9250 -0.2222
  602MOL0     H81239  10.693   9.787   4.552 -0.9599 -0.9825 -1.1985
  602MOL0     H81240  10.895   9.572   4.622 -0.6548  0.2577  1.6496
  602MOL0     H81241  10.948   9.741   4.625 -1.6046 -0.0106  3.0370
  602MOL0     H81242  10.894   9.785   4.389  3.5816 -0.2519 -0.3768
  602MOL0     H81243  10.808   9.628   4.375 -1.3519 -1.0102  2.4250
  602MOL0     H81244  11.100   9.671   4.427  1.0689 -0.7274 -1.9478
  602MOL0     H81245  11.022   9.513   4.453  1.9795 -0.8263 -0.5730
  602MOL0     H81246  11.157   9.511   4.256 -2.2222 -1.7400 -2.2227
  602MOL0     H81247  11.089   9.661   4.204  1.2425 -0.5861 -1.7684
  602MOL0     H81248  11.030   9.444   4.092  0.5044 -0.4024  1.0885
  602MOL0     H81249  10.918   9.417   4.234  0.8886 -1.6107 -0.3863
  602MOL0     H81250  10.460  10.128   4.553 -2.0518  3.0052  0.8327
  602MOL0     H81251  10.258  10.216   4.558 -0.0724  0.6808  1.7294
  602MOL0     H81252   9.895  10.316   4.683  1.5929 -1.2172  1.2920
  602MOL0     H81253   9.678  10.422   4.713  0.7779 -0.2604  0.6406
  602MOL0     H81254   7.577   9.817   4.794 -2.0751 -0.5902  0.1812
  602MOL0     H81255   7.392   9.826   4.973 -2.8331  1.2773  2.3525
  602MOL0     H81256   7.088  10.160   5.175  0.0585  3.9460  1.7267
  602MOL0     H81257   6.910  10.158   5.339 -0.1167  0.8416  1.7179
  602MOL0     H81258   6.768  10.120   5.491  1.7646  2.9982 -1.8660
  602MOL0     H81259   6.877  10.238   5.569  2.5674 -0.1173  0.2780
  602MOL0     H81260   6.820  10.097   5.796  1.6821 -1.7161 -0.9110
  602MOL0     H81261   6.702  10.017   5.708  0.5690 -0.1802  0.7570
  602MOL0     H81262   6.704  10.322   5.691 -1.0625 -0.2118 -1.5808
  602MOL0     H81263   6.657  10.252   5.838  1.2423  1.4228  0.1293
  602MOL0     H81264   6.540  10.208   5.560  0.7050 -0.5478  0.1394
  602MOL0     H81265   6.486  10.112   5.709  2.4330 -1.5521 -1.1350
  602MOL0     H81266   6.269  10.470   5.719  0.9522 -0.1086  0.8260
  602MOL0     H81267   7.150   9.945   5.616 -3.1218 -0.7418  0.1880
  602MOL0     H81268   7.408   9.933   5.523 -2.3184  0.8532  1.0253
  602MOL0     H81269   7.319   9.781   5.512 -1.2967 -0.0934 -1.8451
  602MOL0     H81270   7.398   9.845   5.370  1.1910  0.8851  0.6673
  603MOL0     O81271   5.590   2.471   7.815  0.2987  0.4030 -0.5035
  603MOL0     C81272   5.592   2.378   7.733  1.3576 -0.2205  0.1196
  603MOL0     O81273   5.474   2.315   7.679 -0.4902 -0.0035  0.9074
  603MOL0     C81274   5.350   2.373   7.708  0.1470  1.3359 -0.5446
  603MOL0     C81275   5.252   2.297   7.769  0.4810  0.2688  0.2820
  603MOL0     C81276   5.125   2.356   7.800 -0.2360  0.6604  0.5439
  603MOL0     C81277   5.093   2.475   7.739  0.1883  1.4302 -0.0404
  603MOL0     O81278   4.976   2.536   7.771 -0.6498  1.0455 -0.2065
  603MOL0     C81279   4.887   2.563   7.659 -0.5807  0.0674 -0.2602
  603MOL0     C81280   4.838   2.435   7.589 -0.6886  0.5443 -0.2784
  603MOL0     C81281   4.762   2.453   7.459 -0.2077 -0.0149 -0.0753
  603MOL0     C81282   4.609   2.451   7.491  0.3009  0.6708 -0.0823
  603MOL0     C81283   4.536   2.505   7.369  0.1617 -0.0400  0.9465
  603MOL0     C81284   4.397   2.546   7.405 -0.3181  0.6053 -0.3350
  603MOL0     C81285   4.311   2.419   7.441  0.4580  0.0151  0.8730
  603MOL0     C81286   4.162   2.447   7.447 -0.1151  0.2172 -1.0946
  603MOL0     N81287   4.131   2.558   7.543 -0.7465 -0.5333 -0.3761
  603MOL0     C81288   4.071   2.674   7.502  0.3355  0.0650  0.8590
  603MOL0     C81289   4.039   2.744   7.607  0.0619 -0.1052 -0.4053
  603MOL0     C81290   3.971   2.876   7.609 -0.0444  0.3398  0.4253
  603MOL0     C81291   3.839   2.869   7.692 -0.0080  0.2585  0.2419
  603MOL0     C81292   3.846   2.809   7.837  0.0210 -0.6509  0.2392
  603MOL0     C81293   3.728   2.864   7.921  0.8461 -0.8063  0.0094
  603MOL0     O81294   3.604   2.837   7.848 -0.2318 -0.2409  0.3084
  603MOL0     C81295   3.522   2.938   7.803  0.4977 -0.3099  0.8949
  603MOL0     C81296   3.420   2.909   7.703  0.0268  0.0098 -0.1341
  603MOL0     C81297   3.320   3.005   7.673 -0.2685 -0.4539  0.1097
  603MOL0     C81298   3.300   3.127   7.746  0.1359 -0.4388 -0.0906
  603MOL0     C81299   3.196   3.224   7.708 -0.2334 -0.3478 -0.3374
  603MOL0     O81300   3.184   3.330   7.793 -0.5202 -0.7392  0.1429
  603MOL0     C81301   3.100   3.438   7.756  0.0273  0.2737 -0.4323
  603MOL0     C81302   3.099   3.516   7.634 -0.6652  0.0285  0.7208
  603MOL0     C81303   3.021   3.628   7.622  0.1652 -0.7727  0.3985
  603MOL0     C81304   2.937   3.671   7.732 -0.0287 -0.6324 -0.1347
  603MOL0     O81305   2.843   3.767   7.736  0.2020 -0.4177 -0.5661
  603MOL0     C81306   2.780   3.794   7.609 -0.1028 -0.2830  0.1076
  603MOL0     C81307   2.675   3.911   7.642  0.0230 -0.5296  1.0584
  603MOL0     C81308   2.551   3.848   7.711  0.1785 -0.1719  0.9080
  603MOL0     C81309   2.441   3.952   7.733  0.5571 -0.1552  0.2608
  603MOL0     C81310   2.348   3.979   7.615  0.5453 -0.7112 -0.5909
  603MOL0     C81311   2.260   4.102   7.641  0.6704 -0.3559 -0.7855
  603MOL0     C81312   2.226   4.177   7.511  0.4069  0.0507  0.6243
  603MOL0     C81313   2.147   4.301   7.540  0.9535  0.6995 -0.6080
  603MOL0    Cl81314   2.111   4.399   7.395  0.2944  0.0735 -0.2994
  603MOL0     C81315   2.927   3.593   7.841 -0.7879  0.1560 -1.3864
  603MOL0     C81316   3.017   3.482   7.861  0.2853  0.5806 -0.5547
  603MOL0     O81317   3.144   3.206   7.591  0.1931 -0.2980 -0.0199
  603MOL0     C81318   3.394   3.149   7.851  0.7348 -0.0440  0.1867
  603MOL0     C81319   3.505   3.060   7.873 -0.3877  0.1389  0.3760
  603MOL0     N81320   4.076   2.668   7.718  0.2531  0.2083 -0.3906
  603MOL0     N81321   4.133   2.560   7.675 -0.2456  0.1505  0.0824
  603MOL0     C81322   5.190   2.546   7.669  0.4442 -0.7978  0.6827
  603MOL0     C81323   5.325   2.496   7.650  0.5079 -0.0076  0.4745
  603MOL0     C81324   5.728   2.322   7.676  0.0683 -0.0100 -0.2069
  603MOL0     C81325   5.714   2.232   7.569  0.3260  0.3955  0.1311
  603MOL0     C81326   5.820   2.169   7.515  0.1970  1.1688  0.1435
  603MOL0     C81327   5.943   2.211   7.549 -0.7277  0.8136  0.6184
  603MOL0     O81328   6.048   2.158   7.483  0.2209 -0.2400  0.0365
  603MOL0     C81329   6.188   2.180   7.518 -0.0743  0.1920  0.3650
  603MOL0     C81330   6.296   2.100   7.437 -0.3058  0.3221  0.5184
  603MOL0     C81331   6.434   2.156   7.480 -0.0599 -0.0775  0.7363
  603MOL0     C81332   6.541   2.063   7.413 -0.1493 -0.6118 -0.8919
  603MOL0     C81333   6.668   2.141   7.420 -0.0099 -0.3509  0.1695
  603MOL0     C81334   6.768   2.215   7.415  0.1281 -0.0317 -0.5312
  603MOL0     C81335   5.967   2.303   7.650  0.0182 -0.4708 -0.7290
  603MOL0     C81336   5.860   2.363   7.718  0.0306 -0.2528  0.6060
  603MOL0     C81337   5.882   2.450   7.843 -0.1917 -0.2071  0.2599
  603MOL0     H81338   5.286   2.198   7.799  1.2287 -0.2680 -2.1441
  603MOL0     H81339   5.054   2.290   7.849 -3.2715  0.0310 -4.1194
  603MOL0     H81340   4.797   2.606   7.705 -1.4272 -5.2964  4.0815
  603MOL0     H81341   4.936   2.625   7.584  0.2194  0.0835  0.2613
  603MOL0     H81342   4.780   2.390   7.670  0.2608 -0.9749 -0.4183
  603MOL0     H81343   4.927   2.378   7.560 -0.6475 -0.8662  2.3295
  603MOL0     H81344   4.795   2.373   7.391 -0.1872  0.7618 -1.0027
  603MOL0     H81345   4.792   2.547   7.412  1.7792 -1.1664 -1.2545
  603MOL0     H81346   4.568   2.356   7.525 -3.7581  2.5210  0.7961
  603MOL0     H81347   4.585   2.523   7.570 -0.0603  3.3423 -2.4370
  603MOL0     H81348   4.587   2.590   7.323 -0.1603  0.0391  0.7251
  603MOL0     H81349   4.529   2.422   7.299  0.8654  0.6621  0.0171
  603MOL0     H81350   4.395   2.616   7.489  0.4300  0.8235 -0.4908
  603MOL0     H81351   4.352   2.592   7.317 -1.6401 -0.7093 -0.3727
  603MOL0     H81352   4.339   2.389   7.542 -1.9397 -0.5327  1.4412
  603MOL0     H81353   4.328   2.330   7.381 -0.0730 -0.5814  1.5909
  603MOL0     H81354   4.134   2.477   7.346 -0.8770  0.9732 -0.6769
  603MOL0     H81355   4.102   2.361   7.479  3.0626 -2.0281 -0.7005
  603MOL0     H81356   4.060   2.696   7.396  0.5863 -1.1755  0.5505
  603MOL0     H81357   4.046   2.945   7.649  0.2864 -1.0886  2.4353
  603MOL0     H81358   3.942   2.900   7.507  1.9007 -1.5873 -0.6423
  603MOL0     H81359   3.777   2.959   7.705 -2.4086 -1.1666 -0.6811
  603MOL0     H81360   3.780   2.801   7.630  2.8977 -0.2154 -2.2758
  603MOL0     H81361   3.937   2.850   7.883 -1.1663  2.7188 -0.1756
  603MOL0     H81362   3.846   2.700   7.839  0.1937 -0.6457  1.0292
  603MOL0     H81363   3.733   2.965   7.962  0.0866 -0.7309 -0.0628
  603MOL0     H81364   3.712   2.799   8.007  0.1393 -0.2739  0.2905
  603MOL0     H81365   3.429   2.813   7.652 -0.5057 -0.2243  0.2045
  603MOL0     H81366   3.248   2.993   7.594  0.1476  3.0119 -0.9438
  603MOL0     H81367   3.160   3.475   7.554 -2.7136  0.2105 -1.0186
  603MOL0     H81368   3.023   3.695   7.537  1.5050  1.4174  2.0647
  603MOL0     H81369   2.855   3.837   7.543  0.0723 -1.0256 -0.1925
  603MOL0     H81370   2.738   3.704   7.563  0.3386 -0.8846  0.8432
  603MOL0     H81371   2.706   3.986   7.716  1.5322 -1.6261  1.5922
  603MOL0     H81372   2.645   3.945   7.543 -1.4132 -1.0009  1.3037
  603MOL0     H81373   2.523   3.765   7.646  1.6308  0.6701 -0.8898
  603MOL0     H81374   2.580   3.797   7.804 -0.6107  1.0323  1.8386
  603MOL0     H81375   2.488   4.047   7.760  0.0716 -0.6090  2.9744
  603MOL0     H81376   2.367   3.929   7.811 -2.2675  2.3350 -1.5023
  603MOL0     H81377   2.279   3.895   7.602 -0.7955  0.4900 -1.5289
  603MOL0     H81378   2.405   3.994   7.523 -0.7058 -4.0391 -2.0875
  603MOL0     H81379   2.174   4.061   7.694  1.7484 -2.3126 -0.4177
  603MOL0     H81380   2.304   4.175   7.709  0.4749  1.5672 -2.6218
  603MOL0     H81381   2.161   4.106   7.458 -1.4973  0.0225  2.8086
  603MOL0     H81382   2.305   4.190   7.437  1.0244 -0.2025  1.2294
  603MOL0     H81383   2.058   4.285   7.601  2.0309 -3.5733  0.1439
  603MOL0     H81384   2.207   4.358   7.612  2.0212  0.9411 -1.6547
  603MOL0     H81385   2.862   3.618   7.925  1.6701 -1.9357  1.3375
  603MOL0     H81386   3.008   3.440   7.961  2.6126  0.9891 -0.1219
  603MOL0     H81387   3.393   3.234   7.918 -0.2145 -0.4328  0.6773
  603MOL0     H81388   3.578   3.090   7.947  1.1067 -1.9134 -0.1732
  603MOL0     H81389   5.162   2.635   7.614 -0.5934 -2.3274 -1.3678
  603MOL0     H81390   5.391   2.560   7.592 -0.1884  0.4550  0.1829
  603MOL0     H81391   5.620   2.187   7.538  2.1892 -3.7001 -0.1586
  603MOL0     H81392   5.817   2.099   7.432 -1.8470  1.1010  0.2185
  603MOL0     H81393   6.205   2.165   7.625  2.6541  2.8267  0.4362
  603MOL0     H81394   6.208   2.288   7.513 -0.6145  0.3087  0.5842
  603MOL0     H81395   6.281   2.131   7.333  1.7574 -1.3981 -0.3659
  603MOL0     H81396   6.278   1.995   7.459 -1.2330  0.5489  0.9273
  603MOL0     H81397   6.437   2.158   7.589  0.6720  1.2979  0.7092
  603MOL0     H81398   6.444   2.260   7.450  1.1391 -0.1403  0.8988
  603MOL0     H81399   6.559   1.964   7.455  1.8885 -0.2785 -0.9139
  603MOL0     H81400   6.519   2.065   7.306 -0.2592  0.7358 -0.8664
  603MOL0     H81401   6.860   2.269   7.410  1.3593 -1.8339  1.2297
  603MOL0     H81402   6.067   2.323   7.686  0.4017  0.4260 -2.2380
  603MOL0     H81403   5.991   2.446   7.854  0.2879  2.0341 -2.5655
  603MOL0     H81404   5.855   2.556   7.836  5.1434  1.3649 -0.8692
  603MOL0     H81405   5.837   2.404   7.932  2.0259 -2.5630  0.2830
  604MOL0     O81406   2.525   3.756   8.708 -0.1182  0.2182 -0.0374
  604MOL0     C81407   2.568   3.760   8.825 -0.4108 -0.1562  0.9408
  604MOL0     O81408   2.486   3.745   8.944 -0.0615 -0.2555  0.4221
  604MOL0     C81409   2.351   3.721   8.947 -0.3117 -0.1527 -0.3204
  604MOL0     C81410   2.256   3.765   8.855  0.1846  0.1855  0.1095
  604MOL0     C81411   2.120   3.738   8.858 -0.1458  0.1856  0.3810
  604MOL0     C81412   2.061   3.665   8.959 -0.0942  0.1713 -0.4152
  604MOL0     O81413   1.926   3.650   8.950  1.3102  0.4334  0.5805
  604MOL0     C81414   1.853   3.568   9.045  0.5617 -0.9178 -0.4370
  604MOL0     C81415   1.699   3.590   9.042 -0.3179 -0.2692 -0.4225
  604MOL0     C81416   1.660   3.731   9.091 -0.3235  0.0002  0.5399
  604MOL0     C81417   1.736   3.771   9.225  0.0650 -0.9805 -0.1763
  604MOL0     C81418   1.673   3.909   9.280 -0.4103 -0.0468  0.0611
  604MOL0     C81419   1.721   3.952   9.418  0.6689  0.6045  0.5551
  604MOL0     C81420   1.648   4.076   9.453  0.5185  0.0700 -0.4762
  604MOL0     C81421   1.677   4.111   9.607 -0.5782  0.2363  0.1639
  604MOL0     N81422   1.808   4.085   9.660  0.1131 -0.6519 -0.4173
  604MOL0     C81423   1.920   4.163   9.641  0.2803 -0.4571  0.4017
  604MOL0     C81424   2.015   4.122   9.731 -0.1462 -0.0961  0.1294
  604MOL0     C81425   2.146   4.199   9.746  0.2554  0.1863  0.8304
  604MOL0     C81426   2.258   4.122   9.679  0.4183  0.8875 -0.4394
  604MOL0     C81427   2.405   4.175   9.665  1.5704  0.6232  0.7346
  604MOL0     C81428   2.496   4.173   9.789  0.2668 -1.2663 -0.1033
  604MOL0     O81429   2.518   4.038   9.833  0.1700  0.3270 -0.6367
  604MOL0     C81430   2.637   3.978   9.805 -0.3610 -0.0716  0.0594
  604MOL0     C81431   2.734   4.027   9.716  0.0360 -0.2893 -0.9358
  604MOL0     C81432   2.859   3.967   9.699 -0.9152  0.4840  0.7885
  604MOL0     C81433   2.896   3.853   9.772 -0.2206  1.3542  0.8172
  604MOL0     C81434   3.023   3.789   9.780  0.6796  0.4728  0.6829
  604MOL0     O81435   3.128   3.844   9.728  0.1693  0.1512 -0.2129
  604MOL0     C81436   3.250   3.810   9.784 -0.1750 -0.1571  0.5146
  604MOL0     C81437   3.340   3.723   9.725  0.5267 -0.3574  0.6474
  604MOL0     C81438   3.464   3.681   9.782  0.2225  0.5401 -0.4163
  604MOL0     C81439   3.507   3.743   9.907  1.0139 -0.3440 -0.9568
  604MOL0     O81440   3.626   3.712   9.970  0.1048  0.3177  0.2506
  604MOL0     C81441   3.738   3.708   9.877  0.5994  0.0265 -0.2763
  604MOL0     C81442   3.862   3.660   9.956  0.0234 -0.8682 -0.3809
  604MOL0     C81443   3.942   3.760  10.035 -1.0571 -0.4622 -0.1376
  604MOL0     C81444   4.062   3.688  10.100 -0.8332 -0.4096  0.1976
  604MOL0     C81445   4.185   3.780  10.144 -0.5140 -0.6001 -0.4895
  604MOL0     C81446   4.277   3.793  10.017 -0.2786 -0.5936 -0.3433
  604MOL0     C81447   4.415   3.858  10.060  1.2831 -0.1455 -0.1641
  604MOL0     C81448   4.512   3.900   9.953  0.6374 -0.1150 -0.3586
  604MOL0    Cl81449   4.661   3.957  10.033  0.1733 -0.1311 -0.0954
  604MOL0     C81450   3.409   3.834   9.965 -0.6031  0.1411 -0.2306
  604MOL0     C81451   3.288   3.869   9.902  0.2496 -0.1952  0.2891
  604MOL0     O81452   3.028   3.685   9.837  0.4720  0.5108 -0.2854
  604MOL0     C81453   2.787   3.793   9.844 -0.2366  0.0516 -0.9075
  604MOL0     C81454   2.662   3.851   9.856  0.6192  0.2819  0.3182
  604MOL0     N81455   1.963   4.023   9.818  0.3475 -0.3823  0.5788
  604MOL0     N81456   1.835   4.002   9.772  0.3300 -0.7853 -0.5625
  604MOL0     C81457   2.148   3.619   9.059 -0.2169  0.1023 -0.0687
  604MOL0     C81458   2.288   3.654   9.048  1.0153  0.3110 -0.7164
  604MOL0     C81459   2.709   3.787   8.837 -0.2296 -0.6347 -0.7916
  604MOL0     C81460   2.753   3.798   8.975 -0.2500  0.2830  0.1385
  604MOL0     C81461   2.892   3.824   9.004 -0.7805  0.1186 -0.4041
  604MOL0     C81462   2.977   3.857   8.902 -0.5171 -0.2245  0.9116
  604MOL0     O81463   3.112   3.895   8.925  0.7268  0.4149 -0.3716
  604MOL0     C81464   3.148   3.958   9.051 -0.1845  0.4427  0.4117
  604MOL0     C81465   3.297   3.991   9.025  0.1952  0.6763  0.2116
  604MOL0     C81466   3.371   3.954   9.151  1.0229  0.0584  0.5074
  604MOL0     C81467   3.516   3.999   9.154 -0.4649  0.1703 -0.1899
  604MOL0     C81468   3.594   3.937   9.047 -0.0297 -0.4387  0.2574
  604MOL0     C81469   3.644   3.876   8.954 -0.8556 -0.1828 -0.0093
  604MOL0     C81470   2.943   3.845   8.774 -0.6849  0.7282  0.6005
  604MOL0     C81471   2.815   3.798   8.739 -0.7329  0.5123 -0.5926
  604MOL0     C81472   2.793   3.758   8.595  0.8883  0.0425  0.7508
  604MOL0     H81473   2.284   3.840   8.782 -0.9993  1.6315  1.0888
  604MOL0     H81474   2.058   3.774   8.776  2.0693 -0.7577 -1.8539
  604MOL0     H81475   1.880   3.465   9.021  0.0087 -0.6446 -2.5037
  604MOL0     H81476   1.881   3.582   9.149 -3.1612  0.2053  0.5463
  604MOL0     H81477   1.647   3.524   9.112 -2.6557  2.0621  0.1820
  604MOL0     H81478   1.662   3.582   8.939  1.9812  0.9535 -1.4224
  604MOL0     H81479   1.553   3.724   9.115 -0.8917  1.5056 -1.3182
  604MOL0     H81480   1.675   3.803   9.010 -0.7353 -0.1964  0.2826
  604MOL0     H81481   1.738   3.696   9.304  0.9351 -2.2663 -1.3788
  604MOL0     H81482   1.838   3.797   9.193 -0.8210  0.0571 -2.4078
  604MOL0     H81483   1.686   3.996   9.214  0.6739  1.1745  1.8015
  604MOL0     H81484   1.566   3.886   9.283 -0.3247 -0.3230  1.8045
  604MOL0     H81485   1.701   3.881   9.500 -0.8805  2.1014  1.5320
  604MOL0     H81486   1.830   3.961   9.415  0.5909  1.4407 -0.1420
  604MOL0     H81487   1.541   4.067   9.435 -0.3351  0.3181  3.5945
  604MOL0     H81488   1.691   4.157   9.394 -0.3304 -1.4591 -3.3581
  604MOL0     H81489   1.658   4.218   9.621 -0.1618  0.3772 -0.3138
  604MOL0     H81490   1.595   4.079   9.672 -1.2520  0.7971 -0.3881
  604MOL0     H81491   1.926   4.252   9.579  1.0998 -0.2885  0.7015
  604MOL0     H81492   2.136   4.293   9.692 -0.4673 -0.1858  0.2988
  604MOL0     H81493   2.166   4.210   9.853 -1.7367 -0.7875  1.3402
  604MOL0     H81494   2.274   4.020   9.717  1.7174  1.4229  0.5179
  604MOL0     H81495   2.227   4.099   9.576 -0.6207 -2.4334  0.4655
  604MOL0     H81496   2.389   4.271   9.615 -1.9656 -1.9887 -3.8863
  604MOL0     H81497   2.459   4.115   9.591 -0.0858  0.9750 -0.7935
  604MOL0     H81498   2.438   4.224   9.867  0.0117 -0.0283 -1.0653
  604MOL0     H81499   2.585   4.236   9.783 -0.1681 -0.5851  0.3230
  604MOL0     H81500   2.705   4.114   9.657 -0.1945 -0.0065 -0.4113
  604MOL0     H81501   2.943   3.999   9.640 -0.0428 -3.9289 -0.7466
  604MOL0     H81502   3.303   3.669   9.639 -2.9984  0.9269  1.1826
  604MOL0     H81503   3.526   3.604   9.738 -1.0079 -0.6548 -0.1014
  604MOL0     H81504   3.732   3.639   9.792  2.4404  1.6299 -1.8076
  604MOL0     H81505   3.756   3.809   9.838 -2.2783  0.3375 -1.0414
  604MOL0     H81506   3.823   3.579  10.017 -2.3213 -0.4011 -1.1701
  604MOL0     H81507   3.925   3.610   9.882 -0.7575 -1.6870 -0.5019
  604MOL0     H81508   3.969   3.829   9.955 -2.7098 -0.6018 -0.8411
  604MOL0     H81509   3.879   3.815  10.105  0.0697  0.8177 -0.0826
  604MOL0     H81510   4.104   3.625  10.022  3.0563  2.1276 -0.0168
  604MOL0     H81511   4.027   3.626  10.184  1.3107 -0.1433  1.3629
  604MOL0     H81512   4.253   3.735  10.216  1.1776  0.1546 -1.5731
  604MOL0     H81513   4.160   3.876  10.191 -2.3292 -1.7833  1.1665
  604MOL0     H81514   4.288   3.699   9.963 -1.8867  0.5827 -2.9453
  604MOL0     H81515   4.232   3.855   9.939 -0.4629  1.0777  1.0139
  604MOL0     H81516   4.467   3.792  10.130  0.8466 -1.0080 -0.6450
  604MOL0     H81517   4.398   3.944  10.125  1.3449 -0.3030  0.0632
  604MOL0     H81518   4.532   3.805   9.902 -0.5802  0.6718 -2.4687
  604MOL0     H81519   4.482   3.973   9.878  2.6673  4.0202  2.5106
  604MOL0     H81520   3.441   3.884  10.055  2.9204  0.4208 -1.4815
  604MOL0     H81521   3.228   3.946   9.948  1.1104 -1.1789  3.2902
  604MOL0     H81522   2.800   3.693   9.883 -0.2101  1.3053  2.6971
  604MOL0     H81523   2.583   3.797   9.909  1.9442 -0.7605  1.3111
  604MOL0     H81524   2.109   3.567   9.146  0.6873 -1.6024 -0.6309
  604MOL0     H81525   2.343   3.621   9.136  0.2991  0.7848 -0.0774
  604MOL0     H81526   2.684   3.779   9.056  1.8986 -0.1058  1.9899
  604MOL0     H81527   2.929   3.830   9.106  1.1522 -1.6451 -0.9118
  604MOL0     H81528   3.138   3.895   9.140  1.0309 -0.5727 -0.1499
  604MOL0     H81529   3.084   4.047   9.061  1.0369  1.5142 -0.9412
  604MOL0     H81530   3.302   4.097   8.998 -0.1790  0.6750  0.1183
  604MOL0     H81531   3.328   3.926   8.942  0.2778  0.2612  0.5625
  604MOL0     H81532   3.375   3.847   9.172 -1.9130 -0.7332 -2.2227
  604MOL0     H81533   3.322   4.005   9.235 -2.1197 -1.0563 -0.4959
  604MOL0     H81534   3.524   4.108   9.161  1.0988  0.0679  0.1085
  604MOL0     H81535   3.558   3.959   9.247 -1.2032  0.1446  0.1331
  604MOL0     H81536   3.690   3.820   8.875 -1.2595  0.5008 -0.7456
  604MOL0     H81537   3.017   3.848   8.695 -0.6455  1.1197  0.6523
  604MOL0     H81538   2.718   3.829   8.558 -0.4703 -1.6491  0.1714
  604MOL0     H81539   2.878   3.763   8.526 -0.4178 -0.1550 -0.9300
  604MOL0     H81540   2.751   3.658   8.591  1.6934 -0.3547  1.7981
  605MOL0     O81541   4.279   9.666   2.650 -0.8614  0.9163 -0.1061
  605MOL0     C81542   4.281   9.670   2.774  0.2958  0.0355  0.1223
  605MOL0     O81543   4.384   9.640   2.844 -0.3242  0.5823 -0.5896
  605MOL0     C81544   4.512   9.672   2.791 -1.0185  0.3082 -1.2396
  605MOL0     C81545   4.565   9.581   2.705  0.0289  0.5784  1.3198
  605MOL0     C81546   4.696   9.607   2.649  1.5404 -0.2111  0.6325
  605MOL0     C81547   4.774   9.710   2.689  1.5163  0.2574 -0.6537
  605MOL0     O81548   4.895   9.710   2.631 -0.3655  0.0509 -0.1106
  605MOL0     C81549   4.984   9.822   2.654  0.0442  0.4748 -0.5390
  605MOL0     C81550   5.120   9.803   2.605 -0.3831  0.5171 -0.9328
  605MOL0     C81551   5.141   9.785   2.451 -0.1633 -0.3620 -0.6334
  605MOL0     C81552   5.286   9.757   2.418  0.2774 -0.1495  0.7895
  605MOL0     C81553   5.296   9.611   2.398  0.1156 -0.5975  0.0995
  605MOL0     C81554   5.432   9.555   2.365 -0.3474 -0.1065 -0.1322
  605MOL0     C81555   5.425   9.414   2.311 -0.5755  0.6044  0.0800
  605MOL0     C81556   5.462   9.413   2.165  0.4546 -0.0793  0.2739
  605MOL0     N81557   5.496   9.273   2.125  0.1042 -0.2968 -0.1571
  605MOL0     C81558   5.617   9.214   2.139  0.1123  0.6105 -0.5382
  605MOL0     C81559   5.609   9.105   2.061 -0.1363  0.2490  0.1078
  605MOL0     C81560   5.714   8.999   2.026  0.6562 -0.4990  0.4618
  605MOL0     C81561   5.759   8.993   1.880  0.4087 -0.1388  0.9144
  605MOL0     C81562   5.842   8.859   1.865 -0.1879  0.0131  0.7630
  605MOL0     C81563   5.916   8.853   1.729  0.6172 -0.4546  0.4176
  605MOL0     O81564   6.028   8.935   1.719  0.2715  0.5330 -0.1789
  605MOL0     C81565   6.145   8.868   1.724 -0.0330  0.0274 -0.6726
  605MOL0     C81566   6.207   8.843   1.851  0.3092 -0.1777 -0.0726
  605MOL0     C81567   6.330   8.788   1.861 -0.2988  0.8536 -0.0391
  605MOL0     C81568   6.405   8.746   1.744  0.4035  0.0467  0.3361
  605MOL0     C81569   6.550   8.712   1.755  0.6983  0.1541 -0.5071
  605MOL0     O81570   6.588   8.701   1.882 -0.4949  0.5325 -0.1247
  605MOL0     C81571   6.710   8.636   1.901  0.3378 -0.9454  0.1354
  605MOL0     C81572   6.825   8.713   1.890  0.7976  0.0191  0.7343
  605MOL0     C81573   6.949   8.649   1.899 -0.0635 -1.2382 -0.4124
  605MOL0     C81574   6.966   8.516   1.930  0.5987 -0.1027  0.1098
  605MOL0     O81575   7.092   8.473   1.958 -0.0836  0.7636 -0.1228
  605MOL0     C81576   7.119   8.331   1.973  0.8897 -0.7151  0.5248
  605MOL0     C81577   7.251   8.325   2.037  0.1789 -0.8399 -0.6462
  605MOL0     C81578   7.253   8.258   2.176 -0.4552  0.2779  0.6916
  605MOL0     C81579   7.190   8.115   2.174  0.1911 -0.0932  0.4230
  605MOL0     C81580   7.193   8.058   2.314 -0.4991  0.0530 -0.0580
  605MOL0     C81581   7.117   7.922   2.301 -0.3099 -0.5757  0.0074
  605MOL0     C81582   6.968   7.943   2.261 -0.5507 -0.2924  0.5054
  605MOL0     C81583   6.879   7.839   2.325  0.0249 -0.2907 -0.8533
  605MOL0    Cl81584   6.903   7.674   2.263 -0.0035 -0.0350  0.3628
  605MOL0     C81585   6.845   8.442   1.945  0.8799 -0.2788  0.1839
  605MOL0     C81586   6.721   8.502   1.932  0.0405 -0.5992  0.1635
  605MOL0     O81587   6.619   8.707   1.653  0.4197 -0.4940 -0.0215
  605MOL0     C81588   6.335   8.764   1.618  0.4138  0.6432  0.6966
  605MOL0     C81589   6.216   8.834   1.603 -0.1881 -0.2238 -0.8426
  605MOL0     N81590   5.483   9.094   2.001 -0.3935 -0.5174  0.6572
  605MOL0     N81591   5.413   9.182   2.062  0.3939 -0.3722  0.4123
  605MOL0     C81592   4.715   9.798   2.782 -0.1983  0.3576  0.7596
  605MOL0     C81593   4.586   9.782   2.828  0.2487 -1.6171  0.8944
  605MOL0     C81594   4.150   9.708   2.828  0.5955  0.8066 -0.4118
  605MOL0     C81595   4.034   9.659   2.761  0.0496 -0.7137 -0.9842
  605MOL0     C81596   3.912   9.651   2.824  0.0762  0.7307 -0.0270
  605MOL0     C81597   3.894   9.698   2.954 -0.3898  0.7516 -0.2320
  605MOL0     O81598   3.771   9.681   3.004  0.0461  0.3420 -0.3506
  605MOL0     C81599   3.749   9.723   3.139 -0.2080 -0.0641  0.0457
  605MOL0     C81600   3.596   9.717   3.158 -0.2075 -0.4323 -0.1592
  605MOL0     C81601   3.530   9.825   3.064 -0.1154  0.1281 -0.3746
  605MOL0     C81602   3.371   9.819   3.075 -0.8259 -1.1787  0.0336
  605MOL0     C81603   3.309   9.918   2.982 -0.7915 -0.2362  0.0903
  605MOL0     C81604   3.244   9.979   2.903  0.2289  0.4218 -0.0080
  605MOL0     C81605   4.006   9.753   3.019  0.2388  0.5906  0.6903
  605MOL0     C81606   4.138   9.759   2.954 -0.3508 -0.8755 -0.1634
  605MOL0     C81607   4.249   9.840   3.031  0.0633  0.7905  0.4612
  605MOL0     H81608   4.513   9.489   2.679 -1.6189  1.3053  1.9377
  605MOL0     H81609   4.739   9.536   2.579 -0.6101 -2.4310  1.4237
  605MOL0     H81610   4.944   9.914   2.610  1.7945  1.5914  0.1171
  605MOL0     H81611   4.998   9.832   2.762 -2.5391 -0.7245 -0.0168
  605MOL0     H81612   5.169   9.720   2.657  0.1246  0.2300 -1.8670
  605MOL0     H81613   5.185   9.889   2.623 -1.7807  1.6327 -1.0542
  605MOL0     H81614   5.095   9.872   2.404 -1.8081 -2.2922 -2.8363
  605MOL0     H81615   5.085   9.707   2.400 -1.7984  2.8692 -4.2360
  605MOL0     H81616   5.307   9.806   2.322  1.3969 -1.0452  0.5618
  605MOL0     H81617   5.357   9.810   2.481 -0.4199 -0.0953  1.5464
  605MOL0     H81618   5.260   9.561   2.489  0.2014  0.1323  0.5405
  605MOL0     H81619   5.239   9.580   2.311 -1.4504 -1.4086  1.3518
  605MOL0     H81620   5.484   9.629   2.304  1.5557  0.9666  2.5888
  605MOL0     H81621   5.496   9.555   2.454 -0.8111  1.4340  0.2248
  605MOL0     H81622   5.329   9.366   2.328 -1.0302  0.9096 -1.4869
  605MOL0     H81623   5.494   9.355   2.371 -0.2377  0.0583 -0.8217
  605MOL0     H81624   5.380   9.452   2.104 -0.5538 -2.3362  0.0923
  605MOL0     H81625   5.548   9.478   2.146 -0.6515  2.3741  3.0043
  605MOL0     H81626   5.698   9.251   2.200 -0.4839  0.4211  0.3948
  605MOL0     H81627   5.804   9.013   2.086  0.6588 -4.7349  1.7534
  605MOL0     H81628   5.660   8.908   2.052 -1.9949  1.3367  1.9533
  605MOL0     H81629   5.679   8.997   1.805  2.7030  1.0645 -1.7062
  605MOL0     H81630   5.819   9.083   1.861 -0.4627  0.3430  0.3768
  605MOL0     H81631   5.773   8.774   1.862 -1.5997  1.1259  0.3335
  605MOL0     H81632   5.901   8.841   1.955  0.8252 -0.9267 -0.0560
  605MOL0     H81633   5.840   8.871   1.653  0.9409  2.3556  0.6406
  605MOL0     H81634   5.934   8.747   1.710 -7.2367 -2.1946 -0.7617
  605MOL0     H81635   6.153   8.867   1.942 -1.4640 -0.6344 -0.9692
  605MOL0     H81636   6.369   8.766   1.960 -2.9209  0.5243  0.9936
  605MOL0     H81637   6.830   8.821   1.884  2.0687 -0.0984 -0.7479
  605MOL0     H81638   7.040   8.709   1.896 -0.2950 -0.7670  1.1584
  605MOL0     H81639   7.049   8.292   2.047 -0.1311 -0.5938 -0.3525
  605MOL0     H81640   7.099   8.271   1.884 -2.8323  0.8510  0.1033
  605MOL0     H81641   7.318   8.255   1.986  0.0404 -1.3010 -0.2018
  605MOL0     H81642   7.302   8.422   2.032 -0.3979 -0.5536 -1.0935
  605MOL0     H81643   7.359   8.247   2.204 -0.2935  1.0238  0.3971
  605MOL0     H81644   7.201   8.322   2.248  0.3596 -0.0307  1.5899
  605MOL0     H81645   7.242   8.054   2.099  0.5760  0.2382  0.4155
  605MOL0     H81646   7.089   8.123   2.134 -0.1512  2.7012  1.6352
  605MOL0     H81647   7.142   8.125   2.384  2.3502  1.0931  1.1554
  605MOL0     H81648   7.292   8.042   2.357  0.7513  0.4674 -2.6148
  605MOL0     H81649   7.163   7.854   2.229 -0.8617 -0.8960 -0.0467
  605MOL0     H81650   7.122   7.879   2.402 -0.4541 -0.5424  0.0290
  605MOL0     H81651   6.944   7.959   2.155  0.5134  4.3156  0.7207
  605MOL0     H81652   6.931   8.036   2.305 -0.8655  0.0721 -0.5105
  605MOL0     H81653   6.898   7.851   2.432 -3.9699  0.1447 -0.0554
  605MOL0     H81654   6.773   7.859   2.312  0.0846  0.2047 -0.5864
  605MOL0     H81655   6.846   8.342   1.986 -0.4728  0.8768  3.3017
  605MOL0     H81656   6.630   8.444   1.938  0.1137 -1.1128 -2.5625
  605MOL0     H81657   6.383   8.744   1.522 -1.9660 -2.6595  0.0100
  605MOL0     H81658   6.181   8.850   1.502  1.1032  2.3071 -0.9817
  605MOL0     H81659   4.781   9.881   2.807 -1.1513  1.2603  0.3621
  605MOL0     H81660   4.536   9.845   2.901 -2.2538 -4.0213  1.4180
  605MOL0     H81661   4.051   9.599   2.671  0.6017 -2.2653  0.1068
  605MOL0     H81662   3.829   9.592   2.786  1.5050 -2.0386  0.8678
  605MOL0     H81663   3.787   9.825   3.156  0.9298 -0.5372  0.4217
  605MOL0     H81664   3.800   9.664   3.215 -0.3284  2.5787  2.3454
  605MOL0     H81665   3.578   9.753   3.260  0.3711  0.1641 -0.2579
  605MOL0     H81666   3.557   9.615   3.154  2.2226 -1.4122 -1.1911
  605MOL0     H81667   3.566   9.811   2.961  1.4235  0.3293  0.1187
  605MOL0     H81668   3.557   9.928   3.088 -1.6487  0.0529  1.9528
  605MOL0     H81669   3.327   9.726   3.037  0.2351  0.1685 -5.3340
  605MOL0     H81670   3.329   9.831   3.175  0.7127  1.4064  0.4290
  605MOL0     H81671   3.216  10.054   2.832  0.6284 -0.8566 -1.5977
  605MOL0     H81672   4.004   9.794   3.120 -0.7119 -0.8558  1.3002
  605MOL0     H81673   4.308   9.765   3.086  1.2921 -0.4737 -2.3849
  605MOL0     H81674   4.317   9.866   2.949 -1.1455 -0.7883 -1.1237
  605MOL0     H81675   4.203   9.928   3.076 -0.2169  2.7248 -3.2403
  606MOL0     O81676   4.861   2.647   3.585  0.4740  0.2414 -0.4474
  606MOL0     C81677   4.814   2.640   3.474  0.1606 -0.3682  0.6890
  606MOL0     O81678   4.882   2.583   3.372  0.1011 -0.1620  0.5103
  606MOL0     C81679   5.000   2.528   3.394 -0.9698  0.4244 -0.0399
  606MOL0     C81680   5.021   2.417   3.480 -0.1742  0.5969  0.0147
  606MOL0     C81681   5.148   2.376   3.519 -0.2970  0.1329  0.0841
  606MOL0     C81682   5.257   2.425   3.453 -0.4212 -0.4777  0.5520
  606MOL0     O81683   5.374   2.371   3.489  0.1657  0.1619 -0.2483
  606MOL0     C81684   5.502   2.401   3.427  0.2828 -0.1543 -0.4636
  606MOL0     C81685   5.608   2.343   3.520  0.2109  0.5429  0.2008
  606MOL0     C81686   5.739   2.415   3.494 -0.5142 -0.4048 -0.4276
  606MOL0     C81687   5.841   2.368   3.600  0.1944 -0.8872 -0.0075
  606MOL0     C81688   5.904   2.226   3.577 -0.0414  0.8398  0.0283
  606MOL0     C81689   5.995   2.181   3.692  0.1492 -0.5168  0.2571
  606MOL0     C81690   6.067   2.049   3.668 -0.1687  0.3906  0.0896
  606MOL0     C81691   5.959   1.937   3.645 -0.1549  0.6374  0.1387
  606MOL0     N81692   6.020   1.810   3.599 -0.6207 -0.0620 -0.3167
  606MOL0     C81693   6.123   1.755   3.666  1.2101  0.2398 -0.1561
  606MOL0     C81694   6.157   1.652   3.597  0.1661  0.4872  0.4831
  606MOL0     C81695   6.266   1.559   3.650  0.9300  0.2477 -0.4721
  606MOL0     C81696   6.201   1.444   3.729 -1.0414 -0.1657 -0.3163
  606MOL0     C81697   6.157   1.497   3.870 -0.5921 -0.2839 -0.0719
  606MOL0     C81698   6.112   1.385   3.973 -0.0138  0.5053  0.0017
  606MOL0     O81699   5.986   1.323   3.942  0.6778 -0.4746 -0.7082
  606MOL0     C81700   5.977   1.186   3.939 -0.0107 -0.5613 -0.2103
  606MOL0     C81701   5.841   1.138   3.932 -0.6531  0.4094 -0.4881
  606MOL0     C81702   5.813   1.003   3.940  0.2497  0.4452 -0.7316
  606MOL0     C81703   5.918   0.909   3.939  0.6480 -0.0445 -0.6686
  606MOL0     C81704   5.896   0.767   3.945  1.0126  0.5340  0.8844
  606MOL0     O81705   5.771   0.731   3.962 -0.9283  0.1142 -0.0404
  606MOL0     C81706   5.742   0.602   4.013 -0.5019 -0.6128 -0.8263
  606MOL0     C81707   5.817   0.539   4.118  0.6641  0.1820  0.3160
  606MOL0     C81708   5.772   0.416   4.167  0.0644 -0.4757  0.2549
  606MOL0     C81709   5.641   0.367   4.124  0.6009  0.2543 -0.5485
  606MOL0     O81710   5.570   0.265   4.184 -0.2491  0.1999  0.1880
  606MOL0     C81711   5.617   0.218   4.313 -0.4343  0.6202  0.4198
  606MOL0     C81712   5.539   0.098   4.379 -0.1947  0.1872  0.7229
  606MOL0     C81713   5.398   0.074   4.350  0.2686  0.1552 -0.1347
  606MOL0     C81714   5.318   0.183   4.410  1.8947 -0.6623  0.2993
  606MOL0     C81715   5.175   0.146   4.397 -0.1099  0.1987  0.1684
  606MOL0     C81716   5.072   0.242   4.449 -0.1920 -0.5422  0.3916
  606MOL0     C81717   4.939   0.183   4.431 -0.7107  0.3533 -0.0732
  606MOL0     C81718   4.841   0.297   4.472  0.4558  1.1027 -0.9499
  606MOL0    Cl81719   4.836   0.417   4.353  0.0303  0.0428 -0.1141
  606MOL0     C81720   5.579   0.437   4.024 -0.3657 -0.2926  0.2074
  606MOL0     C81721   5.619   0.554   3.977 -0.3412  0.5249  0.2774
  606MOL0     O81722   5.987   0.694   3.930 -0.2979  0.7544 -0.1416
  606MOL0     C81723   6.047   0.955   3.946 -0.5314 -0.2043  0.4172
  606MOL0     C81724   6.080   1.089   3.950  0.8396 -0.2725  0.0129
  606MOL0     N81725   6.078   1.641   3.487 -0.6781  0.2418  0.0015
  606MOL0     N81726   5.992   1.739   3.487  0.1741  0.4373  0.0616
  606MOL0     C81727   5.245   2.532   3.365 -0.1529 -0.6109 -0.5762
  606MOL0     C81728   5.118   2.585   3.341 -0.9430 -0.7769 -0.8994
  606MOL0     C81729   4.680   2.697   3.458  0.1124  0.1303 -0.2706
  606MOL0     C81730   4.601   2.639   3.356  0.0730 -0.1039  0.0210
  606MOL0     C81731   4.470   2.673   3.331 -0.2570 -0.0594  0.6474
  606MOL0     C81732   4.408   2.773   3.404 -0.0302 -0.4752 -0.6420
  606MOL0     O81733   4.271   2.790   3.377  0.0660  0.6494  0.7400
  606MOL0     C81734   4.198   2.896   3.454 -0.2343  0.8832 -0.1455
  606MOL0     C81735   4.052   2.884   3.436  0.0884 -0.6365  0.1535
  606MOL0     C81736   3.976   2.981   3.527 -0.0217  0.5261 -0.3917
  606MOL0     C81737   3.819   2.962   3.528  0.1570  0.3355 -0.9091
  606MOL0     C81738   3.755   3.039   3.421  0.4712  0.4715  0.1684
  606MOL0     C81739   3.711   3.122   3.353 -0.3012 -0.8979 -0.5774
  606MOL0     C81740   4.478   2.831   3.510  0.0938 -0.2127  0.5437
  606MOL0     C81741   4.618   2.798   3.537 -0.5336 -0.3743 -0.9225
  606MOL0     C81742   4.681   2.864   3.661  0.9464  0.7790 -0.0439
  606MOL0     H81743   4.936   2.366   3.523  0.4744  1.3448  2.3206
  606MOL0     H81744   5.153   2.301   3.598 -0.7491  1.7927  1.7794
  606MOL0     H81745   5.510   2.353   3.329  2.2300 -0.7394 -0.0548
  606MOL0     H81746   5.527   2.505   3.404  1.5501 -0.3454 -0.0404
  606MOL0     H81747   5.626   2.237   3.500 -0.9111 -0.0068  1.8867
  606MOL0     H81748   5.564   2.353   3.620 -0.7944 -1.7470  0.0368
  606MOL0     H81749   5.728   2.521   3.518 -2.3019 -1.2894  3.4035
  606MOL0     H81750   5.774   2.398   3.392  1.9496 -1.6215  0.5467
  606MOL0     H81751   5.923   2.439   3.586 -0.4533  0.1380  1.2245
  606MOL0     H81752   5.801   2.379   3.701  0.6004 -2.1305  0.3001
  606MOL0     H81753   5.829   2.149   3.555 -0.6434  0.9899  1.4601
  606MOL0     H81754   5.970   2.236   3.490 -0.4603  2.3236 -0.1453
  606MOL0     H81755   6.081   2.247   3.710  1.9906 -2.1259 -1.9475
  606MOL0     H81756   5.921   2.176   3.772 -1.7515  0.9867 -1.2902
  606MOL0     H81757   6.121   2.035   3.762 -1.0651 -0.1248  0.5412
  606MOL0     H81758   6.143   2.050   3.590 -0.6711 -0.1433 -0.4195
  606MOL0     H81759   5.899   1.903   3.730 -2.9155  1.6071 -1.3184
  606MOL0     H81760   5.894   1.965   3.562  1.0226 -1.0387 -1.4340
  606MOL0     H81761   6.170   1.782   3.760  1.8009  1.5694 -0.8193
  606MOL0     H81762   6.328   1.509   3.575  1.2145 -0.9652  0.5477
  606MOL0     H81763   6.324   1.619   3.721  0.4191  0.4160 -0.1926
  606MOL0     H81764   6.122   1.389   3.677 -1.3005 -2.2005  2.0199
  606MOL0     H81765   6.283   1.373   3.744 -0.2713  0.3547 -1.8481
  606MOL0     H81766   6.072   1.562   3.846 -0.6423  0.4575  1.8740
  606MOL0     H81767   6.237   1.558   3.914 -0.6440  0.7830 -1.3800
  606MOL0     H81768   6.096   1.430   4.072 -0.6171 -1.8953  1.0665
  606MOL0     H81769   6.193   1.313   3.986  0.6823  0.7802 -2.3513
  606MOL0     H81770   5.764   1.214   3.934  1.0190  2.1618 -0.3789
  606MOL0     H81771   5.711   0.975   3.917  0.8628 -3.4319  0.4887
  606MOL0     H81772   5.914   0.577   4.149  1.8856 -2.2214 -0.2600
  606MOL0     H81773   5.832   0.353   4.232 -0.0563 -1.4189 -0.5144
  606MOL0     H81774   5.719   0.186   4.292 -0.2768  2.2496 -1.6335
  606MOL0     H81775   5.624   0.295   4.390 -0.2236  0.0342  0.9978
  606MOL0     H81776   5.593   0.012   4.339 -1.7949 -0.6573  0.2940
  606MOL0     H81777   5.560   0.088   4.486  0.5560 -1.2041  0.4692
  606MOL0     H81778   5.374   0.081   4.243  3.6911 -1.5090 -1.1485
  606MOL0     H81779   5.355  -0.021   4.383  0.0164  0.2849 -0.0865
  606MOL0     H81780   5.348   0.285   4.382  1.4448 -0.4594  0.5545
  606MOL0     H81781   5.335   0.188   4.518  0.7134  0.0665  0.4687
  606MOL0     H81782   5.155   0.055   4.454  1.0437  0.4285  0.9825
  606MOL0     H81783   5.153   0.124   4.293 -1.7123  0.0520  0.5213
  606MOL0     H81784   5.091   0.258   4.556 -1.2814  2.3185  0.2410
  606MOL0     H81785   5.089   0.340   4.402  1.4551 -0.7705  0.4454
  606MOL0     H81786   4.931   0.093   4.491  1.3150  0.1414 -0.0552
  606MOL0     H81787   4.898   0.157   4.333 -3.2927  0.4948  0.8787
  606MOL0     H81788   4.741   0.254   4.471  0.8570  0.0894 -0.1175
  606MOL0     H81789   4.866   0.346   4.567  0.7875 -5.3108  2.8231
  606MOL0     H81790   5.480   0.405   3.993  0.1511 -0.1207 -1.7806
  606MOL0     H81791   5.561   0.603   3.900 -0.6300 -0.9390 -0.4824
  606MOL0     H81792   6.134   0.890   3.952 -0.4740 -0.0829  1.0594
  606MOL0     H81793   6.185   1.115   3.962  2.8324 -5.2118 -3.2736
  606MOL0     H81794   5.339   2.580   3.338 -0.3092  0.4887  0.6619
  606MOL0     H81795   5.118   2.654   3.258  0.7563  0.4972  0.0879
  606MOL0     H81796   4.639   2.549   3.309 -0.8316 -1.1206  1.1538
  606MOL0     H81797   4.426   2.619   3.248 -0.3915  0.3782  0.4336
  606MOL0     H81798   4.229   3.000   3.439 -2.9667  1.9764  1.0442
  606MOL0     H81799   4.220   2.889   3.561  0.6677 -0.6035 -0.3902
  606MOL0     H81800   4.021   2.786   3.473 -2.2852  0.5002  1.4046
  606MOL0     H81801   4.026   2.897   3.330  2.3439  1.6865 -0.2159
  606MOL0     H81802   4.000   3.082   3.493  0.7645 -0.3789 -2.7602
  606MOL0     H81803   4.025   2.970   3.624  4.0724 -0.1600 -2.3143
  606MOL0     H81804   3.803   2.854   3.518  3.3432 -0.3946  0.5631
  606MOL0     H81805   3.775   2.999   3.622  1.0160 -0.1415 -0.3056
  606MOL0     H81806   3.660   3.192   3.289  1.3832 -1.0280 -2.1728
  606MOL0     H81807   4.424   2.901   3.574 -0.7001  0.8473 -1.2148
  606MOL0     H81808   4.768   2.921   3.628  2.2501 -1.1050  0.0101
  606MOL0     H81809   4.610   2.933   3.708 -0.5368 -1.8873  1.9404
  606MOL0     H81810   4.706   2.785   3.732  2.4852  1.0555 -0.2618
  607MOL0     O81811  10.471   3.048  10.120 -0.0694 -0.2651  0.7266
  607MOL0     C81812  10.559   3.126  10.086  0.4659  0.7785  0.6944
  607MOL0     O81813  10.695   3.102  10.087  0.1492  0.1562 -0.4383
  607MOL0     C81814  10.752   2.977  10.120 -0.3725 -0.5110  1.0319
  607MOL0     C81815  10.686   2.864  10.171  0.1173  0.3495  0.5932
  607MOL0     C81816  10.755   2.741  10.192  0.1853 -0.8968 -0.3219
  607MOL0     C81817  10.894   2.737  10.174 -0.2655  0.5245 -0.2687
  607MOL0     O81818  10.972   2.632  10.192  0.2008 -0.3683 -0.3951
  607MOL0     C81819  10.968   2.533  10.087 -0.1867 -0.1727 -0.8962
  607MOL0     C81820  11.051   2.407  10.115 -0.5331  0.5294  0.1020
  607MOL0     C81821  11.197   2.412  10.067 -0.3116 -0.1515 -0.1440
  607MOL0     C81822  11.251   2.268  10.104 -0.3569  0.3443  0.3261
  607MOL0     C81823  11.399   2.265  10.071  0.0145 -0.4338  0.0305
  607MOL0     C81824  11.480   2.343  10.180  0.2905 -0.7209  0.0917
  607MOL0     C81825  11.487   2.272  10.325 -0.1572  0.2781  0.1943
  607MOL0     C81826  11.608   2.331  10.411 -0.3458  0.6517  0.7024
  607MOL0     N81827  11.601   2.270  10.538 -0.2644 -0.0198  0.1382
  607MOL0     C81828  11.635   2.140  10.574 -0.3826  0.0983  0.1337
  607MOL0     C81829  11.618   2.129  10.707 -0.8105 -0.0337 -1.6565
  607MOL0     C81830  11.631   2.004  10.795 -0.4557  0.4808 -0.8340
  607MOL0     C81831  11.763   1.922  10.752  0.7929 -0.3392 -0.6621
  607MOL0     C81832  11.888   2.008  10.774 -0.3377 -0.4431 -0.8868
  607MOL0     C81833  12.018   1.944  10.722  0.6031  1.0445  0.4462
  607MOL0     O81834  12.014   1.913  10.584  0.1701 -0.2324  0.2879
  607MOL0     C81835  12.136   1.897  10.517  0.1390 -0.0381  0.6561
  607MOL0     C81836  12.138   1.817  10.400  0.3001  0.0082  0.9690
  607MOL0     C81837  12.260   1.788  10.331  0.3451  0.5375 -0.0951
  607MOL0     C81838  12.382   1.833  10.377  0.5977 -0.2140  0.2945
  607MOL0     C81839  12.509   1.798  10.304 -0.2065  0.0605  0.9483
  607MOL0     O81840  12.498   1.756  10.172  0.7459  0.0094  0.2947
  607MOL0     C81841  12.605   1.712  10.095  0.4145  0.7102 -0.2831
  607MOL0     C81842  12.743   1.732  10.117  0.2469 -0.3200 -0.8507
  607MOL0     C81843  12.843   1.678  10.034 -0.7080 -0.6507 -0.0055
  607MOL0     C81844  12.804   1.613   9.920 -0.4365  0.4702  0.6034
  607MOL0     O81845  12.896   1.556   9.830  0.2750  0.0956 -0.5165
  607MOL0     C81846  13.031   1.597   9.855  0.5105 -0.3677  0.2180
  607MOL0     C81847  13.112   1.550   9.731  0.5888  0.8036  0.8395
  607MOL0     C81848  13.258   1.593   9.724  0.9846 -0.4293 -0.3332
  607MOL0     C81849  13.327   1.542   9.602  0.2316 -0.5551 -0.6034
  607MOL0     C81850  13.468   1.594   9.591 -0.8540 -0.7008  0.1728
  607MOL0     C81851  13.541   1.553   9.462 -0.0385 -0.5342  0.3666
  607MOL0     C81852  13.668   1.626   9.455 -0.6757 -0.9330 -0.4324
  607MOL0     C81853  13.765   1.543   9.366 -0.1845  0.2925  0.6472
  607MOL0    Cl81854  13.855   1.429   9.471 -0.0058 -0.0174 -0.3635
  607MOL0     C81855  12.667   1.604   9.892  0.2883  0.0371  0.0597
  607MOL0     C81856  12.572   1.656   9.976 -0.0939  0.2194  0.5714
  607MOL0     O81857  12.611   1.823  10.363  0.2103 -0.0146 -0.3676
  607MOL0     C81858  12.381   1.913  10.489 -0.1880  0.1902  0.0076
  607MOL0     C81859  12.264   1.946  10.559  0.6376  0.6828  0.0061
  607MOL0     N81860  11.588   2.253  10.758 -0.2132  0.6051  0.5642
  607MOL0     N81861  11.576   2.327  10.659 -0.5175 -0.1395 -0.1227
  607MOL0     C81862  10.959   2.852  10.123 -0.2411  0.3662 -0.3042
  607MOL0     C81863  10.897   2.973  10.105 -0.5239  0.2720 -0.0846
  607MOL0     C81864  10.520   3.259  10.035  0.0104 -0.7579  0.9886
  607MOL0     C81865  10.601   3.322   9.941  0.5926 -0.2717 -0.0099
  607MOL0     C81866  10.586   3.450   9.889  0.3579  0.0222 -0.4095
  607MOL0     C81867  10.474   3.525   9.931 -0.3386  0.0027  0.1018
  607MOL0     O81868  10.473   3.657   9.881  0.0961 -0.8626  0.6888
  607MOL0     C81869  10.349   3.727   9.918  0.3733  1.1054  0.1128
  607MOL0     C81870  10.333   3.861   9.851  0.0590 -0.2584  0.7903
  607MOL0     C81871  10.336   3.854   9.701 -0.2808 -0.5579  0.6632
  607MOL0     C81872  10.300   3.997   9.640 -0.7725 -0.2138 -0.6125
  607MOL0     C81873  10.343   3.997   9.499 -0.6794 -0.1667 -0.0642
  607MOL0     C81874  10.369   3.992   9.385 -0.4903 -0.3532 -0.1185
  607MOL0     C81875  10.389   3.467  10.026  0.5055  0.4542  0.1796
  607MOL0     C81876  10.403   3.335  10.074  0.3689  0.8237  0.3256
  607MOL0     C81877  10.300   3.273  10.160  0.4041 -0.2742 -0.7355
  607MOL0     H81878  10.579   2.854  10.190  0.2273 -1.5923  0.3923
  607MOL0     H81879  10.700   2.654  10.223  0.3465 -1.2148 -0.9228
  607MOL0     H81880  10.869   2.496  10.059 -0.8080 -0.7946  1.8337
  607MOL0     H81881  11.006   2.581   9.996  1.7288 -1.0971 -0.6446
  607MOL0     H81882  11.015   2.317  10.064  1.0327  0.9968 -1.9706
  607MOL0     H81883  11.034   2.383  10.220 -2.2768  0.3838 -0.1898
  607MOL0     H81884  11.252   2.497  10.110 -1.1870  0.0778  0.5640
  607MOL0     H81885  11.196   2.423   9.958  0.9935 -4.0156 -0.6986
  607MOL0     H81886  11.229   2.238  10.207  0.4911 -3.8256 -0.5122
  607MOL0     H81887  11.205   2.196  10.036 -0.6275  0.2251  0.6357
  607MOL0     H81888  11.441   2.164  10.071 -1.2509 -1.0438 -2.2855
  607MOL0     H81889  11.417   2.318   9.976  0.5134  0.3056  0.5227
  607MOL0     H81890  11.581   2.341  10.137 -0.3116  1.3723 -1.5853
  607MOL0     H81891  11.446   2.445  10.200 -1.4092 -2.0687  6.0039
  607MOL0     H81892  11.496   2.164  10.311 -0.1428  0.3855 -0.7432
  607MOL0     H81893  11.394   2.301  10.374 -0.3916  2.0743 -1.1805
  607MOL0     H81894  11.701   2.316  10.356 -0.1025  1.8800  0.7389
  607MOL0     H81895  11.595   2.438  10.432  0.8000  0.5308  2.1794
  607MOL0     H81896  11.677   2.062  10.511 -0.6715  0.6168 -0.7365
  607MOL0     H81897  11.643   2.036  10.899  0.0377 -0.5656 -0.5543
  607MOL0     H81898  11.534   1.956  10.786 -2.0732  2.9788  1.5692
  607MOL0     H81899  11.758   1.836  10.820 -2.4835  0.7588  0.6899
  607MOL0     H81900  11.755   1.872  10.655 -1.1611 -3.3842  0.8893
  607MOL0     H81901  11.904   2.016  10.882  1.9231  2.1614 -1.3098
  607MOL0     H81902  11.878   2.112  10.743 -1.7106  0.0146  0.9343
  607MOL0     H81903  12.030   1.849  10.775 -3.3963 -0.8027 -1.5203
  607MOL0     H81904  12.103   2.006  10.752  0.3809  1.5392  0.0708
  607MOL0     H81905  12.043   1.785  10.358  0.1480 -0.3577  1.5839
  607MOL0     H81906  12.237   1.725  10.245 -3.0857 -1.4837  2.0665
  607MOL0     H81907  12.792   1.785  10.198 -1.8712 -2.1075  1.7579
  607MOL0     H81908  12.946   1.691  10.067 -0.7281 -0.4555 -0.0152
  607MOL0     H81909  13.049   1.705   9.860 -0.3916  0.0622 -3.4069
  607MOL0     H81910  13.057   1.540   9.945 -1.1227 -0.6011  0.5748
  607MOL0     H81911  13.114   1.442   9.719 -2.0627  0.9114 -1.3772
  607MOL0     H81912  13.062   1.581   9.638  0.6656  0.2674  0.6178
  607MOL0     H81913  13.252   1.702   9.722 -2.6650 -0.4184  1.5785
  607MOL0     H81914  13.315   1.565   9.813  1.5031  0.0856 -0.5000
  607MOL0     H81915  13.257   1.559   9.519 -1.8357 -2.5274  0.6285
  607MOL0     H81916  13.337   1.435   9.623  0.4228 -0.6137 -0.9960
  607MOL0     H81917  13.528   1.566   9.678 -2.2461  0.8543  1.7055
  607MOL0     H81918  13.454   1.702   9.587 -0.6442 -0.7192 -1.7562
  607MOL0     H81919  13.549   1.444   9.469 -0.2515 -0.7124 -1.5141
  607MOL0     H81920  13.478   1.588   9.379 -0.8266  0.8996  1.5183
  607MOL0     H81921  13.716   1.629   9.553 -3.5791  0.6321  1.0281
  607MOL0     H81922  13.672   1.727   9.415  0.7923  0.1871  2.2636
  607MOL0     H81923  13.702   1.488   9.296 -0.7817  0.1588  1.2853
  607MOL0     H81924  13.837   1.605   9.311 -1.7694  0.4100 -1.3807
  607MOL0     H81925  12.639   1.568   9.793 -1.0824  0.8095  0.1449
  607MOL0     H81926  12.471   1.667   9.938  0.7606  0.6789 -1.7642
  607MOL0     H81927  12.480   1.943  10.523  0.5615  0.4507 -2.2317
  607MOL0     H81928  12.265   2.003  10.651 -0.6454 -0.0098  0.4750
  607MOL0     H81929  11.067   2.845  10.115 -0.2032 -1.8139  1.4087
  607MOL0     H81930  10.953   3.056  10.064  0.1423  1.5753  3.1618
  607MOL0     H81931  10.684   3.268   9.898  0.6434  0.2030 -0.5049
  607MOL0     H81932  10.665   3.488   9.825 -1.5462  1.7967 -1.8331
  607MOL0     H81933  10.336   3.731  10.026 -1.7348 -1.7619  0.0883
  607MOL0     H81934  10.272   3.659   9.881  0.5906 -0.8726  2.9218
  607MOL0     H81935  10.399   3.939   9.890  0.1622  0.7869 -1.3413
  607MOL0     H81936  10.234   3.902   9.871  0.0895  0.6786 -0.8603
  607MOL0     H81937  10.267   3.779   9.662 -2.1677  1.1481  0.5783
  607MOL0     H81938  10.440   3.830   9.673 -0.5080 -0.5173 -0.2284
  607MOL0     H81939  10.193   4.020   9.637 -1.4583 -2.9562  0.4555
  607MOL0     H81940  10.348   4.080   9.693  0.1373  0.0621 -1.8074
  607MOL0     H81941  10.396   3.990   9.282  1.9734  0.6172  0.4095
  607MOL0     H81942  10.305   3.530  10.056  1.2445  1.9704 -0.8180
  607MOL0     H81943  10.339   3.233  10.255  0.0273 -1.0955 -0.9228
  607MOL0     H81944  10.234   3.349  10.203  1.0517 -0.4269  0.5829
  607MOL0     H81945  10.246   3.189  10.116  0.4885 -0.1094 -1.1619
  608MOL0     O81946   3.457   6.264   1.905  0.1566  0.4280  0.0046
  608MOL0     C81947   3.506   6.289   1.797  0.5042  0.9723 -0.0340
  608MOL0     O81948   3.634   6.311   1.777  0.0976  0.3472 -0.7011
  608MOL0     C81949   3.729   6.302   1.880  1.3666 -1.3427 -0.1274
  608MOL0     C81950   3.711   6.345   2.014 -0.8849 -0.7081  0.1153
  608MOL0     C81951   3.820   6.334   2.097  0.0788 -0.7061 -0.1233
  608MOL0     C81952   3.941   6.290   2.058 -0.1493 -0.2189  0.3567
  608MOL0     O81953   4.041   6.292   2.153 -0.3808 -0.8901  0.1915
  608MOL0     C81954   4.133   6.183   2.155  0.8926 -0.9315  0.1884
  608MOL0     C81955   4.200   6.184   2.288  0.4103  0.0273 -0.7842
  608MOL0     C81956   4.322   6.097   2.277 -1.0709  0.0750 -0.0688
  608MOL0     C81957   4.363   6.041   2.415 -0.6501 -0.5263 -0.0800
  608MOL0     C81958   4.491   5.960   2.407 -0.6585  0.4888  0.1709
  608MOL0     C81959   4.609   6.025   2.476  0.8091  0.5369 -0.3742
  608MOL0     C81960   4.714   5.915   2.478 -0.2458 -0.4498 -0.4738
  608MOL0     C81961   4.847   5.946   2.543 -0.1797 -1.0640 -0.9084
  608MOL0     N81962   4.926   6.055   2.492 -0.7979 -0.1129 -0.5396
  608MOL0     C81963   5.035   6.033   2.412 -0.1488 -0.4751  0.7081
  608MOL0     C81964   5.060   6.163   2.371 -0.9799 -0.4935  0.3897
  608MOL0     C81965   5.155   6.211   2.254 -0.9647  0.3736 -0.1608
  608MOL0     C81966   5.243   6.330   2.277 -0.4513  1.3488  0.6811
  608MOL0     C81967   5.319   6.314   2.409 -0.5875 -0.8277 -0.0233
  608MOL0     C81968   5.430   6.414   2.400 -0.4608 -0.3654  0.0953
  608MOL0     O81969   5.486   6.407   2.537 -0.1734  0.4821  0.0560
  608MOL0     C81970   5.603   6.463   2.570 -0.4219 -0.7887  0.3701
  608MOL0     C81971   5.631   6.454   2.712 -0.4573 -0.2114  0.0977
  608MOL0     C81972   5.757   6.498   2.757 -0.2964 -0.9706 -0.0893
  608MOL0     C81973   5.857   6.545   2.675  0.2929 -0.5460  0.2773
  608MOL0     C81974   5.992   6.587   2.724 -0.6871  0.5748  0.4686
  608MOL0     O81975   5.996   6.601   2.858 -0.0647 -0.9649 -0.1181
  608MOL0     C81976   6.112   6.608   2.928 -0.4928  0.3176 -0.8545
  608MOL0     C81977   6.229   6.665   2.877  0.8632 -0.0658 -0.6508
  608MOL0     C81978   6.346   6.649   2.951  0.2896  0.4248 -0.2779
  608MOL0     C81979   6.344   6.612   3.085 -0.3954  0.4609 -0.0599
  608MOL0     O81980   6.467   6.625   3.151  0.5768  0.4725  0.1825
  608MOL0     C81981   6.501   6.507   3.229 -0.0870 -0.2983 -0.1248
  608MOL0     C81982   6.636   6.521   3.305 -0.7407 -0.0221  0.1645
  608MOL0     C81983   6.666   6.395   3.397  0.6583  0.1144  0.0434
  608MOL0     C81984   6.620   6.410   3.540  0.4878  0.2801 -0.4447
  608MOL0     C81985   6.668   6.288   3.625  0.7942 -0.2836 -0.3504
  608MOL0     C81986   6.574   6.166   3.615  0.6022 -0.1276 -0.4547
  608MOL0     C81987   6.428   6.200   3.670  0.7115 -0.1928  0.1157
  608MOL0     C81988   6.349   6.076   3.709  0.3812  0.2367 -0.4291
  608MOL0    Cl81989   6.435   5.982   3.829  0.1359 -0.4680  0.1000
  608MOL0     C81990   6.220   6.568   3.145 -0.8997 -0.3882 -0.5039
  608MOL0     C81991   6.107   6.565   3.072  0.0962  0.0827  0.9954
  608MOL0     O81992   6.087   6.588   2.648  0.1376  0.1615  0.0785
  608MOL0     C81993   5.832   6.545   2.538  0.0503 -0.5995  0.3551
  608MOL0     C81994   5.707   6.504   2.484  0.1640  0.0593  0.0483
  608MOL0     N81995   4.987   6.249   2.454 -0.5892 -0.1333 -0.0441
  608MOL0     N81996   4.903   6.182   2.519  0.7117 -0.8499 -0.5200
  608MOL0     C81997   3.966   6.262   1.931  0.0562 -0.3337  0.6882
  608MOL0     C81998   3.859   6.273   1.836  1.1236 -0.4925  0.0024
  608MOL0     C81999   3.411   6.284   1.673  0.3245  0.7444  0.3941
  608MOL0     C82000   3.275   6.252   1.691  1.1218  0.1401  0.7920
  608MOL0     C82001   3.184   6.233   1.583 -0.5520  0.5247 -0.1840
  608MOL0     C82002   3.237   6.249   1.452  0.5932 -0.4114  0.1261
  608MOL0     O82003   3.163   6.213   1.343  0.2985 -0.6326 -0.6958
  608MOL0     C82004   3.042   6.286   1.323 -0.0221  0.1508 -0.3042
  608MOL0     C82005   2.956   6.202   1.231  0.4460  0.2787 -0.3585
  608MOL0     C82006   2.821   6.281   1.230  0.3170  0.3337 -0.2880
  608MOL0     C82007   2.726   6.234   1.121  0.4553  0.1873  1.0218
  608MOL0     C82008   2.773   6.248   0.984 -0.6145  0.4592  0.5381
  608MOL0     C82009   2.805   6.256   0.869  0.0278 -0.6883 -0.0940
  608MOL0     C82010   3.361   6.296   1.436 -1.1312 -0.5806 -0.4855
  608MOL0     C82011   3.459   6.309   1.542 -1.4064 -0.7548  0.6773
  608MOL0     C82012   3.593   6.363   1.505 -0.4810  0.3210 -0.8811
  608MOL0     H82013   3.620   6.397   2.041 -2.3884 -1.5264 -2.9133
  608MOL0     H82014   3.815   6.357   2.203 -0.3091 -4.2855  0.7695
  608MOL0     H82015   4.060   6.105   2.134 -0.3989  0.5932 -1.2873
  608MOL0     H82016   4.212   6.191   2.080  0.5415  0.8323 -0.0319
  608MOL0     H82017   4.137   6.151   2.371 -0.4383  0.8201 -1.0835
  608MOL0     H82018   4.221   6.289   2.312 -0.7625  0.3513 -1.0778
  608MOL0     H82019   4.401   6.160   2.234 -1.1124  1.0034  1.1253
  608MOL0     H82020   4.302   6.020   2.203  0.7104  0.9037 -1.5030
  608MOL0     H82021   4.377   6.116   2.493  1.8428  0.7562 -1.6297
  608MOL0     H82022   4.283   5.977   2.453 -1.8373 -0.7895 -2.7746
  608MOL0     H82023   4.478   5.862   2.453  4.2032 -1.5322 -2.0842
  608MOL0     H82024   4.516   5.935   2.304 -1.1630  1.5086 -0.2156
  608MOL0     H82025   4.634   6.117   2.422 -1.0221  1.3140  0.0429
  608MOL0     H82026   4.584   6.039   2.581  0.2113 -1.5478 -0.1961
  608MOL0     H82027   4.741   5.876   2.380  1.3485 -1.9789  0.5138
  608MOL0     H82028   4.685   5.822   2.527  2.1535 -3.2873 -3.9405
  608MOL0     H82029   4.822   5.979   2.644  3.3158  2.0907 -0.8379
  608MOL0     H82030   4.906   5.854   2.549 -0.2744 -1.0248  2.3292
  608MOL0     H82031   5.071   5.937   2.374 -0.2938 -0.4483  0.5003
  608MOL0     H82032   5.236   6.139   2.234  2.1395  2.7693  2.6378
  608MOL0     H82033   5.099   6.232   2.163 -0.1986  0.0999 -0.7116
  608MOL0     H82034   5.306   6.345   2.189 -2.6636 -1.4366 -1.5806
  608MOL0     H82035   5.184   6.423   2.274 -2.4549  0.1405  0.6126
  608MOL0     H82036   5.347   6.210   2.429  1.7863  0.2134  2.6989
  608MOL0     H82037   5.258   6.348   2.493 -1.3305 -0.9705 -0.4951
  608MOL0     H82038   5.390   6.514   2.384 -1.1491 -0.5365  0.6762
  608MOL0     H82039   5.496   6.398   2.315 -0.8942  2.5409 -0.9051
  608MOL0     H82040   5.549   6.408   2.766  2.1028 -1.3223  3.3697
  608MOL0     H82041   5.765   6.489   2.865  0.2973 -1.2822 -0.1541
  608MOL0     H82042   6.234   6.700   2.774 -0.1462 -1.6305 -1.2880
  608MOL0     H82043   6.439   6.677   2.902 -0.7265  1.2659 -1.8195
  608MOL0     H82044   6.427   6.491   3.308  2.5553 -0.8243  2.4261
  608MOL0     H82045   6.494   6.426   3.156  0.0352 -1.0467  0.6871
  608MOL0     H82046   6.713   6.520   3.227 -4.2804 -2.0670 -3.7359
  608MOL0     H82047   6.635   6.615   3.361  0.6911  0.1989 -0.1309
  608MOL0     H82048   6.622   6.306   3.351 -0.1298 -0.0183  1.0276
  608MOL0     H82049   6.774   6.377   3.390  0.2783 -2.5414  0.1171
  608MOL0     H82050   6.512   6.424   3.554  0.5721  0.4412  0.0784
  608MOL0     H82051   6.672   6.498   3.579  0.4881  0.0842  0.0074
  608MOL0     H82052   6.675   6.314   3.731  0.7518 -0.2108 -0.3654
  608MOL0     H82053   6.774   6.266   3.606  1.3454  1.0275  1.0131
  608MOL0     H82054   6.567   6.125   3.514 -0.1002 -2.5465  0.5027
  608MOL0     H82055   6.612   6.077   3.666 -1.1700  0.6702  2.5422
  608MOL0     H82056   6.364   6.256   3.602 -0.1199 -1.2646 -0.0129
  608MOL0     H82057   6.444   6.265   3.757 -1.1167  3.4643 -2.0732
  608MOL0     H82058   6.259   6.100   3.766 -0.5719 -3.1782 -0.2791
  608MOL0     H82059   6.310   6.026   3.620 -2.0896  1.9809 -0.4406
  608MOL0     H82060   6.204   6.533   3.247 -1.0049 -1.6442 -0.9301
  608MOL0     H82061   6.017   6.535   3.124 -1.3512  0.3267 -1.2177
  608MOL0     H82062   5.901   6.579   2.462 -2.2721 -1.1580 -2.2056
  608MOL0     H82063   5.702   6.517   2.377  3.0132 -1.4769 -0.3739
  608MOL0     H82064   4.060   6.229   1.888  1.1354  1.2601  1.7233
  608MOL0     H82065   3.883   6.251   1.732  0.7300 -5.0002  0.6712
  608MOL0     H82066   3.235   6.230   1.790 -0.5134  5.0743  1.5315
  608MOL0     H82067   3.081   6.199   1.590  0.0649 -2.0324 -2.0185
  608MOL0     H82068   3.069   6.387   1.290  0.9468  0.8419  2.3268
  608MOL0     H82069   2.981   6.303   1.412 -0.4768 -1.7031 -0.2209
  608MOL0     H82070   2.930   6.099   1.259  1.2842  0.2207  0.2659
  608MOL0     H82071   3.001   6.199   1.131  0.4788  0.0084 -0.3365
  608MOL0     H82072   2.838   6.389   1.216 -1.6260  1.2093  2.9350
  608MOL0     H82073   2.772   6.278   1.328 -2.1163  0.1810 -1.4473
  608MOL0     H82074   2.694   6.130   1.136  0.0352  0.1819  0.1571
  608MOL0     H82075   2.636   6.296   1.125 -0.0674  0.2596 -4.6103
  608MOL0     H82076   2.824   6.278   0.766 -0.0345  2.4855  0.4715
  608MOL0     H82077   3.378   6.313   1.330 -3.8978 -0.2016 -0.9381
  608MOL0     H82078   3.618   6.380   1.400  2.4603  2.1261 -0.0278
  608MOL0     H82079   3.598   6.457   1.561 -1.7342 -0.9326  1.5189
  608MOL0     H82080   3.670   6.306   1.559 -3.0890  1.3258  4.6341
  609MOL0     O82081  10.263   3.676   0.647 -0.2259  0.7107  0.5988
  609MOL0     C82082  10.210   3.714   0.751  0.3921 -0.2567  0.4599
  609MOL0     O82083  10.081   3.742   0.773  0.3117 -0.4894 -0.2349
  609MOL0     C82084  10.001   3.688   0.682 -0.4061  0.6848 -0.0941
  609MOL0     C82085   9.986   3.736   0.552 -1.2972  0.0575 -0.0576
  609MOL0     C82086   9.896   3.692   0.465 -0.1439 -0.0904  0.5096
  609MOL0     C82087   9.802   3.598   0.513 -0.5810  0.2390  0.3524
  609MOL0     O82088   9.701   3.557   0.428 -0.5039  0.0306  1.7985
  609MOL0     C82089   9.575   3.512   0.479  0.1540 -0.4024  0.4624
  609MOL0     C82090   9.476   3.499   0.366  0.6392  0.7909  0.2675
  609MOL0     C82091   9.502   3.380   0.275  0.6510 -0.1275  0.1411
  609MOL0     C82092   9.398   3.374   0.167 -0.1608  0.7996 -0.5341
  609MOL0     C82093   9.253   3.337   0.210  0.3542  0.8435  0.4275
  609MOL0     C82094   9.176   3.313   0.079 -0.0522  0.1324 -0.2558
  609MOL0     C82095   9.040   3.393   0.082 -0.7876 -0.6705 -0.5147
  609MOL0     C82096   8.944   3.376  -0.043  0.3747 -0.3010 -0.7383
  609MOL0     N82097   8.995   3.399  -0.173 -0.0043  0.1425 -0.4488
  609MOL0     C82098   9.065   3.305  -0.248 -0.7100 -0.7768  0.2771
  609MOL0     C82099   9.080   3.349  -0.372 -0.2584 -0.0186 -0.3212
  609MOL0     C82100   9.168   3.301  -0.481 -0.2884  0.0601  0.2301
  609MOL0     C82101   9.191   3.394  -0.603  0.1956 -0.5744  0.3041
  609MOL0     C82102   9.072   3.390  -0.700  0.0490  0.3811 -0.4019
  609MOL0     C82103   9.083   3.507  -0.802 -0.0286 -0.1444 -0.2387
  609MOL0     O82104   9.178   3.491  -0.903 -0.7296  0.3997 -0.3377
  609MOL0     C82105   9.195   3.373  -0.968 -0.4761 -0.3612 -0.4694
  609MOL0     C82106   9.093   3.287  -1.006  0.0575 -0.1889 -0.1113
  609MOL0     C82107   9.129   3.173  -1.079 -0.0347  0.3766  1.1277
  609MOL0     C82108   9.261   3.143  -1.118  0.1250  1.0025  0.4454
  609MOL0     C82109   9.279   3.008  -1.187 -0.2917  0.3751 -0.8058
  609MOL0     O82110   9.168   2.964  -1.263 -0.2798 -1.1230 -0.1477
  609MOL0     C82111   9.181   2.841  -1.327  0.2341  0.0127 -0.4370
  609MOL0     C82112   9.247   2.721  -1.272 -0.2132 -0.6221  0.1692
  609MOL0     C82113   9.245   2.605  -1.343 -0.2557  0.4063 -0.0898
  609MOL0     C82114   9.188   2.591  -1.465 -1.1547  0.3756  0.4280
  609MOL0     O82115   9.197   2.477  -1.543  0.0585  0.1575  0.4315
  609MOL0     C82116   9.093   2.380  -1.508 -0.1730 -0.3992  0.0408
  609MOL0     C82117   8.967   2.382  -1.600 -0.4473 -0.0492  0.2440
  609MOL0     C82118   8.854   2.466  -1.539 -0.0878 -0.8865 -0.4561
  609MOL0     C82119   8.728   2.488  -1.619  0.7533  1.2672  0.3350
  609MOL0     C82120   8.621   2.579  -1.559 -0.3886  0.1559 -0.3655
  609MOL0     C82121   8.497   2.583  -1.645  0.7686  0.8334 -0.4607
  609MOL0     C82122   8.380   2.650  -1.566  0.5412 -0.2440 -1.1309
  609MOL0     C82123   8.243   2.646  -1.637 -0.4173 -0.7371  0.8964
  609MOL0    Cl82124   8.241   2.774  -1.758  0.2387 -0.5437 -0.0848
  609MOL0     C82125   9.129   2.711  -1.520 -0.0917  0.6494 -0.2022
  609MOL0     C82126   9.129   2.825  -1.449 -0.4815  0.5979 -0.3166
  609MOL0     O82127   9.395   2.961  -1.194  1.0586 -0.2963  0.5221
  609MOL0     C82128   9.368   3.221  -1.077  0.7678  0.0646  0.0293
  609MOL0     C82129   9.326   3.337  -1.005  0.9796  0.2183  0.2968
  609MOL0     N82130   9.008   3.479  -0.377 -0.1889  0.8791  0.0514
  609MOL0     N82131   8.969   3.500  -0.254 -0.6308 -0.2598  0.3122
  609MOL0     C82132   9.828   3.538   0.641 -0.6856  0.2725 -0.1379
  609MOL0     C82133   9.932   3.575   0.724 -0.2680 -0.3238 -0.2743
  609MOL0     C82134  10.302   3.737   0.861 -0.1010  1.3948 -0.2504
  609MOL0     C82135  10.379   3.625   0.906 -0.2323 -0.0556 -0.0034
  609MOL0     C82136  10.473   3.639   1.008  0.1889 -0.5755 -0.0009
  609MOL0     C82137  10.485   3.759   1.079 -0.4975 -0.3476  0.1269
  609MOL0     O82138  10.586   3.768   1.170 -0.2552 -0.3544 -0.3117
  609MOL0     C82139  10.597   3.884   1.243  0.2012  0.0841 -0.0196
  609MOL0     C82140  10.716   3.863   1.335 -0.0052  0.7419 -0.0610
  609MOL0     C82141  10.669   3.757   1.443 -0.2370 -0.2932  0.1758
  609MOL0     C82142  10.768   3.756   1.562  0.3187  0.5288  0.9327
  609MOL0     C82143  10.901   3.704   1.527 -0.1535  0.7090 -0.3715
  609MOL0     C82144  11.008   3.659   1.490 -0.2374  0.0429 -0.5993
  609MOL0     C82145  10.393   3.866   1.046  0.1739 -0.0750  0.1326
  609MOL0     C82146  10.297   3.854   0.943 -0.3582  0.0113  0.0866
  609MOL0     C82147  10.209   3.977   0.911 -0.2188  0.7673  0.2214
  609MOL0     H82148  10.046   3.818   0.512 -1.1111 -0.7024 -1.3941
  609MOL0     H82149   9.870   3.748   0.376 -2.2487 -1.4322  0.2082
  609MOL0     H82150   9.579   3.420   0.538  0.7582  0.2919  1.5595
  609MOL0     H82151   9.528   3.591   0.538  1.1943 -0.2461  1.1215
  609MOL0     H82152   9.489   3.586   0.301  3.3036 -1.5827 -2.7071
  609MOL0     H82153   9.372   3.482   0.394  0.0489 -1.2068 -2.6731
  609MOL0     H82154   9.497   3.292   0.338 -1.2429  1.4340  2.3472
  609MOL0     H82155   9.597   3.384   0.222  0.0605  1.4258 -0.8932
  609MOL0     H82156   9.389   3.466   0.109 -1.2570  1.3063  0.3958
  609MOL0     H82157   9.425   3.299   0.093  1.7296  3.7848 -3.1377
  609MOL0     H82158   9.257   3.246   0.270 -0.0428 -0.1700 -1.0403
  609MOL0     H82159   9.206   3.418   0.266 -1.2824  1.0096 -1.1194
  609MOL0     H82160   9.230   3.350  -0.008  1.7207 -1.4753  0.1109
  609MOL0     H82161   9.157   3.205   0.070  1.3147 -0.4193  2.4233
  609MOL0     H82162   9.065   3.500   0.089 -2.7885  0.0562 -3.1866
  609MOL0     H82163   8.986   3.377   0.176  1.5108 -2.8876  0.5329
  609MOL0     H82164   8.912   3.273  -0.024 -0.0733  0.2975  2.2596
  609MOL0     H82165   8.861   3.445  -0.022 -2.6767 -3.2096 -2.2868
  609MOL0     H82166   9.119   3.224  -0.201  1.2202 -1.2169 -2.4518
  609MOL0     H82167   9.264   3.278  -0.433 -0.6552 -2.6939 -0.1970
  609MOL0     H82168   9.130   3.203  -0.512 -0.8586  0.4014 -0.1575
  609MOL0     H82169   9.215   3.499  -0.581  2.0392 -0.0801 -3.2690
  609MOL0     H82170   9.283   3.362  -0.652  0.4767 -0.7757  0.9604
  609MOL0     H82171   8.982   3.417  -0.646 -0.3773  0.7731 -1.2797
  609MOL0     H82172   9.054   3.291  -0.744 -0.8343  1.2436 -2.0741
  609MOL0     H82173   9.096   3.593  -0.736  0.5310  0.8355 -1.5869
  609MOL0     H82174   8.990   3.515  -0.860 -0.6394  2.1407  0.9271
  609MOL0     H82175   8.987   3.300  -0.988 -0.2035 -2.1871 -0.0788
  609MOL0     H82176   9.052   3.098  -1.095  1.5413 -1.3848  1.4809
  609MOL0     H82177   9.279   2.752  -1.174 -2.7055  1.1608  0.5210
  609MOL0     H82178   9.284   2.512  -1.304 -2.0746 -0.1087  0.6155
  609MOL0     H82179   9.137   2.281  -1.525  0.5751 -0.5435  2.4024
  609MOL0     H82180   9.059   2.397  -1.405  3.0142 -0.0830  1.1643
  609MOL0     H82181   8.981   2.410  -1.704 -3.3496 -0.5358 -0.3760
  609MOL0     H82182   8.927   2.280  -1.600  1.4836 -0.8465 -0.0735
  609MOL0     H82183   8.820   2.422  -1.445 -0.8519 -0.5131 -0.5461
  609MOL0     H82184   8.899   2.565  -1.523 -0.4171 -0.9388  0.9862
  609MOL0     H82185   8.680   2.391  -1.633 -1.8443  2.0463  2.8379
  609MOL0     H82186   8.742   2.521  -1.722 -1.1342 -0.9181 -0.7322
  609MOL0     H82187   8.651   2.682  -1.541 -0.5887 -0.2275  2.7369
  609MOL0     H82188   8.595   2.540  -1.460 -0.7696 -0.2218 -0.6080
  609MOL0     H82189   8.520   2.624  -1.743 -1.2484  2.8376 -0.1629
  609MOL0     H82190   8.474   2.479  -1.668 -0.5335  0.3539  2.4947
  609MOL0     H82191   8.409   2.754  -1.555  3.5527 -1.0081 -0.9809
  609MOL0     H82192   8.366   2.606  -1.467 -0.4210  0.5620 -0.8921
  609MOL0     H82193   8.213   2.547  -1.672 -4.1869  0.0487  1.4781
  609MOL0     H82194   8.162   2.664  -1.566 -0.6003 -0.3719  0.5950
  609MOL0     H82195   9.093   2.697  -1.621 -0.1057  1.1718 -0.2715
  609MOL0     H82196   9.080   2.910  -1.496 -1.9392 -0.1038 -0.1125
  609MOL0     H82197   9.474   3.217  -1.098  1.0957  0.6078  1.4394
  609MOL0     H82198   9.408   3.396  -0.965 -0.5971  1.8678  1.1781
  609MOL0     H82199   9.782   3.447   0.679  0.9670  0.1426  1.6846
  609MOL0     H82200   9.959   3.524   0.816  1.3993  0.9128 -0.0386
  609MOL0     H82201  10.384   3.538   0.842 -0.3064 -0.2151  0.2075
  609MOL0     H82202  10.541   3.558   1.032  1.1740  0.4256  0.6950
  609MOL0     H82203  10.501   3.899   1.293  0.3152  0.0628  0.2094
  609MOL0     H82204  10.614   3.968   1.176 -0.1634 -0.0259 -0.2536
  609MOL0     H82205  10.751   3.955   1.383  1.3317  0.4986 -0.5300
  609MOL0     H82206  10.799   3.816   1.283 -1.5024 -1.0904 -0.8985
  609MOL0     H82207  10.669   3.657   1.399  1.6514 -1.2209  2.0652
  609MOL0     H82208  10.575   3.792   1.486 -0.6146  0.1197 -0.9527
  609MOL0     H82209  10.789   3.861   1.586  0.6244  0.6168  0.2988
  609MOL0     H82210  10.720   3.703   1.645 -0.9264  0.0173 -0.0815
  609MOL0     H82211  11.108   3.621   1.486 -0.1437 -0.2327  2.3635
  609MOL0     H82212  10.404   3.964   1.092 -0.8468 -1.1414  2.8242
  609MOL0     H82213  10.267   4.052   0.857  0.1802  0.0059 -0.4326
  609MOL0     H82214  10.120   3.949   0.853  0.7450  1.0499 -1.4376
  609MOL0     H82215  10.175   4.020   1.006  2.2805  1.3165  0.9242
  610MOL0     O82216   0.579   9.040   7.311  1.0117 -0.4691 -0.1390
  610MOL0     C82217   0.504   9.046   7.212  0.1716 -0.8762  0.6310
  610MOL0     O82218   0.545   9.038   7.083 -0.0974 -0.8485 -0.2071
  610MOL0     C82219   0.679   9.055   7.061  0.8343  0.1807 -0.1339
  610MOL0     C82220   0.736   9.183   7.097  0.5728 -0.5919 -0.3614
  610MOL0     C82221   0.875   9.207   7.087 -0.4302 -0.3975 -0.0687
  610MOL0     C82222   0.953   9.103   7.031  0.4433 -0.8956  0.2866
  610MOL0     O82223   1.086   9.134   7.022  0.2789 -0.4432 -0.3410
  610MOL0     C82224   1.142   9.071   6.902 -0.3348  0.1440 -0.2967
  610MOL0     C82225   1.278   9.132   6.852 -0.8120 -0.3876 -0.3150
  610MOL0     C82226   1.356   9.038   6.752 -0.7762 -0.3157 -0.1912
  610MOL0     C82227   1.280   9.018   6.621 -0.0701 -0.6461  0.7202
  610MOL0     C82228   1.352   8.930   6.526 -0.1013  0.6899  0.1598
  610MOL0     C82229   1.282   8.921   6.392 -0.6656  0.3853  1.2863
  610MOL0     C82230   1.306   8.791   6.318 -0.1578 -0.2282  0.0414
  610MOL0     C82231   1.448   8.775   6.274  0.4252 -0.0215 -0.1745
  610MOL0     N82232   1.486   8.870   6.180 -0.0165 -0.0831  0.1791
  610MOL0     C82233   1.466   8.880   6.043 -0.0449  0.2874 -1.2689
  610MOL0     C82234   1.537   8.990   6.005 -0.8836  1.0306 -0.1573
  610MOL0     C82235   1.557   9.018   5.861 -0.1556  0.0913  0.1989
  610MOL0     C82236   1.668   9.107   5.823  0.6536 -0.3778 -0.5538
  610MOL0     C82237   1.689   9.115   5.671 -0.2714 -0.5318  0.0225
  610MOL0     C82238   1.731   8.977   5.620 -0.4051  0.1751  0.7876
  610MOL0     O82239   1.782   8.987   5.485  0.7590 -0.0780 -0.2081
  610MOL0     C82240   1.919   8.979   5.479 -1.7374  0.6201 -0.0686
  610MOL0     C82241   1.989   8.861   5.441  0.1182  0.4570  0.9973
  610MOL0     C82242   2.129   8.859   5.426 -0.5488  0.3991  0.1522
  610MOL0     C82243   2.202   8.972   5.442 -0.4089 -0.3995 -0.5475
  610MOL0     C82244   2.348   8.974   5.415  0.7751 -0.2862  0.1184
  610MOL0     O82245   2.413   9.091   5.395  0.6173  0.0757 -0.5293
  610MOL0     C82246   2.541   9.082   5.349 -0.1424  0.3693 -0.4107
  610MOL0     C82247   2.650   9.049   5.435 -0.0020  0.6171  0.0740
  610MOL0     C82248   2.785   9.073   5.393  0.3526  0.3790 -0.5063
  610MOL0     C82249   2.800   9.129   5.270 -0.3137  1.1009  0.4516
  610MOL0     O82250   2.923   9.139   5.213  0.0140  0.0521  0.1265
  610MOL0     C82251   3.045   9.142   5.291 -0.4709  0.4357  0.1924
  610MOL0     C82252   3.116   9.000   5.285 -0.2513  0.6270 -0.4967
  610MOL0     C82253   3.185   9.001   5.147 -0.4605 -0.2801  0.4396
  610MOL0     C82254   3.255   8.858   5.124 -0.3390 -0.3435 -0.2204
  610MOL0     C82255   3.166   8.749   5.073 -0.0736 -0.2191  0.1977
  610MOL0     C82256   3.215   8.608   5.109 -0.3191  0.1901  0.0975
  610MOL0     C82257   3.350   8.575   5.051 -0.3858  0.2308  0.2885
  610MOL0     C82258   3.369   8.424   5.080  0.0659  0.5939  0.4958
  610MOL0    Cl82259   3.322   8.364   5.242 -0.2830  0.2143  0.9685
  610MOL0     C82260   2.696   9.151   5.182  0.6773 -0.9003  1.2364
  610MOL0     C82261   2.565   9.136   5.223  0.3537  0.5184  0.1111
  610MOL0     O82262   2.396   8.865   5.385 -0.6321  0.2230 -0.1897
  610MOL0     C82263   2.131   9.092   5.471  0.2879  0.3281  0.6850
  610MOL0     C82264   1.995   9.089   5.502 -0.3126  0.1640  0.4068
  610MOL0     N82265   1.596   9.046   6.116  0.1881  0.7742 -0.4100
  610MOL0     N82266   1.556   8.982   6.217 -0.5427 -0.0013 -0.4759
  610MOL0     C82267   0.894   8.973   7.000 -0.2326 -0.9893 -0.6817
  610MOL0     C82268   0.760   8.954   7.007  0.7856 -1.2295 -0.3602
  610MOL0     C82269   0.354   9.044   7.228  0.8176 -1.2980  0.0568
  610MOL0     C82270   0.263   9.012   7.122  0.6571 -0.0178 -1.1537
  610MOL0     C82271   0.128   9.018   7.143  0.4329 -0.4514 -0.0718
  610MOL0     C82272   0.068   9.055   7.261 -0.0038  0.2085  0.3212
  610MOL0     O82273  -0.072   9.064   7.263 -0.3875 -0.9611  0.4721
  610MOL0     C82274  -0.140   9.092   7.380  0.7730 -0.9946 -0.5919
  610MOL0     C82275  -0.280   9.027   7.365 -0.8524 -0.8886 -0.1262
  610MOL0     C82276  -0.365   9.088   7.254 -0.5919  0.5816  0.1114
  610MOL0     C82277  -0.497   9.019   7.236  0.5725 -0.2314 -0.2565
  610MOL0     C82278  -0.580   9.007   7.357 -1.1560  0.6196  0.3714
  610MOL0     C82279  -0.647   8.998   7.454  0.0269 -0.8316  0.8113
  610MOL0     C82280   0.148   9.091   7.366 -0.3563 -0.5855 -0.0522
  610MOL0     C82281   0.292   9.080   7.355  0.6402 -0.1036  0.0541
  610MOL0     C82282   0.367   9.122   7.477 -0.2955 -0.3961  0.4440
  610MOL0     H82283   0.676   9.255   7.151  0.1837 -3.0574  2.7409
  610MOL0     H82284   0.921   9.300   7.121 -2.2782 -0.5063  3.0782
  610MOL0     H82285   1.148   8.962   6.910 -1.0926  0.1191 -0.0644
  610MOL0     H82286   1.078   9.095   6.816 -0.0065 -1.8322 -1.1691
  610MOL0     H82287   1.348   9.141   6.935 -0.0757 -1.1524 -0.8271
  610MOL0     H82288   1.273   9.231   6.806 -0.7265 -0.0851  0.3148
  610MOL0     H82289   1.377   8.937   6.787  1.3334  0.2320  0.2998
  610MOL0     H82290   1.456   9.077   6.728 -0.2925 -1.2988  0.1742
  610MOL0     H82291   1.185   8.965   6.635 -0.9099 -0.1338 -2.3341
  610MOL0     H82292   1.267   9.118   6.578 -2.0132 -0.7331  0.9904
  610MOL0     H82293   1.449   8.978   6.513 -0.9181  3.0701  2.0813
  610MOL0     H82294   1.355   8.827   6.562 -1.6099  1.4797  2.8160
  610MOL0     H82295   1.176   8.938   6.411 -0.0415  1.0291  4.9549
  610MOL0     H82296   1.325   8.997   6.325 -0.0821 -0.6010  0.5002
  610MOL0     H82297   1.238   8.795   6.233 -0.5267  2.6167  0.3663
  610MOL0     H82298   1.278   8.710   6.386 -1.5067  0.6628  0.6010
  610MOL0     H82299   1.524   8.776   6.352  2.0152  0.3390 -1.6593
  610MOL0     H82300   1.464   8.685   6.215 -1.9249  0.4685 -1.7228
  610MOL0     H82301   1.409   8.810   5.983 -1.4263 -1.3706  1.7764
  610MOL0     H82302   1.567   8.914   5.828 -0.9472 -0.1774  0.7736
  610MOL0     H82303   1.459   9.054   5.827 -0.0326  2.4827  2.1093
  610MOL0     H82304   1.646   9.205   5.865  0.4423 -0.1062 -1.2715
  610MOL0     H82305   1.758   9.075   5.877  0.7963  2.6144  1.1586
  610MOL0     H82306   1.762   9.190   5.640 -0.0679 -1.1692 -1.1026
  610MOL0     H82307   1.597   9.143   5.619  0.7469 -0.3744 -1.7775
  610MOL0     H82308   1.654   8.899   5.624 -1.2438  0.9399  0.0694
  610MOL0     H82309   1.813   8.947   5.686 -0.1386  0.7465  0.7253
  610MOL0     H82310   1.931   8.770   5.432 -1.9462  1.1738  4.7413
  610MOL0     H82311   2.179   8.776   5.377  1.1474  2.0894 -1.1758
  610MOL0     H82312   2.624   9.000   5.528  0.6899 -0.1337 -0.1187
  610MOL0     H82313   2.868   9.045   5.457  0.9917  4.0882  0.5055
  610MOL0     H82314   3.113   9.222   5.262 -3.6164  2.4627 -2.2011
  610MOL0     H82315   3.010   9.162   5.393 -1.2989  1.6071 -0.3039
  610MOL0     H82316   3.191   8.998   5.364 -1.3757  0.8029  0.6143
  610MOL0     H82317   3.046   8.917   5.301 -1.5248  1.7219 -0.1428
  610MOL0     H82318   3.102   9.019   5.078  0.7971  0.9346 -0.8447
  610MOL0     H82319   3.260   9.080   5.138 -0.5238  0.0589  2.4993
  610MOL0     H82320   3.304   8.820   5.214  0.9504 -2.9071 -1.8986
  610MOL0     H82321   3.325   8.875   5.042 -1.8164 -1.1183 -1.7103
  610MOL0     H82322   3.170   8.757   4.964  1.2589  0.1721  0.2575
  610MOL0     H82323   3.066   8.765   5.115  1.2287  3.2099  2.4323
  610MOL0     H82324   3.223   8.602   5.218 -2.5110  0.1374  0.2986
  610MOL0     H82325   3.136   8.536   5.085 -1.0672  0.0966  2.5241
  610MOL0     H82326   3.431   8.629   5.100  1.3848  1.2379 -3.4639
  610MOL0     H82327   3.345   8.594   4.944 -3.4603  3.2474  0.7902
  610MOL0     H82328   3.310   8.376   5.001  0.5936 -1.4588  1.2945
  610MOL0     H82329   3.471   8.389   5.062 -0.5986 -0.7296 -0.8964
  610MOL0     H82330   2.716   9.192   5.083  1.0271  1.2232  2.1418
  610MOL0     H82331   2.482   9.173   5.163  1.0113  1.0307 -0.4866
  610MOL0     H82332   2.193   9.180   5.485 -1.2047  1.6845 -0.6500
  610MOL0     H82333   1.952   9.178   5.545 -3.4045 -0.4546 -1.1028
  610MOL0     H82334   0.949   8.894   6.950 -3.0475 -1.4081 -3.4508
  610MOL0     H82335   0.716   8.861   6.972  0.1392 -1.1203  0.1397
  610MOL0     H82336   0.295   9.002   7.019 -1.1783  0.4046 -1.7938
  610MOL0     H82337   0.046   8.997   7.074 -0.5163 -2.0262  1.4666
  610MOL0     H82338  -0.153   9.201   7.390  0.7213 -1.0223 -0.3712
  610MOL0     H82339  -0.083   9.054   7.465  1.0855 -0.7313 -0.6833
  610MOL0     H82340  -0.330   9.048   7.460 -0.5490  0.8029 -0.2982
  610MOL0     H82341  -0.270   8.920   7.346 -1.0271 -0.8074 -0.7017
  610MOL0     H82342  -0.316   9.067   7.158  1.0034 -0.5559  1.1193
  610MOL0     H82343  -0.371   9.196   7.271  0.7207  0.4135  1.9189
  610MOL0     H82344  -0.552   9.078   7.162  4.4895 -1.6515 -4.8702
  610MOL0     H82345  -0.480   8.920   7.192  1.1753 -1.5293  2.6970
  610MOL0     H82346  -0.712   8.987   7.538 -4.4422 -1.3017 -2.3150
  610MOL0     H82347   0.112   9.150   7.449  4.0997  0.6211  1.3133
  610MOL0     H82348   0.459   9.180   7.472 -0.3736  0.7188  5.7968
  610MOL0     H82349   0.294   9.181   7.534 -0.8899 -0.7832  0.0907
  610MOL0     H82350   0.398   9.032   7.530 -0.1798 -0.1914  0.7262
  611MOL0     O82351   6.018   5.012   8.461  0.4693 -0.3216  0.2445
  611MOL0     C82352   6.089   4.955   8.543 -0.1661 -0.4990 -0.2677
  611MOL0     O82353   6.197   5.007   8.598  0.3281  0.2710 -0.1276
  611MOL0     C82354   6.254   5.111   8.525  0.5720 -0.1400 -0.2530
  611MOL0     C82355   6.207   5.235   8.545  0.2791  0.4335 -0.3584
  611MOL0     C82356   6.263   5.347   8.494 -1.1703  0.4330  0.0103
  611MOL0     C82357   6.376   5.346   8.417 -0.7861  0.7888  0.0850
  611MOL0     O82358   6.421   5.467   8.364  1.0476  0.3516  1.1321
  611MOL0     C82359   6.564   5.490   8.368  0.5349 -0.6212  0.0767
  611MOL0     C82360   6.569   5.647   8.363 -0.3657  0.3052  0.3061
  611MOL0     C82361   6.709   5.705   8.362  0.0477  0.6341  0.0714
  611MOL0     C82362   6.692   5.855   8.378 -0.8743 -0.0026 -0.4069
  611MOL0     C82363   6.831   5.926   8.377 -0.1771 -0.0118  0.3547
  611MOL0     C82364   6.935   5.880   8.264  0.3635  0.1963  0.2485
  611MOL0     C82365   7.059   5.972   8.233  0.1329  0.0336  1.2834
  611MOL0     C82366   7.128   5.905   8.118 -0.4705 -0.0346 -0.0530
  611MOL0     N82367   7.261   5.959   8.088 -0.9124  0.6270 -0.0759
  611MOL0     C82368   7.378   5.899   8.123 -0.5225  0.2671  0.4811
  611MOL0     C82369   7.473   5.964   8.052 -0.2350 -0.0772  0.5297
  611MOL0     C82370   7.623   5.936   8.037  0.2651 -0.3435  0.2158
  611MOL0     C82371   7.693   6.063   7.990  0.4035  0.2643  0.0535
  611MOL0     C82372   7.846   6.047   7.978 -1.3829 -0.4451  0.2086
  611MOL0     C82373   7.918   6.040   8.118  0.8287 -0.3302  0.2220
  611MOL0     O82374   7.908   6.168   8.184  0.6872  0.9872  0.4905
  611MOL0     C82375   7.964   6.191   8.307 -1.2611  0.5553  0.6669
  611MOL0     C82376   8.054   6.102   8.368 -0.5003 -0.3053 -0.0431
  611MOL0     C82377   8.128   6.144   8.480  0.1584 -0.6846 -0.0736
  611MOL0     C82378   8.120   6.279   8.527  0.4133 -0.0466  0.6443
  611MOL0     C82379   8.194   6.325   8.643  0.3798  1.0250 -0.9569
  611MOL0     O82380   8.173   6.452   8.681  0.5534 -0.2529 -0.8100
  611MOL0     C82381   8.260   6.517   8.769  0.6274 -0.1723  0.3277
  611MOL0     C82382   8.353   6.608   8.718  0.0884 -0.1967 -0.2281
  611MOL0     C82383   8.444   6.677   8.792 -0.0994 -0.2559  0.2500
  611MOL0     C82384   8.436   6.658   8.935 -0.1608  0.5495  0.1076
  611MOL0     O82385   8.519   6.714   9.029 -0.6125  0.2777  0.6393
  611MOL0     C82386   8.651   6.760   8.986 -0.0158  0.3098  0.0408
  611MOL0     C82387   8.744   6.802   9.096 -0.8626  0.7490  0.5451
  611MOL0     C82388   8.822   6.679   9.140 -0.2849 -0.1522 -0.3406
  611MOL0     C82389   8.937   6.728   9.225  0.2649 -0.3505 -0.0470
  611MOL0     C82390   9.010   6.620   9.308 -0.2521 -0.6443  0.8945
  611MOL0     C82391   9.070   6.517   9.208 -1.1425  0.2410  0.4395
  611MOL0     C82392   9.176   6.423   9.277  0.6609  0.2288 -0.2345
  611MOL0     C82393   9.194   6.289   9.200  0.2436 -0.1132 -0.7578
  611MOL0    Cl82394   9.182   6.311   9.025  0.0129  0.2801  0.2470
  611MOL0     C82395   8.335   6.579   8.992 -0.4010  0.4307 -0.6082
  611MOL0     C82396   8.246   6.514   8.909  0.6070  0.2109 -0.7599
  611MOL0     O82397   8.269   6.247   8.704 -0.3511  0.2067 -0.5371
  611MOL0     C82398   8.014   6.364   8.479 -0.8404 -0.4318  0.2126
  611MOL0     C82399   7.947   6.316   8.370  0.0259  0.3408  0.0979
  611MOL0     N82400   7.412   6.050   7.965 -0.0035  0.0134 -0.5208
  611MOL0     N82401   7.283   6.043   7.982  0.4222 -0.1274 -0.0111
  611MOL0     C82402   6.435   5.221   8.390  0.3562 -0.2323  0.2282
  611MOL0     C82403   6.369   5.103   8.443 -0.3848 -0.5783 -0.4509
  611MOL0     C82404   6.020   4.844   8.616  0.8598 -0.4876  0.3801
  611MOL0     C82405   6.069   4.817   8.744 -0.3916 -0.8107  0.6812
  611MOL0     C82406   6.003   4.728   8.825  0.0728  0.5178  0.1228
  611MOL0     C82407   5.903   4.641   8.781 -0.3062 -0.0830  0.0299
  611MOL0     O82408   5.854   4.535   8.859 -0.0457  0.1722  0.2495
  611MOL0     C82409   5.723   4.543   8.923 -0.5275 -0.7494 -0.0577
  611MOL0     C82410   5.727   4.646   9.035 -0.5692  0.2642 -1.5903
  611MOL0     C82411   5.841   4.623   9.136  0.1223  0.4270  0.1324
  611MOL0     C82412   5.890   4.744   9.228 -0.7454 -0.7472  0.3999
  611MOL0     C82413   6.013   4.796   9.183 -0.5040 -0.2968 -0.8247
  611MOL0     C82414   6.126   4.842   9.157  0.0783  0.6372  0.4405
  611MOL0     C82415   5.858   4.667   8.647 -0.5907 -0.3679  0.6170
  611MOL0     C82416   5.911   4.765   8.566  0.5984  1.0339  0.2179
  611MOL0     C82417   5.858   4.778   8.426 -0.0396 -0.7364 -0.0289
  611MOL0     H82418   6.118   5.233   8.606  0.4661  1.3623 -0.0386
  611MOL0     H82419   6.227   5.447   8.516 -0.9844  0.4269  0.3417
  611MOL0     H82420   6.618   5.450   8.454 -0.9336 -4.0804 -0.4440
  611MOL0     H82421   6.614   5.451   8.279  1.7249 -0.2572  0.5606
  611MOL0     H82422   6.523   5.688   8.454 -0.4073 -0.0730  0.4558
  611MOL0     H82423   6.512   5.679   8.275 -1.3406  0.2431  0.9025
  611MOL0     H82424   6.754   5.687   8.264  1.4639 -1.1613  0.9894
  611MOL0     H82425   6.768   5.654   8.438 -0.0173 -2.1059 -1.5638
  611MOL0     H82426   6.631   5.909   8.306  1.5085  2.7986 -0.5175
  611MOL0     H82427   6.646   5.883   8.473  1.2053 -2.5190  1.4771
  611MOL0     H82428   6.818   6.035   8.371 -2.3128 -0.2745 -1.1494
  611MOL0     H82429   6.879   5.896   8.470  1.5586 -2.1875 -1.1529
  611MOL0     H82430   6.957   5.774   8.277  0.6356  0.4097  1.7255
  611MOL0     H82431   6.877   5.891   8.173  0.5409  1.7786  0.2862
  611MOL0     H82432   7.119   5.976   8.325  1.5429  0.9807  0.3519
  611MOL0     H82433   7.033   6.076   8.213  0.4379 -0.2802 -0.9216
  611MOL0     H82434   7.122   5.797   8.139 -0.3300  0.0155  0.2512
  611MOL0     H82435   7.078   5.936   8.026 -0.7193  0.4882  0.2533
  611MOL0     H82436   7.395   5.815   8.189  1.0494 -0.1589 -0.4242
  611MOL0     H82437   7.664   5.899   8.131 -0.0687 -0.3613  0.3546
  611MOL0     H82438   7.651   5.862   7.961 -0.0112 -0.7311  0.4879
  611MOL0     H82439   7.653   6.082   7.889 -3.1750  2.3616  1.6597
  611MOL0     H82440   7.660   6.149   8.049  0.4501 -2.1883  3.9327
  611MOL0     H82441   7.891   6.126   7.917 -2.4588  0.0088 -0.0095
  611MOL0     H82442   7.865   5.957   7.918  0.8247  0.6404 -0.8648
  611MOL0     H82443   8.022   6.022   8.090  0.6623 -0.1650 -0.5121
  611MOL0     H82444   7.887   5.955   8.180  0.2616 -1.7487 -1.8856
  611MOL0     H82445   8.081   6.005   8.329  2.3370 -0.0574  1.0669
  611MOL0     H82446   8.202   6.084   8.533  1.1677  0.8040  0.2635
  611MOL0     H82447   8.346   6.624   8.611 -1.5162 -1.5054 -0.3593
  611MOL0     H82448   8.517   6.747   8.752  0.2232 -0.8323 -0.1881
  611MOL0     H82449   8.703   6.701   8.910 -1.7556  0.6288 -1.4567
  611MOL0     H82450   8.635   6.851   8.927  0.1909  0.9941  1.0226
  611MOL0     H82451   8.810   6.878   9.054 -2.5579  1.2310 -1.4347
  611MOL0     H82452   8.684   6.842   9.178  0.2151 -1.9599  2.7925
  611MOL0     H82453   8.755   6.613   9.196  0.7779  1.1971  2.7862
  611MOL0     H82454   8.866   6.622   9.058 -2.3822 -2.9095  0.3033
  611MOL0     H82455   8.891   6.797   9.297 -0.5929 -1.2893  0.3341
  611MOL0     H82456   8.999   6.786   9.157 -2.5339 -1.0081 -3.4840
  611MOL0     H82457   8.934   6.570   9.370 -3.9896  0.7557 -2.1431
  611MOL0     H82458   9.090   6.664   9.368 -0.9410  3.0208 -0.6534
  611MOL0     H82459   8.995   6.462   9.151  0.5291 -0.7512 -0.9411
  611MOL0     H82460   9.124   6.565   9.125 -1.0606 -1.8558 -0.8130
  611MOL0     H82461   9.144   6.398   9.378 -1.6988 -1.6731 -1.3665
  611MOL0     H82462   9.273   6.475   9.282  0.6113  0.2450  3.1240
  611MOL0     H82463   9.283   6.231   9.225 -1.3860 -2.3630  0.1690
  611MOL0     H82464   9.112   6.228   9.240  1.0174 -1.1489 -0.6903
  611MOL0     H82465   8.325   6.581   9.100  0.3113  0.3199 -0.5340
  611MOL0     H82466   8.165   6.458   8.955  1.0742 -1.4688 -1.8855
  611MOL0     H82467   8.003   6.465   8.517  1.6064 -0.4646  1.1753
  611MOL0     H82468   7.876   6.387   8.330  0.1369  0.8525  0.7964
  611MOL0     H82469   6.526   5.216   8.332  0.4670  0.3298  0.3534
  611MOL0     H82470   6.412   5.004   8.433  0.8237 -0.1543  0.3626
  611MOL0     H82471   6.144   4.879   8.793 -0.9031 -2.1838  3.3827
  611MOL0     H82472   6.048   4.729   8.924 -0.4659 -1.1028  0.4261
  611MOL0     H82473   5.678   4.445   8.938 -1.5037 -0.1302  1.2388
  611MOL0     H82474   5.662   4.594   8.848  0.6295  0.5261 -0.1764
  611MOL0     H82475   5.629   4.656   9.083 -0.0380  1.1962 -0.6332
  611MOL0     H82476   5.752   4.743   8.990  2.1123  0.2711 -0.3094
  611MOL0     H82477   5.926   4.581   9.082 -0.5602  0.1563 -0.7631
  611MOL0     H82478   5.823   4.535   9.199  1.6466 -0.6405 -0.8705
  611MOL0     H82479   5.820   4.827   9.238  1.8416  1.5336  0.9652
  611MOL0     H82480   5.910   4.702   9.328 -2.1662 -3.3462 -0.3081
  611MOL0     H82481   6.223   4.873   9.124 -0.1451 -1.0684 -2.1218
  611MOL0     H82482   5.771   4.614   8.609 -1.5888  1.8689 -0.4032
  611MOL0     H82483   5.925   4.733   8.352  0.6108  1.3195 -0.7724
  611MOL0     H82484   5.762   4.726   8.433 -0.6106  0.4742  2.0468
  611MOL0     H82485   5.827   4.880   8.398  0.9261 -0.1415  0.9729
  612MOL0     O82486  11.211   4.592   9.428 -0.1787  0.0350  0.1361
  612MOL0     C82487  11.272   4.487   9.453 -0.5782  0.0439  0.0637
  612MOL0     O82488  11.219   4.365   9.501  0.0341  0.3628  1.3343
  612MOL0     C82489  11.105   4.357   9.574  0.2178  0.5602 -0.6217
  612MOL0     C82490  11.066   4.457   9.660  0.4752  1.2200  0.2721
  612MOL0     C82491  10.945   4.451   9.723 -0.0299  0.2650 -0.3916
  612MOL0     C82492  10.872   4.336   9.720  0.2634 -0.6033 -0.3006
  612MOL0     O82493  10.763   4.328   9.810 -0.4001 -0.5818 -0.2501
  612MOL0     C82494  10.630   4.315   9.759 -0.5685  0.0390 -0.5618
  612MOL0     C82495  10.544   4.441   9.815 -0.0100 -0.6627 -0.1918
  612MOL0     C82496  10.386   4.419   9.804  0.2519 -0.2932 -0.1897
  612MOL0     C82497  10.325   4.421   9.662 -0.6815  0.1974  0.5122
  612MOL0     C82498  10.173   4.372   9.646 -0.0631  0.6400 -0.6090
  612MOL0     C82499  10.072   4.468   9.709 -0.3421  0.4828 -0.3118
  612MOL0     C82500   9.934   4.394   9.711 -1.2640 -0.1773  0.5198
  612MOL0     C82501   9.827   4.475   9.789  0.5113  0.3110  0.4322
  612MOL0     N82502   9.863   4.505   9.926  0.2548  0.4763  0.4776
  612MOL0     C82503   9.824   4.432  10.028  0.5692 -0.0714  0.0743
  612MOL0     C82504   9.849   4.506  10.137 -0.5247  0.2793  0.3723
  612MOL0     C82505   9.833   4.459  10.276  0.8394 -0.2639  0.1194
  612MOL0     C82506   9.939   4.530  10.367 -0.6862  1.1683 -0.2242
  612MOL0     C82507   9.940   4.466  10.503 -0.5769  0.6158 -0.2622
  612MOL0     C82508  10.066   4.482  10.581  0.6176  0.6840  0.7000
  612MOL0     O82509  10.174   4.404  10.532 -0.1181 -0.3997 -0.0465
  612MOL0     C82510  10.193   4.271  10.545  0.0278 -0.5258  0.1844
  612MOL0     C82511  10.129   4.186  10.642 -0.5029  0.3122 -0.7696
  612MOL0     C82512  10.172   4.049  10.643  0.0473 -0.1312  0.0968
  612MOL0     C82513  10.282   4.005  10.568 -0.0688 -0.8071 -0.3967
  612MOL0     C82514  10.332   3.867  10.584  0.2584  0.2186  0.1190
  612MOL0     O82515  10.431   3.823  10.499  0.2431  0.4796 -0.2045
  612MOL0     C82516  10.466   3.694  10.510  0.3293  0.2378 -0.4472
  612MOL0     C82517  10.463   3.634  10.384 -0.1810 -0.1452  0.6665
  612MOL0     C82518  10.520   3.505  10.378 -0.7315 -0.1419 -0.0884
  612MOL0     C82519  10.561   3.424  10.485  0.1365  0.2980 -0.0536
  612MOL0     O82520  10.593   3.296  10.461 -0.0927  0.3645  0.4093
  612MOL0     C82521  10.687   3.238  10.553  0.5351  0.8500 -0.2301
  612MOL0     C82522  10.742   3.109  10.486 -0.5710 -0.3731 -0.0888
  612MOL0     C82523  10.872   3.053  10.559 -0.5375 -0.0443  0.8278
  612MOL0     C82524  10.920   2.925  10.495  0.2920 -0.0876  0.4340
  612MOL0     C82525  11.071   2.897  10.518 -0.5319 -0.4121 -1.2055
  612MOL0     C82526  11.113   2.747  10.493  0.2796 -0.7086 -0.6700
  612MOL0     C82527  11.254   2.714  10.532  0.1015 -0.3522 -0.2880
  612MOL0     C82528  11.298   2.571  10.505 -0.4032 -0.2621  0.2839
  612MOL0    Cl82529  11.203   2.449  10.581 -0.1272  0.1365 -0.2013
  612MOL0     C82530  10.559   3.485  10.609 -0.1333  0.2952 -0.6165
  612MOL0     C82531  10.509   3.621  10.620 -0.5499 -0.9096 -0.2912
  612MOL0     O82532  10.279   3.793  10.666 -0.0556 -0.7255  0.8420
  612MOL0     C82533  10.345   4.090  10.477 -0.0472  0.2222 -0.4222
  612MOL0     C82534  10.295   4.226  10.460  0.0076  0.3611 -0.0169
  612MOL0     N82535   9.878   4.639  10.099 -0.5963 -1.1076  0.3801
  612MOL0     N82536   9.875   4.637   9.972 -0.8579  0.5668  0.0182
  612MOL0     C82537  10.899   4.234   9.624 -0.0185  0.0649 -0.1898
  612MOL0     C82538  11.015   4.248   9.544 -0.1351  0.0247  0.0624
  612MOL0     C82539  11.414   4.476   9.413 -0.1382 -0.0544 -0.5386
  612MOL0     C82540  11.454   4.521   9.287  1.1935 -0.1467  0.7281
  612MOL0     C82541  11.587   4.506   9.248 -0.6733  1.4719  0.2308
  612MOL0     C82542  11.679   4.451   9.337 -0.2901  0.8340 -0.3092
  612MOL0     O82543  11.796   4.440   9.277 -0.5033  0.4665 -0.2022
  612MOL0     C82544  11.894   4.356   9.341  0.4645 -0.0847 -0.5463
  612MOL0     C82545  11.997   4.315   9.232 -0.2738 -0.0599 -0.6821
  612MOL0     C82546  12.113   4.236   9.289 -0.4882  0.1018 -0.1731
  612MOL0     C82547  12.222   4.213   9.184  0.3957 -1.4110 -0.7858
  612MOL0     C82548  12.316   4.324   9.171  0.1777 -0.2792  0.3788
  612MOL0     C82549  12.394   4.412   9.138 -0.9448 -0.5048 -0.1052
  612MOL0     C82550  11.643   4.410   9.466 -0.3810 -0.7022  0.0815
  612MOL0     C82551  11.507   4.424   9.513  0.1495  0.0028  0.8189
  612MOL0     C82552  11.478   4.373   9.651 -0.6043 -0.4284  0.4765
  612MOL0     H82553  11.139   4.537   9.665  0.0699  1.8280 -2.4050
  612MOL0     H82554  10.909   4.535   9.781  2.1801  0.9495  0.0975
  612MOL0     H82555  10.628   4.310   9.649 -1.1828  0.0209 -0.5546
  612MOL0     H82556  10.585   4.224   9.800  0.8612 -1.0518 -1.3187
  612MOL0     H82557  10.572   4.524   9.749 -0.8020  0.9374  1.3849
  612MOL0     H82558  10.569   4.455   9.921 -0.3652 -0.6734 -0.1056
  612MOL0     H82559  10.346   4.509   9.852 -0.8575 -0.4271 -0.8539
  612MOL0     H82560  10.354   4.333   9.864  2.1504 -0.9188  0.0053
  612MOL0     H82561  10.326   4.526   9.631  1.5318  0.4981  1.4461
  612MOL0     H82562  10.380   4.357   9.593  0.6501  1.3706  0.4531
  612MOL0     H82563  10.139   4.360   9.543  1.1717  0.7111 -1.0411
  612MOL0     H82564  10.167   4.274   9.693  1.7002  1.9686  2.7124
  612MOL0     H82565  10.109   4.486   9.810 -4.1516 -1.9444  1.7842
  612MOL0     H82566  10.079   4.556   9.645  2.9252  0.6678  0.1623
  612MOL0     H82567   9.944   4.291   9.746 -2.7037 -0.7403 -0.6353
  612MOL0     H82568   9.904   4.381   9.607 -0.2328 -1.9818  0.4105
  612MOL0     H82569   9.806   4.570   9.739 -2.3673  1.4059  3.4159
  612MOL0     H82570   9.736   4.415   9.794  1.0604 -0.5714  0.1419
  612MOL0     H82571   9.776   4.334  10.028  0.4372 -0.0916  2.8516
  612MOL0     H82572   9.737   4.492  10.318  0.8621 -0.6341  0.4682
  612MOL0     H82573   9.829   4.350  10.279 -3.7891 -0.2673  1.5117
  612MOL0     H82574  10.040   4.549  10.328  0.8953 -0.3309  2.7540
  612MOL0     H82575   9.896   4.630  10.379  1.5783  2.1095  0.7516
  612MOL0     H82576   9.916   4.360  10.495 -0.6974  0.8052 -4.2612
  612MOL0     H82577   9.855   4.515  10.551 -1.5809  1.6516 -2.9170
  612MOL0     H82578  10.049   4.452  10.685 -0.2515  0.8457  0.6102
  612MOL0     H82579  10.101   4.585  10.590  2.0647  0.1053  2.2242
  612MOL0     H82580  10.061   4.235  10.711 -0.9208  0.9883 -1.6524
  612MOL0     H82581  10.127   3.988  10.720 -0.1955  0.8730  0.7593
  612MOL0     H82582  10.427   3.670  10.289  1.8858  0.8485  0.1952
  612MOL0     H82583  10.538   3.453  10.284  0.5016 -0.1547  0.1321
  612MOL0     H82584  10.767   3.310  10.568  2.1226 -0.4114 -2.2920
  612MOL0     H82585  10.631   3.200  10.639 -2.0446 -1.6129 -2.7819
  612MOL0     H82586  10.668   3.029  10.481  0.3210 -1.1441 -2.7653
  612MOL0     H82587  10.772   3.133  10.384  1.0997  1.0431  0.6828
  612MOL0     H82588  10.954   3.126  10.564 -1.8392  1.3772  2.9722
  612MOL0     H82589  10.838   3.038  10.662 -0.5571  3.5703  1.4921
  612MOL0     H82590  10.892   2.923  10.389  1.7801  1.5168 -0.0385
  612MOL0     H82591  10.863   2.842  10.537  1.5417  0.3594  3.2104
  612MOL0     H82592  11.089   2.930  10.620 -0.4364  1.5501 -1.8161
  612MOL0     H82593  11.125   2.966  10.452  1.0709 -0.9093 -0.4771
  612MOL0     H82594  11.043   2.693  10.558  0.8739 -0.6511  0.0395
  612MOL0     H82595  11.087   2.718  10.391  1.2281  3.1216 -2.1653
  612MOL0     H82596  11.255   2.744  10.637  0.0521 -3.1799  0.6016
  612MOL0     H82597  11.324   2.779  10.478 -0.8883  0.8409 -0.1547
  612MOL0     H82598  11.294   2.552  10.398 -3.0249 -0.8015  0.4122
  612MOL0     H82599  11.395   2.558  10.554 -0.1270 -3.1520 -0.8321
  612MOL0     H82600  10.588   3.441  10.704 -1.1314  0.2565 -0.3149
  612MOL0     H82601  10.517   3.675  10.714  1.5624  0.9037 -1.4131
  612MOL0     H82602  10.429   4.049  10.422 -1.0812  0.0431 -1.9406
  612MOL0     H82603  10.334   4.301  10.392 -1.2467  2.5874  1.5741
  612MOL0     H82604  10.829   4.152   9.608  1.5106 -1.0101 -1.8185
  612MOL0     H82605  11.050   4.185   9.463  2.5308 -1.5198  2.2094
  612MOL0     H82606  11.384   4.560   9.215 -0.9029 -0.3489  2.5543
  612MOL0     H82607  11.613   4.529   9.145  2.0961  0.6948  0.6649
  612MOL0     H82608  11.853   4.264   9.384  0.6075  1.1001  2.3218
  612MOL0     H82609  11.945   4.409   9.421  1.2121 -1.1581 -0.2976
  612MOL0     H82610  12.037   4.404   9.182  0.6092  2.0264  3.3394
  612MOL0     H82611  11.947   4.250   9.159  0.8066 -3.0891  1.0852
  612MOL0     H82612  12.070   4.140   9.319 -1.6337  0.6551  0.0269
  612MOL0     H82613  12.151   4.282   9.381 -1.5780  0.0631  0.3128
  612MOL0     H82614  12.287   4.134   9.223  1.5937 -0.4107 -0.6924
  612MOL0     H82615  12.178   4.205   9.084 -1.7344  0.9853 -0.1564
  612MOL0     H82616  12.461   4.488   9.102 -0.5041 -0.7921  0.0940
  612MOL0     H82617  11.720   4.367   9.530  1.1200  0.1771 -1.0510
  612MOL0     H82618  11.569   4.341   9.701 -0.3229 -2.6181 -1.2996
  612MOL0     H82619  11.434   4.452   9.713 -1.1068 -0.2222 -0.1318
  612MOL0     H82620  11.411   4.286   9.644  0.7907 -1.4969  0.0848
  613MOL0     O82621   1.794   6.518   8.035 -0.4567 -0.1207 -0.1567
  613MOL0     C82622   1.887   6.467   7.975  0.3764 -0.2619  0.5482
  613MOL0     O82623   2.010   6.522   7.950  0.2141  0.5598 -0.4167
  613MOL0     C82624   2.041   6.656   7.943 -0.5041 -0.2870  0.7132
  613MOL0     C82625   2.176   6.682   7.924  0.2804  0.0614  1.3832
  613MOL0     C82626   2.227   6.818   7.920 -0.6744 -0.3706 -0.1250
  613MOL0     C82627   2.129   6.929   7.934 -0.2617  0.0014  0.4793
  613MOL0     O82628   2.181   7.055   7.953 -0.6947  0.3077 -0.1435
  613MOL0     C82629   2.080   7.152   7.965 -0.0165  0.9168 -0.3701
  613MOL0     C82630   2.143   7.280   8.015 -0.5491 -0.1448  0.4075
  613MOL0     C82631   2.274   7.322   7.946 -0.3227  0.1329  0.1734
  613MOL0     C82632   2.317   7.453   8.001 -0.5360 -0.2230  0.3741
  613MOL0     C82633   2.457   7.492   7.968 -0.8912 -0.9599  0.9058
  613MOL0     C82634   2.519   7.612   8.034 -0.5415  0.0603  0.0696
  613MOL0     C82635   2.663   7.637   7.985 -0.7059 -0.6028 -0.5415
  613MOL0     C82636   2.718   7.786   8.012  0.8404 -0.0601  0.5740
  613MOL0     N82637   2.861   7.794   7.990  0.3878  0.4346  0.5602
  613MOL0     C82638   2.950   7.722   8.065  0.5938 -0.3769  0.6902
  613MOL0     C82639   3.065   7.770   8.019 -0.1137 -0.3006  0.4922
  613MOL0     C82640   3.197   7.732   8.080 -0.9833  0.3258 -0.2268
  613MOL0     C82641   3.315   7.822   8.046  0.0149 -0.4290  0.0869
  613MOL0     C82642   3.440   7.767   8.110 -0.0743  0.9313  0.1077
  613MOL0     C82643   3.572   7.840   8.087 -0.2644  0.1165  0.4648
  613MOL0     O82644   3.687   7.750   8.099 -0.4338 -0.9570 -1.4851
  613MOL0     C82645   3.816   7.805   8.102 -0.1438  0.5609  0.3514
  613MOL0     C82646   3.925   7.726   8.138 -0.3967  0.4277  0.0215
  613MOL0     C82647   4.057   7.780   8.136 -0.4901  0.5064  0.1340
  613MOL0     C82648   4.082   7.915   8.104  1.0220 -0.0793 -0.1053
  613MOL0     C82649   4.207   7.977   8.122 -0.4647  0.6076 -0.0174
  613MOL0     O82650   4.311   7.905   8.179 -0.1770  0.6107 -0.0763
  613MOL0     C82651   4.436   7.957   8.181  0.8390 -0.7878 -0.5533
  613MOL0     C82652   4.506   7.999   8.066 -0.0372 -0.1483  0.4871
  613MOL0     C82653   4.634   8.057   8.081 -0.3953  0.5874  0.4973
  613MOL0     C82654   4.688   8.083   8.208 -0.4217  0.1906 -0.3467
  613MOL0     O82655   4.813   8.130   8.219 -0.9296  0.2685  0.3025
  613MOL0     C82656   4.853   8.237   8.133 -0.6323  0.0479 -1.0569
  613MOL0     C82657   4.958   8.330   8.194  0.3440  0.4033 -0.7861
  613MOL0     C82658   5.090   8.257   8.218 -0.2474 -0.1901 -0.5030
  613MOL0     C82659   5.178   8.351   8.300  0.3956  0.4224  0.4180
  613MOL0     C82660   5.319   8.305   8.345  0.0652 -0.1699  0.5546
  613MOL0     C82661   5.390   8.408   8.426 -1.0905  0.1761  0.8372
  613MOL0     C82662   5.535   8.370   8.455  0.6530 -0.0798 -0.1649
  613MOL0     C82663   5.580   8.445   8.577  0.4215 -0.8573  0.0439
  613MOL0    Cl82664   5.488   8.397   8.727 -0.1674 -0.6823  0.3520
  613MOL0     C82665   4.623   8.028   8.322  0.1855 -0.2033  0.3174
  613MOL0     C82666   4.498   7.969   8.305 -0.1760 -0.1711 -0.6221
  613MOL0     O82667   4.218   8.090   8.082  0.1619 -0.8404  0.5250
  613MOL0     C82668   3.969   7.991   8.066 -0.3373  0.0498  0.0220
  613MOL0     C82669   3.840   7.934   8.065 -0.0469  0.6669  0.2333
  613MOL0     N82670   3.044   7.866   7.924  0.6088  0.5572 -0.2313
  613MOL0     N82671   2.917   7.876   7.901 -0.5173 -0.1840  0.4897
  613MOL0     C82672   1.993   6.893   7.931 -0.8008 -0.5094 -0.1128
  613MOL0     C82673   1.952   6.756   7.941 -0.8627 -0.6391 -0.0690
  613MOL0     C82674   1.863   6.341   7.893 -0.2874 -0.6156  0.4270
  613MOL0     C82675   1.969   6.300   7.814  0.1947  0.3771  0.0396
  613MOL0     C82676   1.953   6.190   7.735  0.5608 -0.4354 -0.2693
  613MOL0     C82677   1.835   6.111   7.728  0.1904  0.2331 -0.5150
  613MOL0     O82678   1.849   6.006   7.638 -0.5450  0.0027 -0.3760
  613MOL0     C82679   1.726   5.948   7.584  1.4336  0.1753  0.0273
  613MOL0     C82680   1.696   5.807   7.641 -0.2993 -0.1377  0.8798
  613MOL0     C82681   1.550   5.771   7.616 -0.0951  0.2219 -0.0383
  613MOL0     C82682   1.505   5.657   7.700 -0.4648 -0.0380 -0.0722
  613MOL0     C82683   1.375   5.616   7.642  0.2568  0.2045 -0.5965
  613MOL0     C82684   1.255   5.597   7.617 -0.6004 -0.1862 -0.0232
  613MOL0     C82685   1.726   6.154   7.805 -0.0484 -0.4402  0.1687
  613MOL0     C82686   1.737   6.266   7.889 -0.1385  0.2044  0.1829
  613MOL0     C82687   1.620   6.296   7.969  0.9055 -0.1791  0.4650
  613MOL0     H82688   2.256   6.609   7.913  0.0194 -0.2784  1.7187
  613MOL0     H82689   2.336   6.825   7.922 -0.6915 -0.1827  0.5113
  613MOL0     H82690   2.029   7.154   7.868  0.7673  0.0387 -0.8154
  613MOL0     H82691   1.995   7.129   8.030  1.0182  1.0131  1.0631
  613MOL0     H82692   2.160   7.280   8.123 -0.3885  0.3372  0.3828
  613MOL0     H82693   2.078   7.366   7.999  0.6873  0.6181 -0.6948
  613MOL0     H82694   2.265   7.330   7.838  2.5206 -0.3997 -0.1941
  613MOL0     H82695   2.355   7.252   7.972  1.3032  0.6045 -3.1073
  613MOL0     H82696   2.256   7.523   7.944 -0.2195  0.8387  1.2870
  613MOL0     H82697   2.294   7.461   8.108 -1.1702  1.7714  0.1198
  613MOL0     H82698   2.527   7.410   7.988  1.0022  1.0249  3.0083
  613MOL0     H82699   2.469   7.495   7.859  3.6157 -1.7485  1.1738
  613MOL0     H82700   2.459   7.700   8.011 -0.3206 -0.1533 -1.4014
  613MOL0     H82701   2.523   7.589   8.141  0.8496 -1.7381 -0.3191
  613MOL0     H82702   2.646   7.629   7.877 -4.2250  4.7823 -0.7559
  613MOL0     H82703   2.732   7.565   8.030  0.6169  0.4913 -0.7548
  613MOL0     H82704   2.658   7.842   7.941  2.0066  0.9116  0.3275
  613MOL0     H82705   2.696   7.809   8.117  2.2590  0.2152  0.8344
  613MOL0     H82706   2.930   7.661   8.152 -0.4275  1.3096  1.6872
  613MOL0     H82707   3.178   7.739   8.188 -3.0420 -0.8995 -0.4406
  613MOL0     H82708   3.215   7.630   8.044  1.7637  0.9792 -0.9070
  613MOL0     H82709   3.330   7.812   7.938  1.2120 -1.2708  0.3078
  613MOL0     H82710   3.304   7.925   8.079 -0.8991 -0.4688 -0.0690
  613MOL0     H82711   3.447   7.661   8.083 -1.1766  1.1528 -1.1640
  613MOL0     H82712   3.423   7.765   8.218  1.4621  1.9624  0.3916
  613MOL0     H82713   3.584   7.909   8.171 -1.1048  0.5554  0.2390
  613MOL0     H82714   3.559   7.901   7.997 -0.6816 -2.0371 -1.0268
  613MOL0     H82715   3.917   7.623   8.171  0.9696  1.0924  2.6838
  613MOL0     H82716   4.137   7.714   8.168 -1.3923 -1.7508 -1.9835
  613MOL0     H82717   4.467   7.980   7.967 -1.8298 -0.0540  1.1452
  613MOL0     H82718   4.680   8.101   7.993  1.0909  0.5679  1.2420
  613MOL0     H82719   4.878   8.199   8.034  0.9204 -1.0984 -0.2618
  613MOL0     H82720   4.768   8.306   8.130  1.2764  2.6453 -0.1179
  613MOL0     H82721   4.972   8.410   8.122  1.3943  0.0896 -0.9442
  613MOL0     H82722   4.921   8.363   8.292 -1.4321 -1.4537 -0.7741
  613MOL0     H82723   5.091   8.169   8.283  0.0687 -1.5361 -2.2629
  613MOL0     H82724   5.133   8.228   8.122 -2.8538  0.8886 -2.1113
  613MOL0     H82725   5.128   8.378   8.393 -0.2185 -1.5937  0.7109
  613MOL0     H82726   5.194   8.442   8.242  0.5520  0.5215  0.6150
  613MOL0     H82727   5.379   8.293   8.255 -1.3241 -0.5599 -0.3462
  613MOL0     H82728   5.320   8.210   8.400  2.9952 -0.7606 -0.3671
  613MOL0     H82729   5.394   8.503   8.371  1.3219 -0.0483  0.5539
  613MOL0     H82730   5.333   8.444   8.513  1.3717  2.9540  1.4486
  613MOL0     H82731   5.600   8.392   8.370  1.1523 -2.2085 -0.3927
  613MOL0     H82732   5.544   8.262   8.470 -0.0297 -0.3649 -1.6211
  613MOL0     H82733   5.687   8.425   8.588  0.8856  0.9106 -0.8660
  613MOL0     H82734   5.575   8.551   8.550  0.9992 -1.1130 -1.1818
  613MOL0     H82735   4.681   8.043   8.412 -0.5913  4.7110  0.2615
  613MOL0     H82736   4.432   7.938   8.386  0.4241 -1.6483 -0.6779
  613MOL0     H82737   3.994   8.093   8.039  1.7046 -0.4519 -0.1267
  613MOL0     H82738   3.761   8.008   8.059 -0.0470  0.5757 -1.6004
  613MOL0     H82739   1.910   6.962   7.926 -0.2083  0.3724  1.5199
  613MOL0     H82740   1.845   6.742   7.939 -0.8316 -1.0733 -3.1473
  613MOL0     H82741   2.066   6.348   7.812 -0.2749  1.4057  0.9897
  613MOL0     H82742   2.038   6.160   7.674  0.7743 -0.8518  0.2266
  613MOL0     H82743   1.738   5.958   7.476  0.8331  2.3519  0.1168
  613MOL0     H82744   1.640   6.008   7.615  2.6884  1.3606  1.3142
  613MOL0     H82745   1.724   5.785   7.745 -3.8926 -1.4063  1.7328
  613MOL0     H82746   1.773   5.757   7.582  1.0846  0.3434  2.1897
  613MOL0     H82747   1.528   5.755   7.511 -0.5655  2.3932 -0.3193
  613MOL0     H82748   1.488   5.860   7.633 -0.4146 -0.4362  2.8599
  613MOL0     H82749   1.573   5.572   7.684 -1.2581 -0.9270  1.0404
  613MOL0     H82750   1.495   5.678   7.807 -1.7991 -2.8172  0.4501
  613MOL0     H82751   1.155   5.581   7.583 -2.4998  2.9402  3.3880
  613MOL0     H82752   1.638   6.090   7.812 -0.1844 -0.6252 -2.4283
  613MOL0     H82753   1.637   6.277   8.075 -0.5777  0.6806  0.8817
  613MOL0     H82754   1.597   6.403   7.973  2.1957  0.0982  1.0607
  613MOL0     H82755   1.535   6.243   7.926  1.9537 -0.3089 -1.6130
  614MOL0     O82756  10.331   3.708   8.985  0.4965  0.7929 -0.2558
  614MOL0     C82757  10.245   3.662   9.059  0.3981 -0.9466 -0.0173
  614MOL0     O82758  10.266   3.614   9.188 -0.0261 -0.7209 -0.2591
  614MOL0     C82759  10.384   3.638   9.251 -0.2957 -0.5173  0.5739
  614MOL0     C82760  10.510   3.621   9.189 -0.2197  0.1641  0.6974
  614MOL0     C82761  10.627   3.622   9.265 -1.7485  0.0427 -0.9745
  614MOL0     C82762  10.617   3.645   9.402  0.3970  0.4833 -0.2115
  614MOL0     O82763  10.736   3.638   9.472 -0.0386 -1.1088  0.1781
  614MOL0     C82764  10.758   3.737   9.575 -0.0157  0.1669 -0.1714
  614MOL0     C82765  10.908   3.729   9.601 -0.6498  1.1369  0.5915
  614MOL0     C82766  10.941   3.588   9.653  0.1499  0.5332 -0.8455
  614MOL0     C82767  11.093   3.590   9.679  0.0840  0.7019 -0.5415
  614MOL0     C82768  11.136   3.479   9.778  0.1776 -0.4717  0.0769
  614MOL0     C82769  11.105   3.342   9.717  0.2846 -0.2167 -0.2315
  614MOL0     C82770  11.152   3.213   9.785  0.4181 -0.1136 -0.0799
  614MOL0     C82771  11.311   3.214   9.784  0.9324 -0.0616 -0.1973
  614MOL0     N82772  11.382   3.088   9.825 -0.0886  0.4526 -0.5368
  614MOL0     C82773  11.378   2.963   9.755  0.4758 -0.3031 -0.8734
  614MOL0     C82774  11.488   2.902   9.803 -0.1730  0.8961  0.3834
  614MOL0     C82775  11.546   2.776   9.743  0.9436  0.8500  0.8656
  614MOL0     C82776  11.540   2.657   9.845 -0.8763  0.1659  0.9424
  614MOL0     C82777  11.594   2.521   9.804 -0.5356  0.1389 -0.0742
  614MOL0     C82778  11.748   2.534   9.768 -1.1103  0.1908 -0.0386
  614MOL0     O82779  11.830   2.585   9.873  0.3549  0.1790 -0.1848
  614MOL0     C82780  11.840   2.507   9.988 -0.2104 -0.3419 -0.2802
  614MOL0     C82781  11.909   2.385   9.978  0.2116  0.9349  1.0633
  614MOL0     C82782  11.953   2.329  10.097 -0.5493 -0.2482 -0.8488
  614MOL0     C82783  11.932   2.391  10.219 -0.1837  0.2141  0.1526
  614MOL0     C82784  11.988   2.337  10.348  0.9454  0.5308  0.8234
  614MOL0     O82785  11.945   2.403  10.455 -0.6268  0.3018  0.0191
  614MOL0     C82786  11.986   2.371  10.583 -0.4601 -0.2194 -0.2878
  614MOL0     C82787  11.908   2.407  10.688 -0.4759 -0.4663 -0.9023
  614MOL0     C82788  11.935   2.387  10.826 -0.0252  0.2344  0.2006
  614MOL0     C82789  12.053   2.325  10.860  0.2372 -0.7050 -0.5474
  614MOL0     O82790  12.086   2.288  10.990 -0.7366 -0.2141  0.3721
  614MOL0     C82791  12.224   2.296  11.032  0.0907 -0.5333  0.0756
  614MOL0     C82792  12.251   2.234  11.165 -0.7556  0.1349 -0.4780
  614MOL0     C82793  12.399   2.220  11.212 -0.1044 -0.4003 -0.1501
  614MOL0     C82794  12.489   2.354  11.181  0.0691  0.8850  0.1899
  614MOL0     C82795  12.598   2.359  11.285 -0.4602  0.2613  0.0648
  614MOL0     C82796  12.708   2.255  11.282 -0.8848  0.3948 -0.6854
  614MOL0     C82797  12.799   2.258  11.409 -0.0915  0.2089  0.7165
  614MOL0     C82798  12.744   2.199  11.534 -0.4428 -0.6280 -0.6253
  614MOL0    Cl82799  12.866   2.195  11.666 -0.3234  0.5543  0.0359
  614MOL0     C82800  12.138   2.298  10.752 -0.0770  0.0520  0.3087
  614MOL0     C82801  12.106   2.310  10.616  0.0500 -0.6456  0.5128
  614MOL0     O82802  12.069   2.246  10.341  0.9584 -0.5068 -0.9443
  614MOL0     C82803  11.838   2.500  10.227 -0.4333 -0.0766 -0.3796
  614MOL0     C82804  11.801   2.560  10.114 -0.6284 -0.6486  0.9275
  614MOL0     N82805  11.559   2.979   9.892  0.8285  0.3044  0.1858
  614MOL0     N82806  11.484   3.087   9.912 -0.5009 -0.7370  0.0871
  614MOL0     C82807  10.494   3.643   9.461  0.5881  0.1085  1.1828
  614MOL0     C82808  10.376   3.634   9.385 -1.1292 -0.1544  0.2090
  614MOL0     C82809  10.104   3.629   8.992  0.5875 -0.0754  0.5831
  614MOL0     C82810  10.005   3.547   9.057 -0.1889 -1.4328 -0.6082
  614MOL0     C82811   9.880   3.525   9.007  0.3283 -0.1268 -0.0124
  614MOL0     C82812   9.839   3.582   8.885 -0.6565  0.2387 -0.8189
  614MOL0     O82813   9.716   3.566   8.827 -0.5867 -0.3785 -0.0792
  614MOL0     C82814   9.624   3.474   8.878 -0.1694  0.2746 -0.9978
  614MOL0     C82815   9.517   3.441   8.776 -1.0623  0.0548  0.4955
  614MOL0     C82816   9.404   3.544   8.754 -0.6633 -0.2168  0.1551
  614MOL0     C82817   9.273   3.481   8.723 -0.0937  0.5474 -0.0995
  614MOL0     C82818   9.185   3.571   8.639  0.6210 -0.1232 -0.3725
  614MOL0     C82819   9.132   3.659   8.566 -0.7472 -0.4016 -0.2085
  614MOL0     C82820   9.937   3.659   8.815  0.1160  0.5386  0.0505
  614MOL0     C82821  10.061   3.684   8.866 -0.3195  1.0877 -0.9146
  614MOL0     C82822  10.151   3.776   8.788 -0.3994  0.0465 -0.2222
  614MOL0     H82823  10.522   3.576   9.091  0.3378  0.4145  0.6514
  614MOL0     H82824  10.721   3.604   9.215 -1.0011 -1.1555  0.7664
  614MOL0     H82825  10.746   3.832   9.522 -2.0170 -0.0960 -0.2708
  614MOL0     H82826  10.691   3.726   9.662 -3.0292  2.7639 -1.9229
  614MOL0     H82827  10.927   3.812   9.669 -0.8651  1.7631 -0.1106
  614MOL0     H82828  10.954   3.753   9.505 -0.8824 -1.7121 -0.3403
  614MOL0     H82829  10.911   3.506   9.587  0.1308 -0.6299  0.5539
  614MOL0     H82830  10.891   3.565   9.748 -0.5941  0.3458 -1.2817
  614MOL0     H82831  11.147   3.570   9.586  0.7308 -1.7407  0.2913
  614MOL0     H82832  11.120   3.693   9.705  0.9049  0.7620 -1.5825
  614MOL0     H82833  11.245   3.478   9.789  0.1824 -0.1359  0.0783
  614MOL0     H82834  11.086   3.489   9.875 -1.2961  0.5048 -0.7501
  614MOL0     H82835  10.996   3.336   9.717  0.2149  0.2449 -2.7557
  614MOL0     H82836  11.136   3.348   9.613 -0.4244  1.8704 -0.3571
  614MOL0     H82837  11.118   3.131   9.721 -0.7606  0.8128 -0.6717
  614MOL0     H82838  11.104   3.194   9.881  0.4666  3.8258  0.8889
  614MOL0     H82839  11.341   3.244   9.683 -0.4097 -1.4588 -1.0328
  614MOL0     H82840  11.354   3.283   9.858  1.6402 -1.0371  0.3216
  614MOL0     H82841  11.305   2.935   9.680  1.3428  1.1132 -2.2983
  614MOL0     H82842  11.479   2.740   9.664  1.9323  2.9728 -1.0746
  614MOL0     H82843  11.645   2.788   9.698  1.3082 -0.5611  1.2646
  614MOL0     H82844  11.603   2.690   9.927 -0.1143  0.2490  0.3283
  614MOL0     H82845  11.440   2.644   9.889 -1.0530  1.5046  0.9790
  614MOL0     H82846  11.539   2.484   9.716  1.4989 -0.7451 -1.0572
  614MOL0     H82847  11.584   2.442   9.879  3.4057  0.0438  0.5675
  614MOL0     H82848  11.747   2.591   9.674 -2.0071 -1.2641 -0.9413
  614MOL0     H82849  11.781   2.437   9.732 -1.6512  0.4715 -1.3560
  614MOL0     H82850  11.946   2.329   9.892 -0.0653  1.1311  0.8168
  614MOL0     H82851  12.018   2.242  10.093  0.0419 -0.1487  2.9372
  614MOL0     H82852  11.818   2.463  10.668  0.4898  1.7695  0.6447
  614MOL0     H82853  11.867   2.414  10.906 -0.3339 -4.6439  1.9319
  614MOL0     H82854  12.284   2.244  10.956 -0.2300  1.3773 -1.5817
  614MOL0     H82855  12.260   2.399  11.023 -0.6192 -0.0508  2.2008
  614MOL0     H82856  12.222   2.310  11.238  2.9366 -1.8477  3.5510
  614MOL0     H82857  12.219   2.130  11.165  0.1421 -0.1529  0.5544
  614MOL0     H82858  12.391   2.201  11.319  3.0598  1.3654  0.4971
  614MOL0     H82859  12.452   2.134  11.169  2.6589  0.9409  0.3829
  614MOL0     H82860  12.442   2.452  11.190 -0.7361  0.7199 -1.6315
  614MOL0     H82861  12.536   2.349  11.082 -1.6063  2.8244 -0.7788
  614MOL0     H82862  12.546   2.355  11.381 -1.5275  3.7055 -0.2362
  614MOL0     H82863  12.659   2.449  11.284 -0.7214  0.4418  0.1417
  614MOL0     H82864  12.674   2.155  11.256  1.0701 -0.4103 -0.3497
  614MOL0     H82865  12.777   2.289  11.204  2.1374 -0.6592  1.3270
  614MOL0     H82866  12.838   2.357  11.434 -0.9913 -0.1817  4.1867
  614MOL0     H82867  12.887   2.200  11.379 -0.5985 -0.3775  0.3339
  614MOL0     H82868  12.666   2.263  11.576 -1.0882 -1.4830 -0.4955
  614MOL0     H82869  12.707   2.097  11.522 -0.4402 -0.8112  0.7136
  614MOL0     H82870  12.238   2.259  10.763 -0.1075  0.4099  2.1723
  614MOL0     H82871  12.180   2.266  10.551 -0.8294 -0.1774 -0.8549
  614MOL0     H82872  11.826   2.559  10.318 -2.7639 -0.0527 -0.6460
  614MOL0     H82873  11.747   2.654  10.124  1.6813  0.5541  3.3859
  614MOL0     H82874  10.478   3.638   9.568 -1.8146 -2.1604  0.8104
  614MOL0     H82875  10.284   3.628   9.442  0.1504 -1.7414  2.2373
  614MOL0     H82876  10.027   3.496   9.150  0.1316 -2.2149 -1.0989
  614MOL0     H82877   9.811   3.461   9.062 -0.5995  1.4432  0.7040
  614MOL0     H82878   9.575   3.527   8.960  1.7576  1.5412 -0.5793
  614MOL0     H82879   9.668   3.383   8.919 -1.9599 -0.5637 -0.8830
  614MOL0     H82880   9.481   3.341   8.802  0.0996 -0.4570  0.1966
  614MOL0     H82881   9.568   3.430   8.680 -0.1255  2.3944  0.6552
  614MOL0     H82882   9.445   3.614   8.680 -0.6010 -0.2520  0.1568
  614MOL0     H82883   9.389   3.596   8.849  1.0969  0.4509  0.1133
  614MOL0     H82884   9.292   3.393   8.660 -2.0217 -0.5271  0.7462
  614MOL0     H82885   9.213   3.441   8.805 -1.8684  0.8749 -1.1823
  614MOL0     H82886   9.073   3.733   8.517 -1.4984 -1.9808 -1.8283
  614MOL0     H82887   9.905   3.679   8.713  0.1218  0.6263  0.0662
  614MOL0     H82888  10.239   3.722   8.752 -0.4237 -1.2106  1.4789
  614MOL0     H82889  10.099   3.818   8.701  0.4871 -0.9135 -1.2373
  614MOL0     H82890  10.183   3.848   8.864  3.0499 -0.5386 -0.9596
  615MOL0     O82891   1.676   4.432   6.331  0.2686  0.6067  0.4772
  615MOL0     C82892   1.765   4.488   6.392 -0.2444  0.5221 -0.4304
  615MOL0     O82893   1.783   4.477   6.535 -1.1324  0.0152 -0.1200
  615MOL0     C82894   1.711   4.393   6.617 -0.4004  0.6377  0.0103
  615MOL0     C82895   1.645   4.438   6.730 -0.8877  0.4506  0.4729
  615MOL0     C82896   1.552   4.363   6.798 -0.8435 -0.6495 -0.4640
  615MOL0     C82897   1.553   4.221   6.771  1.1949 -0.2324  0.6990
  615MOL0     O82898   1.477   4.134   6.837  0.2753  0.3903 -0.3901
  615MOL0     C82899   1.358   4.182   6.901 -0.4023 -0.8169  0.0618
  615MOL0     C82900   1.261   4.071   6.905  0.3799 -0.6187 -0.1021
  615MOL0     C82901   1.184   4.037   6.779  0.1310 -1.0518  0.0781
  615MOL0     C82902   1.261   3.949   6.675  0.0642 -0.3343 -0.2727
  615MOL0     C82903   1.193   3.933   6.543  1.0015 -0.5621  1.2266
  615MOL0     C82904   1.073   3.840   6.542 -1.1815 -0.2226 -0.5786
  615MOL0     C82905   1.016   3.826   6.399 -0.2684 -0.2470 -0.1721
  615MOL0     C82906   0.872   3.745   6.405 -0.2278  1.2782 -0.1702
  615MOL0     N82907   0.816   3.746   6.276 -0.2476 -0.2694 -0.1624
  615MOL0     C82908   0.692   3.798   6.242  0.2666  0.2470 -0.3770
  615MOL0     C82909   0.680   3.791   6.102 -0.2605 -1.1620 -0.2504
  615MOL0     C82910   0.561   3.807   6.011 -0.3689 -0.4224  0.4396
  615MOL0     C82911   0.499   3.943   6.003  0.1907 -0.2728  0.2730
  615MOL0     C82912   0.576   4.048   5.922  0.4046  0.2154 -0.0269
  615MOL0     C82913   0.496   4.174   5.920 -0.4697  0.4073 -0.9706
  615MOL0     O82914   0.566   4.274   5.850  0.5855 -0.4675  0.8917
  615MOL0     C82915   0.674   4.340   5.895  0.3367 -0.9323  0.0242
  615MOL0     C82916   0.766   4.396   5.810  0.4222  0.6846  0.5568
  615MOL0     C82917   0.874   4.465   5.855 -0.3674 -0.0761  0.2411
  615MOL0     C82918   0.902   4.467   5.995  0.2692 -0.4691 -0.7006
  615MOL0     C82919   1.024   4.542   6.044  0.7236  0.0128  0.3854
  615MOL0     O82920   1.107   4.590   5.943 -0.3441  0.5100  0.7093
  615MOL0     C82921   1.223   4.654   5.986  0.3851  0.1516 -1.1699
  615MOL0     C82922   1.246   4.788   5.976  0.6109 -1.2016 -0.0739
  615MOL0     C82923   1.364   4.846   6.017 -0.4797 -0.6991 -0.6101
  615MOL0     C82924   1.470   4.771   6.081 -0.2398  0.2733  0.4984
  615MOL0     O82925   1.584   4.836   6.121 -0.3481  0.1278  0.5999
  615MOL0     C82926   1.708   4.796   6.062  0.5110 -0.2220 -0.2971
  615MOL0     C82927   1.714   4.802   5.915 -0.1122  0.5326 -0.5446
  615MOL0     C82928   1.685   4.942   5.856 -0.0462  0.1637 -0.1502
  615MOL0     C82929   1.737   4.955   5.714 -0.3020  0.2587 -0.2143
  615MOL0     C82930   1.647   4.911   5.602  0.3425  1.0994 -0.8683
  615MOL0     C82931   1.519   4.991   5.599  0.6097  0.1900  0.3232
  615MOL0     C82932   1.420   4.961   5.492  0.1982  0.2209  0.2472
  615MOL0     C82933   1.337   4.831   5.525 -0.5653  0.0862 -0.0704
  615MOL0    Cl82934   1.296   4.743   5.371  0.3347 -0.3362 -0.1682
  615MOL0     C82935   1.441   4.638   6.097 -0.5450 -0.1769 -0.7789
  615MOL0     C82936   1.316   4.584   6.065  0.2678  0.5059 -0.6156
  615MOL0     O82937   1.035   4.565   6.164  0.3181  0.8447 -0.6289
  615MOL0     C82938   0.808   4.411   6.084  0.2130  0.6511  0.7442
  615MOL0     C82939   0.692   4.354   6.032  0.3637  0.0324  0.5059
  615MOL0     N82940   0.803   3.744   6.057  0.5504 -0.1671  0.6582
  615MOL0     N82941   0.880   3.708   6.160  0.0064 -0.7222  0.1666
  615MOL0     C82942   1.638   4.174   6.677  0.2334  0.1538  0.6141
  615MOL0     C82943   1.709   4.261   6.590 -0.3146 -0.9259 -0.0752
  615MOL0     C82944   1.871   4.558   6.312  0.3690 -0.4405 -0.6113
  615MOL0     C82945   1.946   4.648   6.377 -0.0443 -0.4564 -0.3666
  615MOL0     C82946   2.052   4.725   6.323  0.2720  0.0769 -0.8355
  615MOL0     C82947   2.074   4.708   6.186  0.5801  0.4316 -0.5384
  615MOL0     O82948   2.151   4.789   6.115 -0.3394 -0.1567 -0.1010
  615MOL0     C82949   2.117   4.922   6.131 -0.4621 -0.8922  0.2108
  615MOL0     C82950   2.139   5.004   6.005 -0.1405  0.3758  0.5816
  615MOL0     C82951   2.064   5.139   6.008  1.1717 -0.1602 -0.2408
  615MOL0     C82952   2.129   5.251   6.091 -0.1342  0.1296 -0.2293
  615MOL0     C82953   2.252   5.305   6.028  0.5289 -0.8701 -0.2989
  615MOL0     C82954   2.355   5.350   5.981 -1.1521 -0.3083 -0.0708
  615MOL0     C82955   1.998   4.617   6.113 -0.6316  0.9118  0.4712
  615MOL0     C82956   1.894   4.542   6.176 -0.2257  0.0401  0.2836
  615MOL0     C82957   1.808   4.446   6.084 -0.0023  0.2348  0.0929
  615MOL0     H82958   1.648   4.540   6.766 -3.7303  0.9432 -0.4473
  615MOL0     H82959   1.502   4.407   6.884 -0.0220 -2.2787  0.9103
  615MOL0     H82960   1.398   4.203   7.001 -0.9733  1.0559 -0.0716
  615MOL0     H82961   1.314   4.272   6.857  1.2950 -0.1250 -0.3001
  615MOL0     H82962   1.189   4.104   6.981  0.8566 -0.2485  0.1928
  615MOL0     H82963   1.308   3.979   6.940  0.2897 -0.3337  0.8174
  615MOL0     H82964   1.143   4.123   6.726 -0.6427 -0.8850  0.9090
  615MOL0     H82965   1.102   3.975   6.817  0.4185 -1.9574 -0.7370
  615MOL0     H82966   1.358   3.993   6.649 -0.1544  0.7515  0.6891
  615MOL0     H82967   1.285   3.853   6.721  2.3557  1.2695  2.1684
  615MOL0     H82968   1.144   4.026   6.511  1.8224 -1.4360 -3.2305
  615MOL0     H82969   1.259   3.898   6.464  0.9835 -4.6459  2.8056
  615MOL0     H82970   1.113   3.749   6.587  1.0120  1.5126  1.2452
  615MOL0     H82971   0.994   3.865   6.613  0.4239 -0.6108  1.4485
  615MOL0     H82972   1.084   3.782   6.326  0.5970 -0.2880  0.6294
  615MOL0     H82973   0.997   3.927   6.360  1.9956  0.4462  0.3940
  615MOL0     H82974   0.904   3.643   6.431 -0.8239  1.2745  0.5661
  615MOL0     H82975   0.794   3.775   6.475 -1.1437  0.4840 -0.8164
  615MOL0     H82976   0.599   3.817   6.294 -0.2061 -0.9626 -0.7365
  615MOL0     H82977   0.587   3.765   5.913  0.3518  0.8530  0.0446
  615MOL0     H82978   0.485   3.736   6.042 -1.5522 -0.2166 -1.7500
  615MOL0     H82979   0.397   3.928   5.966 -0.1035 -1.0999  1.3563
  615MOL0     H82980   0.497   3.977   6.107  0.6422 -2.4418  1.0353
  615MOL0     H82981   0.593   4.005   5.823 -1.2685 -4.7576  1.5489
  615MOL0     H82982   0.675   4.068   5.965  1.2366 -0.2740 -1.6073
  615MOL0     H82983   0.457   4.204   6.018 -1.7742 -0.3839 -1.2082
  615MOL0     H82984   0.400   4.144   5.875 -0.7818 -0.9496  0.4875
  615MOL0     H82985   0.744   4.384   5.705  0.8344 -3.5899  0.7492
  615MOL0     H82986   0.955   4.479   5.785 -0.1698 -3.2800 -0.3479
  615MOL0     H82987   1.181   4.852   5.918  0.6445 -0.3021  0.8470
  615MOL0     H82988   1.387   4.947   5.987 -0.6833 -1.3779 -3.2589
  615MOL0     H82989   1.767   4.879   6.101  0.4877 -0.6198  0.6034
  615MOL0     H82990   1.730   4.698   6.107 -0.4308  0.4277  1.6751
  615MOL0     H82991   1.816   4.778   5.882  0.2259  0.2498  0.6512
  615MOL0     H82992   1.649   4.721   5.881 -0.5623  1.8117 -2.9009
  615MOL0     H82993   1.577   4.962   5.857 -0.7810 -3.0163 -1.1789
  615MOL0     H82994   1.712   5.020   5.927 -1.2194  0.2889  0.1861
  615MOL0     H82995   1.834   4.904   5.711 -0.1338  0.3631  1.8042
  615MOL0     H82996   1.749   5.060   5.685  0.1457  0.2895  0.0745
  615MOL0     H82997   1.606   4.814   5.632  0.6809  1.2049 -0.0467
  615MOL0     H82998   1.707   4.910   5.510  3.2766 -1.7051  0.8403
  615MOL0     H82999   1.463   4.968   5.691  0.4532 -0.1237  0.1510
  615MOL0     H83000   1.548   5.097   5.594  0.0340  0.2896 -1.9551
  615MOL0     H83001   1.466   4.959   5.393  0.9453  1.2373  0.5544
  615MOL0     H83002   1.343   5.039   5.486 -0.2183 -0.2164 -0.2742
  615MOL0     H83003   1.395   4.755   5.578 -2.9592 -1.4568  0.4916
  615MOL0     H83004   1.246   4.866   5.575  0.1032  2.8169 -0.5886
  615MOL0     H83005   1.514   4.576   6.147 -2.2935 -1.3759  0.4056
  615MOL0     H83006   1.276   4.484   6.080 -1.7526  1.2177 -0.9187
  615MOL0     H83007   0.832   4.426   6.189 -0.7145  1.6020  0.8446
  615MOL0     H83008   0.610   4.330   6.099 -1.4263  1.0279 -1.2146
  615MOL0     H83009   1.644   4.066   6.669 -0.5539 -0.0195  2.0857
  615MOL0     H83010   1.767   4.211   6.514 -2.2281 -2.9053 -0.3275
  615MOL0     H83011   1.943   4.664   6.484  2.2306 -0.6228 -0.2330
  615MOL0     H83012   2.100   4.805   6.377  1.8671 -1.2791 -0.1323
  615MOL0     H83013   2.160   4.974   6.217 -0.2855 -0.8593  0.1034
  615MOL0     H83014   2.010   4.934   6.145 -0.2967  2.9793 -0.8519
  615MOL0     H83015   2.102   4.952   5.916  1.4250  0.2942 -0.0515
  615MOL0     H83016   2.247   5.014   5.989 -0.1923 -0.1898 -0.1528
  615MOL0     H83017   1.964   5.114   6.047  1.1781 -0.4057 -0.3794
  615MOL0     H83018   2.050   5.180   5.908  1.0859 -0.8146 -0.5031
  615MOL0     H83019   2.062   5.335   6.107  1.4822  0.8871  3.4388
  615MOL0     H83020   2.139   5.227   6.197 -0.6656  1.0583  0.0409
  615MOL0     H83021   2.444   5.390   5.937 -1.0578 -1.0016 -0.5284
  615MOL0     H83022   2.019   4.613   6.007 -1.7922 -1.1701  0.2632
  615MOL0     H83023   1.829   4.466   5.979 -1.1239  4.7404  0.4832
  615MOL0     H83024   1.815   4.341   6.112 -2.3960  0.6886  2.8348
  615MOL0     H83025   1.705   4.479   6.100  0.6799  1.8647  1.4981
  616MOL0     O83026   8.263   5.113   2.089  0.1299  0.6178 -0.6852
  616MOL0     C83027   8.281   5.175   1.991  0.2602 -0.0873  0.2235
  616MOL0     O83028   8.407   5.225   1.951  0.7975 -0.4456  0.4895
  616MOL0     C83029   8.516   5.154   1.997  0.0350 -0.0825  0.9530
  616MOL0     C83030   8.633   5.226   2.010 -0.0965 -0.4688  0.7522
  616MOL0     C83031   8.746   5.166   2.057 -0.3909  0.1193 -0.1253
  616MOL0     C83032   8.752   5.031   2.079 -0.2730  0.4922 -0.1884
  616MOL0     O83033   8.861   4.971   2.140 -0.2412 -0.1743  0.0796
  616MOL0     C83034   8.995   5.030   2.103  0.2259  0.5769 -0.2849
  616MOL0     C83035   9.098   4.946   2.175  0.1481  0.9243  0.0350
  616MOL0     C83036   9.238   4.970   2.128 -0.1487  0.3827  0.3012
  616MOL0     C83037   9.307   5.095   2.183  0.1267  0.1618  0.1673
  616MOL0     C83038   9.453   5.100   2.141 -0.7092  0.1337  1.3919
  616MOL0     C83039   9.547   5.002   2.204 -0.3780  0.3615 -0.8259
  616MOL0     C83040   9.691   5.012   2.147  0.4503  0.4784  0.0445
  616MOL0     C83041   9.705   5.017   2.000 -0.7919  0.0642  0.6165
  616MOL0     N83042   9.831   5.037   1.935  0.1102  0.0321 -0.1635
  616MOL0     C83043   9.915   5.136   1.970  0.8252  0.4671 -0.3273
  616MOL0     C83044   9.992   5.150   1.856 -0.1331  0.3316  0.2134
  616MOL0     C83045  10.098   5.253   1.840 -0.6814 -0.2155  0.2312
  616MOL0     C83046  10.236   5.194   1.852  0.5439  0.3682  0.4685
  616MOL0     C83047  10.344   5.294   1.885  0.1286  0.0592 -0.0827
  616MOL0     C83048  10.470   5.248   1.964  0.8178  0.2402 -0.3293
  616MOL0     O83049  10.431   5.217   2.098  0.4664  0.3355 -0.6652
  616MOL0     C83050  10.520   5.142   2.170 -0.0719  1.0501 -0.7137
  616MOL0     C83051  10.537   5.183   2.305 -0.0969  0.0261 -0.1081
  616MOL0     C83052  10.622   5.119   2.390 -0.3428 -0.0640  0.2456
  616MOL0     C83053  10.684   5.001   2.344 -0.0077  0.7545 -1.2470
  616MOL0     C83054  10.787   4.927   2.433 -0.9952  0.1404  0.7907
  616MOL0     O83055  10.846   4.818   2.376 -0.0353  0.5671  0.0455
  616MOL0     C83056  10.910   4.726   2.460  0.0882 -0.2707  0.4288
  616MOL0     C83057  11.036   4.760   2.523 -0.4815  0.1279  0.8399
  616MOL0     C83058  11.094   4.666   2.606  1.7828 -0.5310 -0.6434
  616MOL0     C83059  11.031   4.550   2.646  0.3490 -0.5849  0.1154
  616MOL0     O83060  11.093   4.465   2.737  0.6244  0.1801 -0.3871
  616MOL0     C83061  11.032   4.336   2.781  0.9939 -0.0424 -0.3168
  616MOL0     C83062  11.140   4.251   2.855  0.4575 -0.4771 -0.7592
  616MOL0     C83063  11.085   4.113   2.903 -0.2474  0.2257  0.9105
  616MOL0     C83064  11.210   4.028   2.926  0.2433 -0.3016 -0.2836
  616MOL0     C83065  11.278   3.974   2.798 -0.7465 -0.0561 -0.0695
  616MOL0     C83066  11.382   3.869   2.815 -0.1026  0.6787 -0.0992
  616MOL0     C83067  11.475   3.897   2.932  0.2800  0.4270 -0.4207
  616MOL0     C83068  11.567   3.775   2.957 -0.3163  0.0415 -0.6706
  616MOL0    Cl83069  11.659   3.746   2.817  0.3919 -0.0632 -0.2291
  616MOL0     C83070  10.907   4.516   2.578 -0.1048 -0.4019 -0.4540
  616MOL0     C83071  10.846   4.603   2.489  0.4949 -0.6871  0.3775
  616MOL0     O83072  10.811   4.967   2.546  0.0428  0.0196  0.6737
  616MOL0     C83073  10.676   4.962   2.211  0.5763  0.4529  0.1008
  616MOL0     C83074  10.590   5.029   2.124  0.9162  0.4446  0.1576
  616MOL0     N83075   9.950   5.060   1.755 -0.1111  0.7237  0.2231
  616MOL0     N83076   9.854   4.995   1.807  0.8263  0.3927  0.1692
  616MOL0     C83077   8.635   4.951   2.065  0.3780  0.2056  0.3771
  616MOL0     C83078   8.518   5.013   2.020  0.1499  0.5129  0.2025
  616MOL0     C83079   8.175   5.205   1.893  0.3325  0.4022  0.7516
  616MOL0     C83080   8.208   5.242   1.760  0.4514  0.3020 -0.3294
  616MOL0     C83081   8.109   5.261   1.661 -0.2458  0.1175 -0.7146
  616MOL0     C83082   7.971   5.231   1.691  0.7065 -0.4965  0.2370
  616MOL0     O83083   7.876   5.262   1.595 -0.5230  0.8004 -0.3632
  616MOL0     C83084   7.898   5.218   1.460 -0.1254  0.4225 -0.6466
  616MOL0     C83085   7.779   5.236   1.364 -0.0986  0.0786 -0.1793
  616MOL0     C83086   7.683   5.116   1.370 -0.2389 -0.0380  0.2434
  616MOL0     C83087   7.538   5.144   1.316  0.4879  0.5326  0.3715
  616MOL0     C83088   7.446   5.212   1.411 -0.3687 -0.2404 -0.9640
  616MOL0     C83089   7.391   5.279   1.498  0.5681  0.5602  0.8601
  616MOL0     C83090   7.942   5.199   1.821  0.6635  1.0301  0.7211
  616MOL0     C83091   8.041   5.183   1.918  1.3912  0.5435 -0.2107
  616MOL0     C83092   7.987   5.145   2.050  0.5291  0.0186 -0.4163
  616MOL0     H83093   8.625   5.332   1.987  0.0751 -0.9338 -1.7216
  616MOL0     H83094   8.837   5.225   2.071  0.9322 -1.2021 -2.5651
  616MOL0     H83095   8.992   5.033   1.993 -2.4814  4.4550 -0.3098
  616MOL0     H83096   9.014   5.129   2.146  1.9391  0.1111  0.1019
  616MOL0     H83097   9.080   4.841   2.151 -1.2540  1.1949 -0.2335
  616MOL0     H83098   9.088   4.965   2.282 -0.8593  2.2287 -0.2559
  616MOL0     H83099   9.239   4.974   2.019 -0.1690  0.0396  0.2893
  616MOL0     H83100   9.303   4.890   2.164 -1.0944 -0.6105 -0.1477
  616MOL0     H83101   9.251   5.183   2.149 -2.9039 -1.8291 -0.3981
  616MOL0     H83102   9.283   5.098   2.289 -0.0507  0.6361  0.1151
  616MOL0     H83103   9.460   5.088   2.033 -3.0471 -3.0507  1.4469
  616MOL0     H83104   9.488   5.196   2.181  0.9431 -0.7884  2.2643
  616MOL0     H83105   9.541   5.025   2.310 -2.8268 -3.1827  0.0129
  616MOL0     H83106   9.519   4.896   2.198  0.2055 -0.0071  1.8805
  616MOL0     H83107   9.748   4.924   2.179 -0.1762 -0.3374 -1.0013
  616MOL0     H83108   9.749   5.094   2.191  2.5521  1.2018 -3.6610
  616MOL0     H83109   9.657   4.929   1.955  0.1670  0.2415 -0.8357
  616MOL0     H83110   9.657   5.111   1.971  1.3774  0.8299 -0.7741
  616MOL0     H83111   9.909   5.212   2.047 -1.0402  2.3977 -2.2026
  616MOL0     H83112  10.080   5.297   1.742  0.6894  1.1308  0.5466
  616MOL0     H83113  10.073   5.326   1.917 -2.9726 -0.7850  0.0810
  616MOL0     H83114  10.223   5.119   1.930 -1.2616 -2.4249 -2.2661
  616MOL0     H83115  10.255   5.139   1.759  0.2856 -1.0115  1.2093
  616MOL0     H83116  10.296   5.374   1.943 -0.1292  0.0316 -0.2558
  616MOL0     H83117  10.381   5.334   1.790  1.0960 -1.5602 -0.4226
  616MOL0     H83118  10.535   5.336   1.970  1.0287  0.2270 -1.9518
  616MOL0     H83119  10.515   5.168   1.905 -1.1049 -0.0875 -1.4052
  616MOL0     H83120  10.488   5.271   2.345 -3.1298 -0.6926 -1.9521
  616MOL0     H83121  10.638   5.164   2.488  2.6921 -1.6438  0.5973
  616MOL0     H83122  11.087   4.853   2.501  1.6779 -1.0747  0.4358
  616MOL0     H83123  11.191   4.687   2.649  0.9485  1.4308  0.3785
  616MOL0     H83124  10.948   4.352   2.849  2.1430 -1.5351  1.5669
  616MOL0     H83125  11.001   4.279   2.692  3.4471 -2.7865  0.4063
  616MOL0     H83126  11.222   4.245   2.784  0.3622  2.1927 -1.1907
  616MOL0     H83127  11.177   4.315   2.936  0.1385 -1.8638  0.5333
  616MOL0     H83128  11.022   4.120   2.992 -0.9685  0.3576  0.3979
  616MOL0     H83129  11.025   4.056   2.832 -1.2931  1.1471  1.0263
  616MOL0     H83130  11.175   3.944   2.987 -1.3053  0.7340  0.3128
  616MOL0     H83131  11.273   4.092   2.988  0.7148 -0.3196 -0.7413
  616MOL0     H83132  11.313   4.059   2.739  1.1675  0.8157  2.1680
  616MOL0     H83133  11.205   3.930   2.729 -0.6107 -0.8278  0.2739
  616MOL0     H83134  11.325   3.776   2.829 -3.0312  2.5627  1.3384
  616MOL0     H83135  11.442   3.858   2.725 -0.2605 -2.0514  0.0298
  616MOL0     H83136  11.411   3.905   3.021  1.7998  2.4683  0.5847
  616MOL0     H83137  11.524   3.995   2.926 -1.0136  0.9986 -3.0269
  616MOL0     H83138  11.644   3.796   3.032 -0.2448 -0.0580 -0.7164
  616MOL0     H83139  11.525   3.682   2.997 -0.0323 -0.4429 -1.4769
  616MOL0     H83140  10.859   4.422   2.604 -0.0276 -0.5758 -0.9188
  616MOL0     H83141  10.746   4.574   2.457 -0.6339  1.2288  1.9870
  616MOL0     H83142  10.732   4.876   2.175 -1.0724 -0.4811 -0.3174
  616MOL0     H83143  10.571   4.995   2.022  0.1227  0.9523  0.1212
  616MOL0     H83144   8.642   4.848   2.097 -0.0798 -0.0581 -0.3516
  616MOL0     H83145   8.424   4.963   1.995 -0.7987  2.4681 -0.3485
  616MOL0     H83146   8.314   5.253   1.740  0.6976 -0.3980  0.5157
  616MOL0     H83147   8.149   5.298   1.567  3.2029  0.6957  0.8399
  616MOL0     H83148   7.925   5.112   1.460  0.2096  0.4722 -2.6648
  616MOL0     H83149   7.986   5.272   1.425  0.6770 -0.8951 -0.7018
  616MOL0     H83150   7.828   5.233   1.265 -0.0971 -1.8674 -0.1643
  616MOL0     H83151   7.731   5.334   1.372 -1.2421 -0.2742 -2.0668
  616MOL0     H83152   7.677   5.076   1.471  3.5170 -0.7091  0.3488
  616MOL0     H83153   7.717   5.036   1.302  1.5021  0.4702  0.4779
  616MOL0     H83154   7.547   5.190   1.217  3.3097  0.9957  0.7400
  616MOL0     H83155   7.501   5.045   1.288  1.1258  1.2330 -3.4373
  616MOL0     H83156   7.350   5.339   1.577 -1.1569  0.0201  0.4174
  616MOL0     H83157   7.836   5.189   1.842 -0.1226  1.6500 -2.4783
  616MOL0     H83158   7.878   5.158   2.055  0.5825  1.3821 -2.0777
  616MOL0     H83159   8.004   5.038   2.063  3.8475  0.6537  1.7360
  616MOL0     H83160   8.025   5.197   2.139 -2.3114  0.4838  0.6368
  617MOL0     O83161   4.435   9.043   7.747 -0.7394  0.4995 -0.4598
  617MOL0     C83162   4.486   8.998   7.647 -0.7878 -0.5099 -0.2600
  617MOL0     O83163   4.619   9.004   7.616 -0.7186 -0.7016 -0.2353
  617MOL0     C83164   4.701   9.104   7.666  0.1781 -0.6220 -0.1885
  617MOL0     C83165   4.830   9.080   7.690 -0.1808 -0.0975  0.7135
  617MOL0     C83166   4.919   9.179   7.730  0.5311  0.0380 -0.6895
  617MOL0     C83167   4.868   9.301   7.781  0.0281  0.0208  0.4490
  617MOL0     O83168   4.944   9.397   7.843  0.1125  0.7697  0.6605
  617MOL0     C83169   5.047   9.360   7.933  0.0085  0.6656 -0.5786
  617MOL0     C83170   5.188   9.375   7.887 -0.4892 -0.2502  1.0674
  617MOL0     C83171   5.275   9.325   7.997  0.5228 -0.3198  0.8090
  617MOL0     C83172   5.424   9.340   7.959  0.5302 -0.3834 -1.3943
  617MOL0     C83173   5.522   9.317   8.072 -0.8074  0.3251  1.1848
  617MOL0     C83174   5.650   9.389   8.042  0.0647  0.4233 -0.3104
  617MOL0     C83175   5.776   9.327   8.123  0.0326  0.0137 -0.1136
  617MOL0     C83176   5.913   9.395   8.101 -0.8965  0.7757 -0.7518
  617MOL0     N83177   5.895   9.537   8.112  1.0558 -1.2626  0.6564
  617MOL0     C83178   5.844   9.616   8.012 -0.5190 -0.2146 -0.0838
  617MOL0     C83179   5.841   9.741   8.050  0.6190 -0.6672 -0.1186
  617MOL0     C83180   5.797   9.858   7.962 -0.2487  0.9480  0.0139
  617MOL0     C83181   5.912   9.953   7.932 -0.1427  0.0713  0.3812
  617MOL0     C83182   6.024   9.896   7.857 -0.4666 -0.5062  1.0974
  617MOL0     C83183   6.154   9.931   7.908  0.2934  0.2387 -0.0938
  617MOL0     O83184   6.250   9.864   7.829  0.2487 -0.8970 -0.8779
  617MOL0     C83185   6.383   9.873   7.870  1.0313 -0.4842 -0.1756
  617MOL0     C83186   6.457   9.755   7.890 -0.7946 -0.3906 -0.2584
  617MOL0     C83187   6.584   9.749   7.941 -0.6973 -0.0657 -0.2519
  617MOL0     C83188   6.658   9.867   7.958  0.9515 -0.4042  0.5310
  617MOL0     C83189   6.803   9.855   7.988 -0.4650  0.7046 -0.1376
  617MOL0     O83190   6.863   9.736   8.019 -1.2531 -0.5806 -0.2040
  617MOL0     C83191   6.996   9.746   8.075  0.9531 -0.6130 -0.1025
  617MOL0     C83192   7.039   9.824   8.184 -0.9116 -0.2121 -0.2145
  617MOL0     C83193   7.175   9.838   8.213 -0.2639 -0.3904  0.9539
  617MOL0     C83194   7.272   9.760   8.144  0.4366  0.6012 -0.6418
  617MOL0     O83195   7.399   9.784   8.176  0.2584 -0.1698  0.6106
  617MOL0     C83196   7.505   9.707   8.124 -0.1947  0.2489 -0.7755
  617MOL0     C83197   7.650   9.754   8.162  0.4146 -0.3985  0.6057
  617MOL0     C83198   7.660   9.790   8.309 -1.3887  0.0353 -0.3469
  617MOL0     C83199   7.802   9.848   8.337 -0.3058  0.7687  0.4101
  617MOL0     C83200   7.803   9.921   8.474 -0.6260 -0.1659 -0.0111
  617MOL0     C83201   7.780   9.827   8.591 -0.0949  0.0205  0.0710
  617MOL0     C83202   7.800   9.899   8.731 -0.1461 -0.1206  0.1167
  617MOL0     C83203   7.821   9.801   8.858  0.1823  0.5265  0.1604
  617MOL0    Cl83204   7.860   9.891   9.017  0.2228  0.6613  0.8759
  617MOL0     C83205   7.229   9.673   8.039 -0.0217 -0.6851 -0.6948
  617MOL0     C83206   7.089   9.670   8.009  0.6921 -0.2822  0.1986
  617MOL0     O83207   6.857   9.965   7.992 -0.1922 -0.0570 -0.6195
  617MOL0     C83208   6.589   9.987   7.948  0.8177 -0.8320  0.0388
  617MOL0     C83209   6.456   9.995   7.900  0.4450  0.2396  0.3748
  617MOL0     N83210   5.901   9.744   8.182  0.0298 -0.4444  0.1546
  617MOL0     N83211   5.936   9.619   8.211  0.6327  0.0022  0.2672
  617MOL0     C83212   4.733   9.326   7.756 -0.7330 -0.6876  0.5679
  617MOL0     C83213   4.655   9.237   7.693  0.5058 -0.4203 -0.2703
  617MOL0     C83214   4.399   8.919   7.561 -0.3759  0.5687 -0.0234
  617MOL0     C83215   4.418   8.931   7.423  0.1413 -1.1215  0.1720
  617MOL0     C83216   4.326   8.882   7.335 -0.3077  0.1862  0.0264
  617MOL0     C83217   4.218   8.801   7.374 -0.7968  0.1586  0.4598
  617MOL0     O83218   4.142   8.742   7.270  0.1352 -0.2487  0.4306
  617MOL0     C83219   4.045   8.638   7.291 -0.8309  0.8690  0.2998
  617MOL0     C83220   4.091   8.521   7.204  0.2848 -0.0778 -1.0983
  617MOL0     C83221   4.207   8.452   7.265 -0.1481  0.1048 -0.3233
  617MOL0     C83222   4.275   8.358   7.171  0.7605 -0.0886  1.2358
  617MOL0     C83223   4.352   8.254   7.242 -0.6242  0.5911 -0.4231
  617MOL0     C83224   4.422   8.177   7.313 -0.7546  0.1059 -0.3337
  617MOL0     C83225   4.206   8.780   7.512  0.4881  0.7261  0.0984
  617MOL0     C83226   4.300   8.829   7.604  0.2208  0.9271 -0.4747
  617MOL0     C83227   4.276   8.796   7.740  0.1345  0.5476  1.0767
  617MOL0     H83228   4.876   8.982   7.681 -0.3462 -0.1548  0.5122
  617MOL0     H83229   5.026   9.162   7.732  0.5422  0.1884  0.4203
  617MOL0     H83230   5.036   9.421   8.023 -3.1572 -0.9533  0.2854
  617MOL0     H83231   5.029   9.258   7.968  0.7903  1.3924  2.1483
  617MOL0     H83232   5.209   9.482   7.874  0.8037 -0.4920  1.0594
  617MOL0     H83233   5.201   9.318   7.795 -0.7174 -0.5669  1.2317
  617MOL0     H83234   5.254   9.217   8.004  1.4017 -0.8884 -3.0511
  617MOL0     H83235   5.256   9.386   8.085 -0.5199  1.8571 -0.8255
  617MOL0     H83236   5.442   9.279   7.870  1.8833 -0.3245 -1.1821
  617MOL0     H83237   5.445   9.444   7.930 -0.8557  1.2495  2.6958
  617MOL0     H83238   5.486   9.362   8.165 -1.3508  1.8446  0.2619
  617MOL0     H83239   5.549   9.211   8.079 -0.4168  0.1366 -1.8482
  617MOL0     H83240   5.660   9.385   7.933 -3.5046  1.6639 -0.8270
  617MOL0     H83241   5.637   9.490   8.082 -1.2661  0.3780 -0.6032
  617MOL0     H83242   5.789   9.228   8.080  0.2933  0.5818 -1.3815
  617MOL0     H83243   5.754   9.309   8.229  0.5812 -1.2733 -0.1995
  617MOL0     H83244   5.977   9.353   8.178 -2.2727  1.3054  0.7426
  617MOL0     H83245   5.959   9.368   8.006  2.2165  0.3668  0.7770
  617MOL0     H83246   5.811   9.584   7.914 -2.3734 -2.2163  1.1073
  617MOL0     H83247   5.746   9.822   7.872 -2.6132  2.1340  0.7972
  617MOL0     H83248   5.725   9.920   8.016 -3.7137 -0.0101 -3.1044
  617MOL0     H83249   5.868  10.041   7.885 -0.2328  0.0368  0.4002
  617MOL0     H83250   5.942   9.994   8.029  1.3076 -0.5281  0.2184
  617MOL0     H83251   6.013   9.938   7.756 -1.6004  0.0884  1.4440
  617MOL0     H83252   6.029   9.787   7.853 -0.8147 -0.5495  1.7246
  617MOL0     H83253   6.151   9.908   8.015 -0.8999 -1.3498 -0.4359
  617MOL0     H83254   6.161  10.040   7.902 -1.3933  0.2683 -2.7734
  617MOL0     H83255   6.397   9.666   7.875  0.0406 -0.8281 -1.1035
  617MOL0     H83256   6.628   9.651   7.953  0.1575  0.5760  2.4162
  617MOL0     H83257   6.974   9.888   8.242  0.3831 -0.4148  1.5229
  617MOL0     H83258   7.200   9.897   8.300 -0.4287  0.1150  0.6646
  617MOL0     H83259   7.496   9.611   8.176  2.1542  0.3200 -0.1162
  617MOL0     H83260   7.494   9.687   8.016  0.7168  3.3659 -1.5343
  617MOL0     H83261   7.726   9.676   8.149  4.0002  2.9277 -0.6218
  617MOL0     H83262   7.671   9.845   8.105 -0.0160 -1.4372 -1.2950
  617MOL0     H83263   7.578   9.860   8.330 -1.7888  0.1070 -2.0067
  617MOL0     H83264   7.654   9.702   8.374 -1.1681  1.5104  1.7825
  617MOL0     H83265   7.838   9.920   8.263  0.5223 -1.1225 -1.1111
  617MOL0     H83266   7.876   9.767   8.328 -0.7583  0.5406 -1.8991
  617MOL0     H83267   7.725   9.998   8.472  0.4209  0.9603  0.7021
  617MOL0     H83268   7.895   9.979   8.487 -1.9495  1.9841  0.2775
  617MOL0     H83269   7.674   9.800   8.586  0.0541 -0.9705  1.5088
  617MOL0     H83270   7.838   9.737   8.570 -4.1868 -2.5537 -1.4744
  617MOL0     H83271   7.712   9.960   8.750 -0.2226 -0.5557  1.2283
  617MOL0     H83272   7.893   9.953   8.715  1.0172 -2.4220 -1.5618
  617MOL0     H83273   7.723   9.753   8.861 -0.1006  1.1162  0.5447
  617MOL0     H83274   7.908   9.736   8.847  2.3629  3.4741 -1.5415
  617MOL0     H83275   7.309   9.617   7.993  2.3871  2.2264 -0.3898
  617MOL0     H83276   7.061   9.612   7.921  5.2026 -1.6514 -0.6237
  617MOL0     H83277   6.646  10.079   7.958  2.8694 -1.4267 -4.1328
  617MOL0     H83278   6.418  10.096   7.888  1.6987  0.9166  1.8399
  617MOL0     H83279   4.690   9.417   7.797 -0.7475 -0.2289 -0.4201
  617MOL0     H83280   4.551   9.254   7.665  0.3689 -1.7415 -0.6296
  617MOL0     H83281   4.501   8.983   7.377 -1.4192  2.8589  1.4260
  617MOL0     H83282   4.355   8.909   7.234 -0.1429  2.4714  0.6312
  617MOL0     H83283   3.953   8.671   7.241  0.1818 -1.4172 -3.4492
  617MOL0     H83284   4.037   8.605   7.395  2.5029 -0.9279  0.1237
  617MOL0     H83285   4.127   8.563   7.110  2.7088 -1.7153 -0.9899
  617MOL0     H83286   4.003   8.456   7.198  1.2524 -1.5811  0.1812
  617MOL0     H83287   4.176   8.396   7.354  4.9617 -1.5560  0.7785
  617MOL0     H83288   4.274   8.527   7.308  0.0499  0.2685 -0.9137
  617MOL0     H83289   4.208   8.305   7.103  0.3819 -1.5513  2.6845
  617MOL0     H83290   4.340   8.411   7.101  0.0102 -0.9203 -0.1372
  617MOL0     H83291   4.478   8.099   7.360 -0.3049 -1.3475 -3.0996
  617MOL0     H83292   4.133   8.708   7.548 -0.8998  1.8962 -0.2966
  617MOL0     H83293   4.372   8.807   7.791  0.1457  2.6136  0.6961
  617MOL0     H83294   4.206   8.869   7.784 -0.8308  0.3965 -0.1544
  617MOL0     H83295   4.242   8.693   7.753 -2.0394  0.8000 -1.6651
  618MOL0     O83296   7.749   3.037  10.243  0.5128 -0.6348  0.6568
  618MOL0     C83297   7.785   2.929  10.188 -0.1803 -0.6701  0.5084
  618MOL0     O83298   7.709   2.864  10.103 -0.0899  0.3831  0.3227
  618MOL0     C83299   7.577   2.827  10.132  0.1915 -1.1435  0.3933
  618MOL0     C83300   7.529   2.718  10.055  0.1260  0.5672 -0.3795
  618MOL0     C83301   7.406   2.666  10.091 -0.1479 -0.2395 -0.1855
  618MOL0     C83302   7.319   2.726  10.188 -0.9251 -1.1447 -0.3417
  618MOL0     O83303   7.208   2.669  10.230  0.5922  0.4214 -0.5839
  618MOL0     C83304   7.120   2.701  10.342 -0.6311  0.4055 -0.3911
  618MOL0     C83305   6.988   2.632  10.322 -0.6286 -0.5582  0.6986
  618MOL0     C83306   6.983   2.492  10.365  0.5515  0.3467 -0.1236
  618MOL0     C83307   6.870   2.400  10.307 -0.4263  0.1037  0.2020
  618MOL0     C83308   6.903   2.258  10.323  0.2041 -0.3747  0.1779
  618MOL0     C83309   6.880   2.214  10.475  0.2121 -0.3856 -0.3056
  618MOL0     C83310   6.734   2.202  10.523  0.2931  0.5804 -0.1657
  618MOL0     C83311   6.656   2.072  10.481 -0.2725 -0.4813 -0.6525
  618MOL0     N83312   6.522   2.068  10.527  0.0091  0.7994 -0.0059
  618MOL0     C83313   6.432   2.172  10.518 -0.5662 -1.1186 -0.1341
  618MOL0     C83314   6.337   2.146  10.608  0.1828  0.8182 -0.0900
  618MOL0     C83315   6.203   2.207  10.607  0.3407 -0.7458  0.2717
  618MOL0     C83316   6.166   2.252  10.743 -0.0111  0.2524 -0.0627
  618MOL0     C83317   6.023   2.307  10.746 -0.4706  0.6862  0.1493
  618MOL0     C83318   5.913   2.202  10.767  1.0881 -0.0480 -0.2160
  618MOL0     O83319   5.782   2.261  10.760 -0.6950  0.4441  0.3087
  618MOL0     C83320   5.668   2.193  10.798  1.0136  0.7858 -1.3383
  618MOL0     C83321   5.667   2.078  10.878  0.7732  0.7541  1.1263
  618MOL0     C83322   5.540   2.015  10.915 -0.3849  0.2376  0.6558
  618MOL0     C83323   5.418   2.064  10.863  0.4880  0.6173  0.7037
  618MOL0     C83324   5.287   2.000  10.888  0.0778  0.8072 -0.5028
  618MOL0     O83325   5.298   1.872  10.931  0.4130 -0.0892  0.1001
  618MOL0     C83326   5.185   1.817  10.975  0.0912  0.3515  0.0344
  618MOL0     C83327   5.097   1.884  11.068 -0.0194 -0.5127 -0.4379
  618MOL0     C83328   4.987   1.818  11.130 -0.0915  1.0959  0.3084
  618MOL0     C83329   4.956   1.686  11.095 -0.3378 -0.7511  0.5800
  618MOL0     O83330   4.845   1.626  11.151  0.3625  0.1300 -0.0811
  618MOL0     C83331   4.795   1.505  11.079 -0.8184  0.6408 -0.3641
  618MOL0     C83332   4.665   1.447  11.137  0.9464 -0.6603 -1.4055
  618MOL0     C83333   4.534   1.515  11.094 -0.3465  0.2595 -0.4410
  618MOL0     C83334   4.405   1.464  11.179 -0.0983 -0.8440  0.4054
  618MOL0     C83335   4.274   1.504  11.104 -0.6688 -0.1023 -0.3338
  618MOL0     C83336   4.260   1.662  11.113  0.0972 -0.2090  0.2603
  618MOL0     C83337   4.122   1.706  11.051 -0.1028  0.3308  0.7783
  618MOL0     C83338   4.079   1.852  11.072  0.1216  0.2765  0.4321
  618MOL0    Cl83339   3.938   1.884  10.971 -0.1569 -0.2714  0.0291
  618MOL0     C83340   5.045   1.626  11.000 -0.1636  0.0488 -0.3831
  618MOL0     C83341   5.159   1.686  10.947 -0.3543 -0.4417  0.2741
  618MOL0     O83342   5.186   2.066  10.855 -0.2108  0.5176  0.4872
  618MOL0     C83343   5.424   2.181  10.784  0.7501 -0.5820 -0.9121
  618MOL0     C83344   5.540   2.249  10.766 -0.1163 -0.0558  0.0826
  618MOL0     N83345   6.376   2.043  10.688  0.2418  1.5384 -0.1579
  618MOL0     N83346   6.489   1.998  10.641  0.8498  0.0347 -0.0888
  618MOL0     C83347   7.367   2.839  10.256  0.2163  0.3119  0.8169
  618MOL0     C83348   7.486   2.893  10.212 -0.6472 -1.6432 -1.4446
  618MOL0     C83349   7.926   2.881  10.185  0.1774 -0.5374 -0.0372
  618MOL0     C83350   7.949   2.766  10.125  0.1216 -0.1401  0.2085
  618MOL0     C83351   8.073   2.708  10.124  0.4490  0.7172  0.6379
  618MOL0     C83352   8.179   2.768  10.188  0.9551  0.6483  0.1071
  618MOL0     O83353   8.294   2.705  10.196 -0.4197 -0.2640 -0.4526
  618MOL0     C83354   8.301   2.568  10.237  0.7809  0.1758 -0.2052
  618MOL0     C83355   8.412   2.557  10.337  0.5542 -0.0892 -0.4409
  618MOL0     C83356   8.550   2.593  10.275  0.5968 -0.3727  0.6352
  618MOL0     C83357   8.656   2.540  10.356  0.1170  0.3868 -0.6649
  618MOL0     C83358   8.789   2.592  10.307  0.2860  0.4340 -0.8825
  618MOL0     C83359   8.896   2.627  10.264 -0.7809 -0.1966 -0.8111
  618MOL0     C83360   8.162   2.891  10.244 -0.0063 -0.1668  0.0710
  618MOL0     C83361   8.036   2.949  10.240  0.2322 -0.4846 -0.4447
  618MOL0     C83362   8.034   3.092  10.294  0.0212 -0.3682 -0.0464
  618MOL0     H83363   7.587   2.677   9.973 -2.0852 -3.2410 -0.2470
  618MOL0     H83364   7.375   2.574  10.043 -1.9862 -0.2750  0.9365
  618MOL0     H83365   7.174   2.681  10.435  0.4712 -0.5589 -1.2119
  618MOL0     H83366   7.100   2.808  10.325  1.1472  0.7480 -0.5337
  618MOL0     H83367   6.974   2.638  10.213 -0.3902 -2.4421  0.5321
  618MOL0     H83368   6.921   2.705  10.370  0.6114  0.8700  0.3430
  618MOL0     H83369   6.978   2.496  10.474 -1.2982 -0.0127 -0.1607
  618MOL0     H83370   7.078   2.447  10.334  0.6115  0.5662 -0.2612
  618MOL0     H83371   6.776   2.419  10.359  0.7305  1.8356  1.7678
  618MOL0     H83372   6.851   2.423  10.201 -4.6041 -1.1896  0.5062
  618MOL0     H83373   6.842   2.197  10.255  0.9802  1.2400 -2.1070
  618MOL0     H83374   7.010   2.242  10.306 -0.2235 -1.4888 -1.7527
  618MOL0     H83375   6.927   2.116  10.470 -0.2213 -0.6151  0.1191
  618MOL0     H83376   6.933   2.282  10.542  0.9977  0.7022 -1.9588
  618MOL0     H83377   6.681   2.291  10.487 -0.4916  0.1872 -0.0097
  618MOL0     H83378   6.730   2.208  10.632 -0.9497  1.6259 -0.2396
  618MOL0     H83379   6.657   2.068  10.372 -2.6381  1.6880 -0.8474
  618MOL0     H83380   6.704   1.985  10.526 -1.2374  0.2292  1.9210
  618MOL0     H83381   6.434   2.247  10.440 -0.6683  0.6628  1.4939
  618MOL0     H83382   6.205   2.292  10.538 -0.9476 -1.1202 -0.2617
  618MOL0     H83383   6.129   2.141  10.560  0.3306  1.3637 -2.9976
  618MOL0     H83384   6.154   2.178  10.822  0.7343  0.8140  0.5959
  618MOL0     H83385   6.241   2.326  10.774 -1.0186  1.6544 -0.8599
  618MOL0     H83386   6.001   2.366  10.657  2.8499 -0.9849 -1.9410
  618MOL0     H83387   6.028   2.384  10.824 -1.1873  0.6390  0.2518
  618MOL0     H83388   5.937   2.163  10.866  3.7838  2.0209  0.0657
  618MOL0     H83389   5.927   2.132  10.684  0.4787  1.9596 -2.1136
  618MOL0     H83390   5.761   2.028  10.898 -0.2242 -1.3385  0.9108
  618MOL0     H83391   5.542   1.920  10.968  0.9355  0.2060  0.5814
  618MOL0     H83392   5.111   1.988  11.095 -2.2819 -0.1666 -0.3974
  618MOL0     H83393   4.913   1.869  11.191 -0.3333  0.4478  0.5630
  618MOL0     H83394   4.768   1.539  10.978 -1.5674 -2.3836 -1.2769
  618MOL0     H83395   4.871   1.427  11.080 -0.2720  1.0576  3.3223
  618MOL0     H83396   4.660   1.345  11.097  1.9474 -1.3850  0.2450
  618MOL0     H83397   4.679   1.450  11.245 -1.8286  0.3633 -1.0043
  618MOL0     H83398   4.544   1.623  11.102 -3.5322  0.5257  2.8914
  618MOL0     H83399   4.508   1.487  10.991  0.1375  1.3788 -0.8779
  618MOL0     H83400   4.407   1.495  11.284 -4.6931  0.5611  0.2651
  618MOL0     H83401   4.412   1.356  11.194  0.3653 -1.4009 -2.9906
  618MOL0     H83402   4.182   1.463  11.149  0.9614 -3.6459  0.1363
  618MOL0     H83403   4.288   1.477  10.999 -1.1741 -2.0976  0.0682
  618MOL0     H83404   4.262   1.700  11.216  2.3888  1.2885 -0.2625
  618MOL0     H83405   4.347   1.697  11.057 -0.3089  0.7321  0.1797
  618MOL0     H83406   4.038   1.655  11.099 -1.9879  3.1565  0.7368
  618MOL0     H83407   4.130   1.682  10.944  0.1889  1.7265  0.4586
  618MOL0     H83408   4.056   1.859  11.179  0.4134  3.0590  0.3827
  618MOL0     H83409   4.163   1.920  11.057  0.7789 -1.1654 -3.8933
  618MOL0     H83410   5.033   1.523  10.969  0.7344 -0.5040  0.9951
  618MOL0     H83411   5.231   1.639  10.881 -0.8419  1.8984 -2.0693
  618MOL0     H83412   5.335   2.237  10.758  2.4696  3.2882  0.7303
  618MOL0     H83413   5.543   2.338  10.703 -0.7267  0.6638  1.0356
  618MOL0     H83414   7.310   2.881  10.338 -0.2870 -0.0877  0.6712
  618MOL0     H83415   7.508   2.977  10.277  0.1732 -3.4258  0.6905
  618MOL0     H83416   7.875   2.703  10.076  0.0350 -0.3099  0.5620
  618MOL0     H83417   8.089   2.609  10.082  2.9597  0.5052  1.9470
  618MOL0     H83418   8.320   2.506  10.149 -1.2348 -0.6525 -0.1063
  618MOL0     H83419   8.205   2.542  10.281 -0.0510 -0.6687 -2.3873
  618MOL0     H83420   8.409   2.453  10.372  1.5855  0.8492  2.7056
  618MOL0     H83421   8.408   2.635  10.413  0.2805  0.0967 -0.6421
  618MOL0     H83422   8.562   2.701  10.263 -0.2144 -0.4589 -1.2993
  618MOL0     H83423   8.561   2.548  10.176  1.9041 -0.4729  0.8013
  618MOL0     H83424   8.656   2.574  10.460 -1.0211  0.7000 -0.7611
  618MOL0     H83425   8.658   2.431  10.359  0.5082  0.3915 -0.6928
  618MOL0     H83426   8.989   2.662  10.224  1.1543 -1.8724  1.8621
  618MOL0     H83427   8.249   2.927  10.298  1.8239 -3.8616 -0.0667
  618MOL0     H83428   8.135   3.131  10.313  0.5516 -1.9285  0.5699
  618MOL0     H83429   7.983   3.152  10.218  3.3517  0.1763 -2.0866
  618MOL0     H83430   7.977   3.106  10.386 -2.3155  1.5360 -1.6537
  619MOL0     O83431   9.515  10.544  11.239 -0.5171 -0.0907 -0.3394
  619MOL0     C83432   9.493  10.495  11.131  0.3119  0.3024  1.2801
  619MOL0     O83433   9.576  10.419  11.055 -0.2124 -0.5317  0.3511
  619MOL0     C83434   9.699  10.380  11.104  0.4275 -0.2292  0.4231
  619MOL0     C83435   9.699  10.303  11.221 -0.5706  1.1855 -0.3711
  619MOL0     C83436   9.814  10.235  11.262  0.6055 -0.1354 -0.8564
  619MOL0     C83437   9.938  10.238  11.193  0.1180  0.6297  0.7719
  619MOL0     O83438  10.063  10.196  11.236 -0.7669 -0.6301 -0.2989
  619MOL0     C83439  10.064  10.105  11.347  0.1213  0.2601 -0.7158
  619MOL0     C83440  10.195  10.034  11.317  0.0524  0.6769 -0.2029
  619MOL0     C83441  10.210   9.914  11.419 -0.3848  1.6168  0.7751
  619MOL0     C83442  10.366   9.902  11.431 -0.5095 -0.8316 -0.0914
  619MOL0     C83443  10.410   9.997  11.541 -0.3870  0.5482  0.4715
  619MOL0     C83444  10.556   9.981  11.583  0.4228 -0.1920  0.0755
  619MOL0     C83445  10.667  10.011  11.477  1.0924  0.1949 -0.1325
  619MOL0     C83446  10.711  10.156  11.462 -0.5674 -0.6882 -0.4928
  619MOL0     N83447  10.816  10.200  11.554  0.1198  0.2214 -0.1798
  619MOL0     C83448  10.953  10.186  11.521 -0.3182  0.6947 -0.4098
  619MOL0     C83449  11.031  10.236  11.628  1.2860 -0.2383 -0.1388
  619MOL0     C83450  11.176  10.247  11.649  0.2005  0.1070 -0.5348
  619MOL0     C83451  11.231  10.123  11.733 -0.0625 -0.0084 -0.2884
  619MOL0     C83452  11.268  10.000  11.651 -0.0385  0.1139 -0.0006
  619MOL0     C83453  11.301   9.882  11.745 -0.9417  0.7892  0.1049
  619MOL0     O83454  11.194   9.831  11.825 -0.0271 -0.0196  0.8322
  619MOL0     C83455  11.087   9.779  11.762  0.9253  0.4196 -0.5536
  619MOL0     C83456  10.957   9.837  11.770 -0.8262  0.0834 -0.2165
  619MOL0     C83457  10.841   9.762  11.723 -0.4318 -0.7567 -0.0252
  619MOL0     C83458  10.859   9.636  11.656  0.6829 -0.5698 -0.9065
  619MOL0     C83459  10.744   9.569  11.584 -0.0993  0.2382 -0.8895
  619MOL0     O83460  10.619   9.623  11.589  0.6460  0.6286  0.1021
  619MOL0     C83461  10.511   9.543  11.595 -0.3038 -0.9986  0.3583
  619MOL0     C83462  10.421   9.531  11.487  0.0655  0.0302 -0.6182
  619MOL0     C83463  10.313   9.449  11.496 -0.4022  0.7739 -0.1930
  619MOL0     C83464  10.285   9.380  11.617 -0.1407 -0.1220 -0.6482
  619MOL0     O83465  10.165   9.320  11.630  0.2468 -0.4414 -0.4974
  619MOL0     C83466  10.134   9.270  11.760  0.4635  0.2358  0.2674
  619MOL0     C83467   9.995   9.220  11.763  0.1418 -1.4037  1.0007
  619MOL0     C83468   9.949   9.152  11.886 -0.2013 -0.2564  0.3215
  619MOL0     C83469   9.797   9.124  11.872 -0.0406  0.0043  0.6689
  619MOL0     C83470   9.744   9.053  11.996  0.1642  0.3111 -0.1736
  619MOL0     C83471   9.590   9.070  12.007 -0.0857 -0.5206  0.0930
  619MOL0     C83472   9.528   8.976  11.909 -0.1644 -0.4866 -0.6992
  619MOL0     C83473   9.375   8.963  11.916 -0.4418 -1.5048 -0.1244
  619MOL0    Cl83474   9.308   8.856  11.801  0.2604  0.0298  0.0400
  619MOL0     C83475  10.375   9.401  11.723  0.1511 -0.0133 -0.3607
  619MOL0     C83476  10.499   9.467  11.710 -0.0216 -0.1877  0.1475
  619MOL0     O83477  10.783   9.470  11.519 -0.1161  0.2538 -0.1340
  619MOL0     C83478  10.995   9.589  11.651 -0.1591  0.2565  0.1944
  619MOL0     C83479  11.107   9.656  11.691  0.4072  0.2196  0.5875
  619MOL0     N83480  10.938  10.284  11.721 -0.5886  0.2142  0.1493
  619MOL0     N83481  10.810  10.258  11.680  0.8373  0.2766 -0.4763
  619MOL0     C83482   9.936  10.316  11.073 -0.6063 -0.1619  0.3429
  619MOL0     C83483   9.816  10.374  11.019 -0.4227  0.9476 -0.0816
  619MOL0     C83484   9.366  10.512  11.063 -0.0376  0.1329 -0.7708
  619MOL0     C83485   9.368  10.510  10.921  0.8136 -1.0636 -0.3490
  619MOL0     C83486   9.248  10.517  10.839  0.6915 -0.1492 -0.5118
  619MOL0     C83487   9.124  10.532  10.906  0.5067 -0.0243  0.1517
  619MOL0     O83488   9.016  10.545  10.819  0.3890  0.4626  0.4755
  619MOL0     C83489   8.878  10.546  10.871 -0.5620 -0.3819  0.7834
  619MOL0     C83490   8.846  10.693  10.912  0.3938  0.8845 -0.1759
  619MOL0     C83491   8.861  10.801  10.809  0.4767 -0.4536 -0.3443
  619MOL0     C83492   8.781  10.768  10.679  0.1903  0.2182  0.0472
  619MOL0     C83493   8.637  10.764  10.715  0.2858 -0.3501  0.0831
  619MOL0     C83494   8.526  10.751  10.751  0.4654 -0.6745  0.0859
  619MOL0     C83495   9.122  10.547  11.046  0.0423 -0.8992 -0.2051
  619MOL0     C83496   9.237  10.535  11.125 -0.3369 -0.0627 -0.4519
  619MOL0     C83497   9.224  10.540  11.269  0.7868 -0.2326 -0.5703
  619MOL0     H83498   9.614  10.279  11.284 -0.0896 -1.2909 -0.5512
  619MOL0     H83499   9.807  10.177  11.354  1.3582 -2.4480 -2.1833
  619MOL0     H83500  10.078  10.156  11.443  0.1359 -0.6155 -0.2448
  619MOL0     H83501   9.981  10.035  11.333  0.8322 -0.5083 -1.1924
  619MOL0     H83502  10.282  10.101  11.327  0.7256 -0.2317  0.1742
  619MOL0     H83503  10.201   9.993  11.216  0.9702 -1.4273  0.6473
  619MOL0     H83504  10.164   9.824  11.377 -3.3189  3.1563  0.4094
  619MOL0     H83505  10.165   9.929  11.518 -2.7349  1.8419 -0.2509
  619MOL0     H83506  10.378   9.802  11.475 -1.9023 -0.9982 -0.0610
  619MOL0     H83507  10.435   9.903  11.347 -0.8944 -2.3281 -0.4500
  619MOL0     H83508  10.394  10.097  11.500  0.1000  0.1156 -0.8328
  619MOL0     H83509  10.350   9.976  11.630  0.0419 -1.7438  0.2882
  619MOL0     H83510  10.566  10.044  11.672 -0.9064  1.1254 -0.6525
  619MOL0     H83511  10.567   9.876  11.610  4.3269  0.2369  0.6609
  619MOL0     H83512  10.628   9.981  11.380  0.2323 -0.5143  0.4126
  619MOL0     H83513  10.760   9.957  11.498 -0.0561 -1.8193 -0.0249
  619MOL0     H83514  10.745  10.164  11.358 -0.7019  0.5800 -0.4572
  619MOL0     H83515  10.631  10.226  11.486  0.5156  0.8458 -1.1705
  619MOL0     H83516  10.991  10.133  11.434  1.5933  0.2918  0.6284
  619MOL0     H83517  11.221  10.254  11.549 -0.0044 -1.8995 -0.8000
  619MOL0     H83518  11.203  10.333  11.712  1.2695  0.1907 -1.0696
  619MOL0     H83519  11.317  10.156  11.791  2.1915 -3.9869 -0.9828
  619MOL0     H83520  11.161  10.098  11.813  0.9476 -0.4747  0.4678
  619MOL0     H83521  11.353  10.021  11.585 -0.2780  3.1314  0.5479
  619MOL0     H83522  11.188   9.965  11.585  0.3583 -0.8825  0.0196
  619MOL0     H83523  11.382   9.917  11.811  0.5063 -0.5358 -0.8934
  619MOL0     H83524  11.338   9.797  11.687 -0.2022 -0.3465  2.1583
  619MOL0     H83525  10.942   9.925  11.833 -0.3774 -0.3244  0.4751
  619MOL0     H83526  10.745   9.805  11.749 -0.0818  0.1725 -0.2502
  619MOL0     H83527  10.442   9.591  11.399 -1.9401  0.3090 -0.9558
  619MOL0     H83528  10.235   9.455  11.421 -2.6602 -0.6558  1.8952
  619MOL0     H83529  10.196   9.181  11.774 -1.8240 -2.0568 -2.6589
  619MOL0     H83530  10.156   9.343  11.838  1.0710  0.2345  0.0998
  619MOL0     H83531   9.925   9.303  11.746 -1.7067 -3.4521 -2.5299
  619MOL0     H83532   9.982   9.161  11.672  2.2337  2.8864 -2.4926
  619MOL0     H83533  10.007   9.060  11.895 -0.8520 -0.9034 -1.6002
  619MOL0     H83534   9.955   9.201  11.983 -0.5916 -0.3486  0.3935
  619MOL0     H83535   9.791   9.057  11.786  1.5951  0.7124 -0.0395
  619MOL0     H83536   9.727   9.208  11.870 -1.6483 -1.2735  0.5385
  619MOL0     H83537   9.783   9.101  12.086  0.2888 -1.2826  0.6614
  619MOL0     H83538   9.786   8.952  12.005  0.8854  0.5601 -0.6688
  619MOL0     H83539   9.562   9.041  12.109  4.7114 -2.6880  1.0982
  619MOL0     H83540   9.561   9.174  11.996 -1.9925 -0.9786  0.4370
  619MOL0     H83541   9.569   8.876  11.928 -0.6503 -0.1996  2.2997
  619MOL0     H83542   9.551   9.018  11.811  0.4688 -4.9190 -2.7045
  619MOL0     H83543   9.351   8.951  12.022 -0.4567  4.1530  0.8512
  619MOL0     H83544   9.336   9.064  11.896  2.1428 -0.8796 -2.7365
  619MOL0     H83545  10.362   9.366  11.825 -2.8786  2.1327  0.1349
  619MOL0     H83546  10.571   9.464  11.792 -2.8857 -0.7466  2.8572
  619MOL0     H83547  11.018   9.495  11.602 -1.5435 -1.2851  2.3181
  619MOL0     H83548  11.204   9.611  11.677 -0.0753 -1.6215  2.6133
  619MOL0     H83549  10.034  10.331  11.030 -0.8801 -1.3015 -0.7388
  619MOL0     H83550   9.830  10.436  10.930  0.2617  0.1990 -0.5141
  619MOL0     H83551   9.461  10.518  10.866 -0.2770 -1.7370 -2.3916
  619MOL0     H83552   9.256  10.516  10.731 -0.0580 -2.6212 -0.6080
  619MOL0     H83553   8.865  10.486  10.961 -1.1912  1.0864  1.7045
  619MOL0     H83554   8.811  10.516  10.790 -0.0407 -0.2018  0.2731
  619MOL0     H83555   8.903  10.709  11.004  1.2272 -0.6813 -0.3893
  619MOL0     H83556   8.744  10.676  10.947  1.0967 -3.7268  0.2700
  619MOL0     H83557   8.967  10.803  10.783  0.4645 -0.7295 -0.4135
  619MOL0     H83558   8.829  10.900  10.843  2.4503 -0.6637  2.4524
  619MOL0     H83559   8.797  10.849  10.606  0.2609  1.2974  1.2268
  619MOL0     H83560   8.802  10.674  10.627 -2.0883  0.4053 -1.3543
  619MOL0     H83561   8.423  10.743  10.779  0.1004  1.5390 -0.4905
  619MOL0     H83562   9.025  10.570  11.088  2.1050  4.7766  2.5809
  619MOL0     H83563   9.260  10.447  11.315  0.7447 -0.3623 -0.7958
  619MOL0     H83564   9.275  10.623  11.319  1.0368  0.4643 -1.9463
  619MOL0     H83565   9.117  10.555  11.289  0.3748  1.1704 -3.3665
  620MOL0     O83566   4.177   9.814   6.319 -0.0986 -0.4887  0.5855
  620MOL0     C83567   4.136   9.720   6.379  0.7235 -0.3687  0.6640
  620MOL0     O83568   4.219   9.635   6.441 -0.0980  0.6343  1.0152
  620MOL0     C83569   4.349   9.663   6.466 -0.0270 -0.0432  0.6174
  620MOL0     C83570   4.439   9.706   6.372 -0.5196  0.4912 -0.4111
  620MOL0     C83571   4.580   9.711   6.398 -0.4209 -0.4454 -0.2107
  620MOL0     C83572   4.621   9.679   6.529 -0.1391 -0.2307 -0.4330
  620MOL0     O83573   4.754   9.685   6.562  0.1841 -0.0888  0.2034
  620MOL0     C83574   4.824   9.560   6.565  0.3052 -0.2212 -0.3789
  620MOL0     C83575   4.939   9.564   6.466  0.4690 -0.5849  0.0335
  620MOL0     C83576   5.018   9.432   6.475  0.6981 -0.1272  0.0175
  620MOL0     C83577   5.166   9.461   6.430  0.8058 -0.2928  0.2160
  620MOL0     C83578   5.257   9.524   6.532  0.4381 -0.1580  0.1664
  620MOL0     C83579   5.393   9.530   6.458  0.4938 -0.3985  0.1532
  620MOL0     C83580   5.502   9.527   6.564 -0.1175  0.1521 -1.0059
  620MOL0     C83581   5.633   9.534   6.486 -0.2296  0.3851 -0.1597
  620MOL0     N83582   5.750   9.523   6.572  0.6127  1.1280 -0.6756
  620MOL0     C83583   5.793   9.621   6.656  0.8800 -0.7415  0.8334
  620MOL0     C83584   5.910   9.576   6.697 -0.8231  0.2496 -0.9275
  620MOL0     C83585   5.996   9.640   6.798 -0.1527 -0.4043 -0.7409
  620MOL0     C83586   6.116   9.563   6.836 -0.0945  0.2385 -0.0735
  620MOL0     C83587   6.195   9.627   6.955  0.4175 -0.7792  0.7348
  620MOL0     C83588   6.325   9.564   6.985 -0.6017 -0.1003 -1.0097
  620MOL0     O83589   6.408   9.568   6.863  0.0363  0.4972 -0.1979
  620MOL0     C83590   6.545   9.566   6.895 -0.1182  0.8686 -0.5130
  620MOL0     C83591   6.599   9.533   7.019 -0.5620 -0.5409 -0.5516
  620MOL0     C83592   6.741   9.539   7.038  0.2619  0.7586  0.1027
  620MOL0     C83593   6.824   9.565   6.925 -0.6954  0.5260 -0.0482
  620MOL0     C83594   6.974   9.553   6.937 -0.0964  0.0761 -0.7055
  620MOL0     O83595   7.050   9.608   6.835 -0.1967  0.0746 -0.0606
  620MOL0     C83596   7.182   9.581   6.847 -0.4012  0.4033 -0.6145
  620MOL0     C83597   7.272   9.645   6.930 -0.2785  0.4191 -0.7729
  620MOL0     C83598   7.407   9.607   6.927  0.4718  0.6452 -0.9949
  620MOL0     C83599   7.448   9.502   6.850  0.1078  1.0559 -0.2949
  620MOL0     O83600   7.573   9.459   6.825 -0.1167 -0.7118 -0.7442
  620MOL0     C83601   7.663   9.489   6.920  1.0015  0.2386 -0.6816
  620MOL0     C83602   7.733   9.621   6.891 -0.1756  0.7255  0.2865
  620MOL0     C83603   7.866   9.633   6.963  0.0622  0.1482 -0.4127
  620MOL0     C83604   7.922   9.777   6.929 -0.2268 -0.6161  0.4248
  620MOL0     C83605   8.067   9.785   6.978  0.5355  0.2733 -0.0266
  620MOL0     C83606   8.102   9.937   6.979  0.0602 -0.1166 -0.2716
  620MOL0     C83607   8.252   9.948   7.015 -0.5374  0.3105  0.4512
  620MOL0     C83608   8.302  10.096   7.007  0.1960 -0.5013  0.0457
  620MOL0    Cl83609   8.477  10.097   7.017  0.5990 -0.3319 -0.1272
  620MOL0     C83610   7.357   9.446   6.757 -0.5376 -0.0232  0.0843
  620MOL0     C83611   7.226   9.484   6.758 -0.9150  0.2540  0.2114
  620MOL0     O83612   7.030   9.497   7.036  0.2946 -0.5324  0.8187
  620MOL0     C83613   6.764   9.592   6.805  0.6850  0.1887 -0.7620
  620MOL0     C83614   6.623   9.596   6.789 -0.0369 -0.4274 -0.3850
  620MOL0     N83615   5.937   9.456   6.645 -0.2593 -0.1191 -0.0465
  620MOL0     N83616   5.833   9.416   6.577  0.0945 -0.5121  0.3635
  620MOL0     C83617   4.526   9.641   6.630 -0.4101  0.8565 -0.5659
  620MOL0     C83618   4.387   9.638   6.601 -0.7699  0.1469  0.2419
  620MOL0     C83619   3.982   9.668   6.378 -0.3865 -0.5494 -0.3779
  620MOL0     C83620   3.950   9.555   6.461  0.0956 -0.3703  0.9153
  620MOL0     C83621   3.821   9.502   6.452 -0.5806  0.3417  0.2974
  620MOL0     C83622   3.718   9.564   6.374 -0.2950  0.1932  1.0772
  620MOL0     O83623   3.599   9.506   6.357 -0.1557  0.9895 -0.3627
  620MOL0     C83624   3.507   9.497   6.472  0.1938 -0.0483 -0.2283
  620MOL0     C83625   3.400   9.596   6.464  0.5940 -0.8164 -0.7989
  620MOL0     C83626   3.272   9.565   6.374  0.4522  0.2321 -0.6090
  620MOL0     C83627   3.169   9.673   6.370  0.7776 -0.5447  0.2232
  620MOL0     C83628   3.048   9.644   6.299 -1.1685  0.3143  0.3956
  620MOL0     C83629   2.943   9.598   6.249 -0.5687  0.4070  0.6186
  620MOL0     C83630   3.750   9.671   6.297 -0.0275 -0.1416 -0.4902
  620MOL0     C83631   3.876   9.730   6.300 -0.6108  0.1363  0.4024
  620MOL0     C83632   3.913   9.833   6.195  0.0791  1.1956 -0.0048
  620MOL0     H83633   4.410   9.729   6.270  1.5817 -1.5763 -1.5885
  620MOL0     H83634   4.648   9.728   6.314 -2.3601  1.4707 -1.4986
  620MOL0     H83635   4.872   9.541   6.662  0.2586  0.1984 -0.2706
  620MOL0     H83636   4.766   9.468   6.559  0.0119 -0.0022 -0.9675
  620MOL0     H83637   4.996   9.651   6.499  2.6789 -2.2374  0.8164
  620MOL0     H83638   4.892   9.578   6.368  0.0864 -0.8271  0.1788
  620MOL0     H83639   4.968   9.360   6.409 -1.8307  1.9454 -0.4682
  620MOL0     H83640   5.019   9.391   6.577  1.1112  1.5240  0.7090
  620MOL0     H83641   5.203   9.359   6.420  2.4316  0.1866  0.9329
  620MOL0     H83642   5.178   9.518   6.338 -0.2019  1.1087  0.9224
  620MOL0     H83643   5.223   9.624   6.559  2.1882  0.8309 -1.0353
  620MOL0     H83644   5.270   9.465   6.624 -1.3512  0.4421  0.8458
  620MOL0     H83645   5.397   9.447   6.387 -1.0757  0.4854 -1.0336
  620MOL0     H83646   5.379   9.621   6.400 -1.0330 -1.1409 -0.6986
  620MOL0     H83647   5.508   9.431   6.616  2.4497 -0.6072 -2.4751
  620MOL0     H83648   5.487   9.609   6.634  1.0396 -1.2683  1.0247
  620MOL0     H83649   5.632   9.448   6.419 -2.7065  1.5139 -1.7043
  620MOL0     H83650   5.640   9.632   6.437 -1.4376  0.8430  0.5324
  620MOL0     H83651   5.739   9.711   6.685  1.4832  0.8066 -2.3235
  620MOL0     H83652   6.029   9.740   6.767 -0.4149  1.0185  3.0856
  620MOL0     H83653   5.933   9.652   6.887  0.4511  1.5922 -0.5369
  620MOL0     H83654   6.099   9.460   6.868 -0.4008  0.7911  1.6615
  620MOL0     H83655   6.187   9.574   6.754 -0.3045  3.2350  0.0320
  620MOL0     H83656   6.123   9.644   7.035 -0.0876  0.2109  0.0881
  620MOL0     H83657   6.227   9.728   6.927 -0.1288 -0.6960  0.3989
  620MOL0     H83658   6.309   9.457   7.005  2.5419 -0.6716 -1.0411
  620MOL0     H83659   6.363   9.621   7.070  1.8812  0.5672 -2.4641
  620MOL0     H83660   6.547   9.516   7.113  1.1542 -1.1409  0.3311
  620MOL0     H83661   6.782   9.515   7.136 -1.4210 -2.4327  0.1778
  620MOL0     H83662   7.225   9.715   6.999  0.7237 -0.6207  1.0648
  620MOL0     H83663   7.473   9.676   6.979  1.2479  0.6616 -1.9668
  620MOL0     H83664   7.625   9.478   7.022  2.4720 -0.9238 -0.2218
  620MOL0     H83665   7.737   9.408   6.923 -0.7862 -1.4525  0.7183
  620MOL0     H83666   7.761   9.624   6.786 -1.6323  0.4671 -0.1350
  620MOL0     H83667   7.669   9.705   6.919  1.2869  1.8446  0.3281
  620MOL0     H83668   7.861   9.626   7.072  3.5328 -0.9882 -0.2017
  620MOL0     H83669   7.936   9.558   6.925  0.1766  0.3258 -0.5546
  620MOL0     H83670   7.863   9.853   6.980  2.1390 -0.1499  2.6646
  620MOL0     H83671   7.923   9.789   6.820  0.7372 -0.9857  0.3854
  620MOL0     H83672   8.133   9.727   6.914 -1.0333 -3.0235  1.1224
  620MOL0     H83673   8.084   9.751   7.081  1.3053 -2.4019 -0.9775
  620MOL0     H83674   8.075   9.978   6.881  1.8195 -0.5226 -0.9693
  620MOL0     H83675   8.042   9.995   7.049 -1.9681 -1.2047 -1.0064
  620MOL0     H83676   8.315   9.893   6.944 -1.5629  0.2485 -0.4246
  620MOL0     H83677   8.258   9.900   7.113 -2.0780 -0.4313  0.2078
  620MOL0     H83678   8.281  10.145   6.911  0.4509  1.3097  0.8758
  620MOL0     H83679   8.260  10.165   7.081  2.7826  1.7159 -0.4022
  620MOL0     H83680   7.409   9.380   6.688 -0.7455  2.1065 -2.2115
  620MOL0     H83681   7.157   9.430   6.694  0.3323  0.2828 -1.2311
  620MOL0     H83682   6.827   9.607   6.718  0.5304  2.3083 -0.5629
  620MOL0     H83683   6.585   9.623   6.691 -1.7619 -0.5003  0.2393
  620MOL0     H83684   4.558   9.593   6.722 -1.6548  1.9105  0.4456
  620MOL0     H83685   4.322   9.593   6.676  0.1653  0.0968  1.0367
  620MOL0     H83686   4.017   9.514   6.537  0.5246  0.5909  1.0742
  620MOL0     H83687   3.795   9.411   6.504  0.6419  0.0848  0.4995
  620MOL0     H83688   3.564   9.510   6.564  0.7103  0.0904 -0.5616
  620MOL0     H83689   3.476   9.392   6.480  1.7119 -0.4117  1.4805
  620MOL0     H83690   3.455   9.688   6.438  2.1119 -0.8271  2.0475
  620MOL0     H83691   3.376   9.605   6.570 -0.2726  0.6092 -1.0868
  620MOL0     H83692   3.226   9.489   6.437  1.2121  0.3536  0.1156
  620MOL0     H83693   3.303   9.534   6.274 -0.4132 -1.5774 -0.3476
  620MOL0     H83694   3.119   9.685   6.467 -0.7685 -3.3937 -0.1159
  620MOL0     H83695   3.225   9.764   6.347 -0.7559  0.3009 -0.2972
  620MOL0     H83696   2.866   9.545   6.197 -0.0160  0.5915 -0.3971
  620MOL0     H83697   3.662   9.708   6.245 -1.4664 -0.4308  1.6452
  620MOL0     H83698   3.957   9.922   6.243 -0.3400  0.7520  1.2536
  620MOL0     H83699   3.978   9.783   6.123 -1.1864 -1.1894  0.4232
  620MOL0     H83700   3.823   9.862   6.140 -1.3116 -0.9098  1.0478
  621MOL0     O83701   2.741   2.114   6.775  0.8441 -0.4012  0.0677
  621MOL0     C83702   2.674   2.029   6.840 -0.0916  0.5522  0.0491
  621MOL0     O83703   2.737   1.931   6.918 -0.2189  0.4960  0.3488
  621MOL0     C83704   2.865   1.973   6.962 -0.0910 -0.5551  0.6512
  621MOL0     C83705   2.969   1.962   6.871 -0.3387  0.0792 -0.4858
  621MOL0     C83706   3.093   2.005   6.914 -0.4342 -0.0396  0.6631
  621MOL0     C83707   3.110   2.064   7.042  0.2375 -0.5063 -0.0593
  621MOL0     O83708   3.228   2.097   7.095 -0.0264 -0.4128  0.3316
  621MOL0     C83709   3.330   2.143   7.004 -1.0939 -0.4258 -0.5394
  621MOL0     C83710   3.464   2.143   7.082  0.1820  0.3469 -0.6479
  621MOL0     C83711   3.589   2.183   7.004 -0.3943 -0.3455 -0.2094
  621MOL0     C83712   3.566   2.322   6.932  0.3394 -1.0368  0.1126
  621MOL0     C83713   3.690   2.409   6.933 -0.2200 -0.2705 -0.3255
  621MOL0     C83714   3.811   2.342   6.843 -0.4370  0.1820 -0.3946
  621MOL0     C83715   3.937   2.433   6.856  0.0204  0.2573  0.7360
  621MOL0     C83716   3.996   2.398   6.989  0.2212 -0.9338  0.1494
  621MOL0     N83717   4.066   2.521   7.022 -0.0770 -0.6079 -0.9544
  621MOL0     C83718   4.158   2.590   6.951 -0.9438 -0.8411  0.3779
  621MOL0     C83719   4.173   2.708   7.012  0.2968 -0.0858  0.2887
  621MOL0     C83720   4.261   2.825   6.976  0.5505  0.7351  0.8383
  621MOL0     C83721   4.193   2.932   6.890 -1.0449 -0.3798 -1.1206
  621MOL0     C83722   4.288   3.050   6.848  0.1519  0.2738 -0.2236
  621MOL0     C83723   4.416   3.001   6.788  0.6663 -0.6768 -0.0814
  621MOL0     O83724   4.513   3.005   6.889 -0.0382  0.1305  0.0001
  621MOL0     C83725   4.645   2.968   6.866  0.9609  0.7715  0.4547
  621MOL0     C83726   4.738   2.971   6.960 -1.0396  0.0459 -0.1777
  621MOL0     C83727   4.870   2.936   6.936 -0.3977  0.2848 -0.5323
  621MOL0     C83728   4.904   2.883   6.811 -0.4020 -0.5690  0.3383
  621MOL0     C83729   5.046   2.835   6.790  0.4166  0.4499 -0.4846
  621MOL0     O83730   5.078   2.840   6.661  0.2766 -0.7789  0.2250
  621MOL0     C83731   5.210   2.810   6.616  0.4459  0.5849 -0.5071
  621MOL0     C83732   5.257   2.685   6.658 -0.3761  0.5432 -0.0530
  621MOL0     C83733   5.388   2.652   6.652  0.2622 -1.1234 -0.3245
  621MOL0     C83734   5.470   2.747   6.581 -0.3195  1.3446 -0.3346
  621MOL0     O83735   5.600   2.708   6.557 -0.6580  0.2751  0.7899
  621MOL0     C83736   5.699   2.777   6.641 -0.0779 -1.0317  0.4775
  621MOL0     C83737   5.829   2.724   6.602 -0.2564  0.8440  0.0498
  621MOL0     C83738   5.930   2.792   6.695  0.2954  0.1900 -0.5182
  621MOL0     C83739   6.077   2.789   6.648 -0.2821 -0.7208  0.7489
  621MOL0     C83740   6.177   2.868   6.747 -0.0173  0.4270 -0.5786
  621MOL0     C83741   6.328   2.849   6.717  1.0216 -0.2870  0.2369
  621MOL0     C83742   6.355   2.899   6.570  0.1720 -0.5170 -0.3027
  621MOL0     C83743   6.506   2.879   6.549  0.4077 -0.1089 -0.1618
  621MOL0    Cl83744   6.563   2.710   6.577  0.2031 -0.2900  0.2731
  621MOL0     C83745   5.419   2.862   6.519  0.1967  0.7407 -0.7414
  621MOL0     C83746   5.286   2.890   6.541  0.4132  0.4867 -0.1758
  621MOL0     O83747   5.120   2.825   6.883  0.0686 -0.6775  0.0739
  621MOL0     C83748   4.805   2.872   6.709  0.7559  0.2224 -0.0674
  621MOL0     C83749   4.682   2.922   6.744 -1.6295  0.3078  0.7408
  621MOL0     N83750   4.087   2.712   7.124  0.0259 -0.0351 -0.3329
  621MOL0     N83751   4.021   2.602   7.126  0.3473 -0.2123  0.2002
  621MOL0     C83752   3.000   2.078   7.125  0.2256 -0.4183 -0.5854
  621MOL0     C83753   2.873   2.037   7.089  0.2287  0.2077  0.2731
  621MOL0     C83754   2.526   2.022   6.822  0.5696 -0.9160  0.1401
  621MOL0     C83755   2.478   1.898   6.784  0.4727  0.2505  0.1715
  621MOL0     C83756   2.350   1.891   6.754 -0.0085 -0.5058 -0.4879
  621MOL0     C83757   2.260   1.988   6.765  0.2586 -0.1220 -0.4381
  621MOL0     O83758   2.133   1.943   6.751 -0.6452 -0.4297  0.1088
  621MOL0     C83759   2.037   2.053   6.766  0.3634  0.4085 -0.4421
  621MOL0     C83760   1.900   1.994   6.771  0.2831 -0.5872  0.3323
  621MOL0     C83761   1.853   1.929   6.641  0.8381  0.5799  0.1117
  621MOL0     C83762   1.702   1.897   6.664 -0.1938  0.1756  0.5415
  621MOL0     C83763   1.597   1.992   6.612  0.8961  0.4553 -0.9127
  621MOL0     C83764   1.508   2.062   6.561 -0.2338  0.0344 -0.9276
  621MOL0     C83765   2.300   2.114   6.814  0.2690  0.9123  0.0125
  621MOL0     C83766   2.436   2.131   6.843  0.3305 -0.5047 -0.5836
  621MOL0     C83767   2.473   2.265   6.902 -0.0264 -0.3844  0.1395
  621MOL0     H83768   2.961   1.918   6.772  1.1335  0.8831 -0.9903
  621MOL0     H83769   3.170   2.002   6.838 -0.9462  0.2641  0.1182
  621MOL0     H83770   3.344   2.083   6.913 -0.3628 -1.4526  0.2272
  621MOL0     H83771   3.295   2.243   6.977 -1.8636 -0.6162 -0.3056
  621MOL0     H83772   3.476   2.045   7.130 -0.6575  0.3904 -0.3283
  621MOL0     H83773   3.457   2.207   7.170  1.8673  0.9142 -0.8902
  621MOL0     H83774   3.635   2.112   6.934  0.6350  0.6213 -0.5471
  621MOL0     H83775   3.668   2.191   7.079  0.7109 -2.4224 -1.0666
  621MOL0     H83776   3.544   2.308   6.826 -3.0305 -0.6653  0.6483
  621MOL0     H83777   3.480   2.378   6.968  0.1098 -0.4348 -1.3185
  621MOL0     H83778   3.668   2.514   6.909  3.0163  0.4098 -0.8805
  621MOL0     H83779   3.709   2.411   7.041  0.5925 -2.1286 -0.4036
  621MOL0     H83780   3.838   2.244   6.883 -0.0295 -0.1310 -1.4156
  621MOL0     H83781   3.782   2.320   6.740  2.0263  1.2250 -1.3990
  621MOL0     H83782   3.899   2.535   6.849  2.2160  1.5009  4.1729
  621MOL0     H83783   4.006   2.416   6.773 -0.6580 -0.4600  0.3042
  621MOL0     H83784   3.916   2.378   7.061  0.3089  0.7702  0.7780
  621MOL0     H83785   4.074   2.322   6.976  0.0659 -1.0001 -0.4050
  621MOL0     H83786   4.209   2.554   6.862 -0.5086  0.1858  0.1967
  621MOL0     H83787   4.295   2.864   7.072 -1.3373  0.3054  1.7177
  621MOL0     H83788   4.335   2.767   6.920  0.2386 -0.7404  1.9175
  621MOL0     H83789   4.162   2.885   6.797 -3.8275 -1.1486  0.0790
  621MOL0     H83790   4.105   2.969   6.944 -0.8867 -1.0657 -0.3626
  621MOL0     H83791   4.308   3.113   6.935 -1.1666 -1.9939  1.8752
  621MOL0     H83792   4.247   3.112   6.768  1.5682  0.2860 -0.9767
  621MOL0     H83793   4.438   3.065   6.702 -1.9041 -1.2868 -1.2825
  621MOL0     H83794   4.408   2.900   6.748  1.5898 -1.2104  1.0273
  621MOL0     H83795   4.708   3.007   7.058  1.3353 -1.0775  1.0691
  621MOL0     H83796   4.943   2.950   7.014 -2.9716 -0.9518  2.2769
  621MOL0     H83797   5.186   2.616   6.705 -1.1027  0.5062 -1.1799
  621MOL0     H83798   5.416   2.552   6.685 -3.6909 -1.9977  0.9287
  621MOL0     H83799   5.702   2.885   6.624  1.9396 -1.2064 -0.6584
  621MOL0     H83800   5.684   2.750   6.746 -3.9220 -0.7883  0.1297
  621MOL0     H83801   5.835   2.615   6.610  2.1393  0.9731  0.8895
  621MOL0     H83802   5.842   2.754   6.498  0.3606  4.0593  0.9455
  621MOL0     H83803   5.898   2.895   6.718  0.4873 -0.0901  1.1350
  621MOL0     H83804   5.919   2.746   6.793 -0.0929 -1.2571 -1.2201
  621MOL0     H83805   6.073   2.843   6.553 -1.2752 -2.3185 -0.1594
  621MOL0     H83806   6.128   2.694   6.634  0.0213 -0.5443  0.6513
  621MOL0     H83807   6.147   2.840   6.848  0.7970 -0.9800 -0.6996
  621MOL0     H83808   6.160   2.976   6.741  3.5508  1.1984  0.3001
  621MOL0     H83809   6.389   2.897   6.794  0.1728  0.0453  0.7177
  621MOL0     H83810   6.340   2.740   6.716 -0.2159 -0.5038 -2.9936
  621MOL0     H83811   6.320   3.002   6.555  0.3056  0.2654  3.7474
  621MOL0     H83812   6.310   2.828   6.500  3.5537 -0.6065 -2.6260
  621MOL0     H83813   6.519   2.905   6.444 -2.1883  2.7005  0.0666
  621MOL0     H83814   6.563   2.957   6.600 -0.0424  1.5232 -2.0270
  621MOL0     H83815   5.477   2.927   6.456  1.0543  0.2101 -0.5179
  621MOL0     H83816   5.243   2.978   6.494 -2.1749 -0.7500 -0.3189
  621MOL0     H83817   4.828   2.833   6.611  0.5977  0.5283 -0.2277
  621MOL0     H83818   4.608   2.922   6.665 -1.5587 -1.0201  0.6512
  621MOL0     H83819   3.011   2.114   7.227  0.7076 -0.2727 -0.6839
  621MOL0     H83820   2.783   2.036   7.150  0.8340 -2.4969  1.2441
  621MOL0     H83821   2.548   1.816   6.774 -0.7937 -0.8420 -0.1191
  621MOL0     H83822   2.313   1.793   6.723 -0.0466 -0.0251 -2.0406
  621MOL0     H83823   2.042   2.124   6.683 -0.6589  0.1846 -0.7074
  621MOL0     H83824   2.051   2.102   6.863 -1.2720  1.8427 -0.8811
  621MOL0     H83825   1.829   2.075   6.792 -0.3673 -0.6848 -1.3193
  621MOL0     H83826   1.894   1.938   6.864 -2.7140  2.5090  2.2673
  621MOL0     H83827   1.917   1.840   6.647  0.4712  0.2711 -0.5489
  621MOL0     H83828   1.860   1.998   6.556 -2.1935  0.5202 -0.2813
  621MOL0     H83829   1.667   1.811   6.605 -1.9652  0.6000  0.9276
  621MOL0     H83830   1.686   1.883   6.771  0.1904  3.3903  1.1092
  621MOL0     H83831   1.439   2.134   6.521  2.9800  4.5345  0.8085
  621MOL0     H83832   2.235   2.200   6.828  1.7940  1.8585  1.7096
  621MOL0     H83833   2.510   2.257   7.004 -1.4989 -1.0646  0.6576
  621MOL0     H83834   2.552   2.309   6.841 -0.0883 -3.1414 -2.1493
  621MOL0     H83835   2.387   2.332   6.906 -0.9403 -1.5785  1.5256
  622MOL0     O83836   5.757   8.846   5.558 -0.8673  0.2325  0.2132
  622MOL0     C83837   5.695   8.877   5.659  0.2171  0.6148 -0.4209
  622MOL0     O83838   5.752   8.896   5.783 -0.1120  0.2606 -0.2763
  622MOL0     C83839   5.866   8.834   5.821  0.3024 -0.7869  0.3803
  622MOL0     C83840   5.998   8.849   5.759  0.3709 -0.5751 -0.0729
  622MOL0     C83841   6.111   8.775   5.796 -0.1850  0.0333 -0.8719
  622MOL0     C83842   6.099   8.675   5.903 -0.2339  0.1768  0.4077
  622MOL0     O83843   6.209   8.601   5.925 -0.8863  0.0822 -0.2657
  622MOL0     C83844   6.236   8.540   6.055  0.0725  0.0206  0.0223
  622MOL0     C83845   6.364   8.473   6.047 -0.0546 -0.1192 -0.4756
  622MOL0     C83846   6.413   8.428   6.182 -0.3343 -0.2072  0.1307
  622MOL0     C83847   6.536   8.345   6.170  0.2611  0.2614  0.0368
  622MOL0     C83848   6.657   8.410   6.111 -0.6773  0.3059  0.4369
  622MOL0     C83849   6.720   8.535   6.189 -0.3344  0.2220  0.4348
  622MOL0     C83850   6.860   8.564   6.127  0.8005 -0.3166  0.3563
  622MOL0     C83851   6.933   8.682   6.199 -0.8113  0.0948 -0.3024
  622MOL0     N83852   7.048   8.722   6.125  0.3673  0.3206  0.5244
  622MOL0     C83853   7.175   8.677   6.134 -0.0466  0.1622 -0.1291
  622MOL0     C83854   7.244   8.752   6.047  0.4232 -0.2558 -0.5233
  622MOL0     C83855   7.393   8.748   6.013  0.9102 -0.1040  0.1401
  622MOL0     C83856   7.475   8.840   6.101  0.1811 -0.7021 -0.5774
  622MOL0     C83857   7.621   8.848   6.044 -0.6178 -0.6849  0.6512
  622MOL0     C83858   7.714   8.921   6.129  0.3828 -0.5369 -0.1706
  622MOL0     O83859   7.843   8.879   6.083 -0.1599  0.1628  0.5358
  622MOL0     C83860   7.946   8.917   6.159  0.1304 -1.2736 -0.5367
  622MOL0     C83861   8.021   9.026   6.113 -0.5213  0.8994  0.4547
  622MOL0     C83862   8.134   9.076   6.184 -0.4756 -0.4656  0.0768
  622MOL0     C83863   8.171   9.015   6.303  0.8225  0.2217  0.1116
  622MOL0     C83864   8.304   9.050   6.376  0.0719  0.7126 -0.3113
  622MOL0     O83865   8.372   9.162   6.335  0.5471  0.0443  0.2928
  622MOL0     C83866   8.481   9.214   6.394  0.0733  0.1709  0.5366
  622MOL0     C83867   8.549   9.303   6.310 -0.1541 -0.5107 -0.7320
  622MOL0     C83868   8.655   9.375   6.363 -0.3391 -0.0050  0.1631
  622MOL0     C83869   8.686   9.368   6.499  1.4663  0.2278 -0.4928
  622MOL0     O83870   8.773   9.442   6.566 -0.4712  1.1397 -0.2523
  622MOL0     C83871   8.848   9.539   6.496 -0.4225  0.2349  0.2538
  622MOL0     C83872   8.936   9.617   6.596  1.3148  0.3092 -0.4298
  622MOL0     C83873   9.043   9.526   6.662  0.2171  0.8768  0.3712
  622MOL0     C83874   9.147   9.483   6.561 -0.1171  0.7777  0.8256
  622MOL0     C83875   9.267   9.399   6.618  1.0632 -0.2062  0.2752
  622MOL0     C83876   9.339   9.491   6.721 -0.2663  0.4514  0.4309
  622MOL0     C83877   9.483   9.431   6.709  0.0914  0.0020  0.2916
  622MOL0     C83878   9.578   9.517   6.787 -0.5560  0.3458  0.3354
  622MOL0    Cl83879   9.622   9.674   6.713 -0.4421 -0.5136 -0.1315
  622MOL0     C83880   8.611   9.290   6.582  0.2168 -0.5217  0.6065
  622MOL0     C83881   8.513   9.206   6.529 -0.0211 -0.3106  0.5009
  622MOL0     O83882   8.337   8.978   6.467  0.0965 -0.1226 -0.7440
  622MOL0     C83883   8.081   8.919   6.363  0.4273  0.1779  0.0037
  622MOL0     C83884   7.977   8.861   6.283 -0.1261  1.1058 -0.1997
  622MOL0     N83885   7.164   8.840   5.986  0.0594  0.4470  0.1229
  622MOL0     N83886   7.046   8.829   6.039 -0.7801 -0.0787  0.4501
  622MOL0     C83887   5.974   8.661   5.974  0.3614  0.1559 -0.2332
  622MOL0     C83888   5.858   8.731   5.930  0.3015  0.2420 -0.2737
  622MOL0     C83889   5.552   8.912   5.652 -0.1734  0.0957  0.4455
  622MOL0     C83890   5.482   8.948   5.766 -0.1300  0.2066 -0.1299
  622MOL0     C83891   5.343   8.968   5.757 -0.1385  0.0327 -0.3453
  622MOL0     C83892   5.276   8.956   5.637  1.3155 -0.8429 -0.8470
  622MOL0     O83893   5.137   8.975   5.630 -0.0627 -0.5677 -0.2047
  622MOL0     C83894   5.051   8.985   5.739 -0.3990 -0.2695  0.5978
  622MOL0     C83895   4.900   8.986   5.697  0.1456  0.4091 -0.3670
  622MOL0     C83896   4.794   8.963   5.813  0.2188 -0.2269 -0.7874
  622MOL0     C83897   4.650   8.947   5.751  0.4339  0.9199 -0.4810
  622MOL0     C83898   4.575   9.071   5.727 -0.1409 -0.2356 -0.2073
  622MOL0     C83899   4.523   9.180   5.703  0.8968  0.6666 -0.0822
  622MOL0     C83900   5.346   8.927   5.524 -0.4606 -0.8055  0.1939
  622MOL0     C83901   5.481   8.907   5.527 -0.4905 -0.5438 -0.0626
  622MOL0     C83902   5.540   8.885   5.389  0.2483 -0.3721  0.1933
  622MOL0     H83903   6.004   8.914   5.672 -2.5698 -1.1453 -0.8113
  622MOL0     H83904   6.198   8.789   5.733  0.5831 -3.3758 -0.7662
  622MOL0     H83905   6.253   8.623   6.124 -2.7049  0.9244 -0.2403
  622MOL0     H83906   6.148   8.481   6.083 -2.9172  3.7565 -0.7025
  622MOL0     H83907   6.426   8.548   5.997 -0.2477  1.1428  1.1050
  622MOL0     H83908   6.367   8.394   5.971 -0.1804  0.7691 -1.4384
  622MOL0     H83909   6.332   8.381   6.239 -3.1071  1.2707 -2.3285
  622MOL0     H83910   6.440   8.518   6.239 -2.4527  0.6612 -0.1491
  622MOL0     H83911   6.560   8.321   6.274  2.6655  1.1752 -0.2243
  622MOL0     H83912   6.510   8.257   6.111  0.2513  2.3071 -3.2512
  622MOL0     H83913   6.734   8.336   6.134  0.1845  1.2816  0.7972
  622MOL0     H83914   6.645   8.436   6.006 -1.2146  1.2816  0.7256
  622MOL0     H83915   6.667   8.629   6.172 -0.4227 -0.2236 -2.3286
  622MOL0     H83916   6.737   8.517   6.295 -1.4014  2.1078  0.9725
  622MOL0     H83917   6.851   8.602   6.025 -0.3805  0.1650  0.6239
  622MOL0     H83918   6.933   8.483   6.122  2.6277  1.2960 -0.4108
  622MOL0     H83919   6.864   8.767   6.193 -0.8531 -0.0341 -3.1068
  622MOL0     H83920   6.948   8.647   6.301 -1.4633 -0.2822 -0.3349
  622MOL0     H83921   7.218   8.599   6.196 -0.9025 -0.5697 -0.4367
  622MOL0     H83922   7.435   8.649   6.032 -1.0928 -0.4307  3.9573
  622MOL0     H83923   7.400   8.758   5.904 -0.0934 -0.5786  0.0228
  622MOL0     H83924   7.436   8.941   6.085  2.3504  0.0655 -1.3898
  622MOL0     H83925   7.469   8.806   6.205  1.7056 -2.4998 -1.0292
  622MOL0     H83926   7.615   8.897   5.946 -1.1741 -1.4540  0.2868
  622MOL0     H83927   7.663   8.748   6.030  0.8221 -0.1410  1.0105
  622MOL0     H83928   7.701   8.895   6.235 -2.2109  0.1526 -0.2487
  622MOL0     H83929   7.687   9.026   6.116  0.7352 -0.1611  1.7765
  622MOL0     H83930   8.011   9.064   6.012 -0.8071 -0.3338  0.0020
  622MOL0     H83931   8.196   9.159   6.153  0.0577  0.7492  3.9740
  622MOL0     H83932   8.524   9.305   6.204 -1.2715  0.3774 -0.4701
  622MOL0     H83933   8.703   9.444   6.294 -1.7851  2.2999  1.3177
  622MOL0     H83934   8.904   9.486   6.419 -0.6295 -2.4258  1.8157
  622MOL0     H83935   8.782   9.612   6.448 -0.3222  0.4436  0.4325
  622MOL0     H83936   8.985   9.702   6.549  0.9693  2.0958  2.2076
  622MOL0     H83937   8.869   9.660   6.672  1.3568 -2.0459  1.0432
  622MOL0     H83938   9.098   9.583   6.737  1.7232  2.8315 -2.0622
  622MOL0     H83939   8.996   9.441   6.713  0.0497  1.4919  1.2533
  622MOL0     H83940   9.197   9.565   6.508  2.3931 -0.6340  0.8342
  622MOL0     H83941   9.101   9.417   6.487 -0.2376  0.8602  0.8265
  622MOL0     H83942   9.333   9.367   6.537 -0.9095 -3.2558 -0.3151
  622MOL0     H83943   9.231   9.308   6.667 -1.8932 -0.3958 -1.9179
  622MOL0     H83944   9.337   9.596   6.689 -0.4776 -0.1291 -1.6340
  622MOL0     H83945   9.308   9.492   6.825 -1.1044  3.2032  0.2457
  622MOL0     H83946   9.522   9.425   6.607  0.5267  0.5249  0.4221
  622MOL0     H83947   9.472   9.331   6.751 -1.5389  0.4061  0.8931
  622MOL0     H83948   9.533   9.526   6.886 -2.2060 -2.6006 -0.0243
  622MOL0     H83949   9.670   9.459   6.795  0.5235  1.7795 -0.9769
  622MOL0     H83950   8.646   9.281   6.685  2.5301 -0.4056 -0.1068
  622MOL0     H83951   8.471   9.132   6.596  0.9835 -0.4181  1.0301
  622MOL0     H83952   8.096   8.876   6.461  0.7310  3.7421  1.6600
  622MOL0     H83953   7.928   8.769   6.312 -1.3423  1.5351 -0.7749
  622MOL0     H83954   5.967   8.573   6.036 -1.3915 -1.2728 -2.3059
  622MOL0     H83955   5.757   8.700   5.956 -0.7945  3.6855  0.1814
  622MOL0     H83956   5.533   8.947   5.862  3.1351 -2.5296 -1.7038
  622MOL0     H83957   5.292   8.978   5.853  0.2053  0.0740 -0.1661
  622MOL0     H83958   5.070   9.081   5.788 -0.2519 -0.2904  0.5840
  622MOL0     H83959   5.072   8.900   5.804 -1.8250 -1.2701 -0.2034
  622MOL0     H83960   4.884   8.913   5.617 -1.5518  1.6645 -1.2498
  622MOL0     H83961   4.879   9.084   5.653 -0.8739  0.0704 -0.6845
  622MOL0     H83962   4.796   9.046   5.885 -0.6482 -0.3746 -0.5824
  622MOL0     H83963   4.813   8.874   5.874 -0.0263  1.6726  2.3047
  622MOL0     H83964   4.679   8.900   5.656 -0.2642  2.0670 -1.2825
  622MOL0     H83965   4.581   8.884   5.808  1.6107  1.4717  1.6568
  622MOL0     H83966   4.462   9.268   5.700  2.6996  2.1467  2.4378
  622MOL0     H83967   5.291   8.903   5.434 -1.7860 -0.8627  0.9796
  622MOL0     H83968   5.457   8.873   5.319  0.3245 -3.8105  0.5096
  622MOL0     H83969   5.592   8.969   5.342 -0.2807 -0.0594  0.1568
  622MOL0     H83970   5.599   8.793   5.385 -0.8135 -1.0497 -2.6378
  623MOL0     O83971   8.927   6.367   7.084 -0.1051  0.2229 -0.4015
  623MOL0     C83972   8.908   6.245   7.096  0.4141  0.1223 -0.0177
  623MOL0     O83973   8.987   6.150   7.052  0.2806 -0.3002 -0.2292
  623MOL0     C83974   9.107   6.184   7.005  0.2333 -0.3450  0.1158
  623MOL0     C83975   9.217   6.121   7.074  0.3333 -0.3760 -0.2160
  623MOL0     C83976   9.348   6.133   7.029 -0.1572 -0.7142  0.0913
  623MOL0     C83977   9.370   6.210   6.911  0.4127  0.3374 -0.5837
  623MOL0     O83978   9.493   6.239   6.860 -0.6581 -0.3900  0.2593
  623MOL0     C83979   9.605   6.162   6.904  0.5260  0.8724 -0.0264
  623MOL0     C83980   9.736   6.204   6.830  0.1585 -0.2778 -0.2241
  623MOL0     C83981   9.853   6.133   6.895 -0.0188 -0.3451 -0.9026
  623MOL0     C83982   9.985   6.149   6.829  0.5425 -0.2634 -0.1239
  623MOL0     C83983  10.104   6.089   6.901 -0.0152  1.0586 -0.9078
  623MOL0     C83984  10.092   5.940   6.949 -0.2107 -0.1763  0.1856
  623MOL0     C83985  10.224   5.886   7.019  0.6790  0.1390  0.0185
  623MOL0     C83986  10.260   5.973   7.139 -0.5593 -0.0937  0.3615
  623MOL0     N83987  10.344   5.904   7.240  0.2847  0.2150 -0.5688
  623MOL0     C83988  10.466   5.833   7.216  0.4058  0.3868  0.0752
  623MOL0     C83989  10.501   5.792   7.339  1.0763  0.8605 -0.8676
  623MOL0     C83990  10.630   5.732   7.374 -0.3986  0.7988  0.1354
  623MOL0     C83991  10.733   5.822   7.428 -0.9089 -0.4861 -0.1000
  623MOL0     C83992  10.855   5.748   7.482 -0.0530 -0.1270 -0.0442
  623MOL0     C83993  10.956   5.848   7.548 -0.1807  0.0274 -0.4526
  623MOL0     O83994  11.077   5.770   7.566 -0.4015 -0.0502 -0.2724
  623MOL0     C83995  11.186   5.824   7.640  0.7997 -0.3216 -0.5678
  623MOL0     C83996  11.274   5.732   7.697  0.2594  1.1159 -0.1612
  623MOL0     C83997  11.373   5.780   7.788  0.4049  0.2006 -0.5921
  623MOL0     C83998  11.387   5.923   7.801 -0.3629  0.3205 -0.0104
  623MOL0     C83999  11.508   5.983   7.874  0.2691 -0.0946  0.0415
  623MOL0     O84000  11.619   5.916   7.871 -0.1890 -0.2886  0.0720
  623MOL0     C84001  11.733   5.960   7.936 -0.4126 -0.6162 -0.2401
  623MOL0     C84002  11.770   6.086   7.990  0.4071  0.1704 -0.6086
  623MOL0     C84003  11.893   6.099   8.048  0.1140  0.5481 -0.1096
  623MOL0     C84004  11.983   5.998   8.058 -0.2300 -0.1554  0.3317
  623MOL0     O84005  12.105   5.995   8.119 -0.4864 -0.0508 -0.5066
  623MOL0     C84006  12.173   6.118   8.139  0.7571  0.8580 -1.2658
  623MOL0     C84007  12.141   6.177   8.280 -0.0997 -0.2159 -0.0719
  623MOL0     C84008  12.153   6.080   8.401  0.3913  0.2061 -0.4137
  623MOL0     C84009  12.277   5.987   8.401  0.1113 -0.6597 -0.0978
  623MOL0     C84010  12.283   5.904   8.531 -0.2921  0.2257  0.5498
  623MOL0     C84011  12.383   5.785   8.519 -0.5074  0.2828 -0.2653
  623MOL0     C84012  12.365   5.689   8.631 -0.3126 -0.0774 -0.0020
  623MOL0     C84013  12.450   5.568   8.611 -0.2317 -0.3297 -0.3331
  623MOL0    Cl84014  12.466   5.468   8.765  0.3446  0.1737  0.0847
  623MOL0     C84015  11.954   5.870   8.011  0.1338  0.3918 -0.6810
  623MOL0     C84016  11.831   5.849   7.945  0.0197 -0.2182  0.0688
  623MOL0     O84017  11.491   6.095   7.917  0.0650  0.1816  0.1529
  623MOL0     C84018  11.297   6.014   7.744  0.3944  0.7258  0.4299
  623MOL0     C84019  11.189   5.964   7.671  0.2681 -0.3426  0.5707
  623MOL0     N84020  10.414   5.838   7.439 -0.3161 -0.1961 -0.0761
  623MOL0     N84021  10.333   5.915   7.373  0.0062  0.5329  0.0842
  623MOL0     C84022   9.266   6.283   6.859 -0.1246  0.4324  0.3668
  623MOL0     C84023   9.134   6.269   6.898 -0.4344  0.2025  0.7023
  623MOL0     C84024   8.777   6.208   7.161 -0.2251  0.4385  0.5696
  623MOL0     C84025   8.730   6.069   7.145 -0.2883 -0.5117 -0.3550
  623MOL0     C84026   8.598   6.031   7.183  1.4587 -0.5519  0.2586
  623MOL0     C84027   8.522   6.124   7.256 -0.6707  0.0042 -0.4055
  623MOL0     O84028   8.398   6.113   7.291  1.0209  0.3331 -0.0697
  623MOL0     C84029   8.340   5.981   7.308  0.1629 -1.0693  0.1026
  623MOL0     C84030   8.237   5.985   7.410 -0.9822 -0.3599 -0.9008
  623MOL0     C84031   8.122   6.077   7.382  1.3318 -0.0851 -0.1375
  623MOL0     C84032   8.026   6.077   7.506  0.3336  0.3619 -0.3160
  623MOL0     C84033   8.091   6.120   7.634  0.1263 -0.1259 -0.0536
  623MOL0     C84034   8.139   6.153   7.743  0.5632  0.6958 -0.4334
  623MOL0     C84035   8.576   6.250   7.273  1.0183  0.2678 -0.3375
  623MOL0     C84036   8.704   6.293   7.241  0.6827 -0.1722  0.1554
  623MOL0     C84037   8.746   6.435   7.268  0.0830 -0.2329 -0.4316
  623MOL0     H84038   9.194   6.053   7.156 -1.2961 -0.3148 -0.5872
  623MOL0     H84039   9.424   6.077   7.083  1.7166  1.8079  0.2287
  623MOL0     H84040   9.613   6.175   7.012 -2.6945 -0.1775  0.4233
  623MOL0     H84041   9.588   6.055   6.889  0.1138  1.0389 -0.8162
  623MOL0     H84042   9.757   6.311   6.830  0.7259 -0.2970  2.7908
  623MOL0     H84043   9.727   6.173   6.726  0.8189 -0.2149 -0.3020
  623MOL0     H84044   9.831   6.025   6.892 -1.5789 -0.0721 -0.5055
  623MOL0     H84045   9.870   6.159   7.000 -1.0256 -0.3689 -0.7163
  623MOL0     H84046   9.988   6.110   6.727  0.4204  2.5993 -1.3236
  623MOL0     H84047  10.004   6.255   6.811  0.0439 -0.1344  0.0703
  623MOL0     H84048  10.193   6.094   6.837 -0.9959 -3.0073 -2.9680
  623MOL0     H84049  10.119   6.144   6.994 -1.2402 -0.1904  0.0641
  623MOL0     H84050  10.005   5.926   7.013  0.6631 -3.4955  0.8661
  623MOL0     H84051  10.080   5.887   6.854 -3.6248 -0.5491  0.6819
  623MOL0     H84052  10.307   5.897   6.949 -0.5161  1.1338 -1.2965
  623MOL0     H84053  10.207   5.784   7.055 -2.2995  1.1979  1.9885
  623MOL0     H84054  10.316   6.057   7.099 -1.0553 -0.4110 -1.0436
  623MOL0     H84055  10.169   6.014   7.184  0.8938  0.7214  2.7618
  623MOL0     H84056  10.516   5.833   7.119  1.9937  0.6784  0.8591
  623MOL0     H84057  10.615   5.652   7.447  1.4645 -0.9990 -1.3223
  623MOL0     H84058  10.674   5.683   7.286  3.1839 -0.8058  2.5988
  623MOL0     H84059  10.756   5.892   7.347 -4.4688  0.0018 -0.8892
  623MOL0     H84060  10.687   5.893   7.498  1.7694  2.3322 -0.9987
  623MOL0     H84061  10.915   5.703   7.403  2.7741  0.0652  1.8223
  623MOL0     H84062  10.823   5.669   7.551  2.6073 -2.6629 -1.4838
  623MOL0     H84063  10.914   5.880   7.644  0.8081 -0.2885  0.0938
  623MOL0     H84064  10.974   5.929   7.477  1.1522  1.2859  1.2431
  623MOL0     H84065  11.250   5.629   7.670  0.1819  1.0570  0.1327
  623MOL0     H84066  11.444   5.713   7.835 -0.5978 -0.8486 -0.5499
  623MOL0     H84067  11.712   6.178   7.982  0.2101 -0.0118 -1.3502
  623MOL0     H84068  11.935   6.190   8.091 -4.5806  1.3166  3.7260
  623MOL0     H84069  12.282   6.102   8.136  0.8843  1.6674 -1.3304
  623MOL0     H84070  12.141   6.201   8.076 -1.2359  1.8084  0.8811
  623MOL0     H84071  12.215   6.252   8.311  1.2255 -1.0266 -1.1571
  623MOL0     H84072  12.052   6.238   8.295 -0.8448 -1.4580  0.7038
  623MOL0     H84073  12.152   6.139   8.493  3.9453 -1.6543  1.0289
  623MOL0     H84074  12.065   6.016   8.391 -0.7982  1.2613  2.3340
  623MOL0     H84075  12.370   6.038   8.375 -1.5854  1.5543 -2.2874
  623MOL0     H84076  12.258   5.920   8.316 -1.0794  0.6893 -0.9361
  623MOL0     H84077  12.185   5.857   8.546  1.1628 -3.5675 -0.4979
  623MOL0     H84078  12.306   5.966   8.618  1.3936 -2.0037  1.8128
  623MOL0     H84079  12.352   5.733   8.428 -2.9449  0.9721  0.0959
  623MOL0     H84080  12.484   5.827   8.513  0.0849 -1.2079 -1.2257
  623MOL0     H84081  12.263   5.650   8.631 -0.9787  1.4523 -2.2242
  623MOL0     H84082  12.385   5.737   8.727  1.3328 -0.0722 -0.3079
  623MOL0     H84083  12.412   5.509   8.528  4.2581 -2.0126 -1.4514
  623MOL0     H84084  12.553   5.582   8.576 -0.2995 -1.0918 -0.8459
  623MOL0     H84085  12.023   5.787   8.021 -1.0942 -0.9622 -2.6631
  623MOL0     H84086  11.819   5.753   7.898  0.8410  0.1692 -0.9689
  623MOL0     H84087  11.278   6.115   7.778 -3.5680 -1.3648  6.2158
  623MOL0     H84088  11.125   6.036   7.621  2.1392  2.4247  1.9278
  623MOL0     H84089   9.280   6.351   6.775 -0.3568 -1.4583 -1.2724
  623MOL0     H84090   9.052   6.318   6.846 -0.9707 -1.2744  0.1091
  623MOL0     H84091   8.781   5.988   7.094  2.1694 -0.0159  1.1595
  623MOL0     H84092   8.574   5.926   7.168 -0.2031 -0.2547  0.6019
  623MOL0     H84093   8.418   5.910   7.336  1.7185  0.9433  1.0610
  623MOL0     H84094   8.287   5.958   7.215 -1.8317  0.0558  0.8876
  623MOL0     H84095   8.292   6.017   7.500 -2.6677  2.8669 -0.8876
  623MOL0     H84096   8.211   5.882   7.436  0.6170 -0.6426 -0.3008
  623MOL0     H84097   8.065   6.046   7.294 -0.6659  2.1778  0.2467
  623MOL0     H84098   8.161   6.179   7.372  0.6611 -0.0085 -2.4531
  623MOL0     H84099   7.933   6.132   7.493  0.2522 -0.1404 -2.0028
  623MOL0     H84100   7.985   5.977   7.525 -0.3410  0.8447  0.8777
  623MOL0     H84101   8.180   6.186   7.837 -0.9266 -0.0446  0.5284
  623MOL0     H84102   8.506   6.309   7.331 -1.2483 -0.6505 -1.9565
  623MOL0     H84103   8.745   6.490   7.174  3.2498 -3.9803 -2.9695
  623MOL0     H84104   8.671   6.481   7.333 -1.1213 -2.6308  0.0008
  623MOL0     H84105   8.846   6.441   7.311  0.1493 -1.9802 -0.2969
  624MOL0     O84106  10.957   0.900   0.861  0.8935 -0.4794 -0.3692
  624MOL0     C84107  10.889   0.988   0.916 -0.4618  0.3974 -0.6493
  624MOL0     O84108  10.926   1.063   1.019  0.1888 -0.8401 -0.0452
  624MOL0     C84109  11.059   1.054   1.054  0.6959  0.2199 -0.2162
  624MOL0     C84110  11.091   0.949   1.138 -0.3869  0.1610  0.2158
  624MOL0     C84111  11.226   0.937   1.181 -0.1414 -0.7340 -0.0504
  624MOL0     C84112  11.315   1.048   1.160 -0.1860 -0.2443  0.7813
  624MOL0     O84113  11.442   1.073   1.207  0.0987 -0.0382 -0.6004
  624MOL0     C84114  11.492   0.999   1.326  0.8039 -1.5886  0.5103
  624MOL0     C84115  11.548   0.859   1.297  0.3663 -0.6914  0.7753
  624MOL0     C84116  11.635   0.794   1.410 -0.5207  0.5288  0.3091
  624MOL0     C84117  11.772   0.871   1.409  0.3096  0.8519  0.1999
  624MOL0     C84118  11.858   0.819   1.531 -0.3482 -0.2857  0.0495
  624MOL0     C84119  11.996   0.886   1.545 -0.8829  0.4742  0.6840
  624MOL0     C84120  12.099   0.845   1.439  0.7404  0.1405 -0.2517
  624MOL0     C84121  12.229   0.928   1.459 -0.2141  0.5713 -0.5979
  624MOL0     N84122  12.343   0.894   1.369  0.0227 -0.0283 -0.6616
  624MOL0     C84123  12.471   0.914   1.399  0.1429  0.2928 -0.2572
  624MOL0     C84124  12.547   0.863   1.294 -0.3679 -0.3710 -0.5855
  624MOL0     C84125  12.697   0.851   1.273 -0.6904 -0.5419 -0.2310
  624MOL0     C84126  12.755   0.834   1.135 -0.6790 -0.4527  0.2489
  624MOL0     C84127  12.814   0.969   1.082  0.3716 -0.8015 -0.8654
  624MOL0     C84128  12.906   0.946   0.957 -0.5611 -0.8408 -0.4196
  624MOL0     O84129  12.991   1.056   0.923  0.4004 -0.3654  0.0260
  624MOL0     C84130  13.118   1.077   0.973 -0.0860  0.5874  0.2914
  624MOL0     C84131  13.165   1.014   1.089  0.2049  0.0841  1.2098
  624MOL0     C84132  13.292   1.012   1.125 -0.5870 -0.1563  0.1642
  624MOL0     C84133  13.379   1.090   1.046 -0.7149 -1.3804  0.3912
  624MOL0     C84134  13.525   1.097   1.072  0.0652 -0.3791  0.8863
  624MOL0     O84135  13.588   1.207   1.022 -0.0407 -1.3979 -0.4665
  624MOL0     C84136  13.724   1.226   1.022 -0.1616  0.6549 -0.4138
  624MOL0     C84137  13.827   1.127   1.028  0.4983 -0.3615  0.7853
  624MOL0     C84138  13.959   1.164   1.051  0.9221 -0.4030 -0.4828
  624MOL0     C84139  13.997   1.291   1.051 -0.2379 -0.1935  0.2947
  624MOL0     O84140  14.127   1.342   1.065  0.3092 -0.1302  0.4811
  624MOL0     C84141  14.235   1.246   1.088  0.5390 -0.4551 -0.3260
  624MOL0     C84142  14.377   1.306   1.069 -0.1856 -0.4820 -0.8453
  624MOL0     C84143  14.410   1.419   1.177  0.6854  0.4470  0.4262
  624MOL0     C84144  14.555   1.475   1.181  0.5448  0.7100  0.6262
  624MOL0     C84145  14.563   1.595   1.271  0.0948 -1.1295  0.0338
  624MOL0     C84146  14.696   1.670   1.246  0.6157  0.5420 -0.0449
  624MOL0     C84147  14.729   1.773   1.357  1.0343 -0.1653 -0.7856
  624MOL0     C84148  14.638   1.898   1.380 -0.3189 -0.1791 -0.2215
  624MOL0    Cl84149  14.740   1.998   1.493  0.1228  0.3280 -0.0595
  624MOL0     C84150  13.902   1.392   1.037 -0.4350 -0.4669 -0.5747
  624MOL0     C84151  13.767   1.354   1.020  0.2941 -0.3226  0.5504
  624MOL0     O84152  13.575   1.003   1.136  0.9875 -0.1603  0.5376
  624MOL0     C84153  13.329   1.174   0.942 -0.6832  0.1271 -0.9259
  624MOL0     C84154  13.199   1.171   0.900  0.3382  0.0940 -0.2822
  624MOL0     N84155  12.457   0.795   1.212 -0.8204 -0.0853  0.1192
  624MOL0     N84156  12.340   0.815   1.265  0.0951  0.1487 -0.1673
  624MOL0     C84157  11.275   1.154   1.080  0.1444  1.2867 -0.4308
  624MOL0     C84158  11.147   1.157   1.028 -0.0833 -0.2854 -0.1214
  624MOL0     C84159  10.770   1.021   0.845  0.1905 -0.8095  1.1297
  624MOL0     C84160  10.766   1.045   0.699 -0.2934  0.3804 -1.3629
  624MOL0     C84161  10.653   1.085   0.632 -0.8281  0.2762 -0.1257
  624MOL0     C84162  10.531   1.099   0.709  0.2746  0.2829 -0.7111
  624MOL0     O84163  10.424   1.133   0.636 -0.0236 -0.1371  0.5796
  624MOL0     C84164  10.297   1.177   0.684  0.5289 -0.2459 -0.4695
  624MOL0     C84165  10.289   1.318   0.740 -0.3399  0.5352 -0.9559
  624MOL0     C84166  10.310   1.423   0.638 -0.6934  0.0546  1.0314
  624MOL0     C84167  10.323   1.559   0.690  0.3990 -0.6137  0.1120
  624MOL0     C84168  10.210   1.605   0.767 -0.7794 -0.1362  0.0548
  624MOL0     C84169  10.131   1.664   0.835 -0.3178 -0.4342  0.3222
  624MOL0     C84170  10.528   1.086   0.849 -0.3077  0.2608  0.2279
  624MOL0     C84171  10.644   1.032   0.916 -0.4387 -0.5263 -0.6489
  624MOL0     C84172  10.622   0.989   1.055  0.1723 -0.4228 -0.1134
  624MOL0     H84173  11.020   0.870   1.161 -0.0433 -0.1047  0.3836
  624MOL0     H84174  11.262   0.851   1.237  2.0309  1.0446  1.4818
  624MOL0     H84175  11.570   1.058   1.373  0.2942 -1.5967  1.3999
  624MOL0     H84176  11.413   1.014   1.400 -2.3706  1.9794 -3.0876
  624MOL0     H84177  11.624   0.876   1.221 -0.0249 -1.4770  0.1957
  624MOL0     H84178  11.472   0.789   1.262 -2.5573  1.8607  1.5026
  624MOL0     H84179  11.648   0.687   1.392  0.6945  0.6154  0.5862
  624MOL0     H84180  11.597   0.820   1.509  1.0590  0.0480  1.0870
  624MOL0     H84181  11.828   0.850   1.318 -1.4591  1.8906 -1.1828
  624MOL0     H84182  11.762   0.980   1.414  0.0933  0.8911 -0.9550
  624MOL0     H84183  11.798   0.839   1.621 -1.5340  0.1674 -0.8153
  624MOL0     H84184  11.875   0.711   1.533 -3.3360 -0.9248 -2.1263
  624MOL0     H84185  11.975   0.993   1.539 -5.3259 -0.2428 -0.0549
  624MOL0     H84186  12.042   0.868   1.642  1.9762 -0.2194 -0.6969
  624MOL0     H84187  12.070   0.855   1.334 -1.5978 -1.1823  0.2050
  624MOL0     H84188  12.116   0.743   1.473 -1.0067 -0.5541 -1.3388
  624MOL0     H84189  12.211   1.036   1.467 -1.4462  0.2935  1.0067
  624MOL0     H84190  12.268   0.900   1.557 -3.0107  1.4888  0.9015
  624MOL0     H84191  12.515   0.964   1.484 -2.6388  0.6304  1.1007
  624MOL0     H84192  12.725   0.947   1.318 -2.7259 -0.3961  0.8677
  624MOL0     H84193  12.720   0.769   1.342 -1.3884 -2.0156 -1.6912
  624MOL0     H84194  12.839   0.764   1.134  0.6868  1.1201  0.0346
  624MOL0     H84195  12.676   0.794   1.071  0.7536  1.2216 -2.7507
  624MOL0     H84196  12.876   1.022   1.155  0.6480  0.2712 -1.8389
  624MOL0     H84197  12.734   1.039   1.056  0.3456 -0.1678  0.8048
  624MOL0     H84198  12.842   0.923   0.871  0.1156 -0.6209 -0.9952
  624MOL0     H84199  12.965   0.856   0.977 -1.5137 -2.4527 -4.0161
  624MOL0     H84200  13.089   0.956   1.141  1.5589 -0.6349  2.4893
  624MOL0     H84201  13.314   0.931   1.193 -1.9309 -0.2276  0.5562
  624MOL0     H84202  13.821   1.019   1.013  1.2896 -1.2716  5.4978
  624MOL0     H84203  14.030   1.083   1.057  2.7443  1.0321 -1.6385
  624MOL0     H84204  14.222   1.200   1.186 -1.1993 -0.4381 -0.5174
  624MOL0     H84205  14.225   1.167   1.013  0.0869 -0.5606 -0.1521
  624MOL0     H84206  14.450   1.225   1.082 -1.4174 -1.5815 -0.5650
  624MOL0     H84207  14.389   1.349   0.970  2.1032  0.7395 -0.1147
  624MOL0     H84208  14.339   1.500   1.158 -3.5548 -2.7547  1.0403
  624MOL0     H84209  14.385   1.373   1.273 -1.8850 -0.3493 -0.5177
  624MOL0     H84210  14.588   1.509   1.082  0.0005  0.9968  0.5348
  624MOL0     H84211  14.622   1.395   1.210  1.7184  2.3821  2.7594
  624MOL0     H84212  14.555   1.558   1.373 -1.0481 -0.9857  0.0113
  624MOL0     H84213  14.477   1.660   1.252 -0.2766  0.2378  5.0098
  624MOL0     H84214  14.782   1.603   1.238  0.5348  0.3169  0.7886
  624MOL0     H84215  14.692   1.716   1.147  0.6166 -1.3610 -0.9802
  624MOL0     H84216  14.829   1.809   1.329  1.7010 -2.7204 -1.9559
  624MOL0     H84217  14.755   1.721   1.449 -1.9495 -0.7478 -0.1785
  624MOL0     H84218  14.632   1.952   1.286 -4.3266  1.4190  0.7816
  624MOL0     H84219  14.535   1.887   1.415  0.0169  1.1563  1.2623
  624MOL0     H84220  13.934   1.495   1.040  1.1931 -0.9543  1.8407
  624MOL0     H84221  13.690   1.428   1.000  2.5882  1.7949 -0.9480
  624MOL0     H84222  13.407   1.233   0.895  1.3741 -1.2814  0.5171
  624MOL0     H84223  13.180   1.236   0.816  1.3319  0.4955 -0.2053
  624MOL0     H84224  11.336   1.242   1.066 -1.3411  2.6806  1.1864
  624MOL0     H84225  11.096   1.244   0.987 -1.7877 -0.8216  0.7648
  624MOL0     H84226  10.858   1.034   0.643  1.4919 -2.4996  1.8014
  624MOL0     H84227  10.650   1.121   0.530 -1.1834 -0.7529 -0.4953
  624MOL0     H84228  10.265   1.111   0.765 -0.5812  0.8208 -0.0006
  624MOL0     H84229  10.225   1.173   0.601 -2.5902  2.4558  1.7955
  624MOL0     H84230  10.371   1.322   0.812 -2.2114  1.1228  1.2765
  624MOL0     H84231  10.195   1.332   0.794 -0.4053  0.0812 -0.9496
  624MOL0     H84232  10.225   1.412   0.569  1.9427  0.3917 -2.6042
  624MOL0     H84233  10.393   1.386   0.577 -1.2304  0.2562  0.1558
  624MOL0     H84234  10.412   1.565   0.754  1.7536  3.3821 -1.7891
  624MOL0     H84235  10.337   1.634   0.612  1.3453 -0.9843 -0.0948
  624MOL0     H84236  10.051   1.710   0.891  0.4292  2.2775 -0.6806
  624MOL0     H84237  10.437   1.108   0.904 -0.9940  0.8528 -1.1115
  624MOL0     H84238  10.661   0.888   1.071 -1.6177 -1.0814  0.3755
  624MOL0     H84239  10.677   1.052   1.127  2.7736 -2.3483 -0.2581
  624MOL0     H84240  10.516   0.991   1.082  0.3698  3.0404  0.8964
  625MOL0     O84241   5.907   2.015   8.762  0.7745 -0.2273  0.0098
  625MOL0     C84242   5.904   2.074   8.870 -0.2900 -1.0418 -0.4908
  625MOL0     O84243   5.976   2.042   8.982 -0.3589  0.0271  0.0049
  625MOL0     C84244   6.103   1.986   8.986  0.0721 -0.1804  0.2401
  625MOL0     C84245   6.185   1.998   9.099  0.5553 -0.4313  0.4733
  625MOL0     C84246   6.323   1.962   9.091  0.7261 -0.4863  0.2663
  625MOL0     C84247   6.379   1.912   8.972 -0.5416  0.9816 -0.8790
  625MOL0     O84248   6.506   1.871   8.954  0.0790  0.2264 -0.1280
  625MOL0     C84249   6.593   1.834   9.061 -0.7588 -0.0203 -0.4091
  625MOL0     C84250   6.699   1.736   9.011  0.0035  0.2787  1.0566
  625MOL0     C84251   6.791   1.688   9.124  1.4792 -0.6655  0.2330
  625MOL0     C84252   6.892   1.587   9.061 -0.1215  1.1521 -0.0086
  625MOL0     C84253   6.960   1.491   9.154  0.2850 -0.6249 -0.6027
  625MOL0     C84254   7.060   1.559   9.252  0.1356 -0.0650  0.5696
  625MOL0     C84255   7.182   1.619   9.175 -0.0134 -0.1827 -0.2555
  625MOL0     C84256   7.271   1.515   9.113  0.4641  0.4071  0.3036
  625MOL0     N84257   7.391   1.571   9.050 -0.6583  0.2322 -0.3496
  625MOL0     C84258   7.520   1.524   9.071 -0.7559 -0.2274 -0.5901
  625MOL0     C84259   7.606   1.612   9.006  0.2768  0.9829  1.0982
  625MOL0     C84260   7.758   1.614   9.006 -0.4558 -0.2372 -1.0449
  625MOL0     C84261   7.798   1.477   8.959  0.1952  1.0506  0.8829
  625MOL0     C84262   7.752   1.448   8.806 -0.0276  0.3382  0.2308
  625MOL0     C84263   7.840   1.520   8.704 -0.3219  0.5168 -0.9448
  625MOL0     O84264   7.964   1.460   8.719  0.3067 -0.3188  0.8925
  625MOL0     C84265   8.077   1.524   8.679 -0.4852  0.8682 -0.2610
  625MOL0     C84266   8.201   1.469   8.717 -0.9788  0.7102 -0.2083
  625MOL0     C84267   8.323   1.519   8.673 -0.2722 -0.5164  0.6460
  625MOL0     C84268   8.320   1.640   8.588  0.1544  0.0122 -0.1852
  625MOL0     C84269   8.448   1.709   8.554 -0.1616  0.2824 -0.2443
  625MOL0     O84270   8.448   1.839   8.501  0.0365 -0.0244 -0.4343
  625MOL0     C84271   8.566   1.893   8.442 -0.1272 -0.2670 -1.4070
  625MOL0     C84272   8.701   1.861   8.462  0.0470 -0.1467 -0.3444
  625MOL0     C84273   8.803   1.947   8.425 -0.6613 -0.2336  1.5043
  625MOL0     C84274   8.787   2.068   8.357  0.9469  0.2878  1.2521
  625MOL0     O84275   8.889   2.157   8.309  0.3823  0.3467  0.0393
  625MOL0     C84276   9.019   2.106   8.326  0.5033 -0.5404  0.9902
  625MOL0     C84277   9.106   2.202   8.250 -0.2732  0.7998  0.2983
  625MOL0     C84278   9.253   2.160   8.251  0.0131  0.4854 -1.0871
  625MOL0     C84279   9.352   2.277   8.245 -0.7578 -0.0478  0.5483
  625MOL0     C84280   9.501   2.236   8.265 -0.5010  0.6327 -0.2813
  625MOL0     C84281   9.606   2.321   8.198  0.3833  0.4317 -0.3038
  625MOL0     C84282   9.603   2.463   8.259 -0.2385  0.9917  0.1203
  625MOL0     C84283   9.735   2.527   8.268 -0.1805  0.8301 -0.5498
  625MOL0    Cl84284   9.789   2.534   8.096 -0.4265 -0.4548  0.0591
  625MOL0     C84285   8.653   2.092   8.322 -0.1031  0.0673  0.0517
  625MOL0     C84286   8.545   2.010   8.367 -0.1994 -1.3574  0.3478
  625MOL0     O84287   8.556   1.637   8.572  0.1046 -0.0455 -0.4909
  625MOL0     C84288   8.195   1.695   8.557  0.6888 -0.9710 -0.4503
  625MOL0     C84289   8.075   1.629   8.598 -1.1217 -0.1467 -0.4228
  625MOL0     N84290   7.526   1.693   8.933 -0.1223  0.5760 -0.3597
  625MOL0     N84291   7.398   1.670   8.964  0.1043 -0.3380 -0.2192
  625MOL0     C84292   6.296   1.892   8.865  0.0504 -0.9665  1.0034
  625MOL0     C84293   6.160   1.926   8.871  0.0021 -0.0393  0.1247
  625MOL0     C84294   5.802   2.174   8.892  0.0112  0.5353 -0.8789
  625MOL0     C84295   5.713   2.149   8.997  0.2775  0.9697 -0.5572
  625MOL0     C84296   5.596   2.219   9.009 -0.2498 -1.1586  0.0489
  625MOL0     C84297   5.564   2.322   8.919 -0.3627  0.2489  0.0784
  625MOL0     O84298   5.450   2.399   8.933 -0.4145 -0.0134  0.3505
  625MOL0     C84299   5.464   2.508   9.026  0.2693 -0.1801  0.7453
  625MOL0     C84300   5.543   2.633   8.967  0.3963 -0.0400 -0.5610
  625MOL0     C84301   5.678   2.644   9.029 -0.2595  0.4010 -0.1160
  625MOL0     C84302   5.762   2.747   8.946  0.5030  0.0020 -0.8371
  625MOL0     C84303   5.783   2.713   8.807 -0.4710  0.0652  0.4271
  625MOL0     C84304   5.804   2.685   8.693 -0.8882  0.3106 -0.4331
  625MOL0     C84305   5.648   2.340   8.811 -0.3387  0.2525  0.1857
  625MOL0     C84306   5.768   2.273   8.794 -0.5868 -0.4444 -0.3967
  625MOL0     C84307   5.850   2.307   8.673 -0.7608  0.6118  0.1528
  625MOL0     H84308   6.155   2.024   9.200 -2.1260  0.0652 -0.3734
  625MOL0     H84309   6.384   1.977   9.179  0.1827  1.0195  0.4143
  625MOL0     H84310   6.649   1.920   9.101 -0.2498 -0.8919  0.8371
  625MOL0     H84311   6.531   1.791   9.140  0.1941  0.4468  0.6303
  625MOL0     H84312   6.764   1.793   8.944  0.7747 -1.3501  0.3642
  625MOL0     H84313   6.654   1.652   8.958 -0.7160  0.5407  1.2503
  625MOL0     H84314   6.734   1.644   9.206 -2.5248 -0.0405 -1.9788
  625MOL0     H84315   6.847   1.773   9.166  1.4731 -0.9015  0.7232
  625MOL0     H84316   6.835   1.526   8.990  0.2317  1.6818 -0.7630
  625MOL0     H84317   6.974   1.638   9.009  1.6774  0.9527  2.4786
  625MOL0     H84318   6.873   1.459   9.213 -0.5498  1.4878 -0.5872
  625MOL0     H84319   7.015   1.406   9.112  1.4968  0.5016 -1.3677
  625MOL0     H84320   7.012   1.638   9.310 -1.6789 -0.0101 -0.9174
  625MOL0     H84321   7.092   1.480   9.320  3.2106  0.7180  0.2208
  625MOL0     H84322   7.238   1.678   9.248  0.0736 -3.6998  2.7600
  625MOL0     H84323   7.159   1.693   9.097  1.6807 -0.2997 -0.9169
  625MOL0     H84324   7.302   1.441   9.188  1.1340  0.8366  0.4625
  625MOL0     H84325   7.215   1.467   9.033 -0.1446  1.5955 -0.0027
  625MOL0     H84326   7.546   1.436   9.129  2.8919  0.1652 -1.4316
  625MOL0     H84327   7.793   1.683   8.928 -4.0201  2.8330 -0.1955
  625MOL0     H84328   7.800   1.648   9.102  1.1562  1.9950 -2.4410
  625MOL0     H84329   7.905   1.456   8.967  0.0609 -0.2587 -0.4280
  625MOL0     H84330   7.758   1.393   9.017 -4.3958  2.6552  0.5010
  625MOL0     H84331   7.648   1.479   8.796 -0.5010 -0.3823  2.3814
  625MOL0     H84332   7.765   1.342   8.783 -1.4796  0.0423  0.7008
  625MOL0     H84333   7.835   1.629   8.718 -1.1450  0.5544 -1.4399
  625MOL0     H84334   7.810   1.494   8.602  0.0320 -0.6132 -0.7743
  625MOL0     H84335   8.224   1.388   8.786  0.6556  1.7124  0.4764
  625MOL0     H84336   8.415   1.471   8.703  0.3722 -0.1275 -0.6589
  625MOL0     H84337   8.725   1.779   8.529 -3.5529 -0.7462  0.4004
  625MOL0     H84338   8.902   1.916   8.459 -0.1364 -1.7472 -1.1719
  625MOL0     H84339   9.061   2.084   8.425  2.3868 -0.6190  0.2167
  625MOL0     H84340   9.018   2.006   8.282 -0.1435 -0.9471  1.8903
  625MOL0     H84341   9.081   2.206   8.143 -0.1081 -3.1111 -0.0251
  625MOL0     H84342   9.104   2.305   8.288  1.7549  1.6575 -1.6922
  625MOL0     H84343   9.271   2.113   8.349  1.6482  1.7561 -0.7262
  625MOL0     H84344   9.274   2.084   8.175  3.4201 -0.8721  0.9751
  625MOL0     H84345   9.331   2.340   8.332 -1.0707 -1.1362  1.2864
  625MOL0     H84346   9.354   2.329   8.149  0.0122  1.1690  1.1894
  625MOL0     H84347   9.507   2.140   8.214  2.8287  1.5941 -1.9788
  625MOL0     H84348   9.525   2.235   8.372  1.0217 -0.8752 -0.5931
  625MOL0     H84349   9.700   2.266   8.210  1.5061  2.6312  2.2428
  625MOL0     H84350   9.574   2.326   8.094  1.4988 -0.9640 -0.7402
  625MOL0     H84351   9.556   2.460   8.358 -2.5711 -2.3661 -0.9098
  625MOL0     H84352   9.533   2.515   8.191 -1.5408 -0.9118 -0.0708
  625MOL0     H84353   9.717   2.628   8.306  2.0074  0.4160  1.9024
  625MOL0     H84354   9.797   2.472   8.339 -1.7694  1.1174  1.1249
  625MOL0     H84355   8.636   2.180   8.260  1.1268 -1.4037 -2.5244
  625MOL0     H84356   8.446   2.047   8.343 -0.7847 -1.1600  2.7859
  625MOL0     H84357   8.187   1.790   8.507 -0.9625 -1.5412 -1.3537
  625MOL0     H84358   7.980   1.670   8.564 -1.5036 -0.1994  0.5402
  625MOL0     H84359   6.339   1.851   8.774 -1.3144  1.4803 -0.8868
  625MOL0     H84360   6.113   1.903   8.776  2.3334 -4.2159 -0.2455
  625MOL0     H84361   5.730   2.063   9.061 -0.0893  0.0319 -1.6817
  625MOL0     H84362   5.532   2.212   9.097 -0.8889 -0.0330 -0.3146
  625MOL0     H84363   5.526   2.475   9.110  2.2893  1.0790 -0.1772
  625MOL0     H84364   5.372   2.534   9.078  0.2533  2.0614 -0.2889
  625MOL0     H84365   5.492   2.724   8.999  1.7488  0.3711  0.4809
  625MOL0     H84366   5.555   2.618   8.859 -3.3536  1.7778 -1.3975
  625MOL0     H84367   5.736   2.551   9.024 -1.0234 -0.0301 -2.0039
  625MOL0     H84368   5.668   2.670   9.134 -3.0384  0.0303 -0.2143
  625MOL0     H84369   5.720   2.847   8.944  1.4302  0.3935 -2.8271
  625MOL0     H84370   5.860   2.752   8.994  0.7522  3.1940 -1.5075
  625MOL0     H84371   5.832   2.652   8.595  0.7883  0.3585  0.0023
  625MOL0     H84372   5.622   2.411   8.734 -0.2711  0.7853  0.6453
  625MOL0     H84373   5.808   2.259   8.584  3.7919  1.5125 -2.8369
  625MOL0     H84374   5.854   2.414   8.650  1.7444  0.5121 -0.1506
  625MOL0     H84375   5.949   2.264   8.685 -1.3140 -0.6312  0.4293
  626MOL0     O84376   2.599   8.574   3.073  0.9071 -0.1300  0.0797
  626MOL0     C84377   2.625   8.529   3.187  0.5581 -0.2201 -0.6133
  626MOL0     O84378   2.742   8.464   3.227 -0.6834  0.1492 -0.2384
  626MOL0     C84379   2.841   8.448   3.125 -0.2301 -0.8524 -0.1995
  626MOL0     C84380   2.837   8.329   3.049 -0.4492 -1.2119 -0.5527
  626MOL0     C84381   2.925   8.325   2.940 -0.0519  0.0448  0.4624
  626MOL0     C84382   3.014   8.429   2.908 -0.7618 -0.2138 -0.6518
  626MOL0     O84383   3.088   8.396   2.794  0.0919  0.0790  0.3487
  626MOL0     C84384   3.155   8.508   2.723 -0.1145  0.5070 -0.7929
  626MOL0     C84385   3.196   8.463   2.588 -0.8685 -0.5829 -0.5807
  626MOL0     C84386   3.333   8.388   2.595  0.0123  0.4005 -0.2784
  626MOL0     C84387   3.457   8.480   2.614  0.8037 -0.2249  0.9143
  626MOL0     C84388   3.585   8.396   2.599  0.2847 -0.5573  0.8007
  626MOL0     C84389   3.617   8.312   2.725  0.9544 -0.1702 -0.3004
  626MOL0     C84390   3.725   8.204   2.702  0.0466 -0.0997  0.1660
  626MOL0     C84391   3.857   8.278   2.678 -0.3190  0.0110 -0.0975
  626MOL0     N84392   3.965   8.180   2.645  0.8575  0.0723 -0.1883
  626MOL0     C84393   3.984   8.054   2.698 -0.2000 -0.0637  1.1200
  626MOL0     C84394   4.101   8.012   2.640  0.0154  0.2286  0.6046
  626MOL0     C84395   4.180   7.879   2.662 -0.0319  0.2950  0.4530
  626MOL0     C84396   4.331   7.909   2.670  0.9035  0.6697 -0.1508
  626MOL0     C84397   4.390   7.768   2.673  0.7116 -0.2387 -0.5404
  626MOL0     C84398   4.542   7.771   2.698 -0.3021  0.0766 -0.0331
  626MOL0     O84399   4.617   7.800   2.582  0.2863 -0.2801  0.7878
  626MOL0     C84400   4.750   7.801   2.592 -0.4164 -1.0651 -0.3448
  626MOL0     C84401   4.825   7.802   2.718  0.1203 -0.2972  0.8466
  626MOL0     C84402   4.967   7.828   2.709  0.2360  0.0659 -1.0998
  626MOL0     C84403   5.036   7.845   2.587 -1.4033 -0.4261 -0.8193
  626MOL0     C84404   5.189   7.874   2.599  0.4622 -0.7255  0.1285
  626MOL0     O84405   5.241   7.911   2.722  0.0160 -0.0311  0.5962
  626MOL0     C84406   5.376   7.932   2.734  0.7750  0.2069  0.4752
  626MOL0     C84407   5.421   8.056   2.785  0.2204  0.1367  0.4296
  626MOL0     C84408   5.558   8.072   2.818 -1.0225 -0.1114 -0.4270
  626MOL0     C84409   5.644   7.956   2.818 -0.8377  0.3040 -0.0021
  626MOL0     O84410   5.768   7.964   2.884  0.2344 -0.0626  0.1038
  626MOL0     C84411   5.837   8.086   2.847  0.5190 -0.2365  0.1123
  626MOL0     C84412   5.986   8.079   2.859 -0.0472 -0.5246  1.3315
  626MOL0     C84413   6.042   8.009   2.976 -0.1221  0.5588  0.2458
  626MOL0     C84414   6.199   7.991   2.959  0.0916  0.7892 -0.3110
  626MOL0     C84415   6.278   7.943   3.090  0.0935  0.5650 -0.2452
  626MOL0     C84416   6.234   7.805   3.148 -0.1659  0.7109  0.1663
  626MOL0     C84417   6.314   7.763   3.278  0.0615 -0.9592 -0.0250
  626MOL0     C84418   6.307   7.620   3.321  0.9619  0.2825  0.1523
  626MOL0    Cl84419   6.376   7.612   3.481 -0.7046 -0.1126 -0.3473
  626MOL0     C84420   5.597   7.837   2.767 -0.6189 -0.0302 -0.4548
  626MOL0     C84421   5.467   7.830   2.727  0.3870  1.2775  0.2544
  626MOL0     O84422   5.252   7.865   2.491 -0.4695 -0.3429 -0.1196
  626MOL0     C84423   4.962   7.828   2.473 -0.0770 -0.1626  0.2000
  626MOL0     C84424   4.825   7.811   2.478  0.2689 -0.8800  0.3855
  626MOL0     N84425   4.139   8.102   2.542 -0.2542 -0.0357 -0.1601
  626MOL0     N84426   4.056   8.205   2.551 -0.2385 -1.0795  0.5989
  626MOL0     C84427   3.021   8.539   2.995 -0.5301  0.3727  0.1518
  626MOL0     C84428   2.939   8.546   3.106  0.1537 -0.3552  0.0594
  626MOL0     C84429   2.521   8.531   3.286  0.8606  0.7631 -0.7954
  626MOL0     C84430   2.395   8.478   3.261 -0.0790 -0.3143 -0.0467
  626MOL0     C84431   2.292   8.488   3.356 -0.4359  0.0467 -0.0131
  626MOL0     C84432   2.320   8.560   3.482 -0.1038  0.0541 -1.0297
  626MOL0     O84433   2.240   8.572   3.596 -0.4762 -0.5576  1.0631
  626MOL0     C84434   2.093   8.573   3.568  0.3028  0.0983 -0.1492
  626MOL0     C84435   2.031   8.718   3.592 -0.8332 -0.1468  0.2539
  626MOL0     C84436   2.084   8.812   3.476  0.8248 -0.0000 -0.4509
  626MOL0     C84437   2.050   8.963   3.508  0.1240  0.2655 -0.1743
  626MOL0     C84438   1.907   8.989   3.478 -0.0884  0.0945 -0.5421
  626MOL0     C84439   1.789   9.009   3.448 -0.6826 -0.9392 -0.0992
  626MOL0     C84440   2.448   8.610   3.512  1.2036  0.6595  0.4440
  626MOL0     C84441   2.548   8.598   3.413  0.5051  0.3534  0.3711
  626MOL0     C84442   2.682   8.655   3.456 -0.5984  0.3842  1.0636
  626MOL0     H84443   2.763   8.253   3.071 -2.3409  0.8555  0.6515
  626MOL0     H84444   2.924   8.255   2.857 -0.8660  1.3491 -0.6639
  626MOL0     H84445   3.093   8.597   2.708  1.0148  1.2613 -1.2153
  626MOL0     H84446   3.244   8.535   2.781 -0.4503 -1.5463  0.7911
  626MOL0     H84447   3.218   8.551   2.527 -2.4500  3.1183  3.6766
  626MOL0     H84448   3.120   8.406   2.534  1.1803 -0.6958 -3.6091
  626MOL0     H84449   3.342   8.322   2.509 -3.8471 -0.1924 -0.4076
  626MOL0     H84450   3.318   8.318   2.679 -3.0624  0.6787 -0.4756
  626MOL0     H84451   3.441   8.563   2.544 -0.1013 -1.0635  0.0808
  626MOL0     H84452   3.454   8.517   2.716  0.4643 -0.2959  0.9312
  626MOL0     H84453   3.576   8.334   2.510 -5.2526  1.0496 -0.1393
  626MOL0     H84454   3.665   8.470   2.587 -0.9591  0.5367 -1.4123
  626MOL0     H84455   3.647   8.390   2.796  0.0960 -0.4243  0.3571
  626MOL0     H84456   3.523   8.270   2.760 -0.1374  1.4408 -1.1564
  626MOL0     H84457   3.698   8.142   2.616 -4.7186 -1.0157  2.0428
  626MOL0     H84458   3.733   8.131   2.783  0.7700 -1.1539 -0.8323
  626MOL0     H84459   3.857   8.355   2.600  1.8086 -0.4518 -0.6184
  626MOL0     H84460   3.884   8.319   2.776 -1.3525 -1.0482  0.6615
  626MOL0     H84461   3.911   8.007   2.763 -2.8623  3.3879  0.9544
  626MOL0     H84462   4.153   7.818   2.749  3.4661 -0.3548  1.2373
  626MOL0     H84463   4.155   7.807   2.583  0.4617 -1.0448  1.4807
  626MOL0     H84464   4.368   7.970   2.587  1.0494 -0.4946 -0.9678
  626MOL0     H84465   4.350   7.967   2.761 -1.0387 -0.7400  1.2405
  626MOL0     H84466   4.365   7.722   2.577  1.3891  1.1957 -1.4336
  626MOL0     H84467   4.338   7.716   2.753 -0.6699 -0.2331 -1.4019
  626MOL0     H84468   4.566   7.669   2.730 -1.0138  0.7611  2.9177
  626MOL0     H84469   4.571   7.833   2.783 -0.7110  1.2526 -0.7251
  626MOL0     H84470   4.777   7.812   2.815 -1.5935  1.3592 -0.0910
  626MOL0     H84471   5.027   7.829   2.799  0.5057  0.9236 -1.2803
  626MOL0     H84472   5.362   8.147   2.797  2.0408  1.1189  3.0047
  626MOL0     H84473   5.588   8.172   2.849 -0.6097 -0.1432 -0.7147
  626MOL0     H84474   5.811   8.110   2.743 -1.3925  0.4768  0.6984
  626MOL0     H84475   5.809   8.168   2.914  2.1231  1.0950 -0.7877
  626MOL0     H84476   6.020   8.036   2.764 -2.9297  0.6972 -0.3888
  626MOL0     H84477   6.026   8.181   2.856  0.9043 -0.8970 -0.3942
  626MOL0     H84478   6.024   8.068   3.066 -0.1077  0.7885  0.0986
  626MOL0     H84479   5.994   7.911   2.974 -0.0392  0.5150  0.4410
  626MOL0     H84480   6.247   8.088   2.941  2.9638  0.0094  2.2396
  626MOL0     H84481   6.212   7.918   2.879 -5.7871 -1.9189  0.7063
  626MOL0     H84482   6.250   8.016   3.166 -0.3234  0.2567 -0.0967
  626MOL0     H84483   6.385   7.952   3.071  0.3465  1.4036  1.4397
  626MOL0     H84484   6.127   7.803   3.170  0.0039  0.9639  1.0869
  626MOL0     H84485   6.265   7.725   3.081  2.0082  0.6895  1.0942
  626MOL0     H84486   6.301   7.830   3.363  0.4604  0.7118 -1.2257
  626MOL0     H84487   6.418   7.771   3.246  0.2414  0.6242  0.8896
  626MOL0     H84488   6.207   7.577   3.323 -0.4678  3.3676  1.8262
  626MOL0     H84489   6.370   7.565   3.250 -0.2110 -0.3328 -0.4319
  626MOL0     H84490   5.656   7.746   2.762 -2.3742 -1.2044 -1.2626
  626MOL0     H84491   5.447   7.734   2.681  0.7427  0.7230  1.2122
  626MOL0     H84492   5.008   7.832   2.375 -3.1896 -0.4119 -1.3766
  626MOL0     H84493   4.772   7.817   2.384 -0.2738  2.9257  0.7678
  626MOL0     H84494   3.098   8.614   2.982  0.2434 -0.2704  0.8251
  626MOL0     H84495   2.944   8.638   3.164  2.6214  2.0290 -3.5093
  626MOL0     H84496   2.379   8.431   3.164 -0.8848  1.5090 -0.8439
  626MOL0     H84497   2.193   8.442   3.350  0.3026 -1.6195  0.1717
  626MOL0     H84498   2.055   8.506   3.646  0.0378 -0.0062 -0.3651
  626MOL0     H84499   2.069   8.538   3.467  1.4855  1.7352 -1.0405
  626MOL0     H84500   2.058   8.764   3.687  0.2497 -2.3245  1.0496
  626MOL0     H84501   1.924   8.694   3.586 -0.4752 -1.5979 -1.1602
  626MOL0     H84502   2.041   8.780   3.380  1.7088 -0.0102 -0.8492
  626MOL0     H84503   2.193   8.810   3.468  1.5190  4.3410  3.4561
  626MOL0     H84504   2.065   8.998   3.611  1.6842 -0.4104 -0.1523
  626MOL0     H84505   2.105   9.028   3.440 -1.5019  1.6419 -0.2345
  626MOL0     H84506   1.688   9.023   3.415 -1.6776 -2.6019  2.0261
  626MOL0     H84507   2.464   8.651   3.611 -1.1176 -2.2883  2.2361
  626MOL0     H84508   2.662   8.740   3.522 -0.3173  1.5913 -0.3512
  626MOL0     H84509   2.739   8.574   3.502  0.9539 -0.1392 -1.6048
  626MOL0     H84510   2.753   8.695   3.383  1.9263 -3.9909  0.7454
  627MOL0     O84511   6.669   8.915   2.180 -0.1236  0.5898  0.2497
  627MOL0     C84512   6.578   8.997   2.160  1.0381  0.2454  0.1620
  627MOL0     O84513   6.597   9.122   2.118  0.9099  0.6691 -0.8900
  627MOL0     C84514   6.717   9.137   2.050  0.2878 -1.2559  0.3590
  627MOL0     C84515   6.819   9.193   2.123 -0.5063 -0.0191 -0.2351
  627MOL0     C84516   6.939   9.222   2.063 -0.3626  0.5689 -0.0350
  627MOL0     C84517   6.957   9.190   1.928 -0.3909  0.0478 -0.4495
  627MOL0     O84518   7.081   9.206   1.864  0.0288  0.1264 -0.1195
  627MOL0     C84519   7.201   9.213   1.946 -0.3482 -0.5462  0.5011
  627MOL0     C84520   7.319   9.201   1.856 -0.3075 -0.5052  0.5814
  627MOL0     C84521   7.452   9.239   1.920 -0.1905  0.2187 -0.3655
  627MOL0     C84522   7.572   9.175   1.840 -0.4726  0.6829 -0.0057
  627MOL0     C84523   7.693   9.239   1.902 -1.1111  0.5446  0.0172
  627MOL0     C84524   7.739   9.362   1.828  0.2341  0.6803 -0.0011
  627MOL0     C84525   7.872   9.418   1.891 -0.4016  0.6607  0.1315
  627MOL0     C84526   7.900   9.556   1.853  0.6157 -1.3115 -0.3150
  627MOL0     N84527   8.030   9.616   1.890 -1.2454  0.5572  0.6555
  627MOL0     C84528   8.075   9.644   2.020  0.2309  0.2381 -0.3058
  627MOL0     C84529   8.180   9.727   2.004 -0.4808 -0.6974 -0.5615
  627MOL0     C84530   8.275   9.778   2.110 -0.5131 -0.5517  0.4901
  627MOL0     C84531   8.401   9.690   2.131  0.2922 -0.6378  0.1429
  627MOL0     C84532   8.446   9.704   2.277 -0.1563 -0.5401  0.5977
  627MOL0     C84533   8.520   9.842   2.300  1.2392 -0.1224 -0.0616
  627MOL0     O84534   8.658   9.815   2.299  0.0609  0.0263  0.3794
  627MOL0     C84535   8.757   9.894   2.358  1.2277 -0.6037 -0.4457
  627MOL0     C84536   8.736  10.018   2.407 -0.6360 -0.0761 -0.1815
  627MOL0     C84537   8.845  10.088   2.452  0.8062 -0.0960 -0.6233
  627MOL0     C84538   8.974  10.037   2.464  0.0490  0.2970 -0.2673
  627MOL0     C84539   9.087  10.110   2.526 -0.5495  0.1372  0.1384
  627MOL0     O84540   9.215  10.068   2.492 -0.0161 -0.1733 -0.7936
  627MOL0     C84541   9.322  10.113   2.570  0.6582 -0.6777  0.3054
  627MOL0     C84542   9.326  10.103   2.712  0.1207  0.3068  0.6294
  627MOL0     C84543   9.425  10.162   2.794 -0.0803  0.4956 -0.2103
  627MOL0     C84544   9.529  10.238   2.735 -0.5058  0.1315 -0.0429
  627MOL0     O84545   9.632  10.288   2.816  0.0205  0.5817 -0.0788
  627MOL0     C84546   9.759  10.344   2.769  1.2664  0.1712 -0.3260
  627MOL0     C84547   9.768  10.464   2.869 -0.4595  0.1073  0.1642
  627MOL0     C84548   9.897  10.545   2.858 -0.0464 -0.3429 -0.4985
  627MOL0     C84549   9.897  10.683   2.926  0.3053  0.4012 -0.7987
  627MOL0     C84550  10.037  10.741   2.920 -0.9298 -0.1001 -0.2653
  627MOL0     C84551  10.032  10.879   2.987  0.6081  0.1650  0.2710
  627MOL0     C84552  10.009  10.872   3.137  0.2962  0.1866  0.5684
  627MOL0     C84553  10.057  10.998   3.210  0.1510  0.1944 -0.4401
  627MOL0    Cl84554  10.227  11.021   3.179  0.0155  0.2541  0.0648
  627MOL0     C84555   9.520  10.256   2.596 -0.4684  0.1849 -0.3445
  627MOL0     C84556   9.418  10.192   2.513  0.7798 -0.6929 -0.5296
  627MOL0     O84557   9.063  10.207   2.595  0.0353 -0.0057  0.5601
  627MOL0     C84558   8.999   9.909   2.411  0.2696 -0.2202  0.2002
  627MOL0     C84559   8.884   9.834   2.374 -0.1391 -0.7543 -0.5539
  627MOL0     N84560   8.204   9.747   1.868 -0.0614  0.3968  0.6666
  627MOL0     N84561   8.110   9.684   1.798  0.1310  0.5004  0.5872
  627MOL0     C84562   6.849   9.143   1.850  0.2244  0.2736 -0.5341
  627MOL0     C84563   6.725   9.125   1.908 -0.0950 -0.3098 -0.6602
  627MOL0     C84564   6.431   8.952   2.185 -0.3665 -0.8962 -0.1571
  627MOL0     C84565   6.328   9.048   2.151  0.4090 -0.7325 -0.8379
  627MOL0     C84566   6.194   9.012   2.163  0.7196 -0.0917 -0.1058
  627MOL0     C84567   6.147   8.898   2.224  0.1773 -0.1372  0.5871
  627MOL0     O84568   6.014   8.889   2.239  0.2888 -0.4762  0.2731
  627MOL0     C84569   5.963   8.793   2.333  0.1483  0.2679  0.2213
  627MOL0     C84570   5.826   8.836   2.380 -0.4875  0.0395 -0.0251
  627MOL0     C84571   5.827   8.917   2.513 -0.4766 -0.0091  0.2135
  627MOL0     C84572   5.686   8.953   2.573  0.1161  0.2253  0.2443
  627MOL0     C84573   5.662   9.090   2.618  0.4800  0.2173 -0.0896
  627MOL0     C84574   5.648   9.202   2.664 -0.4909 -0.0774 -0.7304
  627MOL0     C84575   6.250   8.806   2.256 -0.3531 -0.0414 -0.6341
  627MOL0     C84576   6.389   8.829   2.244  0.2274 -0.1914  0.6094
  627MOL0     C84577   6.491   8.721   2.280 -0.0146 -0.3682 -0.1004
  627MOL0     H84578   6.814   9.217   2.229 -0.6272  2.3681 -0.7243
  627MOL0     H84579   7.019   9.267   2.122 -0.3694  0.0002  0.4255
  627MOL0     H84580   7.198   9.301   2.011 -0.1298 -0.9625  1.0837
  627MOL0     H84581   7.203   9.126   2.012  0.9093  1.2895  3.0603
  627MOL0     H84582   7.295   9.260   1.767 -0.7731 -0.8236  0.4945
  627MOL0     H84583   7.329   9.102   1.811  1.0333 -0.0533 -0.1849
  627MOL0     H84584   7.470   9.201   2.021  1.2655  0.6984 -0.4292
  627MOL0     H84585   7.461   9.348   1.922  1.3431  0.1020  1.4874
  627MOL0     H84586   7.579   9.065   1.837  1.3505  0.7877 -2.2314
  627MOL0     H84587   7.560   9.211   1.737 -0.5908 -1.0492 -0.6388
  627MOL0     H84588   7.678   9.257   2.009 -1.0683 -0.3145  0.1683
  627MOL0     H84589   7.770   9.162   1.897  0.2154  1.2185  4.8682
  627MOL0     H84590   7.764   9.343   1.723 -2.6437 -3.0477 -0.2000
  627MOL0     H84591   7.656   9.433   1.825 -2.7823 -2.6006 -0.4889
  627MOL0     H84592   7.951   9.351   1.856 -0.3125  1.5028 -1.3369
  627MOL0     H84593   7.879   9.424   2.000 -0.9461 -0.8477  0.2786
  627MOL0     H84594   7.874   9.572   1.748  0.1888 -2.0100 -0.3233
  627MOL0     H84595   7.819   9.619   1.892  0.2911 -1.3167 -0.9650
  627MOL0     H84596   8.038   9.590   2.107 -1.7508  1.4737 -0.3077
  627MOL0     H84597   8.310   9.878   2.083 -2.6618  0.2655  0.5513
  627MOL0     H84598   8.215   9.797   2.200 -2.4533  1.9570 -1.2303
  627MOL0     H84599   8.377   9.589   2.097 -3.3335  0.7253 -1.8295
  627MOL0     H84600   8.470   9.733   2.058 -0.7531  0.2469 -0.3499
  627MOL0     H84601   8.504   9.617   2.307 -0.2749 -1.2560 -1.1550
  627MOL0     H84602   8.361   9.691   2.344 -1.2718 -0.5920 -0.7797
  627MOL0     H84603   8.483   9.876   2.397 -2.3082 -1.8181 -0.6814
  627MOL0     H84604   8.497   9.922   2.229 -2.9054  0.5462  1.7704
  627MOL0     H84605   8.638  10.062   2.396  0.3908  2.2934 -0.4003
  627MOL0     H84606   8.819  10.186   2.492 -0.0874 -1.2755  1.8857
  627MOL0     H84607   9.253  10.038   2.761  2.4718 -1.6709  1.7319
  627MOL0     H84608   9.417  10.158   2.902 -2.3227  4.3582 -0.0291
  627MOL0     H84609   9.840  10.272   2.784 -1.5913 -2.6638  3.3466
  627MOL0     H84610   9.761  10.392   2.670  1.1753  2.4971  0.7212
  627MOL0     H84611   9.686  10.534   2.852 -1.0419 -0.1574  1.7619
  627MOL0     H84612   9.754  10.430   2.972 -1.8667  0.2294  0.0292
  627MOL0     H84613   9.981  10.480   2.883  1.0524  1.0514 -0.4391
  627MOL0     H84614   9.911  10.575   2.754  1.6130  0.6891 -0.0186
  627MOL0     H84615   9.870  10.670   3.031  1.5035  1.4619 -0.3254
  627MOL0     H84616   9.828  10.745   2.868  0.4454 -1.6169 -3.2849
  627MOL0     H84617  10.061  10.758   2.815  0.2775 -0.9355 -0.1372
  627MOL0     H84618  10.110  10.684   2.977 -2.2221 -0.5477  1.0086
  627MOL0     H84619  10.132  10.922   2.973  2.0651 -2.5008  1.6247
  627MOL0     H84620   9.960  10.945   2.937  0.4795  0.5465  0.9467
  627MOL0     H84621  10.057  10.781   3.176  1.5508 -0.1094 -1.4793
  627MOL0     H84622   9.901  10.857   3.144  0.0851  1.0979 -0.4610
  627MOL0     H84623   9.997  11.079   3.166 -4.9218 -2.1014  1.4117
  627MOL0     H84624  10.036  10.981   3.316  2.5505 -1.8377 -0.1987
  627MOL0     H84625   9.586  10.321   2.540  0.6586  0.9562  1.7664
  627MOL0     H84626   9.416  10.213   2.407 -0.1311 -1.5896 -0.7023
  627MOL0     H84627   9.098   9.864   2.399  1.1106  1.5076  0.3999
  627MOL0     H84628   8.907   9.735   2.337 -1.1721 -1.3031  0.2526
  627MOL0     H84629   6.869   9.126   1.744  2.3767 -6.5026  0.4770
  627MOL0     H84630   6.637   9.100   1.848 -0.9716  1.1468 -0.0433
  627MOL0     H84631   6.337   9.150   2.113  1.4678 -0.2068  0.7308
  627MOL0     H84632   6.126   9.092   2.137 -2.3441 -1.6161  2.6490
  627MOL0     H84633   6.032   8.784   2.417 -1.9708  0.2535  2.0794
  627MOL0     H84634   5.962   8.693   2.287  3.0458 -0.1326  0.8653
  627MOL0     H84635   5.770   8.743   2.394  1.2910 -1.4339 -2.0938
  627MOL0     H84636   5.783   8.905   2.308  0.7010  0.4494 -0.3545
  627MOL0     H84637   5.884   9.009   2.501  0.9927 -1.0666 -1.3099
  627MOL0     H84638   5.880   8.863   2.592 -1.1670  1.0529  1.4588
  627MOL0     H84639   5.612   8.942   2.493  0.3455  5.0988 -0.9417
  627MOL0     H84640   5.668   8.881   2.653  1.3894 -3.2794 -2.3829
  627MOL0     H84641   5.642   9.297   2.714 -0.7881 -1.3596  1.8673
  627MOL0     H84642   6.225   8.710   2.302  4.1451 -1.5754 -0.8687
  627MOL0     H84643   6.440   8.630   2.314  1.4009 -0.4167  2.0892
  627MOL0     H84644   6.563   8.684   2.207 -1.2348 -2.2274 -0.4281
  627MOL0     H84645   6.538   8.761   2.370 -0.9975 -0.7641  0.6110
  628MOL0     O84646  10.661  11.361   4.485 -0.1685  1.0480 -0.1779
  628MOL0     C84647  10.603  11.469   4.476  0.1840 -0.1542 -0.2197
  628MOL0     O84648  10.652  11.586   4.517 -0.2913 -0.4986  0.2949
  628MOL0     C84649  10.779  11.601   4.557 -0.0977 -0.4507 -0.6133
  628MOL0     C84650  10.888  11.585   4.470 -0.1735  0.4544 -0.2553
  628MOL0     C84651  11.011  11.621   4.522 -0.7675 -0.7062  1.0309
  628MOL0     C84652  11.033  11.674   4.648 -0.4374 -0.0511 -0.1793
  628MOL0     O84653  11.160  11.692   4.700  0.2058  0.8188 -0.1259
  628MOL0     C84654  11.217  11.825   4.687  0.3106  0.2246 -0.1790
  628MOL0     C84655  11.362  11.799   4.691 -0.1163  0.8803  0.3130
  628MOL0     C84656  11.396  11.773   4.835  0.2161  0.8982 -1.1059
  628MOL0     C84657  11.523  11.845   4.887  0.5096 -0.7173  0.3890
  628MOL0     C84658  11.586  11.764   5.006  0.5638  0.6938 -0.7651
  628MOL0     C84659  11.508  11.788   5.142 -0.1739 -0.2770  0.6697
  628MOL0     C84660  11.546  11.676   5.241  0.0109  0.5041 -0.6687
  628MOL0     C84661  11.699  11.661   5.277  0.0319 -0.1117  0.4408
  628MOL0     N84662  11.754  11.793   5.307  0.0409 -0.1789 -0.5524
  628MOL0     C84663  11.725  11.872   5.418 -0.6585 -1.0976 -0.0666
  628MOL0     C84664  11.808  11.980   5.400 -0.9983 -0.9437  0.4021
  628MOL0     C84665  11.791  12.110   5.477 -0.4624 -0.7311  0.9731
  628MOL0     C84666  11.685  12.191   5.400 -0.3947 -0.5315 -0.9821
  628MOL0     C84667  11.692  12.344   5.417  0.0023  0.4807 -0.2612
  628MOL0     C84668  11.830  12.404   5.380 -0.6208  0.6559 -0.0433
  628MOL0     O84669  11.906  12.427   5.504 -0.4501 -0.7218  0.2055
  628MOL0     C84670  12.039  12.442   5.461 -0.3356 -0.0207  0.2085
  628MOL0     C84671  12.087  12.529   5.361  0.6102 -0.4527  0.4187
  628MOL0     C84672  12.220  12.547   5.338 -0.7149  0.0779  0.4345
  628MOL0     C84673  12.309  12.455   5.401  0.1024 -0.9296 -0.1920
  628MOL0     C84674  12.450  12.443   5.345 -0.0588 -0.6194  0.0217
  628MOL0     O84675  12.494  12.513   5.225 -0.1739  0.7336  0.0988
  628MOL0     C84676  12.630  12.513   5.205 -0.2029 -1.3136 -0.0517
  628MOL0     C84677  12.682  12.433   5.108 -0.1980  0.5245  1.2350
  628MOL0     C84678  12.819  12.432   5.078 -0.7608 -0.6868 -0.7438
  628MOL0     C84679  12.904  12.512   5.151  0.2897 -0.4121  0.5629
  628MOL0     O84680  13.032  12.533   5.100 -0.0834 -0.2653 -0.0703
  628MOL0     C84681  13.119  12.431   5.125 -0.3554  0.4044 -0.4840
  628MOL0     C84682  13.228  12.476   5.232  0.9101  0.1999  0.4663
  628MOL0     C84683  13.341  12.564   5.174 -0.1989  0.1372  0.7309
  628MOL0     C84684  13.469  12.583   5.261  1.2147  1.0247 -0.3128
  628MOL0     C84685  13.497  12.731   5.272 -0.5569 -0.0847  0.4105
  628MOL0     C84686  13.380  12.820   5.331 -0.1603  0.8130 -0.4395
  628MOL0     C84687  13.352  12.813   5.482  0.8350  0.6276  0.4206
  628MOL0     C84688  13.468  12.786   5.581 -0.1769  0.3619 -0.2617
  628MOL0    Cl84689  13.596  12.911   5.545  0.1421 -0.2741 -0.0219
  628MOL0     C84690  12.857  12.595   5.250  0.2414  0.5697  0.2138
  628MOL0     C84691  12.716  12.605   5.274  1.0124  0.0955 -0.0955
  628MOL0     O84692  12.517  12.370   5.412 -0.2318 -0.0474  0.4941
  628MOL0     C84693  12.263  12.362   5.494  0.2662  0.2376  0.1140
  628MOL0     C84694  12.128  12.361   5.531 -0.1809 -0.7110 -0.5177
  628MOL0     N84695  11.879  11.966   5.282  0.1316  0.0338  0.1272
  628MOL0     N84696  11.852  11.852   5.224  0.3140 -0.8117  0.3810
  628MOL0     C84697  10.917  11.707   4.730  0.8619  0.1050  1.3402
  628MOL0     C84698  10.796  11.657   4.682  0.3747 -0.4154 -0.8320
  628MOL0     C84699  10.453  11.460   4.440  0.0514 -0.3706 -0.0061
  628MOL0     C84700  10.367  11.556   4.483  0.4803  0.2178 -0.4771
  628MOL0     C84701  10.230  11.541   4.473  0.1896 -0.4656  0.2717
  628MOL0     C84702  10.166  11.438   4.387  0.4877 -0.0401 -0.0512
  628MOL0     O84703  10.036  11.419   4.350  0.8755  0.6327  0.3388
  628MOL0     C84704   9.949  11.524   4.384  0.8633  0.4211 -0.8562
  628MOL0     C84705   9.805  11.475   4.348 -0.8886  0.5195  0.3756
  628MOL0     C84706   9.761  11.479   4.203 -0.3035  0.3491  0.2696
  628MOL0     C84707   9.793  11.349   4.121 -0.2702 -0.0187  0.0790
  628MOL0     C84708   9.678  11.296   4.045  0.3374  0.1437 -0.0184
  628MOL0     C84709   9.586  11.238   3.997 -0.2548 -0.8291 -0.0940
  628MOL0     C84710  10.260  11.355   4.327 -0.0616  0.5376  0.8103
  628MOL0     C84711  10.391  11.355   4.360 -1.4055  0.2460  0.0653
  628MOL0     C84712  10.472  11.238   4.307 -0.5174 -0.0031 -0.8333
  628MOL0     H84713  10.889  11.535   4.374 -1.4209  0.9829 -0.5607
  628MOL0     H84714  11.095  11.588   4.462  0.2019  3.9681 -0.6085
  628MOL0     H84715  11.201  11.867   4.587  1.8869  1.6173  0.1160
  628MOL0     H84716  11.192  11.898   4.764 -0.0501 -1.9579  1.8828
  628MOL0     H84717  11.418  11.888   4.659 -1.3023  1.3028 -0.6503
  628MOL0     H84718  11.390  11.717   4.625 -0.7628  0.5146  0.4931
  628MOL0     H84719  11.422  11.668   4.849 -0.0044  0.6747 -2.2866
  628MOL0     H84720  11.309  11.774   4.901 -0.5430 -1.6310 -1.9493
  628MOL0     H84721  11.591  11.848   4.802 -0.8251  1.9435 -0.6723
  628MOL0     H84722  11.489  11.945   4.914 -0.0757 -1.0884  1.0790
  628MOL0     H84723  11.584  11.658   4.977 -1.1416  0.9851 -1.8680
  628MOL0     H84724  11.693  11.781   5.022  0.4737  0.2330  0.3917
  628MOL0     H84725  11.533  11.884   5.188 -0.6102  0.4334 -0.5361
  628MOL0     H84726  11.400  11.781   5.134 -0.5452 -0.4238  4.2411
  628MOL0     H84727  11.506  11.582   5.203  0.3973 -0.2425  0.7047
  628MOL0     H84728  11.504  11.709   5.337  3.0916  2.1827  0.2620
  628MOL0     H84729  11.707  11.590   5.360 -3.8501 -0.0064  1.0472
  628MOL0     H84730  11.752  11.612   5.195 -0.4695  1.5556 -0.9285
  628MOL0     H84731  11.659  11.845   5.500 -0.4894 -0.5830  0.2403
  628MOL0     H84732  11.764  12.092   5.581 -2.9606 -2.6065  0.1127
  628MOL0     H84733  11.886  12.164   5.478 -1.3799  1.0751 -0.7419
  628MOL0     H84734  11.685  12.172   5.293 -0.5779  1.2598 -1.3275
  628MOL0     H84735  11.586  12.158   5.432 -0.6285 -2.6268 -3.5804
  628MOL0     H84736  11.660  12.369   5.518  0.2273 -2.1928  0.5490
  628MOL0     H84737  11.606  12.372   5.355  0.1814 -1.8057 -1.6600
  628MOL0     H84738  11.808  12.497   5.327  0.1257  0.5322 -0.5866
  628MOL0     H84739  11.878  12.326   5.320  1.8547 -0.2267  2.8789
  628MOL0     H84740  12.008  12.587   5.316 -2.1589 -3.4990  0.9500
  628MOL0     H84741  12.255  12.623   5.269  1.2830 -0.3390  0.9210
  628MOL0     H84742  12.611  12.368   5.058  2.0972 -0.0132 -1.6282
  628MOL0     H84743  12.850  12.370   4.994 -1.0721 -1.2453 -0.4469
  628MOL0     H84744  13.063  12.340   5.150 -0.5339 -0.3874 -3.3833
  628MOL0     H84745  13.179  12.408   5.036 -0.7666  1.2576 -0.9868
  628MOL0     H84746  13.177  12.529   5.312  2.2735  0.3801  1.2563
  628MOL0     H84747  13.270  12.383   5.273  1.6439  0.5659  0.5672
  628MOL0     H84748  13.385  12.506   5.092 -0.2847  0.2786  0.5841
  628MOL0     H84749  13.315  12.663   5.135  2.3225  1.0010  1.0026
  628MOL0     H84750  13.547  12.512   5.232 -1.0897 -1.9178  0.2310
  628MOL0     H84751  13.434  12.549   5.359  0.4172 -0.6616 -1.1390
  628MOL0     H84752  13.537  12.777   5.182  0.3447  0.2698  0.9743
  628MOL0     H84753  13.571  12.733   5.354 -0.8260 -2.3582  0.7893
  628MOL0     H84754  13.420  12.922   5.324  1.0628  0.4786  1.2845
  628MOL0     H84755  13.284  12.812   5.278  0.4957  0.2751 -1.5785
  628MOL0     H84756  13.296  12.722   5.508  0.8884  0.3475 -0.4070
  628MOL0     H84757  13.294  12.898   5.520  2.8144  2.0140  0.4876
  628MOL0     H84758  13.435  12.793   5.686 -0.8697  0.8177 -0.5044
  628MOL0     H84759  13.517  12.689   5.571  0.9196  0.8744 -0.0020
  628MOL0     H84760  12.927  12.669   5.288  1.2615  0.2132 -0.9088
  628MOL0     H84761  12.689  12.674   5.353  0.2936  1.0273 -1.1240
  628MOL0     H84762  12.332  12.296   5.546 -0.0676 -2.4819 -2.6455
  628MOL0     H84763  12.112  12.302   5.621  1.6136 -3.6328 -1.9688
  628MOL0     H84764  10.928  11.744   4.832  2.3073 -2.7244  2.3581
  628MOL0     H84765  10.710  11.676   4.746  1.8739  0.6395  0.9889
  628MOL0     H84766  10.406  11.633   4.549 -3.4275  1.9503  0.0689
  628MOL0     H84767  10.166  11.611   4.525  2.1974  3.4383 -2.1002
  628MOL0     H84768   9.980  11.606   4.318  2.1899 -0.9185 -1.9593
  628MOL0     H84769   9.953  11.559   4.488 -0.0229 -0.2707 -0.5810
  628MOL0     H84770   9.731  11.543   4.390  0.1400  4.0188 -2.8199
  628MOL0     H84771   9.791  11.373   4.383 -2.4353  1.0654  1.4482
  628MOL0     H84772   9.804  11.567   4.155 -0.2568 -0.2627 -0.8525
  628MOL0     H84773   9.655  11.504   4.208  0.0660  2.0739  0.0586
  628MOL0     H84774   9.868  11.382   4.048 -1.1269  1.3155 -0.2406
  628MOL0     H84775   9.825  11.268   4.187 -1.7363 -1.6187 -1.0785
  628MOL0     H84776   9.496  11.186   3.972 -2.1828 -0.5677  4.9494
  628MOL0     H84777  10.210  11.281   4.265 -0.2511  0.5276  0.9763
  628MOL0     H84778  10.507  11.175   4.389  0.2503 -0.3508 -1.4189
  628MOL0     H84779  10.416  11.166   4.246 -0.2584 -0.4071 -0.5899
  628MOL0     H84780  10.551  11.285   4.248 -0.4120  2.5142  1.1456
  629MOL0     O84781   5.492  10.678  10.204 -0.6329 -0.5988 -0.9313
  629MOL0     C84782   5.435  10.727  10.299  0.7822  0.0937 -0.1063
  629MOL0     O84783   5.467  10.840  10.366 -0.0857 -0.2780 -0.6406
  629MOL0     C84784   5.591  10.893  10.354 -0.0293 -1.2464  0.1688
  629MOL0     C84785   5.638  10.955  10.234  0.3114  0.2380  0.3075
  629MOL0     C84786   5.771  11.005  10.231  1.2337 -0.7323 -0.9175
  629MOL0     C84787   5.850  11.008  10.348  0.1904 -0.3115  0.5096
  629MOL0     O84788   5.977  11.044  10.339  0.3560  0.2423  0.4104
  629MOL0     C84789   6.076  10.961  10.271  0.6071 -0.0633  0.0395
  629MOL0     C84790   6.215  11.019  10.305  0.0065 -0.6008 -0.3677
  629MOL0     C84791   6.306  10.917  10.225 -0.0868 -0.1632 -0.3360
  629MOL0     C84792   6.446  10.978  10.229  0.2330 -0.8471 -0.2955
  629MOL0     C84793   6.536  10.860  10.218 -0.9151  0.0985 -0.8462
  629MOL0     C84794   6.682  10.908  10.249  0.0282 -0.4496  0.0859
  629MOL0     C84795   6.716  11.033  10.167 -0.6430 -0.5364  0.1280
  629MOL0     C84796   6.872  11.046  10.166 -0.2851 -0.0259 -0.3790
  629MOL0     N84797   6.913  11.168  10.097 -0.1702  0.6043 -0.2446
  629MOL0     C84798   7.037  11.218  10.097  0.1580  0.8862 -0.5177
  629MOL0     C84799   7.035  11.323  10.017  0.0441 -0.3691  0.4901
  629MOL0     C84800   7.135  11.428  10.024 -0.4620 -0.1482 -0.5677
  629MOL0     C84801   7.271  11.395   9.970 -0.4720  0.2418  0.4354
  629MOL0     C84802   7.356  11.505  10.012 -0.2324  0.8950  0.0306
  629MOL0     C84803   7.493  11.487   9.938  0.5096 -0.0555  0.4947
  629MOL0     O84804   7.587  11.577   9.990 -0.0403  0.2958  0.0541
  629MOL0     C84805   7.716  11.590   9.939  0.4436 -0.0708  0.5469
  629MOL0     C84806   7.765  11.535   9.819 -0.7353 -0.0366  1.3188
  629MOL0     C84807   7.896  11.560   9.778  0.3019 -0.4752  0.8810
  629MOL0     C84808   7.980  11.650   9.828 -0.0657  0.2969  0.3811
  629MOL0     C84809   8.107  11.683   9.758  0.3198  0.2610  0.2121
  629MOL0     O84810   8.175  11.787   9.815  0.7669  0.6276  0.3034
  629MOL0     C84811   8.298  11.810   9.772  0.2389 -0.2993  0.0267
  629MOL0     C84812   8.333  11.928   9.707  0.2480 -0.1099  0.1227
  629MOL0     C84813   8.466  11.953   9.661  1.3160  0.0435 -0.2031
  629MOL0     C84814   8.561  11.855   9.680 -0.6737  0.1907  0.0340
  629MOL0     O84815   8.693  11.874   9.646  0.3035 -0.3350 -0.0700
  629MOL0     C84816   8.786  11.771   9.684  0.3547  0.4253 -0.0396
  629MOL0     C84817   8.921  11.814   9.651 -0.4870 -0.7090  0.6240
  629MOL0     C84818   8.959  11.949   9.718 -0.0976  0.3833 -0.1861
  629MOL0     C84819   9.087  11.942   9.812 -0.3848 -0.3853  0.1128
  629MOL0     C84820   9.127  12.084   9.865  0.5445  0.4551  0.4015
  629MOL0     C84821   9.021  12.172   9.930  0.1322 -0.1782 -0.4837
  629MOL0     C84822   9.070  12.311   9.983  1.0020  0.6668  0.7982
  629MOL0     C84823   9.151  12.394   9.875  0.5173  0.6364 -0.3530
  629MOL0    Cl84824   9.203  12.549   9.957 -0.5093  0.2350  0.2110
  629MOL0     C84825   8.525  11.737   9.753  0.8507 -1.0055  0.2145
  629MOL0     C84826   8.401  11.725   9.788  0.1735 -0.0192 -0.0707
  629MOL0     O84827   8.137  11.616   9.656 -0.2870 -0.6443 -0.5088
  629MOL0     C84828   7.936  11.711   9.949  0.3187 -0.6806 -0.9289
  629MOL0     C84829   7.805  11.682  10.005 -0.0849 -0.2197  0.1347
  629MOL0     N84830   6.917  11.330   9.951  0.7089 -0.5018  0.5866
  629MOL0     N84831   6.845  11.235   9.997 -0.5651 -0.1458  0.2755
  629MOL0     C84832   5.804  10.959  10.465 -0.1099 -0.0155 -0.4738
  629MOL0     C84833   5.674  10.907  10.469  0.8810 -0.4470 -0.1891
  629MOL0     C84834   5.309  10.660  10.339 -0.0950 -0.5211  0.3109
  629MOL0     C84835   5.287  10.641  10.477 -0.6287 -0.2623 -0.0507
  629MOL0     C84836   5.177  10.573  10.521  0.2495 -0.4180 -0.2370
  629MOL0     C84837   5.076  10.532  10.427 -0.4104  0.8675  0.4334
  629MOL0     O84838   4.970  10.446  10.461  0.1896 -0.1954 -0.4022
  629MOL0     C84839   4.995  10.336  10.546  0.3599 -0.2531  0.0841
  629MOL0     C84840   4.870  10.249  10.542 -0.0859  0.2655  0.5505
  629MOL0     C84841   4.746  10.314  10.596  0.0590 -0.3786  0.1605
  629MOL0     C84842   4.646  10.209  10.643 -1.3391  0.4714  0.4195
  629MOL0     C84843   4.614  10.106  10.538  0.4578  1.0071  0.4651
  629MOL0     C84844   4.597  10.017  10.451 -0.3114 -0.5357 -1.4145
  629MOL0     C84845   5.098  10.549  10.291  0.7637 -1.0702 -0.6341
  629MOL0     C84846   5.210  10.625  10.241 -0.7513 -0.0588 -0.2366
  629MOL0     C84847   5.205  10.666  10.090  0.2722  0.2142 -0.4758
  629MOL0     H84848   5.572  10.943  10.149  2.4117  0.9208 -1.4848
  629MOL0     H84849   5.817  11.031  10.136  0.5043 -0.8164 -1.2986
  629MOL0     H84850   6.072  10.857  10.306 -0.1766  0.1311  0.5444
  629MOL0     H84851   6.060  10.964  10.163  0.4910  0.1975  0.0630
  629MOL0     H84852   6.244  11.018  10.410  1.9535 -1.1979 -0.8609
  629MOL0     H84853   6.213  11.124  10.274  1.4005  0.4172  2.6301
  629MOL0     H84854   6.282  10.898  10.120  1.4279 -0.2280 -0.6951
  629MOL0     H84855   6.306  10.824  10.283  2.7377  0.2262  0.4654
  629MOL0     H84856   6.463  11.045  10.144  0.7862 -1.9194 -1.0447
  629MOL0     H84857   6.458  11.035  10.322  0.3105 -1.2041 -0.0867
  629MOL0     H84858   6.520  10.779  10.290  4.0498  0.6932  1.3320
  629MOL0     H84859   6.529  10.813  10.119  0.9571  0.0641 -0.9838
  629MOL0     H84860   6.699  10.927  10.355  1.6839 -2.4903  0.2423
  629MOL0     H84861   6.756  10.832  10.224  0.7656  1.0595 -2.7103
  629MOL0     H84862   6.683  11.123  10.220 -0.9227 -0.5782  0.0285
  629MOL0     H84863   6.686  11.045  10.062  2.6636  0.8894 -0.7984
  629MOL0     H84864   6.891  11.052  10.274 -2.3686  1.5036 -0.0420
  629MOL0     H84865   6.929  10.959  10.132  1.1423  1.2985 -1.5155
  629MOL0     H84866   7.115  11.189  10.166  1.3788  2.9145 -0.9505
  629MOL0     H84867   7.097  11.521   9.979  0.8102  2.2826  2.8927
  629MOL0     H84868   7.138  11.439  10.133  0.4969 -1.6850 -0.4120
  629MOL0     H84869   7.310  11.302  10.012 -0.4792  0.5094  1.0415
  629MOL0     H84870   7.260  11.392   9.861  0.2724 -1.9005  0.3643
  629MOL0     H84871   7.367  11.488  10.119  0.2791 -2.3053 -0.4423
  629MOL0     H84872   7.311  11.600   9.982 -0.0704  0.4054 -1.9157
  629MOL0     H84873   7.473  11.507   9.832 -0.2919  1.2729  0.8742
  629MOL0     H84874   7.536  11.390   9.965  0.3559 -0.5752 -1.0254
  629MOL0     H84875   7.695  11.480   9.757 -0.3006  1.8306 -0.9455
  629MOL0     H84876   7.924  11.517   9.682  0.4428  1.3801  0.0483
  629MOL0     H84877   8.250  11.994   9.687 -0.4304 -1.3199 -1.1894
  629MOL0     H84878   8.495  12.037   9.598  2.7762 -1.6936 -1.9963
  629MOL0     H84879   8.777  11.758   9.793  2.4317 -2.5680 -0.0936
  629MOL0     H84880   8.764  11.678   9.631 -0.1397  0.7436 -0.3899
  629MOL0     H84881   9.000  11.745   9.683 -0.2511  0.3428  2.4406
  629MOL0     H84882   8.932  11.823   9.542 -0.0636  0.0218  0.7221
  629MOL0     H84883   8.974  12.009   9.628  0.8481 -0.4667 -0.6187
  629MOL0     H84884   8.876  11.994   9.773  1.2410  2.1006  0.5467
  629MOL0     H84885   9.168  11.884   9.767 -1.6284 -3.4476  1.5237
  629MOL0     H84886   9.063  11.875   9.895  3.4425 -1.7011  0.3638
  629MOL0     H84887   9.182  12.137   9.785  1.4181 -0.5898  0.2910
  629MOL0     H84888   9.208  12.066   9.936  0.7587 -1.9290 -0.3765
  629MOL0     H84889   8.944  12.191   9.854 -0.6255  3.1870  0.9199
  629MOL0     H84890   8.975  12.124  10.017  2.0217  1.0256  1.2674
  629MOL0     H84891   9.119  12.295  10.079 -2.0864  2.0434  2.7559
  629MOL0     H84892   8.987  12.374  10.016  0.6967  0.6325  0.1159
  629MOL0     H84893   9.232  12.333   9.833  0.3139 -0.0237  0.1949
  629MOL0     H84894   9.083  12.433   9.799 -0.6586  2.0835  1.3502
  629MOL0     H84895   8.590  11.655   9.780  1.2793 -0.8485 -0.3331
  629MOL0     H84896   8.381  11.631   9.839 -2.1236  0.1305 -0.5920
  629MOL0     H84897   7.998  11.786   9.998 -0.0156  0.1569 -1.7405
  629MOL0     H84898   7.776  11.740  10.092  1.1536  1.6766 -0.6485
  629MOL0     H84899   5.862  10.963  10.557  1.6833 -3.7091 -1.2563
  629MOL0     H84900   5.634  10.875  10.565  2.6022  1.5829  1.2967
  629MOL0     H84901   5.355  10.677  10.553 -2.5244  3.7877  0.0319
  629MOL0     H84902   5.164  10.546  10.625  4.9025  0.2211  0.7229
  629MOL0     H84903   5.021  10.378  10.644  2.5157  1.3518 -1.0809
  629MOL0     H84904   5.083  10.278  10.515 -0.2917 -0.0397 -2.3741
  629MOL0     H84905   4.889  10.156  10.596  2.1368 -0.1989 -0.9053
  629MOL0     H84906   4.860  10.212  10.439  0.5690 -0.0852  0.6062
  629MOL0     H84907   4.691  10.376  10.525  0.1770 -1.2717 -0.7339
  629MOL0     H84908   4.777  10.371  10.684 -1.6269 -0.8069  1.0672
  629MOL0     H84909   4.700  10.147  10.715  0.6973  1.5988 -0.0306
  629MOL0     H84910   4.555  10.259  10.677 -2.0660 -0.4522 -0.1525
  629MOL0     H84911   4.578   9.949  10.370  0.1400 -1.2294 -0.9450
  629MOL0     H84912   5.028  10.508  10.218 -1.1451 -0.8269  0.9707
  629MOL0     H84913   5.267  10.602  10.027  0.4658  1.8267 -2.0060
  629MOL0     H84914   5.105  10.652  10.049  1.1506 -0.5115 -2.5173
  629MOL0     H84915   5.238  10.771  10.087 -0.0880  0.5342  3.1070
  630MOL0     O84916   7.106   2.941   6.287  0.2136  0.5145  0.1754
  630MOL0     C84917   7.093   2.868   6.188 -0.2888  0.7446  0.0243
  630MOL0     O84918   7.176   2.855   6.086 -0.1550 -0.7972 -0.4499
  630MOL0     C84919   7.291   2.936   6.068  0.6559 -0.0581 -0.0382
  630MOL0     C84920   7.290   3.076   6.087  0.5937  1.0715  0.1854
  630MOL0     C84921   7.411   3.143   6.048  0.8330  0.2835  0.2543
  630MOL0     C84922   7.517   3.085   5.979 -0.0077 -0.6989  0.3642
  630MOL0     O84923   7.632   3.142   5.935 -0.0050 -0.2409  0.3676
  630MOL0     C84924   7.668   3.270   5.998  0.4620  0.6674  0.1993
  630MOL0     C84925   7.820   3.279   5.976  0.4427  0.9350 -0.1736
  630MOL0     C84926   7.869   3.414   6.045 -0.4054 -0.0088  0.6565
  630MOL0     C84927   8.017   3.417   6.046 -0.4233 -0.2191 -0.0234
  630MOL0     C84928   8.071   3.563   6.077  0.8573 -0.6035 -0.6023
  630MOL0     C84929   8.213   3.548   6.124 -0.6533 -0.6187 -0.5287
  630MOL0     C84930   8.282   3.686   6.139  0.6930 -0.4008  1.0054
  630MOL0     C84931   8.236   3.777   6.241  0.1478  0.4714 -0.5534
  630MOL0     N84932   8.260   3.912   6.199 -0.3194  0.7405  0.1051
  630MOL0     C84933   8.354   4.002   6.243  0.4446  0.4342 -0.5363
  630MOL0     C84934   8.332   4.121   6.190 -1.3233  0.0398  0.4854
  630MOL0     C84935   8.385   4.246   6.224 -0.5849 -0.5666 -0.1739
  630MOL0     C84936   8.528   4.262   6.188 -0.5101  0.0053  1.3597
  630MOL0     C84937   8.549   4.337   6.065  0.4638  0.0911 -0.4796
  630MOL0     C84938   8.580   4.494   6.091 -0.3650  0.1155 -0.0169
  630MOL0     O84939   8.686   4.511   6.188 -0.3910  0.0456  0.5629
  630MOL0     C84940   8.815   4.490   6.156  0.0511  0.5879  0.3389
  630MOL0     C84941   8.909   4.477   6.251 -0.0171 -0.5376 -0.6856
  630MOL0     C84942   9.044   4.462   6.211 -0.4221 -0.0120 -0.7296
  630MOL0     C84943   9.082   4.454   6.075  0.0872 -0.2739 -0.6839
  630MOL0     C84944   9.221   4.434   6.031 -0.5845  0.0771  0.7763
  630MOL0     O84945   9.304   4.384   6.125  0.3454 -0.4564 -0.4691
  630MOL0     C84946   9.444   4.398   6.107  0.8858  0.2514  0.1128
  630MOL0     C84947   9.524   4.306   6.165  0.6682 -0.0181  0.5527
  630MOL0     C84948   9.660   4.306   6.144 -0.5289 -0.0379 -0.0797
  630MOL0     C84949   9.723   4.399   6.064  0.3946 -0.2103  0.4121
  630MOL0     O84950   9.859   4.403   6.086 -0.6131 -0.5594  0.6087
  630MOL0     C84951   9.929   4.507   6.027 -0.2278 -0.9617 -0.2350
  630MOL0     C84952  10.088   4.495   6.048  0.4681 -1.0035 -0.9221
  630MOL0     C84953  10.171   4.576   5.948  0.6889  0.0042 -0.7311
  630MOL0     C84954  10.321   4.527   5.954  1.3382 -0.3966  0.7111
  630MOL0     C84955  10.421   4.628   5.900 -0.0912  0.6701  0.7200
  630MOL0     C84956  10.464   4.729   6.001  0.7176  0.1408 -0.6225
  630MOL0     C84957  10.519   4.849   5.934 -1.5401 -0.9472  0.3645
  630MOL0     C84958  10.568   4.954   6.031  0.4239 -0.5622 -0.3051
  630MOL0    Cl84959  10.438   5.015   6.149 -0.4967  0.0597 -0.1468
  630MOL0     C84960   9.644   4.495   5.996  0.4672 -0.0801 -0.6822
  630MOL0     C84961   9.504   4.481   6.016  0.3410 -0.2132 -0.3669
  630MOL0     O84962   9.248   4.452   5.912 -0.1075  1.0579 -1.1564
  630MOL0     C84963   8.987   4.464   5.986 -0.3318  0.6985  0.2571
  630MOL0     C84964   8.858   4.493   6.024  0.3467 -1.0921 -0.4109
  630MOL0     N84965   8.235   4.098   6.105  0.5818 -0.6165 -0.3253
  630MOL0     N84966   8.186   3.982   6.107 -0.2734 -0.6060  0.0284
  630MOL0     C84967   7.503   2.949   5.949 -0.5058 -0.0781 -0.6331
  630MOL0     C84968   7.391   2.872   5.991  0.8911 -0.0674  0.9111
  630MOL0     C84969   6.973   2.790   6.183  0.6256  0.1640 -0.8196
  630MOL0     C84970   6.858   2.822   6.264  0.0768 -0.3425  0.0907
  630MOL0     C84971   6.737   2.754   6.257 -0.9861  1.1386 -0.3440
  630MOL0     C84972   6.720   2.648   6.164 -0.1155 -0.4062  0.0458
  630MOL0     O84973   6.603   2.583   6.141  0.7176  0.3144  0.0554
  630MOL0     C84974   6.517   2.561   6.260 -0.1859  0.4609  0.5182
  630MOL0     C84975   6.410   2.479   6.192  0.9806  0.1749 -0.7484
  630MOL0     C84976   6.295   2.428   6.278  0.0784 -0.7394  0.2601
  630MOL0     C84977   6.195   2.380   6.174  0.3186  0.7907  0.1943
  630MOL0     C84978   6.088   2.311   6.252  0.1108 -0.4817  1.3666
  630MOL0     C84979   6.020   2.244   6.324 -0.1813  0.7161 -0.4203
  630MOL0     C84980   6.827   2.611   6.088  0.1689  0.0250  0.8024
  630MOL0     C84981   6.956   2.676   6.097  0.1842 -1.1707  0.5061
  630MOL0     C84982   7.062   2.629   6.004  1.1010  1.0446  0.2138
  630MOL0     H84983   7.217   3.129   6.147 -1.1412 -0.5970 -0.3732
  630MOL0     H84984   7.418   3.246   6.083 -1.9699  1.2641 -1.7052
  630MOL0     H84985   7.620   3.358   5.954 -3.7874 -1.8876 -0.9082
  630MOL0     H84986   7.643   3.262   6.104  0.7857 -1.6188  0.1634
  630MOL0     H84987   7.850   3.282   5.871  0.2209 -2.1817 -0.4053
  630MOL0     H84988   7.869   3.197   6.029 -0.9312  0.8510  1.0159
  630MOL0     H84989   7.827   3.431   6.144  0.2580 -0.3394  0.9951
  630MOL0     H84990   7.844   3.492   5.972  2.7205  0.8584  0.3784
  630MOL0     H84991   8.055   3.341   6.114  0.8967 -0.7122 -1.2603
  630MOL0     H84992   8.063   3.381   5.953  0.7493 -0.0259  0.4664
  630MOL0     H84993   8.058   3.627   5.988  0.8391  1.9549  1.1320
  630MOL0     H84994   8.004   3.608   6.151  0.4659  0.0854 -1.3574
  630MOL0     H84995   8.217   3.495   6.219 -2.5872  1.6079  0.9242
  630MOL0     H84996   8.276   3.497   6.051  1.6632  3.9156 -2.0969
  630MOL0     H84997   8.270   3.736   6.043 -0.8065  0.6134  1.6764
  630MOL0     H84998   8.391   3.682   6.149  0.9197 -0.3341 -1.0864
  630MOL0     H84999   8.128   3.772   6.255  0.3631  2.0892  2.3876
  630MOL0     H85000   8.291   3.754   6.332  1.9041 -0.9118 -1.8779
  630MOL0     H85001   8.429   3.987   6.321 -1.1749 -2.9912  0.5889
  630MOL0     H85002   8.325   4.333   6.195  2.3710  1.8109  0.3956
  630MOL0     H85003   8.390   4.244   6.333 -0.2757 -3.0120 -0.1766
  630MOL0     H85004   8.594   4.279   6.273  1.9932 -0.4928 -0.3553
  630MOL0     H85005   8.565   4.163   6.160 -1.0751  0.3928 -0.9795
  630MOL0     H85006   8.477   4.322   5.984  0.6160  3.2983 -1.3764
  630MOL0     H85007   8.647   4.309   6.027  1.4514  2.4947  0.0726
  630MOL0     H85008   8.490   4.544   6.128  0.5106  3.5322 -2.0969
  630MOL0     H85009   8.593   4.549   5.998 -1.5972 -0.3496 -0.4937
  630MOL0     H85010   8.884   4.475   6.357  1.1053  1.8266 -0.3138
  630MOL0     H85011   9.129   4.462   6.278 -1.1886  1.0476  0.3013
  630MOL0     H85012   9.490   4.228   6.233 -1.1658  1.0506  0.9257
  630MOL0     H85013   9.714   4.225   6.191  1.3723 -1.2393 -3.9033
  630MOL0     H85014   9.917   4.496   5.919 -0.7816  0.8463 -0.3887
  630MOL0     H85015   9.897   4.607   6.057 -1.4466 -0.5405 -2.7212
  630MOL0     H85016  10.098   4.550   6.142 -2.0494 -0.5593 -0.8452
  630MOL0     H85017  10.116   4.390   6.057  1.5240 -0.6307  0.7647
  630MOL0     H85018  10.115   4.584   5.854  0.0456 -2.0948 -0.5764
  630MOL0     H85019  10.174   4.681   5.979  0.2059 -0.5806  1.4216
  630MOL0     H85020  10.308   4.429   5.907 -0.2147 -0.9469  2.2066
  630MOL0     H85021  10.344   4.508   6.059 -0.6971  2.7932  1.8550
  630MOL0     H85022  10.381   4.670   5.808  1.7005 -1.3895 -1.1183
  630MOL0     H85023  10.511   4.574   5.868 -0.0812  1.4653 -0.6435
  630MOL0     H85024  10.380   4.756   6.065  2.5601  2.3329  1.0379
  630MOL0     H85025  10.529   4.673   6.070  0.4592  0.0935 -0.4115
  630MOL0     H85026  10.446   4.888   5.862 -0.1546 -1.1875 -1.2268
  630MOL0     H85027  10.611   4.815   5.886 -0.5059  0.3313  1.3618
  630MOL0     H85028  10.664   4.934   6.080 -0.9802  0.4010  3.1922
  630MOL0     H85029  10.595   5.031   5.958 -0.3683 -2.1505 -2.3567
  630MOL0     H85030   9.695   4.557   5.923  0.8786 -0.7655 -0.9910
  630MOL0     H85031   9.451   4.561   5.963  0.4017  0.1251  0.0787
  630MOL0     H85032   9.005   4.444   5.881 -0.9925 -1.7836  0.5519
  630MOL0     H85033   8.786   4.530   5.951 -0.2315 -3.4714 -1.1256
  630MOL0     H85034   7.580   2.892   5.898 -2.5371 -1.3273 -2.5058
  630MOL0     H85035   7.394   2.766   5.970  2.0243 -0.1294  1.3269
  630MOL0     H85036   6.867   2.901   6.338 -1.5792  1.1855 -1.2408
  630MOL0     H85037   6.661   2.786   6.327 -1.1611  0.4217 -0.1922
  630MOL0     H85038   6.479   2.652   6.308  0.2457 -0.0678  1.8864
  630MOL0     H85039   6.564   2.497   6.334  1.8377  2.0693  0.7088
  630MOL0     H85040   6.459   2.395   6.140  0.2324  0.2975 -1.6774
  630MOL0     H85041   6.358   2.535   6.114 -1.6001 -0.8248  0.1523
  630MOL0     H85042   6.251   2.509   6.336  1.2238 -1.3942  2.1130
  630MOL0     H85043   6.325   2.348   6.345  2.7225 -0.9898 -1.0846
  630MOL0     H85044   6.152   2.458   6.111  2.4956 -1.0073 -3.8866
  630MOL0     H85045   6.234   2.296   6.117 -0.6266  0.1533  0.4762
  630MOL0     H85046   5.957   2.173   6.373  1.8037 -1.0121 -0.2040
  630MOL0     H85047   6.822   2.528   6.020  0.7901  2.2190 -2.1022
  630MOL0     H85048   7.009   2.565   5.933  0.0412  0.1668  1.7352
  630MOL0     H85049   7.097   2.709   5.938 -0.1877 -0.7604 -2.8784
  630MOL0     H85050   7.138   2.571   6.058 -0.8452 -0.5496  1.3678
  631MOL0     O85051   1.756  10.596   3.365  0.3494  0.4609 -0.2328
  631MOL0     C85052   1.647  10.539   3.344 -1.0959 -0.3937 -0.4680
  631MOL0     O85053   1.636  10.407   3.322  0.1861  0.5268  0.0206
  631MOL0     C85054   1.745  10.339   3.272  0.1710 -0.3042  0.1446
  631MOL0     C85055   1.772  10.330   3.131  0.8598  0.3536  0.4346
  631MOL0     C85056   1.879  10.248   3.092 -1.0661 -0.1788 -0.2362
  631MOL0     C85057   1.970  10.196   3.184  0.5262  0.2996  0.3145
  631MOL0     O85058   2.079  10.129   3.129 -1.1422  0.3538  0.0395
  631MOL0     C85059   2.158  10.051   3.224  0.3952  0.1799 -0.3413
  631MOL0     C85060   2.250   9.962   3.139  0.2062 -0.6758 -0.5724
  631MOL0     C85061   2.377   9.904   3.217  0.3544 -1.0792  0.0728
  631MOL0     C85062   2.498   9.892   3.129 -1.2663 -0.6938 -0.7494
  631MOL0     C85063   2.609   9.820   3.208 -0.1734 -0.6224  0.7334
  631MOL0     C85064   2.749   9.843   3.152  0.1284 -0.7124  0.6242
  631MOL0     C85065   2.848   9.788   3.251  0.4410  0.9225  0.9994
  631MOL0     C85066   2.995   9.806   3.200  0.1823 -0.0807 -0.0786
  631MOL0     N85067   3.083   9.736   3.292  0.2390 -0.3058  0.4462
  631MOL0     C85068   3.101   9.602   3.286  0.3116  0.0932  0.1876
  631MOL0     C85069   3.182   9.579   3.399 -0.4608 -0.0665  1.3768
  631MOL0     C85070   3.237   9.455   3.452  0.1686  0.2813 -0.1222
  631MOL0     C85071   3.364   9.416   3.375 -0.4212  0.2028 -0.7298
  631MOL0     C85072   3.441   9.289   3.422  0.6014  0.6307 -0.1835
  631MOL0     C85073   3.584   9.285   3.350 -1.1098 -0.5020  0.5062
  631MOL0     O85074   3.573   9.248   3.220 -0.2836  0.5029  0.1568
  631MOL0     C85075   3.685   9.268   3.141  0.3577 -0.7003 -1.1511
  631MOL0     C85076   3.784   9.364   3.163 -0.4026  0.0079  0.3395
  631MOL0     C85077   3.890   9.379   3.069  0.3239  0.6986 -0.2904
  631MOL0     C85078   3.905   9.281   2.969  0.2090  0.5935  0.6284
  631MOL0     C85079   4.023   9.287   2.880 -0.7754 -0.3715  0.4308
  631MOL0     O85080   4.033   9.200   2.771  0.1761 -0.3743  1.1426
  631MOL0     C85081   4.148   9.204   2.699 -0.6069 -0.1116 -0.1381
  631MOL0     C85082   4.196   9.326   2.640 -0.1802  0.3193 -0.8592
  631MOL0     C85083   4.310   9.332   2.565  0.6530 -0.4988 -0.3501
  631MOL0     C85084   4.372   9.211   2.528 -1.0028  0.2182 -0.0815
  631MOL0     O85085   4.490   9.196   2.455  0.3743  0.0123 -0.0301
  631MOL0     C85086   4.537   9.310   2.386 -0.1800  0.9743 -0.3808
  631MOL0     C85087   4.647   9.275   2.286  0.5133 -0.1871 -1.0081
  631MOL0     C85088   4.682   9.405   2.224  0.6583 -1.5920  0.1558
  631MOL0     C85089   4.790   9.400   2.108  0.2408 -0.5944 -0.9082
  631MOL0     C85090   4.759   9.305   1.994  0.2305  0.3715 -0.1180
  631MOL0     C85091   4.836   9.354   1.870  0.6322 -0.2350 -0.2703
  631MOL0     C85092   4.993   9.349   1.888  0.6037  0.7288 -1.0170
  631MOL0     C85093   5.065   9.396   1.763 -0.2742 -0.4283  0.3220
  631MOL0    Cl85094   5.151   9.555   1.810  0.5430  0.3915 -0.2624
  631MOL0     C85095   4.323   9.091   2.585 -0.3278 -0.4723 -0.2664
  631MOL0     C85096   4.217   9.090   2.665  0.1483 -0.4140 -0.2663
  631MOL0     O85097   4.116   9.363   2.928  0.3369 -0.3419  0.0863
  631MOL0     C85098   3.797   9.186   2.948 -0.8601 -0.1175  0.1243
  631MOL0     C85099   3.687   9.187   3.025 -0.1473 -0.6946 -0.1505
  631MOL0     N85100   3.203   9.702   3.461 -0.2606 -0.3002  0.0276
  631MOL0     N85101   3.143   9.793   3.392  0.0515  1.1516 -1.1196
  631MOL0     C85102   1.944  10.207   3.320  0.1563 -0.8680 -0.7669
  631MOL0     C85103   1.840  10.288   3.364  0.5415  0.5952 -0.3109
  631MOL0     C85104   1.523  10.628   3.331 -0.0539 -0.2103 -0.9522
  631MOL0     C85105   1.425  10.567   3.244  0.2709  0.3855 -0.0962
  631MOL0     C85106   1.291  10.626   3.227 -0.1649 -0.0969 -0.3326
  631MOL0     C85107   1.259  10.744   3.298  0.3555  0.9711  0.0996
  631MOL0     O85108   1.134  10.801   3.269  0.2775 -0.3667 -0.3049
  631MOL0     C85109   1.137  10.930   3.200 -0.2025  0.8138  0.5749
  631MOL0     C85110   1.000  10.973   3.157 -0.4242  0.2131  0.8230
  631MOL0     C85111   0.935  11.028   3.287  0.4626  0.4264 -0.0149
  631MOL0     C85112   0.805  11.110   3.260 -0.4796  0.0309  0.6358
  631MOL0     C85113   0.687  11.024   3.218  0.0480  0.3012  0.3397
  631MOL0     C85114   0.588  10.968   3.182 -0.2769  0.8922  0.1143
  631MOL0     C85115   1.356  10.803   3.381 -0.8274  0.6095  1.1347
  631MOL0     C85116   1.499  10.759   3.389  1.4618  0.5283 -0.0031
  631MOL0     C85117   1.598  10.845   3.466 -0.0120  1.0931 -0.3025
  631MOL0     H85118   1.705  10.386   3.066  2.3392  2.5632  0.6929
  631MOL0     H85119   1.907  10.230   2.989 -2.8291 -0.5035 -0.6859
  631MOL0     H85120   2.209  10.113   3.298 -2.8630 -0.4775  2.7975
  631MOL0     H85121   2.095   9.993   3.292  0.3060  1.3960  0.6469
  631MOL0     H85122   2.285  10.020   3.053 -0.0665 -0.3508 -0.4645
  631MOL0     H85123   2.187   9.877   3.110 -0.2174 -0.6495  0.2508
  631MOL0     H85124   2.338   9.808   3.253 -2.0863 -0.3353 -0.3754
  631MOL0     H85125   2.402   9.975   3.296  0.0568 -1.4209  0.4801
  631MOL0     H85126   2.471   9.832   3.042 -1.8402 -2.8286  0.8062
  631MOL0     H85127   2.533   9.992   3.102 -1.3384  0.1726  1.9813
  631MOL0     H85128   2.617   9.861   3.309  2.3034 -1.8265  1.0844
  631MOL0     H85129   2.597   9.711   3.214 -1.5009 -0.8706 -3.5390
  631MOL0     H85130   2.752   9.793   3.055 -1.6947  2.7816 -1.4115
  631MOL0     H85131   2.765   9.949   3.132 -1.4077 -0.9670 -2.5241
  631MOL0     H85132   2.826   9.683   3.270 -1.4555  1.2992  1.0504
  631MOL0     H85133   2.841   9.848   3.342  3.6333  1.4867  1.0026
  631MOL0     H85134   3.000   9.769   3.098 -3.3505  1.3914 -0.9659
  631MOL0     H85135   3.021   9.913   3.198  1.4560 -0.3681 -2.1601
  631MOL0     H85136   3.058   9.524   3.224 -0.4707 -0.4243  1.3495
  631MOL0     H85137   3.264   9.461   3.558 -0.6092  0.0152  0.1004
  631MOL0     H85138   3.166   9.372   3.458 -1.0712  1.4033  3.8265
  631MOL0     H85139   3.332   9.399   3.271 -1.9320 -2.7163  0.0947
  631MOL0     H85140   3.428   9.504   3.377 -1.4500  1.0184 -1.8567
  631MOL0     H85141   3.387   9.198   3.395 -0.3901  1.6485 -1.7782
  631MOL0     H85142   3.441   9.285   3.531  1.6407  4.8558  0.1508
  631MOL0     H85143   3.636   9.206   3.405 -2.0834 -1.1761  0.4786
  631MOL0     H85144   3.623   9.387   3.355  1.0968 -1.3545  3.8977
  631MOL0     H85145   3.789   9.419   3.256 -2.4059 -2.5911  2.1407
  631MOL0     H85146   3.961   9.459   3.087  3.0967 -1.3144 -1.5541
  631MOL0     H85147   4.154   9.420   2.674  4.2192  0.7316  4.9443
  631MOL0     H85148   4.346   9.430   2.535 -1.5751 -0.0312 -1.7081
  631MOL0     H85149   4.449   9.352   2.338  0.6148  1.4537 -1.4438
  631MOL0     H85150   4.576   9.381   2.459  2.4110 -0.1618 -0.5490
  631MOL0     H85151   4.748   9.243   2.315  0.9856  0.7889 -1.5210
  631MOL0     H85152   4.621   9.205   2.207  1.0001 -0.5513 -0.8479
  631MOL0     H85153   4.598   9.464   2.186  2.4805  0.7749 -0.4382
  631MOL0     H85154   4.719   9.460   2.310  1.8897 -0.3980 -1.0832
  631MOL0     H85155   4.884   9.369   2.155 -0.0121  3.6540  3.2213
  631MOL0     H85156   4.814   9.500   2.071 -1.6578  0.0978 -0.3898
  631MOL0     H85157   4.652   9.311   1.975 -0.9339 -4.1524  3.3785
  631MOL0     H85158   4.785   9.202   2.018  0.0369  0.6093  1.1919
  631MOL0     H85159   4.807   9.288   1.787  1.2246  1.0424 -1.5152
  631MOL0     H85160   4.796   9.454   1.854  1.6741  1.1355  4.2720
  631MOL0     H85161   5.011   9.242   1.906  1.3474  1.0312  0.0661
  631MOL0     H85162   5.019   9.410   1.975 -0.5542 -1.6524  1.1598
  631MOL0     H85163   5.139   9.322   1.732 -1.3346 -0.5415 -2.1636
  631MOL0     H85164   4.993   9.401   1.681 -1.8083 -0.2318  1.6254
  631MOL0     H85165   4.383   9.005   2.555  0.9459 -0.3839  1.8480
  631MOL0     H85166   4.175   8.998   2.703 -0.8551 -1.0956 -2.8217
  631MOL0     H85167   3.821   9.105   2.880  1.4089  1.1396 -0.6879
  631MOL0     H85168   3.595   9.133   3.006 -1.9071  1.3388  1.9744
  631MOL0     H85169   2.002  10.163   3.401  0.5076  0.2564 -0.3947
  631MOL0     H85170   1.828  10.311   3.470  1.7001 -3.1129  0.7662
  631MOL0     H85171   1.442  10.475   3.188  3.4029 -0.5261  2.0919
  631MOL0     H85172   1.214  10.565   3.182  0.0335 -1.3682  0.9915
  631MOL0     H85173   1.199  10.920   3.110  0.5627  0.8478  1.0863
  631MOL0     H85174   1.187  11.008   3.258  3.3777 -0.8973  0.1216
  631MOL0     H85175   0.948  10.892   3.106 -0.4992  2.3806 -2.9314
  631MOL0     H85176   1.004  11.054   3.083 -1.7246 -1.5940 -1.3423
  631MOL0     H85177   1.003  11.077   3.357 -0.8992  1.1687  0.8123
  631MOL0     H85178   0.907  10.937   3.342  2.0825 -0.2849 -0.2988
  631MOL0     H85179   0.772  11.169   3.346  0.1372 -0.7844  1.4556
  631MOL0     H85180   0.836  11.178   3.180 -2.0215 -1.6799 -1.5372
  631MOL0     H85181   0.502  10.910   3.157 -0.8821  1.9138 -0.2491
  631MOL0     H85182   1.335  10.898   3.429 -0.0093  1.8448 -0.8309
  631MOL0     H85183   1.685  10.793   3.509 -1.1098  0.4755  1.2906
  631MOL0     H85184   1.652  10.917   3.404  1.4644  1.9408  1.8642
  631MOL0     H85185   1.557  10.900   3.551  0.5987 -0.9988  1.4441
  632MOL0     O85186   7.292   0.904   8.339 -0.0941  0.7702 -0.3370
  632MOL0     C85187   7.315   0.888   8.460 -0.2544 -0.4010 -0.4389
  632MOL0     O85188   7.432   0.841   8.518  0.1402 -0.4583 -0.0154
  632MOL0     C85189   7.531   0.788   8.438  0.1979 -0.1786 -0.4904
  632MOL0     C85190   7.573   0.664   8.487  0.6422 -0.1401 -0.4880
  632MOL0     C85191   7.669   0.592   8.423  0.4163  0.1326 -0.2916
  632MOL0     C85192   7.731   0.643   8.304 -0.7340 -0.1534 -0.5577
  632MOL0     O85193   7.837   0.595   8.239  0.0729 -0.1089  0.3156
  632MOL0     C85194   7.902   0.480   8.291  0.0657  0.6918  0.3152
  632MOL0     C85195   8.012   0.432   8.187 -0.1484  0.0396 -0.3536
  632MOL0     C85196   8.123   0.527   8.177 -0.1159  1.1887  0.8028
  632MOL0     C85197   8.242   0.470   8.106 -0.5421  0.0659  0.0531
  632MOL0     C85198   8.359   0.574   8.093  0.2112  0.0733  0.1172
  632MOL0     C85199   8.479   0.509   8.031 -1.5753 -0.7961  0.6414
  632MOL0     C85200   8.587   0.618   7.989 -0.5417  0.3226 -0.4261
  632MOL0     C85201   8.705   0.621   8.089 -0.0550  0.1207 -0.9855
  632MOL0     N85202   8.673   0.665   8.224 -0.5083  0.2174  0.4384
  632MOL0     C85203   8.579   0.762   8.254 -0.6040  0.6120  0.6652
  632MOL0     C85204   8.601   0.776   8.389  0.5165  0.5879  0.2902
  632MOL0     C85205   8.534   0.871   8.483  0.0793 -0.4857 -0.0071
  632MOL0     C85206   8.427   0.797   8.579  0.3982  0.1229  0.2520
  632MOL0     C85207   8.478   0.669   8.638 -0.3538  0.5570 -0.3938
  632MOL0     C85208   8.384   0.596   8.731  0.1092 -0.3769  0.5736
  632MOL0     O85209   8.371   0.674   8.856 -0.2749  0.4588  0.5003
  632MOL0     C85210   8.255   0.639   8.923 -0.4222 -0.2024  0.2192
  632MOL0     C85211   8.190   0.736   9.004  0.0538 -0.9327 -0.4633
  632MOL0     C85212   8.061   0.715   9.064 -0.3021 -0.1255 -0.4958
  632MOL0     C85213   7.988   0.599   9.041 -0.4499  0.3054  0.2918
  632MOL0     C85214   7.839   0.589   9.077  0.4741  0.1193  1.2003
  632MOL0     O85215   7.779   0.701   9.128 -0.0774  0.3507 -0.1333
  632MOL0     C85216   7.639   0.716   9.142 -0.3703 -0.5311  0.2718
  632MOL0     C85217   7.544   0.671   9.054  0.4495 -0.0821  0.2158
  632MOL0     C85218   7.409   0.674   9.082  0.3549  1.0866 -0.7143
  632MOL0     C85219   7.372   0.730   9.201  0.1835 -0.2538  0.0214
  632MOL0     O85220   7.235   0.721   9.229 -0.1230  0.3085  0.7590
  632MOL0     C85221   7.179   0.786   9.338  0.4877 -0.1262 -0.0160
  632MOL0     C85222   7.029   0.760   9.324 -1.2589  0.1019  0.4588
  632MOL0     C85223   6.950   0.853   9.415  0.0341  0.0372  0.2657
  632MOL0     C85224   6.803   0.803   9.426  0.0971  0.1526 -0.0244
  632MOL0     C85225   6.715   0.913   9.484  0.3764 -0.5114  0.3854
  632MOL0     C85226   6.573   0.876   9.511 -0.1980 -1.1636  0.0948
  632MOL0     C85227   6.566   0.773   9.620  0.3148  0.2759  0.6482
  632MOL0     C85228   6.413   0.760   9.653  0.4040 -0.4958 -0.3093
  632MOL0    Cl85229   6.391   0.646   9.802  0.6406  0.2590 -0.0393
  632MOL0     C85230   7.466   0.809   9.279  0.3939 -0.0997  0.2389
  632MOL0     C85231   7.598   0.797   9.246 -0.2987  0.0423 -0.2409
  632MOL0     O85232   7.785   0.482   9.064 -0.2659 -0.6920 -0.6377
  632MOL0     C85233   8.059   0.495   8.983 -0.5217  1.2403  0.2644
  632MOL0     C85234   8.190   0.516   8.917  0.3816 -0.4821  0.0480
  632MOL0     N85235   8.711   0.702   8.432  0.0562 -0.4741 -0.7600
  632MOL0     N85236   8.756   0.637   8.328 -0.7580  0.1225 -1.2168
  632MOL0     C85237   7.683   0.764   8.250  0.4057  0.2255  0.1004
  632MOL0     C85238   7.579   0.838   8.314  0.8198  0.3236 -0.6995
  632MOL0     C85239   7.215   0.950   8.546 -0.3615  0.3945 -0.6440
  632MOL0     C85240   7.121   1.036   8.484 -0.2694 -1.2946  0.6640
  632MOL0     C85241   7.003   1.079   8.540 -0.3037  0.8056 -0.3295
  632MOL0     C85242   6.966   1.030   8.661 -0.1146  0.0557 -0.6559
  632MOL0     O85243   6.850   1.074   8.728  0.3357  0.4147  0.7304
  632MOL0     C85244   6.832   1.213   8.759 -0.1768  0.7205  0.1878
  632MOL0     C85245   6.705   1.235   8.848  0.0275  0.2049  0.8044
  632MOL0     C85246   6.716   1.172   8.985  0.3222 -0.2167  0.0557
  632MOL0     C85247   6.583   1.183   9.053  0.5517  0.8354 -0.0365
  632MOL0     C85248   6.539   1.325   9.066 -0.8835 -0.8186 -0.0762
  632MOL0     C85249   6.501   1.437   9.101 -0.4165 -0.5980 -1.3960
  632MOL0     C85250   7.058   0.948   8.734 -0.1162 -0.1613  0.5358
  632MOL0     C85251   7.182   0.913   8.676  0.5388  0.0262 -0.0889
  632MOL0     C85252   7.265   0.816   8.751 -0.5861 -0.5577  0.7092
  632MOL0     H85253   7.516   0.628   8.572  0.0422  0.0696 -0.7937
  632MOL0     H85254   7.713   0.504   8.469 -0.5233  0.3392  1.0463
  632MOL0     H85255   7.939   0.491   8.394  2.0901  0.2338 -0.3315
  632MOL0     H85256   7.825   0.403   8.290 -2.0537  2.6995 -0.0799
  632MOL0     H85257   7.979   0.429   8.082  1.0543  1.7316 -0.8239
  632MOL0     H85258   8.040   0.334   8.226 -1.7432 -0.2520  0.1232
  632MOL0     H85259   8.155   0.569   8.273 -1.1353  1.3506  1.0859
  632MOL0     H85260   8.086   0.611   8.116 -0.4635  0.6502  0.2610
  632MOL0     H85261   8.287   0.390   8.166 -0.8343  0.7220  1.1667
  632MOL0     H85262   8.213   0.430   8.009  0.5434  1.0820 -0.7190
  632MOL0     H85263   8.333   0.663   8.035 -0.0112 -0.5207 -0.7252
  632MOL0     H85264   8.382   0.612   8.193 -2.3832  0.7198  0.5519
  632MOL0     H85265   8.522   0.433   8.098 -0.9744 -1.6013 -0.6051
  632MOL0     H85266   8.456   0.459   7.937  0.1783 -2.1406  0.8668
  632MOL0     H85267   8.543   0.719   7.993 -0.0066  0.5579 -0.5017
  632MOL0     H85268   8.623   0.607   7.887  1.3563  1.3524  0.0873
  632MOL0     H85269   8.751   0.522   8.090  3.1763  1.4933 -0.0404
  632MOL0     H85270   8.783   0.691   8.056  1.3608 -0.5972  0.7120
  632MOL0     H85271   8.517   0.815   8.182 -0.1784 -1.5253 -1.4404
  632MOL0     H85272   8.616   0.918   8.538  2.7487  0.2336 -4.1176
  632MOL0     H85273   8.488   0.954   8.428  0.0783  0.2914  1.1214
  632MOL0     H85274   8.420   0.877   8.653  6.2123 -0.4224  1.8927
  632MOL0     H85275   8.325   0.775   8.545  1.2055 -2.1953 -0.8408
  632MOL0     H85276   8.569   0.682   8.698 -0.8844 -2.2266  1.1923
  632MOL0     H85277   8.506   0.603   8.556 -1.9118 -0.1619 -0.3796
  632MOL0     H85278   8.432   0.500   8.751  0.7700  0.1442  1.5975
  632MOL0     H85279   8.284   0.598   8.687  0.3528  2.8715 -0.1387
  632MOL0     H85280   8.246   0.828   9.017 -1.2134 -0.2260  0.1958
  632MOL0     H85281   8.029   0.803   9.118  1.4504  1.2872 -1.6371
  632MOL0     H85282   7.579   0.626   8.961 -1.3267 -1.0439 -0.0435
  632MOL0     H85283   7.333   0.647   9.010 -0.5083  2.3251 -0.2886
  632MOL0     H85284   7.218   0.741   9.429 -2.3338 -0.0987  1.2955
  632MOL0     H85285   7.202   0.893   9.339  1.7783 -0.3986  0.9107
  632MOL0     H85286   7.002   0.792   9.223 -0.9495  1.3896  0.7519
  632MOL0     H85287   7.001   0.656   9.339  0.3919 -0.6896 -1.4806
  632MOL0     H85288   6.995   0.859   9.515 -1.0905  3.2763  0.6771
  632MOL0     H85289   6.948   0.952   9.368  0.2580  0.8230  1.8340
  632MOL0     H85290   6.800   0.713   9.488  0.5698 -0.0446 -0.2821
  632MOL0     H85291   6.765   0.771   9.329  1.3406  0.0456 -0.4940
  632MOL0     H85292   6.709   0.988   9.404 -0.4193 -0.6392  0.3135
  632MOL0     H85293   6.764   0.943   9.577 -2.1133  2.6840  0.8479
  632MOL0     H85294   6.507   0.962   9.524  0.1794 -0.5815 -1.5742
  632MOL0     H85295   6.546   0.833   9.413  1.2315  2.1036 -1.8786
  632MOL0     H85296   6.625   0.815   9.703  1.2844  0.0954  0.0693
  632MOL0     H85297   6.610   0.679   9.585 -1.8436 -0.5483 -0.0308
  632MOL0     H85298   6.373   0.860   9.669  0.4624 -0.3860 -0.8553
  632MOL0     H85299   6.366   0.715   9.565 -2.5489  0.8561  0.4663
  632MOL0     H85300   7.441   0.871   9.364  0.5132  1.4604 -0.8182
  632MOL0     H85301   7.675   0.846   9.305 -1.3181  2.0882 -0.5218
  632MOL0     H85302   8.005   0.401   8.971 -0.2607  0.8788  1.7143
  632MOL0     H85303   8.220   0.437   8.849 -1.6757 -1.7727  0.5331
  632MOL0     H85304   7.726   0.798   8.157 -0.8615 -0.2232 -0.6779
  632MOL0     H85305   7.548   0.928   8.262  1.6991  1.2426  0.3092
  632MOL0     H85306   7.127   1.071   8.381 -0.8678 -0.7746  0.7978
  632MOL0     H85307   6.932   1.140   8.485 -1.1734 -0.4276 -0.6105
  632MOL0     H85308   6.824   1.257   8.659 -2.5375 -1.9820 -0.9476
  632MOL0     H85309   6.913   1.250   8.823 -0.8377  3.3594 -0.3894
  632MOL0     H85310   6.618   1.184   8.807  1.1382 -0.0671 -1.3283
  632MOL0     H85311   6.689   1.343   8.861  1.0614  0.4625  0.0410
  632MOL0     H85312   6.790   1.227   9.044 -0.3075  4.4934 -2.9984
  632MOL0     H85313   6.741   1.066   8.979 -3.7039 -1.2817 -1.4493
  632MOL0     H85314   6.514   1.121   8.996  2.2596 -1.6819  0.4578
  632MOL0     H85315   6.591   1.136   9.151  1.9072  2.9689  0.9719
  632MOL0     H85316   6.466   1.532   9.137  0.3143 -2.4039  5.6290
  632MOL0     H85317   7.031   0.914   8.833 -0.0255 -2.1006 -0.0602
  632MOL0     H85318   7.360   0.861   8.782  1.1441 -2.1093 -1.8897
  632MOL0     H85319   7.210   0.772   8.834  0.4013  0.3865  1.9048
  632MOL0     H85320   7.297   0.731   8.689  0.3643 -1.7245  2.6619
  633MOL0     O85321   5.872   3.426   8.912 -0.7656 -0.5486  0.4292
  633MOL0     C85322   5.856   3.364   8.806  0.1478 -0.5522 -0.0400
  633MOL0     O85323   5.923   3.376   8.687 -1.2162  0.2308  0.0565
  633MOL0     C85324   6.041   3.441   8.663 -0.2119  0.8538  0.2202
  633MOL0     C85325   6.096   3.425   8.536 -0.5239 -0.1608 -0.4966
  633MOL0     C85326   6.215   3.490   8.495 -0.3069 -1.2212 -0.7449
  633MOL0     C85327   6.276   3.574   8.594 -0.3710 -0.4155 -0.5988
  633MOL0     O85328   6.389   3.645   8.566 -0.1228 -0.8930 -0.6326
  633MOL0     C85329   6.411   3.689   8.427  0.0050  0.3486 -0.2095
  633MOL0     C85330   6.529   3.792   8.411  0.5803  0.3890  0.8809
  633MOL0     C85331   6.644   3.784   8.512 -0.2507 -0.8241  0.3522
  633MOL0     C85332   6.781   3.820   8.448 -0.4540 -0.3364  0.3976
  633MOL0     C85333   6.893   3.842   8.558  0.4247  0.0397  0.2067
  633MOL0     C85334   7.028   3.879   8.491  0.3634  0.0539 -0.1286
  633MOL0     C85335   7.136   3.910   8.590  0.2303 -0.6835  0.8670
  633MOL0     C85336   7.238   4.006   8.527 -0.6258 -0.7062  0.5274
  633MOL0     N85337   7.371   3.997   8.584 -0.4175 -0.4208  0.6137
  633MOL0     C85338   7.484   4.041   8.512 -0.8670 -0.6593  0.3664
  633MOL0     C85339   7.591   4.017   8.589  0.2306 -0.3337 -0.3940
  633MOL0     C85340   7.745   4.013   8.564 -0.3805 -0.0227 -0.0087
  633MOL0     C85341   7.800   4.156   8.548  0.9375  0.2081 -0.0331
  633MOL0     C85342   7.805   4.217   8.687  0.7562 -0.2416  0.2970
  633MOL0     C85343   7.904   4.328   8.713 -0.5000 -0.2171 -0.1068
  633MOL0     O85344   8.036   4.273   8.700  0.1371  0.2172  0.3805
  633MOL0     C85345   8.139   4.361   8.724  0.3448 -0.3949  0.3888
  633MOL0     C85346   8.129   4.501   8.743 -0.8032 -0.1101  0.0800
  633MOL0     C85347   8.242   4.587   8.753  0.1405  0.3992 -0.1833
  633MOL0     C85348   8.374   4.526   8.736 -0.1380  0.1677  0.1835
  633MOL0     C85349   8.494   4.606   8.729 -0.0917 -0.0522 -0.7048
  633MOL0     O85350   8.473   4.723   8.658  0.3512 -0.0755 -0.0621
  633MOL0     C85351   8.582   4.793   8.606 -0.2122  1.2505  0.4899
  633MOL0     C85352   8.685   4.832   8.691  0.3723  0.4267 -0.3631
  633MOL0     C85353   8.793   4.901   8.646  0.2487  0.4059 -0.3498
  633MOL0     C85354   8.797   4.943   8.513  0.4335  0.5126  0.4025
  633MOL0     O85355   8.891   5.019   8.458 -0.1586 -0.4023  0.2175
  633MOL0     C85356   8.950   5.127   8.531  0.4594  0.6125 -0.2033
  633MOL0     C85357   9.041   5.187   8.425  0.4518  0.5101 -0.2986
  633MOL0     C85358   9.178   5.112   8.422 -0.4968  1.3227 -0.2340
  633MOL0     C85359   9.250   5.148   8.296  0.9910 -0.6618  0.5845
  633MOL0     C85360   9.399   5.108   8.303  0.7403 -0.6080 -0.6700
  633MOL0     C85361   9.487   5.157   8.190  0.2135 -0.0138  0.3087
  633MOL0     C85362   9.443   5.083   8.059 -0.4225 -0.9249  0.5946
  633MOL0     C85363   9.479   5.162   7.937 -1.1532  0.1945 -0.3217
  633MOL0    Cl85364   9.657   5.181   7.906 -0.4361 -0.2106  0.2354
  633MOL0     C85365   8.690   4.907   8.430 -0.3369 -0.8900  0.8282
  633MOL0     C85366   8.581   4.834   8.474  0.4875  0.3483  0.0514
  633MOL0     O85367   8.598   4.558   8.773  0.9232  0.9271 -0.9305
  633MOL0     C85368   8.381   4.385   8.714  0.8620 -0.2301 -0.2526
  633MOL0     C85369   8.267   4.304   8.710 -0.7290  0.0894  0.2171
  633MOL0     N85370   7.538   3.946   8.691 -0.2957  0.2600 -0.3501
  633MOL0     N85371   7.411   3.923   8.687  0.6198  0.3586  0.1747
  633MOL0     C85372   6.235   3.575   8.729 -0.2360 -0.8730  0.1084
  633MOL0     C85373   6.123   3.503   8.761 -0.0158  0.3119 -0.0372
  633MOL0     C85374   5.746   3.271   8.799  1.0003  0.0759  0.2690
  633MOL0     C85375   5.607   3.311   8.816  0.2804 -0.3474  0.9624
  633MOL0     C85376   5.507   3.223   8.786  0.3641  0.8590 -0.2318
  633MOL0     C85377   5.532   3.092   8.747  0.2148  0.0181  0.6471
  633MOL0     O85378   5.430   3.009   8.711 -0.1743 -0.3017 -0.6001
  633MOL0     C85379   5.458   2.892   8.635  0.5163  0.4563 -0.5983
  633MOL0     C85380   5.318   2.837   8.589 -0.9047  0.5111  0.0099
  633MOL0     C85381   5.226   2.771   8.694 -0.4709 -0.1826  0.7052
  633MOL0     C85382   5.090   2.731   8.634  0.3269 -0.5513 -1.1164
  633MOL0     C85383   4.980   2.833   8.638  0.2812  1.3660 -0.6867
  633MOL0     C85384   4.882   2.899   8.612 -0.6791 -0.1056  0.3744
  633MOL0     C85385   5.672   3.059   8.733 -0.0274 -0.4301 -0.4120
  633MOL0     C85386   5.777   3.146   8.763 -0.5487 -0.3703 -0.2008
  633MOL0     C85387   5.918   3.093   8.742  0.4087  0.5290 -0.0877
  633MOL0     H85388   6.034   3.359   8.476  0.4620 -1.3069 -0.3125
  633MOL0     H85389   6.261   3.475   8.398 -1.8819  1.6526 -2.0458
  633MOL0     H85390   6.444   3.600   8.373 -0.0664 -1.2480  2.2179
  633MOL0     H85391   6.318   3.727   8.383  1.2824  2.2360 -1.4158
  633MOL0     H85392   6.475   3.887   8.408 -3.7250 -1.7946 -0.1370
  633MOL0     H85393   6.567   3.773   8.311 -0.2552  1.0722  0.4237
  633MOL0     H85394   6.656   3.680   8.544  0.9895  0.1880  3.5223
  633MOL0     H85395   6.626   3.857   8.591  2.5296  3.4151 -2.4626
  633MOL0     H85396   6.817   3.738   8.384 -0.7131  0.2511 -0.5192
  633MOL0     H85397   6.776   3.909   8.385 -1.8838 -1.6121 -1.4018
  633MOL0     H85398   6.860   3.916   8.632 -4.0619 -1.4747  0.0362
  633MOL0     H85399   6.916   3.747   8.608  1.5899 -0.3143 -0.9773
  633MOL0     H85400   7.052   3.796   8.424 -1.3623  0.1122 -0.8705
  633MOL0     H85401   7.013   3.968   8.430 -0.2923  0.7602  1.0329
  633MOL0     H85402   7.199   3.822   8.604 -0.5825 -2.2721 -3.6904
  633MOL0     H85403   7.101   3.948   8.686 -0.7377  0.9815 -0.0823
  633MOL0     H85404   7.248   3.987   8.420 -2.0571  2.3732 -0.2533
  633MOL0     H85405   7.194   4.103   8.549  0.6903 -0.2958  1.5093
  633MOL0     H85406   7.489   4.078   8.410  2.3904 -0.3656  0.5291
  633MOL0     H85407   7.793   3.954   8.643  0.4720 -0.9721 -1.2016
  633MOL0     H85408   7.750   3.961   8.468 -1.4382  2.7391 -1.6871
  633MOL0     H85409   7.900   4.165   8.504  1.0754  0.1189  0.2612
  633MOL0     H85410   7.735   4.218   8.485  0.3480  1.0850  1.3932
  633MOL0     H85411   7.837   4.133   8.750 -2.3320 -1.0565  0.9484
  633MOL0     H85412   7.706   4.245   8.724  0.2336  0.1653 -1.3255
  633MOL0     H85413   7.894   4.377   8.810  2.0548  1.6747 -0.6840
  633MOL0     H85414   7.877   4.387   8.625  0.4667 -2.1829 -1.8391
  633MOL0     H85415   8.031   4.547   8.742 -0.8742 -0.2230  1.0735
  633MOL0     H85416   8.224   4.693   8.771 -0.9242  0.1451  0.3346
  633MOL0     H85417   8.672   4.806   8.796 -1.8355  1.1698 -0.3989
  633MOL0     H85418   8.870   4.932   8.715  0.8156  1.3991 -1.3820
  633MOL0     H85419   8.887   5.202   8.580 -1.4598 -1.6483  1.0105
  633MOL0     H85420   9.002   5.080   8.615 -2.2188 -0.9567  0.6946
  633MOL0     H85421   8.999   5.172   8.325 -1.1450  0.5644  0.3408
  633MOL0     H85422   9.066   5.292   8.436  2.1377  0.3434 -2.0514
  633MOL0     H85423   9.239   5.147   8.506  0.8209  1.0009 -1.0191
  633MOL0     H85424   9.168   5.003   8.431  0.9455  1.2173  0.3637
  633MOL0     H85425   9.244   5.257   8.285 -1.5998 -0.6855  1.2462
  633MOL0     H85426   9.197   5.106   8.211  0.7383 -1.4982  1.1389
  633MOL0     H85427   9.400   5.001   8.326 -6.3330 -0.9425  0.0487
  633MOL0     H85428   9.434   5.162   8.391  1.8900 -0.1789 -1.3524
  633MOL0     H85429   9.469   5.264   8.183  1.3340  0.0616 -3.2337
  633MOL0     H85430   9.591   5.128   8.210 -0.6623 -4.1451 -0.2042
  633MOL0     H85431   9.338   5.054   8.052 -1.5825  2.9487 -0.3587
  633MOL0     H85432   9.502   4.991   8.056  1.3423  0.1578  0.3836
  633MOL0     H85433   9.447   5.094   7.857 -1.8545 -0.3593  0.4171
  633MOL0     H85434   9.428   5.258   7.947  3.6821  2.8489  3.0272
  633MOL0     H85435   8.688   4.942   8.327  0.4329  1.4441  1.5552
  633MOL0     H85436   8.495   4.805   8.414  0.1438  0.9244  0.2587
  633MOL0     H85437   8.478   4.337   8.698  0.0405 -1.9079 -0.4757
  633MOL0     H85438   8.277   4.197   8.690  2.1492  0.6444 -1.9955
  633MOL0     H85439   6.285   3.631   8.808 -1.3412 -1.1267  1.0193
  633MOL0     H85440   6.100   3.500   8.867  1.6906  3.0066  0.5115
  633MOL0     H85441   5.589   3.416   8.835  1.8791  0.4004 -1.1734
  633MOL0     H85442   5.404   3.252   8.804 -0.1914 -1.6580  1.0384
  633MOL0     H85443   5.507   2.814   8.694 -1.5677 -0.6944 -0.2751
  633MOL0     H85444   5.519   2.917   8.548  0.7556 -0.6741 -0.7809
  633MOL0     H85445   5.346   2.767   8.511 -1.9326  0.6384 -0.4954
  633MOL0     H85446   5.259   2.920   8.548  2.0940  1.4471 -2.8223
  633MOL0     H85447   5.211   2.846   8.772  0.2909 -0.0807  0.7553
  633MOL0     H85448   5.267   2.680   8.738 -2.1043 -0.2641  2.1605
  633MOL0     H85449   5.104   2.673   8.542  0.8685 -2.4816  0.1063
  633MOL0     H85450   5.037   2.657   8.696 -0.4079  1.0937  0.2883
  633MOL0     H85451   4.821   2.986   8.599  3.9531  3.2295 -1.3315
  633MOL0     H85452   5.702   2.963   8.690 -0.0156 -1.6226  2.1031
  633MOL0     H85453   5.967   3.111   8.645  1.0862 -0.3761  0.0728
  633MOL0     H85454   5.980   3.129   8.824 -1.6974  1.7327  1.0532
  633MOL0     H85455   5.899   2.985   8.739  1.8979  0.2668 -1.6875
  634MOL0     O85456   5.070   6.373   4.786 -0.2361  0.0375  0.6598
  634MOL0     C85457   5.179   6.316   4.780  0.1593 -0.5134  0.1868
  634MOL0     O85458   5.202   6.177   4.770  0.2180 -0.0378  0.2205
  634MOL0     C85459   5.116   6.093   4.710  0.2955 -0.2501  1.2447
  634MOL0     C85460   5.124   5.954   4.712  0.1904  0.5003 -0.1425
  634MOL0     C85461   5.031   5.866   4.649  0.1207 -0.5204  0.1322
  634MOL0     C85462   4.929   5.911   4.567 -0.2089 -0.0597  0.4150
  634MOL0     O85463   4.853   5.837   4.475 -0.6283  0.3594 -0.0111
  634MOL0     C85464   4.819   5.703   4.527 -0.1217  0.1241  0.5166
  634MOL0     C85465   4.744   5.636   4.414 -0.6230  0.2910  0.1491
  634MOL0     C85466   4.593   5.678   4.415 -0.9719  0.1691 -0.0703
  634MOL0     C85467   4.522   5.619   4.297  0.1664 -0.0534  0.1468
  634MOL0     C85468   4.377   5.660   4.276  0.7370 -0.0551 -0.3591
  634MOL0     C85469   4.290   5.610   4.395  0.3632  0.1638 -0.9035
  634MOL0     C85470   4.146   5.572   4.364 -0.2435 -0.0098  0.4490
  634MOL0     C85471   4.063   5.543   4.485 -1.0885 -0.2357 -0.0843
  634MOL0     N85472   4.126   5.433   4.564 -0.5358  0.3949  0.3524
  634MOL0     C85473   4.217   5.435   4.672 -0.0561  0.5103 -0.0503
  634MOL0     C85474   4.212   5.311   4.729  0.2733  0.0001 -0.1864
  634MOL0     C85475   4.260   5.275   4.872  0.6282 -0.0668  0.3000
  634MOL0     C85476   4.405   5.271   4.869  0.5180  0.3467 -0.4291
  634MOL0     C85477   4.459   5.311   5.005  0.5902  1.0897  0.3082
  634MOL0     C85478   4.605   5.278   5.003  0.0880 -0.4293 -0.1637
  634MOL0     O85479   4.637   5.144   5.052 -0.8282  0.3013  0.1969
  634MOL0     C85480   4.771   5.102   5.077 -0.2273  0.1929  0.2290
  634MOL0     C85481   4.781   4.984   5.160  0.4748  0.8632  0.2444
  634MOL0     C85482   4.908   4.937   5.195  0.0843  0.3851  1.1303
  634MOL0     C85483   5.030   4.998   5.156  0.4564  0.7660  0.1253
  634MOL0     C85484   5.166   4.952   5.207  0.0897  0.0238 -0.5414
  634MOL0     O85485   5.279   5.006   5.150 -0.3186  0.1645  0.3742
  634MOL0     C85486   5.401   4.955   5.181  0.6427 -0.4504 -0.3141
  634MOL0     C85487   5.501   4.960   5.085  0.1360  0.1865 -0.0351
  634MOL0     C85488   5.630   4.919   5.114  0.4519 -0.2057 -1.1405
  634MOL0     C85489   5.661   4.890   5.249 -0.1760 -0.0174 -0.2598
  634MOL0     O85490   5.793   4.851   5.290 -0.1439  0.6527 -0.3543
  634MOL0     C85491   5.886   4.958   5.270  0.3355 -0.5035 -0.1904
  634MOL0     C85492   6.013   4.918   5.346  0.6261  0.4286 -0.1771
  634MOL0     C85493   6.076   4.788   5.271  0.9251 -0.1346 -0.0596
  634MOL0     C85494   6.190   4.737   5.355  0.1726  0.1067 -0.2128
  634MOL0     C85495   6.255   4.613   5.293  0.4895  0.6759 -1.2386
  634MOL0     C85496   6.367   4.645   5.190  0.2913 -0.0937 -0.3248
  634MOL0     C85497   6.507   4.608   5.246  0.4525  0.4223 -0.5976
  634MOL0     C85498   6.614   4.618   5.140  0.3497  0.0443  0.6331
  634MOL0    Cl85499   6.773   4.596   5.221 -0.1059 -0.0340  0.0282
  634MOL0     C85500   5.567   4.908   5.350  0.1019 -0.2170  0.0190
  634MOL0     C85501   5.437   4.941   5.320  0.0967  0.5531  0.4702
  634MOL0     O85502   5.167   4.855   5.279 -0.6561  0.1838 -0.2818
  634MOL0     C85503   5.021   5.112   5.079  0.4878 -1.0005 -0.6378
  634MOL0     C85504   4.893   5.167   5.045  0.7851 -0.4190  0.6289
  634MOL0     N85505   4.128   5.229   4.655  0.3442  0.4156  0.5510
  634MOL0     N85506   4.082   5.297   4.550  0.3457 -0.1455 -0.0875
  634MOL0     C85507   4.914   6.051   4.568 -0.1157  0.3643  0.6789
  634MOL0     C85508   5.005   6.139   4.630  0.2193  0.0492  0.3439
  634MOL0     C85509   5.305   6.397   4.809  0.4067  0.3634  0.9207
  634MOL0     C85510   5.428   6.347   4.774  0.1854  0.6992  0.4017
  634MOL0     C85511   5.542   6.426   4.784  1.0022  0.4227  0.3521
  634MOL0     C85512   5.538   6.541   4.860  0.2890  0.5512  0.4851
  634MOL0     O85513   5.654   6.608   4.887  0.1816  0.4135  0.4717
  634MOL0     C85514   5.785   6.562   4.878  0.0286  0.3616  0.1431
  634MOL0     C85515   5.842   6.617   4.750  0.3466  0.6192  0.2536
  634MOL0     C85516   5.913   6.750   4.785 -1.0189 -0.8867 -0.4968
  634MOL0     C85517   6.001   6.810   4.675 -0.0431 -0.3331 -0.7066
  634MOL0     C85518   5.928   6.850   4.553  0.3238  0.4203 -0.0607
  634MOL0     C85519   5.861   6.869   4.451  0.0221  0.3972  0.0966
  634MOL0     C85520   5.423   6.585   4.919  0.0325  0.4794 -0.4187
  634MOL0     C85521   5.300   6.515   4.892 -1.3555 -0.3413  0.3373
  634MOL0     C85522   5.184   6.565   4.955 -0.5321  0.9225 -0.2020
  634MOL0     H85523   5.200   5.902   4.769  0.9719 -0.7238 -2.1646
  634MOL0     H85524   5.041   5.758   4.646 -0.7217 -0.5914 -0.3379
  634MOL0     H85525   4.911   5.648   4.547  0.5203  1.0711  0.2258
  634MOL0     H85526   4.758   5.709   4.618 -1.7110  1.7671 -0.5926
  634MOL0     H85527   4.751   5.527   4.423 -1.3267  0.1212 -1.1426
  634MOL0     H85528   4.800   5.666   4.326  0.9360  0.9865  1.3262
  634MOL0     H85529   4.597   5.787   4.412  5.7261  0.4828  2.4249
  634MOL0     H85530   4.540   5.651   4.506 -1.1063 -1.1808 -0.5221
  634MOL0     H85531   4.569   5.656   4.206 -1.2021  0.0122 -0.5664
  634MOL0     H85532   4.534   5.511   4.295  2.3937  0.1625 -0.3796
  634MOL0     H85533   4.379   5.769   4.273 -0.5484 -0.0324 -2.6454
  634MOL0     H85534   4.341   5.612   4.184 -3.4090 -1.5924  1.7970
  634MOL0     H85535   4.330   5.513   4.428  1.3253  0.9330  0.2622
  634MOL0     H85536   4.289   5.679   4.479  0.7349  0.5542 -1.2108
  634MOL0     H85537   4.148   5.486   4.297  1.2039 -0.6606  1.2631
  634MOL0     H85538   4.108   5.659   4.311  0.3549 -1.1333 -1.9329
  634MOL0     H85539   4.053   5.634   4.546 -1.0100 -1.0798  1.2308
  634MOL0     H85540   3.960   5.514   4.464 -1.4195  0.0587  1.0429
  634MOL0     H85541   4.256   5.526   4.716 -0.7382  1.4247 -1.2711
  634MOL0     H85542   4.213   5.334   4.951 -0.7248 -3.1590  1.9712
  634MOL0     H85543   4.233   5.170   4.884  1.6483 -0.6927 -2.3195
  634MOL0     H85544   4.445   5.177   4.829 -1.8307 -1.9031  2.0473
  634MOL0     H85545   4.444   5.348   4.802  0.0648  0.1402 -0.9403
  634MOL0     H85546   4.405   5.265   5.088  1.6345 -0.5224  0.1484
  634MOL0     H85547   4.446   5.418   5.022 -0.6674  1.0200 -0.0907
  634MOL0     H85548   4.664   5.346   5.065 -2.4728  2.1602 -0.3539
  634MOL0     H85549   4.650   5.289   4.903 -0.7573 -1.5365 -0.6842
  634MOL0     H85550   4.683   4.943   5.183  1.0614 -2.8408 -2.8635
  634MOL0     H85551   4.907   4.850   5.260  3.2180  0.8838  2.0318
  634MOL0     H85552   5.469   4.988   4.985 -0.3260 -2.0121 -0.5608
  634MOL0     H85553   5.712   4.918   5.042  2.9756 -0.9087  1.5597
  634MOL0     H85554   5.890   4.996   5.168 -3.7004  3.3729  0.7519
  634MOL0     H85555   5.849   5.042   5.331 -0.6327 -2.0626  1.4583
  634MOL0     H85556   6.082   5.002   5.340 -0.5500  1.2876 -3.1684
  634MOL0     H85557   5.994   4.888   5.450 -0.1255  2.4547  0.3071
  634MOL0     H85558   5.991   4.720   5.258 -0.9568  1.7896  1.5401
  634MOL0     H85559   6.120   4.827   5.179  1.2062  3.0040  1.2997
  634MOL0     H85560   6.149   4.700   5.449 -0.8123 -3.3235 -1.8045
  634MOL0     H85561   6.259   4.819   5.373 -0.1649  0.4185 -0.3339
  634MOL0     H85562   6.175   4.546   5.258  0.8733 -0.0164 -0.8095
  634MOL0     H85563   6.312   4.563   5.372  1.1873  0.3040 -1.9652
  634MOL0     H85564   6.343   4.581   5.105  1.5135  0.6516 -1.2530
  634MOL0     H85565   6.369   4.751   5.162  0.5497  0.2627  0.9622
  634MOL0     H85566   6.504   4.504   5.282  1.2963  0.3380 -0.7546
  634MOL0     H85567   6.529   4.663   5.338 -1.4366 -0.7187  0.6173
  634MOL0     H85568   6.603   4.543   5.062 -1.7807 -0.0160  0.9200
  634MOL0     H85569   6.611   4.717   5.093 -1.9299 -1.8632 -3.7963
  634MOL0     H85570   5.606   4.891   5.450  2.4117  3.3298 -0.1019
  634MOL0     H85571   5.362   4.962   5.395  1.2620 -0.4012  1.9478
  634MOL0     H85572   5.109   5.163   5.042 -0.8726  1.0777 -1.1866
  634MOL0     H85573   4.880   5.245   4.970 -0.4677 -1.2179 -0.0274
  634MOL0     H85574   4.830   6.097   4.518 -0.1876 -0.3072  0.1636
  634MOL0     H85575   4.975   6.242   4.614 -1.8627 -0.4742  0.5868
  634MOL0     H85576   5.439   6.248   4.729 -0.4065  1.8744 -2.5732
  634MOL0     H85577   5.635   6.380   4.754  0.7923 -1.2404  2.1170
  634MOL0     H85578   5.789   6.452   4.877 -1.1026  0.3050 -0.3728
  634MOL0     H85579   5.841   6.601   4.963  1.3860  0.0664 -0.5773
  634MOL0     H85580   5.758   6.629   4.681  0.3513 -2.5335 -0.4757
  634MOL0     H85581   5.898   6.543   4.691 -0.4627  0.8596 -0.8465
  634MOL0     H85582   5.985   6.729   4.865 -0.0902  0.7056 -0.8652
  634MOL0     H85583   5.841   6.824   4.820 -1.0945 -1.0243 -0.3575
  634MOL0     H85584   6.042   6.903   4.715 -2.1957  0.4521 -0.1535
  634MOL0     H85585   6.085   6.743   4.653 -1.1845 -0.9939 -3.4829
  634MOL0     H85586   5.802   6.899   4.367 -0.9531  1.6268  1.1688
  634MOL0     H85587   5.427   6.674   4.982 -1.6209 -0.0158  0.4349
  634MOL0     H85588   5.144   6.633   4.878  0.7266  1.5783 -0.3063
  634MOL0     H85589   5.113   6.487   4.983  1.2369 -0.8864 -0.5286
  634MOL0     H85590   5.200   6.637   5.035  1.3663 -0.6671  0.9300
  635MOL0     O85591   4.574   7.577   3.426 -0.0231  0.2878 -0.3187
  635MOL0     C85592   4.477   7.544   3.493 -0.0966 -0.3671  0.0922
  635MOL0     O85593   4.488   7.481   3.611 -0.0624 -1.3072  1.0031
  635MOL0     C85594   4.612   7.449   3.662  0.2932  0.2804 -0.6364
  635MOL0     C85595   4.683   7.535   3.740 -0.0956  0.0476  0.0892
  635MOL0     C85596   4.799   7.493   3.802 -0.5193 -0.3625 -0.0861
  635MOL0     C85597   4.853   7.362   3.783  0.6782  0.0523 -1.0323
  635MOL0     O85598   4.967   7.339   3.861 -1.1066  0.9391  1.2393
  635MOL0     C85599   5.021   7.205   3.863 -1.2056 -0.0057 -0.4001
  635MOL0     C85600   5.153   7.200   3.946  0.4565 -0.0545 -0.5032
  635MOL0     C85601   5.120   7.206   4.097 -0.6556 -0.0847  0.5205
  635MOL0     C85602   5.243   7.157   4.174 -0.9565  0.3897 -0.1190
  635MOL0     C85603   5.377   7.228   4.151 -0.1050 -0.6551 -0.1077
  635MOL0     C85604   5.386   7.383   4.175 -0.3232 -1.1552  0.1760
  635MOL0     C85605   5.533   7.426   4.151 -0.6884 -0.0201  0.2668
  635MOL0     C85606   5.551   7.579   4.149  0.5464 -0.0651 -0.5854
  635MOL0     N85607   5.691   7.626   4.155  0.3441  0.0086  0.7491
  635MOL0     C85608   5.774   7.608   4.259 -0.3643 -0.8856 -0.3049
  635MOL0     C85609   5.888   7.680   4.227 -0.8504 -0.4157 -0.7050
  635MOL0     C85610   6.017   7.687   4.307 -0.1148  0.5176  0.3027
  635MOL0     C85611   6.110   7.560   4.288  0.1210 -0.8661 -0.6487
  635MOL0     C85612   6.157   7.540   4.150 -0.5251 -1.8284  0.9738
  635MOL0     C85613   6.272   7.644   4.130 -0.5625  0.0778 -0.2569
  635MOL0     O85614   6.367   7.611   4.231  0.9518 -0.9102  0.4621
  635MOL0     C85615   6.494   7.658   4.215 -0.0105  0.0711  0.4541
  635MOL0     C85616   6.580   7.592   4.290 -0.2831  0.2760 -0.0967
  635MOL0     C85617   6.722   7.611   4.277 -0.2412 -0.3455  0.3261
  635MOL0     C85618   6.774   7.704   4.184 -0.1384 -0.0002  0.2465
  635MOL0     C85619   6.912   7.747   4.185  0.6637  0.6331  0.3678
  635MOL0     O85620   7.007   7.676   4.247  0.3681 -0.7269 -0.2154
  635MOL0     C85621   7.140   7.715   4.253 -0.3420  0.1714 -0.7226
  635MOL0     C85622   7.234   7.617   4.220 -0.5347 -0.0819  0.5794
  635MOL0     C85623   7.373   7.643   4.231  0.8661  0.3206  0.0393
  635MOL0     C85624   7.417   7.764   4.286 -0.2791 -0.4009  0.5538
  635MOL0     O85625   7.552   7.786   4.315 -0.0035  0.4058 -0.5184
  635MOL0     C85626   7.604   7.698   4.413  0.1287  0.5334  0.1390
  635MOL0     C85627   7.752   7.739   4.445  0.2425  0.3095 -0.2696
  635MOL0     C85628   7.773   7.844   4.552 -0.4189 -1.1730  0.3558
  635MOL0     C85629   7.784   7.787   4.688  0.0490  1.0544 -0.0893
  635MOL0     C85630   7.826   7.881   4.795  1.3408  0.0360 -0.1106
  635MOL0     C85631   7.832   7.825   4.929  0.2384  0.1093 -0.2919
  635MOL0     C85632   7.865   7.940   5.028 -0.4289  0.2666  0.0942
  635MOL0     C85633   7.871   7.887   5.171 -0.3334 -0.2653  0.2125
  635MOL0    Cl85634   7.758   7.757   5.209  0.7223  0.0968  0.3598
  635MOL0     C85635   7.327   7.866   4.314  0.4309  0.3746  0.2092
  635MOL0     C85636   7.190   7.843   4.295 -0.7086  0.4585 -0.8011
  635MOL0     O85637   6.938   7.852   4.120 -0.1736  0.3289 -0.3687
  635MOL0     C85638   6.672   7.774   4.098 -0.2480 -0.7750 -0.2563
  635MOL0     C85639   6.534   7.746   4.113 -0.5691  0.2345 -0.4351
  635MOL0     N85640   5.875   7.727   4.100 -0.3049 -0.5407 -0.1690
  635MOL0     N85641   5.757   7.705   4.061 -0.1797 -0.2123 -0.3039
  635MOL0     C85642   4.781   7.272   3.703  0.7647  0.1391 -0.5030
  635MOL0     C85643   4.663   7.320   3.635 -0.7112  0.0659 -0.1611
  635MOL0     C85644   4.346   7.593   3.447  0.1452  0.4437 -0.1381
  635MOL0     C85645   4.347   7.715   3.371  0.1485 -0.1106  0.6065
  635MOL0     C85646   4.225   7.763   3.324  0.1083 -0.1794  0.7690
  635MOL0     C85647   4.104   7.708   3.360 -0.2720  0.1062  0.0833
  635MOL0     O85648   3.992   7.781   3.324 -0.3195 -0.0818 -0.6207
  635MOL0     C85649   3.862   7.738   3.381 -0.7461  0.0335  0.5859
  635MOL0     C85650   3.789   7.865   3.422 -0.4019 -0.0900 -0.4614
  635MOL0     C85651   3.866   7.943   3.526  0.3462 -0.5843 -0.2262
  635MOL0     C85652   3.920   8.074   3.464  0.2747  0.7775 -0.5043
  635MOL0     C85653   4.065   8.062   3.470 -0.8144  0.0574  0.2102
  635MOL0     C85654   4.182   8.058   3.451 -0.2526  0.0043 -0.9699
  635MOL0     C85655   4.106   7.585   3.428 -0.4152  0.1372 -0.0335
  635MOL0     C85656   4.224   7.535   3.487  0.2353 -0.1223  0.1691
  635MOL0     C85657   4.203   7.405   3.565 -0.2174  0.2578 -0.2718
  635MOL0     H85658   4.642   7.632   3.764  0.4233  0.1860  0.4464
  635MOL0     H85659   4.857   7.568   3.856  3.0668 -2.0712 -1.2406
  635MOL0     H85660   4.950   7.136   3.909  0.3808 -1.1121  0.4597
  635MOL0     H85661   5.048   7.179   3.760  0.7583  4.6043 -1.3182
  635MOL0     H85662   5.216   7.286   3.921  0.1876  0.0085 -0.9935
  635MOL0     H85663   5.200   7.102   3.940 -1.4336 -1.0855  0.5876
  635MOL0     H85664   5.028   7.154   4.126 -2.1999  0.8350 -2.3520
  635MOL0     H85665   5.108   7.310   4.128 -1.5078  0.2310 -0.7993
  635MOL0     H85666   5.210   7.166   4.278  1.0796  1.4347  0.4851
  635MOL0     H85667   5.249   7.052   4.144  2.7447  1.0848 -2.4227
  635MOL0     H85668   5.448   7.169   4.211 -1.2930  1.4202  3.6690
  635MOL0     H85669   5.399   7.206   4.046  2.2891 -0.8500  0.3748
  635MOL0     H85670   5.313   7.432   4.109  1.2248 -1.1222 -1.6081
  635MOL0     H85671   5.347   7.405   4.275  0.9204  3.0775 -0.0615
  635MOL0     H85672   5.571   7.392   4.054 -2.2693  1.2562 -0.8479
  635MOL0     H85673   5.597   7.392   4.232  0.8062  1.1043 -0.4037
  635MOL0     H85674   5.493   7.612   4.062  0.5187 -2.0944 -1.3943
  635MOL0     H85675   5.505   7.614   4.242  1.9152  4.2261 -1.2906
  635MOL0     H85676   5.760   7.548   4.349 -1.8147  1.5161  1.1763
  635MOL0     H85677   6.057   7.783   4.274 -3.9050  2.6656  1.3522
  635MOL0     H85678   5.999   7.695   4.415 -0.6732  1.5564  0.1416
  635MOL0     H85679   6.180   7.561   4.371 -2.4796  0.7154  1.7227
  635MOL0     H85680   6.046   7.479   4.323  0.1252  0.2212  2.1969
  635MOL0     H85681   6.073   7.554   4.081 -0.9665 -2.0526  1.4549
  635MOL0     H85682   6.199   7.440   4.137  1.8383 -0.9001  0.9456
  635MOL0     H85683   6.228   7.744   4.140 -1.4500 -0.4229  1.2976
  635MOL0     H85684   6.319   7.631   4.033  0.9191 -0.3061  0.4796
  635MOL0     H85685   6.544   7.512   4.354 -1.9462 -1.3219 -2.8417
  635MOL0     H85686   6.798   7.553   4.328 -0.3879  0.7056  1.8160
  635MOL0     H85687   7.191   7.521   4.192  0.1173  0.3406 -2.1349
  635MOL0     H85688   7.440   7.562   4.202  1.1753  1.3430 -2.3718
  635MOL0     H85689   7.555   7.702   4.510  0.0027  1.0567  0.0554
  635MOL0     H85690   7.600   7.594   4.379 -0.5091  0.3269  0.8334
  635MOL0     H85691   7.806   7.653   4.484  0.1527 -0.1936 -1.2222
  635MOL0     H85692   7.814   7.761   4.357  2.8894 -2.2474  0.8072
  635MOL0     H85693   7.867   7.895   4.530 -1.4821 -0.1759 -2.2974
  635MOL0     H85694   7.695   7.919   4.534 -0.3062 -1.3215 -0.8521
  635MOL0     H85695   7.849   7.700   4.687 -0.9414  0.3012 -1.0671
  635MOL0     H85696   7.701   7.729   4.729  0.2805 -0.6395 -1.8737
  635MOL0     H85697   7.740   7.949   4.798  0.2442 -1.2285 -1.5156
  635MOL0     H85698   7.913   7.946   4.778  0.5761  0.7863 -1.3077
  635MOL0     H85699   7.731   7.795   4.959  0.1142  1.2767  0.5460
  635MOL0     H85700   7.906   7.745   4.923 -0.2791 -0.2818 -4.2763
  635MOL0     H85701   7.781   8.010   5.025 -2.0694 -1.4463  2.2310
  635MOL0     H85702   7.960   7.990   5.007 -0.0331 -0.3099  0.4466
  635MOL0     H85703   7.972   7.853   5.196 -0.9633 -0.6433  2.4749
  635MOL0     H85704   7.853   7.968   5.242  2.4945 -1.1182  2.0752
  635MOL0     H85705   7.369   7.957   4.357  1.4903 -0.8870  1.9394
  635MOL0     H85706   7.128   7.931   4.311 -2.5428 -0.7448 -0.9741
  635MOL0     H85707   6.708   7.844   4.023 -1.9984 -0.7052 -1.0782
  635MOL0     H85708   6.466   7.797   4.045  0.0638  0.3147 -1.0174
  635MOL0     H85709   4.817   7.170   3.695  0.6668 -0.0717  1.4172
  635MOL0     H85710   4.614   7.259   3.560  1.6094  0.1340 -1.8310
  635MOL0     H85711   4.439   7.766   3.344  1.0290 -2.2727 -0.8089
  635MOL0     H85712   4.230   7.849   3.258  0.8689 -0.8533 -0.0767
  635MOL0     H85713   3.876   7.673   3.468  1.4323 -0.5840 -0.1672
  635MOL0     H85714   3.805   7.682   3.306 -0.5531 -2.4450  2.1604
  635MOL0     H85715   3.694   7.844   3.473  0.1335 -0.6131  0.3440
  635MOL0     H85716   3.751   7.927   3.340 -0.6357  1.1348  0.5442
  635MOL0     H85717   3.937   7.877   3.576 -0.2317 -0.6849  0.4711
  635MOL0     H85718   3.809   7.965   3.616  2.7001 -1.2772  1.5410
  635MOL0     H85719   3.884   8.089   3.361 -3.3029  2.1448  0.7816
  635MOL0     H85720   3.879   8.158   3.521  0.2866 -1.4354  3.0427
  635MOL0     H85721   4.284   8.033   3.430 -0.1658 -0.5757  0.0883
  635MOL0     H85722   4.021   7.523   3.453 -1.0660  0.8044 -0.5477
  635MOL0     H85723   4.232   7.411   3.670 -1.5334 -0.0545  0.1326
  635MOL0     H85724   4.100   7.370   3.557 -0.4739  1.2969 -2.0338
  635MOL0     H85725   4.256   7.322   3.517 -2.3984 -1.9872  1.0127
  636MOL0     O85726   1.402  11.115   0.362  0.4003 -0.1826  0.8274
  636MOL0     C85727   1.299  11.076   0.305 -1.1330  0.7676 -0.2572
  636MOL0     O85728   1.286  11.069   0.168  0.5143 -0.5015 -0.2569
  636MOL0     C85729   1.400  11.087   0.097 -0.4859 -0.3803 -0.6818
  636MOL0     C85730   1.479  11.205   0.094  0.0268  0.7008 -0.0175
  636MOL0     C85731   1.611  11.200   0.037  0.4829 -0.4253  0.7728
  636MOL0     C85732   1.660  11.080  -0.012 -0.6002 -0.6763 -0.5323
  636MOL0     O85733   1.787  11.067  -0.065  0.5881  0.6427  0.0786
  636MOL0     C85734   1.854  11.192  -0.086 -0.7935 -0.2124  0.0880
  636MOL0     C85735   1.996  11.167  -0.146  0.8232 -0.9464 -0.2267
  636MOL0     C85736   2.076  11.292  -0.145  0.6258 -0.3169 -0.4550
  636MOL0     C85737   2.218  11.264  -0.199  1.2861  0.1133  0.4388
  636MOL0     C85738   2.328  11.359  -0.148  0.0501 -0.2712  0.3508
  636MOL0     C85739   2.398  11.330  -0.017  0.3036  0.0692 -0.4430
  636MOL0     C85740   2.487  11.205  -0.025 -1.2940  0.3750  0.2000
  636MOL0     C85741   2.566  11.196   0.107 -1.1993 -0.2911  0.0909
  636MOL0     N85742   2.649  11.076   0.107 -0.4333  0.3135  0.1023
  636MOL0     C85743   2.606  10.953   0.068 -1.0443 -0.1364 -0.2429
  636MOL0     C85744   2.720  10.882   0.053  0.7535  0.1440  0.6074
  636MOL0     C85745   2.745  10.741   0.014 -0.0362 -0.0433 -0.4542
  636MOL0     C85746   2.696  10.637   0.113  0.3984  0.0989 -0.2906
  636MOL0     C85747   2.740  10.496   0.082  0.5027  0.2067 -0.3719
  636MOL0     C85748   2.889  10.475   0.119  0.2123  0.0339 -0.1423
  636MOL0     O85749   2.920  10.337   0.126  0.2460  0.4610  0.4945
  636MOL0     C85750   3.055  10.308   0.153 -0.5683  0.1744 -0.3744
  636MOL0     C85751   3.156  10.380   0.224  0.2136  0.9598  0.6462
  636MOL0     C85752   3.294  10.347   0.235 -0.4497  0.7476  0.6522
  636MOL0     C85753   3.331  10.220   0.176  0.1690 -0.3009 -0.8362
  636MOL0     C85754   3.472  10.168   0.190 -0.8543  0.5136  0.4219
  636MOL0     O85755   3.501  10.049   0.131  0.5515 -0.2579 -0.1724
  636MOL0     C85756   3.632  10.010   0.106 -0.3653 -0.1003  0.0907
  636MOL0     C85757   3.665   9.976  -0.027  0.6958 -0.1290 -0.8848
  636MOL0     C85758   3.791   9.945  -0.068  0.1998 -0.1688  0.0098
  636MOL0     C85759   3.900   9.973   0.019 -0.2767  0.6790 -0.6308
  636MOL0     O85760   4.031   9.954  -0.033  0.2630 -0.0679  0.8061
  636MOL0     C85761   4.144  10.009   0.029 -0.6066  0.6669 -0.2633
  636MOL0     C85762   4.277   9.949  -0.020  0.1064 -0.9551 -0.4844
  636MOL0     C85763   4.381  10.053   0.022 -0.3659  0.5791  0.8433
  636MOL0     C85764   4.507  10.024  -0.068 -1.1867  0.1832 -0.1735
  636MOL0     C85765   4.630  10.112  -0.044 -0.1072 -1.2124  0.0950
  636MOL0     C85766   4.625  10.256  -0.105 -0.3102 -0.2195 -0.2001
  636MOL0     C85767   4.669  10.260  -0.252  0.6771 -0.4129 -0.5875
  636MOL0     C85768   4.816  10.278  -0.274  0.0663 -0.4630 -0.0912
  636MOL0    Cl85769   4.872  10.449  -0.233  0.5635 -0.3686 -0.1654
  636MOL0     C85770   3.873  10.019   0.146  0.9834 -0.1267  0.1055
  636MOL0     C85771   3.742  10.024   0.192  0.5384 -1.2810  0.4357
  636MOL0     O85772   3.555  10.242   0.240 -0.4605  0.3243  0.3130
  636MOL0     C85773   3.239  10.142   0.114 -0.4634 -1.1494  0.6361
  636MOL0     C85774   3.103  10.188   0.104 -1.1998  0.9138  0.8903
  636MOL0     N85775   2.831  10.965   0.082  0.1816 -0.5262  0.3181
  636MOL0     N85776   2.789  11.082   0.117  0.5417 -0.1951  0.0143
  636MOL0     C85777   1.580  10.968  -0.005 -0.4656 -0.3742  0.5283
  636MOL0     C85778   1.457  10.969   0.053  0.7506  0.3674  0.3927
  636MOL0     C85779   1.185  11.038   0.386 -0.2278  0.1124 -0.1102
  636MOL0     C85780   1.074  10.962   0.331  0.1752 -0.3475  0.9984
  636MOL0     C85781   0.956  10.919   0.413 -0.1049 -0.1517 -0.1725
  636MOL0     C85782   0.951  10.947   0.558  0.5210  0.1698  0.0766
  636MOL0     O85783   0.857  10.917   0.652 -0.3654  0.5620 -0.0774
  636MOL0     C85784   0.730  10.882   0.589  0.9671 -0.4790 -0.5695
  636MOL0     C85785   0.618  10.880   0.684 -0.1444 -0.2788 -0.2984
  636MOL0     C85786   0.653  10.792   0.804  0.4786 -0.0354  0.1308
  636MOL0     C85787   0.533  10.735   0.883  0.2068 -0.7509 -0.2459
  636MOL0     C85788   0.472  10.843   0.970  0.8218 -0.9110  0.9499
  636MOL0     C85789   0.448  10.941   1.037  0.2165  0.1880 -0.0741
  636MOL0     C85790   1.059  11.012   0.603  1.1039 -1.2727 -0.9431
  636MOL0     C85791   1.170  11.055   0.530 -0.0858 -0.3697  0.3860
  636MOL0     C85792   1.275  11.144   0.611  0.6720  0.0129  0.3706
  636MOL0     H85793   1.439  11.296   0.137 -1.7707 -1.3179  2.9794
  636MOL0     H85794   1.671  11.289   0.056 -2.0696  1.7107 -0.4913
  636MOL0     H85795   1.796  11.262  -0.147 -0.7608  0.6417  1.0039
  636MOL0     H85796   1.859  11.248   0.008 -4.3456  2.7916 -1.2654
  636MOL0     H85797   1.984  11.125  -0.246 -1.3391 -1.4330  0.1869
  636MOL0     H85798   2.057  11.098  -0.087  0.9980 -0.7622 -0.1889
  636MOL0     H85799   2.089  11.348  -0.052 -2.7112  0.9486 -0.6332
  636MOL0     H85800   2.021  11.364  -0.207  1.5993  1.0151  0.1649
  636MOL0     H85801   2.247  11.165  -0.165  0.4485  0.0914  1.1307
  636MOL0     H85802   2.214  11.259  -0.308 -1.4158  2.2764  0.3267
  636MOL0     H85803   2.402  11.357  -0.228 -0.4539  0.5777 -0.1508
  636MOL0     H85804   2.272  11.453  -0.156  1.8948  0.7190 -2.5093
  636MOL0     H85805   2.459  11.420  -0.004 -2.9560  2.3629  0.1845
  636MOL0     H85806   2.326  11.326   0.066  1.7812 -2.1033  0.8533
  636MOL0     H85807   2.558  11.220  -0.107 -1.5828 -0.4260 -0.2001
  636MOL0     H85808   2.423  11.120  -0.049 -0.8133  0.4638 -1.5617
  636MOL0     H85809   2.620  11.291   0.107 -3.4404  1.0573 -0.2130
  636MOL0     H85810   2.504  11.206   0.197 -0.9011  3.6703  0.0396
  636MOL0     H85811   2.511  10.905   0.046  0.4335 -3.0440 -0.8988
  636MOL0     H85812   2.704  10.720  -0.085  1.0848 -1.5024 -0.6441
  636MOL0     H85813   2.854  10.733   0.001 -0.0782 -1.5437 -0.0268
  636MOL0     H85814   2.729  10.666   0.213 -2.5459  0.0126  0.8053
  636MOL0     H85815   2.587  10.635   0.122  0.5914 -0.3781  3.7213
  636MOL0     H85816   2.720  10.470  -0.023 -0.2745  1.2032 -0.4835
  636MOL0     H85817   2.685  10.421   0.140 -2.0925  0.0034 -2.8212
  636MOL0     H85818   2.904  10.517   0.219  0.9149  0.5577 -0.4669
  636MOL0     H85819   2.944  10.532   0.044 -0.1477  0.9965  0.3075
  636MOL0     H85820   3.124  10.466   0.282  1.4278 -0.8209  4.3468
  636MOL0     H85821   3.368  10.407   0.286 -0.7732  0.5678  1.3454
  636MOL0     H85822   3.587   9.982  -0.102  0.9848 -1.1029 -1.2802
  636MOL0     H85823   3.806   9.915  -0.171  2.9480 -0.3356  0.3794
  636MOL0     H85824   4.145  10.118   0.022 -0.9653  0.6703 -0.2752
  636MOL0     H85825   4.150   9.993   0.137 -2.7389  0.1672 -0.1790
  636MOL0     H85826   4.295   9.854   0.030  1.4819 -0.5344 -0.1354
  636MOL0     H85827   4.283   9.934  -0.129  0.5396 -2.6553 -0.2568
  636MOL0     H85828   4.341  10.154   0.006 -3.6462 -0.7031  0.1613
  636MOL0     H85829   4.410  10.035   0.126 -0.7766 -2.9940  0.4394
  636MOL0     H85830   4.478  10.028  -0.173  1.0945 -0.3757 -0.8955
  636MOL0     H85831   4.537   9.919  -0.056  1.3136  0.6275 -1.6384
  636MOL0     H85832   4.719  10.059  -0.080  2.6130  0.9202  3.0449
  636MOL0     H85833   4.646  10.127   0.064  0.5450  1.0409 -0.2779
  636MOL0     H85834   4.529  10.305  -0.087  1.7667  3.6467  1.7107
  636MOL0     H85835   4.696  10.319  -0.050 -0.9186  1.3183 -1.0931
  636MOL0     H85836   4.611  10.334  -0.308  0.4137 -1.3580 -1.5937
  636MOL0     H85837   4.628  10.168  -0.295  2.7185 -2.0045  0.7153
  636MOL0     H85838   4.872  10.213  -0.206  1.2608 -1.7403 -2.1437
  636MOL0     H85839   4.824  10.252  -0.381 -1.0854  1.6900 -0.7451
  636MOL0     H85840   3.947  10.043   0.222 -0.1052 -0.5928  1.3383
  636MOL0     H85841   3.719  10.066   0.290  0.2450 -0.2034 -0.0856
  636MOL0     H85842   3.263  10.043   0.077  2.2323  0.0384 -1.1557
  636MOL0     H85843   3.042  10.117   0.050  2.1723 -1.3778 -0.2181
  636MOL0     H85844   1.626  10.880  -0.048  2.6843  0.9495  0.9450
  636MOL0     H85845   1.417  10.868   0.057  2.8057 -0.6187 -1.5720
  636MOL0     H85846   1.063  10.947   0.224 -0.2999 -0.2761  1.0340
  636MOL0     H85847   0.878  10.864   0.361  0.3898 -1.3097  0.2787
  636MOL0     H85848   0.733  10.780   0.549 -2.4266 -1.0146  0.2343
  636MOL0     H85849   0.712  10.951   0.506 -2.4280  1.0119  1.1665
  636MOL0     H85850   0.529  10.850   0.627  0.0101 -1.6472  0.1394
  636MOL0     H85851   0.609  10.983   0.719  3.0469 -0.0474  0.1030
  636MOL0     H85852   0.724  10.842   0.871 -2.1152  0.1495  2.9403
  636MOL0     H85853   0.688  10.699   0.759 -0.2939 -0.1105 -0.3240
  636MOL0     H85854   0.465  10.690   0.810 -4.0523  3.9554  0.2404
  636MOL0     H85855   0.570  10.651   0.944 -1.1456 -1.1880  0.0210
  636MOL0     H85856   0.420  11.039   1.069 -0.0096  1.6440 -4.1786
  636MOL0     H85857   1.065  11.032   0.710  2.5854  1.9350 -1.4991
  636MOL0     H85858   1.359  11.082   0.644  0.0910 -0.2991  1.2927
  636MOL0     H85859   1.297  11.239   0.561 -1.7851 -0.0188 -0.8990
  636MOL0     H85860   1.241  11.178   0.709 -1.7148 -3.5396  0.9481
  637MOL0     O85861   9.558   9.856  11.114 -0.1080  0.4596 -0.5852
  637MOL0     C85862   9.606   9.931  11.027  0.3613  0.3017  0.1111
  637MOL0     O85863   9.540  10.020  10.950  0.1972  0.2329  0.0403
  637MOL0     C85864   9.403  10.028  10.959  0.9487 -0.2579 -0.1785
  637MOL0     C85865   9.327   9.925  10.914 -0.6920  0.0842  0.1322
  637MOL0     C85866   9.192   9.906  10.943 -0.1241 -1.0005 -0.7626
  637MOL0     C85867   9.129  10.020  11.007  0.1833  0.1598 -0.0045
  637MOL0     O85868   8.997  10.021  11.054  0.2533 -0.1213  0.9557
  637MOL0     C85869   8.939   9.893  11.077  0.6367 -0.3589  0.2532
  637MOL0     C85870   8.787   9.931  11.097  0.2982 -1.0215  0.6922
  637MOL0     C85871   8.697   9.808  11.093  0.8470  0.1013  0.3220
  637MOL0     C85872   8.672   9.742  11.222 -0.4335  0.3811 -0.0239
  637MOL0     C85873   8.775   9.632  11.255  0.3076 -0.1757  0.2168
  637MOL0     C85874   8.786   9.514  11.164  0.6854  0.9772  0.1292
  637MOL0     C85875   8.867   9.399  11.228  0.5360  0.4569 -0.1527
  637MOL0     C85876   8.792   9.311  11.331  0.2826 -0.1803 -0.5099
  637MOL0     N85877   8.879   9.237  11.413  0.4540  0.0190  0.2089
  637MOL0     C85878   8.995   9.179  11.381  0.3661  0.1858  0.1280
  637MOL0     C85879   9.045   9.152  11.506  0.7473 -0.8269  1.2669
  637MOL0     C85880   9.177   9.089  11.537  0.7920  0.0569 -0.6048
  637MOL0     C85881   9.286   9.173  11.594 -0.3982 -0.5998 -0.0619
  637MOL0     C85882   9.317   9.289  11.496  0.2583 -0.7838 -0.4602
  637MOL0     C85883   9.442   9.357  11.543 -0.0635  0.1712  0.9846
  637MOL0     O85884   9.416   9.418  11.670 -0.4448 -0.2069 -0.2630
  637MOL0     C85885   9.526   9.475  11.735  0.7880 -0.0750 -0.2643
  637MOL0     C85886   9.529   9.480  11.875  0.1113 -0.1502 -1.7913
  637MOL0     C85887   9.638   9.532  11.941 -0.9078  0.2700 -0.6662
  637MOL0     C85888   9.741   9.592  11.874  0.0130 -0.3224 -0.8312
  637MOL0     C85889   9.864   9.631  11.940  0.3552  0.7138 -0.3774
  637MOL0     O85890   9.968   9.652  11.856  0.7625  0.0591  0.4243
  637MOL0     C85891  10.098   9.684  11.886 -0.4498  0.0052 -0.1941
  637MOL0     C85892  10.146   9.700  12.025 -0.6075 -0.8822  0.1610
  637MOL0     C85893  10.275   9.740  12.041  0.1118  0.6339  0.5045
  637MOL0     C85894  10.375   9.760  11.940 -0.0480 -0.2790  1.4554
  637MOL0     O85895  10.509   9.792  11.958  0.4507 -0.1475 -0.5213
  637MOL0     C85896  10.513   9.900  12.057 -0.1141 -0.4014  0.0357
  637MOL0     C85897  10.644   9.964  12.022 -0.2908  0.6586  0.8095
  637MOL0     C85898  10.670  10.095  12.087  0.0358  0.0132 -0.3737
  637MOL0     C85899  10.810  10.155  12.051 -0.3834 -0.0156 -0.6887
  637MOL0     C85900  10.856  10.261  12.156  0.3756  0.6818  1.0053
  637MOL0     C85901  10.999  10.308  12.121 -1.2096 -0.1691 -0.5880
  637MOL0     C85902  11.045  10.429  12.207  0.5766 -0.1107  0.2384
  637MOL0     C85903  11.001  10.428  12.349  1.0506 -0.2666  0.1709
  637MOL0    Cl85904  11.034  10.283  12.443  0.1256 -0.1565  0.1123
  637MOL0     C85905  10.328   9.745  11.814 -0.1444 -0.8182  0.5321
  637MOL0     C85906  10.195   9.696  11.789  0.2000  0.3207 -0.1202
  637MOL0     O85907   9.872   9.626  12.065 -0.5443  0.3668 -0.0954
  637MOL0     C85908   9.729   9.594  11.733  0.3820 -0.3959  0.5938
  637MOL0     C85909   9.626   9.533  11.660 -0.2048 -0.1058 -0.4119
  637MOL0     N85910   8.961   9.193  11.598  0.0778 -0.1591  0.2464
  637MOL0     N85911   8.865   9.253  11.543  0.8119 -0.4829  0.5330
  637MOL0     C85912   9.198  10.139  11.032  0.0294 -0.5601  0.3505
  637MOL0     C85913   9.343  10.144  11.012  0.6485 -0.3522  0.3224
  637MOL0     C85914   9.751   9.927  11.000  0.0389  0.3786  0.5882
  637MOL0     C85915   9.810  10.040  10.936 -0.1581 -0.5038 -0.0426
  637MOL0     C85916   9.951  10.040  10.920  0.3070  0.4366  1.0307
  637MOL0     C85917  10.034   9.925  10.937  1.2079 -0.3027 -0.5457
  637MOL0     O85918  10.172   9.926  10.933 -0.6355 -0.0166 -0.0999
  637MOL0     C85919  10.248  10.013  10.838  0.0993  1.1724  0.0012
  637MOL0     C85920  10.261   9.943  10.708  0.6506 -0.4812 -0.3049
  637MOL0     C85921  10.347   9.815  10.709  0.0812 -0.0219  0.1197
  637MOL0     C85922  10.370   9.758  10.568 -0.1277 -0.3591  0.6161
  637MOL0     C85923  10.449   9.849  10.484  0.9707  0.3645 -0.5981
  637MOL0     C85924  10.521   9.927  10.421 -0.4048  0.0642  0.7482
  637MOL0     C85925   9.969   9.820  10.996  0.4278 -0.6258 -0.3667
  637MOL0     C85926   9.836   9.816  11.034  0.7487 -0.2943  0.3133
  637MOL0     C85927   9.787   9.686  11.081  0.2585  0.7552  0.1183
  637MOL0     H85928   9.385   9.838  10.886  1.0011  0.1872  2.8937
  637MOL0     H85929   9.143   9.819  10.900  0.6966 -1.5060 -0.6952
  637MOL0     H85930   8.951   9.834  10.985 -1.9543 -2.9986  1.4726
  637MOL0     H85931   8.978   9.853  11.171 -3.8238 -2.8882  1.2970
  637MOL0     H85932   8.760   9.983  11.005 -0.1538 -0.9527  0.8630
  637MOL0     H85933   8.786  10.002  11.179  2.6460  2.0443 -1.6810
  637MOL0     H85934   8.720   9.747  11.006  0.5873  1.0347 -0.4097
  637MOL0     H85935   8.606   9.862  11.066  2.0796  1.9584 -0.3537
  637MOL0     H85936   8.675   9.809  11.308  1.0336 -2.0870  1.9976
  637MOL0     H85937   8.570   9.703  11.214 -0.1718 -0.3404  0.0906
  637MOL0     H85938   8.874   9.677  11.262  0.5257 -0.5637 -0.3286
  637MOL0     H85939   8.754   9.602  11.358  1.6595  2.8075  1.4923
  637MOL0     H85940   8.684   9.474  11.157 -0.2392  2.6521  2.5198
  637MOL0     H85941   8.828   9.542  11.068  1.0486 -1.1516 -0.3920
  637MOL0     H85942   8.960   9.442  11.268  2.3709 -3.4133  0.1623
  637MOL0     H85943   8.901   9.340  11.142  1.4395 -1.0949  1.2088
  637MOL0     H85944   8.724   9.373  11.390  1.3676  0.1430  0.4568
  637MOL0     H85945   8.721   9.243  11.284  0.6832 -1.6789  0.9573
  637MOL0     H85946   9.037   9.160  11.283 -0.7325 -0.8696 -0.1720
  637MOL0     H85947   9.155   8.997  11.591 -0.3787 -0.4615 -1.8899
  637MOL0     H85948   9.213   9.043  11.444  0.9295 -3.6883  1.1230
  637MOL0     H85949   9.276   9.208  11.697  0.1282  1.3038 -0.6102
  637MOL0     H85950   9.370   9.103  11.600 -0.6546 -1.3150 -2.9841
  637MOL0     H85951   9.237   9.363  11.510  2.2987  0.9990  3.2334
  637MOL0     H85952   9.320   9.248  11.394  1.8265  2.8228 -2.0736
  637MOL0     H85953   9.465   9.430  11.465  1.3758 -0.3563  0.8684
  637MOL0     H85954   9.523   9.285  11.557 -0.6522 -0.3423  1.8121
  637MOL0     H85955   9.446   9.438  11.931  3.0674 -0.1433  3.2325
  637MOL0     H85956   9.649   9.527  12.049 -2.1692  3.6343 -0.2460
  637MOL0     H85957  10.089   9.685  12.116 -1.6549 -2.9793 -0.7669
  637MOL0     H85958  10.306   9.743  12.145  2.8782  1.0487 -0.2653
  637MOL0     H85959  10.433   9.974  12.046  0.8325  0.4378 -1.5201
  637MOL0     H85960  10.511   9.862  12.160  2.9599  0.7426  0.6061
  637MOL0     H85961  10.724   9.897  12.053 -1.4252 -0.8671  0.5473
  637MOL0     H85962  10.646   9.967  11.912 -1.4913  0.6189  0.7734
  637MOL0     H85963  10.591  10.167  12.070  1.0760  1.3066  0.0911
  637MOL0     H85964  10.670  10.071  12.194  2.9284 -1.8946 -0.6542
  637MOL0     H85965  10.810  10.196  11.950 -1.3594 -1.3397 -1.2592
  637MOL0     H85966  10.878  10.070  12.044 -2.2389 -1.4631 -2.1449
  637MOL0     H85967  10.851  10.202  12.247  1.0614 -0.4306  0.3436
  637MOL0     H85968  10.785  10.344  12.157  1.3507  1.8633 -3.5077
  637MOL0     H85969  11.068  10.224  12.130 -0.4713  0.0949 -3.0950
  637MOL0     H85970  10.991  10.339  12.017 -0.1244 -0.5341 -0.7950
  637MOL0     H85971  11.007  10.509  12.142  1.6143 -1.9805 -2.9350
  637MOL0     H85972  11.155  10.431  12.207  0.6640 -2.3759  0.3632
  637MOL0     H85973  11.071  10.499  12.396 -0.9838  1.4891  0.6928
  637MOL0     H85974  10.896  10.453  12.363  1.4512  0.1879  3.1102
  637MOL0     H85975  10.397   9.768  11.734 -0.7866  2.5874  0.8320
  637MOL0     H85976  10.166   9.676  11.686 -0.5772  0.5680  0.0395
  637MOL0     H85977   9.815   9.628  11.676  1.9769 -3.2438  1.0732
  637MOL0     H85978   9.637   9.536  11.552  0.2976 -3.7176 -0.5852
  637MOL0     H85979   9.143  10.225  11.069 -0.1986  0.4862 -2.2584
  637MOL0     H85980   9.400  10.232  11.040  1.9089 -1.2850  0.7946
  637MOL0     H85981   9.755  10.133  10.928  3.6080  1.9224 -0.3823
  637MOL0     H85982   9.994  10.124  10.867  0.5188  0.9907  2.0616
  637MOL0     H85983  10.347  10.017  10.882 -0.2179 -0.3950  0.9109
  637MOL0     H85984  10.207  10.114  10.830  0.7314  1.5278  1.1258
  637MOL0     H85985  10.303  10.011  10.633  1.9193 -0.3841  0.4584
  637MOL0     H85986  10.158   9.914  10.685  0.5451 -2.3510  2.1442
  637MOL0     H85987  10.301   9.735  10.768  2.6257 -0.6427  1.4128
  637MOL0     H85988  10.445   9.838  10.752  0.6609  0.0792 -1.2095
  637MOL0     H85989  10.424   9.664  10.581 -0.6330 -0.4962  1.8973
  637MOL0     H85990  10.274   9.735  10.521  0.9608  0.0425 -1.9982
  637MOL0     H85991  10.589   9.997  10.377 -2.4290  1.2691 -0.6324
  637MOL0     H85992  10.033   9.741  11.033 -0.2669 -1.2435 -0.4669
  637MOL0     H85993   9.712   9.688  11.160  0.3275  1.7496  0.1618
  637MOL0     H85994   9.745   9.627  10.999 -0.0459 -0.4597  1.1117
  637MOL0     H85995   9.873   9.625  11.110 -1.4258 -1.5369  0.6132
  638MOL0     O85996   2.340   4.269  11.038 -0.2474 -0.7544  0.4722
  638MOL0     C85997   2.308   4.202  11.134  0.0704 -0.9894 -0.7815
  638MOL0     O85998   2.192   4.124  11.137  0.4914 -0.7256 -0.1645
  638MOL0     C85999   2.130   4.074  11.020 -0.6479  0.1836  0.5151
  638MOL0     C86000   2.074   3.948  11.032 -0.0267 -0.7275 -0.0642
  638MOL0     C86001   2.016   3.880  10.922 -0.9838 -0.5167 -0.3075
  638MOL0     C86002   2.013   3.951  10.801 -0.9828  0.8154  0.6707
  638MOL0     O86003   1.975   3.889  10.683 -0.8657 -0.5021 -0.6156
  638MOL0     C86004   1.850   3.930  10.655 -0.6743  1.4534  0.3476
  638MOL0     C86005   1.846   3.902  10.499  0.0807  0.4057 -0.6698
  638MOL0     C86006   1.724   3.969  10.433  0.3370 -0.7311  0.1983
  638MOL0     C86007   1.689   3.901  10.303 -0.6714 -0.1695 -0.4523
  638MOL0     C86008   1.604   4.001  10.216 -0.3478  0.7620  0.1490
  638MOL0     C86009   1.575   3.937  10.085  0.4772 -0.7024  0.4123
  638MOL0     C86010   1.504   4.042   9.996 -0.6793 -0.1298  0.5195
  638MOL0     C86011   1.355   4.067  10.034  0.4185 -0.4244  0.2932
  638MOL0     N86012   1.263   3.963   9.996  0.5683 -0.3687  0.0170
  638MOL0     C86013   1.158   3.988   9.912 -0.2022  0.6431  0.1987
  638MOL0     C86014   1.069   3.889   9.927 -0.5519  0.0425  0.7168
  638MOL0     C86015   0.943   3.872   9.848 -0.3510  0.2198 -0.7938
  638MOL0     C86016   0.878   3.727   9.849 -0.1883 -0.4243 -0.6559
  638MOL0     C86017   0.774   3.707   9.952  0.0871  0.4864 -1.0568
  638MOL0     C86018   0.642   3.795   9.930 -1.1033  0.5214  1.0504
  638MOL0     O86019   0.649   3.908  10.028 -0.1225 -0.1263  0.7315
  638MOL0     C86020   0.540   3.988  10.042  0.5707 -1.6317 -0.2732
  638MOL0     C86021   0.447   4.010   9.943  0.1843 -0.5151  1.4757
  638MOL0     C86022   0.333   4.092   9.956  0.3287  0.4763 -0.3174
  638MOL0     C86023   0.302   4.148  10.080 -0.7372 -0.8603 -0.4311
  638MOL0     C86024   0.199   4.253  10.099  0.4701 -0.5630 -0.0071
  638MOL0     O86025   0.166   4.326   9.991  0.6770 -0.4392  0.4846
  638MOL0     C86026   0.043   4.398   9.995 -0.6691  0.2673  0.8535
  638MOL0     C86027   0.036   4.539   9.975  0.0081  0.4384 -0.6684
  638MOL0     C86028  -0.084   4.612   9.995 -0.3112 -0.1829 -0.6843
  638MOL0     C86029  -0.200   4.546  10.016  0.2079  0.9820 -1.7482
  638MOL0     O86030  -0.310   4.621  10.022  0.5007 -0.2067  1.2180
  638MOL0     C86031  -0.428   4.572  10.099  1.4192 -0.5871 -0.3734
  638MOL0     C86032  -0.537   4.686  10.086 -0.7719 -0.0033 -0.3343
  638MOL0     C86033  -0.493   4.817  10.155 -0.2185 -1.4141  0.3037
  638MOL0     C86034  -0.608   4.919  10.160 -0.3196 -0.5585 -0.6196
  638MOL0     C86035  -0.560   5.068  10.163  0.3467  0.7691  0.4798
  638MOL0     C86036  -0.671   5.172  10.131  0.0497 -0.1134  0.7180
  638MOL0     C86037  -0.639   5.322  10.168 -0.2946  0.5893  0.4883
  638MOL0     C86038  -0.620   5.341  10.314 -0.0037  0.1035  0.5624
  638MOL0    Cl86039  -0.783   5.332  10.390  0.3149  0.1137  0.2613
  638MOL0     C86040  -0.193   4.403  10.017  0.3391  0.1485 -0.1823
  638MOL0     C86041  -0.073   4.327  10.007  0.2601 -0.7183 -0.2507
  638MOL0     O86042   0.137   4.256  10.202 -0.5030 -0.5767  0.0354
  638MOL0     C86043   0.398   4.124  10.182  0.3842 -0.4787 -0.2460
  638MOL0     C86044   0.505   4.042  10.169  0.6021 -0.1350  0.0471
  638MOL0     N86045   1.121   3.818  10.034  0.0509 -0.1299  0.3650
  638MOL0     N86046   1.235   3.863  10.083 -0.3742  0.0803 -0.6025
  638MOL0     C86047   2.075   4.072  10.788 -0.7910 -0.5493 -0.8847
  638MOL0     C86048   2.137   4.137  10.894 -0.2154  0.5086 -0.0858
  638MOL0     C86049   2.398   4.220  11.257  0.4366  1.0506 -0.0896
  638MOL0     C86050   2.533   4.255  11.231  0.9740 -0.6677 -0.6779
  638MOL0     C86051   2.630   4.262  11.337 -0.0005 -0.4263  0.3205
  638MOL0     C86052   2.596   4.224  11.463 -1.0501 -0.0302  0.4649
  638MOL0     O86053   2.686   4.193  11.554 -0.7568  0.1539 -0.3840
  638MOL0     C86054   2.828   4.194  11.529 -0.0385 -0.3609  0.1629
  638MOL0     C86055   2.881   4.333  11.543 -0.4956  0.3679  0.5122
  638MOL0     C86056   3.040   4.325  11.517 -1.0344 -0.3245 -0.1750
  638MOL0     C86057   3.103   4.462  11.526  0.3563  0.1433  1.0252
  638MOL0     C86058   3.085   4.547  11.405  0.0302  0.1071  0.4049
  638MOL0     C86059   3.088   4.616  11.307 -1.1285  0.0854  0.2041
  638MOL0     C86060   2.465   4.196  11.486 -0.9708 -0.0530 -0.2218
  638MOL0     C86061   2.358   4.197  11.395 -0.4557  0.4476 -0.4106
  638MOL0     C86062   2.221   4.155  11.441 -0.4024 -0.9388 -0.1389
  638MOL0     H86063   2.074   3.884  11.120  1.6762  0.5420  0.9257
  638MOL0     H86064   1.971   3.783  10.941 -3.2245  0.0751 -2.1703
  638MOL0     H86065   1.779   3.877  10.719 -0.6098  2.8663  1.6440
  638MOL0     H86066   1.830   4.036  10.675 -0.5215  1.0974  2.6501
  638MOL0     H86067   1.839   3.793  10.492 -0.9328  0.3036  1.3274
  638MOL0     H86068   1.934   3.944  10.449  0.6550  1.3356  1.0422
  638MOL0     H86069   1.750   4.071  10.406 -0.5077 -0.4853  0.2986
  638MOL0     H86070   1.639   3.973  10.501  1.6946  0.4632  1.9305
  638MOL0     H86071   1.776   3.869  10.244  1.4220  1.7048  1.4532
  638MOL0     H86072   1.638   3.805  10.318  1.9227 -1.4734  0.6399
  638MOL0     H86073   1.518   4.033  10.276 -0.7465 -0.5977  0.3273
  638MOL0     H86074   1.667   4.087  10.191  0.8043 -0.8373 -2.9324
  638MOL0     H86075   1.673   3.910  10.044  1.4432  1.0309  1.4891
  638MOL0     H86076   1.514   3.847  10.093 -2.6989  1.0293 -1.8647
  638MOL0     H86077   1.507   4.004   9.894 -0.0111  0.7210  0.2170
  638MOL0     H86078   1.553   4.140   9.992 -1.7533  0.3655 -1.3284
  638MOL0     H86079   1.334   4.085  10.139 -3.2755 -0.4851 -0.2871
  638MOL0     H86080   1.332   4.162   9.985  4.3268 -1.2527 -3.9270
  638MOL0     H86081   1.150   4.068   9.839 -1.7629 -1.5442 -2.2025
  638MOL0     H86082   0.862   3.937   9.884 -0.8141 -0.3285 -0.8426
  638MOL0     H86083   0.966   3.906   9.746 -0.9951  3.5627  0.0669
  638MOL0     H86084   0.832   3.703   9.753  0.4136  0.3814 -1.1570
  638MOL0     H86085   0.953   3.649   9.859 -2.1684 -2.4722 -0.9304
  638MOL0     H86086   0.806   3.726  10.055  3.2408  0.8762 -1.9895
  638MOL0     H86087   0.748   3.601   9.941 -0.1300  0.3436  0.5254
  638MOL0     H86088   0.557   3.731   9.956  1.9598 -2.9117  3.6506
  638MOL0     H86089   0.627   3.833   9.828 -0.0907 -0.5459  0.4818
  638MOL0     H86090   0.473   3.964   9.848 -1.4969 -2.5182  1.9395
  638MOL0     H86091   0.260   4.118   9.881 -2.2257 -3.3287  0.5598
  638MOL0     H86092   0.129   4.596   9.970  0.8405 -0.2780  3.2167
  638MOL0     H86093  -0.068   4.719   9.990 -0.5522 -0.0983  0.2346
  638MOL0     H86094  -0.472   4.480  10.059  0.1158  0.0482 -0.4241
  638MOL0     H86095  -0.401   4.549  10.203  3.2081  0.8144 -0.4724
  638MOL0     H86096  -0.554   4.705   9.980  0.9440  1.6987 -0.3670
  638MOL0     H86097  -0.626   4.644  10.133 -0.6953 -2.2507 -2.0102
  638MOL0     H86098  -0.474   4.793  10.260 -0.7191 -2.0248  0.2625
  638MOL0     H86099  -0.407   4.858  10.101  1.2077 -3.3620  0.9576
  638MOL0     H86100  -0.660   4.887  10.250  3.4763 -2.4160  1.1780
  638MOL0     H86101  -0.678   4.905  10.077 -1.0903  0.1955 -0.1088
  638MOL0     H86102  -0.485   5.089  10.086  0.6537 -0.3362  0.4598
  638MOL0     H86103  -0.514   5.081  10.261  0.9872  0.6162  0.2068
  638MOL0     H86104  -0.695   5.159  10.025 -0.5567 -1.5497  1.0160
  638MOL0     H86105  -0.759   5.137  10.186  0.1208 -0.4097  0.6436
  638MOL0     H86106  -0.708   5.396  10.126 -1.8200 -0.4220  1.0986
  638MOL0     H86107  -0.560   5.353  10.100 -1.2234 -0.3441 -1.0886
  638MOL0     H86108  -0.562   5.264  10.365  0.5041 -0.5500 -0.9447
  638MOL0     H86109  -0.564   5.435  10.321 -1.3784  0.9048  1.1793
  638MOL0     H86110  -0.289   4.352  10.019  1.2459 -1.9634 -3.6172
  638MOL0     H86111  -0.079   4.224  10.041  0.3165 -0.6669 -0.0842
  638MOL0     H86112   0.385   4.172  10.279  1.7789  0.3019 -0.4143
  638MOL0     H86113   0.579   4.030  10.248  1.6989  2.3469 -0.4828
  638MOL0     H86114   2.093   4.123  10.694  1.9279 -1.7832 -1.1286
  638MOL0     H86115   2.182   4.232  10.871 -1.0902  1.9082  3.3275
  638MOL0     H86116   2.553   4.273  11.126  0.7299 -0.8724 -0.7607
  638MOL0     H86117   2.727   4.293  11.301  0.0522 -0.5593  0.3445
  638MOL0     H86118   2.838   4.148  11.430  1.3917 -3.0770  1.4587
  638MOL0     H86119   2.880   4.128  11.600 -0.0961  0.9067  1.4223
  638MOL0     H86120   2.860   4.373  11.642  0.9821 -0.3545  1.1359
  638MOL0     H86121   2.841   4.399  11.466  1.0733  0.1588 -0.5256
  638MOL0     H86122   3.054   4.276  11.420  3.8852  0.3550 -0.0566
  638MOL0     H86123   3.070   4.258  11.598 -0.8077 -1.3730 -1.1084
  638MOL0     H86124   3.060   4.516  11.611 -2.6142  0.2100 -0.4153
  638MOL0     H86125   3.210   4.453  11.548  0.6713  2.9149  1.0403
  638MOL0     H86126   3.103   4.666  11.214  1.8326 -1.9780 -0.5640
  638MOL0     H86127   2.446   4.171  11.590 -1.4454  3.9596  0.7962
  638MOL0     H86128   2.136   4.195  11.385 -2.0749 -1.4394  1.9419
  638MOL0     H86129   2.214   4.046  11.446  0.7933 -1.0603 -0.6749
  638MOL0     H86130   2.196   4.184  11.543 -0.3880 -1.2188 -0.0560
  639MOL0     O86131   8.017  11.226   4.441  0.2919 -0.0827 -0.0800
  639MOL0     C86132   8.075  11.330   4.455 -0.7150  0.3620  0.0846
  639MOL0     O86133   8.018  11.454   4.468  0.2228  0.4778  0.0915
  639MOL0     C86134   7.891  11.452   4.429 -0.1093  0.5432 -0.7280
  639MOL0     C86135   7.854  11.517   4.309  0.4049  0.1553 -0.6053
  639MOL0     C86136   7.716  11.510   4.266 -0.2677  0.1298 -0.4718
  639MOL0     C86137   7.630  11.418   4.330 -0.1524  0.0700 -0.2697
  639MOL0     O86138   7.506  11.390   4.274  0.1375  0.3655 -0.0870
  639MOL0     C86139   7.397  11.378   4.368 -0.3255  0.4335 -0.5475
  639MOL0     C86140   7.264  11.376   4.293 -0.1248 -0.3531 -0.3626
  639MOL0     C86141   7.218  11.506   4.225 -0.7562 -0.3415 -0.1714
  639MOL0     C86142   7.123  11.478   4.103  0.0984 -0.7662  0.4696
  639MOL0     C86143   7.085  11.606   4.032  0.3794 -0.0468 -0.1922
  639MOL0     C86144   7.048  11.572   3.882 -0.5985  0.4726  0.1103
  639MOL0     C86145   6.922  11.494   3.863 -0.2137 -0.6662 -1.1324
  639MOL0     C86146   6.895  11.468   3.713 -0.4455  0.5375 -0.2850
  639MOL0     N86147   6.859  11.584   3.643 -0.5299 -0.9604  0.8597
  639MOL0     C86148   6.900  11.619   3.516  0.9063  0.4155  0.6214
  639MOL0     C86149   6.852  11.749   3.501  0.4886  0.3171 -0.7099
  639MOL0     C86150   6.861  11.828   3.379 -0.0471 -0.7785  0.2393
  639MOL0     C86151   6.997  11.827   3.309  0.5454  0.2148  0.1285
  639MOL0     C86152   6.987  11.902   3.180 -0.1635 -0.0506 -1.4558
  639MOL0     C86153   6.904  11.827   3.080 -1.8170  0.0303 -0.2691
  639MOL0     O86154   6.895  11.899   2.965  0.8339  0.2484 -0.5826
  639MOL0     C86155   6.786  11.886   2.891  0.3260  0.7373  0.1983
  639MOL0     C86156   6.763  11.766   2.818 -0.8459 -0.5814  0.4955
  639MOL0     C86157   6.652  11.748   2.736 -0.4557 -0.4622  0.2807
  639MOL0     C86158   6.550  11.849   2.734 -0.1393 -0.5769 -0.0031
  639MOL0     C86159   6.429  11.829   2.662 -0.0447 -0.2568  0.4731
  639MOL0     O86160   6.318  11.907   2.692 -0.4983 -0.8456 -0.1608
  639MOL0     C86161   6.218  11.918   2.601  0.6464  0.1434 -0.4801
  639MOL0     C86162   6.209  12.023   2.512 -0.4521  0.3232 -0.3534
  639MOL0     C86163   6.109  12.032   2.414 -0.2536 -0.8844 -0.3578
  639MOL0     C86164   6.008  11.937   2.420 -0.9527  0.9163 -1.7589
  639MOL0     O86165   5.904  11.948   2.336 -0.8282  0.0977 -0.5001
  639MOL0     C86166   5.782  11.963   2.398  0.0936 -1.1354 -1.3736
  639MOL0     C86167   5.744  12.106   2.365  0.7854 -0.5952  0.5053
  639MOL0     C86168   5.643  12.160   2.455 -0.4954 -0.1254 -0.0149
  639MOL0     C86169   5.599  12.303   2.425 -0.3712  0.3922 -0.0260
  639MOL0     C86170   5.473  12.332   2.504 -0.2481 -0.3135 -0.1981
  639MOL0     C86171   5.413  12.463   2.442  0.2094 -1.0267 -0.0118
  639MOL0     C86172   5.295  12.519   2.535 -0.3577 -0.7009 -0.2998
  639MOL0     C86173   5.243  12.643   2.484 -0.7795  0.5278 -0.6577
  639MOL0    Cl86174   5.104  12.706   2.564  0.2925 -0.1799  0.2015
  639MOL0     C86175   6.011  11.832   2.514  0.3466 -0.2100 -0.7854
  639MOL0     C86176   6.126  11.823   2.606  0.6999 -0.0004 -0.2825
  639MOL0     O86177   6.441  11.752   2.566 -0.6262  0.5405 -0.1374
  639MOL0     C86178   6.573  11.966   2.815  0.3887 -0.5183  0.2679
  639MOL0     C86179   6.689  11.983   2.889  0.3499 -0.2588  0.7647
  639MOL0     N86180   6.787  11.787   3.614 -0.0838 -0.0005 -0.0829
  639MOL0     N86181   6.792  11.688   3.700  0.0349  0.1786  0.4647
  639MOL0     C86182   7.676  11.356   4.447 -0.4273  0.2975 -0.1680
  639MOL0     C86183   7.799  11.379   4.500 -0.2551 -0.7684 -0.1713
  639MOL0     C86184   8.221  11.308   4.440  0.2140 -0.2766 -0.1582
  639MOL0     C86185   8.277  11.185   4.399  0.3237  0.3565  0.2049
  639MOL0     C86186   8.414  11.168   4.369  0.3759  0.0178 -0.7931
  639MOL0     C86187   8.505  11.264   4.416 -0.0171 -0.0838 -0.3767
  639MOL0     O86188   8.642  11.270   4.396 -0.1461  0.4380 -0.4989
  639MOL0     C86189   8.718  11.166   4.328  0.2071  0.1169  0.0467
  639MOL0     C86190   8.662  11.155   4.180  0.5131  0.3573 -0.2712
  639MOL0     C86191   8.679  11.018   4.122  0.0747 -0.4884  0.3168
  639MOL0     C86192   8.564  10.943   4.062 -0.7577 -0.0274  0.2270
  639MOL0     C86193   8.610  10.806   4.049 -0.7867  0.7919  0.8071
  639MOL0     C86194   8.625  10.688   4.029  0.2720  0.5719 -0.2883
  639MOL0     C86195   8.448  11.373   4.476 -0.2800 -1.0720 -0.2649
  639MOL0     C86196   8.313  11.404   4.486  0.4176  0.6476  0.7583
  639MOL0     C86197   8.272  11.532   4.559  0.7845 -0.6297 -0.3578
  639MOL0     H86198   7.929  11.575   4.257  1.5295 -1.9676 -1.4661
  639MOL0     H86199   7.689  11.563   4.175 -0.0241 -1.4128 -1.4674
  639MOL0     H86200   7.422  11.279   4.407  1.3839  1.3910  0.9261
  639MOL0     H86201   7.387  11.452   4.448 -4.8867 -0.5666  0.0489
  639MOL0     H86202   7.180  11.334   4.349  0.6138 -0.4143  0.7168
  639MOL0     H86203   7.295  11.317   4.206  4.3059 -0.5650  1.1192
  639MOL0     H86204   7.305  11.560   4.187 -1.1597 -0.6608 -1.6354
  639MOL0     H86205   7.166  11.565   4.301  1.1237 -1.0427  1.7649
  639MOL0     H86206   7.177  11.406   4.041  0.3458 -0.7534  0.6687
  639MOL0     H86207   7.027  11.439   4.136 -1.9150  3.2331  0.0054
  639MOL0     H86208   6.995  11.652   4.074 -0.6154 -1.0383 -1.1797
  639MOL0     H86209   7.164  11.682   4.034 -0.9749  1.5925  4.0376
  639MOL0     H86210   7.024  11.667   3.833 -3.2635 -0.6875 -1.0244
  639MOL0     H86211   7.129  11.513   3.837  0.3797  1.1458  0.9346
  639MOL0     H86212   6.839  11.547   3.910  0.0589 -2.5396  1.7331
  639MOL0     H86213   6.925  11.398   3.916 -0.8866  1.0044  2.2137
  639MOL0     H86214   6.987  11.426   3.670  0.5942  2.8192 -0.4212
  639MOL0     H86215   6.812  11.398   3.698 -0.1842  0.0383  0.5370
  639MOL0     H86216   6.951  11.555   3.445  0.1961 -1.3673  1.6348
  639MOL0     H86217   6.785  11.778   3.317 -0.7936 -0.4113  0.8390
  639MOL0     H86218   6.829  11.932   3.390 -1.6740 -0.8738 -2.6407
  639MOL0     H86219   7.069  11.883   3.370 -0.7543  1.2789  0.7469
  639MOL0     H86220   7.032  11.724   3.298  4.6573  0.9722  3.3834
  639MOL0     H86221   7.086  11.925   3.139  1.3326 -1.6214  1.0345
  639MOL0     H86222   6.934  11.994   3.207 -0.5155 -0.9560  1.1927
  639MOL0     H86223   6.804  11.800   3.116 -3.3204  2.3017 -2.3901
  639MOL0     H86224   6.955  11.732   3.061 -1.9667  0.2994 -2.2493
  639MOL0     H86225   6.836  11.686   2.825  0.0185  0.2389  1.0888
  639MOL0     H86226   6.630  11.655   2.684 -0.0229  0.3732 -1.4625
  639MOL0     H86227   6.289  12.096   2.515 -1.7309  1.7697 -0.0035
  639MOL0     H86228   6.082  12.110   2.343 -2.1974 -2.6372 -1.6898
  639MOL0     H86229   5.719  11.884   2.358  0.3048 -1.9372 -0.1761
  639MOL0     H86230   5.787  11.949   2.506 -2.1024 -0.9742 -1.2214
  639MOL0     H86231   5.835  12.166   2.369  1.6505 -1.8600  0.6069
  639MOL0     H86232   5.691  12.092   2.270 -0.8497  0.3398  1.2502
  639MOL0     H86233   5.553  12.098   2.446  0.5932 -1.6685 -0.7346
  639MOL0     H86234   5.678  12.157   2.559 -1.0621 -1.5863  0.1520
  639MOL0     H86235   5.584  12.306   2.317 -0.0838 -0.6252 -0.1023
  639MOL0     H86236   5.681  12.374   2.440 -0.4898  1.5232 -3.6757
  639MOL0     H86237   5.504  12.345   2.608 -0.3669 -0.2455 -0.1719
  639MOL0     H86238   5.390  12.262   2.487 -0.7933  0.6031 -1.4246
  639MOL0     H86239   5.483  12.547   2.445 -2.5574  1.5897 -2.2892
  639MOL0     H86240   5.379  12.453   2.338 -2.0571  0.8219  0.4609
  639MOL0     H86241   5.339  12.528   2.634  1.2499 -0.8983 -0.9520
  639MOL0     H86242   5.207  12.455   2.542 -0.6780 -0.0665  2.3223
  639MOL0     H86243   5.328  12.711   2.492  0.5039 -1.2023  1.8390
  639MOL0     H86244   5.217  12.632   2.378  1.3407 -1.2679 -1.0868
  639MOL0     H86245   5.926  11.766   2.526  0.3778  0.0826  1.5720
  639MOL0     H86246   6.144  11.736   2.669 -1.0217 -1.2968 -1.4836
  639MOL0     H86247   6.490  12.036   2.818  1.4667  0.7661  2.2690
  639MOL0     H86248   6.717  12.077   2.937  1.4096  1.1081 -2.2773
  639MOL0     H86249   7.612  11.291   4.506  1.1442 -2.6186 -1.4532
  639MOL0     H86250   7.822  11.328   4.592 -0.6757 -1.2725 -0.3415
  639MOL0     H86251   8.210  11.110   4.358  1.3626 -0.2277 -0.4905
  639MOL0     H86252   8.448  11.071   4.334 -1.9216 -1.4756  0.7734
  639MOL0     H86253   8.712  11.070   4.379  0.5857 -0.8784 -1.7015
  639MOL0     H86254   8.826  11.186   4.326  0.5610 -1.6245 -2.2772
  639MOL0     H86255   8.708  11.233   4.119  0.9283  4.4029  4.5898
  639MOL0     H86256   8.556  11.182   4.180  0.4422  0.2180  1.2909
  639MOL0     H86257   8.706  10.952   4.205 -0.8679 -1.0837  0.1722
  639MOL0     H86258   8.763  11.013   4.052 -1.3239 -1.6825 -1.3829
  639MOL0     H86259   8.471  10.944   4.119 -0.1018  1.6639  1.3792
  639MOL0     H86260   8.552  10.978   3.959  1.7958 -0.7109 -0.3849
  639MOL0     H86261   8.623  10.581   4.016  2.7126  0.4391  0.0941
  639MOL0     H86262   8.522  11.449   4.501  1.7006 -2.7061 -0.8590
  639MOL0     H86263   8.245  11.617   4.497  0.0961  0.4955  1.4020
  639MOL0     H86264   8.191  11.507   4.628  1.0552  0.4485  0.3751
  639MOL0     H86265   8.347  11.556   4.635  0.9331 -1.3189 -0.2743
  640MOL0     O86266   3.036   9.723   1.848  0.2376  0.2201  0.0647
  640MOL0     C86267   3.092   9.803   1.920 -0.7661 -0.6252  0.0534
  640MOL0     O86268   3.042   9.851   2.035 -0.0989 -0.4296  0.4061
  640MOL0     C86269   2.909   9.878   2.037 -0.0637  0.1728  1.0069
  640MOL0     C86270   2.837   9.918   1.921 -0.7554 -0.2358 -0.0453
  640MOL0     C86271   2.699   9.929   1.928 -0.3480 -0.4562 -0.1597
  640MOL0     C86272   2.634   9.905   2.046  0.4666 -0.2747 -0.3409
  640MOL0     O86273   2.498   9.909   2.038  1.0606  0.3196  0.3088
  640MOL0     C86274   2.430   9.915   2.163 -0.2934  0.0381 -0.2544
  640MOL0     C86275   2.273   9.929   2.160 -0.8131  1.0750  0.7662
  640MOL0     C86276   2.239  10.021   2.281 -0.2293 -1.0221  0.4816
  640MOL0     C86277   2.091  10.004   2.318  1.7355  0.0207 -0.6618
  640MOL0     C86278   2.024  10.117   2.398 -0.2135  0.8175 -0.0201
  640MOL0     C86279   1.890  10.068   2.446  0.1697  0.0494  0.7645
  640MOL0     C86280   1.824  10.181   2.512  0.1341  0.2937 -1.2365
  640MOL0     C86281   1.870  10.186   2.661  0.1106 -0.1432  0.0996
  640MOL0     N86282   1.799  10.284   2.745 -0.3180 -0.5386 -0.0925
  640MOL0     C86283   1.819  10.419   2.751 -0.2533  0.1033 -0.2890
  640MOL0     C86284   1.704  10.470   2.795 -0.4311 -1.0009 -0.0591
  640MOL0     C86285   1.687  10.624   2.804 -0.8250 -0.5666  0.0689
  640MOL0     C86286   1.742  10.678   2.941  1.1979 -0.2888 -0.5294
  640MOL0     C86287   1.732  10.824   2.962  0.3050  0.4568  0.0889
  640MOL0     C86288   1.797  10.860   3.097  0.2902  0.1261  0.1195
  640MOL0     O86289   1.802  11.004   3.123 -0.4928  0.1866  0.1532
  640MOL0     C86290   1.902  11.080   3.064 -0.2434 -0.5980 -0.4774
  640MOL0     C86291   1.891  11.223   3.072 -0.2680  0.8599  0.2320
  640MOL0     C86292   1.995  11.302   3.024 -0.5233 -0.1201 -0.2925
  640MOL0     C86293   2.105  11.251   2.960  0.6511  0.6814  0.2504
  640MOL0     C86294   2.214  11.346   2.920 -0.2753 -0.4721  0.2278
  640MOL0     O86295   2.181  11.471   2.871  0.1924 -0.6750 -0.0984
  640MOL0     C86296   2.277  11.549   2.806  0.1205  0.7924  0.1879
  640MOL0     C86297   2.368  11.612   2.886  0.0647 -0.4765  0.6268
  640MOL0     C86298   2.459  11.711   2.831 -0.0250 -0.2011  0.3173
  640MOL0     C86299   2.462  11.736   2.697 -0.2943 -0.0294  0.3805
  640MOL0     O86300   2.528  11.841   2.637 -0.5443  0.1430  0.2167
  640MOL0     C86301   2.654  11.872   2.699  0.8901 -0.0518 -0.2553
  640MOL0     C86302   2.718  11.988   2.629  0.0822 -0.0202 -0.4790
  640MOL0     C86303   2.848  12.036   2.694  0.6311 -0.0125  0.4065
  640MOL0     C86304   2.967  11.947   2.665  0.0300 -0.1736 -0.4800
  640MOL0     C86305   3.103  12.016   2.700  0.2427  0.1322 -0.8907
  640MOL0     C86306   3.224  11.927   2.644 -0.2109  0.4368 -0.6462
  640MOL0     C86307   3.231  11.790   2.693 -0.4393  0.5372 -0.2923
  640MOL0     C86308   3.218  11.763   2.843 -0.4855  0.6426  0.0811
  640MOL0    Cl86309   3.374  11.812   2.914  0.1325  0.0063  0.1137
  640MOL0     C86310   2.381  11.653   2.615  0.0690 -0.1259 -0.3897
  640MOL0     C86311   2.285  11.566   2.674 -0.2655  0.5341 -0.9049
  640MOL0     O86312   2.322  11.296   2.908 -0.8426  0.4571  0.0108
  640MOL0     C86313   2.108  11.114   2.933 -0.1174  0.3100 -0.6421
  640MOL0     C86314   2.007  11.023   2.978 -0.8217 -0.3093  0.2506
  640MOL0     N86315   1.613  10.371   2.815 -0.4776 -0.0558 -0.5069
  640MOL0     N86316   1.679  10.259   2.801  0.5794  0.4559 -0.2259
  640MOL0     C86317   2.711   9.882   2.160  0.8268  0.1419  0.1377
  640MOL0     C86318   2.848   9.861   2.154  0.6135 -0.1720 -0.1793
  640MOL0     C86319   3.237   9.824   1.904  0.0641 -0.2198  0.7418
  640MOL0     C86320   3.292   9.935   1.967 -0.1887 -0.2395 -0.4245
  640MOL0     C86321   3.427   9.971   1.949 -0.6698 -0.3670  0.1969
  640MOL0     C86322   3.510   9.876   1.879 -0.2675  0.3413 -0.1480
  640MOL0     O86323   3.649   9.891   1.857 -0.2630 -0.6948 -0.1063
  640MOL0     C86324   3.680   9.966   1.745  0.1848 -0.7367  0.4507
  640MOL0     C86325   3.824   9.935   1.682  0.3128  0.3379 -0.0787
  640MOL0     C86326   3.932  10.025   1.744 -0.0872 -0.8056  0.1209
  640MOL0     C86327   4.053  10.008   1.660  0.4619 -0.1197  0.0036
  640MOL0     C86328   4.100   9.867   1.648 -0.1856  0.0868  0.9003
  640MOL0     C86329   4.136   9.750   1.646 -0.0619  0.0347 -0.4836
  640MOL0     C86330   3.458   9.769   1.813  0.1156  0.1299 -0.0932
  640MOL0     C86331   3.320   9.740   1.817  0.1736 -0.4858 -0.6691
  640MOL0     C86332   3.282   9.606   1.751  0.4364 -0.3561  0.6908
  640MOL0     H86333   2.884   9.933   1.824 -0.8529  1.8877  0.1925
  640MOL0     H86334   2.644   9.953   1.838 -0.3913  0.3879  0.0848
  640MOL0     H86335   2.454   9.814   2.198 -0.3457  0.5954  1.4467
  640MOL0     H86336   2.466   9.992   2.231 -0.3501  0.1102 -0.3058
  640MOL0     H86337   2.232   9.828   2.171  2.1229 -0.2049  0.7244
  640MOL0     H86338   2.237   9.966   2.063 -1.7201  0.6574  0.9313
  640MOL0     H86339   2.262  10.124   2.254  0.9749 -1.3299  0.2881
  640MOL0     H86340   2.304   9.998   2.366  1.0615 -0.1117 -0.2234
  640MOL0     H86341   2.032  10.007   2.226  0.1680  2.5120  0.3482
  640MOL0     H86342   2.078   9.906   2.364  2.7421 -0.2060 -0.8317
  640MOL0     H86343   2.087  10.129   2.486 -0.9209 -1.0967  0.7911
  640MOL0     H86344   2.025  10.214   2.346  1.6349  0.6501 -0.3521
  640MOL0     H86345   1.830  10.024   2.366 -0.8177  2.1950  0.2238
  640MOL0     H86346   1.911   9.989   2.518 -2.5384  0.2798  1.9206
  640MOL0     H86347   1.715  10.185   2.506  0.0155 -0.4768  0.1140
  640MOL0     H86348   1.856  10.272   2.460 -1.3513  0.6638 -1.5491
  640MOL0     H86349   1.835  10.092   2.703 -0.2393 -2.2825 -4.3854
  640MOL0     H86350   1.979  10.184   2.668  0.2017  1.4555 -0.3221
  640MOL0     H86351   1.897  10.478   2.702 -0.8586  0.9102 -0.3022
  640MOL0     H86352   1.725  10.666   2.711 -1.6066 -1.0288 -0.4720
  640MOL0     H86353   1.579  10.640   2.807 -0.9139 -0.9224 -0.8492
  640MOL0     H86354   1.687  10.626   3.020  0.4512 -0.1069 -0.9262
  640MOL0     H86355   1.846  10.643   2.943  1.3932  0.1513 -1.9409
  640MOL0     H86356   1.628  10.859   2.968  0.5820  1.4156 -0.4183
  640MOL0     H86357   1.785  10.879   2.884  0.1987  0.5592  0.0884
  640MOL0     H86358   1.896  10.815   3.110  0.9379  1.3004 -0.6181
  640MOL0     H86359   1.726  10.816   3.168  1.2607 -1.2418  0.2727
  640MOL0     H86360   1.802  11.254   3.127  0.2107 -1.5564  2.5750
  640MOL0     H86361   1.996  11.410   3.036 -1.4457 -0.0238 -0.9457
  640MOL0     H86362   2.375  11.593   2.992  0.7901  1.7864  1.0258
  640MOL0     H86363   2.516  11.770   2.902  1.2723 -1.0774  0.0186
  640MOL0     H86364   2.637  11.897   2.804 -1.1129  0.1441 -0.5828
  640MOL0     H86365   2.719  11.784   2.693  3.5619  1.8560 -0.7572
  640MOL0     H86366   2.747  11.947   2.531  3.2951  0.4612  0.1604
  640MOL0     H86367   2.644  12.069   2.628  0.2405  0.1255 -0.3548
  640MOL0     H86368   2.862  12.140   2.665  1.7038 -0.3018 -0.1466
  640MOL0     H86369   2.839  12.047   2.802  1.1125  2.1147  0.2609
  640MOL0     H86370   2.962  11.924   2.558 -1.3950 -1.6289 -0.1313
  640MOL0     H86371   2.960  11.853   2.720  1.0701  1.7326  3.2824
  640MOL0     H86372   3.108  12.026   2.809  2.0584 -0.1792 -0.9126
  640MOL0     H86373   3.110  12.111   2.646 -0.0676 -0.0378 -1.2334
  640MOL0     H86374   3.219  11.918   2.535 -1.8801 -0.4358 -0.5222
  640MOL0     H86375   3.319  11.976   2.668 -0.1780  0.8430 -1.5534
  640MOL0     H86376   3.318  11.735   2.656 -0.6197  2.2414 -3.5754
  640MOL0     H86377   3.153  11.738   2.636 -1.3369 -2.0888  3.0158
  640MOL0     H86378   3.138  11.823   2.888 -0.8646  0.5710 -0.4876
  640MOL0     H86379   3.201  11.657   2.862  0.8638  0.4261  0.1771
  640MOL0     H86380   2.394  11.674   2.509  2.5200 -0.1397 -0.1422
  640MOL0     H86381   2.232  11.500   2.606  1.3052 -2.3715  0.4761
  640MOL0     H86382   2.194  11.062   2.892 -2.1265 -2.5127 -1.5726
  640MOL0     H86383   2.013  10.915   2.966 -0.7234 -0.1236 -1.7021
  640MOL0     H86384   2.667   9.878   2.259 -0.4970  0.7324 -0.4049
  640MOL0     H86385   2.905   9.828   2.240  0.5847 -1.3685 -0.6093
  640MOL0     H86386   3.238  10.010   2.023 -2.2680  0.2582 -2.9118
  640MOL0     H86387   3.473  10.053   2.003  1.1249  0.3818 -2.3054
  640MOL0     H86388   3.665  10.073   1.762  0.1101 -0.6043 -0.4076
  640MOL0     H86389   3.612   9.934   1.666 -1.0326  3.3121 -0.3593
  640MOL0     H86390   3.820   9.945   1.573 -2.0289 -1.5875 -0.2555
  640MOL0     H86391   3.843   9.828   1.691 -2.6670 -0.2869 -0.3029
  640MOL0     H86392   3.955   9.999   1.848 -0.0348  0.7316  0.5199
  640MOL0     H86393   3.896  10.128   1.757  0.1986 -0.6262 -0.4732
  640MOL0     H86394   4.034  10.033   1.555  2.2883 -0.9275 -0.5471
  640MOL0     H86395   4.140  10.065   1.696  2.2347 -1.9873 -1.1398
  640MOL0     H86396   4.170   9.648   1.646 -0.6562 -0.1989  1.2757
  640MOL0     H86397   3.523   9.709   1.750 -0.1401 -0.1286 -0.1150
  640MOL0     H86398   3.275   9.532   1.831  0.3419 -0.4155  0.6276
  640MOL0     H86399   3.193   9.606   1.689  0.2240 -3.1158  0.9095
  640MOL0     H86400   3.353   9.580   1.672  0.7000  2.2237 -0.0280
  641MOL0     O86401   8.749   8.527   7.724 -0.0965 -0.1242 -0.4764
  641MOL0     C86402   8.714   8.615   7.651  0.5990  0.4604  0.3787
  641MOL0     O86403   8.777   8.635   7.529 -0.3004  0.3086  0.9838
  641MOL0     C86404   8.884   8.561   7.485 -0.1365  0.1238 -0.9184
  641MOL0     C86405   8.868   8.427   7.488  0.2392  0.7447 -0.6593
  641MOL0     C86406   8.980   8.344   7.455  0.8837 -0.3307 -0.2480
  641MOL0     C86407   9.103   8.390   7.426  0.0227 -0.2669 -0.1029
  641MOL0     O86408   9.210   8.314   7.379 -0.6887 -0.9354 -0.4444
  641MOL0     C86409   9.329   8.390   7.332  1.6402  0.1900  0.5435
  641MOL0     C86410   9.410   8.275   7.271 -0.8296 -0.3889  0.6158
  641MOL0     C86411   9.448   8.162   7.367 -0.0874 -0.5198  0.3046
  641MOL0     C86412   9.559   8.080   7.307 -0.0285 -0.0362 -0.2335
  641MOL0     C86413   9.627   7.993   7.413 -0.3655  0.7465 -0.3633
  641MOL0     C86414   9.739   7.918   7.345 -0.2897 -0.3780 -0.4717
  641MOL0     C86415   9.819   7.834   7.433 -1.0139  0.1208 -0.0082
  641MOL0     C86416   9.954   7.789   7.375  0.1448  0.2647  0.1130
  641MOL0     N86417  10.058   7.782   7.469  0.2842 -0.0574 -0.7672
  641MOL0     C86418  10.052   7.722   7.595  0.1366 -0.5231 -0.1907
  641MOL0     C86419  10.178   7.713   7.639  1.4791  0.6741 -0.4561
  641MOL0     C86420  10.224   7.658   7.770  0.5943  0.7407 -0.6514
  641MOL0     C86421  10.361   7.584   7.748  0.1302 -0.0815 -0.0835
  641MOL0     C86422  10.476   7.682   7.736 -0.2421  0.2747 -0.6755
  641MOL0     C86423  10.596   7.643   7.826  0.2561  0.3678  0.2758
  641MOL0     O86424  10.717   7.704   7.774 -0.0201 -0.3238 -0.6266
  641MOL0     C86425  10.824   7.695   7.857 -0.8294  0.6132  0.2786
  641MOL0     C86426  10.934   7.780   7.821  0.0608 -0.4564 -0.4555
  641MOL0     C86427  11.060   7.781   7.889  0.6345 -0.0335 -0.9186
  641MOL0     C86428  11.070   7.705   7.999 -0.6213 -0.1120 -0.2801
  641MOL0     C86429  11.197   7.683   8.072  0.4692  0.3463  0.1071
  641MOL0     O86430  11.214   7.570   8.142  0.7657  1.0431 -0.1954
  641MOL0     C86431  11.340   7.525   8.190 -0.3927 -0.0672 -0.1876
  641MOL0     C86432  11.343   7.469   8.323 -0.8256 -0.7953  0.6244
  641MOL0     C86433  11.468   7.435   8.377  0.5954 -0.2523  0.3360
  641MOL0     C86434  11.590   7.443   8.310 -0.2393 -1.0447  0.0174
  641MOL0     O86435  11.717   7.396   8.343 -0.3543  0.2559 -0.1324
  641MOL0     C86436  11.747   7.422   8.482  0.4691 -0.4811  0.0193
  641MOL0     C86437  11.877   7.354   8.501 -0.2197  0.2992 -1.1112
  641MOL0     C86438  11.927   7.384   8.651  0.3383 -0.0954  0.5816
  641MOL0     C86439  12.055   7.303   8.681 -0.3905 -0.2722 -0.4224
  641MOL0     C86440  12.127   7.334   8.816 -0.2927  1.1653 -0.7537
  641MOL0     C86441  12.248   7.229   8.827  1.2302 -0.8732 -0.0594
  641MOL0     C86442  12.296   7.241   8.976 -0.1139  0.3871 -0.8685
  641MOL0     C86443  12.216   7.155   9.075 -0.3067  0.4375  0.1398
  641MOL0    Cl86444  12.062   7.225   9.129  0.6348 -0.1957 -0.4124
  641MOL0     C86445  11.586   7.503   8.180  0.3385  0.2645 -0.1380
  641MOL0     C86446  11.456   7.540   8.122 -1.2564  1.0627 -0.0389
  641MOL0     O86447  11.282   7.770   8.062 -0.2082  0.3389  0.0657
  641MOL0     C86448  10.962   7.622   8.050 -0.5090 -0.5792  0.7235
  641MOL0     C86449  10.841   7.610   7.972 -0.2106  0.4620 -0.3868
  641MOL0     N86450  10.257   7.772   7.542  0.4782 -0.0194 -0.2543
  641MOL0     N86451  10.184   7.806   7.435 -0.5664  0.1547  0.0814
  641MOL0     C86452   9.109   8.532   7.427  0.0835 -0.0960 -1.3776
  641MOL0     C86453   8.999   8.612   7.450  0.3128 -0.2460 -0.1904
  641MOL0     C86454   8.599   8.700   7.689 -0.5559 -0.2496 -0.7151
  641MOL0     C86455   8.617   8.837   7.707 -0.1778  0.0813 -0.2611
  641MOL0     C86456   8.506   8.907   7.757  0.3452 -0.3618 -0.3237
  641MOL0     C86457   8.383   8.844   7.782  0.1247  0.2853 -0.5932
  641MOL0     O86458   8.294   8.934   7.823  0.8389 -0.0692  0.0201
  641MOL0     C86459   8.157   8.891   7.828  0.2609  0.5528 -0.1125
  641MOL0     C86460   8.054   8.992   7.880 -0.0628 -0.5168  0.2553
  641MOL0     C86461   8.022   9.105   7.773 -1.4154 -1.2414  0.2700
  641MOL0     C86462   7.904   9.191   7.803 -0.1620  0.4314  0.3345
  641MOL0     C86463   7.945   9.278   7.911  0.3681 -0.0961 -0.1314
  641MOL0     C86464   7.985   9.355   7.996 -0.1290  0.2118 -0.5922
  641MOL0     C86465   8.370   8.710   7.763 -0.6786 -0.0095  0.3760
  641MOL0     C86466   8.475   8.633   7.723 -0.2386 -0.0209 -0.3906
  641MOL0     C86467   8.465   8.475   7.699 -0.1650 -1.7973 -0.2087
  641MOL0     H86468   8.774   8.383   7.522  0.7015 -0.5671 -1.0513
  641MOL0     H86469   8.961   8.237   7.461 -1.2362  0.0904  2.2868
  641MOL0     H86470   9.310   8.469   7.258  1.3562 -0.4192 -0.0459
  641MOL0     H86471   9.386   8.428   7.417 -0.8496 -1.1539  2.9955
  641MOL0     H86472   9.501   8.327   7.241 -0.9829 -1.4452 -1.9166
  641MOL0     H86473   9.366   8.238   7.178 -1.0644  3.2503 -0.9017
  641MOL0     H86474   9.369   8.094   7.398  2.3853 -2.6701  2.2478
  641MOL0     H86475   9.486   8.214   7.455 -0.9292  0.8542 -0.1105
  641MOL0     H86476   9.517   8.010   7.235 -1.3811  0.4484  0.0548
  641MOL0     H86477   9.623   8.149   7.251 -0.5995  0.1319 -0.6799
  641MOL0     H86478   9.668   8.062   7.488  0.1401 -0.9875  1.0387
  641MOL0     H86479   9.551   7.926   7.454  1.1572 -0.1325  1.1567
  641MOL0     H86480   9.703   7.856   7.262  1.4833 -1.5440 -0.4421
  641MOL0     H86481   9.800   7.998   7.302 -1.5258 -0.7746 -3.1898
  641MOL0     H86482   9.759   7.755   7.479 -0.9062  0.5906  0.9803
  641MOL0     H86483   9.841   7.903   7.516  0.0140 -0.1135 -0.0686
  641MOL0     H86484   9.928   7.692   7.333  0.5430  0.1680  0.0877
  641MOL0     H86485   9.979   7.844   7.284  1.2575  0.8642  0.7653
  641MOL0     H86486   9.967   7.679   7.647 -0.0334  0.2659  0.2049
  641MOL0     H86487  10.234   7.734   7.849  2.0140  1.2031 -1.2354
  641MOL0     H86488  10.150   7.584   7.801  1.9349  0.8001  3.3691
  641MOL0     H86489  10.377   7.514   7.831  0.4439 -0.2045 -0.2459
  641MOL0     H86490  10.360   7.513   7.665  1.9206 -0.5948  0.2719
  641MOL0     H86491  10.449   7.780   7.777 -0.7299 -1.4517  3.7324
  641MOL0     H86492  10.517   7.679   7.634  0.7654 -2.1254 -0.2722
  641MOL0     H86493  10.618   7.536   7.824 -0.6098  0.0744 -4.0657
  641MOL0     H86494  10.577   7.674   7.929  1.9767  2.6282  0.0016
  641MOL0     H86495  10.911   7.833   7.729 -0.9702 -0.1216 -0.0214
  641MOL0     H86496  11.144   7.838   7.851  0.7277  0.6525  0.2603
  641MOL0     H86497  11.252   7.483   8.381 -1.5537 -3.1563  0.1462
  641MOL0     H86498  11.476   7.417   8.484 -0.8362  1.8175  0.8439
  641MOL0     H86499  11.774   7.527   8.499 -2.2660  0.4782 -1.0871
  641MOL0     H86500  11.674   7.380   8.551  3.4633 -1.0962  3.0770
  641MOL0     H86501  11.871   7.246   8.484  1.8879 -0.1995  0.7648
  641MOL0     H86502  11.955   7.377   8.427  2.5963 -1.2539  1.1338
  641MOL0     H86503  11.936   7.491   8.674 -3.9374  0.8895 -1.4442
  641MOL0     H86504  11.849   7.344   8.716  0.2538 -0.6240  0.1640
  641MOL0     H86505  12.135   7.330   8.611  1.0042 -3.0436 -0.0386
  641MOL0     H86506  12.040   7.196   8.664  0.6624 -0.5894  0.5452
  641MOL0     H86507  12.051   7.318   8.893 -0.8296 -0.2884 -1.5475
  641MOL0     H86508  12.149   7.441   8.822 -2.7150  1.6811  0.2211
  641MOL0     H86509  12.211   7.129   8.803 -1.2565 -0.4500  1.6672
  641MOL0     H86510  12.325   7.256   8.754  2.8909 -4.3930  0.1355
  641MOL0     H86511  12.291   7.346   9.007  0.6677  0.1949 -0.0336
  641MOL0     H86512  12.401   7.209   8.984  0.6436  3.1613  1.6841
  641MOL0     H86513  12.190   7.062   9.025 -2.7029  0.2004  1.6760
  641MOL0     H86514  12.280   7.125   9.159  1.8437  0.8585 -1.2521
  641MOL0     H86515  11.674   7.501   8.117 -0.0189  0.3031 -0.6496
  641MOL0     H86516  11.450   7.578   8.021  0.0278  1.2519 -0.0672
  641MOL0     H86517  10.973   7.552   8.132  0.4489 -1.7081 -0.3200
  641MOL0     H86518  10.758   7.550   8.006  1.1128 -0.0918  2.1769
  641MOL0     H86519   9.202   8.584   7.407  0.9043 -1.0596 -0.2124
  641MOL0     H86520   9.017   8.719   7.452 -2.2492  0.2521 -0.6157
  641MOL0     H86521   8.718   8.873   7.694  0.3569 -1.2131  0.1783
  641MOL0     H86522   8.521   9.008   7.793  2.3046 -0.5186 -0.6200
  641MOL0     H86523   8.145   8.804   7.893 -0.8389  1.3622  0.8113
  641MOL0     H86524   8.118   8.848   7.736 -5.2930 -0.8157  2.4693
  641MOL0     H86525   8.103   9.057   7.954  2.2570  0.2554 -1.8388
  641MOL0     H86526   7.960   8.947   7.912 -0.6433  1.6317  1.8663
  641MOL0     H86527   7.986   9.060   7.680 -0.6203 -0.4113 -0.4572
  641MOL0     H86528   8.114   9.161   7.756 -1.5535 -1.5332 -1.6654
  641MOL0     H86529   7.880   9.250   7.714 -0.9846  1.5926  1.3020
  641MOL0     H86530   7.816   9.133   7.830 -0.2962  0.8701  0.8482
  641MOL0     H86531   8.025   9.398   8.086  0.4390 -0.9506 -0.2746
  641MOL0     H86532   8.271   8.666   7.764 -0.7015 -0.0287 -0.8488
  641MOL0     H86533   8.538   8.434   7.629  1.3509 -0.2373  0.4005
  641MOL0     H86534   8.487   8.423   7.792  0.8139  1.1870  1.3773
  641MOL0     H86535   8.365   8.450   7.661 -0.0649  0.3659 -2.1618
  642MOL0     O86536   3.154   9.713   0.521 -0.2284 -0.5857 -0.2568
  642MOL0     C86537   3.120   9.789   0.429  0.0877 -0.2548  0.6653
  642MOL0     O86538   3.188   9.816   0.321  0.1354  0.4540  0.1578
  642MOL0     C86539   3.316   9.767   0.301  0.4705  1.3734  0.7923
  642MOL0     C86540   3.412   9.755   0.405 -0.8423  1.0115 -0.4151
  642MOL0     C86541   3.547   9.718   0.383  0.3703  0.2904  0.1958
  642MOL0     C86542   3.591   9.692   0.256 -0.1166 -0.4108 -0.6448
  642MOL0     O86543   3.726   9.676   0.257 -0.1391  0.4429 -0.0367
  642MOL0     C86544   3.778   9.611   0.137 -0.5515  0.6912  0.6287
  642MOL0     C86545   3.925   9.564   0.150  0.4451  0.0391 -0.2265
  642MOL0     C86546   3.960   9.488   0.022  0.5319  0.4503 -0.3992
  642MOL0     C86547   4.102   9.416   0.043  0.3788  1.0552  0.8261
  642MOL0     C86548   4.170   9.396  -0.092  0.0192  0.2675 -0.4288
  642MOL0     C86549   4.299   9.304  -0.066 -0.1147 -0.8244 -0.2205
  642MOL0     C86550   4.364   9.273  -0.199  0.1313  0.3042  0.9679
  642MOL0     C86551   4.411   9.397  -0.289  0.6716 -0.7883 -0.5761
  642MOL0     N86552   4.505   9.496  -0.220  0.1815 -0.3904 -0.4973
  642MOL0     C86553   4.638   9.471  -0.191 -0.4850  0.3779 -0.3220
  642MOL0     C86554   4.677   9.574  -0.111 -0.6336 -0.6329 -0.7923
  642MOL0     C86555   4.821   9.607  -0.072  0.8942  0.3368 -0.5532
  642MOL0     C86556   4.894   9.686  -0.172 -0.2651  0.6592  0.4295
  642MOL0     C86557   4.980   9.794  -0.099 -0.0752 -0.3483  0.0313
  642MOL0     C86558   5.080   9.736   0.001 -0.2783 -0.0734 -0.3682
  642MOL0     O86559   5.170   9.640  -0.060  0.5210 -0.2392 -0.4391
  642MOL0     C86560   5.296   9.683  -0.094  0.0328  1.1292 -0.3000
  642MOL0     C86561   5.387   9.579  -0.112  0.1912 -0.0400  0.0218
  642MOL0     C86562   5.523   9.605  -0.136  0.1467 -0.1029 -1.1037
  642MOL0     C86563   5.570   9.734  -0.136  0.4999 -0.2670 -0.3802
  642MOL0     C86564   5.715   9.758  -0.148  0.1977  0.3759  0.1631
  642MOL0     O86565   5.796   9.651  -0.143  0.6174  1.0632 -0.1087
  642MOL0     C86566   5.922   9.659  -0.189 -0.0332  0.0377  0.8783
  642MOL0     C86567   6.024   9.720  -0.122 -0.2719 -0.7464  0.4143
  642MOL0     C86568   6.155   9.720  -0.173  0.5125 -0.8008 -0.7836
  642MOL0     C86569   6.185   9.674  -0.300 -1.3424  0.1816 -0.3061
  642MOL0     O86570   6.315   9.701  -0.338  1.6346  0.5076  0.5148
  642MOL0     C86571   6.356   9.632  -0.461  0.4172 -0.7602 -0.9205
  642MOL0     C86572   6.492   9.694  -0.494  0.0478  0.0883 -0.7827
  642MOL0     C86573   6.480   9.832  -0.565 -0.1607 -0.3620 -0.8304
  642MOL0     C86574   6.607   9.903  -0.576  0.7322  0.6180  0.2210
  642MOL0     C86575   6.612  10.025  -0.665 -0.5457 -0.0635 -0.2552
  642MOL0     C86576   6.758  10.071  -0.669  0.7978 -0.2293  0.1520
  642MOL0     C86577   6.848   9.989  -0.751 -1.1883  0.5757  0.3947
  642MOL0     C86578   6.990  10.045  -0.732  0.1600  0.0447 -0.0711
  642MOL0    Cl86579   7.005  10.208  -0.828 -0.0996 -0.1832  0.0305
  642MOL0     C86580   6.083   9.608  -0.375  0.4903 -0.0193  0.2782
  642MOL0     C86581   5.957   9.601  -0.311 -0.5989 -0.7915  0.3699
  642MOL0     O86582   5.752   9.872  -0.165  0.3229 -0.4868  0.6753
  642MOL0     C86583   5.474   9.837  -0.116 -0.4723  1.2102  0.9767
  642MOL0     C86584   5.339   9.813  -0.096 -0.3070  0.6287 -1.0046
  642MOL0     N86585   4.568   9.657  -0.084  0.4753 -0.3985 -0.1167
  642MOL0     N86586   4.467   9.607  -0.147 -0.6566  0.3403 -0.6750
  642MOL0     C86587   3.497   9.701   0.153  0.6099  0.7118  0.4377
  642MOL0     C86588   3.362   9.729   0.170 -0.5563 -0.0089 -0.6827
  642MOL0     C86589   2.991   9.862   0.437  0.4766 -0.7513 -0.4404
  642MOL0     C86590   2.980   9.983   0.365  0.6167 -0.9826  0.5121
  642MOL0     C86591   2.857  10.052   0.357 -0.5956  0.3436  0.6411
  642MOL0     C86592   2.741  10.002   0.403  0.3585  0.1946 -1.3534
  642MOL0     O86593   2.620  10.066   0.396 -0.3805 -0.1783  0.5865
  642MOL0     C86594   2.585  10.131   0.270  0.1265  0.3603  0.9780
  642MOL0     C86595   2.436  10.155   0.277 -0.9320 -0.6652  0.1671
  642MOL0     C86596   2.388  10.287   0.196 -0.5235 -0.8654  0.0811
  642MOL0     C86597   2.381  10.240   0.046  0.4038 -0.3319  0.5802
  642MOL0     C86598   2.406  10.345  -0.057  0.2904  0.3250 -0.3822
  642MOL0     C86599   2.436  10.395  -0.159 -0.3563 -0.3174 -0.6788
  642MOL0     C86600   2.745   9.890   0.481 -0.6095  0.3319  0.9588
  642MOL0     C86601   2.866   9.818   0.500  0.5072 -0.0364 -0.0917
  642MOL0     C86602   2.857   9.695   0.589 -0.2475 -0.0322  0.2873
  642MOL0     H86603   3.401   9.789   0.507  2.8360 -1.1013  0.8814
  642MOL0     H86604   3.623   9.710   0.460  0.7448  1.6989  0.0166
  642MOL0     H86605   3.714   9.524   0.121  1.0607 -0.0566 -2.6292
  642MOL0     H86606   3.772   9.681   0.053 -1.2148 -0.0653  0.0307
  642MOL0     H86607   3.932   9.500   0.238 -0.9995  2.6422  1.9310
  642MOL0     H86608   3.979   9.658   0.160 -0.6435  0.8443 -1.6591
  642MOL0     H86609   3.955   9.553  -0.066 -3.0179  1.4880  0.4116
  642MOL0     H86610   3.883   9.415  -0.004 -1.4520  2.4565 -0.4545
  642MOL0     H86611   4.167   9.472   0.110 -1.2037  1.3756  2.1734
  642MOL0     H86612   4.105   9.315   0.085  2.3644 -1.3407 -4.2752
  642MOL0     H86613   4.105   9.354  -0.168  1.8389 -1.7909 -0.9389
  642MOL0     H86614   4.193   9.499  -0.122 -2.0697  1.2493  1.0427
  642MOL0     H86615   4.367   9.365  -0.007  1.3511 -1.1074 -1.5448
  642MOL0     H86616   4.274   9.212  -0.011 -1.8829 -0.3970 -0.2617
  642MOL0     H86617   4.295   9.215  -0.260 -1.1431  0.3380  2.3210
  642MOL0     H86618   4.456   9.215  -0.188  1.3563  1.6646 -1.4860
  642MOL0     H86619   4.448   9.349  -0.379 -0.8992 -4.9058  0.7309
  642MOL0     H86620   4.322   9.454  -0.320  0.5675 -1.5359 -1.7078
  642MOL0     H86621   4.701   9.391  -0.228  0.1840  0.0859  1.3878
  642MOL0     H86622   4.807   9.650   0.028  0.5509 -1.9976  0.4797
  642MOL0     H86623   4.883   9.518  -0.058  2.2508  1.4215  0.8277
  642MOL0     H86624   4.954   9.620  -0.235 -2.2918 -0.6421 -0.2092
  642MOL0     H86625   4.816   9.741  -0.226 -0.4661 -2.0075 -2.2910
  642MOL0     H86626   4.904   9.858  -0.054 -1.1662 -1.9753  0.6098
  642MOL0     H86627   5.045   9.846  -0.170  3.4274 -4.5886 -0.2724
  642MOL0     H86628   5.023   9.676   0.073 -1.7390 -1.5577 -2.6609
  642MOL0     H86629   5.125   9.818   0.058  0.3024 -1.2790  0.9835
  642MOL0     H86630   5.346   9.480  -0.127 -1.7340  0.9980 -2.3796
  642MOL0     H86631   5.600   9.529  -0.137  1.1261  0.6161  2.5601
  642MOL0     H86632   6.020   9.782  -0.033 -0.2112  0.7155 -0.5591
  642MOL0     H86633   6.230   9.767  -0.110  0.2410  1.4624 -2.0296
  642MOL0     H86634   6.381   9.532  -0.424  0.3954 -0.9445 -1.3908
  642MOL0     H86635   6.286   9.632  -0.546 -0.1410  1.0322 -0.5081
  642MOL0     H86636   6.549   9.712  -0.402  1.2120  1.2334 -1.6974
  642MOL0     H86637   6.556   9.633  -0.559  2.1461  1.4271 -0.0717
  642MOL0     H86638   6.449   9.807  -0.667 -3.1325  1.9985 -0.6452
  642MOL0     H86639   6.416   9.899  -0.508  3.9531  3.1257  0.2098
  642MOL0     H86640   6.675   9.828  -0.616 -0.2431 -0.6562  0.8905
  642MOL0     H86641   6.632   9.925  -0.472  0.6514 -1.3306  0.6851
  642MOL0     H86642   6.550  10.108  -0.630  0.1032  0.7676 -1.0319
  642MOL0     H86643   6.578   9.992  -0.764  0.5489 -0.5288 -0.4894
  642MOL0     H86644   6.761  10.173  -0.709 -1.7396  0.0211  0.4161
  642MOL0     H86645   6.801  10.082  -0.569  3.2934 -1.2388 -0.7336
  642MOL0     H86646   6.820   9.974  -0.856 -1.2967  0.9005  0.3741
  642MOL0     H86647   6.850   9.889  -0.707 -0.3756  0.1396 -0.5942
  642MOL0     H86648   7.006  10.055  -0.624 -1.4791 -1.7584  0.3747
  642MOL0     H86649   7.062   9.969  -0.764 -0.9427 -2.2843  2.5731
  642MOL0     H86650   6.094   9.565  -0.474  0.4143 -0.5320  0.4868
  642MOL0     H86651   5.872   9.567  -0.369 -1.0789 -0.9977  1.1788
  642MOL0     H86652   5.510   9.939  -0.115 -1.1418  1.5642 -2.2844
  642MOL0     H86653   5.270   9.893  -0.070  0.2478 -0.2628  4.1937
  642MOL0     H86654   3.535   9.687   0.052  3.8862  0.6257  1.5599
  642MOL0     H86655   3.310   9.746   0.076 -1.2703 -0.1046 -0.3147
  642MOL0     H86656   3.067  10.021   0.313 -1.1542  0.9823 -1.1634
  642MOL0     H86657   2.856  10.150   0.310 -0.7473  0.5539  1.0785
  642MOL0     H86658   2.607  10.058   0.191  0.7879  0.8123  0.7433
  642MOL0     H86659   2.642  10.223   0.262  2.1820 -1.0170 -2.5779
  642MOL0     H86660   2.409  10.162   0.383  1.7101  2.2884  0.7755
  642MOL0     H86661   2.387  10.066   0.236  0.6577 -1.6692  0.3348
  642MOL0     H86662   2.473  10.356   0.204 -0.1737 -1.2060 -0.5768
  642MOL0     H86663   2.297  10.333   0.236  1.8327  1.0488  3.8691
  642MOL0     H86664   2.428  10.143   0.025 -2.8056 -2.2561  1.5766
  642MOL0     H86665   2.276  10.212   0.034 -0.0876  0.9759  1.5953
  642MOL0     H86666   2.440  10.434  -0.259 -1.3112 -3.7730 -2.2327
  642MOL0     H86667   2.651   9.852   0.520 -0.2370 -0.0894  1.4578
  642MOL0     H86668   2.761   9.681   0.639 -0.6825  0.8315 -0.2765
  642MOL0     H86669   2.867   9.603   0.530  2.8332 -0.2627  0.9949
  642MOL0     H86670   2.941   9.697   0.659 -0.6634  3.1185  0.7958
  643MOL0     O86671   7.303   7.733  10.791 -0.1523  0.0560  0.1118
  643MOL0     C86672   7.272   7.820  10.868 -0.2951  0.1812  0.2492
  643MOL0     O86673   7.352   7.932  10.898 -0.2015 -0.0155 -0.5422
  643MOL0     C86674   7.485   7.940  10.858 -0.0361  0.6849 -0.1747
  643MOL0     C86675   7.560   7.855  10.785 -1.0253  1.2607 -0.2445
  643MOL0     C86676   7.684   7.885  10.744  0.3841  0.5301  0.5077
  643MOL0     C86677   7.747   8.003  10.771  0.9826 -0.8612 -0.2492
  643MOL0     O86678   7.865   8.034  10.716  0.2259  0.1953 -0.7935
  643MOL0     C86679   7.864   8.144  10.636  0.0668 -0.7521 -0.3873
  643MOL0     C86680   8.000   8.193  10.616  0.3785 -0.0411 -0.6597
  643MOL0     C86681   8.093   8.078  10.570  0.3421  0.0414 -0.5630
  643MOL0     C86682   8.231   8.145  10.538 -0.0119 -1.0550 -0.3558
  643MOL0     C86683   8.271   8.116  10.389  0.5951  0.2144  0.2612
  643MOL0     C86684   8.381   8.205  10.342  0.1239  0.5795 -0.0378
  643MOL0     C86685   8.391   8.212  10.185 -0.5418  0.4622 -0.5011
  643MOL0     C86686   8.412   8.085  10.115  0.4004  0.9716 -0.7200
  643MOL0     N86687   8.539   8.030  10.146 -0.8678  1.5513  0.3638
  643MOL0     C86688   8.587   7.968  10.266  0.2147  0.0484 -1.4055
  643MOL0     C86689   8.717   7.942  10.247  0.1295 -0.1334 -0.0959
  643MOL0     C86690   8.813   7.881  10.348  0.7616  1.3556  0.3726
  643MOL0     C86691   8.887   7.975  10.439 -0.0138 -0.2815  0.4763
  643MOL0     C86692   8.992   7.902  10.530 -0.1145  0.4191  0.6562
  643MOL0     C86693   9.096   7.986  10.600 -0.5966  0.1330  0.2672
  643MOL0     O86694   9.163   7.915  10.703 -0.4901  0.8113  0.1466
  643MOL0     C86695   9.262   7.979  10.764  0.4732 -0.4368 -0.1308
  643MOL0     C86696   9.319   7.902  10.866  0.2277  0.2776  0.3421
  643MOL0     C86697   9.418   7.962  10.952  0.9234 -0.0586  0.4139
  643MOL0     C86698   9.466   8.094  10.919 -1.2245  0.3161 -0.1514
  643MOL0     C86699   9.575   8.137  11.004 -1.1174 -0.3604  0.9399
  643MOL0     O86700   9.563   8.109  11.138 -0.4050  0.1777  0.1627
  643MOL0     C86701   9.666   8.163  11.212  0.2509 -0.1458 -1.1905
  643MOL0     C86702   9.634   8.291  11.274  0.0990  0.2517  0.4606
  643MOL0     C86703   9.712   8.351  11.376 -1.0387 -0.4404  0.6250
  643MOL0     C86704   9.839   8.289  11.409  0.3921 -0.4560 -0.0553
  643MOL0     O86705   9.930   8.333  11.504  0.1342  0.3750  0.1141
  643MOL0     C86706   9.894   8.445  11.583 -0.6266  0.1992 -0.5576
  643MOL0     C86707  10.017   8.497  11.664 -0.4965  0.0261  0.2936
  643MOL0     C86708  10.157   8.494  11.598 -0.9809  0.5168 -0.3374
  643MOL0     C86709  10.265   8.528  11.695 -0.1753 -0.3985  1.8697
  643MOL0     C86710  10.401   8.566  11.626 -0.7678 -0.0868  0.4736
  643MOL0     C86711  10.513   8.592  11.721  0.5264 -0.8458 -0.1670
  643MOL0     C86712  10.656   8.623  11.661 -0.1132  0.5943  0.1116
  643MOL0     C86713  10.764   8.622  11.761  0.0654  1.0647 -0.3515
  643MOL0    Cl86714  10.762   8.759  11.869 -0.6007 -0.1564 -0.1777
  643MOL0     C86715   9.867   8.171  11.341 -0.2742  0.0352  0.4416
  643MOL0     C86716   9.784   8.103  11.247  0.6200  0.5445 -0.0312
  643MOL0     O86717   9.672   8.197  10.949 -0.2113  0.1080  0.7202
  643MOL0     C86718   9.415   8.165  10.811  0.1934  0.4926  0.9306
  643MOL0     C86719   9.312   8.106  10.739  0.4380  0.8453 -1.2310
  643MOL0     N86720   8.750   8.011  10.127 -0.4711 -0.3866 -0.3726
  643MOL0     N86721   8.650   8.052  10.071  0.2416 -0.1162  0.7207
  643MOL0     C86722   7.685   8.087  10.863 -0.5056 -0.5059 -0.4491
  643MOL0     C86723   7.560   8.052  10.906  0.5493 -0.1848  0.0087
  643MOL0     C86724   7.134   7.811  10.916 -0.7884 -0.2517 -0.3093
  643MOL0     C86725   7.071   7.934  10.928 -0.3311 -0.6011 -0.5708
  643MOL0     C86726   6.940   7.950  10.977 -0.6544 -0.0171 -0.1821
  643MOL0     C86727   6.866   7.829  11.003 -0.1109 -0.5090 -0.3918
  643MOL0     O86728   6.736   7.841  11.043 -0.4194 -0.1045  0.2313
  643MOL0     C86729   6.638   7.870  10.938 -0.0214  0.4119  0.8148
  643MOL0     C86730   6.514   7.903  11.015  0.0577  1.0196 -0.3839
  643MOL0     C86731   6.385   7.903  10.922 -0.0832 -0.2288  0.0141
  643MOL0     C86732   6.282   8.000  10.972 -0.8148 -0.6460  0.1366
  643MOL0     C86733   6.232   7.959  11.099  0.2555 -0.0457  0.1753
  643MOL0     C86734   6.194   7.928  11.208 -0.2965  0.2181 -0.3731
  643MOL0     C86735   6.932   7.698  10.989 -0.3596 -0.3699  0.6475
  643MOL0     C86736   7.067   7.690  10.945  0.2590 -0.7050  0.0941
  643MOL0     C86737   7.127   7.559  10.913  0.3255  0.6617 -0.0768
  643MOL0     H86738   7.528   7.753  10.765  4.8250 -1.2012  0.8769
  643MOL0     H86739   7.746   7.819  10.685  1.2136  0.6195  1.2628
  643MOL0     H86740   7.835   8.122  10.533  0.3489  0.6427 -0.7954
  643MOL0     H86741   7.807   8.225  10.682  1.6251 -0.6820  1.5602
  643MOL0     H86742   8.042   8.233  10.709  0.4550 -0.1604 -0.6427
  643MOL0     H86743   7.983   8.269  10.539 -2.1419  1.1855  0.9592
  643MOL0     H86744   8.041   8.023  10.491 -1.8766 -2.0904  2.1770
  643MOL0     H86745   8.107   8.012  10.656  1.8801  3.5835  2.2158
  643MOL0     H86746   8.224   8.254  10.545  2.4097 -0.9140  0.7558
  643MOL0     H86747   8.310   8.117  10.609  1.6065  3.0082 -0.2804
  643MOL0     H86748   8.311   8.014  10.384  2.0737  0.6495  2.2765
  643MOL0     H86749   8.186   8.119  10.319  1.0740  3.3088 -0.3481
  643MOL0     H86750   8.358   8.306  10.378 -0.1009  0.5408 -0.0715
  643MOL0     H86751   8.476   8.176  10.388  0.8654  3.3754  0.3752
  643MOL0     H86752   8.464   8.286  10.152 -1.3183  2.2868  1.5670
  643MOL0     H86753   8.299   8.256  10.144 -1.2287  0.8163  1.3314
  643MOL0     H86754   8.339   8.009  10.144  0.6903  1.2742  0.9414
  643MOL0     H86755   8.387   8.106  10.011 -1.8200  3.4599  0.1854
  643MOL0     H86756   8.530   7.950  10.357  0.0136  0.0364 -1.5345
  643MOL0     H86757   8.768   7.795  10.398  3.0959 -0.2108 -0.0525
  643MOL0     H86758   8.888   7.839  10.280  1.4953  0.4685  1.6932
  643MOL0     H86759   8.949   8.035  10.371  0.2241  0.7900  1.5813
  643MOL0     H86760   8.812   8.041  10.484  1.4024  0.8425  1.2827
  643MOL0     H86761   9.060   7.837  10.473  0.6294  3.2648 -1.9875
  643MOL0     H86762   8.930   7.851  10.604 -2.1677  3.8352  1.4984
  643MOL0     H86763   9.039   8.071  10.640  0.5603  0.8237  0.4786
  643MOL0     H86764   9.175   8.017  10.531 -0.3476 -0.7580  0.1445
  643MOL0     H86765   9.266   7.809  10.884 -3.3361  1.5199 -2.3887
  643MOL0     H86766   9.431   7.897  11.038 -3.5231 -2.0106 -0.0802
  643MOL0     H86767   9.549   8.348  11.237  2.6530  5.3706  1.4901
  643MOL0     H86768   9.683   8.431  11.443 -0.4362 -1.0111  1.6006
  643MOL0     H86769   9.852   8.525  11.522  0.2095  1.0884 -0.0011
  643MOL0     H86770   9.821   8.412  11.657 -0.1770 -1.3057 -0.7496
  643MOL0     H86771   9.986   8.601  11.682 -1.3866 -0.4165  1.4583
  643MOL0     H86772  10.034   8.449  11.761  0.7091  0.6026  0.3853
  643MOL0     H86773  10.181   8.397  11.553  1.2392  0.7438  0.2084
  643MOL0     H86774  10.150   8.563  11.513  2.3039  2.1954  0.5951
  643MOL0     H86775  10.285   8.451  11.770  0.4578 -2.3884 -0.2075
  643MOL0     H86776  10.242   8.624  11.742  3.6576  1.7561 -0.1348
  643MOL0     H86777  10.385   8.653  11.563  0.3261 -2.1862 -2.9476
  643MOL0     H86778  10.425   8.483  11.560 -0.5343  1.3217 -1.2956
  643MOL0     H86779  10.486   8.678  11.782  1.3927  1.2161 -2.5051
  643MOL0     H86780  10.525   8.501  11.781  0.2856 -2.2369 -2.1179
  643MOL0     H86781  10.655   8.723  11.616  1.4200  0.4488 -0.3118
  643MOL0     H86782  10.676   8.543  11.589  1.0513 -1.1540  2.2366
  643MOL0     H86783  10.770   8.524  11.810  0.6177  0.3389 -1.7772
  643MOL0     H86784  10.861   8.631  11.711  2.0648 -3.8173  1.9348
  643MOL0     H86785   9.971   8.142  11.355 -0.0151  2.1908  4.9969
  643MOL0     H86786   9.803   8.014  11.188 -1.1478  1.2061 -1.6846
  643MOL0     H86787   9.436   8.269  10.786  1.1670  0.1274  0.1445
  643MOL0     H86788   9.267   8.160  10.657 -3.2081  1.3824  0.8938
  643MOL0     H86789   7.714   8.184  10.902  0.2869 -0.7137 -0.4943
  643MOL0     H86790   7.509   8.113  10.979 -2.3049 -2.2066 -0.1630
  643MOL0     H86791   7.116   8.031  10.911 -3.7961  1.2522 -0.2353
  643MOL0     H86792   6.884   8.041  10.996 -0.3990  0.6916 -2.5169
  643MOL0     H86793   6.622   7.780  10.877 -2.0105 -0.6632  2.7977
  643MOL0     H86794   6.666   7.958  10.879  1.2061 -0.1641  0.4974
  643MOL0     H86795   6.524   8.003  11.058 -5.1076  0.9691  1.7500
  643MOL0     H86796   6.494   7.823  11.087 -0.3423  0.8287 -0.7044
  643MOL0     H86797   6.350   7.799  10.929  4.2984 -2.1849 -2.9048
  643MOL0     H86798   6.424   7.918  10.821  0.7309  0.8641  0.4740
  643MOL0     H86799   6.311   8.106  10.977  0.5541 -1.0519  1.8498
  643MOL0     H86800   6.194   7.995  10.906 -0.8660  1.1331  0.0201
  643MOL0     H86801   6.160   7.920  11.310  1.3547  0.0882  0.1929
  643MOL0     H86802   6.872   7.613  11.022 -0.6500 -0.6668 -0.5933
  643MOL0     H86803   7.225   7.557  10.962 -0.7544 -0.6599  2.2551
  643MOL0     H86804   7.077   7.475  10.962 -2.7109  2.3752  0.0216
  643MOL0     H86805   7.129   7.546  10.805  0.8660 -0.2868  0.0379
  644MOL0     O86806   2.405   9.538   6.774 -0.3100 -0.5866  0.4601
  644MOL0     C86807   2.305   9.560   6.839  0.0782 -0.0792  0.4282
  644MOL0     O86808   2.298   9.662   6.926 -0.8061 -0.4333 -0.8792
  644MOL0     C86809   2.413   9.724   6.955 -1.4088 -0.9458  0.1156
  644MOL0     C86810   2.461   9.834   6.881  1.3603  0.8791  0.6628
  644MOL0     C86811   2.586   9.891   6.910 -0.5990 -1.1897  0.0756
  644MOL0     C86812   2.677   9.848   7.008 -0.5498 -0.6667 -0.0407
  644MOL0     O86813   2.804   9.914   7.026 -0.4032  0.5130  0.4091
  644MOL0     C86814   2.901   9.833   7.098 -0.6877  0.4077 -0.0571
  644MOL0     C86815   3.032   9.903   7.111 -0.3924 -0.9294  0.0350
  644MOL0     C86816   3.092   9.918   6.972 -0.3481 -0.1931 -0.3491
  644MOL0     C86817   3.238   9.967   6.984 -0.2457  0.2582 -0.2762
  644MOL0     C86818   3.299   9.956   6.848 -0.1329  0.0970  0.4892
  644MOL0     C86819   3.448   9.991   6.870  0.0108 -0.3662  0.4666
  644MOL0     C86820   3.526  10.040   6.744  0.6395  0.2754 -0.1816
  644MOL0     C86821   3.575   9.920   6.664 -0.6629 -0.4709 -0.6072
  644MOL0     N86822   3.665   9.823   6.734  0.1714  0.0721 -0.2699
  644MOL0     C86823   3.741   9.865   6.844 -0.3883 -1.1869  0.1967
  644MOL0     C86824   3.796   9.745   6.881 -0.7023 -0.7184  0.8980
  644MOL0     C86825   3.871   9.741   7.008  0.0897 -0.2038 -0.1262
  644MOL0     C86826   4.007   9.810   6.997 -0.8644 -0.5227 -0.5054
  644MOL0     C86827   4.104   9.751   6.895 -0.6246  0.1133  0.2990
  644MOL0     C86828   4.249   9.805   6.916  0.0000 -1.1067  0.5310
  644MOL0     O86829   4.303   9.731   7.027 -0.1317  0.1630 -0.3557
  644MOL0     C86830   4.422   9.765   7.078  0.0343 -0.1084 -0.9424
  644MOL0     C86831   4.517   9.849   7.007 -0.1730  0.5654 -0.1816
  644MOL0     C86832   4.642   9.872   7.066  0.1461 -0.5841  0.0741
  644MOL0     C86833   4.671   9.842   7.202  0.9857 -1.0531  0.7363
  644MOL0     C86834   4.809   9.875   7.254  1.2168 -0.0385  0.7667
  644MOL0     O86835   4.886   9.958   7.175 -0.8863 -0.0301  0.1066
  644MOL0     C86836   5.008   9.993   7.231 -0.5397  0.4213  0.8486
  644MOL0     C86837   5.102   9.894   7.264  0.0666 -0.2874  0.5096
  644MOL0     C86838   5.224   9.938   7.307  0.0417 -0.8120  0.4687
  644MOL0     C86839   5.253  10.076   7.329 -0.3358  0.0797 -0.2061
  644MOL0     O86840   5.369  10.115   7.387 -0.3883 -1.0335 -0.2850
  644MOL0     C86841   5.374  10.101   7.528  0.2630 -0.5373 -0.0488
  644MOL0     C86842   5.513  10.130   7.586  0.2688  1.6673 -0.5118
  644MOL0     C86843   5.616  10.043   7.512  0.4018  0.4739  0.2048
  644MOL0     C86844   5.716   9.979   7.603  0.7028  0.0069 -0.2010
  644MOL0     C86845   5.789   9.855   7.534  0.5347  0.2271 -0.8239
  644MOL0     C86846   5.866   9.883   7.400 -0.2394 -0.3813  0.1101
  644MOL0     C86847   5.917   9.760   7.331  1.4197  0.8143 -0.0975
  644MOL0     C86848   6.033   9.691   7.404 -0.6682  0.2542 -0.0974
  644MOL0    Cl86849   6.160   9.800   7.457  0.3528  0.2020 -0.5482
  644MOL0     C86850   5.155  10.175   7.297 -0.0283  0.8667 -0.1840
  644MOL0     C86851   5.035  10.132   7.239  0.7408  0.6038  0.3885
  644MOL0     O86852   4.825   9.838   7.367 -0.6255  0.9032 -0.5024
  644MOL0     C86853   4.581   9.760   7.273 -1.2465 -0.1641  0.2036
  644MOL0     C86854   4.470   9.718   7.212  0.8643  0.1819  0.1440
  644MOL0     N86855   3.776   9.648   6.781 -0.0310 -0.6902  0.3809
  644MOL0     N86856   3.710   9.706   6.692 -0.0205 -0.3409  0.0956
  644MOL0     C86857   2.619   9.746   7.093 -0.5357  0.4087  0.8810
  644MOL0     C86858   2.492   9.689   7.066 -0.1761  0.1543  0.1152
  644MOL0     C86859   2.189   9.469   6.836  0.8419  0.0265  0.0856
  644MOL0     C86860   2.171   9.383   6.720  0.3884  0.1486 -1.0905
  644MOL0     C86861   2.056   9.305   6.699 -0.1046  0.1537  0.5195
  644MOL0     C86862   1.947   9.315   6.784  0.3460 -0.4466  0.1801
  644MOL0     O86863   1.828   9.264   6.785 -0.3630 -0.4346  0.2319
  644MOL0     C86864   1.776   9.211   6.662  0.0804 -1.2853 -0.9373
  644MOL0     C86865   1.809   9.056   6.658  0.9220  0.3625 -0.6917
  644MOL0     C86866   1.805   9.002   6.520 -0.3936 -0.9229 -0.0330
  644MOL0     C86867   1.805   8.842   6.525 -0.8042 -1.0352 -0.0422
  644MOL0     C86868   1.694   8.786   6.599  0.6290  0.0608  1.0063
  644MOL0     C86869   1.616   8.735   6.677  0.3608 -0.3741 -0.1036
  644MOL0     C86870   1.965   9.377   6.903  0.7433 -0.5819 -1.0755
  644MOL0     C86871   2.076   9.465   6.928  0.9302 -0.1395 -0.2709
  644MOL0     C86872   2.068   9.552   7.051  0.6610  0.1014 -0.4819
  644MOL0     H86873   2.403   9.876   6.799 -0.7674 -0.5446  1.3860
  644MOL0     H86874   2.617   9.978   6.854  0.6765 -2.2366 -0.9313
  644MOL0     H86875   2.863   9.806   7.197 -1.5945  1.0136 -0.2291
  644MOL0     H86876   2.926   9.739   7.048 -2.6856 -0.8315  1.1689
  644MOL0     H86877   3.102   9.854   7.180  0.8354  1.0999  0.3115
  644MOL0     H86878   3.022   9.997   7.166 -3.8873 -1.6243  0.8204
  644MOL0     H86879   3.047  10.002   6.917 -0.2110  0.3610  0.3664
  644MOL0     H86880   3.085   9.824   6.917 -0.4260 -0.6530  0.4393
  644MOL0     H86881   3.243  10.069   7.022 -0.7832  0.5509 -0.9814
  644MOL0     H86882   3.287   9.894   7.050 -1.6702 -1.2165 -0.7818
  644MOL0     H86883   3.277   9.864   6.792  0.8172  1.1252 -1.7033
  644MOL0     H86884   3.258  10.038   6.789  3.2510 -1.9409 -5.5894
  644MOL0     H86885   3.457  10.067   6.948 -1.2139 -3.4919  3.9606
  644MOL0     H86886   3.493   9.899   6.909 -0.5013 -2.3262 -3.1445
  644MOL0     H86887   3.611  10.106   6.764 -0.3197  1.3750  0.4205
  644MOL0     H86888   3.460  10.100   6.681 -1.2524 -2.5628 -1.0430
  644MOL0     H86889   3.491   9.851   6.646 -0.8535 -0.4908  0.3054
  644MOL0     H86890   3.631   9.953   6.576 -2.3486  1.4003 -1.0441
  644MOL0     H86891   3.737   9.951   6.910 -1.4168 -1.6499  0.7733
  644MOL0     H86892   3.816   9.792   7.087 -2.1939  0.7758 -2.2162
  644MOL0     H86893   3.905   9.643   7.042  0.0931  0.1414  0.8843
  644MOL0     H86894   3.990   9.916   6.977  0.7328 -0.4306 -1.6067
  644MOL0     H86895   4.053   9.790   7.094 -2.7876 -0.6267  0.4319
  644MOL0     H86896   4.078   9.785   6.794 -3.7081 -2.1458  0.1720
  644MOL0     H86897   4.105   9.641   6.900 -2.5572  0.0164 -0.4142
  644MOL0     H86898   4.247   9.911   6.942 -1.5844 -1.2197  1.0100
  644MOL0     H86899   4.304   9.789   6.823 -0.8817 -3.4790  0.3388
  644MOL0     H86900   4.490   9.888   6.909 -1.0118 -1.4264 -0.8082
  644MOL0     H86901   4.715   9.924   7.005 -1.2351  0.6649 -0.5752
  644MOL0     H86902   5.093   9.793   7.226  3.3641 -0.2814 -0.6304
  644MOL0     H86903   5.294   9.855   7.316 -2.5440 -3.1300  0.6918
  644MOL0     H86904   5.298  10.163   7.576 -1.1557 -3.2650  1.4271
  644MOL0     H86905   5.354   9.996   7.546  1.2864 -0.2881  3.0587
  644MOL0     H86906   5.540  10.236   7.583  0.2797  1.8093  2.3517
  644MOL0     H86907   5.514  10.106   7.692 -1.6778  2.2135 -0.3331
  644MOL0     H86908   5.560   9.971   7.451 -0.4602  1.6417 -0.4423
  644MOL0     H86909   5.671  10.106   7.442  2.9929  0.0554  1.7484
  644MOL0     H86910   5.669   9.928   7.687  1.8694 -0.8282 -0.0265
  644MOL0     H86911   5.788  10.057   7.630 -1.6145  2.3574 -0.4661
  644MOL0     H86912   5.711   9.779   7.522  0.7773 -0.1981  0.1340
  644MOL0     H86913   5.851   9.807   7.610 -0.9821 -2.4094 -1.1284
  644MOL0     H86914   5.792   9.928   7.334 -0.2959 -1.1140 -0.3341
  644MOL0     H86915   5.945   9.956   7.422 -0.8390  0.1606  0.5031
  644MOL0     H86916   5.948   9.785   7.230 -2.2374  1.4680 -1.2079
  644MOL0     H86917   5.835   9.688   7.325  2.1974 -0.5243  3.1349
  644MOL0     H86918   5.990   9.647   7.495 -2.8086  3.2314  0.4893
  644MOL0     H86919   6.087   9.627   7.334  1.2155  1.1874  0.4331
  644MOL0     H86920   5.176  10.282   7.293  1.3490  0.5735 -3.0980
  644MOL0     H86921   4.963  10.207   7.209  1.5324  2.2348  2.3531
  644MOL0     H86922   4.597   9.735   7.378 -2.6031  1.9373  0.9802
  644MOL0     H86923   4.401   9.658   7.271 -0.9949 -0.8726 -2.8733
  644MOL0     H86924   2.675   9.696   7.171  0.0130 -1.2842 -0.5262
  644MOL0     H86925   2.464   9.608   7.133  0.1590 -1.1989 -1.3198
  644MOL0     H86926   2.246   9.399   6.642  2.4835  2.1436  1.1738
  644MOL0     H86927   2.043   9.253   6.604 -0.9551  2.0123 -0.4235
  644MOL0     H86928   1.832   9.252   6.578  2.9016  0.3760  1.5574
  644MOL0     H86929   1.668   9.217   6.647 -0.3756 -3.0748  0.9969
  644MOL0     H86930   1.728   9.017   6.719  0.2897  1.9809 -0.4633
  644MOL0     H86931   1.901   9.040   6.715 -0.1670  0.4937  1.1643
  644MOL0     H86932   1.894   9.028   6.462 -1.9688  3.7802 -0.7159
  644MOL0     H86933   1.713   9.042   6.478 -0.1216  0.4481  0.6280
  644MOL0     H86934   1.793   8.808   6.422 -1.3133 -0.8933 -0.0325
  644MOL0     H86935   1.902   8.806   6.561 -0.4791 -0.2971 -0.1557
  644MOL0     H86936   1.554   8.709   6.760  2.2001 -0.2316  1.3838
  644MOL0     H86937   1.879   9.366   6.969  1.3831  0.7210  0.0133
  644MOL0     H86938   1.970   9.569   7.096  1.2175  0.6294  0.5730
  644MOL0     H86939   2.129   9.513   7.133  1.7451  1.2371 -0.7054
  644MOL0     H86940   2.090   9.651   7.009  1.0275 -0.0450 -0.6387
  645MOL0     O86941   0.936   8.821   6.624 -0.8139  1.0601 -0.5017
  645MOL0     C86942   0.865   8.727   6.656 -0.3227  0.1799 -0.1050
  645MOL0     O86943   0.870   8.661   6.776  0.3580  0.0164  0.5917
  645MOL0     C86944   0.991   8.642   6.844  0.3542 -0.0619  0.2087
  645MOL0     C86945   0.968   8.575   6.969  0.7659 -0.4393  1.1629
  645MOL0     C86946   1.079   8.525   7.034  0.4394  0.2187 -0.2631
  645MOL0     C86947   1.203   8.543   6.986 -0.5512  0.6597 -0.4590
  645MOL0     O86948   1.306   8.497   7.065 -1.1967  0.2498 -0.7494
  645MOL0     C86949   1.440   8.572   7.082  0.2302  0.3174  0.3519
  645MOL0     C86950   1.421   8.700   7.160 -0.3903 -0.5053 -0.6306
  645MOL0     C86951   1.561   8.771   7.162 -0.3508  0.2063  0.6237
  645MOL0     C86952   1.535   8.914   7.197  0.3122 -0.3741  0.1329
  645MOL0     C86953   1.672   9.000   7.193  0.6449 -0.3081  0.1752
  645MOL0     C86954   1.641   9.148   7.223 -1.1615 -0.1643 -0.0925
  645MOL0     C86955   1.762   9.235   7.187  0.1616  0.5342  0.2146
  645MOL0     C86956   1.731   9.380   7.215 -0.6269 -0.1588 -0.8227
  645MOL0     N86957   1.778   9.392   7.363  0.0093  0.2184 -0.0033
  645MOL0     C86958   1.700   9.385   7.468 -0.9516  0.4560 -0.4789
  645MOL0     C86959   1.779   9.411   7.574 -0.2346  1.2271 -0.7435
  645MOL0     C86960   1.729   9.439   7.712  0.0927 -0.2233  0.4047
  645MOL0     C86961   1.691   9.305   7.775  0.6022  0.1730 -0.2740
  645MOL0     C86962   1.653   9.318   7.921 -0.3156  0.1369 -0.6430
  645MOL0     C86963   1.627   9.185   7.972  0.2291 -0.3955 -0.4047
  645MOL0     O86964   1.495   9.146   7.934  0.2254  0.2262 -0.0507
  645MOL0     C86965   1.383   9.177   8.012  0.8206  0.1747 -0.0949
  645MOL0     C86966   1.386   9.227   8.140  0.2791 -0.0022  0.8910
  645MOL0     C86967   1.266   9.258   8.206 -0.0591 -0.7254 -0.2337
  645MOL0     C86968   1.142   9.243   8.142  0.4571  0.9880  0.2951
  645MOL0     C86969   1.012   9.258   8.213 -0.3085 -0.0082  0.0218
  645MOL0     O86970   0.895   9.220   8.144 -0.8668 -0.6915  0.5336
  645MOL0     C86971   0.775   9.213   8.207  0.7474 -0.2414  0.9173
  645MOL0     C86972   0.693   9.108   8.173  1.3868  0.1222 -0.0169
  645MOL0     C86973   0.556   9.103   8.219 -0.0979 -0.1705  0.7358
  645MOL0     C86974   0.503   9.209   8.292 -0.0471  0.2808  0.1385
  645MOL0     O86975   0.368   9.204   8.312 -0.4505  0.5960  0.1260
  645MOL0     C86976   0.304   9.291   8.417  0.0862  0.6598  0.0127
  645MOL0     C86977   0.176   9.227   8.470 -0.0856 -0.6378 -0.1309
  645MOL0     C86978   0.068   9.234   8.372 -0.8025 -0.6497 -0.0797
  645MOL0     C86979  -0.048   9.145   8.414  0.9684  0.1078 -0.6818
  645MOL0     C86980  -0.171   9.168   8.327 -0.5280 -0.3402  0.0596
  645MOL0     C86981  -0.281   9.060   8.336 -0.2547 -0.2117 -0.6482
  645MOL0     C86982  -0.410   9.079   8.271  1.8573  0.2814 -0.6451
  645MOL0     C86983  -0.416   9.014   8.133  0.0106 -0.2873  0.8739
  645MOL0    Cl86984  -0.290   9.089   8.025  0.4980 -0.0779 -0.2176
  645MOL0     C86985   0.584   9.316   8.323 -0.3024 -0.8154 -0.1710
  645MOL0     C86986   0.718   9.321   8.283 -0.6937  0.5197 -0.4498
  645MOL0     O86987   1.018   9.284   8.337  0.3419  0.0302  0.2512
  645MOL0     C86988   1.140   9.201   8.012 -0.1750  0.3922  0.0159
  645MOL0     C86989   1.258   9.166   7.940 -0.1420  0.1229  0.0628
  645MOL0     N86990   1.912   9.414   7.535  0.4359 -0.0541 -0.4796
  645MOL0     N86991   1.908   9.412   7.404 -0.0722 -0.0354 -0.7730
  645MOL0     C86992   1.223   8.617   6.864 -0.5272 -0.4010 -0.2504
  645MOL0     C86993   1.117   8.670   6.790 -0.3241  0.4350 -0.2713
  645MOL0     C86994   0.739   8.687   6.575 -0.5350 -0.2206  0.0171
  645MOL0     C86995   0.632   8.611   6.628  0.0263  1.7309  0.3779
  645MOL0     C86996   0.511   8.594   6.567 -0.3343 -0.4395 -0.2952
  645MOL0     C86997   0.502   8.639   6.438  0.5451  0.4217  0.1628
  645MOL0     O86998   0.388   8.624   6.357 -0.3657 -0.3666 -0.2869
  645MOL0     C86999   0.306   8.522   6.386 -0.5420  0.8853 -0.0359
  645MOL0     C87000   0.167   8.539   6.320 -1.1429 -0.5074 -0.4805
  645MOL0     C87001   0.098   8.653   6.394  0.7263  0.6843 -0.0904
  645MOL0     C87002  -0.052   8.656   6.360  0.0840  0.2582  0.2756
  645MOL0     C87003  -0.084   8.633   6.220  0.3871 -0.0233  0.2482
  645MOL0     C87004  -0.091   8.599   6.103  0.6128 -0.8755  0.2126
  645MOL0     C87005   0.614   8.703   6.374  0.1394  0.1564 -0.5450
  645MOL0     C87006   0.731   8.717   6.437 -0.5574  0.4844  0.2180
  645MOL0     C87007   0.852   8.765   6.356 -0.4546 -0.4250 -0.0625
  645MOL0     H87008   0.872   8.556   7.016  0.7154  1.1899  1.7718
  645MOL0     H87009   1.079   8.479   7.132  4.9581  1.2636  0.4344
  645MOL0     H87010   1.507   8.493   7.116  0.9039  0.4008 -0.7256
  645MOL0     H87011   1.469   8.595   6.979 -2.1171  1.6289 -0.0700
  645MOL0     H87012   1.401   8.669   7.264  2.8126  0.6636  0.4498
  645MOL0     H87013   1.354   8.779   7.126  1.1508  1.7164  1.2246
  645MOL0     H87014   1.607   8.744   7.066  1.0538  1.5034  0.8973
  645MOL0     H87015   1.615   8.729   7.247  0.0113 -0.4132  0.0979
  645MOL0     H87016   1.472   8.940   7.111  1.0231  0.3124 -0.1889
  645MOL0     H87017   1.483   8.916   7.293  1.5211 -2.1258  0.8723
  645MOL0     H87018   1.749   8.965   7.262 -0.6849 -1.0571  1.3406
  645MOL0     H87019   1.722   8.996   7.096  0.5411  1.7962 -0.0099
  645MOL0     H87020   1.559   9.188   7.162 -0.6781  0.4915 -0.3254
  645MOL0     H87021   1.626   9.156   7.331  1.9664  3.7298  0.2640
  645MOL0     H87022   1.772   9.218   7.080 -2.1910  0.4222 -0.0510
  645MOL0     H87023   1.852   9.203   7.240  0.0092 -2.3270 -1.0702
  645MOL0     H87024   1.795   9.443   7.152  0.2412  4.5938  4.0656
  645MOL0     H87025   1.632   9.413   7.183 -0.3617 -0.3822 -1.9268
  645MOL0     H87026   1.592   9.377   7.468 -0.9219 -0.0932  0.7308
  645MOL0     H87027   1.801   9.492   7.775  0.0352  0.9484 -0.4746
  645MOL0     H87028   1.641   9.503   7.704  0.0215 -0.1909  1.3095
  645MOL0     H87029   1.617   9.256   7.711  2.7905 -2.7981 -0.7351
  645MOL0     H87030   1.780   9.242   7.773  1.2706  1.1047 -0.0693
  645MOL0     H87031   1.567   9.384   7.928  1.9962  3.5034 -1.5406
  645MOL0     H87032   1.727   9.365   7.987 -0.2980 -1.8723  0.8490
  645MOL0     H87033   1.624   9.167   8.080  1.8684 -1.6849 -0.5255
  645MOL0     H87034   1.697   9.109   7.935 -0.7174 -0.8816 -1.2236
  645MOL0     H87035   1.471   9.233   8.207  0.5982 -0.2485  0.5124
  645MOL0     H87036   1.266   9.287   8.310  2.1120 -0.6556 -0.2152
  645MOL0     H87037   0.721   9.023   8.112  0.1713 -0.3712  0.0695
  645MOL0     H87038   0.487   9.023   8.195  0.9945 -1.4141  1.5638
  645MOL0     H87039   0.366   9.317   8.504 -0.7561 -1.5953  1.3896
  645MOL0     H87040   0.277   9.383   8.365  2.0742 -0.1177 -2.6214
  645MOL0     H87041   0.203   9.124   8.494  1.7359  0.2153  1.6770
  645MOL0     H87042   0.149   9.274   8.565  0.9171  1.7797 -0.9534
  645MOL0     H87043   0.030   9.337   8.371  0.5288 -0.0138  3.0775
  645MOL0     H87044   0.101   9.194   8.276 -1.4703 -3.3710  0.7218
  645MOL0     H87045  -0.062   9.159   8.521  2.2932 -1.8472 -0.2020
  645MOL0     H87046  -0.028   9.039   8.395 -1.2272 -0.5217  0.2407
  645MOL0     H87047  -0.130   9.171   8.226 -0.3428  1.0825  0.1514
  645MOL0     H87048  -0.213   9.265   8.355 -1.7237 -0.5591 -0.8722
  645MOL0     H87049  -0.242   8.962   8.306 -1.7136 -1.2949  0.8180
  645MOL0     H87050  -0.296   9.045   8.443  1.9671  3.0828  0.2650
  645MOL0     H87051  -0.444   9.183   8.277  1.3561  0.2262 -2.1004
  645MOL0     H87052  -0.490   9.033   8.330 -0.0430  1.6330 -2.0206
  645MOL0     H87053  -0.399   8.905   8.131  0.5687 -0.2413 -2.1167
  645MOL0     H87054  -0.512   9.025   8.082  1.8352  1.1010 -2.6299
  645MOL0     H87055   0.550   9.396   8.388  0.0857  1.8322 -2.9892
  645MOL0     H87056   0.782   9.403   8.314  1.2594 -1.4662  1.0931
  645MOL0     H87057   1.045   9.178   7.965  0.8956 -2.4907 -0.9805
  645MOL0     H87058   1.250   9.138   7.835  0.8836 -0.5624  0.1566
  645MOL0     H87059   1.319   8.650   6.826 -0.1730 -0.0794  0.9105
  645MOL0     H87060   1.141   8.715   6.693  1.0319 -1.4715 -0.8751
  645MOL0     H87061   0.633   8.581   6.733 -3.1470  0.3248  0.1208
  645MOL0     H87062   0.429   8.545   6.619  0.7431 -2.0310 -0.0087
  645MOL0     H87063   0.290   8.503   6.492  0.1240  2.5562  0.3772
  645MOL0     H87064   0.356   8.440   6.332  0.3589  0.3212  1.5997
  645MOL0     H87065   0.119   8.442   6.333 -2.3403  0.2597  1.2291
  645MOL0     H87066   0.167   8.571   6.216  3.3105 -2.9171 -1.4441
  645MOL0     H87067   0.135   8.750   6.360 -0.7548  1.3602  0.1264
  645MOL0     H87068   0.082   8.644   6.502 -3.2972 -2.2515 -0.7089
  645MOL0     H87069  -0.114   8.585   6.416 -0.3622 -1.4099 -2.1621
  645MOL0     H87070  -0.080   8.760   6.379 -0.2502  0.2808 -0.3068
  645MOL0     H87071  -0.101   8.558   6.005  0.6002 -1.3268  0.3984
  645MOL0     H87072   0.604   8.734   6.270  1.0778 -1.1872 -1.0685
  645MOL0     H87073   0.955   8.747   6.388  0.3583  3.0740 -0.3340
  645MOL0     H87074   0.847   8.744   6.249  2.4281  2.6745 -0.9771
  645MOL0     H87075   0.857   8.874   6.363  0.8301 -0.4338 -0.5492
  646MOL0     O87076   8.505   0.994   1.764  0.0889 -0.4822  0.2280
  646MOL0     C87077   8.496   1.037   1.877 -0.0552 -0.1647 -0.0597
  646MOL0     O87078   8.599   1.037   1.968  0.1004  0.1141 -0.0193
  646MOL0     C87079   8.712   0.968   1.955 -1.2135 -0.4765 -1.1284
  646MOL0     C87080   8.726   0.838   1.890  0.1233 -0.2763 -0.3326
  646MOL0     C87081   8.857   0.787   1.872 -0.3524  0.9844 -0.8472
  646MOL0     C87082   8.970   0.840   1.943 -0.2351 -0.7591  0.1987
  646MOL0     O87083   9.080   0.762   1.939  0.4510  0.5666  1.1005
  646MOL0     C87084   9.153   0.751   2.059 -0.5233  0.5514  0.1008
  646MOL0     C87085   9.249   0.625   2.054 -0.5814  0.3144 -0.1575
  646MOL0     C87086   9.371   0.625   1.960  0.1231 -0.4474  0.0915
  646MOL0     C87087   9.460   0.510   1.992  0.7446 -0.6046 -0.5785
  646MOL0     C87088   9.574   0.499   1.890  0.0749  0.0613  0.4378
  646MOL0     C87089   9.684   0.409   1.941 -0.1242  0.3043  0.1588
  646MOL0     C87090   9.801   0.407   1.832  0.1158  0.4839 -0.2132
  646MOL0     C87091   9.881   0.276   1.841 -0.0192  0.1395  0.4469
  646MOL0     N87092  10.018   0.291   1.778  0.3069  0.2736  0.1559
  646MOL0     C87093  10.031   0.285   1.640 -0.3944  0.1825  0.4918
  646MOL0     C87094  10.163   0.297   1.630  0.0833  0.2376 -1.1457
  646MOL0     C87095  10.243   0.298   1.504  0.3708  0.1859  1.4362
  646MOL0     C87096  10.240   0.437   1.442  0.7066 -0.5266  0.3998
  646MOL0     C87097  10.349   0.456   1.331 -0.1616 -0.0085 -0.6319
  646MOL0     C87098  10.349   0.600   1.267  0.3887  0.1631  0.0231
  646MOL0     O87099  10.448   0.690   1.323 -0.3207  0.1664  0.6281
  646MOL0     C87100  10.588   0.678   1.304  0.5726 -0.2363  0.4013
  646MOL0     C87101  10.635   0.587   1.215  0.6437 -0.2217 -0.0017
  646MOL0     C87102  10.770   0.568   1.187 -0.8960 -0.2470  0.0383
  646MOL0     C87103  10.857   0.651   1.266 -0.0886  0.5485  0.2448
  646MOL0     C87104  11.007   0.632   1.257 -0.1081 -0.3371  0.8557
  646MOL0     O87105  11.057   0.545   1.160  0.4622  0.2761 -0.5087
  646MOL0     C87106  11.187   0.535   1.142 -0.0987 -0.9521 -1.0266
  646MOL0     C87107  11.247   0.447   1.230  0.7657  0.2106 -0.1160
  646MOL0     C87108  11.374   0.409   1.202 -0.3316  0.4577 -0.3471
  646MOL0     C87109  11.451   0.468   1.100  0.4682 -0.4867 -0.5832
  646MOL0     O87110  11.571   0.418   1.076  0.2314  0.4393 -0.7249
  646MOL0     C87111  11.650   0.444   0.959 -0.9584  0.3499 -0.1798
  646MOL0     C87112  11.757   0.554   0.973 -0.0902  0.2069  0.3197
  646MOL0     C87113  11.866   0.520   1.077 -0.4114 -0.7346  0.5227
  646MOL0     C87114  11.985   0.627   1.059 -0.1247  0.0260 -0.5381
  646MOL0     C87115  12.082   0.604   1.175 -0.2420  1.0630 -0.7314
  646MOL0     C87116  12.166   0.485   1.139  0.4517  0.0797 -0.8476
  646MOL0     C87117  12.263   0.449   1.250 -0.3054 -0.4610  0.6488
  646MOL0     C87118  12.383   0.372   1.194 -0.5596  0.9386  0.2554
  646MOL0    Cl87119  12.509   0.360   1.314 -0.1481  0.0134  0.0312
  646MOL0     C87120  11.388   0.564   1.022 -0.4378  0.4611  0.3373
  646MOL0     C87121  11.254   0.607   1.046 -1.8592 -0.0284  0.8328
  646MOL0     O87122  11.079   0.699   1.328 -0.3235  0.1736  0.2564
  646MOL0     C87123  10.808   0.746   1.356  1.0671  0.1990  0.7099
  646MOL0     C87124  10.669   0.754   1.382 -0.6431  0.0703 -0.1760
  646MOL0     N87125  10.217   0.323   1.756 -0.8544 -0.7946 -0.1855
  646MOL0     N87126  10.135   0.304   1.845 -0.8314  0.2623 -0.7701
  646MOL0     C87127   8.952   0.953   2.016 -0.1676 -0.1191 -0.4246
  646MOL0     C87128   8.830   1.021   2.016 -0.2971 -0.3427 -0.1476
  646MOL0     C87129   8.373   1.108   1.910 -0.1473 -0.5049  0.0013
  646MOL0     C87130   8.340   1.122   2.047 -0.8753 -0.2303 -0.1104
  646MOL0     C87131   8.230   1.199   2.083 -0.1783  1.3799  1.5936
  646MOL0     C87132   8.140   1.244   1.995  0.0549 -0.2428 -0.0752
  646MOL0     O87133   8.042   1.318   2.056  0.0093 -0.3475  0.8804
  646MOL0     C87134   7.909   1.345   1.989  0.0520  0.2030 -0.5224
  646MOL0     C87135   7.816   1.423   2.082 -0.0412 -0.7480 -0.4162
  646MOL0     C87136   7.876   1.564   2.117  0.1390 -0.1839 -0.5711
  646MOL0     C87137   7.919   1.653   2.010  0.3483  0.4088  0.6244
  646MOL0     C87138   7.815   1.661   1.908  0.0570  0.5608 -0.0425
  646MOL0     C87139   7.718   1.669   1.838  0.4237  0.5979  0.1043
  646MOL0     C87140   8.163   1.234   1.858 -0.1468  0.5237 -1.1105
  646MOL0     C87141   8.279   1.155   1.810  0.2907  0.3639  0.9242
  646MOL0     C87142   8.299   1.140   1.654  0.9033  0.5642 -0.3046
  646MOL0     H87143   8.641   0.802   1.834 -0.4225 -1.6373  1.2883
  646MOL0     H87144   8.862   0.689   1.825 -1.0621  0.1971  0.6416
  646MOL0     H87145   9.224   0.832   2.076  0.2596  0.2068 -1.3563
  646MOL0     H87146   9.079   0.754   2.140 -1.2281  1.2018 -0.5606
  646MOL0     H87147   9.195   0.533   2.030  0.6524  0.1014 -2.4137
  646MOL0     H87148   9.291   0.615   2.154  0.3698  1.4552 -0.4177
  646MOL0     H87149   9.424   0.721   1.951 -0.2578  0.1034  2.8161
  646MOL0     H87150   9.330   0.614   1.859 -0.6053 -1.3885  0.4823
  646MOL0     H87151   9.495   0.510   2.095  0.5833 -2.9491 -0.4743
  646MOL0     H87152   9.411   0.412   1.987  0.0391 -0.2623 -0.5010
  646MOL0     H87153   9.527   0.463   1.798  0.6862  3.7169 -1.5380
  646MOL0     H87154   9.622   0.596   1.871 -0.0187 -0.2757 -1.8342
  646MOL0     H87155   9.725   0.433   2.039 -0.8274 -2.7198  1.3022
  646MOL0     H87156   9.644   0.308   1.953  0.0691 -0.0821 -1.9500
  646MOL0     H87157   9.858   0.500   1.828  1.6708 -0.4598 -2.4932
  646MOL0     H87158   9.766   0.408   1.728 -1.8318  0.9106  0.4065
  646MOL0     H87159   9.888   0.260   1.949  0.5102  0.9937  0.5462
  646MOL0     H87160   9.837   0.191   1.787  0.6498 -0.0386  0.1690
  646MOL0     H87161   9.950   0.276   1.568  0.9348  2.3595 -1.4387
  646MOL0     H87162  10.344   0.268   1.533  1.0984  1.4441  0.3174
  646MOL0     H87163  10.199   0.231   1.431  0.2145  3.1202 -1.4004
  646MOL0     H87164  10.141   0.458   1.400  0.9262  1.6862  0.8356
  646MOL0     H87165  10.251   0.503   1.529 -3.0487  1.8325 -0.6587
  646MOL0     H87166  10.354   0.375   1.257  2.8143 -0.6668  0.1435
  646MOL0     H87167  10.436   0.447   1.396 -1.7387 -1.0569  1.4741
  646MOL0     H87168  10.249   0.644   1.266 -0.1790 -0.9896  1.8226
  646MOL0     H87169  10.375   0.588   1.161 -1.3707 -0.9989 -0.3183
  646MOL0     H87170  10.573   0.533   1.144 -0.2375 -0.7371  1.1225
  646MOL0     H87171  10.798   0.486   1.122 -1.6957  0.4168 -1.1736
  646MOL0     H87172  11.195   0.390   1.307 -0.2386  1.8433  0.4604
  646MOL0     H87173  11.421   0.345   1.276  0.1855 -0.4940 -1.4651
  646MOL0     H87174  11.707   0.355   0.930  0.5360  0.7760  1.2625
  646MOL0     H87175  11.590   0.473   0.873  2.8952  0.5835 -3.0561
  646MOL0     H87176  11.807   0.553   0.875  0.8318  3.5918  0.6114
  646MOL0     H87177  11.694   0.640   0.995 -1.8283 -1.5252  2.5481
  646MOL0     H87178  11.823   0.513   1.177 -1.4892  0.0655  0.1340
  646MOL0     H87179  11.892   0.415   1.061  0.0787 -0.3065 -1.8217
  646MOL0     H87180  11.940   0.725   1.075  0.2409 -0.0948  1.6459
  646MOL0     H87181  12.029   0.631   0.959  1.6393  3.3740  0.2145
  646MOL0     H87182  12.025   0.596   1.268  0.8190  1.4846 -0.0179
  646MOL0     H87183  12.146   0.693   1.186  1.7745 -0.6082  3.1437
  646MOL0     H87184  12.096   0.404   1.117 -2.2429  2.8047 -3.2204
  646MOL0     H87185  12.219   0.501   1.045  0.8755  2.3368 -0.2795
  646MOL0     H87186  12.219   0.385   1.326 -0.6434  0.6222  1.3794
  646MOL0     H87187  12.308   0.541   1.289 -0.6264  0.4227 -0.9694
  646MOL0     H87188  12.349   0.271   1.171 -3.2796  2.1050 -1.4205
  646MOL0     H87189  12.425   0.431   1.112 -2.3397  1.5302 -0.2954
  646MOL0     H87190  11.448   0.621   0.952  0.5639 -2.0457 -0.9600
  646MOL0     H87191  11.201   0.674   0.979  1.8047  2.8156  0.5106
  646MOL0     H87192  10.866   0.804   1.428  3.5303  0.3429 -1.2599
  646MOL0     H87193  10.626   0.806   1.467 -0.1884 -1.5502  1.0861
  646MOL0     H87194   9.029   0.997   2.079 -1.1741  0.3345  0.5176
  646MOL0     H87195   8.818   1.113   2.073 -1.6534  1.3997 -3.0059
  646MOL0     H87196   8.410   1.083   2.121  1.6647  2.6911 -0.7301
  646MOL0     H87197   8.216   1.214   2.189  1.1229  1.3746  1.7811
  646MOL0     H87198   7.852   1.267   1.939 -0.1674  0.8338 -1.2693
  646MOL0     H87199   7.938   1.406   1.903  1.2724  0.4695  0.0479
  646MOL0     H87200   7.813   1.360   2.171  1.6432 -0.9937 -0.5004
  646MOL0     H87201   7.727   1.422   2.018 -0.0801 -0.7631 -0.3604
  646MOL0     H87202   7.952   1.557   2.196  1.2966  0.0659 -1.6267
  646MOL0     H87203   7.795   1.622   2.162 -1.5324 -2.9405  0.2262
  646MOL0     H87204   7.932   1.753   2.054 -0.9504  0.2253  1.4858
  646MOL0     H87205   8.007   1.608   1.964 -1.2480 -2.7402  0.3902
  646MOL0     H87206   7.648   1.672   1.756 -0.8844 -2.5417  0.9693
  646MOL0     H87207   8.097   1.300   1.801  1.4320  1.7986 -1.5311
  646MOL0     H87208   8.318   1.038   1.620  1.0287  1.0540 -1.8157
  646MOL0     H87209   8.216   1.171   1.589  1.8118  0.8180 -1.3819
  646MOL0     H87210   8.383   1.201   1.620 -0.7582  2.1905 -1.7626
  647MOL0     O87211   6.546  11.149   4.168 -0.0183  0.2554  0.0716
  647MOL0     C87212   6.481  11.095   4.073 -0.3230 -0.7430 -0.1683
  647MOL0     O87213   6.424  10.978   4.080 -0.0823  0.6134 -0.7495
  647MOL0     C87214   6.394  10.917   4.196  0.3373  0.1854  0.6079
  647MOL0     C87215   6.428  10.783   4.194  0.0259  0.7368 -0.7449
  647MOL0     C87216   6.383  10.696   4.296 -0.8456  0.4869 -0.0087
  647MOL0     C87217   6.298  10.737   4.387  1.0861 -0.6175 -0.2499
  647MOL0     O87218   6.240  10.632   4.459  0.3025  0.6933  0.4422
  647MOL0     C87219   6.120  10.655   4.533  1.0849 -0.1994  0.4606
  647MOL0     C87220   6.077  10.514   4.582 -0.0070  0.5290 -0.0686
  647MOL0     C87221   6.193  10.422   4.632  0.1498  0.6771 -0.0896
  647MOL0     C87222   6.257  10.316   4.533 -0.3969 -0.0796  0.2043
  647MOL0     C87223   6.327  10.213   4.622 -0.6201 -0.1452  1.6966
  647MOL0     C87224   6.433  10.137   4.542  0.1525  0.0469 -0.3579
  647MOL0     C87225   6.522  10.051   4.627 -0.6872 -0.7088  0.3907
  647MOL0     C87226   6.456   9.995   4.763  0.1774  0.0525 -0.4982
  647MOL0     N87227   6.507   9.870   4.818  0.3494  0.2255  0.0830
  647MOL0     C87228   6.608   9.787   4.772  0.4957  0.3883  0.1302
  647MOL0     C87229   6.643   9.704   4.873  0.1876  0.4264  0.4775
  647MOL0     C87230   6.733   9.587   4.867  1.2953  0.3888 -0.4745
  647MOL0     C87231   6.659   9.471   4.796  0.3676  0.9572  0.5254
  647MOL0     C87232   6.744   9.413   4.680 -0.4006  0.2676  0.2958
  647MOL0     C87233   6.697   9.275   4.628 -0.0445 -0.1450  0.4673
  647MOL0     O87234   6.680   9.188   4.744 -0.2196 -0.4808 -0.3854
  647MOL0     C87235   6.648   9.062   4.713  0.1139  0.5648 -0.7844
  647MOL0     C87236   6.608   8.982   4.817  1.5798  0.4437 -0.0936
  647MOL0     C87237   6.580   8.844   4.797 -1.0500 -0.8914 -0.2224
  647MOL0     C87238   6.587   8.783   4.666 -0.1592  0.4870  0.0151
  647MOL0     C87239   6.566   8.634   4.656  0.7136 -0.7390 -0.0769
  647MOL0     O87240   6.479   8.588   4.747  0.0337 -0.5088 -0.6061
  647MOL0     C87241   6.445   8.453   4.755  0.4410  0.2014  0.3640
  647MOL0     C87242   6.538   8.351   4.747  0.7943  0.5059  0.0645
  647MOL0     C87243   6.491   8.218   4.744  0.3263  0.1982 -0.0206
  647MOL0     C87244   6.356   8.194   4.748 -0.1152 -0.2893 -0.7675
  647MOL0     O87245   6.321   8.068   4.738 -0.5044  0.3791  0.3521
  647MOL0     C87246   6.188   8.029   4.729  0.5691 -0.3776 -0.0782
  647MOL0     C87247   6.172   7.879   4.731  0.1215  0.1102  0.1670
  647MOL0     C87248   6.229   7.819   4.869 -0.3924 -0.0914 -0.2188
  647MOL0     C87249   6.227   7.660   4.858  0.0602 -0.6027 -0.0780
  647MOL0     C87250   6.100   7.593   4.904 -0.4231 -0.3846  0.2443
  647MOL0     C87251   6.093   7.442   4.861  0.2909 -0.7858  0.3215
  647MOL0     C87252   5.974   7.380   4.918  0.2231  0.5196 -0.0759
  647MOL0     C87253   5.978   7.226   4.924 -0.3777 -0.4886  0.1978
  647MOL0    Cl87254   5.957   7.169   4.759  0.1383 -0.1637  0.0815
  647MOL0     C87255   6.265   8.296   4.761 -0.9618  0.0748 -0.3095
  647MOL0     C87256   6.307   8.424   4.773  0.0700 -0.1067  1.5408
  647MOL0     O87257   6.627   8.568   4.569 -0.0165  0.0982  0.1801
  647MOL0     C87258   6.627   8.875   4.563  0.5943  0.2789 -0.1335
  647MOL0     C87259   6.646   9.011   4.589 -0.9821 -0.0466  0.1224
  647MOL0     N87260   6.576   9.740   4.980 -0.3190  0.6651  0.1524
  647MOL0     N87261   6.502   9.835   4.948  0.6818  0.5576 -0.3128
  647MOL0     C87262   6.255  10.878   4.398  0.4409  0.1338  0.0701
  647MOL0     C87263   6.309  10.969   4.306  0.0256  0.0731 -0.0689
  647MOL0     C87264   6.479  11.156   3.942 -0.3188  0.3599  0.2677
  647MOL0     C87265   6.464  11.073   3.831 -0.3312 -0.1178  0.0575
  647MOL0     C87266   6.476  11.125   3.700 -0.2148  0.0041  0.8499
  647MOL0     C87267   6.495  11.253   3.679 -1.0153 -0.8706  0.2880
  647MOL0     O87268   6.504  11.292   3.547 -0.0738 -0.0366  0.3589
  647MOL0     C87269   6.521  11.427   3.506 -1.0014 -0.0106 -0.2408
  647MOL0     C87270   6.550  11.412   3.353  0.3169 -0.9517  0.0929
  647MOL0     C87271   6.539  11.552   3.290  0.8371  0.0497  0.4284
  647MOL0     C87272   6.593  11.551   3.144  0.7905  0.6079 -0.4183
  647MOL0     C87273   6.737  11.529   3.146  0.7295 -0.2048  1.0369
  647MOL0     C87274   6.860  11.507   3.124  0.3267  0.4596 -0.0902
  647MOL0     C87275   6.508  11.343   3.787  0.1857 -0.2403  0.0390
  647MOL0     C87276   6.511  11.295   3.916  0.7000  0.3006 -0.3512
  647MOL0     C87277   6.529  11.388   4.035 -0.0445  0.7583 -0.0447
  647MOL0     H87278   6.474  10.737   4.107  1.1140 -1.6357  0.9677
  647MOL0     H87279   6.407  10.590   4.289  2.2131  1.1496 -0.9893
  647MOL0     H87280   6.159  10.711   4.618  2.3556 -1.9735  1.1185
  647MOL0     H87281   6.033  10.694   4.481  1.5579 -2.0632 -1.9553
  647MOL0     H87282   6.033  10.467   4.494 -1.4951 -0.2639  1.0507
  647MOL0     H87283   6.011  10.513   4.669  3.4244 -0.1445  2.7572
  647MOL0     H87284   6.144  10.373   4.718  2.1610 -2.6890 -0.6834
  647MOL0     H87285   6.276  10.480   4.673  0.0946 -0.0296  1.0892
  647MOL0     H87286   6.188  10.255   4.474 -1.5143 -1.3967  2.7129
  647MOL0     H87287   6.323  10.373   4.466  0.1053  0.0653  0.8083
  647MOL0     H87288   6.383  10.275   4.693 -1.9955  0.3397  2.3912
  647MOL0     H87289   6.255  10.145   4.669 -1.8815 -0.2435 -0.2545
  647MOL0     H87290   6.381  10.067   4.475 -4.1103  3.0662 -0.6484
  647MOL0     H87291   6.496  10.209   4.490  1.6589 -2.4706 -2.2499
  647MOL0     H87292   6.612  10.110   4.647 -2.4384  0.9530  4.5984
  647MOL0     H87293   6.556   9.969   4.563  0.7841 -0.4536  0.8070
  647MOL0     H87294   6.476  10.062   4.847  1.8340 -1.5609  0.4567
  647MOL0     H87295   6.349   9.974   4.750 -0.4072  3.5745 -2.9038
  647MOL0     H87296   6.640   9.770   4.670 -0.6409 -1.3506  0.0185
  647MOL0     H87297   6.825   9.619   4.817  1.4838  1.9379  0.7783
  647MOL0     H87298   6.762   9.550   4.966 -1.0337  0.4380  0.2891
  647MOL0     H87299   6.631   9.394   4.869 -0.6066 -0.1841 -0.9883
  647MOL0     H87300   6.561   9.504   4.759 -1.7095 -2.0763  2.7914
  647MOL0     H87301   6.847   9.390   4.710  0.0502  0.5878 -0.9653
  647MOL0     H87302   6.768   9.486   4.603 -2.9954  0.4007 -0.5079
  647MOL0     H87303   6.778   9.248   4.561 -0.7975 -0.5386 -0.3067
  647MOL0     H87304   6.604   9.272   4.571  0.8910  0.4119 -1.1464
  647MOL0     H87305   6.612   9.029   4.915 -2.2932 -0.8576  0.8927
  647MOL0     H87306   6.567   8.780   4.883 -1.1997 -2.5425 -1.4144
  647MOL0     H87307   6.645   8.370   4.744  0.6246  1.5028  0.0819
  647MOL0     H87308   6.553   8.128   4.743 -1.5733 -1.1826 -2.2152
  647MOL0     H87309   6.135   8.067   4.816 -1.2591  3.0464 -2.4292
  647MOL0     H87310   6.148   8.072   4.636 -0.1711  0.0586  0.4333
  647MOL0     H87311   6.067   7.849   4.721  0.1608  0.5087 -1.8076
  647MOL0     H87312   6.228   7.839   4.646 -1.0172 -1.0685 -0.0700
  647MOL0     H87313   6.334   7.845   4.886 -0.8285  0.2762  2.3573
  647MOL0     H87314   6.169   7.837   4.958 -0.5535 -0.5838 -0.2247
  647MOL0     H87315   6.315   7.617   4.905  1.7541 -0.9460 -3.2843
  647MOL0     H87316   6.243   7.636   4.753 -2.9681  2.3660 -1.4011
  647MOL0     H87317   6.010   7.655   4.895  1.8788  3.2041 -0.0376
  647MOL0     H87318   6.108   7.589   5.013  2.0909  3.1917  0.3654
  647MOL0     H87319   6.091   7.445   4.751 -0.2900 -2.4515  0.2607
  647MOL0     H87320   6.177   7.384   4.898 -1.0145 -2.5813  0.6057
  647MOL0     H87321   5.877   7.406   4.876 -0.1923  1.8772  1.6486
  647MOL0     H87322   5.975   7.418   5.020 -1.8488  0.3767  0.0250
  647MOL0     H87323   6.074   7.192   4.965 -0.9162  1.4539  3.4448
  647MOL0     H87324   5.891   7.190   4.979 -1.4894  3.6478  1.5058
  647MOL0     H87325   6.159   8.274   4.766 -0.7234 -1.5477 -1.5280
  647MOL0     H87326   6.247   8.514   4.778 -0.0254  0.0103 -0.7671
  647MOL0     H87327   6.630   8.831   4.464 -1.7168  0.8463 -0.5191
  647MOL0     H87328   6.681   9.068   4.504 -0.8630 -1.9684 -1.1749
  647MOL0     H87329   6.184  10.907   4.475  0.2042  2.4280 -0.9171
  647MOL0     H87330   6.284  11.075   4.302  0.1799  0.1698  1.1297
  647MOL0     H87331   6.446  10.967   3.848  0.6111 -0.5339 -1.3165
  647MOL0     H87332   6.455  11.057   3.618 -3.9478 -0.2324  1.8262
  647MOL0     H87333   6.604  11.474   3.560 -1.2548 -2.9572  3.0055
  647MOL0     H87334   6.430  11.482   3.530 -1.2886 -0.6747  0.1836
  647MOL0     H87335   6.472  11.346   3.314 -0.1021 -1.5097  1.7555
  647MOL0     H87336   6.649  11.365   3.348  0.8746 -0.3258  3.1554
  647MOL0     H87337   6.600  11.624   3.346  1.8011  0.8366 -1.5240
  647MOL0     H87338   6.435  11.584   3.300  0.8907 -0.0706  1.4760
  647MOL0     H87339   6.549  11.474   3.080  2.0855  0.1845 -0.8278
  647MOL0     H87340   6.572  11.649   3.100 -3.2108 -0.9384 -2.3874
  647MOL0     H87341   6.960  11.468   3.122  1.0202  2.0563  1.1954
  647MOL0     H87342   6.529  11.450   3.786 -0.7968 -0.0177  0.6871
  647MOL0     H87343   6.620  11.365   4.091  1.1901  3.8247 -0.5952
  647MOL0     H87344   6.535  11.489   3.994 -1.7784  1.3630  1.0768
  647MOL0     H87345   6.444  11.376   4.103  2.0164 -0.8299  2.4455
  648MOL0     O87346   5.793   4.530  10.066 -0.2503  0.3339 -0.3364
  648MOL0     C87347   5.716   4.604  10.005 -0.8683 -0.1801  0.8371
  648MOL0     O87348   5.727   4.734   9.978 -1.1736 -0.6342  0.3643
  648MOL0     C87349   5.829   4.820  10.014  0.1662 -0.1460  0.3541
  648MOL0     C87350   5.799   4.963  10.030 -0.8148  0.5419  0.7790
  648MOL0     C87351   5.896   5.050  10.060 -0.2802  0.4815  0.2569
  648MOL0     C87352   6.031   5.013  10.055  0.1002 -0.5376 -0.6838
  648MOL0     O87353   6.118   5.106  10.082  0.2736 -0.5625 -0.2632
  648MOL0     C87354   6.239   5.067  10.151  0.3152 -0.4798  1.0978
  648MOL0     C87355   6.284   5.197  10.213 -0.2527  0.4074 -0.5156
  648MOL0     C87356   6.441   5.193  10.232  1.0246 -0.3757  0.2202
  648MOL0     C87357   6.486   5.325  10.291  0.1947  0.0035  0.1685
  648MOL0     C87358   6.633   5.353  10.273 -0.5862 -1.6452  0.5496
  648MOL0     C87359   6.664   5.498  10.329  0.4801  0.0414  0.0714
  648MOL0     C87360   6.795   5.560  10.275  0.3317  0.1136 -0.7832
  648MOL0     C87361   6.910   5.537  10.369 -0.3646  0.7728 -0.1986
  648MOL0     N87362   7.030   5.627  10.342  0.1569  0.3954  0.4022
  648MOL0     C87363   7.043   5.729  10.254  0.6428  0.2718  0.2418
  648MOL0     C87364   7.171   5.769  10.284 -0.5354 -0.4555 -0.0158
  648MOL0     C87365   7.226   5.896  10.229  0.7841  0.5657  0.2260
  648MOL0     C87366   7.381   5.888  10.196  0.5432 -0.8980  0.5926
  648MOL0     C87367   7.439   6.022  10.157  0.3855  0.5806 -0.1276
  648MOL0     C87368   7.593   6.020  10.150  0.2467  0.2475 -0.0785
  648MOL0     O87369   7.635   6.157  10.140 -0.4921  1.1435  0.2964
  648MOL0     C87370   7.703   6.201  10.249 -0.5933  0.2113 -0.2810
  648MOL0     C87371   7.647   6.208  10.382 -0.0969 -0.3267  0.9487
  648MOL0     C87372   7.713   6.264  10.488  0.3266 -0.0569 -0.4393
  648MOL0     C87373   7.838   6.318  10.467 -0.2209 -0.1820 -0.4456
  648MOL0     C87374   7.917   6.376  10.581 -0.1649 -0.1368  0.2502
  648MOL0     O87375   8.044   6.429  10.552  0.1506 -0.5612 -0.0800
  648MOL0     C87376   8.120   6.498  10.649 -0.0084  0.2393 -0.0928
  648MOL0     C87377   8.068   6.601  10.734  0.3670 -0.7928 -1.1547
  648MOL0     C87378   8.155   6.676  10.810  0.2701  0.5226  0.4702
  648MOL0     C87379   8.292   6.650  10.820  0.1029 -0.6549 -0.1697
  648MOL0     O87380   8.374   6.706  10.914 -0.5069  0.4532  0.6414
  648MOL0     C87381   8.352   6.849  10.951 -0.5448  0.1645  0.4819
  648MOL0     C87382   8.314   6.845  11.101  0.8352  0.4109  1.1768
  648MOL0     C87383   8.294   6.985  11.157 -0.0502 -0.1167 -0.4802
  648MOL0     C87384   8.427   7.057  11.180 -0.4001 -0.3027 -0.2855
  648MOL0     C87385   8.409   7.184  11.255 -0.2144  0.4045  0.0217
  648MOL0     C87386   8.535   7.263  11.291  0.1558 -0.0576 -0.5471
  648MOL0     C87387   8.496   7.379  11.384  0.7637  0.8273  0.5855
  648MOL0     C87388   8.619   7.424  11.464  0.6302  0.3053  0.3372
  648MOL0    Cl87389   8.727   7.514  11.352 -0.4246  0.4148  0.1215
  648MOL0     C87390   8.337   6.536  10.750  0.6756 -0.2751  0.3542
  648MOL0     C87391   8.256   6.469  10.660  0.1412 -0.6012 -0.3332
  648MOL0     O87392   7.871   6.381  10.696  0.2688 -0.0731 -0.2394
  648MOL0     C87393   7.893   6.315  10.334  0.6663  0.9625 -1.1787
  648MOL0     C87394   7.829   6.246  10.230 -0.1480 -0.0176 -0.7857
  648MOL0     N87395   7.234   5.699  10.380  0.0758  0.4270  0.5559
  648MOL0     N87396   7.146   5.606  10.409 -0.7727  0.7600 -0.5032
  648MOL0     C87397   6.058   4.875  10.039 -0.4331  0.5271 -0.0424
  648MOL0     C87398   5.961   4.781  10.024 -0.0542  0.3489  0.0325
  648MOL0     C87399   5.596   4.532   9.940  0.0395 -0.2517  0.3815
  648MOL0     C87400   5.571   4.562   9.804 -0.7383  0.0763  0.1744
  648MOL0     C87401   5.460   4.506   9.745 -0.8586 -0.0690  0.5174
  648MOL0     C87402   5.385   4.410   9.808 -0.1000 -0.2196  0.1868
  648MOL0     O87403   5.281   4.360   9.736  0.3773 -0.0077  0.0781
  648MOL0     C87404   5.202   4.257   9.794 -0.6047  0.3243 -0.4430
  648MOL0     C87405   5.081   4.230   9.717  0.5473 -0.3017  1.1481
  648MOL0     C87406   4.994   4.122   9.787 -0.1923 -0.1131  0.0304
  648MOL0     C87407   4.886   4.068   9.702 -0.5167  0.7519 -0.1324
  648MOL0     C87408   4.766   4.151   9.714 -0.2235 -0.6566 -0.3863
  648MOL0     C87409   4.673   4.214   9.755 -0.0627 -0.7095  0.0557
  648MOL0     C87410   5.410   4.374   9.941  0.2320  0.2608 -0.0345
  648MOL0     C87411   5.515   4.437  10.008 -0.4839  0.3189 -0.5963
  648MOL0     C87412   5.532   4.402  10.151 -0.3932 -0.6280  0.2559
  648MOL0     H87413   5.695   4.989  10.014 -2.0722 -2.4767  2.9327
  648MOL0     H87414   5.869   5.149  10.093 -3.0997 -0.0677 -0.1989
  648MOL0     H87415   6.214   4.989  10.224  1.1917 -2.4429 -0.5990
  648MOL0     H87416   6.317   5.032  10.083  0.9010  0.1762  1.4277
  648MOL0     H87417   6.230   5.221  10.305 -0.5503 -0.6696 -0.3882
  648MOL0     H87418   6.256   5.277  10.144 -0.0588 -0.9132 -2.2077
  648MOL0     H87419   6.479   5.185  10.130 -1.5123 -1.9343 -0.7056
  648MOL0     H87420   6.479   5.110  10.292  1.0574 -3.0750 -3.2239
  648MOL0     H87421   6.434   5.404  10.236 -1.2592 -1.1078 -0.0944
  648MOL0     H87422   6.465   5.320  10.398 -3.1106 -0.6855 -0.4026
  648MOL0     H87423   6.696   5.273  10.315 -3.5973 -3.8578  1.1844
  648MOL0     H87424   6.654   5.360  10.166 -0.7701 -1.9057  0.4954
  648MOL0     H87425   6.589   5.568  10.292 -0.2606 -1.7031 -1.9309
  648MOL0     H87426   6.658   5.495  10.438 -1.0649 -0.1981  0.0022
  648MOL0     H87427   6.772   5.667  10.278  2.6258  0.7334 -2.2519
  648MOL0     H87428   6.822   5.534  10.172 -0.2427  1.2750 -1.2491
  648MOL0     H87429   6.874   5.556  10.470 -0.3905  3.7154 -0.6745
  648MOL0     H87430   6.944   5.434  10.352  3.9231  2.4979 -4.4679
  648MOL0     H87431   6.974   5.779  10.188 -1.3751  0.4899  2.3811
  648MOL0     H87432   7.175   5.912  10.134 -1.3431 -2.7242  0.6452
  648MOL0     H87433   7.207   5.976  10.301  1.0333  0.0938  0.8246
  648MOL0     H87434   7.426   5.860  10.292  2.2998 -0.7464 -0.1534
  648MOL0     H87435   7.402   5.804  10.129 -0.2255 -1.0239  0.5016
  648MOL0     H87436   7.407   6.098  10.229 -0.3087  0.9996 -0.8484
  648MOL0     H87437   7.394   6.041  10.059  1.3409  1.3799 -0.4263
  648MOL0     H87438   7.616   5.969  10.056  1.8467  2.2602 -0.8811
  648MOL0     H87439   7.640   5.970  10.235 -0.7682  3.3104  2.4914
  648MOL0     H87440   7.544   6.174  10.387  0.2367 -2.2417 -2.0346
  648MOL0     H87441   7.661   6.261  10.583 -1.8163 -0.4329 -1.5761
  648MOL0     H87442   7.965   6.633  10.726 -0.1626 -1.4197  1.9896
  648MOL0     H87443   8.102   6.750  10.870 -3.2924  0.2318 -2.0153
  648MOL0     H87444   8.443   6.904  10.921 -0.7731 -0.4075 -1.3784
  648MOL0     H87445   8.274   6.907  10.901 -0.5573  0.8050  1.2223
  648MOL0     H87446   8.220   6.790  11.099  2.4230 -2.7154 -3.1285
  648MOL0     H87447   8.388   6.789  11.159  0.3180 -1.0147  0.5018
  648MOL0     H87448   8.226   7.038  11.088 -1.1955  0.7173  1.2253
  648MOL0     H87449   8.242   6.975  11.252 -0.1619 -0.8550 -0.6148
  648MOL0     H87450   8.475   7.086  11.087 -0.3835 -3.8719 -1.5182
  648MOL0     H87451   8.498   6.994  11.234  0.1112 -0.4492 -1.1131
  648MOL0     H87452   8.354   7.162  11.348  0.8684  3.4395  1.5314
  648MOL0     H87453   8.354   7.255  11.193  1.8076  1.3741 -0.7282
  648MOL0     H87454   8.602   7.199  11.349  1.5171  1.4552 -0.3807
  648MOL0     H87455   8.594   7.297  11.206 -0.3522 -1.2780 -1.4154
  648MOL0     H87456   8.419   7.344  11.453 -0.9797  2.8724 -0.1972
  648MOL0     H87457   8.449   7.460  11.327 -0.4656  0.1265  0.5559
  648MOL0     H87458   8.579   7.488  11.544 -1.9775 -0.0319 -0.6163
  648MOL0     H87459   8.664   7.337  11.512 -1.3895 -0.5945  0.7062
  648MOL0     H87460   8.443   6.518  10.742  0.7829 -1.5164  3.2805
  648MOL0     H87461   8.286   6.388  10.594 -1.6095 -0.5187 -1.2872
  648MOL0     H87462   7.993   6.354  10.318  1.0583 -0.2292 -1.7436
  648MOL0     H87463   7.889   6.253  10.141 -1.7938 -0.0078 -1.9380
  648MOL0     H87464   6.158   4.837  10.025  0.7696  3.3551  0.1987
  648MOL0     H87465   5.990   4.678  10.003  1.0170  1.1381 -2.8370
  648MOL0     H87466   5.634   4.634   9.752 -1.2218 -1.1133 -2.2222
  648MOL0     H87467   5.441   4.540   9.644  1.3536 -0.7666 -0.1886
  648MOL0     H87468   5.162   4.289   9.891  0.0629  0.9568 -0.3709
  648MOL0     H87469   5.257   4.164   9.806  2.0908  2.1118  2.7568
  648MOL0     H87470   5.106   4.200   9.615 -3.8695 -4.2227  0.8916
  648MOL0     H87471   5.033   4.328   9.709 -0.0036 -0.4928  1.9774
  648MOL0     H87472   4.958   4.165   9.881  2.0760  1.7445  0.1396
  648MOL0     H87473   5.050   4.035   9.821 -0.0109  0.2664  0.7187
  648MOL0     H87474   4.906   4.050   9.596 -0.9515  3.7051 -0.8193
  648MOL0     H87475   4.868   3.966   9.738  2.7587 -0.4141 -1.4588
  648MOL0     H87476   4.580   4.263   9.776  1.3411  1.8434  0.8272
  648MOL0     H87477   5.362   4.295   9.998 -1.2739  0.6936 -0.6566
  648MOL0     H87478   5.441   4.364  10.198 -0.1180 -3.7702 -1.4704
  648MOL0     H87479   5.611   4.326  10.161 -0.1944 -0.3023  1.2040
  648MOL0     H87480   5.563   4.491  10.205 -0.8753 -0.9240  1.0370
  649MOL0     O87481   1.729   4.331  10.380  0.0821  0.1851  0.2278
  649MOL0     C87482   1.775   4.395  10.285  0.5754 -0.6925 -0.2785
  649MOL0     O87483   1.893   4.375  10.225  0.4233  0.2151 -0.3437
  649MOL0     C87484   1.968   4.261  10.244 -0.2609 -0.0563  0.2147
  649MOL0     C87485   2.022   4.202  10.354 -0.1793 -0.1244 -0.3593
  649MOL0     C87486   2.123   4.102  10.343  1.0066  0.3520 -0.5764
  649MOL0     C87487   2.166   4.048  10.234  0.3806 -0.1899 -0.2526
  649MOL0     O87488   2.259   3.947  10.220 -0.0566 -0.4870  1.0398
  649MOL0     C87489   2.370   3.941  10.318  0.0969  0.5007 -0.0411
  649MOL0     C87490   2.461   4.064  10.309  1.1096 -0.5848 -0.0491
  649MOL0     C87491   2.542   4.076  10.182 -0.4963 -0.5154  0.1809
  649MOL0     C87492   2.577   4.218  10.152 -0.5827  0.4187  0.0529
  649MOL0     C87493   2.710   4.233  10.075 -1.1120 -0.6502 -0.5965
  649MOL0     C87494   2.839   4.193  10.156 -0.1794 -0.4922 -0.5117
  649MOL0     C87495   2.918   4.312  10.202  0.2792 -0.7115  0.0436
  649MOL0     C87496   2.864   4.378  10.336  0.3753  0.0156  1.4761
  649MOL0     N87497   2.930   4.507  10.370  0.1259  0.0850  0.2253
  649MOL0     C87498   3.039   4.542  10.445 -0.6530 -0.3332 -0.1786
  649MOL0     C87499   3.045   4.676  10.438  0.3269 -0.2819  0.4111
  649MOL0     C87500   3.142   4.768  10.505  0.2285 -0.2323  0.4122
  649MOL0     C87501   3.283   4.748  10.451 -0.4446 -0.7609  0.2693
  649MOL0     C87502   3.367   4.863  10.508  0.9941 -0.2896 -0.0972
  649MOL0     C87503   3.492   4.888  10.429  0.2488 -0.0275 -0.0262
  649MOL0     O87504   3.557   4.992  10.488 -0.5940 -0.0327 -0.1784
  649MOL0     C87505   3.695   4.985  10.490  0.0910  0.5014  0.2013
  649MOL0     C87506   3.774   4.935  10.390 -0.2628 -0.0004  1.0966
  649MOL0     C87507   3.914   4.922  10.414  0.9163 -0.6702 -0.5054
  649MOL0     C87508   3.973   4.966  10.534 -0.7166  0.1562 -0.3189
  649MOL0     C87509   4.114   4.946  10.543 -0.5099 -1.4198  0.8198
  649MOL0     O87510   4.174   4.870  10.440  0.0593  0.5046  0.0558
  649MOL0     C87511   4.306   4.840  10.444 -0.7613 -0.3399  0.4288
  649MOL0     C87512   4.351   4.735  10.527  0.0436  0.6923 -0.5206
  649MOL0     C87513   4.482   4.694  10.533  0.6655 -0.3405  0.7018
  649MOL0     C87514   4.579   4.756  10.455  0.2124  0.4525 -0.0368
  649MOL0     O87515   4.705   4.700  10.464 -0.0001  1.2169 -0.1300
  649MOL0     C87516   4.822   4.760  10.425 -0.1959  0.5054  1.3674
  649MOL0     C87517   4.869   4.871  10.519 -1.1359  0.0377 -0.5408
  649MOL0     C87518   5.019   4.907  10.483 -0.4786 -1.2149  0.5964
  649MOL0     C87519   5.055   5.032  10.580  0.2778  0.6238 -0.1101
  649MOL0     C87520   5.203   5.073  10.547 -0.5988  0.8189  0.1960
  649MOL0     C87521   5.296   5.012  10.648  0.7436  0.0204 -0.5049
  649MOL0     C87522   5.440   5.015  10.610 -0.2288  0.0571 -0.6815
  649MOL0     C87523   5.512   4.975  10.747 -0.3937  0.6544  0.1539
  649MOL0    Cl87524   5.687   5.006  10.733 -0.4290  0.2330  0.5740
  649MOL0     C87525   4.537   4.859  10.364  0.2494 -0.5107 -0.1257
  649MOL0     C87526   4.408   4.908  10.360 -0.3455 -0.1895  0.1699
  649MOL0     O87527   4.177   4.998  10.635  0.0716  0.2959  0.3888
  649MOL0     C87528   3.891   5.008  10.636 -0.4373  0.5290 -0.3624
  649MOL0     C87529   3.753   5.021  10.611 -0.7150 -0.6200  0.5521
  649MOL0     N87530   2.948   4.721  10.346 -0.3657  1.3022 -0.4821
  649MOL0     N87531   2.875   4.622  10.311 -0.8561  0.1485 -0.3451
  649MOL0     C87532   2.106   4.099  10.114 -0.0712  0.2297 -0.6457
  649MOL0     C87533   2.018   4.208  10.119 -0.2713 -0.3629 -0.5247
  649MOL0     C87534   1.692   4.506  10.242  0.2413 -0.3604  0.8730
  649MOL0     C87535   1.767   4.628  10.217  0.1254  0.1650 -0.2954
  649MOL0     C87536   1.700   4.748  10.173 -0.2315 -0.0287 -0.0826
  649MOL0     C87537   1.562   4.747  10.161  0.0429 -0.3800 -0.0633
  649MOL0     O87538   1.504   4.845  10.088 -0.3653  0.5042  0.5087
  649MOL0     C87539   1.517   4.826   9.942  0.2853  0.4730 -0.3343
  649MOL0     C87540   1.381   4.848   9.881  0.2288 -0.2997 -0.1083
  649MOL0     C87541   1.314   4.978   9.896  0.3059  0.1203  0.1321
  649MOL0     C87542   1.172   4.994   9.850  0.2531 -0.2613  1.2896
  649MOL0     C87543   1.172   5.016   9.706  0.4408 -0.0715  0.6735
  649MOL0     C87544   1.150   5.039   9.587  0.7821  0.0045  0.4294
  649MOL0     C87545   1.487   4.633  10.191 -0.5005 -0.3113 -0.1331
  649MOL0     C87546   1.551   4.512  10.233 -0.1502 -0.5893  1.5925
  649MOL0     C87547   1.455   4.384  10.241 -0.0076  0.2649 -0.2994
  649MOL0     H87548   1.986   4.231  10.452 -2.7304  0.0563 -1.2773
  649MOL0     H87549   2.143   4.067  10.444  0.9231  4.0339  0.8798
  649MOL0     H87550   2.321   3.935  10.415 -2.4581  2.0170 -1.1216
  649MOL0     H87551   2.435   3.853  10.308  1.9152  1.4208  2.6554
  649MOL0     H87552   2.535   4.049  10.387  1.0191  1.2613  0.4468
  649MOL0     H87553   2.410   4.159  10.327  2.5568  0.2983 -0.4444
  649MOL0     H87554   2.469   4.043  10.108 -1.1578  0.0815  0.5620
  649MOL0     H87555   2.624   4.003  10.176 -1.1954 -1.4474  1.5155
  649MOL0     H87556   2.495   4.266  10.098  0.4546  2.5713  0.2657
  649MOL0     H87557   2.576   4.271  10.248 -1.5686 -1.8403  1.3623
  649MOL0     H87558   2.704   4.160   9.993 -2.6619 -0.5983 -0.5490
  649MOL0     H87559   2.725   4.330  10.028  3.3856 -1.3768 -1.1435
  649MOL0     H87560   2.806   4.148  10.250 -1.2453 -1.4279 -1.2954
  649MOL0     H87561   2.901   4.125  10.098  0.8985  0.7121 -0.8141
  649MOL0     H87562   2.942   4.374  10.115  1.5983 -1.6784 -0.3146
  649MOL0     H87563   3.017   4.284  10.237  0.1800 -1.7597 -0.4369
  649MOL0     H87564   2.755   4.384  10.335  0.1347 -1.3000 -3.3286
  649MOL0     H87565   2.869   4.305  10.417  0.5760 -1.5541  0.1025
  649MOL0     H87566   3.109   4.479  10.499  1.3466  2.3008  0.5407
  649MOL0     H87567   3.114   4.871  10.483  1.8803  0.1436 -0.0137
  649MOL0     H87568   3.141   4.758  10.614  0.3453  0.9871  0.5382
  649MOL0     H87569   3.321   4.651  10.482 -0.9749 -1.9310 -2.4509
  649MOL0     H87570   3.271   4.753  10.343  0.2512 -0.7117  0.1868
  649MOL0     H87571   3.397   4.844  10.611  2.1012 -1.2506 -0.5675
  649MOL0     H87572   3.314   4.958  10.507 -0.5467 -1.1049  0.7405
  649MOL0     H87573   3.480   4.906  10.322  5.9755 -0.7862 -1.1296
  649MOL0     H87574   3.551   4.796  10.440  0.6374 -0.4561 -4.2785
  649MOL0     H87575   3.728   4.906  10.296 -2.1734  1.9782  1.3255
  649MOL0     H87576   3.965   4.880  10.328  1.9633 -0.8011  0.1526
  649MOL0     H87577   4.278   4.683  10.588  2.8540 -1.3183  1.3837
  649MOL0     H87578   4.510   4.609  10.595  0.6291  1.1377  2.8171
  649MOL0     H87579   4.896   4.681  10.413  0.5188  1.4648 -1.6918
  649MOL0     H87580   4.812   4.798  10.322  2.2985  1.9245  1.5514
  649MOL0     H87581   4.808   4.962  10.516 -1.3283 -0.0633  0.1748
  649MOL0     H87582   4.875   4.845  10.625 -3.6944  0.6934 -0.1708
  649MOL0     H87583   5.084   4.820  10.492  0.5435 -0.7921 -1.8996
  649MOL0     H87584   5.019   4.949  10.382  2.8523  0.4706  1.1424
  649MOL0     H87585   5.044   5.006  10.686  0.4217  0.5847 -0.1039
  649MOL0     H87586   4.990   5.119  10.571 -1.2853 -0.5431 -0.3780
  649MOL0     H87587   5.215   5.182  10.543  1.6063  0.5827 -1.5644
  649MOL0     H87588   5.227   5.049  10.443 -0.1934  3.4606 -0.4021
  649MOL0     H87589   5.285   5.075  10.736  2.4023  0.3962 -0.5423
  649MOL0     H87590   5.272   4.909  10.675  3.1396 -0.6861 -0.8851
  649MOL0     H87591   5.470   5.116  10.580  0.4346 -0.0733 -0.4847
  649MOL0     H87592   5.460   4.940  10.534  0.1675  0.4041 -0.9240
  649MOL0     H87593   5.476   5.028  10.836 -0.1179 -0.6803  1.0953
  649MOL0     H87594   5.497   4.869  10.768  5.9961 -1.1803 -2.3550
  649MOL0     H87595   4.618   4.919  10.324  0.2568 -0.5031 -0.0996
  649MOL0     H87596   4.378   4.992  10.299  1.8012  0.4535 -0.0860
  649MOL0     H87597   3.931   5.000  10.736 -0.9131 -1.5659 -0.2795
  649MOL0     H87598   3.689   5.057  10.692 -0.1541  0.8360  0.3838
  649MOL0     H87599   2.146   4.061  10.020 -0.4199  0.1753 -0.7737
  649MOL0     H87600   1.976   4.235  10.023 -0.7282 -0.7322 -0.4329
  649MOL0     H87601   1.875   4.623  10.228 -0.0198 -0.2240  1.1558
  649MOL0     H87602   1.765   4.829  10.141 -0.1902 -0.6711 -1.7278
  649MOL0     H87603   1.558   4.730   9.911 -2.2497 -1.8154  2.7370
  649MOL0     H87604   1.575   4.910   9.902  1.4972  1.1247  2.5044
  649MOL0     H87605   1.318   4.765   9.916 -0.1430 -0.6898 -1.6016
  649MOL0     H87606   1.396   4.837   9.773 -1.6924 -1.4204 -0.3198
  649MOL0     H87607   1.369   5.060   9.849 -0.6134 -0.5385 -2.2090
  649MOL0     H87608   1.319   5.016   9.999  4.1544 -0.1651  0.1738
  649MOL0     H87609   1.112   4.904   9.872  1.2008 -0.8229  1.6218
  649MOL0     H87610   1.124   5.077   9.902 -0.5545  0.3951 -0.4363
  649MOL0     H87611   1.136   5.061   9.483  2.0459  0.3167  0.3056
  649MOL0     H87612   1.383   4.627  10.161 -0.7713 -1.1957  0.9123
  649MOL0     H87613   1.436   4.357  10.137  1.4631  1.5423 -0.9451
  649MOL0     H87614   1.506   4.297  10.284 -0.4597 -0.5948 -1.4354
  649MOL0     H87615   1.368   4.405  10.304  0.2091  0.6133 -0.1144
  650MOL0     O87616   5.378   1.068  10.923 -0.1920 -0.7458  0.0637
  650MOL0     C87617   5.303   0.974  10.898 -0.1517 -1.1725  0.4982
  650MOL0     O87618   5.325   0.838  10.928 -0.1617 -0.3475 -0.3648
  650MOL0     C87619   5.457   0.820  10.975  0.0407  1.0806 -0.0400
  650MOL0     C87620   5.482   0.839  11.110  0.4633  0.6120 -0.4029
  650MOL0     C87621   5.616   0.829  11.151  0.2924  0.4090 -0.1460
  650MOL0     C87622   5.716   0.785  11.066  0.0710 -0.0762  0.2034
  650MOL0     O87623   5.829   0.761  11.124 -0.0187 -0.0948 -0.0080
  650MOL0     C87624   5.961   0.774  11.059  0.2564 -1.8942  0.6296
  650MOL0     C87625   6.062   0.779  11.163 -0.4359 -0.1471  0.0106
  650MOL0     C87626   6.197   0.782  11.107 -0.9108  1.4575 -0.1989
  650MOL0     C87627   6.295   0.766  11.226 -0.0130  0.4156 -0.2067
  650MOL0     C87628   6.430   0.755  11.170  0.4683 -0.8989  0.1152
  650MOL0     C87629   6.527   0.707  11.285  0.5756 -0.4582  0.3213
  650MOL0     C87630   6.668   0.752  11.277  0.6160 -0.1355 -0.0675
  650MOL0     C87631   6.741   0.704  11.151 -1.4207  0.1191 -0.2607
  650MOL0     N87632   6.884   0.733  11.154  0.0672  0.4830  0.7960
  650MOL0     C87633   6.973   0.709  11.254 -0.7211  0.2072  0.2996
  650MOL0     C87634   7.096   0.746  11.207 -0.3012  1.3789  0.9241
  650MOL0     C87635   7.215   0.714  11.282  0.3119  0.4598  0.3325
  650MOL0     C87636   7.290   0.843  11.321  0.1922  1.1872  0.4902
  650MOL0     C87637   7.377   0.881  11.202 -0.2133  0.2142 -1.2066
  650MOL0     C87638   7.495   0.794  11.180  0.3766  0.6765  0.4406
  650MOL0     O87639   7.585   0.837  11.279 -0.0506  0.2748 -0.5945
  650MOL0     C87640   7.714   0.855  11.229 -0.5750  0.6079  0.5382
  650MOL0     C87641   7.760   0.985  11.205  0.6127 -0.2769 -0.2942
  650MOL0     C87642   7.898   1.010  11.177 -0.6521  0.8024 -0.0196
  650MOL0     C87643   7.986   0.907  11.153  0.5499  0.3378  0.7815
  650MOL0     C87644   8.121   0.930  11.096  0.1646 -1.1688  0.0100
  650MOL0     O87645   8.157   1.069  11.093 -0.2581  0.3942 -0.3133
  650MOL0     C87646   8.283   1.091  11.045 -0.6661 -0.2284 -0.0490
  650MOL0     C87647   8.310   1.110  10.911  0.0895  0.6540  0.8442
  650MOL0     C87648   8.435   1.147  10.863 -0.1519  0.8310 -0.5737
  650MOL0     C87649   8.536   1.172  10.955  1.1517  0.0518 -0.6991
  650MOL0     O87650   8.669   1.200  10.930 -0.4242 -1.0066 -0.5614
  650MOL0     C87651   8.711   1.193  10.794  0.5638  0.0676  0.3710
  650MOL0     C87652   8.855   1.229  10.784 -0.1242 -0.6805 -1.1825
  650MOL0     C87653   8.889   1.373  10.756  0.4952  0.2619 -0.3270
  650MOL0     C87654   9.034   1.408  10.723  0.5836  0.4194 -0.0522
  650MOL0     C87655   9.136   1.369  10.846 -0.2172 -0.1207  0.3323
  650MOL0     C87656   9.278   1.374  10.787 -0.3846  0.6205  0.4782
  650MOL0     C87657   9.320   1.513  10.770 -0.0113 -0.1919  0.5107
  650MOL0     C87658   9.431   1.522  10.671  0.0150  0.0611  1.1431
  650MOL0    Cl87659   9.505   1.674  10.709 -0.0167 -0.3558 -0.1375
  650MOL0     C87660   8.511   1.164  11.091  0.5188 -0.3784 -0.4583
  650MOL0     C87661   8.380   1.131  11.138  0.1889 -1.0710  0.0848
  650MOL0     O87662   8.186   0.840  11.053 -0.0978  0.1199 -0.3090
  650MOL0     C87663   7.937   0.778  11.189  0.4645  0.3632  0.3285
  650MOL0     C87664   7.809   0.756  11.233 -1.1555  0.4197  0.3889
  650MOL0     N87665   7.083   0.789  11.073 -0.3690  0.6220 -0.4597
  650MOL0     N87666   6.955   0.781  11.049 -0.5304  0.1947 -0.0998
  650MOL0     C87667   5.695   0.777  10.927  0.3917 -0.2368 -0.4223
  650MOL0     C87668   5.564   0.793  10.879 -0.7727  0.6697  0.9009
  650MOL0     C87669   5.169   1.014  10.841 -0.1805 -0.1926  0.1338
  650MOL0     C87670   5.125   1.147  10.856 -0.1911 -0.1868 -0.0522
  650MOL0     C87671   4.995   1.183  10.810  1.0043 -0.3919  0.0969
  650MOL0     C87672   4.910   1.099  10.739 -0.7800 -0.9810 -0.0049
  650MOL0     O87673   4.791   1.131  10.677  0.0072  0.2084  0.0227
  650MOL0     C87674   4.734   1.264  10.694 -0.2429 -1.1519 -0.6981
  650MOL0     C87675   4.587   1.252  10.683 -0.6672 -0.5133 -0.1340
  650MOL0     C87676   4.526   1.190  10.810  0.5131 -0.5032 -0.8064
  650MOL0     C87677   4.371   1.173  10.801 -0.4880 -0.0364  0.3896
  650MOL0     C87678   4.343   1.064  10.703  0.1918  0.1725 -0.0630
  650MOL0     C87679   4.309   0.974  10.627  0.2170 -0.0640 -0.3624
  650MOL0     C87680   4.952   0.971  10.722  0.1021  0.0168  0.2141
  650MOL0     C87681   5.083   0.927  10.769  0.4985 -0.0291 -0.1979
  650MOL0     C87682   5.135   0.802  10.712  0.1438  0.1411 -0.1644
  650MOL0     H87683   5.403   0.880  11.172  0.2045  2.6620 -1.9670
  650MOL0     H87684   5.626   0.852  11.257  0.2852 -1.3432  0.2583
  650MOL0     H87685   5.983   0.687  10.996 -0.0364 -0.5024 -1.4714
  650MOL0     H87686   5.965   0.866  11.001 -0.5676 -2.3030 -0.0984
  650MOL0     H87687   6.048   0.688  11.223 -2.7063 -0.2272 -0.5655
  650MOL0     H87688   6.052   0.869  11.224  0.0864 -0.9077  1.2720
  650MOL0     H87689   6.220   0.871  11.049 -1.4936  0.9870 -1.1704
  650MOL0     H87690   6.217   0.700  11.037  0.4124  1.3293  0.2996
  650MOL0     H87691   6.283   0.853  11.291  0.6462  0.1162  0.3345
  650MOL0     H87692   6.273   0.676  11.285 -2.5731  1.2772  0.2568
  650MOL0     H87693   6.429   0.695  11.078 -2.2443 -0.8896  0.0403
  650MOL0     H87694   6.449   0.859  11.144  2.5523 -0.2710  3.6227
  650MOL0     H87695   6.490   0.753  11.377  1.1898  0.4825  0.1020
  650MOL0     H87696   6.521   0.599  11.304  0.0037 -0.8633 -1.8438
  650MOL0     H87697   6.725   0.718  11.364  0.1221  0.9305  0.6941
  650MOL0     H87698   6.680   0.860  11.285  1.4542 -0.3380  2.4486
  650MOL0     H87699   6.731   0.595  11.142 -1.7976  0.0619  0.6435
  650MOL0     H87700   6.695   0.750  11.064  0.8573  3.9744  0.3676
  650MOL0     H87701   6.946   0.672  11.352 -2.9704 -2.0825 -1.0534
  650MOL0     H87702   7.188   0.648  11.366  0.1135  0.3846  0.2116
  650MOL0     H87703   7.265   0.649  11.210 -1.7261 -0.2474 -0.5317
  650MOL0     H87704   7.213   0.920  11.336 -2.7724 -1.3623 -0.4771
  650MOL0     H87705   7.355   0.837  11.409  1.4337 -0.5185 -0.4852
  650MOL0     H87706   7.406   0.985  11.217  1.8394 -0.3014 -1.2457
  650MOL0     H87707   7.322   0.883  11.107 -0.3500  1.8000 -1.1101
  650MOL0     H87708   7.538   0.824  11.084 -2.2634  1.0369 -0.7228
  650MOL0     H87709   7.472   0.687  11.177 -1.4920  1.0170 -3.1597
  650MOL0     H87710   7.690   1.068  11.202  0.8925  0.0699  1.5951
  650MOL0     H87711   7.916   1.115  11.162  0.6277  0.2592 -2.8218
  650MOL0     H87712   8.230   1.101  10.838  1.1364  2.4521 -0.6039
  650MOL0     H87713   8.445   1.155  10.756 -2.6297 -2.5450 -1.2168
  650MOL0     H87714   8.687   1.091  10.762 -3.0826  1.1517 -0.7861
  650MOL0     H87715   8.660   1.271  10.737  1.1921  1.0031  1.0432
  650MOL0     H87716   8.911   1.213  10.877 -1.2696  1.7125 -0.0029
  650MOL0     H87717   8.916   1.169  10.716  2.1216 -3.2212  2.6732
  650MOL0     H87718   8.826   1.399  10.670  0.5704 -2.6805 -1.4212
  650MOL0     H87719   8.869   1.436  10.842 -0.3881 -0.2911 -0.1099
  650MOL0     H87720   9.021   1.513  10.695 -2.8750 -0.4531 -2.3518
  650MOL0     H87721   9.077   1.356  10.637  1.9266  1.9309 -0.3451
  650MOL0     H87722   9.111   1.267  10.876  0.0358  0.0938  1.3179
  650MOL0     H87723   9.113   1.430  10.933 -1.7736  1.0618 -0.8529
  650MOL0     H87724   9.349   1.327  10.856  2.8935  4.0163 -0.2845
  650MOL0     H87725   9.278   1.313  10.696 -1.3035  0.1471  0.7804
  650MOL0     H87726   9.347   1.552  10.868 -0.6563  1.9016 -0.0936
  650MOL0     H87727   9.234   1.567  10.729 -0.8406 -2.0874 -0.3660
  650MOL0     H87728   9.501   1.438  10.677  1.3448  0.8267 -1.8215
  650MOL0     H87729   9.395   1.521  10.567  1.8222 -0.7141  0.4707
  650MOL0     H87730   8.592   1.186  11.159 -1.3261  1.6336  1.2618
  650MOL0     H87731   8.348   1.124  11.242 -0.5210  0.1339 -0.0426
  650MOL0     H87732   8.012   0.699  11.185 -1.3593 -1.4623  0.3647
  650MOL0     H87733   7.775   0.655  11.251 -0.6894 -0.3360 -2.4166
  650MOL0     H87734   5.774   0.762  10.854  2.0846 -0.3143  1.3600
  650MOL0     H87735   5.535   0.780  10.775  1.6603 -2.0802  0.4363
  650MOL0     H87736   5.185   1.219  10.910 -0.9713 -0.2110  0.8790
  650MOL0     H87737   4.968   1.288  10.806  4.2839  0.5165 -1.6883
  650MOL0     H87738   4.770   1.330  10.614 -2.4020  1.5256  0.3960
  650MOL0     H87739   4.751   1.294  10.798 -0.4619 -0.1643 -0.9430
  650MOL0     H87740   4.559   1.195  10.595  0.5726  0.7804 -1.4169
  650MOL0     H87741   4.549   1.355  10.676 -0.0380  0.1756  3.8659
  650MOL0     H87742   4.551   1.256  10.894  1.5435  0.0892 -1.5499
  650MOL0     H87743   4.565   1.090  10.834 -0.2965 -0.8118 -0.7693
  650MOL0     H87744   4.354   1.137  10.902  2.5830  1.1199  1.4425
  650MOL0     H87745   4.310   1.263  10.795 -1.2125 -0.4128  1.8653
  650MOL0     H87746   4.278   0.898  10.559 -3.2742  0.5600  0.3229
  650MOL0     H87747   4.890   0.908  10.659  0.7705 -0.0168 -0.4212
  650MOL0     H87748   5.107   0.793  10.607  0.1482 -0.9908 -0.0822
  650MOL0     H87749   5.244   0.794  10.704 -0.0810 -1.4495 -2.9576
  650MOL0     H87750   5.106   0.718  10.775  0.2132  0.9684  0.9967
  651MOL0     O87751   3.052  10.883   4.796 -0.1770 -0.5077  0.4954
  651MOL0     C87752   3.075  11.007   4.778 -0.2284 -0.0208 -0.0369
  651MOL0     O87753   3.204  11.062   4.765  0.5449 -0.3552 -0.4015
  651MOL0     C87754   3.323  10.997   4.809  0.2664  0.5690 -0.0261
  651MOL0     C87755   3.352  10.865   4.781 -0.3487  0.0627  0.5434
  651MOL0     C87756   3.478  10.807   4.795  1.0132  0.0971  0.1255
  651MOL0     C87757   3.578  10.886   4.855  0.2600 -0.5392 -0.3353
  651MOL0     O87758   3.710  10.844   4.876  0.5603 -0.0299 -0.2271
  651MOL0     C87759   3.753  10.710   4.835  0.1193 -1.1209 -0.2488
  651MOL0     C87760   3.870  10.687   4.919  0.1155  0.4612 -0.6048
  651MOL0     C87761   3.838  10.666   5.067 -0.1692 -0.2757  0.4158
  651MOL0     C87762   3.959  10.609   5.151  0.0748  0.3004 -0.4534
  651MOL0     C87763   4.097  10.670   5.115  0.0954  0.5701 -0.1066
  651MOL0     C87764   4.115  10.819   5.149 -0.0380 -0.2968  0.9714
  651MOL0     C87765   4.251  10.870   5.107  0.4532  0.3964 -0.4984
  651MOL0     C87766   4.357  10.872   5.224  0.4968  0.6582 -0.8027
  651MOL0     N87767   4.395  10.733   5.261 -0.1630  0.3276 -0.2793
  651MOL0     C87768   4.444  10.637   5.179 -0.1932  0.6842  0.5951
  651MOL0     C87769   4.440  10.519   5.244 -0.0625 -0.3018  0.4861
  651MOL0     C87770   4.488  10.392   5.183 -0.1226  0.6652 -0.5719
  651MOL0     C87771   4.636  10.373   5.204  0.6290 -0.1030 -0.4167
  651MOL0     C87772   4.730  10.459   5.119  0.0953 -0.1471  0.0079
  651MOL0     C87773   4.879  10.458   5.160  0.4140 -0.4232 -0.3221
  651MOL0     O87774   4.913  10.337   5.229 -0.2770  0.2319  0.1273
  651MOL0     C87775   5.025  10.273   5.189  1.0092  0.0168  0.1631
  651MOL0     C87776   5.015  10.212   5.067 -0.3702  0.8504 -0.3555
  651MOL0     C87777   5.128  10.146   5.020  0.0176 -0.5577 -0.3661
  651MOL0     C87778   5.250  10.140   5.090 -0.0989  0.7256  0.5700
  651MOL0     C87779   5.369  10.064   5.039  0.4978  0.8430  0.1447
  651MOL0     O87780   5.472  10.033   5.125 -0.4116 -1.2371 -0.5541
  651MOL0     C87781   5.601  10.000   5.088  0.7156 -1.4801 -0.2950
  651MOL0     C87782   5.634   9.914   4.993 -0.8952  0.6077  0.3539
  651MOL0     C87783   5.773   9.886   4.965  0.0884  0.6920 -0.2752
  651MOL0     C87784   5.878   9.952   5.028  0.5640 -0.4688  0.0902
  651MOL0     O87785   5.999   9.924   4.985 -0.6393 -0.2850  0.3661
  651MOL0     C87786   6.120   9.970   5.048  0.1741  0.4626  0.1320
  651MOL0     C87787   6.157  10.110   5.008 -0.0064 -0.2262  0.5518
  651MOL0     C87788   6.250  10.165   5.110 -0.6012  0.4434  0.3006
  651MOL0     C87789   6.285  10.314   5.103 -0.0263 -0.3911  0.6246
  651MOL0     C87790   6.170  10.417   5.126  0.1083 -0.5947 -0.5848
  651MOL0     C87791   6.205  10.564   5.137  0.7790 -0.0797  0.3431
  651MOL0     C87792   6.104  10.674   5.122  0.4375  0.7345  0.0733
  651MOL0     C87793   6.071  10.701   4.971  0.0249  0.8884  0.4157
  651MOL0    Cl87794   5.989  10.854   4.961  0.1307  0.2054  0.0539
  651MOL0     C87795   5.846  10.033   5.144 -0.3061 -0.4109  0.5240
  651MOL0     C87796   5.706  10.062   5.158 -0.0547  0.3512  0.2672
  651MOL0     O87797   5.372  10.037   4.922 -0.2388  0.5789  0.0369
  651MOL0     C87798   5.259  10.206   5.214  0.0025  0.3142 -0.2717
  651MOL0     C87799   5.143  10.273   5.260 -0.6978  0.5126 -0.4759
  651MOL0     N87800   4.388  10.552   5.367 -0.3766  0.0214 -1.1557
  651MOL0     N87801   4.362  10.681   5.384 -0.2560  0.3813  0.2741
  651MOL0     C87802   3.552  11.015   4.892 -0.3675  0.8190 -0.3354
  651MOL0     C87803   3.427  11.075   4.859  0.3373  0.6398 -0.4984
  651MOL0     C87804   2.955  11.104   4.783  0.2047 -1.0455 -0.0432
  651MOL0     C87805   2.970  11.238   4.731  0.2160  0.5279 -0.9590
  651MOL0     C87806   2.866  11.327   4.723  0.1014 -0.1620 -0.7752
  651MOL0     C87807   2.736  11.295   4.757  0.0702 -0.1425  0.2308
  651MOL0     O87808   2.642  11.391   4.731  0.3576  0.6928 -0.0249
  651MOL0     C87809   2.509  11.367   4.790  0.4767 -0.3769  0.7771
  651MOL0     C87810   2.434  11.502   4.753 -0.2492 -0.6873 -0.7659
  651MOL0     C87811   2.474  11.624   4.845 -0.0075  0.1596 -0.2978
  651MOL0     C87812   2.435  11.762   4.776  0.7155 -0.0741  0.3501
  651MOL0     C87813   2.456  11.875   4.864 -0.0673  0.2747  0.3023
  651MOL0     C87814   2.488  11.956   4.949 -0.4620  0.3036 -0.0889
  651MOL0     C87815   2.716  11.169   4.807 -0.1337 -0.0115  0.2289
  651MOL0     C87816   2.817  11.075   4.816 -0.0845  0.5616 -0.0824
  651MOL0     C87817   2.769  10.945   4.867  0.0509 -0.8774  0.6820
  651MOL0     H87818   3.267  10.808   4.747 -0.1139 -0.0471  0.1299
  651MOL0     H87819   3.489  10.700   4.777 -0.7542 -0.3487  1.3939
  651MOL0     H87820   3.670  10.643   4.858 -1.3320  1.2908  2.3184
  651MOL0     H87821   3.769  10.712   4.727 -0.5316  0.4479 -0.3520
  651MOL0     H87822   3.943  10.767   4.905  1.6909 -1.0771 -1.6784
  651MOL0     H87823   3.910  10.595   4.874 -1.0706 -1.6173  2.2427
  651MOL0     H87824   3.750  10.600   5.061  0.1474 -0.5827 -1.9004
  651MOL0     H87825   3.815  10.762   5.113  0.4068  0.3938 -0.6533
  651MOL0     H87826   3.933  10.631   5.255 -2.6965 -0.6560 -0.8554
  651MOL0     H87827   3.970  10.501   5.145  1.8943  0.3565  0.9822
  651MOL0     H87828   4.168  10.618   5.179 -0.6041 -1.1316 -0.6471
  651MOL0     H87829   4.123  10.661   5.009 -0.1177  0.1984 -0.1288
  651MOL0     H87830   4.040  10.884   5.103  2.6034  3.3038  1.2902
  651MOL0     H87831   4.101  10.820   5.257 -2.4563 -0.8547  0.7213
  651MOL0     H87832   4.246  10.972   5.067  2.1985  0.6338 -0.1893
  651MOL0     H87833   4.286  10.802   5.029 -0.6083 -2.9693  1.7322
  651MOL0     H87834   4.448  10.924   5.192  0.4274  0.5967 -1.1037
  651MOL0     H87835   4.314  10.911   5.316  0.9485  0.6794 -0.5993
  651MOL0     H87836   4.472  10.665   5.078 -0.0291  0.8930  0.6972
  651MOL0     H87837   4.434  10.305   5.221  0.2916  0.4636 -0.4354
  651MOL0     H87838   4.461  10.398   5.077  0.5248  1.4756 -0.7035
  651MOL0     H87839   4.657  10.417   5.302 -0.4671 -1.1344  0.3105
  651MOL0     H87840   4.671  10.269   5.198 -1.8662 -1.0917  0.4690
  651MOL0     H87841   4.696  10.563   5.121  0.0369 -0.1432 -0.8570
  651MOL0     H87842   4.715  10.421   5.017 -0.7758  3.6792 -1.4707
  651MOL0     H87843   4.902  10.530   5.239 -0.6983  0.3436 -0.6753
  651MOL0     H87844   4.926  10.473   5.063 -1.4648 -1.3483 -1.4410
  651MOL0     H87845   4.922  10.225   5.012 -0.0368 -0.6004 -1.3228
  651MOL0     H87846   5.120  10.119   4.915  0.2320  0.2288 -0.5990
  651MOL0     H87847   5.561   9.861   4.933  2.1829 -2.4237 -1.0647
  651MOL0     H87848   5.798   9.827   4.878 -1.4569 -0.9909  0.3609
  651MOL0     H87849   6.120   9.956   5.156  1.0426 -1.9256 -0.1066
  651MOL0     H87850   6.203   9.906   5.015 -0.1556 -0.0688  0.3225
  651MOL0     H87851   6.196  10.118   4.906  0.0123 -0.4850  0.5385
  651MOL0     H87852   6.070  10.176   5.015 -0.5942 -0.8161 -0.7918
  651MOL0     H87853   6.218  10.140   5.212 -1.3567  1.2525  0.2723
  651MOL0     H87854   6.348  10.122   5.090 -0.9740  0.8098 -2.7722
  651MOL0     H87855   6.325  10.323   5.002 -1.0652 -2.4376 -0.0187
  651MOL0     H87856   6.364  10.348   5.171 -1.4772  1.3295  1.5642
  651MOL0     H87857   6.106  10.390   5.211  0.5908  0.9423  0.3083
  651MOL0     H87858   6.108  10.400   5.038 -1.6858 -0.7059  0.6440
  651MOL0     H87859   6.258  10.569   5.232  0.8515 -1.9749  0.4451
  651MOL0     H87860   6.287  10.570   5.065  1.2491 -1.4933  0.7370
  651MOL0     H87861   6.140  10.764   5.174  1.1927 -0.0175  0.8998
  651MOL0     H87862   6.021  10.628   5.177  1.4560 -2.3071 -0.7460
  651MOL0     H87863   6.157  10.687   4.905 -0.9500 -1.2171 -0.5241
  651MOL0     H87864   6.005  10.619   4.942  1.2356  0.5172 -1.5110
  651MOL0     H87865   5.929  10.080   5.196 -1.0788  0.3009  1.1324
  651MOL0     H87866   5.683  10.141   5.229  0.9684 -1.2752  2.5023
  651MOL0     H87867   5.353  10.203   5.268 -0.6094  2.3726  1.0216
  651MOL0     H87868   5.149  10.322   5.357  0.4858 -2.0912  0.8989
  651MOL0     H87869   3.631  11.077   4.934 -1.9251  0.7487  3.0194
  651MOL0     H87870   3.417  11.183   4.872 -0.0982  0.5889 -0.3845
  651MOL0     H87871   3.060  11.282   4.691  0.5845 -0.2565 -1.0207
  651MOL0     H87872   2.876  11.422   4.672 -1.0399 -0.2628 -1.2263
  651MOL0     H87873   2.513  11.335   4.894 -1.4307 -1.8654  0.4513
  651MOL0     H87874   2.455  11.290   4.734  0.6806  0.6105 -0.8511
  651MOL0     H87875   2.328  11.484   4.773 -0.2596 -0.4714 -0.6197
  651MOL0     H87876   2.455  11.534   4.651  0.8746  1.7917  0.1528
  651MOL0     H87877   2.581  11.619   4.868 -0.1144 -2.2140 -0.0042
  651MOL0     H87878   2.418  11.618   4.939 -2.4969 -3.7222 -1.7954
  651MOL0     H87879   2.492  11.780   4.685 -2.0764  0.1761 -1.4402
  651MOL0     H87880   2.331  11.771   4.743  1.5594 -0.9259 -2.8838
  651MOL0     H87881   2.516  12.036   5.014  2.3486 -1.0671  0.5045
  651MOL0     H87882   2.616  11.146   4.842  0.8369 -1.3741  2.3671
  651MOL0     H87883   2.659  10.936   4.869 -0.0653  0.3709  1.7905
  651MOL0     H87884   2.797  10.877   4.786 -2.3651 -0.4352 -0.6377
  651MOL0     H87885   2.815  10.920   4.963  0.5157  2.5038  1.4663
  652MOL0     O87886  10.556   6.278   3.112  0.4972  0.5577 -0.3229
  652MOL0     C87887  10.486   6.279   3.211  1.6628 -0.3646 -0.3713
  652MOL0     O87888  10.530   6.326   3.338 -0.9388 -0.2457  0.2144
  652MOL0     C87889  10.649   6.378   3.349  0.5006  0.0143 -0.0249
  652MOL0     C87890  10.766   6.297   3.351  1.0907 -0.1392  0.2349
  652MOL0     C87891  10.887   6.365   3.379 -0.3120 -0.3624  0.5624
  652MOL0     C87892  10.897   6.505   3.405  0.0233  1.4346 -0.1179
  652MOL0     O87893  11.026   6.548   3.421 -0.1435  0.0665 -0.3486
  652MOL0     C87894  11.057   6.686   3.425  0.0039  0.3270  0.3896
  652MOL0     C87895  11.199   6.691   3.388 -0.1483  0.1875  0.3355
  652MOL0     C87896  11.244   6.828   3.351 -0.6694  0.1730 -0.1925
  652MOL0     C87897  11.400   6.810   3.320 -0.0684 -0.2344  0.1012
  652MOL0     C87898  11.422   6.833   3.174 -0.2484 -0.2494  0.2661
  652MOL0     C87899  11.569   6.799   3.133 -0.0722  0.5039 -0.2353
  652MOL0     C87900  11.591   6.655   3.092 -0.1601 -0.3207  0.0614
  652MOL0     C87901  11.713   6.641   2.997  0.4529 -0.0846  0.3492
  652MOL0     N87902  11.844   6.690   3.053 -0.6261  0.9131 -0.1034
  652MOL0     C87903  11.940   6.599   3.098  0.9644  0.7256 -0.2474
  652MOL0     C87904  12.054   6.671   3.104 -1.0031 -0.5981  0.2587
  652MOL0     C87905  12.189   6.634   3.148  0.8473  0.8895  0.2080
  652MOL0     C87906  12.286   6.740   3.189 -0.2570 -0.3571 -0.2689
  652MOL0     C87907  12.371   6.797   3.072  0.3548 -0.5674  0.5943
  652MOL0     C87908  12.415   6.940   3.088  0.4317  0.2109 -1.2094
  652MOL0     O87909  12.448   6.968   3.221 -0.3806  0.1768  0.5644
  652MOL0     C87910  12.580   6.965   3.264  0.5020  0.6039 -0.1300
  652MOL0     C87911  12.602   6.987   3.403  1.5877 -0.4882 -0.5493
  652MOL0     C87912  12.732   6.993   3.468 -0.2650 -0.5806  1.0454
  652MOL0     C87913  12.849   6.973   3.392 -0.2179  0.4253  0.4329
  652MOL0     C87914  12.987   6.983   3.448  0.9572 -0.1786  0.2609
  652MOL0     O87915  12.997   6.961   3.586 -0.7638 -0.1518 -0.4537
  652MOL0     C87916  13.101   7.034   3.656  0.2323  0.5662  0.5519
  652MOL0     C87917  13.180   7.132   3.598 -1.3465  0.5266  0.0167
  652MOL0     C87918  13.276   7.212   3.672  0.8514 -0.4200  0.5471
  652MOL0     C87919  13.288   7.197   3.815 -0.2060  0.1010  0.5826
  652MOL0     O87920  13.371   7.271   3.896  0.2207 -0.2030 -0.2322
  652MOL0     C87921  13.495   7.317   3.841  0.6159 -0.9884  0.3955
  652MOL0     C87922  13.597   7.201   3.842  1.0074  0.4788 -0.4555
  652MOL0     C87923  13.736   7.252   3.789  0.4509 -0.4007  0.4437
  652MOL0     C87924  13.828   7.134   3.789  0.6832 -0.2634 -0.1017
  652MOL0     C87925  13.969   7.169   3.809  0.0497 -0.6611  0.9795
  652MOL0     C87926  14.024   7.254   3.693  0.0865 -0.3065  0.3788
  652MOL0     C87927  14.166   7.295   3.716  0.3154  0.7843 -0.3334
  652MOL0     C87928  14.200   7.383   3.590 -0.6311  0.5416  0.5162
  652MOL0    Cl87929  14.235   7.257   3.468  0.0563 -0.4979  0.1638
  652MOL0     C87930  13.211   7.093   3.866 -0.1315  0.5176 -0.3344
  652MOL0     C87931  13.115   7.014   3.796 -0.0346 -0.6189  0.0232
  652MOL0     O87932  13.078   6.974   3.363 -0.1801 -0.0957  0.2587
  652MOL0     C87933  12.828   6.952   3.248  0.0601 -0.2515 -0.1465
  652MOL0     C87934  12.697   6.944   3.189 -0.7337  0.2273 -0.8382
  652MOL0     N87935  12.032   6.796   3.043 -0.5426 -0.1321  0.2043
  652MOL0     N87936  11.906   6.799   3.003 -0.4426 -0.3294 -0.1441
  652MOL0     C87937  10.781   6.584   3.395 -0.8880  0.1989  0.5307
  652MOL0     C87938  10.658   6.520   3.360 -0.2873 -0.0548 -0.4157
  652MOL0     C87939  10.329   6.262   3.200 -0.9196  0.4981  0.1019
  652MOL0     C87940  10.250   6.269   3.321  0.7524  0.6608  0.5900
  652MOL0     C87941  10.107   6.273   3.318  0.0083 -0.9034  0.0288
  652MOL0     C87942  10.046   6.275   3.193 -0.0660 -0.8337  0.4376
  652MOL0     O87943   9.908   6.296   3.190  0.0004  1.1092 -0.3040
  652MOL0     C87944   9.831   6.316   3.307 -0.5402 -0.2414  0.0563
  652MOL0     C87945   9.685   6.360   3.283  0.1253  0.8880 -0.2789
  652MOL0     C87946   9.679   6.508   3.238  0.8088 -0.2620 -0.0787
  652MOL0     C87947   9.562   6.583   3.310 -0.0895  0.6461 -0.6536
  652MOL0     C87948   9.574   6.722   3.282  0.5059  0.4927 -0.5835
  652MOL0     C87949   9.560   6.849   3.272 -0.0257  0.8243 -0.7723
  652MOL0     C87950  10.123   6.266   3.074  0.6094  0.4109 -0.0179
  652MOL0     C87951  10.264   6.254   3.076  0.4495 -1.4157  0.0427
  652MOL0     C87952  10.327   6.243   2.938  0.2514 -0.3573 -0.2462
  652MOL0     H87953  10.762   6.193   3.321  2.1581  0.6632 -3.0876
  652MOL0     H87954  10.975   6.302   3.382  1.2566  1.7363  0.8257
  652MOL0     H87955  10.984   6.737   3.361  0.3357  0.9969  0.5380
  652MOL0     H87956  11.065   6.732   3.523  0.7522  1.9627 -0.3998
  652MOL0     H87957  11.221   6.617   3.310 -2.6542 -0.3227  0.0176
  652MOL0     H87958  11.247   6.641   3.473  0.8362 -0.4343 -0.5584
  652MOL0     H87959  11.233   6.905   3.429  2.5029  0.8160 -0.2192
  652MOL0     H87960  11.197   6.867   3.260 -1.2884  1.7407  0.7563
  652MOL0     H87961  11.460   6.888   3.367 -1.4688  0.8393  0.2011
  652MOL0     H87962  11.440   6.713   3.350  1.8407  0.0561 -1.3372
  652MOL0     H87963  11.356   6.766   3.117 -0.2479 -0.1536  0.1535
  652MOL0     H87964  11.399   6.936   3.148  2.4938 -0.1662 -2.4618
  652MOL0     H87965  11.601   6.864   3.052  0.3017 -0.8268 -1.1770
  652MOL0     H87966  11.633   6.824   3.218 -0.9570 -4.3809  2.2214
  652MOL0     H87967  11.504   6.616   3.038  0.9714 -1.6535 -0.8792
  652MOL0     H87968  11.609   6.592   3.180  0.4756  2.4129  2.0063
  652MOL0     H87969  11.723   6.533   2.982 -0.2248  0.1389 -2.1238
  652MOL0     H87970  11.688   6.693   2.905 -1.2369 -0.6977  0.4197
  652MOL0     H87971  11.919   6.496   3.125  0.7135  0.5927 -0.9471
  652MOL0     H87972  12.179   6.560   3.228 -1.6818  0.2496 -0.6114
  652MOL0     H87973  12.232   6.581   3.063  3.6801  2.4715  0.5251
  652MOL0     H87974  12.235   6.818   3.246 -3.2199 -1.1943 -1.6145
  652MOL0     H87975  12.355   6.704   3.266  0.4753  2.3418  0.4548
  652MOL0     H87976  12.326   6.796   2.973  0.8028 -1.3157  0.3856
  652MOL0     H87977  12.464   6.740   3.064  0.4981 -0.0655 -4.9850
  652MOL0     H87978  12.328   7.005   3.079  1.5807  2.1259  0.6728
  652MOL0     H87979  12.482   6.966   3.005  1.6514 -0.1765 -0.3815
  652MOL0     H87980  12.518   6.998   3.471  3.3679  0.9697  1.5901
  652MOL0     H87981  12.734   6.994   3.576  0.9509  0.3163  1.0365
  652MOL0     H87982  13.177   7.154   3.492 -1.1348  2.5719  0.3867
  652MOL0     H87983  13.313   7.285   3.601 -3.5794  1.7019  0.0719
  652MOL0     H87984  13.482   7.355   3.739  1.5101 -0.8302  0.3326
  652MOL0     H87985  13.533   7.402   3.899  0.2065 -0.1076 -0.5803
  652MOL0     H87986  13.611   7.163   3.943  2.5583  3.4855  0.5883
  652MOL0     H87987  13.558   7.115   3.787 -2.3989 -1.0089  3.6970
  652MOL0     H87988  13.742   7.291   3.687 -0.5950  2.7880  1.5017
  652MOL0     H87989  13.763   7.340   3.847 -2.0392  1.7577 -1.4372
  652MOL0     H87990  13.823   7.076   3.696  3.5611 -0.2672 -0.3551
  652MOL0     H87991  13.813   7.067   3.874 -0.1029  0.3955  0.2953
  652MOL0     H87992  14.032   7.081   3.827  0.5856  0.0861  3.0337
  652MOL0     H87993  13.978   7.223   3.904 -0.5124 -1.1990  1.3434
  652MOL0     H87994  14.026   7.183   3.609 -1.0562 -0.2522  0.2778
  652MOL0     H87995  13.962   7.339   3.661  1.5059  1.5637  2.3721
  652MOL0     H87996  14.226   7.205   3.730 -2.5521 -1.3682 -0.8429
  652MOL0     H87997  14.158   7.364   3.800 -3.6939  1.1837 -0.8329
  652MOL0     H87998  14.119   7.451   3.560 -0.5161 -1.2645 -5.1173
  652MOL0     H87999  14.292   7.437   3.611  0.3426 -1.6052  2.2462
  652MOL0     H88000  13.211   7.075   3.973  1.3919 -1.4676 -0.6140
  652MOL0     H88001  13.055   6.947   3.857 -0.6627 -1.6077 -1.6346
  652MOL0     H88002  12.914   6.944   3.182  0.3491 -2.3807  0.4068
  652MOL0     H88003  12.701   6.930   3.081 -1.5183  0.0562 -0.8483
  652MOL0     H88004  10.762   6.689   3.417 -1.1877 -0.2344  2.4906
  652MOL0     H88005  10.567   6.578   3.353  0.1036  0.3844 -2.8719
  652MOL0     H88006  10.292   6.274   3.421  1.3161 -0.4591  0.4240
  652MOL0     H88007  10.052   6.263   3.411 -1.1297 -1.6950 -0.6895
  652MOL0     H88008   9.870   6.407   3.354 -3.5530  1.1115  0.1827
  652MOL0     H88009   9.830   6.233   3.377  1.6963  0.9971  1.6724
  652MOL0     H88010   9.624   6.332   3.370 -0.6849  1.6924 -0.5693
  652MOL0     H88011   9.646   6.287   3.212  1.5371 -1.5357  1.2673
  652MOL0     H88012   9.650   6.515   3.133 -1.2416  2.2182  0.5607
  652MOL0     H88013   9.778   6.555   3.246  1.4992 -1.3244 -1.8510
  652MOL0     H88014   9.465   6.543   3.281 -0.1763  0.6500 -0.3712
  652MOL0     H88015   9.580   6.565   3.417  1.5549 -1.8988 -1.2602
  652MOL0     H88016   9.542   6.954   3.267  1.7255  1.1556 -1.0109
  652MOL0     H88017  10.063   6.265   2.984 -0.5003  0.7298  0.7043
  652MOL0     H88018  10.257   6.201   2.865  0.8198 -1.8721  0.0396
  652MOL0     H88019  10.371   6.341   2.919  5.2924 -2.1353  0.5825
  652MOL0     H88020  10.414   6.177   2.934  0.5623 -0.0340  0.8679
  653MOL0     O88021  11.305   9.067   2.629  0.6950  0.6234  0.5667
  653MOL0     C88022  11.356   8.952   2.625  0.3361 -0.7502 -0.1587
  653MOL0     O88023  11.445   8.909   2.714  0.0190 -0.0797  0.3200
  653MOL0     C88024  11.535   8.990   2.769 -0.0156  0.0108  0.5393
  653MOL0     C88025  11.659   8.987   2.701 -0.2637 -0.5323  0.1595
  653MOL0     C88026  11.760   9.079   2.736  0.2100  1.0124  0.3885
  653MOL0     C88027  11.746   9.156   2.860 -0.3075  0.9380 -0.4238
  653MOL0     O88028  11.838   9.230   2.919  0.3859 -0.1353 -0.0304
  653MOL0     C88029  11.974   9.192   2.891  0.7846  0.3454 -0.3885
  653MOL0     C88030  12.052   9.311   2.937  0.8004  0.9743  0.6359
  653MOL0     C88031  12.208   9.292   2.922  0.2879  0.0876  0.7328
  653MOL0     C88032  12.288   9.411   2.959  0.5886  0.0023 -0.0595
  653MOL0     C88033  12.439   9.407   2.952 -0.3207  0.1347  0.1749
  653MOL0     C88034  12.504   9.395   2.812 -0.1601  0.5234  0.3821
  653MOL0     C88035  12.652   9.351   2.803 -0.2758  0.0219 -0.1826
  653MOL0     C88036  12.760   9.439   2.875  0.8146 -1.0496  0.7657
  653MOL0     N88037  12.894   9.371   2.883  0.2003  0.4104  0.2534
  653MOL0     C88038  12.982   9.371   2.779  1.6697  0.1179  0.4602
  653MOL0     C88039  13.095   9.338   2.831 -1.2205  0.9043  0.2510
  653MOL0     C88040  13.231   9.340   2.770 -0.2806  0.1923 -0.3294
  653MOL0     C88041  13.333   9.242   2.836 -0.3521 -0.7539  0.3516
  653MOL0     C88042  13.479   9.246   2.772  0.6697 -0.2660 -0.7505
  653MOL0     C88043  13.469   9.211   2.625 -0.7003 -0.9255  0.7509
  653MOL0     O88044  13.591   9.207   2.554 -0.0813 -0.1975  0.1636
  653MOL0     C88045  13.586   9.183   2.422 -0.0400 -0.3385  0.0204
  653MOL0     C88046  13.711   9.196   2.354  0.7657 -0.5704  0.0922
  653MOL0     C88047  13.720   9.157   2.223 -0.7812  1.0848  0.5380
  653MOL0     C88048  13.615   9.100   2.152  0.0684 -0.0786  0.3100
  653MOL0     C88049  13.638   9.058   2.010 -0.4698 -0.3684 -0.0454
  653MOL0     O88050  13.769   9.037   1.960 -1.3505  0.6781 -0.7070
  653MOL0     C88051  13.815   9.036   1.827 -0.2574  0.4465 -0.5929
  653MOL0     C88052  13.924   8.957   1.782 -0.2791 -0.6885 -0.5604
  653MOL0     C88053  13.990   8.990   1.658  0.0303  0.6162 -0.6857
  653MOL0     C88054  13.945   9.087   1.567  0.1666  0.0920 -1.0831
  653MOL0     O88055  14.002   9.119   1.453 -0.3015 -0.0460  0.6538
  653MOL0     C88056  14.017   9.012   1.359 -0.0325  0.3123 -0.3829
  653MOL0     C88057  14.002   9.055   1.216 -0.8963  0.3359 -0.6323
  653MOL0     C88058  13.993   8.944   1.108 -1.1454  0.7231  0.5126
  653MOL0     C88059  14.042   9.020   0.974  0.8249  0.2769 -0.1810
  653MOL0     C88060  14.201   9.017   0.958 -0.0504  0.1235 -0.1074
  653MOL0     C88061  14.258   8.874   0.949 -0.5161  0.1041  0.0399
  653MOL0     C88062  14.187   8.781   0.852 -0.3201  0.0486  0.0146
  653MOL0     C88063  14.271   8.644   0.826  0.8610 -0.8013 -0.4155
  653MOL0    Cl88064  14.423   8.688   0.749 -0.1366 -0.3463  0.0118
  653MOL0     C88065  13.835   9.158   1.606 -0.5576  0.9739 -0.3803
  653MOL0     C88066  13.771   9.135   1.736 -0.2151 -0.3671  0.0883
  653MOL0     O88067  13.535   9.040   1.945 -0.0920 -0.1030 -0.3856
  653MOL0     C88068  13.491   9.098   2.211  0.2509 -1.4525 -0.5494
  653MOL0     C88069  13.472   9.138   2.352 -0.6185 -0.4146 -0.0656
  653MOL0     N88070  13.076   9.325   2.966  0.8885 -1.2513 -0.1308
  653MOL0     N88071  12.958   9.353   3.003  0.5814  0.6492  0.0678
  653MOL0     C88072  11.625   9.145   2.923  0.1828 -0.3760 -0.6763
  653MOL0     C88073  11.516   9.070   2.880  0.0175 -0.8729  0.5449
  653MOL0     C88074  11.289   8.850   2.534 -1.0734  0.7785  0.6974
  653MOL0     C88075  11.173   8.897   2.464  0.2202  0.3588 -0.5298
  653MOL0     C88076  11.086   8.804   2.400  0.9103 -0.1710 -0.7052
  653MOL0     C88077  11.126   8.668   2.385  0.4235 -0.3687 -0.7016
  653MOL0     O88078  11.070   8.564   2.322 -0.3912 -0.1760  0.8284
  653MOL0     C88079  10.950   8.593   2.238 -0.3454 -0.8903  0.1821
  653MOL0     C88080  10.828   8.587   2.328  0.0260 -0.6375  0.3747
  653MOL0     C88081  10.805   8.451   2.394 -0.0851  0.2149 -0.2086
  653MOL0     C88082  10.657   8.443   2.436  0.7768  0.0238 -0.0467
  653MOL0     C88083  10.563   8.442   2.321  0.4289 -0.0408  0.1902
  653MOL0     C88084  10.490   8.450   2.224 -0.3774 -0.7805  0.1484
  653MOL0     C88085  11.248   8.629   2.442  0.6994  0.6485 -0.1193
  653MOL0     C88086  11.330   8.715   2.512 -0.9255 -0.6000  0.2750
  653MOL0     C88087  11.460   8.667   2.560 -0.3779 -0.3016 -0.1459
  653MOL0     H88088  11.669   8.918   2.618  1.8563 -0.0978  0.0084
  653MOL0     H88089  11.845   9.088   2.670  0.0425 -1.3975 -0.2577
  653MOL0     H88090  12.004   9.108   2.954  1.4963 -0.6056 -1.9393
  653MOL0     H88091  11.996   9.166   2.787  3.0144 -0.5886  0.2515
  653MOL0     H88092  12.011   9.334   3.036 -0.1780  0.1327  0.4384
  653MOL0     H88093  12.014   9.394   2.878 -1.2155  2.0408  3.2250
  653MOL0     H88094  12.240   9.272   2.819  2.3735  1.3926  1.0598
  653MOL0     H88095  12.228   9.199   2.975 -0.0672 -1.4468 -1.6643
  653MOL0     H88096  12.249   9.493   2.897  0.0704 -1.2728 -1.4854
  653MOL0     H88097  12.261   9.431   3.063  2.4528 -2.6901  1.0441
  653MOL0     H88098  12.487   9.489   3.007 -0.2927  0.8761 -0.9232
  653MOL0     H88099  12.462   9.319   3.013 -0.1089 -0.8536 -1.2827
  653MOL0     H88100  12.449   9.323   2.752  1.1975 -1.3969  1.3462
  653MOL0     H88101  12.492   9.494   2.766  1.7637  0.7628  0.3106
  653MOL0     H88102  12.669   9.352   2.695 -2.6785 -1.5499 -0.6639
  653MOL0     H88103  12.658   9.250   2.845 -0.1031 -0.7170 -1.9024
  653MOL0     H88104  12.767   9.533   2.819 -4.0357  0.4303  2.1833
  653MOL0     H88105  12.737   9.464   2.979  2.1935 -0.0687  0.8681
  653MOL0     H88106  12.953   9.397   2.678  0.6351 -0.7764  0.5113
  653MOL0     H88107  13.211   9.315   2.665  1.2728  1.9626 -1.1184
  653MOL0     H88108  13.266   9.443   2.756  0.2666  0.0956  0.2756
  653MOL0     H88109  13.341   9.262   2.943 -1.2270  0.0610  0.2802
  653MOL0     H88110  13.300   9.137   2.841  2.9164 -1.9551 -0.8734
  653MOL0     H88111  13.532   9.173   2.833  0.5711  0.2171 -0.0721
  653MOL0     H88112  13.532   9.341   2.786  3.1276 -1.6110 -0.3006
  653MOL0     H88113  13.411   9.291   2.578  2.1682  0.7261 -0.2200
  653MOL0     H88114  13.410   9.122   2.603 -2.2016  0.5163 -1.3687
  653MOL0     H88115  13.793   9.243   2.407 -0.3231  2.0443 -0.4068
  653MOL0     H88116  13.814   9.164   2.169 -2.4765 -1.4210 -3.1709
  653MOL0     H88117  13.964   8.872   1.836 -1.6155 -2.0818 -1.7164
  653MOL0     H88118  14.084   8.949   1.624 -0.1441  2.0721 -3.2038
  653MOL0     H88119  14.108   8.955   1.379 -0.3903  0.2485  1.1977
  653MOL0     H88120  13.926   8.953   1.373 -0.7084  0.1995 -4.0718
  653MOL0     H88121  13.910   9.113   1.212 -2.2963 -1.6602  0.9040
  653MOL0     H88122  14.095   9.112   1.202  0.6340 -1.7246  0.6324
  653MOL0     H88123  14.063   8.863   1.127  0.7278  2.5281  1.7111
  653MOL0     H88124  13.886   8.922   1.103 -0.7451 -1.1927 -2.6981
  653MOL0     H88125  14.005   9.123   0.964 -3.6594 -1.3867 -4.2359
  653MOL0     H88126  13.999   8.974   0.884  2.7746  1.2835 -1.7146
  653MOL0     H88127  14.249   9.070   1.041 -0.7769 -1.0738  1.1186
  653MOL0     H88128  14.239   9.063   0.866  4.0073  1.5341  2.0112
  653MOL0     H88129  14.363   8.884   0.920 -0.6871  3.0898  0.1430
  653MOL0     H88130  14.251   8.824   1.046  2.4879 -2.3993 -0.8483
  653MOL0     H88131  14.183   8.834   0.756 -1.3506 -1.9864 -1.1164
  653MOL0     H88132  14.088   8.753   0.890  0.0863 -0.0051  1.0758
  653MOL0     H88133  14.289   8.578   0.912 -1.4053 -1.1886 -0.1775
  653MOL0     H88134  14.228   8.576   0.752  1.7389  0.7039 -2.3958
  653MOL0     H88135  13.785   9.223   1.535 -0.3055  1.7780  0.1583
  653MOL0     H88136  13.684   9.197   1.752  0.4127  0.2067  1.4949
  653MOL0     H88137  13.399   9.080   2.155  0.9463  2.0878 -3.1934
  653MOL0     H88138  13.382   9.152   2.411  1.4222  0.6218  3.0830
  653MOL0     H88139  11.623   9.218   3.003  0.2566  0.9816 -1.8767
  653MOL0     H88140  11.422   9.087   2.930  0.3420 -0.2537  0.9548
  653MOL0     H88141  11.148   9.002   2.470 -1.0007  0.0141  1.6594
  653MOL0     H88142  10.993   8.846   2.362 -1.6444 -1.1149  3.7895
  653MOL0     H88143  10.941   8.524   2.154  1.6643  2.9872 -3.5708
  653MOL0     H88144  10.957   8.690   2.188 -1.4003 -0.1249  1.4600
  653MOL0     H88145  10.746   8.627   2.268  0.7989  0.5961  0.1040
  653MOL0     H88146  10.835   8.661   2.407 -2.9902  1.4832 -1.1563
  653MOL0     H88147  10.868   8.453   2.483 -0.1233 -3.6219  0.1039
  653MOL0     H88148  10.827   8.357   2.342  0.1255  0.4817 -0.6039
  653MOL0     H88149  10.642   8.351   2.493 -2.0531  0.0000 -0.6778
  653MOL0     H88150  10.634   8.529   2.500  1.3227 -0.1389  0.3797
  653MOL0     H88151  10.418   8.456   2.145 -1.3576 -1.3618  0.9648
  653MOL0     H88152  11.277   8.528   2.414  0.1698  1.5655 -4.6934
  653MOL0     H88153  11.461   8.667   2.670  1.7901  1.1487 -0.0966
  653MOL0     H88154  11.475   8.563   2.529 -0.1506  0.0093 -1.0888
  653MOL0     H88155  11.538   8.729   2.514 -1.0607 -0.5224 -1.6213
  654MOL0     O88156   5.647   9.898   6.420  0.3393  0.9183 -0.1870
  654MOL0     C88157   5.652  10.014   6.396 -0.5404  0.1285 -0.6091
  654MOL0     O88158   5.773  10.079   6.387  0.3348 -0.1049  0.1739
  654MOL0     C88159   5.887  10.007   6.386  0.2449  0.0182 -0.1384
  654MOL0     C88160   5.947   9.987   6.267 -0.5893 -0.1824  0.8199
  654MOL0     C88161   6.061   9.901   6.256 -0.7183 -0.1071 -0.3153
  654MOL0     C88162   6.109   9.841   6.368  0.0315 -0.8551  0.3642
  654MOL0     O88163   6.219   9.759   6.357  0.4113  0.0285  0.2845
  654MOL0     C88164   6.197   9.624   6.303 -0.2752  0.6104 -0.1680
  654MOL0     C88165   6.296   9.542   6.382 -0.0821  0.1997 -0.4117
  654MOL0     C88166   6.449   9.571   6.338  0.1511  0.0132 -0.2687
  654MOL0     C88167   6.556   9.490   6.402  0.4823  0.5500 -0.3129
  654MOL0     C88168   6.692   9.539   6.353  0.5886  0.0552  0.1061
  654MOL0     C88169   6.803   9.445   6.411 -0.3424 -1.1956 -0.2115
  654MOL0     C88170   6.940   9.492   6.363 -0.6178  0.1158 -0.0224
  654MOL0     C88171   7.051   9.389   6.416  0.8879 -0.2470  0.7923
  654MOL0     N88172   7.183   9.424   6.367 -0.2076  0.2334 -0.4828
  654MOL0     C88173   7.223   9.410   6.234 -0.7185  0.1492  0.0793
  654MOL0     C88174   7.352   9.459   6.231 -0.4392 -0.5951  0.0072
  654MOL0     C88175   7.439   9.451   6.107  0.4004  0.7029  0.6285
  654MOL0     C88176   7.475   9.310   6.052  0.5808  0.2615  0.1360
  654MOL0     C88177   7.521   9.310   5.902  0.1140 -0.2027  0.6569
  654MOL0     C88178   7.673   9.280   5.888  0.0441  0.3022 -0.4757
  654MOL0     O88179   7.742   9.409   5.894 -0.2226  0.5680 -0.7115
  654MOL0     C88180   7.866   9.415   5.937 -0.7428  0.6367 -0.1767
  654MOL0     C88181   7.898   9.495   6.044  0.5082  0.0472 -0.1757
  654MOL0     C88182   8.033   9.501   6.086 -0.5063  0.8051 -0.9297
  654MOL0     C88183   8.135   9.421   6.028  0.4344 -0.0541  0.2427
  654MOL0     C88184   8.275   9.448   6.047  0.1050 -0.3001  0.7027
  654MOL0     O88185   8.300   9.548   6.135  0.4079 -0.3152  0.1785
  654MOL0     C88186   8.428   9.599   6.146  0.1633  0.1751  0.5775
  654MOL0     C88187   8.461   9.655   6.271 -0.2485 -1.0282 -0.4305
  654MOL0     C88188   8.587   9.707   6.300 -0.5852  0.3233  0.2391
  654MOL0     C88189   8.682   9.715   6.204  0.5596 -0.4996  1.0774
  654MOL0     O88190   8.793   9.792   6.244  0.4092 -0.0376 -0.8331
  654MOL0     C88191   8.869   9.857   6.140 -0.2667 -0.2070 -0.2797
  654MOL0     C88192   9.021   9.847   6.166 -0.8157  0.8330  0.3748
  654MOL0     C88193   9.061   9.703   6.156 -0.0093 -0.2266  0.3578
  654MOL0     C88194   9.226   9.692   6.182  0.5618 -0.0895 -0.6916
  654MOL0     C88195   9.267   9.550   6.142 -0.5415  0.8094  0.0971
  654MOL0     C88196   9.418   9.545   6.152 -0.5381 -0.5659  0.7954
  654MOL0     C88197   9.487   9.563   6.287  0.6927 -0.6929  0.3496
  654MOL0     C88198   9.634   9.515   6.291  0.4653 -0.5751  0.0702
  654MOL0    Cl88199   9.648   9.340   6.270 -0.5293  0.0989 -0.6831
  654MOL0     C88200   8.644   9.670   6.080 -0.1961  0.1987  0.1936
  654MOL0     C88201   8.522   9.606   6.047 -0.1011  0.2589 -0.2680
  654MOL0     O88202   8.357   9.381   5.988  0.2823 -0.0011 -0.5257
  654MOL0     C88203   8.097   9.328   5.940 -0.1301  0.7559 -0.6692
  654MOL0     C88204   7.969   9.327   5.892 -0.2109  0.1323 -0.2974
  654MOL0     N88205   7.387   9.504   6.356 -0.3404 -0.4540 -0.7156
  654MOL0     N88206   7.285   9.484   6.434  0.2978 -0.3690  0.4704
  654MOL0     C88207   6.061   9.882   6.495 -0.4904  0.2882 -0.8855
  654MOL0     C88208   5.944   9.958   6.503 -0.5990 -0.0431 -0.3644
  654MOL0     C88209   5.529  10.106   6.408 -0.4699  0.8933  0.3159
  654MOL0     C88210   5.543  10.251   6.404 -0.1280 -0.8082 -0.7321
  654MOL0     C88211   5.440  10.337   6.419  0.3861  0.3492 -0.0079
  654MOL0     C88212   5.313  10.287   6.444 -0.2112 -0.0879  0.2635
  654MOL0     O88213   5.213  10.386   6.461 -0.5142  0.5327 -0.1857
  654MOL0     C88214   5.086  10.340   6.499 -0.6424  0.0355  0.0102
  654MOL0     C88215   4.995  10.471   6.505  0.0355  0.2288  0.7246
  654MOL0     C88216   4.860  10.463   6.577 -0.1647  0.5591 -0.0679
  654MOL0     C88217   4.790  10.596   6.576  0.7718 -0.7643  0.3375
  654MOL0     C88218   4.653  10.591   6.620 -0.3243 -0.3170  0.6534
  654MOL0     C88219   4.535  10.577   6.651 -0.2990 -0.1816 -1.0971
  654MOL0     C88220   5.291  10.146   6.436 -0.2807 -0.4998 -0.3258
  654MOL0     C88221   5.395  10.055   6.413  0.4768 -0.3009  0.4408
  654MOL0     C88222   5.358   9.915   6.389  0.3354 -0.1649 -0.0170
  654MOL0     H88223   5.892  10.027   6.182  0.5404  0.4601  0.3571
  654MOL0     H88224   6.119   9.891   6.165  0.0754  2.6635 -0.1951
  654MOL0     H88225   6.093   9.591   6.304  0.4746 -2.1224 -0.9504
  654MOL0     H88226   6.232   9.610   6.200 -0.2182  0.2267 -0.1000
  654MOL0     H88227   6.279   9.437   6.357  1.1488  0.2941 -1.7725
  654MOL0     H88228   6.284   9.560   6.489 -1.0400 -2.9039  0.1046
  654MOL0     H88229   6.479   9.676   6.347  1.9001 -0.5597  1.3464
  654MOL0     H88230   6.440   9.543   6.233 -2.1294 -1.4577  0.2552
  654MOL0     H88231   6.542   9.503   6.510 -2.0421  2.9035 -0.8170
  654MOL0     H88232   6.526   9.388   6.377 -0.6623  0.6806  0.4167
  654MOL0     H88233   6.695   9.521   6.245 -1.0018 -1.5176  0.2607
  654MOL0     H88234   6.714   9.641   6.384 -0.2600  0.9369 -2.0221
  654MOL0     H88235   6.803   9.450   6.521  0.8887 -2.0932 -0.1433
  654MOL0     H88236   6.785   9.341   6.383  1.0724 -1.4143 -0.3950
  654MOL0     H88237   6.967   9.596   6.381  1.2541 -0.1293 -1.0901
  654MOL0     H88238   6.934   9.474   6.255 -0.1323 -1.0173  0.1172
  654MOL0     H88239   7.042   9.399   6.524 -2.5863  1.3983  0.4629
  654MOL0     H88240   7.013   9.291   6.386  3.6839 -1.2703  0.2230
  654MOL0     H88241   7.178   9.367   6.144  0.9878  0.2780 -0.8763
  654MOL0     H88242   7.388   9.511   6.032  1.9213  1.0753 -0.1627
  654MOL0     H88243   7.537   9.495   6.129  1.8434 -2.4456  1.2402
  654MOL0     H88244   7.552   9.264   6.114  2.6900  2.1371 -0.9522
  654MOL0     H88245   7.388   9.243   6.052 -0.7660  1.8797  2.1825
  654MOL0     H88246   7.505   9.407   5.854  0.2871 -1.2147 -1.5876
  654MOL0     H88247   7.471   9.229   5.849  3.7940 -1.3813 -1.3567
  654MOL0     H88248   7.700   9.248   5.787 -0.5807 -1.8750 -0.0089
  654MOL0     H88249   7.725   9.208   5.953  0.6751  0.1783 -1.1068
  654MOL0     H88250   7.822   9.547   6.102  1.5573  0.0124  1.3036
  654MOL0     H88251   8.055   9.575   6.162  2.2114 -4.7556  4.7045
  654MOL0     H88252   8.389   9.656   6.352 -0.2507 -2.3240 -0.3940
  654MOL0     H88253   8.606   9.744   6.401  1.8977 -0.9776  0.3031
  654MOL0     H88254   8.853   9.828   6.035 -0.1461  1.4070 -0.7771
  654MOL0     H88255   8.853   9.965   6.145  0.9535  0.0010 -0.3754
  654MOL0     H88256   9.074   9.901   6.087  1.6041 -0.3847  1.0530
  654MOL0     H88257   9.042   9.882   6.268 -3.6053  2.7107  0.4228
  654MOL0     H88258   9.007   9.648   6.233  1.7436  0.0078  1.8299
  654MOL0     H88259   9.032   9.668   6.056 -0.6322  1.9798 -0.2880
  654MOL0     H88260   9.236   9.708   6.289 -3.5599 -6.0704  1.1550
  654MOL0     H88261   9.279   9.765   6.121  1.8811 -0.4355  0.0107
  654MOL0     H88262   9.229   9.533   6.041  0.4528  1.7413 -0.4440
  654MOL0     H88263   9.232   9.477   6.216  1.9290  0.2301  0.7923
  654MOL0     H88264   9.453   9.457   6.098  1.7741  0.3022  0.7689
  654MOL0     H88265   9.442   9.640   6.105 -2.1899 -0.2874  0.4287
  654MOL0     H88266   9.425   9.514   6.364  0.2360  0.4046  0.6905
  654MOL0     H88267   9.490   9.669   6.311  3.0952 -0.6967  0.2788
  654MOL0     H88268   9.690   9.570   6.215  2.5066 -3.7877 -0.9341
  654MOL0     H88269   9.677   9.524   6.391  0.3596 -2.3339  0.2966
  654MOL0     H88270   8.718   9.683   6.001 -1.4242 -1.8230 -1.3777
  654MOL0     H88271   8.504   9.573   5.946 -1.4598 -1.9585  0.6335
  654MOL0     H88272   8.167   9.261   5.891 -0.5618 -0.3116  0.1364
  654MOL0     H88273   7.935   9.253   5.821  2.2861  0.4120 -1.9129
  654MOL0     H88274   6.099   9.836   6.586 -5.2835 -0.6069  0.9888
  654MOL0     H88275   5.890   9.974   6.595 -0.9591  2.2812 -0.9180
  654MOL0     H88276   5.636  10.296   6.373 -0.6728  1.8426  1.1848
  654MOL0     H88277   5.459  10.443   6.407  0.2940  0.4848  1.0179
  654MOL0     H88278   5.077  10.279   6.589 -3.0141  3.0402  2.0117
  654MOL0     H88279   5.042  10.285   6.415 -0.7107 -1.2469  0.8581
  654MOL0     H88280   4.973  10.500   6.402 -0.9011 -0.2354  0.7809
  654MOL0     H88281   5.060  10.547   6.550 -0.1348  1.2525 -0.6971
  654MOL0     H88282   4.880  10.430   6.680 -0.1576  0.5664 -0.0666
  654MOL0     H88283   4.806  10.392   6.515 -0.1453 -0.1907  0.7468
  654MOL0     H88284   4.842  10.662   6.646  1.2567  0.6075 -1.2320
  654MOL0     H88285   4.787  10.651   6.481 -0.4577  1.0506  1.3851
  654MOL0     H88286   4.432  10.555   6.670 -0.5161 -0.1442 -2.1774
  654MOL0     H88287   5.190  10.107   6.449  0.7171 -2.9073  0.9899
  654MOL0     H88288   5.402   9.866   6.476  1.5805  3.5467  1.6905
  654MOL0     H88289   5.250   9.901   6.387  0.2862  0.1760  0.1604
  654MOL0     H88290   5.406   9.871   6.301  4.1549  1.5575  1.0103
  655MOL0     O88291   2.526   4.576   2.284 -0.6404  0.0411  0.0333
  655MOL0     C88292   2.598   4.603   2.185  0.6196  0.1707  0.2629
  655MOL0     O88293   2.551   4.677   2.080 -0.0721  0.4482 -0.2629
  655MOL0     C88294   2.409   4.709   2.073 -0.2071 -0.0880  0.6124
  655MOL0     C88295   2.381   4.823   1.997  0.0622 -0.4792  0.0515
  655MOL0     C88296   2.247   4.861   1.994 -0.1950  0.0467  1.3172
  655MOL0     C88297   2.141   4.782   2.049  0.3473  0.5645  0.7734
  655MOL0     O88298   2.013   4.834   2.039  0.1445 -0.8199 -0.0081
  655MOL0     C88299   1.912   4.779   2.122 -0.1529 -0.1438 -0.5336
  655MOL0     C88300   1.796   4.887   2.125  0.0381  1.0141 -0.4055
  655MOL0     C88301   1.665   4.827   2.159 -1.2105 -0.0377 -0.6416
  655MOL0     C88302   1.566   4.940   2.198  0.1871 -0.0303  0.4290
  655MOL0     C88303   1.428   4.877   2.212  1.0633 -0.7728  0.2397
  655MOL0     C88304   1.321   4.994   2.233 -0.0853 -0.2651 -0.1274
  655MOL0     C88305   1.185   4.935   2.242  0.2231 -0.4763 -0.2045
  655MOL0     C88306   1.074   5.038   2.231 -0.2748  0.5282 -0.9823
  655MOL0     N88307   0.935   4.976   2.250  0.6227 -0.1627  0.1196
  655MOL0     C88308   0.857   4.995   2.362  0.1681 -0.9919 -0.3138
  655MOL0     C88309   0.744   4.940   2.332 -0.3827  0.4228  0.2312
  655MOL0     C88310   0.626   4.936   2.421  0.2347 -0.5506  0.3900
  655MOL0     C88311   0.583   4.789   2.436 -0.0236  1.2024 -0.0662
  655MOL0     C88312   0.668   4.692   2.526 -0.2158  0.0810  1.1709
  655MOL0     C88313   0.686   4.753   2.664 -0.0754 -0.1871 -0.8782
  655MOL0     O88314   0.813   4.823   2.678 -0.5744 -0.2168  0.2982
  655MOL0     C88315   0.905   4.753   2.742  0.4823  0.1635  0.4868
  655MOL0     C88316   0.886   4.723   2.876 -0.4424 -0.1827 -0.3642
  655MOL0     C88317   0.977   4.640   2.941  0.5765 -0.8437  0.0154
  655MOL0     C88318   1.104   4.616   2.883 -0.2631  0.1446  0.0671
  655MOL0     C88319   1.213   4.562   2.961 -0.5329 -0.1586 -0.5768
  655MOL0     O88320   1.318   4.524   2.894  0.2205  0.0445 -0.0675
  655MOL0     C88321   1.415   4.441   2.940  1.2925 -0.2156 -0.1136
  655MOL0     C88322   1.477   4.468   3.067  0.2697  0.4909  0.6505
  655MOL0     C88323   1.558   4.377   3.122  0.1309 -1.4881  0.5237
  655MOL0     C88324   1.569   4.250   3.065 -0.1614  0.0769 -0.7310
  655MOL0     O88325   1.646   4.153   3.122 -0.6530 -0.3083 -0.0027
  655MOL0     C88326   1.786   4.191   3.152 -0.1982 -0.4348 -0.1617
  655MOL0     C88327   1.853   4.063   3.196 -0.5629  0.4682 -0.2559
  655MOL0     C88328   1.987   4.087   3.258 -0.5661 -0.3392  0.1471
  655MOL0     C88329   2.060   3.963   3.292  0.3344  1.1729 -0.3536
  655MOL0     C88330   2.019   3.883   3.421 -0.3591  0.6754 -0.2517
  655MOL0     C88331   2.078   3.946   3.548 -0.6010  0.2690 -0.7234
  655MOL0     C88332   2.012   3.872   3.676  0.1303 -0.9485 -0.1748
  655MOL0     C88333   2.114   3.896   3.788 -0.0595  0.3728 -0.4559
  655MOL0    Cl88334   2.270   3.813   3.760  0.2083  0.1784 -0.3379
  655MOL0     C88335   1.504   4.218   2.950  0.2837 -1.1837  0.6161
  655MOL0     C88336   1.431   4.314   2.882  0.8101  0.4310  0.1164
  655MOL0     O88337   1.203   4.557   3.085 -0.0815 -0.0481  0.6693
  655MOL0     C88338   1.109   4.629   2.744  0.2230  0.3393  0.8794
  655MOL0     C88339   1.019   4.712   2.671  0.0453  0.1872 -0.4663
  655MOL0     N88340   0.738   4.905   2.198 -0.6182 -0.0339  0.0221
  655MOL0     N88341   0.856   4.917   2.152 -1.1139 -0.0399 -0.4226
  655MOL0     C88342   2.171   4.655   2.103 -0.0318 -0.3589  0.4889
  655MOL0     C88343   2.304   4.624   2.116  0.3812 -0.6435 -0.6423
  655MOL0     C88344   2.743   4.570   2.198  0.6858 -0.5166 -0.1846
  655MOL0     C88345   2.828   4.660   2.137 -0.0128  0.1902 -0.9396
  655MOL0     C88346   2.958   4.648   2.153 -0.6030 -0.5239  0.5268
  655MOL0     C88347   3.019   4.550   2.236  0.3787  0.1249 -0.2746
  655MOL0     O88348   3.156   4.563   2.247  0.0534 -0.3586 -0.3530
  655MOL0     C88349   3.226   4.473   2.328  0.0373 -0.8601 -0.6046
  655MOL0     C88350   3.376   4.469   2.293  0.1192  0.7421 -1.2322
  655MOL0     C88351   3.468   4.595   2.310 -0.1042 -0.0049  0.9858
  655MOL0     C88352   3.488   4.650   2.457  0.6710 -0.5578 -0.3738
  655MOL0     C88353   3.460   4.563   2.572  0.8861 -0.6148  0.0935
  655MOL0     C88354   3.452   4.498   2.672 -0.3267  0.1330 -1.2926
  655MOL0     C88355   2.938   4.462   2.306  0.1654 -1.0076  0.2086
  655MOL0     C88356   2.793   4.473   2.290 -0.4682  0.1429 -0.2669
  655MOL0     C88357   2.710   4.369   2.366 -1.4880 -0.0027 -0.2009
  655MOL0     H88358   2.447   4.884   1.937  0.0243 -0.2292  0.2614
  655MOL0     H88359   2.218   4.948   1.936  1.0469 -2.5872 -3.8925
  655MOL0     H88360   1.874   4.687   2.077  1.4470 -1.1322  0.0550
  655MOL0     H88361   1.942   4.759   2.225 -3.1746 -3.7174 -0.1340
  655MOL0     H88362   1.787   4.935   2.028  0.4426 -0.7540 -1.3510
  655MOL0     H88363   1.814   4.974   2.189 -0.8396  2.1745 -1.6783
  655MOL0     H88364   1.686   4.759   2.242 -0.5681 -0.6556 -1.3034
  655MOL0     H88365   1.628   4.777   2.069  0.7942  0.8263 -2.0246
  655MOL0     H88366   1.601   5.008   2.277  0.4260  2.0721 -1.3725
  655MOL0     H88367   1.561   5.011   2.115  0.8587 -0.9944 -0.4482
  655MOL0     H88368   1.407   4.822   2.120  2.2981 -2.4860  0.9266
  655MOL0     H88369   1.430   4.802   2.291  2.2996  0.1454  1.1197
  655MOL0     H88370   1.347   5.038   2.330 -1.4691 -1.7123  0.9623
  655MOL0     H88371   1.324   5.068   2.153 -1.1626 -1.7161 -1.5954
  655MOL0     H88372   1.184   4.874   2.333  2.6334 -0.1977  0.0780
  655MOL0     H88373   1.171   4.871   2.154  2.9420  2.0739 -2.7348
  655MOL0     H88374   1.102   5.109   2.309  0.8947 -1.4158  0.4859
  655MOL0     H88375   1.082   5.088   2.135 -0.9751 -2.3099 -2.6434
  655MOL0     H88376   0.889   5.040   2.456 -2.9628  3.2428 -0.9890
  655MOL0     H88377   0.657   4.976   2.518 -0.2184 -1.0837  0.7627
  655MOL0     H88378   0.556   5.003   2.371  2.2886  1.7518  0.4302
  655MOL0     H88379   0.477   4.781   2.464 -0.6312  1.8490 -2.0265
  655MOL0     H88380   0.580   4.744   2.336  0.3592  5.1204 -2.0377
  655MOL0     H88381   0.756   4.654   2.473 -1.5665 -2.8355  0.8342
  655MOL0     H88382   0.619   4.597   2.547  0.9920 -0.3596  2.0989
  655MOL0     H88383   0.668   4.681   2.744  1.0054 -1.6046 -1.8575
  655MOL0     H88384   0.602   4.816   2.694  1.2566  0.4256  1.8059
  655MOL0     H88385   0.803   4.758   2.937  0.0132  0.9022 -0.3539
  655MOL0     H88386   0.965   4.614   3.046  2.2573  3.6172  1.5542
  655MOL0     H88387   1.465   4.564   3.116  2.6397  0.9183  0.5188
  655MOL0     H88388   1.609   4.404   3.214  1.5077 -1.7886 -0.1209
  655MOL0     H88389   1.828   4.236   3.062 -2.5636 -2.8631 -2.6748
  655MOL0     H88390   1.791   4.252   3.243 -0.0257 -3.1110  1.7817
  655MOL0     H88391   1.801   4.008   3.276  1.2907  1.0503  1.4244
  655MOL0     H88392   1.859   3.992   3.113 -2.6465 -0.9666  0.7179
  655MOL0     H88393   2.056   4.136   3.188  0.9525 -2.3723  0.1302
  655MOL0     H88394   1.969   4.141   3.351 -0.7647 -0.1636  0.0087
  655MOL0     H88395   2.169   3.972   3.292  0.9823 -3.7734 -0.7215
  655MOL0     H88396   2.043   3.893   3.210 -2.1428 -1.4271  2.1531
  655MOL0     H88397   2.050   3.778   3.414 -0.6337  0.5373  0.5271
  655MOL0     H88398   1.911   3.880   3.434 -0.5313  4.3296  0.2697
  655MOL0     H88399   2.187   3.941   3.543 -0.5821  1.6820 -2.5113
  655MOL0     H88400   2.045   4.050   3.559  2.7209  1.3956 -0.1768
  655MOL0     H88401   1.993   3.765   3.661  1.8492 -1.3261  0.0440
  655MOL0     H88402   1.914   3.913   3.700  2.0792  3.0920  1.7988
  655MOL0     H88403   2.137   4.001   3.807  0.4891  0.5647 -2.0638
  655MOL0     H88404   2.059   3.853   3.872 -3.2248  5.0692  0.2760
  655MOL0     H88405   1.515   4.123   2.899  2.2660  0.3497 -2.0573
  655MOL0     H88406   1.380   4.299   2.788  0.1033  0.4624  0.4913
  655MOL0     H88407   1.188   4.584   2.685 -1.9018 -1.5585 -0.6727
  655MOL0     H88408   1.046   4.744   2.571  0.2348  1.0246 -0.1556
  655MOL0     H88409   2.095   4.580   2.121 -0.0028 -0.9205 -1.4765
  655MOL0     H88410   2.333   4.531   2.164  1.4547  0.4929  0.9926
  655MOL0     H88411   2.800   4.736   2.065  2.4435 -0.2338 -2.4486
  655MOL0     H88412   3.026   4.717   2.105 -0.5841 -1.0055 -0.1520
  655MOL0     H88413   3.190   4.370   2.316  0.8316 -1.1991 -0.1550
  655MOL0     H88414   3.210   4.502   2.432 -2.5541 -1.1565 -0.8399
  655MOL0     H88415   3.397   4.439   2.190  1.4189  2.4621 -1.5172
  655MOL0     H88416   3.421   4.387   2.349 -0.1706  1.2828 -0.1693
  655MOL0     H88417   3.426   4.682   2.259  1.2519 -0.9723 -2.0417
  655MOL0     H88418   3.562   4.574   2.259 -0.2828  1.2248  0.0927
  655MOL0     H88419   3.595   4.670   2.454  0.6634 -0.5113 -0.3318
  655MOL0     H88420   3.428   4.742   2.464 -0.5738 -1.3151 -0.8183
  655MOL0     H88421   3.429   4.429   2.751 -2.5175 -0.2195 -2.1761
  655MOL0     H88422   2.977   4.375   2.358  1.7914 -0.8796 -0.7046
  655MOL0     H88423   2.631   4.347   2.294 -0.8948  1.5230 -1.3749
  655MOL0     H88424   2.757   4.270   2.372 -1.9441 -0.2507 -0.6443
  655MOL0     H88425   2.679   4.405   2.464  1.6499  1.2826  0.4439
  656MOL0     O88426   5.690   2.100   2.610  0.3977 -0.0369  0.6307
  656MOL0     C88427   5.671   2.005   2.679  0.2756  0.8678  0.0607
  656MOL0     O88428   5.690   1.998   2.824 -0.8257  0.5996  0.1345
  656MOL0     C88429   5.755   2.101   2.882  0.7064  0.8375 -1.1647
  656MOL0     C88430   5.876   2.153   2.831 -0.5100  0.2635 -0.2065
  656MOL0     C88431   5.932   2.272   2.884 -0.5459 -0.1298  0.9802
  656MOL0     C88432   5.869   2.331   2.987 -0.4304  0.7246  0.5686
  656MOL0     O88433   5.912   2.433   3.061  0.4284 -0.2867 -0.7138
  656MOL0     C88434   5.928   2.559   2.996 -0.0962  1.4979  0.3604
  656MOL0     C88435   5.796   2.621   2.951  0.1785 -0.5806 -0.0289
  656MOL0     C88436   5.695   2.634   3.064 -0.3447  0.6196 -0.1681
  656MOL0     C88437   5.710   2.742   3.168  0.2631 -0.5405 -0.1423
  656MOL0     C88438   5.678   2.881   3.116  0.8654 -0.1995  0.4809
  656MOL0     C88439   5.536   2.894   3.054 -0.1821 -0.2442  0.1215
  656MOL0     C88440   5.514   3.038   3.011 -0.4812 -0.0041  0.5762
  656MOL0     C88441   5.365   3.091   3.008  0.5977  0.5473  1.2823
  656MOL0     N88442   5.285   2.987   2.930 -0.1478 -0.0190 -1.0575
  656MOL0     C88443   5.221   2.883   2.992  0.4913  0.4764  0.1965
  656MOL0     C88444   5.168   2.817   2.886  0.4472 -0.3318 -0.0783
  656MOL0     C88445   5.091   2.694   2.909  0.2334  1.1253  0.6875
  656MOL0     C88446   5.004   2.670   2.777 -0.7919  0.1930  0.1494
  656MOL0     C88447   4.960   2.528   2.774  0.4967  0.5171 -0.0031
  656MOL0     C88448   4.914   2.496   2.632  1.6309  1.4645  0.5016
  656MOL0     O88449   4.800   2.571   2.588  0.3929  0.1602 -0.1864
  656MOL0     C88450   4.803   2.626   2.459 -0.3449 -0.1244  0.0714
  656MOL0     C88451   4.829   2.764   2.445 -0.4065 -0.4113 -0.7410
  656MOL0     C88452   4.822   2.828   2.326  0.0611  0.1195  0.3810
  656MOL0     C88453   4.794   2.751   2.208  0.4857 -0.5595 -0.6298
  656MOL0     C88454   4.807   2.822   2.075 -0.5769 -0.4214  0.3964
  656MOL0     O88455   4.817   2.732   1.967  0.0470  0.2288 -0.2748
  656MOL0     C88456   4.846   2.779   1.847  0.5898  0.6632  0.2263
  656MOL0     C88457   4.740   2.828   1.771 -0.4088 -0.1649 -0.7925
  656MOL0     C88458   4.767   2.855   1.635  0.1281 -0.0722  0.3673
  656MOL0     C88459   4.898   2.849   1.575  0.2228  1.3125 -0.2752
  656MOL0     O88460   4.920   2.896   1.450  0.4272 -0.1006  0.4411
  656MOL0     C88461   4.819   2.957   1.366 -0.1620  0.0446 -0.4603
  656MOL0     C88462   4.877   3.048   1.270 -0.4641 -0.6316  0.4424
  656MOL0     C88463   4.951   2.977   1.150  0.2842 -0.2058 -0.2850
  656MOL0     C88464   5.039   3.067   1.076 -0.4650  0.8020 -0.4151
  656MOL0     C88465   5.187   3.051   1.109  0.4450  0.1167  0.1095
  656MOL0     C88466   5.251   2.915   1.078  0.1230  0.7071 -0.0567
  656MOL0     C88467   5.400   2.922   1.043  0.8048  0.0479 -0.4453
  656MOL0     C88468   5.467   2.786   1.018  0.5059 -0.3569  0.5012
  656MOL0    Cl88469   5.533   2.740   1.166 -0.2607 -0.1799 -0.4688
  656MOL0     C88470   5.000   2.790   1.655  0.1846 -0.1123 -0.4700
  656MOL0     C88471   4.969   2.758   1.786  0.0931 -0.1135  1.4316
  656MOL0     O88472   4.841   2.941   2.080  0.3467  0.1712 -0.7023
  656MOL0     C88473   4.773   2.618   2.218  0.0175  0.4728 -0.6462
  656MOL0     C88474   4.788   2.551   2.340 -0.3211  0.3375 -0.6373
  656MOL0     N88475   5.208   2.867   2.759  0.2418 -0.3261  0.2397
  656MOL0     N88476   5.274   2.973   2.791  0.1699  0.0310  0.0953
  656MOL0     C88477   5.746   2.278   3.034  0.0654  0.2314  0.0589
  656MOL0     C88478   5.691   2.160   2.985 -0.2663 -0.1935 -0.5028
  656MOL0     C88479   5.603   1.889   2.600 -0.6697 -0.0545 -0.8097
  656MOL0     C88480   5.516   1.920   2.492 -0.3472  0.3278  0.2728
  656MOL0     C88481   5.446   1.822   2.425 -0.0548  0.0400 -0.2814
  656MOL0     C88482   5.463   1.695   2.464 -0.0487  0.7246  0.4426
  656MOL0     O88483   5.405   1.587   2.397  0.3727 -0.3524  0.3361
  656MOL0     C88484   5.386   1.598   2.256 -0.5348  0.8254 -0.2842
  656MOL0     C88485   5.370   1.464   2.170 -0.0828  1.5008  0.3879
  656MOL0     C88486   5.492   1.377   2.184 -0.3847 -0.2078  0.6819
  656MOL0     C88487   5.600   1.410   2.080  1.1294 -0.5028 -0.2422
  656MOL0     C88488   5.564   1.351   1.951  0.2836  1.7547  0.3989
  656MOL0     C88489   5.526   1.304   1.849  0.3431 -0.2577  0.0050
  656MOL0     C88490   5.544   1.661   2.569 -0.6563 -0.3272 -0.6213
  656MOL0     C88491   5.617   1.752   2.647 -0.5093  0.2230  0.9881
  656MOL0     C88492   5.702   1.707   2.757  0.4440 -0.1615 -0.0618
  656MOL0     H88493   5.923   2.089   2.756 -3.1751 -2.6232  0.3775
  656MOL0     H88494   6.022   2.316   2.843 -0.5755 -0.3902  0.6292
  656MOL0     H88495   5.979   2.622   3.070 -0.6733 -0.0958  2.2013
  656MOL0     H88496   5.995   2.534   2.913 -0.0718 -2.7293  1.4204
  656MOL0     H88497   5.760   2.551   2.875  1.4211 -2.7526  1.2777
  656MOL0     H88498   5.812   2.722   2.913  1.0467 -0.0337  1.6948
  656MOL0     H88499   5.704   2.544   3.126 -1.7196  1.2452  0.9883
  656MOL0     H88500   5.594   2.632   3.023 -0.1553 -1.1225 -0.6666
  656MOL0     H88501   5.639   2.722   3.249 -1.7831  2.3615 -1.0695
  656MOL0     H88502   5.813   2.745   3.206  0.8363  1.6418 -1.6647
  656MOL0     H88503   5.681   2.954   3.197 -1.6297 -0.8056  1.2127
  656MOL0     H88504   5.739   2.913   3.032 -1.3765  0.9878 -0.7874
  656MOL0     H88505   5.515   2.834   2.966  2.3045 -1.1129  0.0567
  656MOL0     H88506   5.461   2.874   3.132 -1.1118  0.6576 -0.5028
  656MOL0     H88507   5.549   3.053   2.908 -0.9320  2.9746  0.7728
  656MOL0     H88508   5.569   3.100   3.082 -2.0784  0.6458  1.2996
  656MOL0     H88509   5.329   3.106   3.110  1.3523  0.3396  1.5884
  656MOL0     H88510   5.361   3.186   2.954  0.9916 -1.5597 -2.8551
  656MOL0     H88511   5.201   2.865   3.097 -3.8137  0.0277 -0.5078
  656MOL0     H88512   5.160   2.611   2.929 -1.6650  0.3964  5.4964
  656MOL0     H88513   5.030   2.712   2.998 -2.7540  1.1869 -1.2390
  656MOL0     H88514   4.930   2.747   2.753 -0.7755 -0.4859 -2.3596
  656MOL0     H88515   5.076   2.679   2.695  0.6120  3.1211  1.5475
  656MOL0     H88516   4.867   2.534   2.832 -0.7525 -0.8096 -1.7508
  656MOL0     H88517   5.022   2.447   2.815  0.2502  0.7652  0.8946
  656MOL0     H88518   4.886   2.390   2.623 -3.8476  2.4827  1.8188
  656MOL0     H88519   4.996   2.503   2.561  0.6226  1.6248 -0.6832
  656MOL0     H88520   4.846   2.825   2.533  0.4301 -1.3259 -0.2467
  656MOL0     H88521   4.830   2.936   2.319  0.7549 -0.0339 -1.9542
  656MOL0     H88522   4.642   2.837   1.817  0.4380  1.1008  0.8831
  656MOL0     H88523   4.679   2.880   1.578  1.0994  1.4267 -0.5584
  656MOL0     H88524   4.765   2.881   1.308  2.2514 -3.3553  1.3461
  656MOL0     H88525   4.754   3.007   1.439  0.7881 -1.0096  1.1727
  656MOL0     H88526   4.807   3.125   1.235  1.0873  1.4273  1.6020
  656MOL0     H88527   4.951   3.111   1.319  0.2853 -0.6799 -0.6011
  656MOL0     H88528   5.011   2.898   1.196  2.7214  1.0724 -1.0794
  656MOL0     H88529   4.879   2.929   1.084  0.0852  1.3497 -1.2557
  656MOL0     H88530   5.022   3.174   1.091 -0.9745  0.8331 -1.1428
  656MOL0     H88531   5.018   3.054   0.969 -2.4975 -2.5746  0.2461
  656MOL0     H88532   5.212   3.078   1.212  4.7030 -0.5835 -0.5445
  656MOL0     H88533   5.239   3.126   1.049  0.8542 -1.0305 -1.0001
  656MOL0     H88534   5.228   2.856   1.167 -1.3836  1.2320 -0.0713
  656MOL0     H88535   5.210   2.860   0.992 -0.2935  3.1982 -1.5428
  656MOL0     H88536   5.459   2.983   1.112 -0.7362  1.8384 -0.6410
  656MOL0     H88537   5.403   2.973   0.946  4.5553 -1.0270 -1.0773
  656MOL0     H88538   5.389   2.717   0.985  1.1295 -0.2110 -1.4378
  656MOL0     H88539   5.540   2.788   0.936 -0.5121 -2.2808 -0.5360
  656MOL0     H88540   5.100   2.781   1.614  0.6314  1.8001  0.0956
  656MOL0     H88541   5.036   2.709   1.855  1.2561 -1.3523 -0.5224
  656MOL0     H88542   4.756   2.549   2.136 -0.7647 -0.9962  0.7125
  656MOL0     H88543   4.774   2.444   2.329 -4.1632  0.8258 -1.7639
  656MOL0     H88544   5.704   2.338   3.114 -1.1308  3.4103 -2.7578
  656MOL0     H88545   5.599   2.132   3.034  0.2604  1.1906  1.4493
  656MOL0     H88546   5.509   2.026   2.469 -2.4340  0.1836  0.0947
  656MOL0     H88547   5.367   1.850   2.357  0.4368  0.0005 -0.8743
  656MOL0     H88548   5.464   1.664   2.216 -1.1940  0.9844 -1.3526
  656MOL0     H88549   5.288   1.641   2.232 -1.2489 -1.4662 -1.7864
  656MOL0     H88550   5.346   1.477   2.064  0.2927  1.1309  0.2554
  656MOL0     H88551   5.285   1.416   2.221 -0.6016  0.2005 -1.6069
  656MOL0     H88552   5.466   1.271   2.183  0.4406 -0.4188  0.8262
  656MOL0     H88553   5.527   1.391   2.287  3.2929  2.3005 -0.7061
  656MOL0     H88554   5.600   1.519   2.071  0.8568 -0.1655  2.7106
  656MOL0     H88555   5.696   1.369   2.113  1.8621  1.7676  0.6501
  656MOL0     H88556   5.490   1.262   1.757 -2.3644  2.7272 -0.4787
  656MOL0     H88557   5.556   1.555   2.591 -0.0405 -0.0062  0.6756
  656MOL0     H88558   5.779   1.775   2.792  2.8365 -0.5733 -3.9206
  656MOL0     H88559   5.638   1.707   2.845  0.4524 -0.1781 -0.0556
  656MOL0     H88560   5.752   1.611   2.741 -0.0994 -0.6257  0.9172
  657MOL0     O88561   2.385   9.009   5.812 -0.2944  0.5656  0.2359
  657MOL0     C88562   2.406   9.129   5.786 -0.2667 -0.2769  0.3627
  657MOL0     O88563   2.529   9.186   5.750 -0.3840 -0.0003 -0.1720
  657MOL0     C88564   2.648   9.126   5.760  0.7849  0.8293 -0.5524
  657MOL0     C88565   2.756   9.190   5.701  0.6451  0.7949  0.6973
  657MOL0     C88566   2.888   9.150   5.722 -0.0820 -0.5500 -0.0729
  657MOL0     C88567   2.910   9.025   5.778 -0.6022 -0.4235  0.1972
  657MOL0     O88568   3.035   8.981   5.810  0.1725 -0.6733  0.0356
  657MOL0     C88569   3.147   8.992   5.715  0.5342  0.2422 -0.2824
  657MOL0     C88570   3.231   8.865   5.716  0.3221  0.3340 -0.6169
  657MOL0     C88571   3.314   8.830   5.590 -0.0389  0.3517  0.2083
  657MOL0     C88572   3.425   8.933   5.573  0.7951  0.0060  0.3661
  657MOL0     C88573   3.535   8.895   5.458 -0.0756  0.1106 -0.2975
  657MOL0     C88574   3.622   8.780   5.498 -0.1250  0.7230  0.4869
  657MOL0     C88575   3.718   8.758   5.374 -0.6080  0.5293 -0.7368
  657MOL0     C88576   3.638   8.686   5.265  0.4464  0.6648  0.2231
  657MOL0     N88577   3.719   8.587   5.186 -0.3267 -0.5477  0.0626
  657MOL0     C88578   3.726   8.447   5.216 -0.3295  0.2236 -0.0391
  657MOL0     C88579   3.794   8.398   5.110 -1.0416 -0.8874  0.2404
  657MOL0     C88580   3.829   8.257   5.106  0.2993 -0.0235 -0.2920
  657MOL0     C88581   3.976   8.228   5.085 -0.2620  0.1184  0.5427
  657MOL0     C88582   4.016   8.078   5.088 -0.0704 -0.3481  0.3277
  657MOL0     C88583   4.158   8.047   5.140 -0.2981 -0.5202  1.1874
  657MOL0     O88584   4.249   8.076   5.032 -0.4784  0.0032 -0.8682
  657MOL0     C88585   4.370   8.082   5.088  0.1153  0.5717  0.1090
  657MOL0     C88586   4.411   8.197   5.150 -0.2506 -0.7109 -1.2265
  657MOL0     C88587   4.537   8.213   5.206 -0.5939 -0.1240 -0.4414
  657MOL0     C88588   4.627   8.107   5.190  0.1426  0.1346 -0.2962
  657MOL0     C88589   4.763   8.134   5.242 -0.3516 -0.2438  0.7109
  657MOL0     O88590   4.777   8.232   5.348  0.3411 -0.3712 -0.0928
  657MOL0     C88591   4.898   8.246   5.389 -0.7118  0.2234 -0.2222
  657MOL0     C88592   4.985   8.336   5.316 -0.2233  0.3014  0.0177
  657MOL0     C88593   5.121   8.336   5.338 -0.3569  0.5151 -0.2257
  657MOL0     C88594   5.183   8.244   5.428 -0.8546 -0.3354  0.0105
  657MOL0     O88595   5.312   8.229   5.454  0.3021 -0.6395  0.0961
  657MOL0     C88596   5.402   8.328   5.420  0.2645  0.1476 -0.2723
  657MOL0     C88597   5.542   8.321   5.484  0.2491 -0.6850 -1.2816
  657MOL0     C88598   5.651   8.407   5.408 -0.9752  0.5006 -0.1414
  657MOL0     C88599   5.768   8.425   5.509 -0.3832 -0.0270  0.5091
  657MOL0     C88600   5.884   8.487   5.427 -0.4055  0.1065  0.3727
  657MOL0     C88601   6.006   8.496   5.517 -0.5611  0.2147 -0.3215
  657MOL0     C88602   6.134   8.554   5.450  0.7154  0.6185  0.1995
  657MOL0     C88603   6.258   8.536   5.536  0.5126 -0.4349  0.1799
  657MOL0    Cl88604   6.398   8.631   5.485 -0.2015  0.3944 -0.1138
  657MOL0     C88605   5.093   8.160   5.503 -1.0226  0.6466  1.2501
  657MOL0     C88606   4.954   8.159   5.486 -0.6678 -0.2136 -0.5367
  657MOL0     O88607   4.852   8.071   5.195  0.2515  0.7311  0.2145
  657MOL0     C88608   4.589   7.988   5.123 -0.3248 -0.6791  0.5162
  657MOL0     C88609   4.462   7.984   5.063 -0.7263  0.4143  0.2374
  657MOL0     N88610   3.802   8.497   5.010  0.0150 -0.9182 -0.5336
  657MOL0     N88611   3.754   8.606   5.054 -1.2023 -0.1080 -0.4381
  657MOL0     C88612   2.801   8.953   5.828  0.4142  0.6576  1.1020
  657MOL0     C88613   2.673   9.006   5.825 -0.8049  0.0969  0.4345
  657MOL0     C88614   2.279   9.202   5.787 -0.3070  0.3636 -0.2291
  657MOL0     C88615   2.169   9.166   5.873  0.8581 -0.3353  0.1821
  657MOL0     C88616   2.047   9.232   5.862 -0.4772  0.4970 -0.5557
  657MOL0     C88617   2.018   9.339   5.765  0.0945 -0.1963  0.3587
  657MOL0     O88618   1.889   9.387   5.746  0.1835  0.2624 -1.0538
  657MOL0     C88619   1.880   9.509   5.670  0.6734  0.5968 -0.0191
  657MOL0     C88620   1.734   9.552   5.663  0.0530 -0.1125 -0.1048
  657MOL0     C88621   1.651   9.458   5.569  0.9026  0.0697 -0.5992
  657MOL0     C88622   1.506   9.505   5.561 -0.1440  0.1730  0.0819
  657MOL0     C88623   1.404   9.414   5.517  0.9096  0.9632  0.1082
  657MOL0     C88624   1.310   9.341   5.478 -0.1305 -0.4763  0.3675
  657MOL0     C88625   2.129   9.368   5.685  0.1243 -0.5047 -0.0889
  657MOL0     C88626   2.252   9.312   5.695  0.9316  0.2839 -0.4386
  657MOL0     C88627   2.360   9.361   5.617 -0.6132 -1.3155 -0.3511
  657MOL0     H88628   2.731   9.282   5.648  2.0829 -0.0572 -1.6282
  657MOL0     H88629   2.965   9.214   5.681  1.2471 -2.2483 -0.3083
  657MOL0     H88630   3.108   9.004   5.614  1.5217 -1.2570 -0.8676
  657MOL0     H88631   3.211   9.076   5.742  0.0556 -0.4981  3.9519
  657MOL0     H88632   3.158   8.785   5.733 -2.1416  2.9873  2.4593
  657MOL0     H88633   3.293   8.867   5.806 -0.1270 -0.1398 -0.2981
  657MOL0     H88634   3.245   8.825   5.506 -0.4139  1.6536  0.4243
  657MOL0     H88635   3.360   8.733   5.612 -0.6170  0.4540  2.1580
  657MOL0     H88636   3.375   9.029   5.560 -2.3133 -1.0413  3.1866
  657MOL0     H88637   3.481   8.953   5.665 -0.1372  0.2142  0.9015
  657MOL0     H88638   3.489   8.875   5.361  1.1756  2.4001 -1.4437
  657MOL0     H88639   3.595   8.987   5.462  2.0204 -1.2221  0.6877
  657MOL0     H88640   3.672   8.804   5.592 -0.8063  1.3089  0.7089
  657MOL0     H88641   3.568   8.687   5.519  2.1385 -1.2525 -1.7816
  657MOL0     H88642   3.809   8.711   5.413 -0.7686  0.2146 -0.7357
  657MOL0     H88643   3.756   8.851   5.331  1.1299 -1.8024 -4.8357
  657MOL0     H88644   3.563   8.622   5.313  0.2935  1.4773  1.0917
  657MOL0     H88645   3.591   8.758   5.197  0.8163  0.8124  0.1221
  657MOL0     H88646   3.697   8.388   5.303  0.9429 -2.3683 -1.2655
  657MOL0     H88647   3.797   8.209   5.199 -1.3650 -1.5944 -1.6045
  657MOL0     H88648   3.777   8.209   5.022  1.5326 -0.8158 -0.6376
  657MOL0     H88649   4.012   8.285   4.999  0.5356  1.5472  1.7716
  657MOL0     H88650   4.026   8.280   5.167  0.6332  1.1793 -0.6308
  657MOL0     H88651   4.000   8.041   4.986 -2.4577 -1.8482  1.1422
  657MOL0     H88652   3.945   8.029   5.156 -1.2793  0.3214 -0.3987
  657MOL0     H88653   4.152   7.939   5.152 -1.4054 -0.9603 -2.2052
  657MOL0     H88654   4.189   8.089   5.236  2.6027 -1.1078  0.6150
  657MOL0     H88655   4.345   8.282   5.168  0.1169 -0.5419 -0.6445
  657MOL0     H88656   4.566   8.312   5.241 -0.0528 -0.1080 -0.9168
  657MOL0     H88657   4.947   8.396   5.233  1.7788  0.7950 -0.5880
  657MOL0     H88658   5.178   8.407   5.278 -0.9047  0.8649 -0.3352
  657MOL0     H88659   5.402   8.322   5.311 -1.3127 -0.7537 -0.2498
  657MOL0     H88660   5.355   8.419   5.458 -0.3714  0.7321 -2.3200
  657MOL0     H88661   5.531   8.366   5.583  1.4061 -2.2241 -0.4194
  657MOL0     H88662   5.590   8.224   5.494  1.1506 -0.1408 -0.0397
  657MOL0     H88663   5.688   8.355   5.319  2.4883  0.7172  1.0117
  657MOL0     H88664   5.612   8.508   5.393 -2.6750  0.2853  2.2470
  657MOL0     H88665   5.796   8.327   5.548 -0.6564 -1.2960 -2.2482
  657MOL0     H88666   5.754   8.486   5.598  1.8749 -0.3296  1.1387
  657MOL0     H88667   5.859   8.590   5.399  2.2024  1.6795  3.2466
  657MOL0     H88668   5.895   8.442   5.328 -1.3978  2.1911 -0.7613
  657MOL0     H88669   5.983   8.553   5.607  1.1270  1.4440 -0.6084
  657MOL0     H88670   6.026   8.395   5.554 -1.1919 -0.5927 -2.0647
  657MOL0     H88671   6.113   8.658   5.424 -2.2327  0.3772  1.2530
  657MOL0     H88672   6.137   8.491   5.361 -2.0582  1.6863 -0.7649
  657MOL0     H88673   6.228   8.557   5.639  0.5596 -3.7417  0.9802
  657MOL0     H88674   6.283   8.430   5.549  0.6986 -0.1708  2.3832
  657MOL0     H88675   5.145   8.095   5.572  0.5347 -0.7358 -1.1002
  657MOL0     H88676   4.891   8.096   5.548 -1.3860  2.4074  1.6109
  657MOL0     H88677   4.673   7.920   5.113  2.2234  2.0075  2.1994
  657MOL0     H88678   4.434   7.901   5.000  1.4839 -0.0410 -0.2311
  657MOL0     H88679   2.820   8.861   5.881  1.2377 -0.4468 -0.9900
  657MOL0     H88680   2.594   8.945   5.868 -2.0345  2.0335  1.0520
  657MOL0     H88681   2.167   9.085   5.945 -1.0932  0.0610  0.6313
  657MOL0     H88682   1.959   9.202   5.917  0.1512  0.5142  0.4860
  657MOL0     H88683   1.906   9.506   5.564  1.6763  2.3958  0.1451
  657MOL0     H88684   1.936   9.582   5.728  3.5038 -0.9212 -0.6550
  657MOL0     H88685   1.726   9.653   5.622  0.0492 -0.3615 -0.7260
  657MOL0     H88686   1.698   9.559   5.766 -0.2622  3.2591 -0.3348
  657MOL0     H88687   1.656   9.357   5.611  2.7076 -0.5403 -2.1499
  657MOL0     H88688   1.694   9.462   5.469 -1.1603  3.6355 -1.5078
  657MOL0     H88689   1.466   9.547   5.654  1.6254  1.6982  0.2083
  657MOL0     H88690   1.504   9.576   5.477 -1.9040 -0.9623 -0.9005
  657MOL0     H88691   1.228   9.287   5.435  1.7574 -3.5177  0.3850
  657MOL0     H88692   2.116   9.454   5.620 -2.7234  0.3103  1.3797
  657MOL0     H88693   2.389   9.282   5.548 -2.9484 -2.7884  0.2385
  657MOL0     H88694   2.340   9.452   5.560  0.2654 -0.4897  0.6161
  657MOL0     H88695   2.437   9.396   5.686 -0.8063 -0.6366 -0.4734
  658MOL0     O88696   6.487   6.947   0.447  0.2739  0.5634  0.5034
  658MOL0     C88697   6.402   6.929   0.540 -0.0834  0.1067 -0.2591
  658MOL0     O88698   6.432   6.902   0.666  0.1723 -0.2462  0.3595
  658MOL0     C88699   6.560   6.850   0.679  0.8626  0.6111  0.0506
  658MOL0     C88700   6.671   6.938   0.694  0.0559  0.2842  0.5577
  658MOL0     C88701   6.799   6.869   0.717 -0.2808  0.4207 -0.8454
  658MOL0     C88702   6.808   6.733   0.720 -0.0600 -1.1325  0.5298
  658MOL0     O88703   6.914   6.653   0.752  0.4359 -0.2437 -0.1870
  658MOL0     C88704   7.051   6.709   0.740  0.3507 -0.0888  0.0646
  658MOL0     C88705   7.147   6.599   0.782 -0.6303 -0.0692 -0.1176
  658MOL0     C88706   7.293   6.652   0.760 -0.2212 -0.1862  0.7538
  658MOL0     C88707   7.400   6.548   0.797  0.0801 -0.7839  0.6834
  658MOL0     C88708   7.542   6.581   0.751 -0.2841  0.5770 -0.3715
  658MOL0     C88709   7.572   6.561   0.603  1.1147 -0.1073 -0.7576
  658MOL0     C88710   7.725   6.577   0.575  0.0782  0.7769 -0.0037
  658MOL0     C88711   7.760   6.558   0.429  0.4572  0.2139 -0.4386
  658MOL0     N88712   7.901   6.563   0.384 -0.4035 -0.5215 -0.4053
  658MOL0     C88713   7.994   6.655   0.433  0.3384  0.5239 -0.2152
  658MOL0     C88714   8.115   6.628   0.380 -0.2235  0.2030 -0.0665
  658MOL0     C88715   8.238   6.706   0.401  0.7616 -0.4439  0.5053
  658MOL0     C88716   8.365   6.637   0.432 -0.0550  0.3463 -0.8788
  658MOL0     C88717   8.352   6.561   0.572  0.4546  0.2853  0.2702
  658MOL0     C88718   8.493   6.513   0.614 -0.5911  0.0729 -0.3755
  658MOL0     O88719   8.568   6.621   0.667  0.4537 -0.2369 -0.7175
  658MOL0     C88720   8.697   6.596   0.702 -0.1093 -0.4495  0.8965
  658MOL0     C88721   8.743   6.488   0.780 -0.4590 -0.2504  0.1929
  658MOL0     C88722   8.868   6.482   0.834 -0.5714 -0.6935  0.9363
  658MOL0     C88723   8.960   6.584   0.794  0.9132 -0.1989 -0.2905
  658MOL0     C88724   9.102   6.570   0.844 -0.5237  0.3282  0.3490
  658MOL0     O88725   9.122   6.465   0.927 -0.2425  0.5528 -0.2289
  658MOL0     C88726   9.235   6.433   1.001 -0.6716  0.0654  0.9412
  658MOL0     C88727   9.229   6.420   1.137 -0.6347 -0.4110  0.4568
  658MOL0     C88728   9.340   6.374   1.201  0.4105  0.5052  0.1818
  658MOL0     C88729   9.466   6.370   1.137  0.5668  0.5412 -0.4061
  658MOL0     O88730   9.577   6.323   1.201 -0.1709 -0.7426  0.5572
  658MOL0     C88731   9.705   6.393   1.187  0.8617  1.0301 -0.3092
  658MOL0     C88732   9.797   6.329   1.290 -0.2593  0.7415 -0.2990
  658MOL0     C88733   9.915   6.414   1.320 -0.2400 -0.2913 -0.4341
  658MOL0     C88734   9.995   6.462   1.207 -0.3493  0.5032  0.0551
  658MOL0     C88735  10.122   6.511   1.258 -1.1058 -0.4845 -0.4793
  658MOL0     C88736  10.220   6.518   1.135 -1.4330 -0.8703 -0.7160
  658MOL0     C88737  10.355   6.582   1.170  0.2039 -1.0720  0.4000
  658MOL0     C88738  10.345   6.725   1.218  1.1347 -0.0000  0.7700
  658MOL0    Cl88739  10.484   6.753   1.319 -0.0542 -0.2422  0.1476
  658MOL0     C88740   9.470   6.384   0.997 -0.1698  0.1412  0.4896
  658MOL0     C88741   9.357   6.420   0.926  0.0299 -0.5680 -0.1996
  658MOL0     O88742   9.190   6.648   0.820  0.2353 -0.7098  0.5373
  658MOL0     C88743   8.919   6.686   0.712 -0.2933  0.2844  0.3964
  658MOL0     C88744   8.790   6.692   0.671 -0.1892 -0.1742  0.4502
  658MOL0     N88745   8.093   6.515   0.295 -0.2261 -0.9281 -0.1155
  658MOL0     N88746   7.970   6.486   0.296 -0.2477 -0.9518 -0.5222
  658MOL0     C88747   6.696   6.655   0.697 -0.5251 -0.1192 -0.8626
  658MOL0     C88748   6.573   6.712   0.684 -0.2760  0.9478 -1.0096
  658MOL0     C88749   6.261   6.936   0.509  0.0546 -0.2624  0.4204
  658MOL0     C88750   6.173   6.861   0.587  0.5869 -0.9001 -0.3397
  658MOL0     C88751   6.031   6.868   0.568 -1.0934  0.5824 -0.1973
  658MOL0     C88752   5.976   6.942   0.463  0.3805 -0.7593  0.1864
  658MOL0     O88753   5.844   6.950   0.430 -0.6078  0.2660 -0.4463
  658MOL0     C88754   5.777   6.824   0.427  0.3118  0.0705  0.0582
  658MOL0     C88755   5.665   6.817   0.323 -1.2162 -0.2002 -0.2842
  658MOL0     C88756   5.578   6.950   0.339 -0.2280  1.2602  0.5208
  658MOL0     C88757   5.460   6.944   0.245  0.9189  0.4470  0.1784
  658MOL0     C88758   5.357   6.849   0.298  0.3071 -0.8404 -0.3571
  658MOL0     C88759   5.272   6.777   0.345 -1.5385 -0.3629  0.2406
  658MOL0     C88760   6.060   7.006   0.377  0.3835  1.1999  0.5967
  658MOL0     C88761   6.196   7.019   0.406 -0.8348  0.0715 -0.7199
  658MOL0     C88762   6.284   7.117   0.333 -0.3303  0.4978  0.2780
  658MOL0     H88763   6.665   7.046   0.704  0.0473  0.4577 -1.1551
  658MOL0     H88764   6.884   6.931   0.742 -0.1888  1.0425 -2.5747
  658MOL0     H88765   7.071   6.739   0.637 -1.4762  2.2281  0.2996
  658MOL0     H88766   7.057   6.801   0.799  0.3176 -0.5497  0.8050
  658MOL0     H88767   7.141   6.518   0.709  0.8807 -0.4101  0.1056
  658MOL0     H88768   7.128   6.567   0.885  0.7076 -0.1432  0.1181
  658MOL0     H88769   7.292   6.747   0.813  1.2520 -0.5425  1.4923
  658MOL0     H88770   7.310   6.683   0.657 -0.3363 -0.7776  0.5501
  658MOL0     H88771   7.400   6.545   0.906  1.4203 -0.4972  0.7088
  658MOL0     H88772   7.374   6.447   0.763  1.2875 -1.1811  0.8939
  658MOL0     H88773   7.569   6.681   0.785 -0.5048  0.1014  1.3187
  658MOL0     H88774   7.604   6.503   0.797 -0.9122 -0.5821 -1.4263
  658MOL0     H88775   7.550   6.459   0.570 -0.3695 -0.0103 -0.1699
  658MOL0     H88776   7.511   6.629   0.544  0.2565  0.8034  1.0933
  658MOL0     H88777   7.790   6.517   0.639  2.8813  1.5167 -1.9612
  658MOL0     H88778   7.758   6.680   0.591 -0.2284  1.5491 -3.5211
  658MOL0     H88779   7.730   6.456   0.401 -1.6703  0.5872  0.3495
  658MOL0     H88780   7.709   6.627   0.361  1.6314 -1.8102 -3.6527
  658MOL0     H88781   7.975   6.739   0.500 -0.6076 -0.9373  1.4165
  658MOL0     H88782   8.257   6.762   0.309  1.6027 -1.3662  0.0978
  658MOL0     H88783   8.215   6.779   0.478  2.5237 -0.6969  1.3301
  658MOL0     H88784   8.402   6.573   0.352 -1.6838 -0.0906 -1.3085
  658MOL0     H88785   8.438   6.719   0.436  0.8301 -0.3897 -1.4232
  658MOL0     H88786   8.278   6.484   0.549  0.3088  1.1011 -2.1892
  658MOL0     H88787   8.316   6.619   0.658 -0.4542 -0.0650  0.1278
  658MOL0     H88788   8.541   6.463   0.530  0.4649 -0.0147  0.2655
  658MOL0     H88789   8.477   6.442   0.696  0.6260  0.4172  0.1805
  658MOL0     H88790   8.664   6.417   0.801 -3.1711  1.8664 -1.9733
  658MOL0     H88791   8.889   6.403   0.905 -0.3337 -0.1181  1.5160
  658MOL0     H88792   9.135   6.430   1.190 -1.1722 -1.2514 -0.3220
  658MOL0     H88793   9.336   6.360   1.309  2.5273  1.4734  0.4472
  658MOL0     H88794   9.748   6.387   1.087 -0.1039 -2.4149 -0.6564
  658MOL0     H88795   9.690   6.498   1.214 -0.2196  1.0362 -0.8706
  658MOL0     H88796   9.737   6.335   1.382 -2.1953 -0.2575 -1.4548
  658MOL0     H88797   9.826   6.229   1.256  0.8897  1.6033 -1.9987
  658MOL0     H88798   9.884   6.500   1.379 -0.0198  0.3490 -1.2425
  658MOL0     H88799   9.974   6.352   1.389  0.4682 -1.0786 -1.7057
  658MOL0     H88800   9.935   6.533   1.147  1.1261  1.6371 -0.1466
  658MOL0     H88801  10.010   6.376   1.141 -0.9141  0.8593 -0.5599
  658MOL0     H88802  10.169   6.456   1.340 -0.1971  3.0282  1.6034
  658MOL0     H88803  10.095   6.607   1.303 -1.1375 -1.2581  1.2430
  658MOL0     H88804  10.244   6.416   1.105 -0.2680 -0.7129 -0.3660
  658MOL0     H88805  10.178   6.570   1.048 -1.6425 -0.5663 -0.4393
  658MOL0     H88806  10.425   6.578   1.087 -1.2288 -0.6895 -0.8631
  658MOL0     H88807  10.385   6.523   1.257 -1.1484  1.4000  2.7059
  658MOL0     H88808  10.333   6.798   1.137 -2.4894 -0.4132  0.7588
  658MOL0     H88809  10.250   6.743   1.270  0.2570 -0.4341 -0.6093
  658MOL0     H88810   9.557   6.357   0.938 -0.8859 -3.5464  0.9010
  658MOL0     H88811   9.373   6.439   0.820 -1.2496  0.3236 -0.2485
  658MOL0     H88812   8.980   6.773   0.689  2.8638 -1.6759  0.7776
  658MOL0     H88813   8.760   6.781   0.617  0.6148  0.1029  0.4418
  658MOL0     H88814   6.708   6.547   0.693  1.7873 -0.0950  2.0132
  658MOL0     H88815   6.488   6.645   0.683  0.4793 -0.1332  0.6589
  658MOL0     H88816   6.214   6.796   0.664 -0.2950 -0.9714  0.0772
  658MOL0     H88817   5.972   6.818   0.644  0.4970  1.1682  1.5039
  658MOL0     H88818   5.744   6.793   0.526 -1.5472 -4.4364 -1.6958
  658MOL0     H88819   5.847   6.743   0.405  0.0509 -0.5216  1.3189
  658MOL0     H88820   5.600   6.734   0.351 -0.3367 -0.6487  0.4651
  658MOL0     H88821   5.710   6.808   0.224  0.7905  1.2116  0.4313
  658MOL0     H88822   5.636   7.042   0.323  0.9179  0.4919  0.1517
  658MOL0     H88823   5.547   6.966   0.443 -4.1612 -1.3882 -0.0328
  658MOL0     H88824   5.408   7.040   0.230 -2.9753 -1.4528  0.2526
  658MOL0     H88825   5.489   6.905   0.147 -0.4679 -1.8189  0.6083
  658MOL0     H88826   5.189   6.722   0.384 -0.8490 -2.4143 -1.0437
  658MOL0     H88827   6.018   7.063   0.295 -0.4196 -1.1851 -0.7592
  658MOL0     H88828   6.227   7.166   0.254 -0.6230  1.7166  1.2053
  658MOL0     H88829   6.308   7.201   0.399  2.9037 -1.6913  2.1922
  658MOL0     H88830   6.374   7.072   0.291 -1.8767 -0.1339 -2.6093
  659MOL0     O88831   4.701   8.210   8.686 -0.3451 -0.0555 -0.7917
  659MOL0     C88832   4.746   8.142   8.787  0.2941  1.2225  0.0042
  659MOL0     O88833   4.681   8.043   8.858  0.5748 -0.3508 -0.0429
  659MOL0     C88834   4.545   8.024   8.852  0.8441 -0.1145  0.2659
  659MOL0     C88835   4.454   8.139   8.845 -0.1334  0.1342  0.8332
  659MOL0     C88836   4.314   8.129   8.817 -0.1463  0.5115  1.0080
  659MOL0     C88837   4.262   8.000   8.816  0.0145 -0.1520  0.6703
  659MOL0     O88838   4.132   7.961   8.790  0.4214  0.0375  0.6267
  659MOL0     C88839   4.039   8.058   8.836  1.3187 -0.5622  0.4911
  659MOL0     C88840   3.927   7.982   8.892  0.8694 -0.0367 -0.2944
  659MOL0     C88841   3.825   8.078   8.959  0.0180  0.3889 -0.6580
  659MOL0     C88842   3.746   8.159   8.854  0.9102  0.0758  0.6588
  659MOL0     C88843   3.622   8.215   8.927 -0.1404 -0.0211  0.7120
  659MOL0     C88844   3.529   8.276   8.817 -0.6043  0.0101  1.1660
  659MOL0     C88845   3.407   8.348   8.877  0.2755  0.4244 -0.3067
  659MOL0     C88846   3.303   8.408   8.776 -0.0242  0.0964 -0.4520
  659MOL0     N88847   3.349   8.470   8.649  0.6378 -0.5267 -0.8798
  659MOL0     C88848   3.446   8.567   8.639 -0.5671  0.1279 -0.3368
  659MOL0     C88849   3.446   8.606   8.511 -0.2211 -0.0149  0.3954
  659MOL0     C88850   3.528   8.716   8.451  0.7211 -0.1581  1.0351
  659MOL0     C88851   3.668   8.677   8.407 -0.5805  0.7674 -0.4331
  659MOL0     C88852   3.755   8.693   8.527 -0.9803 -1.0715 -1.1869
  659MOL0     C88853   3.900   8.645   8.487  0.0262  0.2404  0.3526
  659MOL0     O88854   4.002   8.687   8.577  0.0602  0.3233 -0.4706
  659MOL0     C88855   3.993   8.646   8.709 -0.1892  0.8170  0.1940
  659MOL0     C88856   3.985   8.509   8.753 -0.3149  0.0633  1.0019
  659MOL0     C88857   3.980   8.471   8.885  0.5656  0.5143 -1.1463
  659MOL0     C88858   3.982   8.569   8.986 -0.5921  0.6464 -0.5500
  659MOL0     C88859   3.984   8.527   9.132  0.4415  0.5561 -0.6847
  659MOL0     O88860   3.990   8.386   9.157  0.3957  0.4295 -0.4958
  659MOL0     C88861   3.936   8.339   9.273  0.1235 -0.9978  0.7573
  659MOL0     C88862   4.009   8.340   9.398  0.1980 -0.1161  0.2006
  659MOL0     C88863   3.951   8.280   9.514  0.1412 -0.3987  0.0383
  659MOL0     C88864   3.822   8.238   9.513 -0.4487  0.0341 -0.3030
  659MOL0     O88865   3.762   8.197   9.623  1.0176  0.7855  0.3272
  659MOL0     C88866   3.661   8.295   9.670 -1.3711  0.7620  0.1782
  659MOL0     C88867   3.595   8.284   9.806 -0.4806 -0.1883  0.3275
  659MOL0     C88868   3.692   8.269   9.927 -0.0803  0.0030  0.0873
  659MOL0     C88869   3.798   8.377   9.941  0.0508 -0.0856  0.0946
  659MOL0     C88870   3.884   8.368  10.074  0.0038  0.1301 -0.3267
  659MOL0     C88871   3.989   8.480  10.083 -0.6024  0.4071 -0.5587
  659MOL0     C88872   4.099   8.448  10.187 -0.4740  0.3827  0.0555
  659MOL0     C88873   4.199   8.565  10.199 -0.4824  0.1894 -0.1744
  659MOL0    Cl88874   4.277   8.588  10.036 -0.5763  0.1918  0.1762
  659MOL0     C88875   3.749   8.246   9.397 -0.4208 -0.3859  1.1895
  659MOL0     C88876   3.801   8.299   9.272 -0.1314  1.0607 -0.1522
  659MOL0     O88877   3.969   8.617   9.217 -0.2625  0.1980  0.6186
  659MOL0     C88878   3.993   8.702   8.952 -0.1578  0.5668  0.5080
  659MOL0     C88879   4.000   8.733   8.818  0.6891 -0.9129 -0.0338
  659MOL0     N88880   3.348   8.529   8.446 -0.0369  0.4827 -0.0655
  659MOL0     N88881   3.294   8.453   8.529 -0.1038  0.5042  0.1689
  659MOL0     C88882   4.345   7.887   8.838 -0.2433 -0.1041 -0.9821
  659MOL0     C88883   4.480   7.905   8.859  0.3651 -0.1472 -0.3360
  659MOL0     C88884   4.870   8.194   8.843 -0.6510 -1.1859 -0.1107
  659MOL0     C88885   4.870   8.265   8.963 -0.1356  0.7047  0.2878
  659MOL0     C88886   4.980   8.336   9.008  0.6344 -0.2938  0.5067
  659MOL0     C88887   5.098   8.338   8.933 -0.5087  0.2951 -0.5919
  659MOL0     O88888   5.202   8.402   8.983 -0.2776  0.6676  0.7457
  659MOL0     C88889   5.249   8.363   9.111  0.0122 -0.4731  0.2543
  659MOL0     C88890   5.392   8.322   9.101  0.4111 -1.5138 -0.1805
  659MOL0     C88891   5.455   8.265   9.233 -0.2751  0.1017 -0.7046
  659MOL0     C88892   5.438   8.368   9.342 -0.7516  0.0431 -0.2448
  659MOL0     C88893   5.499   8.348   9.478 -0.0416  0.9266 -0.2014
  659MOL0     C88894   5.566   8.343   9.581 -0.0014 -0.5277  0.5458
  659MOL0     C88895   5.094   8.271   8.806 -0.1961 -0.6448  0.1102
  659MOL0     C88896   4.983   8.207   8.755  0.8833  0.5159 -0.1336
  659MOL0     C88897   4.988   8.162   8.619  0.0387 -0.3476  0.4914
  659MOL0     H88898   4.498   8.237   8.858 -0.5220  0.9778 -3.0057
  659MOL0     H88899   4.254   8.217   8.797 -0.6641  0.5314  2.5217
  659MOL0     H88900   4.086   8.119   8.913 -1.2629  0.5810  1.2915
  659MOL0     H88901   4.009   8.127   8.757 -0.6143 -0.3667  1.3302
  659MOL0     H88902   3.960   7.907   8.964 -2.0463 -3.3739 -2.1385
  659MOL0     H88903   3.886   7.919   8.813  0.4949 -2.7971  1.9362
  659MOL0     H88904   3.870   8.145   9.032 -2.2025 -0.1506  1.3183
  659MOL0     H88905   3.762   8.011   9.018  0.1680  0.3037 -0.5954
  659MOL0     H88906   3.811   8.241   8.823 -1.9811  2.2323 -0.0992
  659MOL0     H88907   3.726   8.091   8.771  2.9258  1.3454 -0.9649
  659MOL0     H88908   3.571   8.135   8.982  0.7789  0.3208  2.1137
  659MOL0     H88909   3.637   8.299   8.996 -2.2646  1.1290 -0.1366
  659MOL0     H88910   3.590   8.352   8.767  1.3107 -1.1398  1.6769
  659MOL0     H88911   3.496   8.204   8.742  1.4779 -1.2335  1.3739
  659MOL0     H88912   3.451   8.419   8.948  2.3074  0.4501 -1.5227
  659MOL0     H88913   3.359   8.272   8.940  0.6313  0.7389  0.3576
  659MOL0     H88914   3.240   8.326   8.741  1.1752 -0.6619 -0.8740
  659MOL0     H88915   3.235   8.481   8.823 -1.3721  0.5456 -2.9224
  659MOL0     H88916   3.513   8.594   8.720 -0.7997 -0.8709  0.2045
  659MOL0     H88917   3.473   8.748   8.362  0.5184 -0.2166  1.1388
  659MOL0     H88918   3.524   8.808   8.510  3.0960 -0.5811  1.9912
  659MOL0     H88919   3.677   8.573   8.373  1.4673 -0.5174  3.4226
  659MOL0     H88920   3.705   8.744   8.329  1.6463  3.7372  2.8762
  659MOL0     H88921   3.713   8.635   8.610  1.6319 -1.0928  0.2454
  659MOL0     H88922   3.764   8.799   8.550  3.5096 -1.2926 -0.9524
  659MOL0     H88923   3.936   8.687   8.393 -0.8598  1.7566  0.6528
  659MOL0     H88924   3.899   8.536   8.483 -0.6760  0.1570  1.9122
  659MOL0     H88925   3.967   8.438   8.673 -0.0059  0.7329  0.3153
  659MOL0     H88926   3.955   8.366   8.903 -1.3134  0.7941 -1.8617
  659MOL0     H88927   4.114   8.368   9.399  0.1964  0.1014 -1.5219
  659MOL0     H88928   4.012   8.282   9.603  1.4147 -1.2457 -0.7869
  659MOL0     H88929   3.714   8.391   9.665  0.6583 -0.3706 -3.3657
  659MOL0     H88930   3.579   8.306   9.598 -0.1266  2.9399 -1.0152
  659MOL0     H88931   3.525   8.364   9.833 -0.1375 -0.3009  1.6338
  659MOL0     H88932   3.534   8.194   9.806 -0.6600 -0.0840  1.3291
  659MOL0     H88933   3.632   8.279  10.019  0.7081  3.1651  0.3878
  659MOL0     H88934   3.739   8.171   9.925  0.6539  0.3273  0.7769
  659MOL0     H88935   3.748   8.475   9.943  0.2031  0.0557 -1.6259
  659MOL0     H88936   3.873   8.365   9.863  0.8212 -0.2930  0.8558
  659MOL0     H88937   3.930   8.269  10.083 -1.5260 -0.5900 -0.1584
  659MOL0     H88938   3.817   8.384  10.159 -0.4489 -1.0974 -0.4433
  659MOL0     H88939   4.036   8.513   9.990 -1.5706  1.7959 -0.5930
  659MOL0     H88940   3.934   8.568  10.120 -1.5671 -0.7784  0.9446
  659MOL0     H88941   4.156   8.362  10.150 -0.2239  0.5878 -0.0385
  659MOL0     H88942   4.045   8.432  10.281 -2.6669 -3.1055 -1.5866
  659MOL0     H88943   4.150   8.659  10.229 -0.7292  0.6076 -1.8093
  659MOL0     H88944   4.279   8.528  10.263 -0.4958 -1.5877 -1.1371
  659MOL0     H88945   3.644   8.217   9.405 -0.6700  0.0465 -0.1876
  659MOL0     H88946   3.729   8.305   9.191 -1.6890 -0.6923  1.0116
  659MOL0     H88947   3.988   8.785   9.022 -0.3985  0.8602  0.1440
  659MOL0     H88948   4.002   8.833   8.775  0.4623 -0.5082  0.8643
  659MOL0     H88949   4.306   7.786   8.827  3.2916 -1.6507 -0.9055
  659MOL0     H88950   4.555   7.828   8.877 -0.1199 -0.5285  0.0611
  659MOL0     H88951   4.785   8.279   9.029  1.3943  3.4242  1.8534
  659MOL0     H88952   4.990   8.387   9.103  0.6893 -0.1172  0.4070
  659MOL0     H88953   5.192   8.279   9.151 -0.0607 -0.1475  0.8422
  659MOL0     H88954   5.231   8.448   9.178 -3.2813  1.1579 -2.3574
  659MOL0     H88955   5.450   8.411   9.077  1.9480 -2.7974 -1.4710
  659MOL0     H88956   5.405   8.248   9.021  2.0986 -1.0650 -0.3518
  659MOL0     H88957   5.563   8.250   9.221 -0.4153  0.2521 -2.3200
  659MOL0     H88958   5.414   8.168   9.262  0.3125  0.4976  1.6396
  659MOL0     H88959   5.486   8.459   9.304  0.3129 -0.5546 -0.3850
  659MOL0     H88960   5.333   8.394   9.355 -0.5490 -0.1562  2.1979
  659MOL0     H88961   5.618   8.324   9.673  0.6565 -0.6690  0.1494
  659MOL0     H88962   5.178   8.285   8.739 -0.6933  0.2199 -0.3633
  659MOL0     H88963   4.956   8.057   8.626  0.8884 -0.5159  4.4174
  659MOL0     H88964   4.922   8.223   8.557  2.1468 -0.0591 -1.5838
  659MOL0     H88965   5.089   8.162   8.578  0.4229  3.0306  1.1814
  660MOL0     O88966   5.263   1.317   0.624 -0.6980  0.3433 -0.1708
  660MOL0     C88967   5.215   1.199   0.623 -0.5466  0.7450 -0.1522
  660MOL0     O88968   5.285   1.086   0.597 -0.8121 -0.3063 -0.3840
  660MOL0     C88969   5.421   1.081   0.592 -0.5887  0.1657  0.7009
  660MOL0     C88970   5.511   1.157   0.662 -0.1522 -1.0456 -1.0306
  660MOL0     C88971   5.648   1.157   0.637  0.4882  0.2730 -0.2196
  660MOL0     C88972   5.697   1.061   0.551  0.2088 -0.8816  0.0050
  660MOL0     O88973   5.831   1.047   0.514 -0.5353  0.2023 -0.0357
  660MOL0     C88974   5.913   1.159   0.542  1.0254 -0.3215  0.2666
  660MOL0     C88975   6.047   1.120   0.502 -0.5869 -0.0083 -0.4915
  660MOL0     C88976   6.124   1.247   0.513  1.1291  0.0496  0.7114
  660MOL0     C88977   6.141   1.320   0.640 -0.0724 -0.6036 -0.1177
  660MOL0     C88978   6.272   1.394   0.656  0.4771 -0.1633 -0.0573
  660MOL0     C88979   6.272   1.536   0.603  0.3661  0.0763 -0.7931
  660MOL0     C88980   6.390   1.626   0.642  0.8280  0.0990  0.7636
  660MOL0     C88981   6.519   1.602   0.563  0.5839  0.1012  0.7602
  660MOL0     N88982   6.606   1.723   0.557 -0.8874  0.7174 -0.1735
  660MOL0     C88983   6.647   1.805   0.664 -0.6240  1.4711 -0.0893
  660MOL0     C88984   6.727   1.897   0.611  0.0310 -0.1829  0.6166
  660MOL0     C88985   6.802   2.011   0.678 -0.0036 -0.4054 -1.0901
  660MOL0     C88986   6.942   1.967   0.714 -0.6578 -1.0952 -0.5587
  660MOL0     C88987   6.934   1.911   0.856  0.0716  0.4860 -0.8560
  660MOL0     C88988   7.074   1.859   0.892 -0.6441  0.0728 -0.0414
  660MOL0     O88989   7.167   1.958   0.939  0.1681 -0.4421  0.2196
  660MOL0     C88990   7.285   1.906   0.993 -0.0665 -0.0466  0.0368
  660MOL0     C88991   7.309   1.768   1.010 -0.7313  0.2564 -0.7790
  660MOL0     C88992   7.441   1.732   1.049 -1.4091 -0.0738 -0.8915
  660MOL0     C88993   7.552   1.814   1.066 -1.2476 -0.4426 -0.6772
  660MOL0     C88994   7.686   1.756   1.102 -0.5369  0.1095  0.5895
  660MOL0     O88995   7.781   1.844   1.144 -0.6309  0.4204  0.2877
  660MOL0     C88996   7.910   1.815   1.169 -0.1983 -0.2097  0.4655
  660MOL0     C88997   7.983   1.719   1.099 -0.8210  1.2516 -0.8618
  660MOL0     C88998   8.123   1.707   1.108  0.4966 -0.0013 -0.1005
  660MOL0     C88999   8.200   1.791   1.193  0.0681  0.1539 -0.0095
  660MOL0     O89000   8.343   1.776   1.200 -0.4702  0.2173 -0.5837
  660MOL0     C89001   8.407   1.887   1.264  0.2262  1.2400 -0.4728
  660MOL0     C89002   8.551   1.852   1.259  0.6060  0.2646  0.4249
  660MOL0     C89003   8.634   1.932   1.359  0.4939  0.1217  0.1236
  660MOL0     C89004   8.668   1.858   1.489 -0.0127  0.0633  0.4476
  660MOL0     C89005   8.775   1.944   1.564 -1.1258 -1.0978 -0.3675
  660MOL0     C89006   8.836   1.865   1.687  0.0038 -0.3418 -0.6002
  660MOL0     C89007   8.904   1.952   1.788 -0.2787 -0.1862 -0.6612
  660MOL0     C89008   8.952   1.869   1.904 -0.3565  0.9008 -0.2877
  660MOL0    Cl89009   9.094   1.759   1.874  0.1118  0.3260 -0.1147
  660MOL0     C89010   8.122   1.892   1.262 -0.2335  0.1985  1.0428
  660MOL0     C89011   7.979   1.900   1.252 -0.0471  0.1492  0.0067
  660MOL0     O89012   7.710   1.637   1.094 -0.7728 -0.2145 -0.2736
  660MOL0     C89013   7.526   1.953   1.051  0.5061  0.0921  1.0480
  660MOL0     C89014   7.397   1.999   1.007 -0.8380 -1.1472 -0.8499
  660MOL0     N89015   6.755   1.863   0.477 -0.1664  0.3855 -0.7835
  660MOL0     N89016   6.685   1.763   0.447  1.0655  0.0070  0.3034
  660MOL0     C89017   5.608   0.976   0.482 -1.1513  0.5777  0.6851
  660MOL0     C89018   5.467   0.987   0.497  0.2763  0.8492  0.8072
  660MOL0     C89019   5.069   1.187   0.672  0.6425 -0.6029  0.0012
  660MOL0     C89020   4.992   1.312   0.677  0.1866  0.2438  0.4614
  660MOL0     C89021   4.855   1.302   0.719  0.5264  0.2628 -0.5340
  660MOL0     C89022   4.781   1.179   0.736  0.8514 -0.5757 -1.1006
  660MOL0     O89023   4.648   1.185   0.777 -0.6036 -0.5661  1.0417
  660MOL0     C89024   4.585   1.063   0.824  0.3021 -1.1132 -0.4162
  660MOL0     C89025   4.489   1.002   0.710  0.2551  0.5462  0.2473
  660MOL0     C89026   4.354   1.083   0.708 -0.2294 -0.0708 -0.6324
  660MOL0     C89027   4.267   1.068   0.582 -0.1983  0.0145  0.4486
  660MOL0     C89028   4.123   1.094   0.607  0.4782 -0.0292 -0.4371
  660MOL0     C89029   4.006   1.114   0.642  0.5013  0.1975 -0.9714
  660MOL0     C89030   4.856   1.063   0.726  0.2306  0.1026 -0.8520
  660MOL0     C89031   4.997   1.065   0.700  1.0328  1.1831 -0.0640
  660MOL0     C89032   5.070   0.927   0.701  0.2121  0.2658 -0.6958
  660MOL0     H89033   5.469   1.229   0.731  1.1451  1.5150 -2.7166
  660MOL0     H89034   5.707   1.228   0.694  0.4129  0.5348 -0.4623
  660MOL0     H89035   5.871   1.234   0.475 -0.5550 -0.7201  0.7857
  660MOL0     H89036   5.909   1.186   0.648  1.2041  3.8752 -0.6040
  660MOL0     H89037   6.043   1.078   0.401 -0.2514  2.0468 -1.4022
  660MOL0     H89038   6.090   1.045   0.570 -1.2273 -1.8535 -2.0376
  660MOL0     H89039   6.087   1.319   0.440  2.3099  0.1501  0.1939
  660MOL0     H89040   6.217   1.215   0.464  0.8178 -0.9691  0.7649
  660MOL0     H89041   6.054   1.385   0.655 -0.2532 -0.9124  0.1853
  660MOL0     H89042   6.131   1.254   0.727 -2.9575  1.7619  1.5279
  660MOL0     H89043   6.306   1.378   0.759 -1.0608 -0.4355  0.4381
  660MOL0     H89044   6.349   1.337   0.603  1.0464 -0.5224  1.1098
  660MOL0     H89045   6.267   1.537   0.493  3.0027 -0.3600 -0.9627
  660MOL0     H89046   6.187   1.592   0.644 -0.4877 -0.5568 -1.6357
  660MOL0     H89047   6.414   1.620   0.749 -3.1280  0.5851  1.8088
  660MOL0     H89048   6.348   1.726   0.633 -2.0227 -1.0474  0.1593
  660MOL0     H89049   6.570   1.513   0.600  2.7631  0.7634 -0.4948
  660MOL0     H89050   6.490   1.576   0.460 -0.4041 -0.3543  1.1412
  660MOL0     H89051   6.631   1.782   0.769  0.7253 -0.9023 -0.3266
  660MOL0     H89052   6.801   2.098   0.612  1.3221 -0.0718 -0.7075
  660MOL0     H89053   6.744   2.043   0.765 -0.2262  2.3174 -2.1230
  660MOL0     H89054   6.973   1.900   0.632  0.9732  0.2399 -1.0961
  660MOL0     H89055   7.013   2.049   0.701 -1.6113  0.0962  1.4032
  660MOL0     H89056   6.868   1.825   0.866 -1.0769  1.3760 -0.6452
  660MOL0     H89057   6.899   1.983   0.930  0.0761 -0.5608  0.1900
  660MOL0     H89058   7.119   1.815   0.802 -0.0061  2.6042 -1.0554
  660MOL0     H89059   7.061   1.783   0.969  2.8491  1.7525  2.4476
  660MOL0     H89060   7.234   1.691   0.994 -0.4837  0.2577 -2.0305
  660MOL0     H89061   7.452   1.626   1.070 -1.8324  0.1869  0.8578
  660MOL0     H89062   7.922   1.665   1.027  0.3926  1.6248 -2.1827
  660MOL0     H89063   8.167   1.626   1.052 -1.6405 -0.6457 -0.9359
  660MOL0     H89064   8.386   1.983   1.214 -2.1582 -0.2711 -2.6105
  660MOL0     H89065   8.376   1.894   1.368  1.6645  0.9546  0.0026
  660MOL0     H89066   8.572   1.749   1.286  3.0238  0.3273 -0.9562
  660MOL0     H89067   8.598   1.879   1.164  1.9506  1.6261  1.4185
  660MOL0     H89068   8.723   1.975   1.313 -0.6201  1.3417 -0.9832
  660MOL0     H89069   8.584   2.026   1.383 -0.6695  0.1003 -1.9522
  660MOL0     H89070   8.707   1.758   1.468 -1.3767 -0.6630  1.2195
  660MOL0     H89071   8.580   1.847   1.554  0.4760 -1.3838  0.9113
  660MOL0     H89072   8.728   2.041   1.583 -1.4254 -1.6328  1.9754
  660MOL0     H89073   8.864   1.977   1.509 -0.1646  1.6182  2.5424
  660MOL0     H89074   8.764   1.795   1.729 -2.2654  2.5479  0.6565
  660MOL0     H89075   8.919   1.807   1.646  0.5495  0.4267 -0.6214
  660MOL0     H89076   8.835   2.029   1.824 -2.7248 -3.0870  1.3679
  660MOL0     H89077   8.992   1.997   1.741 -0.8159  1.7642  0.0938
  660MOL0     H89078   8.982   1.937   1.984  1.1394  0.4300 -0.4194
  660MOL0     H89079   8.873   1.803   1.941  0.3358 -0.7902 -1.7088
  660MOL0     H89080   8.164   1.972   1.322  0.3535  0.9801 -0.3769
  660MOL0     H89081   7.943   1.992   1.298  3.1870  1.3711  0.3675
  660MOL0     H89082   7.600   2.032   1.046  0.1271  0.3726 -0.8739
  660MOL0     H89083   7.389   2.107   1.003  0.4688 -0.8369  1.9396
  660MOL0     H89084   5.658   0.907   0.415  0.0592  0.2388  1.8926
  660MOL0     H89085   5.397   0.919   0.451  2.0659 -0.5282  0.0025
  660MOL0     H89086   5.027   1.414   0.668 -3.3824  1.7399  2.1473
  660MOL0     H89087   4.799   1.393   0.739  0.0090 -0.3285  0.8321
  660MOL0     H89088   4.520   1.082   0.910  0.6072 -4.3627  0.7037
  660MOL0     H89089   4.663   0.997   0.862  2.4801  1.5369 -0.0255
  660MOL0     H89090   4.465   0.898   0.733 -2.6162  0.3819 -2.7561
  660MOL0     H89091   4.534   1.005   0.610  0.1913 -1.0873  0.1450
  660MOL0     H89092   4.370   1.190   0.727 -1.6659 -0.2687  2.5182
  660MOL0     H89093   4.309   1.065   0.807  1.8712  1.9116  0.7845
  660MOL0     H89094   4.304   1.138   0.507  0.0741  2.6369  2.8565
  660MOL0     H89095   4.277   0.965   0.546 -2.7037  0.3664 -1.4782
  660MOL0     H89096   3.906   1.138   0.670  0.6233  0.2285 -0.5488
  660MOL0     H89097   4.824   0.964   0.757 -0.5396  0.7265  0.4506
  660MOL0     H89098   5.168   0.944   0.746 -0.8117  1.3731  1.2702
  660MOL0     H89099   5.019   0.848   0.756  2.1299 -0.5802 -0.0587
  660MOL0     H89100   5.086   0.880   0.604  0.9254 -1.5391  0.2500
  661MOL0     O89101   7.306   9.562   9.650  0.4912 -0.1458 -0.4040
  661MOL0     C89102   7.262   9.546   9.542 -0.5285  0.2543 -1.1884
  661MOL0     O89103   7.304   9.596   9.425  0.2679  0.0193 -0.3805
  661MOL0     C89104   7.409   9.683   9.434  0.2931 -0.8348  0.3897
  661MOL0     C89105   7.533   9.646   9.386  0.2458  1.1041  0.4287
  661MOL0     C89106   7.652   9.727   9.411 -0.4218 -0.6959 -0.4167
  661MOL0     C89107   7.642   9.836   9.497  0.5812 -0.6828  0.0911
  661MOL0     O89108   7.751   9.904   9.543  0.1021  0.4260  0.3095
  661MOL0     C89109   7.853   9.934   9.455 -0.0751 -0.3596 -0.3545
  661MOL0     C89110   7.957  10.027   9.523  0.2176 -0.1542  0.4865
  661MOL0     C89111   8.077  10.071   9.438 -0.8326  0.7286 -0.6617
  661MOL0     C89112   8.144  10.190   9.488 -0.4993 -0.8021 -0.0583
  661MOL0     C89113   8.280  10.237   9.432  0.1130  0.0015  0.4231
  661MOL0     C89114   8.387  10.142   9.442  1.1977 -0.1011  0.5480
  661MOL0     C89115   8.523  10.210   9.451 -0.1223 -0.0783 -0.1300
  661MOL0     C89116   8.648  10.121   9.448 -0.6561 -0.3229 -0.1530
  661MOL0     N89117   8.672  10.073   9.319  0.1571 -0.0167 -0.3663
  661MOL0     C89118   8.698  10.146   9.206  0.7887 -0.5044 -0.9260
  661MOL0     C89119   8.703  10.059   9.100 -0.1446  0.4177 -0.1869
  661MOL0     C89120   8.734  10.089   8.954  0.1239  0.5799 -0.2250
  661MOL0     C89121   8.869  10.158   8.939 -0.7666  0.1632  0.0411
  661MOL0     C89122   8.923  10.170   8.797  0.0846 -0.5055  0.3371
  661MOL0     C89123   9.068  10.226   8.795  0.2145 -0.1215 -0.6218
  661MOL0     O89124   9.077  10.359   8.859  0.3112  0.5387  0.0311
  661MOL0     C89125   9.203  10.416   8.873  0.9976  1.0175  0.7394
  661MOL0     C89126   9.326  10.365   8.834 -0.6230 -0.3681 -0.2685
  661MOL0     C89127   9.445  10.443   8.848  0.0246 -0.1751  0.3158
  661MOL0     C89128   9.436  10.577   8.902 -0.8441 -0.2551  0.2162
  661MOL0     C89129   9.564  10.654   8.911  0.1046 -0.5577 -0.7540
  661MOL0     O89130   9.679  10.593   8.889 -0.0442  0.3793  0.3416
  661MOL0     C89131   9.794  10.648   8.946 -0.8275  0.6867  0.8195
  661MOL0     C89132   9.915  10.632   8.882  1.0612 -0.0989  0.7201
  661MOL0     C89133  10.038  10.689   8.930  0.2790 -1.0562  0.8454
  661MOL0     C89134  10.033  10.772   9.043 -1.2021  0.8083 -0.2178
  661MOL0     O89135  10.138  10.841   9.100 -0.3109 -0.2593  0.8732
  661MOL0     C89136  10.266  10.862   9.037  0.2131 -0.1040  0.3087
  661MOL0     C89137  10.366  10.786   9.112 -0.4587 -0.0077 -0.7248
  661MOL0     C89138  10.504  10.779   9.057 -0.1182  0.1429  0.7112
  661MOL0     C89139  10.589  10.658   9.108 -0.1950 -0.1768 -0.2065
  661MOL0     C89140  10.725  10.635   9.029  0.2163  0.4409  0.6223
  661MOL0     C89141  10.848  10.721   9.058 -0.5511 -0.6299  0.4115
  661MOL0     C89142  10.881  10.714   9.208 -0.4561 -0.7192  0.3917
  661MOL0     C89143  11.010  10.801   9.248 -0.2218  0.9183 -0.0353
  661MOL0    Cl89144  11.152  10.724   9.162  0.3923 -0.0944 -0.0508
  661MOL0     C89145   9.918  10.770   9.115  0.4992  0.1955  0.5237
  661MOL0     C89146   9.801  10.710   9.073  0.8114  0.1654 -0.2856
  661MOL0     O89147   9.545  10.770   8.965  0.2315 -0.0711 -0.0313
  661MOL0     C89148   9.302  10.634   8.919  0.7340  0.9388  0.6091
  661MOL0     C89149   9.191  10.553   8.912 -0.2875  0.6049 -1.1071
  661MOL0     N89150   8.671   9.928   9.153 -0.5761 -0.3599  0.1623
  661MOL0     N89151   8.651   9.945   9.281  0.3763 -0.0779  0.3684
  661MOL0     C89152   7.519   9.881   9.540  0.8473  0.5394 -0.9435
  661MOL0     C89153   7.405   9.809   9.492 -0.1348 -0.1795  0.0709
  661MOL0     C89154   7.134   9.455   9.539  0.1347 -0.3057  0.0924
  661MOL0     C89155   7.071   9.443   9.416  0.5304  0.4179  0.1863
  661MOL0     C89156   6.965   9.360   9.402  0.3275 -0.0309 -0.5815
  661MOL0     C89157   6.897   9.310   9.513 -0.3235  0.0425 -0.6396
  661MOL0     O89158   6.786   9.232   9.483 -0.1842  0.0698 -0.5256
  661MOL0     C89159   6.726   9.152   9.582  0.0872  0.0118  0.6063
  661MOL0     C89160   6.616   9.069   9.521 -0.0297  0.9054 -0.4886
  661MOL0     C89161   6.677   8.952   9.435 -0.1921 -0.2482 -0.6763
  661MOL0     C89162   6.743   9.001   9.303 -0.0043 -0.9764  0.6215
  661MOL0     C89163   6.672   9.103   9.223 -0.5173 -0.4081 -0.1143
  661MOL0     C89164   6.636   9.197   9.149  0.9562 -0.1187 -0.0371
  661MOL0     C89165   6.955   9.321   9.641 -0.5241 -0.1997 -0.4992
  661MOL0     C89166   7.071   9.400   9.656 -0.2109  0.2927 -0.9222
  661MOL0     C89167   7.113   9.413   9.800 -0.2137  0.0524  0.1037
  661MOL0     H89168   7.549   9.557   9.325  0.8071  2.0702 -0.8728
  661MOL0     H89169   7.743   9.687   9.368 -0.3848 -2.6305  1.3116
  661MOL0     H89170   7.907   9.847   9.414  0.6090  0.1968 -0.6597
  661MOL0     H89171   7.804   9.980   9.369  0.2109 -1.0148 -0.8763
  661MOL0     H89172   7.989   9.966   9.608  1.3493 -0.0123  0.1769
  661MOL0     H89173   7.906  10.114   9.567  1.6177  2.5559 -2.8250
  661MOL0     H89174   8.048  10.069   9.332  0.6464  0.1470 -1.0929
  661MOL0     H89175   8.149   9.988   9.446 -1.7777 -0.1183 -0.8160
  661MOL0     H89176   8.076  10.276   9.487 -3.3395 -2.8393 -2.9847
  661MOL0     H89177   8.159  10.177   9.595 -0.5581  2.9885  0.5567
  661MOL0     H89178   8.272  10.261   9.326  2.6919 -0.6920  0.0179
  661MOL0     H89179   8.315  10.325   9.487 -2.3510  1.1013  0.3638
  661MOL0     H89180   8.365  10.088   9.535 -0.5290  1.0928  0.8765
  661MOL0     H89181   8.381  10.075   9.356  0.6140 -0.3627  0.7917
  661MOL0     H89182   8.528  10.267   9.544 -1.7200  1.8518 -1.1588
  661MOL0     H89183   8.533  10.289   9.376 -1.1298  0.7230  0.5524
  661MOL0     H89184   8.734  10.172   9.490 -1.4922  1.0260 -0.0292
  661MOL0     H89185   8.626  10.032   9.509 -0.0229 -0.8992 -0.7424
  661MOL0     H89186   8.709  10.254   9.210 -0.1492 -0.4326  0.9052
  661MOL0     H89187   8.745   9.999   8.893 -0.5011 -0.1645  0.7160
  661MOL0     H89188   8.654  10.151   8.913  0.0069  1.0801  0.7238
  661MOL0     H89189   8.862  10.252   8.995 -0.8640 -1.2837  2.6210
  661MOL0     H89190   8.936  10.091   8.993 -0.6258  0.5254  0.3173
  661MOL0     H89191   8.851  10.237   8.748  1.2699 -0.1051 -0.9286
  661MOL0     H89192   8.933  10.073   8.747  2.3648 -0.5722  0.8282
  661MOL0     H89193   9.109  10.219   8.694 -0.5004 -0.9584 -0.8679
  661MOL0     H89194   9.127  10.153   8.851 -1.0855 -0.3606  0.5079
  661MOL0     H89195   9.335  10.262   8.799  1.3177  0.3711 -2.1322
  661MOL0     H89196   9.544  10.406   8.824  0.1706  0.2012  0.3278
  661MOL0     H89197   9.916  10.603   8.778  0.3597  2.1631  0.0288
  661MOL0     H89198  10.130  10.679   8.874 -0.5316  3.2214 -1.7310
  661MOL0     H89199  10.264  10.843   8.929  0.3301  2.0774 -0.1375
  661MOL0     H89200  10.295  10.966   9.054 -1.6262  0.8130 -1.6752
  661MOL0     H89201  10.369  10.820   9.215 -0.9583 -2.4795  0.1800
  661MOL0     H89202  10.341  10.679   9.108  0.5554 -0.4175  1.9896
  661MOL0     H89203  10.496  10.760   8.950 -0.2041 -1.4227  0.9658
  661MOL0     H89204  10.552  10.875   9.077 -0.8963  0.4424  1.1743
  661MOL0     H89205  10.524  10.571   9.103  0.4145 -0.7261  1.0287
  661MOL0     H89206  10.604  10.661   9.217 -4.3388  0.5176  0.5197
  661MOL0     H89207  10.707  10.642   8.921 -1.1536 -2.2419  0.6052
  661MOL0     H89208  10.743  10.531   9.056  0.2485  0.3708  0.3392
  661MOL0     H89209  10.936  10.691   9.001  1.3187  1.1143  2.2077
  661MOL0     H89210  10.819  10.819   9.019  1.2738  0.4403  1.6214
  661MOL0     H89211  10.884  10.611   9.245 -0.2295 -0.9447 -0.2568
  661MOL0     H89212  10.801  10.760   9.268  0.1861  2.5637 -1.0384
  661MOL0     H89213  11.006  10.905   9.215 -0.0861  0.7970 -0.4362
  661MOL0     H89214  11.023  10.808   9.356  2.5716  0.0821 -0.2508
  661MOL0     H89215   9.907  10.820   9.211 -2.8059 -0.4055  0.5706
  661MOL0     H89216   9.715  10.727   9.137 -0.1587 -1.5292 -1.0918
  661MOL0     H89217   9.306  10.742   8.930  3.9821  1.5243 -3.4973
  661MOL0     H89218   9.100  10.612   8.913  0.9197  2.5829 -2.0597
  661MOL0     H89219   7.512   9.969   9.604  0.0113  0.0586 -0.3562
  661MOL0     H89220   7.316   9.858   9.531 -0.4626 -0.8431  0.1646
  661MOL0     H89221   7.120   9.490   9.331  2.4256 -0.0147  0.9813
  661MOL0     H89222   6.932   9.319   9.307  2.9912 -1.2339 -1.0837
  661MOL0     H89223   6.693   9.215   9.665 -0.1300  4.9681 -2.7668
  661MOL0     H89224   6.788   9.078   9.633 -1.5706 -0.9534  1.3154
  661MOL0     H89225   6.558   9.138   9.460  0.0760  2.5558  1.1951
  661MOL0     H89226   6.565   9.025   9.608 -0.8586  1.0380 -0.8986
  661MOL0     H89227   6.595   8.880   9.427 -3.4301  2.7149  2.3715
  661MOL0     H89228   6.757   8.899   9.488 -0.0960  1.0071  0.4780
  661MOL0     H89229   6.843   9.037   9.328  0.0746 -1.8647  1.6629
  661MOL0     H89230   6.763   8.919   9.234  1.7402 -1.3212  1.4654
  661MOL0     H89231   6.606   9.268   9.075 -1.4526 -1.6660 -0.6654
  661MOL0     H89232   6.911   9.284   9.733  1.2705  0.9885  0.9074
  661MOL0     H89233   7.126   9.520   9.823 -0.9626 -0.0251  0.9683
  661MOL0     H89234   7.043   9.358   9.863  0.8612 -2.0825 -0.4888
  661MOL0     H89235   7.214   9.372   9.812 -0.1408 -0.3785 -1.7299
  662MOL0     O89236   6.009   7.561   9.792  0.3301 -0.2304  0.3593
  662MOL0     C89237   6.094   7.625   9.734  0.3274  0.0685  0.3664
  662MOL0     O89238   6.087   7.655   9.603  0.5130 -0.2477 -0.3638
  662MOL0     C89239   5.980   7.607   9.519 -0.6843 -0.3063 -0.7805
  662MOL0     C89240   6.001   7.552   9.392 -0.8800 -0.0806 -0.4358
  662MOL0     C89241   5.893   7.515   9.313  0.6300 -0.5574 -0.4004
  662MOL0     C89242   5.760   7.526   9.361 -0.4843  0.1303  0.0321
  662MOL0     O89243   5.658   7.476   9.271  0.0476 -0.2190  0.3935
  662MOL0     C89244   5.524   7.477   9.317  0.0122  0.1781 -0.3969
  662MOL0     C89245   5.415   7.428   9.221  0.0788  0.0285 -0.1118
  662MOL0     C89246   5.403   7.520   9.103 -0.2947  0.4406 -0.2708
  662MOL0     C89247   5.312   7.455   8.996 -0.4280 -0.9708 -0.0619
  662MOL0     C89248   5.292   7.552   8.882  0.1437 -0.1573 -0.4482
  662MOL0     C89249   5.232   7.474   8.768  0.3872  0.2932  0.7035
  662MOL0     C89250   5.099   7.412   8.802  0.2785 -0.3114 -0.0113
  662MOL0     C89251   5.025   7.363   8.683  0.0027 -0.1884 -0.4514
  662MOL0     N89252   4.907   7.295   8.752 -0.1035  0.2990  0.3028
  662MOL0     C89253   4.814   7.374   8.809  0.0523 -0.0266  0.1694
  662MOL0     C89254   4.700   7.306   8.789 -0.0402  0.2098 -0.1436
  662MOL0     C89255   4.560   7.344   8.835  0.7058  0.3013 -0.1149
  662MOL0     C89256   4.529   7.288   8.972  0.3976 -0.3284 -0.4553
  662MOL0     C89257   4.555   7.389   9.090 -0.6453 -0.3376  0.0391
  662MOL0     C89258   4.440   7.482   9.097  0.0723  0.2964  0.3777
  662MOL0     O89259   4.444   7.566   9.214  0.4006  0.8512  0.0512
  662MOL0     C89260   4.531   7.674   9.213  0.2194  0.5691 -0.2695
  662MOL0     C89261   4.619   7.723   9.118  0.0096 -0.1337 -0.3646
  662MOL0     C89262   4.685   7.841   9.138 -0.8331  0.2042 -0.4511
  662MOL0     C89263   4.689   7.915   9.262  0.4425  0.3701 -0.0923
  662MOL0     C89264   4.782   8.030   9.274 -0.2390  0.0892  1.1366
  662MOL0     O89265   4.798   8.069   9.401  0.0508  0.4417  0.3404
  662MOL0     C89266   4.894   8.160   9.436 -0.9293 -0.1829 -0.3079
  662MOL0     C89267   4.880   8.301   9.392  0.7366  0.2890 -0.3256
  662MOL0     C89268   4.987   8.389   9.446  0.5273  0.5215 -1.1858
  662MOL0     C89269   5.085   8.349   9.529  0.0558 -0.2004  0.1663
  662MOL0     O89270   5.160   8.441   9.586  0.2005 -1.3395 -0.7782
  662MOL0     C89271   5.216   8.413   9.717 -0.1417 -0.5224  0.0937
  662MOL0     C89272   5.267   8.531   9.795 -0.3402 -0.2742  0.4178
  662MOL0     C89273   5.193   8.657   9.754 -0.2950  0.7770  0.7526
  662MOL0     C89274   5.196   8.762   9.862 -0.3749  1.0732  0.4871
  662MOL0     C89275   5.064   8.830   9.887  0.0601  0.0398  0.4790
  662MOL0     C89276   5.079   8.930   9.999  0.5321  0.6741  0.2325
  662MOL0     C89277   4.964   9.035  10.027  0.7843 -0.5341 -0.0284
  662MOL0     C89278   5.027   9.131  10.130 -0.9905  0.0751 -0.7037
  662MOL0    Cl89279   5.053   9.048  10.283  0.1388  0.1818  0.4549
  662MOL0     C89280   5.100   8.218   9.559 -0.0819 -0.0869  0.5299
  662MOL0     C89281   5.005   8.121   9.514  0.2778 -0.2599 -0.3581
  662MOL0     O89282   4.819   8.100   9.176  0.7162 -0.2463 -0.1867
  662MOL0     C89283   4.618   7.856   9.364 -1.2348  0.0462 -0.4001
  662MOL0     C89284   4.536   7.744   9.339  0.7018 -0.0903  0.1179
  662MOL0     N89285   4.733   7.180   8.731 -0.5509  0.8891 -0.3546
  662MOL0     N89286   4.856   7.177   8.693 -0.3709 -0.3377 -0.0730
  662MOL0     C89287   5.736   7.595   9.482 -0.5444  1.2468  0.2796
  662MOL0     C89288   5.841   7.638   9.562  0.3599  0.4561  0.1188
  662MOL0     C89289   6.213   7.660   9.815  0.0274 -1.4460  0.1025
  662MOL0     C89290   6.215   7.646   9.949  0.0257 -0.8791 -0.8970
  662MOL0     C89291   6.315   7.686  10.033 -0.7413  0.4279 -0.6370
  662MOL0     C89292   6.433   7.754   9.974  0.0405  0.3542  0.4288
  662MOL0     O89293   6.526   7.824  10.044  0.2093 -0.3680 -0.3035
  662MOL0     C89294   6.530   7.815  10.188 -0.1161 -0.3129  0.3601
  662MOL0     C89295   6.642   7.896  10.253  0.1586 -0.8754 -0.1116
  662MOL0     C89296   6.688   8.020  10.162 -0.3757 -0.8060 -0.4511
  662MOL0     C89297   6.832   8.059  10.195 -0.9119 -0.4329 -0.0919
  662MOL0     C89298   6.825   8.161  10.305  0.2285 -0.4105 -0.2706
  662MOL0     C89299   6.814   8.256  10.378  0.2617 -0.2858 -0.1576
  662MOL0     C89300   6.436   7.761   9.838 -0.1954  0.2128  0.0047
  662MOL0     C89301   6.330   7.712   9.755 -0.0399 -1.2107  0.0232
  662MOL0     C89302   6.358   7.731   9.611  0.0762  0.2839  0.1136
  662MOL0     H89303   6.097   7.548   9.341 -2.1804 -1.5103 -3.0140
  662MOL0     H89304   5.924   7.461   9.225  0.9762 -2.8920  1.0632
  662MOL0     H89305   5.531   7.406   9.400  0.6786 -0.7808 -1.2542
  662MOL0     H89306   5.508   7.578   9.357  0.9371 -0.8679  2.9404
  662MOL0     H89307   5.322   7.411   9.276 -1.3613 -1.5330 -2.7732
  662MOL0     H89308   5.441   7.329   9.181 -1.1707 -0.3668  0.0237
  662MOL0     H89309   5.500   7.549   9.061  0.5938 -0.9829  0.7181
  662MOL0     H89310   5.345   7.608   9.135 -1.6155 -0.9548  1.4102
  662MOL0     H89311   5.361   7.372   8.946 -0.3673 -0.5342 -0.7520
  662MOL0     H89312   5.217   7.431   9.045  0.3845 -1.8631  1.1271
  662MOL0     H89313   5.229   7.634   8.918  0.4563 -0.1734  0.1466
  662MOL0     H89314   5.388   7.593   8.849  0.2054  0.3427  0.3235
  662MOL0     H89315   5.228   7.546   8.686  0.1066  0.5657  0.9573
  662MOL0     H89316   5.303   7.396   8.738  0.9641  1.3811 -0.9439
  662MOL0     H89317   5.037   7.491   8.845 -0.4853 -1.6601  1.4536
  662MOL0     H89318   5.122   7.337   8.878  1.5339  1.2985  1.2845
  662MOL0     H89319   4.983   7.440   8.619 -1.3915 -1.2830 -0.9163
  662MOL0     H89320   5.075   7.286   8.623 -0.3846 -3.5091  3.1211
  662MOL0     H89321   4.808   7.477   8.842  2.4539 -0.3988  1.9767
  662MOL0     H89322   4.552   7.453   8.836 -0.6637  0.2090  0.7849
  662MOL0     H89323   4.485   7.306   8.766 -2.2336  1.0277  2.4759
  662MOL0     H89324   4.421   7.267   8.968  0.3386 -0.4976  1.2398
  662MOL0     H89325   4.577   7.191   8.987 -1.9259 -1.7029 -1.3443
  662MOL0     H89326   4.642   7.453   9.078 -1.0251  0.4493  1.4119
  662MOL0     H89327   4.565   7.336   9.185  2.6583 -0.3009 -0.1782
  662MOL0     H89328   4.345   7.429   9.099 -1.0004  2.0494  4.3961
  662MOL0     H89329   4.449   7.547   9.009 -0.1064 -1.3029 -0.8639
  662MOL0     H89330   4.612   7.673   9.022  0.5792 -1.3664  0.2030
  662MOL0     H89331   4.724   7.887   9.048  0.2025 -2.2888 -1.3774
  662MOL0     H89332   4.798   8.340   9.332  0.3491 -2.5901 -1.8642
  662MOL0     H89333   4.970   8.493   9.420 -2.0769  0.4083 -0.2639
  662MOL0     H89334   5.128   8.388   9.778 -0.2984 -1.0270 -0.3403
  662MOL0     H89335   5.291   8.335   9.706 -0.6518 -0.7793 -1.8392
  662MOL0     H89336   5.262   8.512   9.902  1.6657 -3.6535  0.0754
  662MOL0     H89337   5.372   8.535   9.763 -0.3671  0.1554  0.3769
  662MOL0     H89338   5.257   8.698   9.676  2.3197  0.9999  2.8655
  662MOL0     H89339   5.093   8.643   9.712  1.0430 -3.3439 -1.6618
  662MOL0     H89340   5.277   8.826   9.829  0.9124 -0.4400  0.5677
  662MOL0     H89341   5.225   8.722   9.960 -0.5743  0.0685  0.1571
  662MOL0     H89342   4.983   8.761   9.910  2.5045 -3.0693  0.3496
  662MOL0     H89343   5.044   8.895   9.800 -2.1058 -2.3369 -0.9347
  662MOL0     H89344   5.094   8.875  10.092  1.9820 -1.0679 -0.9515
  662MOL0     H89345   5.172   8.982   9.978  0.2436  0.8480 -0.6490
  662MOL0     H89346   4.871   8.992  10.067 -0.2498  2.8507  1.5183
  662MOL0     H89347   4.930   9.094   9.941  0.1349 -1.5029 -0.4554
  662MOL0     H89348   5.119   9.178  10.096  0.6171 -2.9084 -0.7877
  662MOL0     H89349   4.952   9.209  10.150 -1.2351 -0.2915 -0.1458
  662MOL0     H89350   5.184   8.186   9.620  0.1572  0.1497  0.3274
  662MOL0     H89351   5.010   8.020   9.554 -0.1188 -0.4280 -0.7162
  662MOL0     H89352   4.628   7.891   9.467  0.8221  1.0716 -0.8902
  662MOL0     H89353   4.477   7.704   9.420 -3.6247  1.3956 -1.9950
  662MOL0     H89354   5.635   7.625   9.505 -0.5693 -1.0181  3.8877
  662MOL0     H89355   5.813   7.696   9.650  1.2639 -0.8001  1.2644
  662MOL0     H89356   6.128   7.608  10.001 -0.2868 -0.3173 -0.9992
  662MOL0     H89357   6.303   7.680  10.141  0.2553 -0.3896 -0.5554
  662MOL0     H89358   6.546   7.716  10.230 -0.8781 -0.3368  0.6251
  662MOL0     H89359   6.431   7.852  10.218 -0.1907  0.2381 -0.5064
  662MOL0     H89360   6.727   7.832  10.276  0.3320 -0.0887  1.5472
  662MOL0     H89361   6.612   7.933  10.352  1.9402 -0.9955  0.5002
  662MOL0     H89362   6.624   8.108  10.178 -1.4046 -1.7171  0.5693
  662MOL0     H89363   6.682   8.001  10.054 -0.3998  1.4214 -0.9097
  662MOL0     H89364   6.894   7.975  10.227  1.1716  0.3907 -1.6604
  662MOL0     H89365   6.878   8.105  10.107 -0.1760  1.1927  1.0833
  662MOL0     H89366   6.809   8.339  10.446  2.4850  1.2398 -1.7264
  662MOL0     H89367   6.523   7.805   9.791 -0.4666 -0.6040 -1.2964
  662MOL0     H89368   6.286   7.807   9.579 -3.4223 -3.1143 -0.8203
  662MOL0     H89369   6.458   7.771   9.590 -0.2425  0.3366 -1.4878
  662MOL0     H89370   6.338   7.644   9.547  1.2214 -0.6894  1.0367
  663MOL0     O89371   7.075   9.481  11.044 -0.1787  0.7127 -0.6070
  663MOL0     C89372   6.979   9.549  11.021  0.4577  0.1402 -0.5353
  663MOL0     O89373   6.970   9.651  10.939 -0.0347  0.1854 -0.0972
  663MOL0     C89374   7.081   9.698  10.863  0.5577 -0.3633  0.2184
  663MOL0     C89375   7.133   9.821  10.897  0.3641  0.2423  0.3547
  663MOL0     C89376   7.247   9.871  10.834  0.1835  0.3546 -0.0618
  663MOL0     C89377   7.318   9.786  10.741 -0.1320 -0.5217  0.7069
  663MOL0     O89378   7.442   9.818  10.692 -0.6227  0.6205  0.1484
  663MOL0     C89379   7.484   9.956  10.670  0.7078  0.9847  0.2283
  663MOL0     C89380   7.391  10.017  10.570  1.5013  0.0194  0.3311
  663MOL0     C89381   7.436  10.148  10.521  0.5736 -0.5912  0.2341
  663MOL0     C89382   7.348  10.200  10.410  0.4464 -0.1609  1.1578
  663MOL0     C89383   7.363  10.352  10.375  0.2031 -0.4988  0.3555
  663MOL0     C89384   7.495  10.379  10.299 -0.2419  0.6178 -0.0626
  663MOL0     C89385   7.525  10.522  10.250  0.8787 -0.4938  0.2848
  663MOL0     C89386   7.651  10.536  10.175  0.2858 -0.1704  1.2562
  663MOL0     N89387   7.681  10.679  10.174  0.2677  0.1527  0.2048
  663MOL0     C89388   7.755  10.735  10.274  0.5071 -0.7200 -0.1280
  663MOL0     C89389   7.774  10.863  10.234  0.9464  0.4299  0.1077
  663MOL0     C89390   7.822  10.972  10.328  0.8482 -0.5232 -0.0751
  663MOL0     C89391   7.908  11.072  10.236  0.5722 -0.0292 -0.5592
  663MOL0     C89392   7.972  11.170  10.338  0.4393 -0.2886  0.5619
  663MOL0     C89393   8.061  11.273  10.278  1.0598 -0.5730 -0.3786
  663MOL0     O89394   8.187  11.208  10.227  0.0723  0.5816  0.0252
  663MOL0     C89395   8.293  11.279  10.188 -0.8719  0.3862  0.0368
  663MOL0     C89396   8.294  11.413  10.152  0.3221  0.3083 -0.0403
  663MOL0     C89397   8.412  11.478  10.113  0.3366 -0.3378  0.0925
  663MOL0     C89398   8.536  11.403  10.113 -0.6444  0.4175 -0.0717
  663MOL0     C89399   8.667  11.468  10.094 -0.8738 -0.5350  0.6929
  663MOL0     O89400   8.785  11.388  10.122  0.3160  0.0833  0.0715
  663MOL0     C89401   8.909  11.441  10.090  0.6715 -0.5706  0.5585
  663MOL0     C89402   9.000  11.378  10.016 -0.5993  1.0839  0.2332
  663MOL0     C89403   9.117  11.435   9.970  1.0152  0.3861  0.1573
  663MOL0     C89404   9.150  11.562  10.006  0.6732  0.2249 -0.2921
  663MOL0     O89405   9.270  11.621   9.986  0.6003 -0.8598  0.0981
  663MOL0     C89406   9.382  11.541   9.944 -0.4077  0.4574  0.3080
  663MOL0     C89407   9.514  11.623   9.971 -0.4135 -0.1672 -0.2304
  663MOL0     C89408   9.540  11.745   9.893 -0.2711 -0.8298 -0.3121
  663MOL0     C89409   9.587  11.714   9.744 -0.0325 -0.9536 -1.2168
  663MOL0     C89410   9.585  11.851   9.662 -1.1166 -0.4015 -0.8248
  663MOL0     C89411   9.688  11.850   9.549  0.9680  0.3701  0.5056
  663MOL0     C89412   9.832  11.802   9.576 -0.5476 -0.1962  0.3206
  663MOL0     C89413   9.934  11.852   9.480  0.1884 -0.1588  0.1638
  663MOL0    Cl89414  10.088  11.764   9.499  0.5966 -0.1412 -0.3927
  663MOL0     C89415   9.058  11.645  10.076 -0.7458 -0.1933 -0.3426
  663MOL0     C89416   8.940  11.574  10.115 -0.4438 -0.2721 -0.9360
  663MOL0     O89417   8.666  11.582  10.049  0.4250 -0.6640  0.4345
  663MOL0     C89418   8.529  11.257  10.136 -0.3185  0.1905  0.5218
  663MOL0     C89419   8.406  11.203  10.178 -0.4516  0.5351 -0.1971
  663MOL0     N89420   7.712  10.877  10.110  0.1735  0.2053  0.3208
  663MOL0     N89421   7.662  10.764  10.075 -0.2533 -0.5277  0.4479
  663MOL0     C89422   7.271   9.653  10.720  0.4424 -0.5841  0.2365
  663MOL0     C89423   7.155   9.610  10.788  0.7722 -0.5641  0.4973
  663MOL0     C89424   6.853   9.529  11.100 -0.1160  0.0338  1.2879
  663MOL0     C89425   6.790   9.640  11.149 -0.1287  0.1201 -0.0384
  663MOL0     C89426   6.676   9.617  11.229 -0.0808 -0.6532 -0.2034
  663MOL0     C89427   6.633   9.487  11.263  0.0151 -0.8815 -0.9287
  663MOL0     O89428   6.528   9.463  11.350  0.4830  0.1050 -0.2133
  663MOL0     C89429   6.469   9.573  11.417  0.3706  0.3121 -0.1388
  663MOL0     C89430   6.401   9.512  11.534 -0.3680 -0.0981 -0.3578
  663MOL0     C89431   6.348   9.622  11.627 -0.4605 -0.6031  0.6091
  663MOL0     C89432   6.439   9.708  11.724 -0.5411  0.9708 -0.2789
  663MOL0     C89433   6.366   9.797  11.811  0.0630  0.2436 -0.0981
  663MOL0     C89434   6.297   9.887  11.852  0.7461  0.6684 -0.0343
  663MOL0     C89435   6.708   9.380  11.230 -0.7203 -0.0862  0.1343
  663MOL0     C89436   6.809   9.399  11.133 -0.2552  0.3087 -0.6875
  663MOL0     C89437   6.892   9.276  11.105 -0.3756 -0.0671 -0.0226
  663MOL0     H89438   7.083   9.874  10.977 -0.4756 -1.6585  1.1252
  663MOL0     H89439   7.303   9.956  10.871  1.1518  0.3591 -1.4665
  663MOL0     H89440   7.477  10.004  10.768 -3.7749  0.4947  0.3787
  663MOL0     H89441   7.584   9.956  10.626  0.9318 -3.4937  0.3143
  663MOL0     H89442   7.287  10.011  10.604  1.9166 -2.4225  1.4160
  663MOL0     H89443   7.402   9.954  10.481  1.1611 -0.6482  0.7495
  663MOL0     H89444   7.540  10.139  10.487  0.2495  0.4074 -1.1494
  663MOL0     H89445   7.431  10.214  10.608 -1.3467  1.1978 -1.1304
  663MOL0     H89446   7.356  10.135  10.322  0.4951 -1.2065  1.9229
  663MOL0     H89447   7.251  10.190  10.458 -0.5046  2.4471 -0.0353
  663MOL0     H89448   7.288  10.364  10.296  2.3913 -0.1587 -1.7689
  663MOL0     H89449   7.344  10.422  10.457 -0.8856 -0.6545  0.2525
  663MOL0     H89450   7.576  10.339  10.361 -0.7836 -1.1974 -0.4721
  663MOL0     H89451   7.501  10.318  10.208  2.2430  0.3186  0.2274
  663MOL0     H89452   7.523  10.586  10.339 -2.2039 -0.3621  0.2151
  663MOL0     H89453   7.443  10.564  10.191  0.8200  0.9534  1.3339
  663MOL0     H89454   7.730  10.480  10.226  1.3999  3.3847  3.8036
  663MOL0     H89455   7.632  10.503  10.072  1.7381  2.5368  0.0173
  663MOL0     H89456   7.789  10.689  10.367  2.1134 -0.5984 -0.6283
  663MOL0     H89457   7.740  11.029  10.373  2.1748  0.9608  0.5760
  663MOL0     H89458   7.877  10.940  10.418 -0.5741  3.4268  2.4729
  663MOL0     H89459   7.997  11.023  10.196 -0.0683 -2.3666  0.7280
  663MOL0     H89460   7.851  11.122  10.157  0.3628 -1.0212 -1.0462
  663MOL0     H89461   8.029  11.115  10.414  1.3694  2.9220  2.4016
  663MOL0     H89462   7.884  11.225  10.372 -3.0276 -3.6514 -2.0210
  663MOL0     H89463   8.092  11.334  10.363  1.4999 -2.6190  1.0180
  663MOL0     H89464   8.020  11.335  10.198  4.3320 -0.7180 -2.3544
  663MOL0     H89465   8.203  11.472  10.152 -1.9393 -2.9023 -0.3846
  663MOL0     H89466   8.404  11.584  10.093 -1.5062 -0.3680  0.4850
  663MOL0     H89467   8.974  11.273  10.006  1.5531  0.3757  1.3609
  663MOL0     H89468   9.176  11.366   9.911  0.2870 -0.4150  0.3457
  663MOL0     H89469   9.373  11.446   9.997 -0.4239 -0.4252 -1.2032
  663MOL0     H89470   9.380  11.515   9.838 -1.5243  2.8531 -0.3436
  663MOL0     H89471   9.519  11.652  10.076 -1.4164 -1.0334  0.0775
  663MOL0     H89472   9.599  11.556   9.956  1.1475  1.8470 -0.7781
  663MOL0     H89473   9.458  11.817   9.897  0.7323  0.3045  2.9307
  663MOL0     H89474   9.620  11.799   9.944 -1.5798 -1.2942  2.4268
  663MOL0     H89475   9.520  11.645   9.691 -1.3519 -1.1265  0.5857
  663MOL0     H89476   9.682  11.659   9.748  1.2897  1.2978  1.9687
  663MOL0     H89477   9.597  11.938   9.728 -0.4945 -1.2129  0.1624
  663MOL0     H89478   9.486  11.857   9.616 -0.3684  2.9297 -2.3165
  663MOL0     H89479   9.643  11.812   9.457  2.9200 -0.1287 -0.2936
  663MOL0     H89480   9.701  11.956   9.523  0.4378 -0.0849 -1.8837
  663MOL0     H89481   9.844  11.693   9.580  0.3117 -0.1200  0.0328
  663MOL0     H89482   9.861  11.840   9.674  3.8384  0.8446 -1.1484
  663MOL0     H89483   9.905  11.857   9.374  1.7518  0.8962 -0.2411
  663MOL0     H89484   9.959  11.957   9.496  2.4854 -0.1953 -2.4145
  663MOL0     H89485   9.083  11.748  10.100 -0.2659 -0.3663 -0.0820
  663MOL0     H89486   8.877  11.640  10.175 -0.3805 -0.8930 -0.1713
  663MOL0     H89487   8.611  11.189  10.115  1.5088  2.5543 -0.5221
  663MOL0     H89488   8.402  11.096  10.195  1.0842  0.6923  1.5448
  663MOL0     H89489   7.327   9.571  10.676  1.0938 -0.9322  1.6681
  663MOL0     H89490   7.124   9.506  10.778  0.0471 -0.2431 -0.9092
  663MOL0     H89491   6.813   9.742  11.121 -1.0819  0.4743  0.4072
  663MOL0     H89492   6.633   9.714  11.252  1.7035  0.6496 -2.0103
  663MOL0     H89493   6.409   9.628  11.344  1.0058 -0.5175 -1.3112
  663MOL0     H89494   6.539   9.650  11.452  1.2075  0.0729 -1.2427
  663MOL0     H89495   6.466   9.442  11.588 -1.1023 -0.5072  0.0135
  663MOL0     H89496   6.318   9.449  11.499 -1.5424  0.2673  1.6570
  663MOL0     H89497   6.282   9.570  11.697 -0.7387  1.1033  1.6676
  663MOL0     H89498   6.295   9.691  11.561  1.7115  1.2156  0.6746
  663MOL0     H89499   6.499   9.635  11.778 -3.2054 -2.3901 -1.4958
  663MOL0     H89500   6.503   9.774  11.664 -1.0780  2.6250  0.8933
  663MOL0     H89501   6.230   9.958  11.896  1.5258  3.4665 -2.9533
  663MOL0     H89502   6.670   9.284  11.263  0.5015 -1.0336 -1.0928
  663MOL0     H89503   6.831   9.185  11.102 -1.0390  0.4038 -1.7579
  663MOL0     H89504   6.931   9.285  11.003 -0.0380  0.0620  0.1172
  663MOL0     H89505   6.973   9.256  11.176  1.0991 -0.3104 -1.6914
  664MOL0     O89506   3.630   6.550   4.273 -0.1822  0.2358  0.0485
  664MOL0     C89507   3.557   6.566   4.170 -0.8464  0.6895 -0.4760
  664MOL0     O89508   3.595   6.604   4.039 -0.2931  0.3869 -0.4749
  664MOL0     C89509   3.729   6.626   4.021 -0.0868  0.7440 -0.3009
  664MOL0     C89510   3.778   6.754   4.018  0.1928 -0.9317  0.2471
  664MOL0     C89511   3.917   6.780   4.004 -0.0049  0.4192 -0.0167
  664MOL0     C89512   4.005   6.665   3.997  0.0439  0.1956 -0.0519
  664MOL0     O89513   4.143   6.681   3.994 -0.1747  0.0797 -0.0529
  664MOL0     C89514   4.196   6.798   4.055 -0.5908 -0.5810  0.2473
  664MOL0     C89515   4.340   6.757   4.101 -0.4350 -0.3242  0.2418
  664MOL0     C89516   4.391   6.855   4.201 -0.3129  0.2188  0.6868
  664MOL0     C89517   4.360   6.826   4.350 -0.2521  0.8435  0.0910
  664MOL0     C89518   4.403   6.944   4.442 -0.0069 -0.8397  0.2593
  664MOL0     C89519   4.418   6.901   4.590 -0.1046 -0.6210  0.4488
  664MOL0     C89520   4.435   7.015   4.690  0.0343 -0.2641 -0.9183
  664MOL0     C89521   4.574   7.061   4.703 -0.3149  0.8768 -0.6292
  664MOL0     N89522   4.582   7.164   4.805  0.2910 -0.2482  0.4374
  664MOL0     C89523   4.513   7.278   4.811 -0.3363  0.0692  0.4772
  664MOL0     C89524   4.556   7.341   4.928  0.1683 -0.9608  0.8961
  664MOL0     C89525   4.504   7.462   4.992  0.7445  0.9938  0.5791
  664MOL0     C89526   4.585   7.502   5.118  0.4904 -0.0971  0.8013
  664MOL0     C89527   4.574   7.653   5.145  0.1715 -0.1066 -0.8880
  664MOL0     C89528   4.657   7.691   5.264  0.5333 -0.1807 -0.1471
  664MOL0     O89529   4.790   7.654   5.237 -0.7702  0.0812  0.2216
  664MOL0     C89530   4.883   7.695   5.336  0.9978  0.0323 -0.0053
  664MOL0     C89531   5.005   7.715   5.280 -0.3845  0.3890 -0.0741
  664MOL0     C89532   5.105   7.771   5.352  0.3495  0.0915 -0.3339
  664MOL0     C89533   5.084   7.798   5.491  0.3609  0.5573 -0.4585
  664MOL0     C89534   5.205   7.825   5.582 -0.5491  0.5822  0.1271
  664MOL0     O89535   5.325   7.827   5.522 -0.1808 -1.2678  0.1765
  664MOL0     C89536   5.433   7.869   5.591  0.6298  0.4256  0.0778
  664MOL0     C89537   5.543   7.785   5.602  0.2445 -0.0258 -0.1011
  664MOL0     C89538   5.663   7.830   5.660 -1.0415 -0.1049 -0.7827
  664MOL0     C89539   5.680   7.961   5.680  0.0319 -0.7381 -0.1535
  664MOL0     O89540   5.801   8.016   5.711 -0.5858  0.2557  0.0654
  664MOL0     C89541   5.918   7.962   5.636 -0.1374 -0.1357 -0.0635
  664MOL0     C89542   6.036   8.062   5.624  0.0462  0.6999 -0.2756
  664MOL0     C89543   6.074   8.102   5.772 -1.0349  0.1838 -0.5561
  664MOL0     C89544   6.174   8.220   5.783  0.8570 -0.7194 -0.1927
  664MOL0     C89545   6.305   8.198   5.705 -0.4190 -0.0736  1.1075
  664MOL0     C89546   6.366   8.063   5.735  0.6021 -0.8048 -0.3371
  664MOL0     C89547   6.512   8.062   5.693  0.0446  0.8936 -0.0746
  664MOL0     C89548   6.583   7.935   5.745 -0.7474  1.0436 -0.2754
  664MOL0    Cl89549   6.528   7.784   5.678 -0.0485 -0.5146 -0.0384
  664MOL0     C89550   5.573   8.047   5.681 -0.8104  0.3891 -0.0300
  664MOL0     C89551   5.449   8.005   5.631 -0.0617 -0.2458  0.6068
  664MOL0     O89552   5.194   7.828   5.704  0.4632 -0.8581 -0.2980
  664MOL0     C89553   4.957   7.775   5.551 -0.2891  0.0887  0.7625
  664MOL0     C89554   4.860   7.732   5.471  0.4952  0.7628  1.1634
  664MOL0     N89555   4.659   7.266   4.982 -1.3258 -0.2774 -0.1390
  664MOL0     N89556   4.675   7.160   4.907  0.5348 -0.1458  0.0328
  664MOL0     C89557   3.954   6.534   3.999 -0.1591 -1.2212 -0.0851
  664MOL0     C89558   3.815   6.520   4.005  0.4305  0.1945  0.3131
  664MOL0     C89559   3.411   6.559   4.198 -1.0494 -0.5213 -0.0623
  664MOL0     C89560   3.320   6.592   4.093 -0.4629  0.1641 -0.1924
  664MOL0     C89561   3.185   6.586   4.103  0.5494  0.9084 -0.1709
  664MOL0     C89562   3.124   6.553   4.225  0.3451 -0.1093  0.8075
  664MOL0     O89563   2.989   6.564   4.221  0.2219 -0.7276 -0.6357
  664MOL0     C89564   2.922   6.588   4.349  0.3850  0.3074  0.0190
  664MOL0     C89565   2.969   6.721   4.398 -0.4254 -0.2049  0.5331
  664MOL0     C89566   2.910   6.830   4.297 -0.0203  0.4813 -0.0495
  664MOL0     C89567   2.818   6.923   4.372 -0.5747 -0.0798  0.9453
  664MOL0     C89568   2.693   6.858   4.369  0.3896 -0.6298  0.0297
  664MOL0     C89569   2.591   6.794   4.385 -0.8557 -0.5274  0.4327
  664MOL0     C89570   3.206   6.526   4.330  0.2480  1.0550 -0.2107
  664MOL0     C89571   3.349   6.521   4.324  0.4241 -0.2134  0.0516
  664MOL0     C89572   3.416   6.480   4.451 -0.3816  0.4040 -0.2093
  664MOL0     H89573   3.710   6.837   4.034 -0.1054 -1.1364  0.0533
  664MOL0     H89574   3.948   6.882   4.021  1.2324 -0.2001  1.6613
  664MOL0     H89575   4.189   6.880   3.984 -1.0679 -0.1466  0.7790
  664MOL0     H89576   4.146   6.832   4.147  3.0356 -0.6167  2.4484
  664MOL0     H89577   4.404   6.733   4.016  1.8991 -0.5046  1.9726
  664MOL0     H89578   4.330   6.659   4.150 -0.3750  0.1162  1.1579
  664MOL0     H89579   4.356   6.955   4.173 -1.5727  0.6124  3.3604
  664MOL0     H89580   4.499   6.852   4.186 -0.5871  1.1199 -2.0144
  664MOL0     H89581   4.254   6.803   4.365 -0.5479  2.2446  0.2625
  664MOL0     H89582   4.426   6.745   4.383 -1.3348 -0.8924 -1.8416
  664MOL0     H89583   4.497   6.996   4.423  0.1754 -0.0920  2.8055
  664MOL0     H89584   4.328   7.024   4.437  1.0592  0.3135  1.7180
  664MOL0     H89585   4.336   6.836   4.621 -0.5590 -1.3773 -2.0624
  664MOL0     H89586   4.505   6.836   4.606 -1.1798 -2.1024  0.4204
  664MOL0     H89587   4.397   6.979   4.786  0.4152  0.8290 -0.3387
  664MOL0     H89588   4.375   7.103   4.663  3.1206  2.0067 -0.9917
  664MOL0     H89589   4.631   6.974   4.738 -1.2989 -0.1423 -1.4736
  664MOL0     H89590   4.617   7.083   4.605  0.5810 -1.6973 -0.8977
  664MOL0     H89591   4.434   7.308   4.742 -0.0262 -0.6766 -0.2138
  664MOL0     H89592   4.524   7.542   4.919 -4.1415  2.5272  0.5289
  664MOL0     H89593   4.396   7.463   5.008  0.2781 -0.9897 -1.8501
  664MOL0     H89594   4.544   7.446   5.203  1.7999 -1.9986  0.2508
  664MOL0     H89595   4.691   7.484   5.101  0.3662  1.3725 -2.2101
  664MOL0     H89596   4.467   7.669   5.162  0.5626 -1.3053  4.4655
  664MOL0     H89597   4.616   7.711   5.062  1.3815 -2.7555 -2.2324
  664MOL0     H89598   4.627   7.630   5.350  2.1370 -2.2014 -0.9534
  664MOL0     H89599   4.640   7.792   5.301 -1.8917 -0.4331 -0.3718
  664MOL0     H89600   5.019   7.683   5.177 -1.9257 -1.5645  0.2699
  664MOL0     H89601   5.200   7.788   5.303 -0.4908  0.8335 -1.7875
  664MOL0     H89602   5.531   7.680   5.577  0.8652  0.0873 -0.8938
  664MOL0     H89603   5.745   7.760   5.676 -0.8914  0.2006 -0.1930
  664MOL0     H89604   5.956   7.864   5.665  3.0026  0.8229 -0.5913
  664MOL0     H89605   5.881   7.937   5.537 -2.9848 -0.4137  0.9663
  664MOL0     H89606   6.114   8.015   5.564 -1.5563 -2.5947  0.0123
  664MOL0     H89607   5.996   8.152   5.576 -2.2149 -0.7432 -1.2357
  664MOL0     H89608   5.983   8.145   5.814 -0.0313  4.0967 -1.8880
  664MOL0     H89609   6.104   8.017   5.833  1.8239  1.2330 -0.3268
  664MOL0     H89610   6.194   8.249   5.887  3.5047 -1.5843 -0.4024
  664MOL0     H89611   6.125   8.305   5.735 -2.2615 -2.5451 -0.5606
  664MOL0     H89612   6.367   8.282   5.737  0.9775 -0.9646  0.7980
  664MOL0     H89613   6.290   8.198   5.596 -1.5452 -1.0547  1.2353
  664MOL0     H89614   6.346   8.041   5.840 -0.3174  1.3318 -0.0267
  664MOL0     H89615   6.305   7.990   5.681 -0.1567 -0.0302 -0.5464
  664MOL0     H89616   6.566   8.145   5.738 -0.8132  2.0771 -1.1557
  664MOL0     H89617   6.524   8.064   5.584 -0.9405  0.9496 -0.1921
  664MOL0     H89618   6.692   7.936   5.730 -0.9565  0.5301 -2.1065
  664MOL0     H89619   6.574   7.948   5.853  0.7952  0.2997 -0.0282
  664MOL0     H89620   5.593   8.152   5.702 -1.7939  1.1504 -2.5807
  664MOL0     H89621   5.364   8.072   5.621 -1.4373 -2.2003 -1.9710
  664MOL0     H89622   4.941   7.786   5.658 -2.0212 -1.4805  0.7123
  664MOL0     H89623   4.760   7.721   5.511  0.0079  1.4153  0.1683
  664MOL0     H89624   4.008   6.440   3.993 -1.8523 -2.1486 -1.9540
  664MOL0     H89625   3.763   6.428   3.983  0.0070  0.6701 -0.6990
  664MOL0     H89626   3.358   6.628   3.998  0.7269 -0.2360  0.1024
  664MOL0     H89627   3.134   6.607   4.010  1.7756  0.8458 -0.8780
  664MOL0     H89628   2.930   6.502   4.416  0.8438 -0.8793 -1.5071
  664MOL0     H89629   2.814   6.605   4.337  0.5660 -0.1819 -3.2775
  664MOL0     H89630   3.077   6.731   4.408 -0.5314 -1.0351  5.7608
  664MOL0     H89631   2.927   6.739   4.498 -1.6861  0.9280 -0.1645
  664MOL0     H89632   2.860   6.795   4.206  3.5703  1.3106 -2.5829
  664MOL0     H89633   3.002   6.880   4.263  1.7287 -0.5973  2.7099
  664MOL0     H89634   2.842   6.940   4.477 -0.3941 -0.0481  0.8987
  664MOL0     H89635   2.808   7.020   4.322  0.3181 -1.5802 -2.4453
  664MOL0     H89636   2.499   6.740   4.374  0.7979 -3.2265 -1.5662
  664MOL0     H89637   3.154   6.508   4.423 -1.0867 -1.4611 -1.3696
  664MOL0     H89638   3.440   6.581   4.485 -3.2257  0.3390  2.4181
  664MOL0     H89639   3.357   6.429   4.527  0.6841 -1.9006 -0.8604
  664MOL0     H89640   3.501   6.415   4.428  0.1790  0.2730  2.0029
  665MOL0     O89641   2.996   4.553   0.979  0.3239  0.5494 -0.7759
  665MOL0     C89642   3.116   4.555   0.969 -0.8026 -0.1750  0.5593
  665MOL0     O89643   3.192   4.665   0.927 -0.1633 -0.5870  1.1619
  665MOL0     C89644   3.120   4.772   0.868  0.3631 -1.1794 -0.0913
  665MOL0     C89645   3.092   4.759   0.735  0.1374  0.4068 -0.9869
  665MOL0     C89646   3.015   4.862   0.665 -0.1696  0.4140 -0.7711
  665MOL0     C89647   2.984   4.981   0.737  0.1338  0.4787 -0.5944
  665MOL0     O89648   2.900   5.076   0.676 -0.0504 -0.4676 -0.1518
  665MOL0     C89649   2.885   5.215   0.727  0.0695  0.0762  0.7105
  665MOL0     C89650   2.747   5.231   0.801 -0.9838 -0.2452 -0.2655
  665MOL0     C89651   2.727   5.370   0.860 -0.2141  0.2497 -0.5424
  665MOL0     C89652   2.725   5.490   0.759 -0.4718 -0.1548  0.1415
  665MOL0     C89653   2.737   5.618   0.838 -0.2613 -0.2996 -1.0087
  665MOL0     C89654   2.719   5.742   0.739 -0.5958 -0.1543 -0.8563
  665MOL0     C89655   2.749   5.873   0.808  0.0828  0.5996  0.4697
  665MOL0     C89656   2.902   5.891   0.836  0.4340 -0.4097 -0.3630
  665MOL0     N89657   2.986   5.875   0.723 -0.9147 -0.5548  0.9659
  665MOL0     C89658   3.035   5.978   0.638  1.2690  0.3857 -0.2995
  665MOL0     C89659   3.105   5.910   0.551  0.0647  0.2192 -0.2088
  665MOL0     C89660   3.186   5.968   0.440  0.1146  0.2229 -0.2384
  665MOL0     C89661   3.336   5.942   0.446  0.0790 -0.4743 -0.4428
  665MOL0     C89662   3.403   6.001   0.574  0.0024  0.6859  0.1857
  665MOL0     C89663   3.549   5.986   0.555  0.7218  0.5462  0.2214
  665MOL0     O89664   3.604   6.012   0.685  0.2520 -0.2913  0.2367
  665MOL0     C89665   3.742   6.036   0.686 -0.8954  0.4048  0.9482
  665MOL0     C89666   3.798   6.158   0.648  0.4233 -0.6149  0.2236
  665MOL0     C89667   3.934   6.185   0.659 -0.0083 -0.0719  0.5326
  665MOL0     C89668   4.020   6.079   0.685 -0.7748 -0.1298  0.2415
  665MOL0     C89669   4.163   6.103   0.680 -0.6970 -0.5729  0.0214
  665MOL0     O89670   4.199   6.228   0.643 -0.8833 -0.4288 -0.5580
  665MOL0     C89671   4.333   6.272   0.655 -0.6585  0.9008 -0.2044
  665MOL0     C89672   4.419   6.238   0.548 -0.7489 -0.7158 -0.0190
  665MOL0     C89673   4.544   6.299   0.536 -0.1219 -0.4499  0.4284
  665MOL0     C89674   4.596   6.386   0.634  0.0941  0.1584 -0.7819
  665MOL0     O89675   4.724   6.431   0.631  0.3587 -0.2718  0.1612
  665MOL0     C89676   4.812   6.372   0.536  0.1397 -0.1750 -0.6051
  665MOL0     C89677   4.947   6.454   0.526 -0.0580 -0.0078  0.1962
  665MOL0     C89678   5.007   6.482   0.668 -0.8499 -0.4256 -0.5447
  665MOL0     C89679   5.150   6.533   0.677  0.1830  0.1089  0.9317
  665MOL0     C89680   5.185   6.565   0.827  0.4659 -0.2117  0.4581
  665MOL0     C89681   5.315   6.644   0.835 -0.7316 -0.3574  0.0969
  665MOL0     C89682   5.291   6.791   0.823 -0.3704 -0.6937  0.2998
  665MOL0     C89683   5.421   6.879   0.822  0.9195  0.2151 -0.3202
  665MOL0    Cl89684   5.523   6.855   0.684 -0.3495 -0.3639  0.3315
  665MOL0     C89685   4.514   6.401   0.746  0.5821 -1.1038  0.4991
  665MOL0     C89686   4.380   6.355   0.754  0.4621  0.3649  0.1395
  665MOL0     O89687   4.244   6.016   0.710  0.0138 -0.0535 -0.3869
  665MOL0     C89688   3.972   5.949   0.717 -0.1641 -0.6215  0.4736
  665MOL0     C89689   3.834   5.931   0.716 -0.0687 -0.8891  0.4482
  665MOL0     N89690   3.093   5.770   0.571 -0.7590  0.3758  0.0007
  665MOL0     N89691   3.032   5.753   0.682  0.3613 -0.6387  0.3414
  665MOL0     C89692   3.028   4.987   0.873  0.0672 -0.8649 -1.2080
  665MOL0     C89693   3.091   4.879   0.946  1.1261  0.1160  0.1906
  665MOL0     C89694   3.183   4.427   1.013  0.7055  0.0977 -1.5862
  665MOL0     C89695   3.312   4.437   1.053 -0.6217  0.4302  0.0177
  665MOL0     C89696   3.394   4.327   1.099 -0.0981 -0.4402 -0.2714
  665MOL0     C89697   3.337   4.198   1.093  0.3336  0.1328 -0.6418
  665MOL0     O89698   3.404   4.082   1.120 -0.3854 -0.0171  0.1405
  665MOL0     C89699   3.455   4.064   1.257 -0.3141 -0.3638  0.0074
  665MOL0     C89700   3.609   4.084   1.253 -0.5602  0.3055 -0.7524
  665MOL0     C89701   3.665   3.959   1.181  1.2731 -0.9198 -0.6993
  665MOL0     C89702   3.817   3.957   1.171  0.9799 -0.0559  0.0077
  665MOL0     C89703   3.881   4.084   1.134 -0.1537 -0.4994 -0.2074
  665MOL0     C89704   3.930   4.192   1.113 -0.3622  0.0150  0.4912
  665MOL0     C89705   3.201   4.185   1.069 -0.3742 -0.4320  0.1802
  665MOL0     C89706   3.124   4.292   1.025 -1.3576  0.3297  0.5658
  665MOL0     C89707   2.979   4.259   0.997  0.8035  0.0780 -0.4142
  665MOL0     H89708   3.130   4.668   0.689  3.3747  0.1925  1.7685
  665MOL0     H89709   2.986   4.847   0.561  0.2800  1.0881 -1.0005
  665MOL0     H89710   2.965   5.249   0.794  0.3869 -3.3078  2.2651
  665MOL0     H89711   2.886   5.283   0.642  0.8693  0.9980  1.4293
  665MOL0     H89712   2.736   5.158   0.882 -1.6590 -0.5271 -0.6075
  665MOL0     H89713   2.674   5.214   0.721  2.0463 -0.5385 -3.2011
  665MOL0     H89714   2.811   5.382   0.929  0.0979 -1.9344 -0.4634
  665MOL0     H89715   2.639   5.370   0.926  1.0195  1.1772  1.1899
  665MOL0     H89716   2.806   5.482   0.685  0.9359 -2.3594  1.7871
  665MOL0     H89717   2.631   5.493   0.704 -0.3970  1.3107  0.0467
  665MOL0     H89718   2.665   5.631   0.918  2.2510  2.4172  1.0513
  665MOL0     H89719   2.837   5.625   0.884 -1.8843 -2.6525  3.3965
  665MOL0     H89720   2.780   5.727   0.649 -1.0920  0.8788 -1.3856
  665MOL0     H89721   2.613   5.733   0.714 -0.6983  0.6431 -0.7288
  665MOL0     H89722   2.703   5.871   0.907 -1.0666 -1.5747 -0.0682
  665MOL0     H89723   2.717   5.949   0.736  1.6022 -2.1036 -3.4091
  665MOL0     H89724   2.911   5.993   0.872  1.7762 -1.1653  1.6174
  665MOL0     H89725   2.943   5.828   0.916 -0.1839 -0.5110 -0.1234
  665MOL0     H89726   3.017   6.085   0.651  0.6399  0.0716  1.6733
  665MOL0     H89727   3.160   5.929   0.341  1.0156 -0.1729 -0.3316
  665MOL0     H89728   3.176   6.076   0.433  2.5883  0.4295 -1.5484
  665MOL0     H89729   3.354   5.834   0.447 -1.8947 -0.8546  1.6359
  665MOL0     H89730   3.380   5.976   0.352 -1.9842  2.4502 -0.5044
  665MOL0     H89731   3.376   5.939   0.660 -2.4318  0.6656 -0.5203
  665MOL0     H89732   3.380   6.105   0.599 -1.3100  0.8503 -1.5213
  665MOL0     H89733   3.601   6.047   0.480  0.8826  0.6357  0.4050
  665MOL0     H89734   3.564   5.880   0.531 -3.3387  0.1142 -1.2532
  665MOL0     H89735   3.723   6.233   0.625  0.1894 -0.5192  1.2648
  665MOL0     H89736   3.972   6.285   0.641 -1.4466  0.6637  1.3624
  665MOL0     H89737   4.369   6.177   0.474 -1.9352  0.9373 -0.6515
  665MOL0     H89738   4.603   6.260   0.454  0.9018  1.3372  0.2473
  665MOL0     H89739   4.841   6.273   0.574  1.3366 -0.3893 -1.9965
  665MOL0     H89740   4.775   6.364   0.434  0.2779  1.5824 -0.8154
  665MOL0     H89741   5.017   6.387   0.475 -0.5693 -2.1314  2.1421
  665MOL0     H89742   4.927   6.540   0.461  0.0425 -0.0275  0.1378
  665MOL0     H89743   4.943   6.557   0.713 -0.9213 -0.2346 -0.9546
  665MOL0     H89744   4.998   6.396   0.735 -1.0681  1.4120  1.9034
  665MOL0     H89745   5.143   6.628   0.622 -0.0394  0.6545  1.8831
  665MOL0     H89746   5.214   6.456   0.633  0.5892  1.6689 -1.4019
  665MOL0     H89747   5.193   6.467   0.876  0.7529 -0.8589 -0.8195
  665MOL0     H89748   5.102   6.609   0.882  0.0171  2.8214 -2.3690
  665MOL0     H89749   5.351   6.622   0.936 -0.6866 -0.0942  0.1391
  665MOL0     H89750   5.391   6.610   0.765 -0.0958 -0.4876  0.8329
  665MOL0     H89751   5.230   6.829   0.906  1.7827 -2.4809  2.8869
  665MOL0     H89752   5.243   6.817   0.729  0.6955 -0.7778 -0.2753
  665MOL0     H89753   5.389   6.984   0.825  0.9306  0.2247 -0.5000
  665MOL0     H89754   5.481   6.858   0.911 -0.5606 -3.8727 -0.0938
  665MOL0     H89755   4.557   6.454   0.831 -1.6891  0.9916  0.4657
  665MOL0     H89756   4.308   6.384   0.830 -0.9193 -1.7923 -0.2715
  665MOL0     H89757   4.029   5.861   0.745  0.1055 -0.5134  0.2713
  665MOL0     H89758   3.794   5.837   0.755 -2.2215 -0.3286 -0.2875
  665MOL0     H89759   3.000   5.081   0.919  2.6035 -0.0747 -1.1024
  665MOL0     H89760   3.114   4.885   1.052 -1.9040 -1.1561  1.0327
  665MOL0     H89761   3.357   4.535   1.038 -3.0279  1.2915 -2.3548
  665MOL0     H89762   3.490   4.355   1.141 -1.5047  3.2103  0.8727
  665MOL0     H89763   3.433   3.969   1.308 -2.9008  1.7149  3.1930
  665MOL0     H89764   3.418   4.136   1.330  0.9554 -0.5193  0.8288
  665MOL0     H89765   3.652   4.092   1.353 -0.7527 -1.2616 -0.5201
  665MOL0     H89766   3.630   4.181   1.207  1.0662  1.2252  1.7473
  665MOL0     H89767   3.619   3.951   1.082 -0.0544 -0.1077 -0.1750
  665MOL0     H89768   3.637   3.872   1.241 -2.1558  0.3855 -0.1620
  665MOL0     H89769   3.858   3.918   1.265 -0.4610 -5.5100 -1.2825
  665MOL0     H89770   3.841   3.884   1.093 -1.0037  0.7450 -1.4287
  665MOL0     H89771   3.968   4.292   1.107 -0.4625  0.0865  1.0071
  665MOL0     H89772   3.152   4.090   1.084 -0.8439 -0.2857 -0.3717
  665MOL0     H89773   2.951   4.319   0.910 -0.9176  0.3941  0.3298
  665MOL0     H89774   2.964   4.152   0.979  3.3639 -0.6822  1.4072
  665MOL0     H89775   2.925   4.287   1.088 -1.1327 -1.0128 -1.1795
  666MOL0     O89776   5.635   0.794   8.327  0.1490  0.2347 -0.0270
  666MOL0     C89777   5.697   0.696   8.272  0.1403 -0.4431  0.6771
  666MOL0     O89778   5.651   0.568   8.263 -0.4594  0.3838 -0.7210
  666MOL0     C89779   5.552   0.518   8.341 -0.0450  0.4545  0.3858
  666MOL0     C89780   5.483   0.407   8.292  0.1718 -0.4928 -0.0323
  666MOL0     C89781   5.369   0.360   8.352 -1.1841  0.6388 -0.9042
  666MOL0     C89782   5.321   0.408   8.475 -0.2016  0.6669 -0.4054
  666MOL0     O89783   5.218   0.348   8.546 -0.2716 -0.4472  0.7187
  666MOL0     C89784   5.098   0.423   8.557  0.2266 -0.3493 -0.2481
  666MOL0     C89785   4.979   0.339   8.604  0.0358  0.0992  0.5471
  666MOL0     C89786   4.921   0.253   8.488 -1.3444 -0.1519 -0.2647
  666MOL0     C89787   4.792   0.191   8.536 -0.1231 -0.1122  0.0733
  666MOL0     C89788   4.727   0.093   8.432 -0.1262 -0.5067 -0.9428
  666MOL0     C89789   4.581   0.073   8.485 -0.0798  0.7367  0.2524
  666MOL0     C89790   4.505  -0.028   8.388 -0.2717 -0.2065  0.1537
  666MOL0     C89791   4.357  -0.052   8.439 -0.1844  0.1834  0.5478
  666MOL0     N89792   4.335  -0.063   8.588  0.3051 -0.1985  0.9620
  666MOL0     C89793   4.363  -0.173   8.662  0.5195 -0.6237 -0.5180
  666MOL0     C89794   4.326  -0.146   8.791 -0.0570  0.2816  0.1164
  666MOL0     C89795   4.296  -0.254   8.899 -0.0608 -0.1563  0.6995
  666MOL0     C89796   4.310  -0.206   9.050  0.3895  0.1197 -0.2501
  666MOL0     C89797   4.171  -0.149   9.104 -0.1623  0.5199 -0.7067
  666MOL0     C89798   4.157  -0.095   9.241  0.1429  0.7558 -0.6003
  666MOL0     O89799   4.173  -0.210   9.333  0.5401 -0.9890  0.4847
  666MOL0     C89800   4.297  -0.253   9.374 -0.0776 -0.0471  0.0274
  666MOL0     C89801   4.423  -0.183   9.345  0.1603 -0.1018  0.3510
  666MOL0     C89802   4.541  -0.228   9.399  0.2125 -0.1438 -0.3990
  666MOL0     C89803   4.540  -0.353   9.470  0.5227 -0.7020  0.1910
  666MOL0     C89804   4.673  -0.413   9.507 -0.4888 -0.3204 -0.0252
  666MOL0     O89805   4.780  -0.347   9.444  0.2675 -0.4236  0.2749
  666MOL0     C89806   4.913  -0.391   9.438 -0.1462 -0.6476 -0.1887
  666MOL0     C89807   5.011  -0.289   9.425  0.6682 -0.5487 -0.0091
  666MOL0     C89808   5.146  -0.309   9.417 -0.2819  1.1560  0.8329
  666MOL0     C89809   5.197  -0.441   9.451  0.0045  0.0746  0.2934
  666MOL0     O89810   5.328  -0.480   9.472  0.0008 -0.5206 -0.1258
  666MOL0     C89811   5.425  -0.383   9.493 -0.0022 -0.2892  0.8166
  666MOL0     C89812   5.559  -0.452   9.479  0.8776  0.2371 -0.1819
  666MOL0     C89813   5.677  -0.364   9.474  0.4213  0.8463 -0.2249
  666MOL0     C89814   5.795  -0.432   9.539  0.0354  1.2340 -0.9535
  666MOL0     C89815   5.917  -0.343   9.517 -0.5105 -0.2015  1.3591
  666MOL0     C89816   6.049  -0.418   9.548 -0.2721 -0.3631  1.1683
  666MOL0     C89817   6.116  -0.385   9.673  0.5023  1.0104  0.1314
  666MOL0     C89818   6.181  -0.250   9.667  0.4981 -0.1012 -0.9622
  666MOL0    Cl89819   6.308  -0.253   9.793 -0.3609 -0.3294  0.3788
  666MOL0     C89820   5.096  -0.543   9.469 -0.0217  0.3233 -0.7769
  666MOL0     C89821   4.962  -0.519   9.457 -0.4191 -0.1748 -0.4258
  666MOL0     O89822   4.685  -0.493   9.597  0.5722 -0.4640 -0.3499
  666MOL0     C89823   4.422  -0.421   9.498  0.0516 -0.3013  0.2886
  666MOL0     C89824   4.298  -0.366   9.452 -0.3766 -0.1090  0.4673
  666MOL0     N89825   4.292  -0.015   8.797  0.4023  0.1116  0.1367
  666MOL0     N89826   4.293   0.034   8.674  0.2088 -0.3364  0.5908
  666MOL0     C89827   5.393   0.515   8.533 -0.4114  0.3859 -0.4745
  666MOL0     C89828   5.508   0.572   8.467 -0.1374 -0.4552 -0.4107
  666MOL0     C89829   5.841   0.724   8.224  0.4445  0.6485 -0.2805
  666MOL0     C89830   5.899   0.848   8.256 -0.4388  0.0107  0.0968
  666MOL0     C89831   6.038   0.865   8.234  0.3737  0.2682  0.1824
  666MOL0     C89832   6.126   0.781   8.166 -0.6555  0.5672 -0.2703
  666MOL0     O89833   6.255   0.817   8.138 -0.2816 -0.1670 -0.8191
  666MOL0     C89834   6.345   0.733   8.086 -0.1454  0.2258  0.0019
  666MOL0     C89835   6.479   0.802   8.050  0.9076 -0.2485  0.2662
  666MOL0     C89836   6.543   0.846   8.169  0.0884 -0.0968 -0.3498
  666MOL0     C89837   6.695   0.877   8.143  0.5429  0.0945 -0.7580
  666MOL0     C89838   6.763   0.750   8.132  0.6972  0.2078 -0.7380
  666MOL0     C89839   6.793   0.631   8.136 -0.5326  0.3071 -0.8194
  666MOL0     C89840   6.068   0.666   8.125 -0.1062 -0.4703 -0.3446
  666MOL0     C89841   5.930   0.635   8.149  0.1574 -0.5539  0.2360
  666MOL0     C89842   5.881   0.511   8.079  0.9330 -0.1427  0.2417
  666MOL0     H89843   5.520   0.348   8.209 -0.8374 -1.5483  0.2465
  666MOL0     H89844   5.320   0.270   8.315  1.9288 -1.2685 -0.7937
  666MOL0     H89845   5.119   0.503   8.628 -2.6992  0.8008 -0.5398
  666MOL0     H89846   5.064   0.466   8.463 -1.1933 -0.8280  0.0314
  666MOL0     H89847   4.896   0.405   8.627  0.1581  0.1027  0.9859
  666MOL0     H89848   4.993   0.285   8.698 -1.9170 -2.1638 -0.3752
  666MOL0     H89849   4.992   0.172   8.467 -1.6604  0.0217 -2.2217
  666MOL0     H89850   4.913   0.309   8.394  1.3151  3.2576  1.3443
  666MOL0     H89851   4.818   0.141   8.630  3.6345  1.5371  0.0979
  666MOL0     H89852   4.718   0.270   8.546 -1.9802 -1.7009 -0.5015
  666MOL0     H89853   4.739   0.141   8.334  4.8913  1.8718  0.5107
  666MOL0     H89854   4.778  -0.003   8.421  2.9771  1.0806 -1.4957
  666MOL0     H89855   4.592   0.034   8.587  0.7458  0.9903  0.2687
  666MOL0     H89856   4.521   0.164   8.497 -2.1766 -0.3360 -1.4117
  666MOL0     H89857   4.557  -0.124   8.396 -0.7580 -0.3676  1.6923
  666MOL0     H89858   4.522   0.010   8.286  2.1783  0.1938  0.6509
  666MOL0     H89859   4.304   0.038   8.406 -1.8811 -1.0976 -0.4018
  666MOL0     H89860   4.316  -0.140   8.389  1.1707  0.0155 -0.3135
  666MOL0     H89861   4.401  -0.272   8.639  2.2761 -0.3329  0.8730
  666MOL0     H89862   4.195  -0.290   8.880  0.2775 -1.5076  1.3303
  666MOL0     H89863   4.371  -0.331   8.881 -0.2688  0.2957 -2.7665
  666MOL0     H89864   4.327  -0.293   9.115 -2.5625  0.1539  0.6963
  666MOL0     H89865   4.399  -0.143   9.056 -1.2841  2.8737 -2.4226
  666MOL0     H89866   4.084  -0.214   9.088 -0.7153  0.2883  2.5924
  666MOL0     H89867   4.164  -0.056   9.046 -0.6383  1.5774  0.9819
  666MOL0     H89868   4.057  -0.053   9.257 -0.2694 -0.5469  0.4070
  666MOL0     H89869   4.223  -0.012   9.268 -0.0592  0.3129  1.4649
  666MOL0     H89870   4.430  -0.100   9.275 -0.3761 -1.6014 -1.6074
  666MOL0     H89871   4.634  -0.180   9.372  1.0247 -2.0258 -1.1296
  666MOL0     H89872   4.985  -0.183   9.420 -0.0182 -0.7094 -0.0286
  666MOL0     H89873   5.201  -0.221   9.384 -0.9779  1.1740 -0.3575
  666MOL0     H89874   5.417  -0.297   9.425 -1.2377 -0.8758  0.2030
  666MOL0     H89875   5.423  -0.341   9.594 -2.5775 -0.1040  0.7377
  666MOL0     H89876   5.568  -0.536   9.548 -0.1432 -0.3376 -0.7162
  666MOL0     H89877   5.553  -0.504   9.383 -2.0222 -1.6864  0.9010
  666MOL0     H89878   5.699  -0.343   9.369 -2.2004  0.9328 -0.8219
  666MOL0     H89879   5.652  -0.270   9.523 -1.1111  1.2732 -1.7159
  666MOL0     H89880   5.807  -0.532   9.497 -1.2071 -0.3285  2.0483
  666MOL0     H89881   5.775  -0.448   9.646  3.5904  3.2585  0.1889
  666MOL0     H89882   5.905  -0.259   9.586  0.4886 -0.3042  1.6743
  666MOL0     H89883   5.937  -0.299   9.419 -5.4672  2.9770  1.4040
  666MOL0     H89884   6.036  -0.527   9.552  3.0075 -0.9386 -0.4888
  666MOL0     H89885   6.126  -0.400   9.472  1.5491  2.0354  3.4266
  666MOL0     H89886   6.196  -0.458   9.682 -0.3655 -0.0215 -0.2833
  666MOL0     H89887   6.055  -0.387   9.764  0.8987 -0.3625  0.3906
  666MOL0     H89888   6.225  -0.221   9.571 -0.9415  0.0452 -1.6101
  666MOL0     H89889   6.122  -0.163   9.699  2.4163 -0.4031  4.4842
  666MOL0     H89890   5.120  -0.643   9.505  0.2610  0.5746 -0.2459
  666MOL0     H89891   4.893  -0.600   9.480  0.8093 -1.0313  0.3651
  666MOL0     H89892   4.435  -0.518   9.545 -1.4791 -0.1041  1.1782
  666MOL0     H89893   4.207  -0.415   9.486  1.2776 -3.8512 -0.0128
  666MOL0     H89894   5.367   0.546   8.634 -0.9652 -0.8014 -0.2344
  666MOL0     H89895   5.549   0.659   8.518 -2.6442  1.0807 -0.8134
  666MOL0     H89896   5.836   0.923   8.304  1.1885  1.6383 -0.1674
  666MOL0     H89897   6.078   0.963   8.255 -3.4448  1.8556  0.8418
  666MOL0     H89898   6.310   0.697   7.989 -2.6341  2.2332  0.0429
  666MOL0     H89899   6.349   0.644   8.151 -0.7220 -0.9256 -1.4825
  666MOL0     H89900   6.463   0.895   7.995 -0.6591 -0.1267  0.8805
  666MOL0     H89901   6.539   0.721   8.006 -0.5116 -1.3647  0.3112
  666MOL0     H89902   6.530   0.765   8.241  0.1603 -1.2600 -1.6058
  666MOL0     H89903   6.488   0.932   8.208 -0.9666 -2.7282  4.8925
  666MOL0     H89904   6.714   0.951   8.064 -3.1830  2.5566  0.3645
  666MOL0     H89905   6.728   0.936   8.229 -1.7068  2.7023 -1.5225
  666MOL0     H89906   6.817   0.529   8.161 -0.7887  0.7323  1.3662
  666MOL0     H89907   6.122   0.593   8.066  3.4681  0.4566  1.4694
  666MOL0     H89908   5.936   0.465   7.996 -0.4501 -0.8712 -0.3016
  666MOL0     H89909   5.891   0.433   8.156  3.7325  2.1910  2.4670
  666MOL0     H89910   5.776   0.525   8.050  0.9237  2.5443  1.3579
  667MOL0     O89911   4.985   1.863   3.031  0.8799  0.6895 -0.0692
  667MOL0     C89912   4.893   1.790   3.075 -0.3840 -1.0866 -0.2098
  667MOL0     O89913   4.878   1.766   3.207  0.3747  0.0983 -0.0817
  667MOL0     C89914   4.987   1.795   3.291  0.5949 -0.4098 -0.2357
  667MOL0     C89915   5.111   1.722   3.290  0.7353  0.2819  0.6492
  667MOL0     C89916   5.211   1.761   3.384  0.0251 -0.0407  0.8622
  667MOL0     C89917   5.201   1.880   3.461 -0.3780 -0.2388  0.3813
  667MOL0     O89918   5.308   1.916   3.536 -0.3297 -0.5228  0.9835
  667MOL0     C89919   5.278   1.974   3.666 -0.3376 -0.8246 -0.0653
  667MOL0     C89920   5.417   1.985   3.734  0.2943 -0.2013  0.1983
  667MOL0     C89921   5.392   2.003   3.878  1.0027  0.6146  0.1007
  667MOL0     C89922   5.510   1.990   3.967 -0.0794 -0.3774  0.6851
  667MOL0     C89923   5.559   1.853   3.992  0.3574  0.0406 -0.9088
  667MOL0     C89924   5.697   1.846   4.068  0.6743 -0.5279  0.3612
  667MOL0     C89925   5.775   1.721   4.041 -0.2111  0.4457 -0.2803
  667MOL0     C89926   5.888   1.706   4.143  0.1000 -0.0688 -0.5875
  667MOL0     N89927   5.993   1.811   4.115  0.4192 -0.7589  0.7476
  667MOL0     C89928   6.005   1.936   4.170 -0.6111  0.4581 -0.5294
  667MOL0     C89929   6.111   1.996   4.110  0.3745 -0.7692 -0.2787
  667MOL0     C89930   6.155   2.140   4.119  0.5014 -0.0762  0.3683
  667MOL0     C89931   6.176   2.190   4.266 -0.2227  0.6499 -0.3754
  667MOL0     C89932   6.254   2.097   4.346 -0.0821 -0.7714  1.0554
  667MOL0     C89933   6.317   2.176   4.470  0.2422  0.2055  0.0659
  667MOL0     O89934   6.383   2.069   4.543 -0.6141 -0.3438 -0.4737
  667MOL0     C89935   6.518   2.077   4.560 -0.8410 -0.7573  0.3422
  667MOL0     C89936   6.591   2.162   4.478 -0.5974 -0.4779  0.1376
  667MOL0     C89937   6.730   2.179   4.491  0.1145 -0.5213 -0.2083
  667MOL0     C89938   6.808   2.097   4.575  0.5673 -0.4816 -0.6452
  667MOL0     C89939   6.959   2.112   4.582 -1.2982  1.1055  0.5571
  667MOL0     O89940   7.037   2.037   4.668  0.2731  0.0382 -0.5031
  667MOL0     C89941   7.168   2.032   4.635 -0.1256 -0.3243 -0.3046
  667MOL0     C89942   7.198   1.951   4.524  0.5213 -0.3378  0.2197
  667MOL0     C89943   7.332   1.935   4.482  0.3831  1.0885  0.7951
  667MOL0     C89944   7.444   1.991   4.547  0.3492 -0.3465 -0.5737
  667MOL0     O89945   7.561   1.972   4.493  0.6752 -0.5001  0.4187
  667MOL0     C89946   7.666   2.056   4.536 -0.1651 -0.9716 -0.7106
  667MOL0     C89947   7.786   2.039   4.444 -1.1404  0.5405 -0.2823
  667MOL0     C89948   7.909   2.131   4.490  0.1729  0.2377 -0.7072
  667MOL0     C89949   8.046   2.091   4.437 -0.2445  0.6967  0.6088
  667MOL0     C89950   8.103   1.994   4.539 -0.4946  0.3653  0.4128
  667MOL0     C89951   8.256   1.969   4.512 -0.0220  0.1388  0.1347
  667MOL0     C89952   8.329   1.888   4.624  0.2828 -0.1394 -0.1387
  667MOL0     C89953   8.478   1.871   4.582  0.1215  1.0164 -0.2083
  667MOL0    Cl89954   8.476   1.755   4.443 -0.1442 -0.5088  0.3942
  667MOL0     C89955   7.411   2.073   4.659 -0.6230 -0.9607 -0.3377
  667MOL0     C89956   7.280   2.097   4.697 -0.1311  0.0139 -0.2037
  667MOL0     O89957   7.006   2.191   4.501 -0.2947  0.1494  0.7473
  667MOL0     C89958   6.737   2.000   4.653 -0.1711  0.1688  0.5496
  667MOL0     C89959   6.598   2.003   4.646 -0.5656  0.4457 -0.5417
  667MOL0     N89960   6.144   1.920   4.003  0.6604 -0.1880 -0.1112
  667MOL0     N89961   6.078   1.805   4.006  0.5553 -0.2496  0.3805
  667MOL0     C89962   5.089   1.964   3.441 -0.3632 -0.5024 -0.8647
  667MOL0     C89963   4.981   1.911   3.368  0.7757 -0.8544  0.0601
  667MOL0     C89964   4.794   1.747   2.973  0.2647 -0.0983  0.5157
  667MOL0     C89965   4.708   1.847   2.911 -0.3134  0.1607 -0.2458
  667MOL0     C89966   4.609   1.819   2.822  0.2528  0.0798  0.6955
  667MOL0     C89967   4.595   1.691   2.780  0.4218 -0.0662  0.6653
  667MOL0     O89968   4.493   1.674   2.682 -0.7612  0.1012 -0.9869
  667MOL0     C89969   4.457   1.540   2.646  0.1054 -0.3002 -0.3429
  667MOL0     C89970   4.363   1.551   2.519  0.2645 -0.7924  0.2628
  667MOL0     C89971   4.448   1.603   2.406  0.6364 -0.3564  0.3798
  667MOL0     C89972   4.368   1.625   2.279  0.2165 -0.1925  1.2226
  667MOL0     C89973   4.450   1.612   2.155  0.4802  0.4077  0.6262
  667MOL0     C89974   4.518   1.616   2.055  0.6340 -0.2316  0.3564
  667MOL0     C89975   4.684   1.589   2.828  0.0045 -0.4213 -0.5882
  667MOL0     C89976   4.777   1.618   2.923 -0.1562 -0.2048  0.0982
  667MOL0     C89977   4.870   1.505   2.956  0.5206 -0.9049  0.2636
  667MOL0     H89978   5.125   1.639   3.222 -0.7130  0.6590 -0.1555
  667MOL0     H89979   5.299   1.698   3.389 -0.1629 -0.3766  0.0505
  667MOL0     H89980   5.242   2.074   3.640 -1.5894 -1.1487  0.3534
  667MOL0     H89981   5.204   1.912   3.718 -2.1523  0.9962 -0.3324
  667MOL0     H89982   5.479   2.067   3.696  2.4329 -1.1975  1.3622
  667MOL0     H89983   5.478   1.897   3.713  1.8498  0.7547  0.5291
  667MOL0     H89984   5.303   1.947   3.907  0.2215  0.6015 -2.1143
  667MOL0     H89985   5.360   2.107   3.890  1.2911  0.4692  2.7343
  667MOL0     H89986   5.590   2.041   3.913 -1.6357  0.8394 -0.5914
  667MOL0     H89987   5.488   2.041   4.062 -1.3583  0.2127  0.0989
  667MOL0     H89988   5.479   1.800   4.043  0.9649 -0.2399 -0.2310
  667MOL0     H89989   5.570   1.804   3.895 -1.6603 -1.7163 -0.3298
  667MOL0     H89990   5.755   1.934   4.040  1.3991 -1.5004 -1.3344
  667MOL0     H89991   5.671   1.848   4.174  0.9199 -0.5804  0.4231
  667MOL0     H89992   5.807   1.717   3.936 -0.4554  1.3534 -0.4038
  667MOL0     H89993   5.723   1.626   4.057  3.2841 -1.3487  1.4431
  667MOL0     H89994   5.857   1.719   4.247  0.3900 -1.1311 -0.3644
  667MOL0     H89995   5.945   1.616   4.121 -0.7917 -0.1259 -3.0130
  667MOL0     H89996   5.956   1.968   4.261  0.9799  2.1374 -0.1809
  667MOL0     H89997   6.251   2.147   4.067  0.7545 -3.4480  0.1122
  667MOL0     H89998   6.080   2.191   4.058  1.8300 -0.4915 -1.7390
  667MOL0     H89999   6.216   2.292   4.271  0.1663  0.4656  0.3952
  667MOL0     H90000   6.075   2.202   4.307  1.2841  1.4457  3.6718
  667MOL0     H90001   6.335   2.060   4.282 -1.8080  0.6481 -2.1509
  667MOL0     H90002   6.199   2.007   4.374  0.0901 -0.6243  1.9089
  667MOL0     H90003   6.236   2.206   4.537 -0.7796 -0.5535 -0.7831
  667MOL0     H90004   6.358   2.276   4.457 -1.9566  1.3450  1.3846
  667MOL0     H90005   6.557   2.234   4.404  1.7322  0.8593  0.2926
  667MOL0     H90006   6.773   2.266   4.443 -1.6172  1.3758  1.4083
  667MOL0     H90007   7.127   1.886   4.474 -2.0468  0.5317  2.4757
  667MOL0     H90008   7.357   1.888   4.387 -0.6969  1.0117  0.5260
  667MOL0     H90009   7.630   2.159   4.541  0.7548 -0.4338 -3.5433
  667MOL0     H90010   7.704   2.037   4.638 -0.1180  1.3636 -0.2309
  667MOL0     H90011   7.814   1.934   4.459 -1.0824 -0.3846 -5.2390
  667MOL0     H90012   7.762   2.049   4.338 -1.0808  1.2345 -0.2314
  667MOL0     H90013   7.882   2.234   4.462  1.2046  0.3402 -1.3706
  667MOL0     H90014   7.904   2.133   4.599 -0.4293  5.2825 -0.5768
  667MOL0     H90015   8.116   2.175   4.440  1.9771 -1.0509  0.3409
  667MOL0     H90016   8.044   2.047   4.337 -1.7446 -1.8033  1.6489
  667MOL0     H90017   8.049   1.900   4.521 -2.9085  1.7566 -0.0071
  667MOL0     H90018   8.075   2.014   4.643  0.6928 -0.5965  0.9504
  667MOL0     H90019   8.285   1.924   4.416 -0.1439 -0.7927  0.5229
  667MOL0     H90020   8.294   2.070   4.524 -0.1299 -0.0193  2.0565
  667MOL0     H90021   8.296   1.784   4.637  0.5616 -0.4353 -1.6140
  667MOL0     H90022   8.324   1.939   4.721  3.5533 -0.3483  0.2435
  667MOL0     H90023   8.521   1.964   4.545 -0.0519  0.4277 -2.0089
  667MOL0     H90024   8.533   1.835   4.669  1.0893  2.3290 -0.2486
  667MOL0     H90025   7.490   2.109   4.725 -2.0117  0.7592  0.4752
  667MOL0     H90026   7.241   2.156   4.780 -2.0029  0.2457 -1.2055
  667MOL0     H90027   6.788   1.933   4.721 -0.2150  0.3267  0.7395
  667MOL0     H90028   6.548   1.936   4.714  1.1549 -0.5922 -0.2442
  667MOL0     H90029   5.083   2.062   3.488  5.2653 -0.8003  1.2422
  667MOL0     H90030   4.889   1.968   3.364  0.3034 -1.5896  0.1060
  667MOL0     H90031   4.723   1.953   2.927  0.5271  0.0867 -0.5341
  667MOL0     H90032   4.543   1.891   2.775  0.8344 -0.5971 -1.2501
  667MOL0     H90033   4.411   1.504   2.738  3.9169  2.0656  2.8267
  667MOL0     H90034   4.537   1.468   2.625 -0.2677 -0.8416  0.0678
  667MOL0     H90035   4.273   1.607   2.542 -0.7873 -3.3144  2.9408
  667MOL0     H90036   4.322   1.451   2.497  0.8463 -1.2082  1.0131
  667MOL0     H90037   4.535   1.537   2.394 -0.2965 -1.8397  1.4013
  667MOL0     H90038   4.484   1.701   2.437 -0.0897 -0.8600  3.1283
  667MOL0     H90039   4.294   1.544   2.284  0.2709 -0.2849  0.5575
  667MOL0     H90040   4.323   1.724   2.282  2.6340  1.1969 -2.0826
  667MOL0     H90041   4.579   1.639   1.971 -1.2471 -0.0138 -1.0044
  667MOL0     H90042   4.675   1.485   2.796  1.6914 -0.8210  0.1127
  667MOL0     H90043   4.937   1.508   2.869 -0.6425  0.2433 -0.6355
  667MOL0     H90044   4.930   1.528   3.044 -0.6856 -2.4403  1.5435
  667MOL0     H90045   4.815   1.412   2.972 -3.0386  1.2156  1.5398
  668MOL0     O90046  10.412   3.882   7.254  0.1066 -0.2570 -0.3260
  668MOL0     C90047  10.485   3.806   7.322 -0.1746  0.4046  0.2959
  668MOL0     O90048  10.428   3.716   7.414  0.2074  0.1250 -0.6205
  668MOL0     C90049  10.299   3.680   7.409  0.4671  0.2746  0.1015
  668MOL0     C90050  10.247   3.628   7.287  0.2014  0.4799 -0.5243
  668MOL0     C90051  10.114   3.592   7.297  0.5672 -0.3875  0.3281
  668MOL0     C90052  10.031   3.620   7.412  0.1567 -0.9723  0.7730
  668MOL0     O90053   9.892   3.607   7.398  0.0540  0.3648 -0.0447
  668MOL0     C90054   9.793   3.675   7.491 -0.6510 -0.4592  0.7264
  668MOL0     C90055   9.658   3.672   7.417 -0.1189 -0.2573  0.0835
  668MOL0     C90056   9.653   3.754   7.289 -1.0575 -0.2304 -0.4436
  668MOL0     C90057   9.669   3.907   7.316  0.1434 -0.3356 -0.6016
  668MOL0     C90058   9.604   4.000   7.208 -0.4311 -0.4097 -0.5825
  668MOL0     C90059   9.621   3.958   7.065  0.4642 -0.6709  0.2450
  668MOL0     C90060   9.536   4.066   6.969 -0.0316  0.8329 -0.7166
  668MOL0     C90061   9.560   4.039   6.821  0.1524 -0.0590 -1.0287
  668MOL0     N90062   9.502   3.918   6.776 -0.0218 -0.0062 -0.3095
  668MOL0     C90063   9.572   3.821   6.701  0.6153  0.4313 -0.0501
  668MOL0     C90064   9.484   3.721   6.700  1.1168 -0.6447  1.5416
  668MOL0     C90065   9.498   3.599   6.621  0.2753  0.3466 -0.3313
  668MOL0     C90066   9.524   3.480   6.712 -0.7045  0.5158 -0.3697
  668MOL0     C90067   9.404   3.437   6.801  0.5590  0.3582  0.0068
  668MOL0     C90068   9.435   3.314   6.879  0.2488  0.5169  0.2454
  668MOL0     O90069   9.518   3.324   6.991  0.1145  0.0275 -0.7579
  668MOL0     C90070   9.657   3.328   7.000  0.2655  0.2533  0.9268
  668MOL0     C90071   9.711   3.373   7.113  0.0613 -0.2986  0.2901
  668MOL0     C90072   9.848   3.355   7.137  1.2213  0.2135 -0.1598
  668MOL0     C90073   9.933   3.304   7.036 -0.2585 -0.3562 -0.0040
  668MOL0     C90074  10.072   3.266   7.055  0.6172  0.1900 -1.3441
  668MOL0     O90075  10.138   3.226   6.951 -0.7983  1.1864  0.7401
  668MOL0     C90076  10.272   3.211   6.950 -0.9623 -0.3805  0.4224
  668MOL0     C90077  10.329   3.110   6.865  0.7233  0.6481 -0.3744
  668MOL0     C90078  10.463   3.093   6.836 -0.6471  0.2059  0.1292
  668MOL0     C90079  10.554   3.170   6.910  0.5293 -0.5513 -0.7960
  668MOL0     O90080  10.691   3.160   6.906  0.0242  0.3873  0.4565
  668MOL0     C90081  10.747   3.062   6.811 -0.4985 -0.7332 -0.5614
  668MOL0     C90082  10.898   3.074   6.826  0.3290  0.0545 -1.3341
  668MOL0     C90083  10.972   2.985   6.714  0.0268 -0.0172 -0.9686
  668MOL0     C90084  11.118   2.957   6.742  0.5378  1.0528  0.6277
  668MOL0     C90085  11.215   3.067   6.761 -0.3506 -1.1285  0.3210
  668MOL0     C90086  11.242   3.152   6.633 -0.9326  0.5072 -1.1747
  668MOL0     C90087  11.366   3.243   6.655  0.5286  0.2707  0.1889
  668MOL0     C90088  11.409   3.300   6.526 -0.1340  0.1451 -0.2134
  668MOL0    Cl90089  11.281   3.384   6.434  0.0602 -0.4659 -0.2543
  668MOL0     C90090  10.502   3.268   7.000  0.3769 -0.4014  0.2717
  668MOL0     C90091  10.363   3.298   7.005 -0.1219  0.3407  0.9107
  668MOL0     O90092  10.119   3.277   7.170  0.3152  0.3363 -0.4748
  668MOL0     C90093   9.878   3.282   6.906  0.1801 -0.4185 -0.4326
  668MOL0     C90094   9.738   3.297   6.887 -0.1909 -0.4675  0.1629
  668MOL0     N90095   9.361   3.763   6.758 -0.2597  0.2854 -0.0136
  668MOL0     N90096   9.376   3.878   6.800  0.1338 -0.4694 -0.3964
  668MOL0     C90097  10.087   3.660   7.524  0.5804 -0.7451  0.1926
  668MOL0     C90098  10.221   3.690   7.518  0.0642  0.0732  0.1297
  668MOL0     C90099  10.632   3.807   7.299  0.0786  0.1387  0.0711
  668MOL0     C90100  10.708   3.706   7.365 -0.6395 -0.5968  0.1382
  668MOL0     C90101  10.842   3.686   7.335  0.7667  1.0189  0.0303
  668MOL0     C90102  10.914   3.765   7.247 -0.4061 -0.2971 -0.0642
  668MOL0     O90103  11.041   3.750   7.188 -0.5892 -0.1613 -0.0197
  668MOL0     C90104  11.106   3.624   7.230 -0.2118 -0.4791 -0.2719
  668MOL0     C90105  11.249   3.618   7.181 -0.8821 -0.0229 -0.4321
  668MOL0     C90106  11.293   3.469   7.173 -0.1901  0.0422  0.2068
  668MOL0     C90107  11.438   3.462   7.147  0.3455  0.4334 -0.0225
  668MOL0     C90108  11.483   3.362   7.061  0.0516  0.5863 -0.7816
  668MOL0     C90109  11.522   3.277   6.984 -0.9361 -0.4897 -0.1834
  668MOL0     C90110  10.842   3.873   7.173  0.3355  1.0913  0.7136
  668MOL0     C90111  10.698   3.888   7.196 -0.7709  0.3991  0.6766
  668MOL0     C90112  10.632   3.999   7.116 -0.0434 -0.0749 -0.6461
  668MOL0     H90113  10.313   3.607   7.203  0.2342  0.5229 -0.5094
  668MOL0     H90114  10.056   3.556   7.213  0.8525  2.3158 -1.1143
  668MOL0     H90115   9.774   3.623   7.586 -1.7563 -2.6261 -0.6123
  668MOL0     H90116   9.812   3.782   7.504 -1.3205  0.0083 -1.6658
  668MOL0     H90117   9.583   3.711   7.486 -1.0089 -2.8091  0.6765
  668MOL0     H90118   9.624   3.573   7.384 -1.9832  0.0996  0.8356
  668MOL0     H90119   9.561   3.739   7.233 -0.6235  0.1515 -1.2763
  668MOL0     H90120   9.734   3.724   7.221 -1.1852 -1.2365 -0.1737
  668MOL0     H90121   9.628   3.946   7.410  0.6716  0.6651 -0.7685
  668MOL0     H90122   9.776   3.920   7.336 -0.3000 -0.3896  2.3397
  668MOL0     H90123   9.496   4.010   7.224 -0.4265  0.1603 -0.8831
  668MOL0     H90124   9.642   4.102   7.223 -2.1348  0.4647 -1.8613
  668MOL0     H90125   9.725   3.941   7.037  1.6622  0.8471  3.2967
  668MOL0     H90126   9.573   3.860   7.052 -2.2015  0.7504 -1.4784
  668MOL0     H90127   9.575   4.168   6.976 -0.6608  1.1691 -1.8474
  668MOL0     H90128   9.432   4.062   7.003  0.3052  1.8795  0.5481
  668MOL0     H90129   9.509   4.115   6.761  1.1815  1.8394  0.3894
  668MOL0     H90130   9.664   4.056   6.792 -0.2916  1.2577 -1.9876
  668MOL0     H90131   9.661   3.831   6.641 -0.6081 -1.2226 -2.2930
  668MOL0     H90132   9.403   3.581   6.570  0.6997 -2.7391 -0.2398
  668MOL0     H90133   9.581   3.613   6.552 -0.0061 -1.7199 -1.1557
  668MOL0     H90134   9.551   3.390   6.655 -2.1254 -0.3536  0.2707
  668MOL0     H90135   9.609   3.514   6.771 -1.5030  0.8655  0.6093
  668MOL0     H90136   9.317   3.407   6.742  1.0525  1.7607 -1.5046
  668MOL0     H90137   9.372   3.521   6.864 -1.6313  0.8596 -1.6372
  668MOL0     H90138   9.488   3.245   6.812  2.4768  1.6827  0.6942
  668MOL0     H90139   9.343   3.268   6.915 -0.2337 -0.2313 -1.8028
  668MOL0     H90140   9.642   3.388   7.196 -2.2345 -0.2315 -1.5457
  668MOL0     H90141   9.883   3.374   7.238 -2.7050 -0.6391  1.5784
  668MOL0     H90142  10.267   3.030   6.827  0.7469 -0.3260  1.5187
  668MOL0     H90143  10.483   3.012   6.767  0.3337 -1.6889  2.5205
  668MOL0     H90144  10.720   2.961   6.843  1.0675 -0.6294  1.2566
  668MOL0     H90145  10.715   3.085   6.709 -3.4852  2.8549  0.9174
  668MOL0     H90146  10.924   3.180   6.818 -1.8751  0.8600  0.8412
  668MOL0     H90147  10.916   3.048   6.931 -0.5795  1.1242 -0.8905
  668MOL0     H90148  10.901   2.902   6.702 -0.2856 -0.4044  2.4336
  668MOL0     H90149  10.962   3.029   6.615 -1.6599 -0.1504 -0.8869
  668MOL0     H90150  11.158   2.895   6.661  0.7122  2.0180 -0.0437
  668MOL0     H90151  11.118   2.901   6.837  0.8803  0.7503  0.4512
  668MOL0     H90152  11.308   3.035   6.808  1.2340 -0.3827 -2.0963
  668MOL0     H90153  11.163   3.136   6.827  1.0023  2.0938 -1.7299
  668MOL0     H90154  11.279   3.085   6.555 -1.0290 -0.0486 -0.7463
  668MOL0     H90155  11.154   3.215   6.617 -0.7182  1.1902  0.1638
  668MOL0     H90156  11.451   3.192   6.702  3.4405  3.0626 -1.6957
  668MOL0     H90157  11.318   3.321   6.714 -1.5874 -0.5608 -0.3424
  668MOL0     H90158  11.477   3.384   6.540 -3.4162  3.2084 -1.0077
  668MOL0     H90159  11.460   3.227   6.462 -0.2682  1.4356 -1.8703
  668MOL0     H90160  10.572   3.314   7.068  2.3297 -0.0818 -1.8277
  668MOL0     H90161  10.327   3.381   7.064 -3.2772 -1.1860  1.3891
  668MOL0     H90162   9.930   3.236   6.822 -0.8712  2.3435 -2.7967
  668MOL0     H90163   9.702   3.269   6.789 -1.3887 -0.7768  0.6758
  668MOL0     H90164  10.021   3.676   7.609  2.6351  2.1762  1.4187
  668MOL0     H90165  10.278   3.735   7.599  2.5299  0.7392 -1.8464
  668MOL0     H90166  10.649   3.653   7.439 -0.5424  0.3837  0.9378
  668MOL0     H90167  10.884   3.601   7.388 -0.3727 -0.3603 -1.1902
  668MOL0     H90168  11.045   3.542   7.189  2.4922 -3.2638  0.8468
  668MOL0     H90169  11.104   3.616   7.339 -0.8342  1.8175 -0.0783
  668MOL0     H90170  11.325   3.666   7.242  1.6684  0.3270 -3.5957
  668MOL0     H90171  11.244   3.668   7.083 -0.2835  0.8844 -0.0098
  668MOL0     H90172  11.231   3.418   7.098  0.0179  0.8766 -0.5425
  668MOL0     H90173  11.269   3.408   7.261  0.4920 -1.8545 -0.8481
  668MOL0     H90174  11.464   3.558   7.102  2.6111 -0.9986 -2.0852
  668MOL0     H90175  11.490   3.454   7.243  1.6673  3.6912 -0.3637
  668MOL0     H90176  11.537   3.190   6.923 -0.3515 -1.0318  0.7126
  668MOL0     H90177  10.890   3.941   7.103 -1.4995 -1.1658 -3.0557
  668MOL0     H90178  10.710   4.040   7.050  0.6093 -0.6415 -0.2420
  668MOL0     H90179  10.561   3.945   7.054  1.9653 -1.0194 -2.2495
  668MOL0     H90180  10.573   4.070   7.174 -2.5279 -2.5152  0.0019
  669MOL0     O90181   3.121   3.022   4.088  0.2440  0.9221  0.5193
  669MOL0     C90182   3.026   2.945   4.071  0.1178  0.6615 -0.5086
  669MOL0     O90183   3.039   2.810   4.070  0.4661 -0.0495  0.9778
  669MOL0     C90184   3.162   2.763   4.101 -1.1690  0.5258  0.4587
  669MOL0     C90185   3.270   2.765   4.012  0.3610  0.1302 -0.7918
  669MOL0     C90186   3.394   2.707   4.053  0.4408  0.5589  0.2542
  669MOL0     C90187   3.408   2.646   4.181  0.3897  0.3992 -0.6371
  669MOL0     O90188   3.523   2.579   4.225  0.2313  0.0223 -0.6785
  669MOL0     C90189   3.641   2.602   4.143  0.8052  0.0495  0.5979
  669MOL0     C90190   3.766   2.552   4.211 -0.6320 -0.2107  0.0251
  669MOL0     C90191   3.894   2.614   4.160  0.5454 -0.3405 -0.0229
  669MOL0     C90192   4.015   2.516   4.167 -0.9175 -0.0703  0.2521
  669MOL0     C90193   4.132   2.606   4.131  0.5722  1.1180  0.7698
  669MOL0     C90194   4.272   2.553   4.175  0.3631 -0.0700  0.2652
  669MOL0     C90195   4.290   2.548   4.326  0.1339 -0.4550 -0.5438
  669MOL0     C90196   4.268   2.685   4.394 -0.0730 -0.9916 -0.6787
  669MOL0     N90197   4.315   2.668   4.535 -0.0760 -0.4985  0.0043
  669MOL0     C90198   4.221   2.646   4.642 -0.0873 -0.1795  0.5067
  669MOL0     C90199   4.280   2.697   4.756 -0.5238 -1.1295  0.5549
  669MOL0     C90200   4.220   2.680   4.894  0.8320 -0.6356  0.3196
  669MOL0     C90201   4.316   2.604   4.978 -0.0777 -0.1918 -0.3751
  669MOL0     C90202   4.426   2.695   5.025  0.1952 -0.7197 -0.7363
  669MOL0     C90203   4.513   2.650   5.142 -0.4045  0.3796  0.4488
  669MOL0     O90204   4.528   2.514   5.118 -0.2509  0.2940 -0.1855
  669MOL0     C90205   4.647   2.454   5.139  0.5178 -0.3293 -0.5448
  669MOL0     C90206   4.721   2.457   5.264 -0.6622  1.2651  0.4286
  669MOL0     C90207   4.836   2.389   5.276 -0.4317 -0.0086  1.5822
  669MOL0     C90208   4.880   2.298   5.168  0.6895 -0.0888 -0.8038
  669MOL0     C90209   4.999   2.214   5.190  0.5020  0.6303  0.7620
  669MOL0     O90210   5.027   2.175   5.320  0.3644  1.1703 -0.4675
  669MOL0     C90211   5.123   2.081   5.349  0.7980 -0.0852 -0.2494
  669MOL0     C90212   5.097   1.996   5.467 -0.5935 -0.7241  0.0197
  669MOL0     C90213   5.206   1.919   5.509 -0.4414 -0.3548 -0.3221
  669MOL0     C90214   5.337   1.922   5.448 -0.4038 -0.3041 -1.3756
  669MOL0     O90215   5.449   1.846   5.494  0.2698 -0.3753 -0.4577
  669MOL0     C90216   5.577   1.845   5.420  0.4991  0.6268  0.2431
  669MOL0     C90217   5.674   1.742   5.480  0.3057 -0.6875  0.1118
  669MOL0     C90218   5.736   1.784   5.621  0.0768  0.7389 -0.2935
  669MOL0     C90219   5.662   1.708   5.729 -0.5453 -0.0157 -0.1155
  669MOL0     C90220   5.663   1.794   5.860 -0.0121 -0.3735  0.0857
  669MOL0     C90221   5.607   1.732   5.980 -0.3604  0.3414  0.2727
  669MOL0     C90222   5.446   1.702   5.978  0.5395  0.2839 -0.1751
  669MOL0     C90223   5.361   1.807   5.901 -0.2425 -0.3241  0.1947
  669MOL0    Cl90224   5.191   1.763   5.884 -0.1355 -0.0516  0.5340
  669MOL0     C90225   5.355   2.006   5.342  0.2886  0.3082 -0.2710
  669MOL0     C90226   5.244   2.071   5.284  0.1989 -0.6558  0.2621
  669MOL0     O90227   5.063   2.174   5.090 -0.0092  0.3227 -0.8316
  669MOL0     C90228   4.805   2.305   5.044  0.0930 -0.4136  1.0357
  669MOL0     C90229   4.696   2.385   5.030 -0.1625  0.3857  0.3083
  669MOL0     N90230   4.415   2.719   4.719 -0.3026 -0.0096 -0.1040
  669MOL0     N90231   4.439   2.711   4.592 -0.2264  0.0300 -0.3188
  669MOL0     C90232   3.296   2.636   4.264 -1.0285 -0.8781 -0.0029
  669MOL0     C90233   3.177   2.698   4.222  0.7279 -0.7758 -0.2920
  669MOL0     C90234   2.902   3.006   4.026  0.9313  0.1843 -0.2311
  669MOL0     C90235   2.893   3.143   4.022  0.2986  0.0121 -0.8124
  669MOL0     C90236   2.775   3.203   3.981 -0.2135 -0.6084  0.1808
  669MOL0     C90237   2.664   3.133   3.927  0.0803 -0.4140 -0.1594
  669MOL0     O90238   2.559   3.194   3.866  0.7334 -0.0248 -0.0037
  669MOL0     C90239   2.548   3.337   3.851 -0.1391 -0.0563 -0.5769
  669MOL0     C90240   2.444   3.372   3.738  0.0394 -0.0539 -0.2770
  669MOL0     C90241   2.457   3.516   3.688  0.3220 -0.2757  0.0720
  669MOL0     C90242   2.376   3.538   3.555 -0.0569 -0.2759 -0.6541
  669MOL0     C90243   2.235   3.504   3.572 -1.2124 -0.3491 -0.3139
  669MOL0     C90244   2.118   3.479   3.577  0.7269  0.4540 -0.3905
  669MOL0     C90245   2.666   2.997   3.942 -0.5626 -0.4354 -0.2067
  669MOL0     C90246   2.788   2.934   3.989  0.8944  0.4239  0.6003
  669MOL0     C90247   2.772   2.783   3.997  0.0152  0.2086 -0.0940
  669MOL0     H90248   3.257   2.809   3.914  0.1940  0.0168 -0.8214
  669MOL0     H90249   3.466   2.708   3.972  0.7069  1.0527  0.4924
  669MOL0     H90250   3.623   2.553   4.047 -2.0426 -3.1348  2.5344
  669MOL0     H90251   3.657   2.710   4.128  1.7071 -0.4072 -2.4332
  669MOL0     H90252   3.762   2.443   4.201 -0.1181 -0.3384  1.1283
  669MOL0     H90253   3.765   2.575   4.318 -1.8111 -2.4282  0.5487
  669MOL0     H90254   3.901   2.710   4.212  0.4698  0.2756 -1.1167
  669MOL0     H90255   3.883   2.639   4.054 -0.9189  1.3417  0.4818
  669MOL0     H90256   4.022   2.480   4.270 -1.3025 -0.3861  0.1739
  669MOL0     H90257   4.008   2.431   4.097 -2.6505  0.3308 -0.1108
  669MOL0     H90258   4.129   2.609   4.022 -1.8675  0.5131  0.7639
  669MOL0     H90259   4.115   2.704   4.179  0.5914  0.8207  1.4012
  669MOL0     H90260   4.272   2.453   4.131  2.9256 -0.5617  1.2369
  669MOL0     H90261   4.351   2.616   4.133  0.6540 -1.5901 -1.5945
  669MOL0     H90262   4.393   2.516   4.343  0.4684  1.5988  1.8272
  669MOL0     H90263   4.221   2.477   4.372 -1.7483 -2.3993 -5.6704
  669MOL0     H90264   4.320   2.765   4.340 -0.3757 -0.2462  0.0956
  669MOL0     H90265   4.160   2.701   4.392 -0.0960 -0.2400  2.1538
  669MOL0     H90266   4.116   2.622   4.637  0.2413 -1.4539 -1.1232
  669MOL0     H90267   4.198   2.778   4.938 -0.8296 -1.5064  1.5383
  669MOL0     H90268   4.127   2.624   4.884  0.2405  0.3278  0.2761
  669MOL0     H90269   4.259   2.560   5.060  0.7545 -0.5168  0.0425
  669MOL0     H90270   4.365   2.522   4.926 -1.4913 -0.9741 -0.5134
  669MOL0     H90271   4.386   2.790   5.063  0.3864 -1.1491  0.6160
  669MOL0     H90272   4.496   2.721   4.946  0.0595  2.1182 -0.0102
  669MOL0     H90273   4.453   2.683   5.228 -1.7193 -0.3294 -0.1606
  669MOL0     H90274   4.614   2.692   5.148  0.2520  0.0674 -4.4359
  669MOL0     H90275   4.677   2.518   5.342 -2.2774 -2.2056  2.4990
  669MOL0     H90276   4.885   2.384   5.373 -0.6209  0.6232  1.7142
  669MOL0     H90277   4.998   2.002   5.510 -0.8324 -0.2756 -0.5784
  669MOL0     H90278   5.182   1.849   5.589 -0.0131  0.0293  0.1416
  669MOL0     H90279   5.557   1.819   5.316 -2.2035  4.2533 -0.3452
  669MOL0     H90280   5.626   1.943   5.422  3.7511 -0.7177 -3.0778
  669MOL0     H90281   5.626   1.644   5.490 -2.5823  0.5857 -0.2088
  669MOL0     H90282   5.756   1.733   5.408 -1.3084 -0.8279 -1.7666
  669MOL0     H90283   5.840   1.752   5.621  0.2206  1.1363  1.2057
  669MOL0     H90284   5.731   1.893   5.627 -0.5707  1.0042 -3.5943
  669MOL0     H90285   5.713   1.614   5.753  1.0282  0.7837 -0.1926
  669MOL0     H90286   5.558   1.690   5.703 -0.7059 -1.7100  1.5226
  669MOL0     H90287   5.604   1.883   5.835 -1.0267 -1.3403 -1.1359
  669MOL0     H90288   5.768   1.811   5.885  0.5262 -0.3120 -1.9690
  669MOL0     H90289   5.654   1.640   6.016 -0.5800  1.1532  2.7962
  669MOL0     H90290   5.620   1.807   6.058 -0.6143  1.1164 -0.4208
  669MOL0     H90291   5.418   1.696   6.083  1.2158 -1.4491 -0.0681
  669MOL0     H90292   5.429   1.607   5.927 -0.4097  0.6048 -0.4664
  669MOL0     H90293   5.362   1.899   5.959 -0.8843 -0.6180  0.6889
  669MOL0     H90294   5.412   1.819   5.805  3.5557 -0.7455  1.9651
  669MOL0     H90295   5.454   2.025   5.304  0.6431  0.6166  0.7710
  669MOL0     H90296   5.264   2.146   5.209 -0.6628 -1.0906 -0.4126
  669MOL0     H90297   4.848   2.246   4.964 -0.1085  0.0690  0.5696
  669MOL0     H90298   4.636   2.360   4.943 -1.0038 -2.5573  1.6312
  669MOL0     H90299   3.313   2.597   4.364  1.3682 -1.0291 -0.4179
  669MOL0     H90300   3.085   2.692   4.280  1.1000  1.5524  0.6577
  669MOL0     H90301   2.963   3.209   4.074 -1.0036 -0.4384  1.6667
  669MOL0     H90302   2.762   3.311   3.974 -0.3782 -0.6910 -1.0213
  669MOL0     H90303   2.644   3.378   3.821 -0.0820  0.0719 -0.2209
  669MOL0     H90304   2.510   3.372   3.947  0.1858 -2.4264  0.5020
  669MOL0     H90305   2.343   3.358   3.778  0.0475  1.1250  0.1908
  669MOL0     H90306   2.466   3.300   3.659  0.5207  0.2194 -0.4015
  669MOL0     H90307   2.563   3.535   3.667  0.0684  3.1643  1.2802
  669MOL0     H90308   2.433   3.584   3.770 -0.2463 -0.0756 -0.2541
  669MOL0     H90309   2.392   3.644   3.534 -1.6335 -0.2504 -1.9138
  669MOL0     H90310   2.416   3.479   3.472 -0.2771 -0.0551 -0.9219
  669MOL0     H90311   2.014   3.455   3.573  1.0162 -0.6535 -2.1866
  669MOL0     H90312   2.579   2.939   3.915 -0.0743 -0.3303 -2.1536
  669MOL0     H90313   2.776   2.755   4.102  0.6468  2.6828  0.5871
  669MOL0     H90314   2.673   2.747   3.967 -0.1436  2.4296 -2.6236
  669MOL0     H90315   2.846   2.728   3.938 -0.4507 -1.3540  0.7302
  670MOL0     O90316  10.541   7.305   4.333  0.0308  0.4168 -0.7512
  670MOL0     C90317  10.449   7.240   4.278 -0.6634 -0.3407 -0.4533
  670MOL0     O90318  10.441   7.207   4.144 -0.1572 -0.3498  0.6531
  670MOL0     C90319  10.535   7.264   4.069 -0.5414 -0.3846 -0.2475
  670MOL0     C90320  10.535   7.391   4.026  0.1651 -0.1093 -0.8060
  670MOL0     C90321  10.639   7.439   3.939 -0.8701 -0.3559  0.1507
  670MOL0     C90322  10.753   7.365   3.910 -1.0630  0.5867  0.4631
  670MOL0     O90323  10.864   7.408   3.844  0.0899 -0.3684 -0.5072
  670MOL0     C90324  10.906   7.546   3.842  0.9819  0.6857 -0.9107
  670MOL0     C90325  11.043   7.552   3.775  0.6074 -0.2044 -0.9948
  670MOL0     C90326  11.119   7.685   3.820  0.6719  0.7597  0.2082
  670MOL0     C90327  11.239   7.703   3.726 -0.1511 -0.3445  0.1993
  670MOL0     C90328  11.343   7.805   3.784  0.5617  0.3441 -0.3895
  670MOL0     C90329  11.319   7.947   3.726  0.5744  0.2332 -0.4570
  670MOL0     C90330  11.400   7.964   3.597  0.2763  0.5730 -0.3135
  670MOL0     C90331  11.525   8.051   3.607 -1.0108  0.2818  0.2304
  670MOL0     N90332  11.578   8.065   3.473  0.8605 -0.0555 -0.3125
  670MOL0     C90333  11.610   7.967   3.381  0.1219 -0.5252  0.8458
  670MOL0     C90334  11.638   8.033   3.262 -1.3507 -0.1556 -0.1757
  670MOL0     C90335  11.677   7.975   3.126  0.0872  0.3756  0.6694
  670MOL0     C90336  11.830   7.944   3.128  0.4820  0.0176  0.1312
  670MOL0     C90337  11.882   7.938   2.980  0.2968  0.3134  0.4531
  670MOL0     C90338  11.941   7.801   2.944 -0.8041  0.0519  0.7419
  670MOL0     O90339  12.050   7.766   3.036 -0.2909 -0.1886  0.4728
  670MOL0     C90340  12.189   7.785   3.004  0.4703  0.8116  0.3213
  670MOL0     C90341  12.277   7.717   3.085 -0.5633  0.0680 -0.8375
  670MOL0     C90342  12.414   7.720   3.064  0.1377 -0.7501  0.1990
  670MOL0     C90343  12.463   7.823   2.978  0.1228  0.0884  0.1288
  670MOL0     C90344  12.616   7.824   2.955  0.2486  0.3707  0.5519
  670MOL0     O90345  12.681   7.720   3.017 -0.2576 -0.2135 -0.1612
  670MOL0     C90346  12.816   7.718   3.004 -0.3251  0.3141 -0.5862
  670MOL0     C90347  12.889   7.709   3.123  0.9536 -0.4765  0.5851
  670MOL0     C90348  13.024   7.669   3.122  0.2958  0.4877 -0.1125
  670MOL0     C90349  13.093   7.666   2.997 -0.1325 -0.7037 -0.0615
  670MOL0     O90350  13.226   7.638   3.009 -0.4924 -0.3832 -0.3043
  670MOL0     C90351  13.296   7.591   2.895 -0.4217 -0.0441 -0.5237
  670MOL0     C90352  13.440   7.552   2.930  0.3756  0.1482 -0.0345
  670MOL0     C90353  13.447   7.423   3.021  0.4347  0.1553  0.4857
  670MOL0     C90354  13.582   7.403   3.095 -0.2519 -0.5375 -0.6906
  670MOL0     C90355  13.579   7.263   3.162 -0.4335 -0.9082 -0.2358
  670MOL0     C90356  13.725   7.236   3.219 -0.2555 -0.8163 -0.4237
  670MOL0     C90357  13.765   7.317   3.351  0.2608 -0.7868 -0.1614
  670MOL0     C90358  13.923   7.330   3.373 -0.1071 -0.9049  0.6337
  670MOL0    Cl90359  13.989   7.437   3.241  0.1532 -0.1793 -0.4643
  670MOL0     C90360  13.021   7.687   2.873  0.6473  0.4051 -0.4693
  670MOL0     C90361  12.884   7.707   2.881  0.6546  0.4868 -0.5360
  670MOL0     O90362  12.665   7.916   2.888  0.6135  1.2812 -0.1236
  670MOL0     C90363  12.375   7.895   2.902  0.9197 -0.0048 -0.0623
  670MOL0     C90364  12.233   7.871   2.908  0.4355  0.3674  0.5414
  670MOL0     N90365  11.624   8.167   3.283  0.3424 -0.4177 -1.0398
  670MOL0     N90366  11.594   8.185   3.420  0.2041  0.5662  0.7734
  670MOL0     C90367  10.749   7.239   3.966  0.0056  1.0634  0.4034
  670MOL0     C90368  10.647   7.182   4.035  0.8673 -0.2148 -0.3928
  670MOL0     C90369  10.333   7.201   4.368 -0.6798 -0.3878 -0.6680
  670MOL0     C90370  10.216   7.160   4.301  0.4280 -0.2306 -0.0116
  670MOL0     C90371  10.097   7.126   4.370  0.4900  0.7173 -0.6415
  670MOL0     C90372  10.099   7.125   4.509  0.4273  0.2694  0.0156
  670MOL0     O90373   9.994   7.089   4.587 -0.5387  1.3016 -0.0163
  670MOL0     C90374   9.864   7.072   4.541  0.3324 -0.4893  0.4220
  670MOL0     C90375   9.814   7.221   4.526  0.4560  0.6596 -0.0846
  670MOL0     C90376   9.663   7.230   4.494 -0.1053 -0.3161  0.0975
  670MOL0     C90377   9.624   7.373   4.438 -0.3054 -0.2627  0.2515
  670MOL0     C90378   9.679   7.486   4.510  0.9921  0.0355 -0.9537
  670MOL0     C90379   9.733   7.569   4.577 -0.0034  0.2356 -0.7675
  670MOL0     C90380  10.211   7.176   4.576  0.1995  0.9519 -0.2122
  670MOL0     C90381  10.332   7.214   4.507  0.3560 -0.4874 -0.9896
  670MOL0     C90382  10.449   7.273   4.588  0.7817  0.1167  0.8736
  670MOL0     H90383  10.461   7.465   4.054  1.0479  1.4788 -2.4935
  670MOL0     H90384  10.631   7.540   3.900  0.1593 -0.0423  0.7057
  670MOL0     H90385  10.832   7.615   3.802  1.0942  1.1025 -0.4141
  670MOL0     H90386  10.922   7.585   3.943 -0.0170 -0.3456 -0.3290
  670MOL0     H90387  11.035   7.543   3.666 -1.4697  1.7001 -1.0808
  670MOL0     H90388  11.103   7.471   3.817 -3.3882 -1.2324  3.7901
  670MOL0     H90389  11.143   7.652   3.921 -0.1065 -3.1748 -0.7473
  670MOL0     H90390  11.046   7.766   3.807  0.2971  0.2532 -0.9761
  670MOL0     H90391  11.289   7.609   3.702  2.0078  1.4095 -2.8527
  670MOL0     H90392  11.201   7.729   3.627  3.6303 -1.4437 -1.7032
  670MOL0     H90393  11.323   7.801   3.892 -1.4912  0.2106 -0.7346
  670MOL0     H90394  11.444   7.768   3.766  0.3888 -0.9602  1.0898
  670MOL0     H90395  11.217   7.959   3.687  1.2878  0.7436 -2.2567
  670MOL0     H90396  11.333   8.025   3.801 -0.1315 -0.1437  0.0826
  670MOL0     H90397  11.327   7.999   3.523  1.2088 -0.8080 -1.9468
  670MOL0     H90398  11.428   7.866   3.560  4.1489  0.9481  1.2364
  670MOL0     H90399  11.505   8.151   3.645 -1.9404  0.2768 -0.2132
  670MOL0     H90400  11.604   8.004   3.667  1.9402  2.4308 -1.7245
  670MOL0     H90401  11.593   7.861   3.389 -0.1767 -0.6032 -0.5661
  670MOL0     H90402  11.616   7.886   3.105  1.6159 -0.3909 -0.7175
  670MOL0     H90403  11.665   8.059   3.058  1.5028  0.3532  0.3631
  670MOL0     H90404  11.878   8.024   3.185  0.2743 -0.1744  0.5766
  670MOL0     H90405  11.844   7.851   3.183  0.7787  1.2529  2.2480
  670MOL0     H90406  11.975   7.995   2.983  1.4783 -1.5239  0.1156
  670MOL0     H90407  11.821   7.967   2.894 -0.2652 -2.9956 -0.3849
  670MOL0     H90408  11.974   7.791   2.840 -1.9034 -0.4140  0.4284
  670MOL0     H90409  11.864   7.725   2.953 -0.4414 -0.6417 -1.5287
  670MOL0     H90410  12.238   7.649   3.160 -1.0536  1.9194  0.6602
  670MOL0     H90411  12.480   7.653   3.118  0.8081  2.0832  3.2375
  670MOL0     H90412  12.828   7.707   3.212 -0.1741 -0.1219 -0.1592
  670MOL0     H90413  13.078   7.634   3.209 -1.6289  0.8167  1.2891
  670MOL0     H90414  13.242   7.517   2.835  0.0550  0.9567 -2.2625
  670MOL0     H90415  13.303   7.678   2.829  0.2118 -0.6338 -1.2463
  670MOL0     H90416  13.507   7.537   2.845  1.5384 -0.9094  1.0184
  670MOL0     H90417  13.495   7.635   2.976  3.2968 -1.0800 -1.0493
  670MOL0     H90418  13.369   7.438   3.096 -0.3289  0.0372 -0.2696
  670MOL0     H90419  13.434   7.336   2.956 -1.6484 -0.9490  2.2732
  670MOL0     H90420  13.585   7.483   3.170  0.5018 -0.5244 -0.7318
  670MOL0     H90421  13.664   7.411   3.023 -0.4992 -1.1264 -1.0422
  670MOL0     H90422  13.566   7.193   3.079 -0.9796  1.1198 -1.9410
  670MOL0     H90423  13.504   7.252   3.240 -0.5167  0.3806 -0.1210
  670MOL0     H90424  13.744   7.135   3.256 -0.0294  0.8836  5.0027
  670MOL0     H90425  13.787   7.265   3.135  0.5189  2.5565  1.1309
  670MOL0     H90426  13.737   7.274   3.448  2.1567 -0.2866  0.6423
  670MOL0     H90427  13.715   7.414   3.352  0.8212 -0.3978  3.9518
  670MOL0     H90428  13.944   7.389   3.463 -2.4319 -2.2052  2.1101
  670MOL0     H90429  13.976   7.234   3.368 -0.6383 -1.2639  1.7075
  670MOL0     H90430  13.072   7.684   2.778  1.0259  0.6756 -0.2798
  670MOL0     H90431  12.825   7.714   2.790  2.3078  1.9797 -1.5631
  670MOL0     H90432  12.422   7.974   2.844  1.6135 -1.5824 -1.7450
  670MOL0     H90433  12.171   7.929   2.840  1.6583  1.2948  0.1952
  670MOL0     H90434  10.829   7.174   3.932  0.1258  2.5297 -2.4397
  670MOL0     H90435  10.655   7.078   4.064  0.0115 -0.0606  0.4559
  670MOL0     H90436  10.212   7.142   4.195 -1.5115 -1.0256  0.1478
  670MOL0     H90437  10.012   7.087   4.316 -0.2276  2.0487 -0.5365
  670MOL0     H90438   9.805   7.020   4.617  1.5846 -1.1015  0.9940
  670MOL0     H90439   9.857   7.031   4.440  0.9340  2.6602 -1.0449
  670MOL0     H90440   9.866   7.265   4.441 -1.7665  0.0762 -1.8447
  670MOL0     H90441   9.849   7.285   4.608 -0.3021  0.4100  0.4512
  670MOL0     H90442   9.598   7.220   4.581 -0.7501  1.8415 -0.0742
  670MOL0     H90443   9.642   7.160   4.412  1.1562  0.1673 -0.6737
  670MOL0     H90444   9.648   7.393   4.333 -2.7365  4.1103  0.2903
  670MOL0     H90445   9.515   7.374   4.447 -0.2851 -1.3486  0.7987
  670MOL0     H90446   9.782   7.648   4.630 -1.3694  1.0860 -0.7162
  670MOL0     H90447  10.199   7.185   4.683  1.6290  1.1377 -0.0502
  670MOL0     H90448  10.433   7.272   4.696 -1.2444  0.4508  0.6272
  670MOL0     H90449  10.541   7.223   4.559 -0.4819 -2.9686  1.8422
  670MOL0     H90450  10.454   7.379   4.561 -1.3875 -0.4758 -2.4834
  671MOL0     O90451   1.405   4.886   4.018 -0.2273 -0.4667  0.6042
  671MOL0     C90452   1.436   4.967   4.101  0.2515 -0.0118 -0.1624
  671MOL0     O90453   1.564   4.992   4.138 -0.0036  0.0425  0.3954
  671MOL0     C90454   1.679   4.942   4.082  0.7850 -0.1175 -0.4905
  671MOL0     C90455   1.792   5.009   4.115 -0.0443 -1.0414 -0.1500
  671MOL0     C90456   1.910   4.969   4.057  0.4893  0.0381 -0.8121
  671MOL0     C90457   1.916   4.860   3.974 -0.1216  0.3699  0.9277
  671MOL0     O90458   2.036   4.816   3.912 -0.2281  0.6089 -0.4390
  671MOL0     C90459   2.057   4.837   3.769 -0.0156 -0.5790 -0.2647
  671MOL0     C90460   2.204   4.857   3.745  0.1033 -0.4270 -1.0824
  671MOL0     C90461   2.286   4.730   3.776 -0.7043 -0.4342  0.4098
  671MOL0     C90462   2.438   4.743   3.761 -0.2003 -0.3636  1.0472
  671MOL0     C90463   2.508   4.608   3.754  0.3086 -0.4010 -0.5511
  671MOL0     C90464   2.656   4.648   3.798  0.3331  0.6616 -0.1980
  671MOL0     C90465   2.740   4.516   3.782  0.4776  0.1119 -0.5715
  671MOL0     C90466   2.870   4.509   3.875 -0.1270  0.2143  0.0265
  671MOL0     N90467   2.959   4.613   3.829  0.5137 -0.4305 -1.0443
  671MOL0     C90468   3.029   4.617   3.715 -0.8718  1.0677  1.3134
  671MOL0     C90469   3.084   4.737   3.697  0.1460  0.0832  0.2760
  671MOL0     C90470   3.170   4.786   3.586 -0.6016  0.2335  0.0960
  671MOL0     C90471   3.325   4.747   3.586 -0.0580  0.0416 -0.7261
  671MOL0     C90472   3.391   4.798   3.712 -0.1619 -0.2612  0.0957
  671MOL0     C90473   3.542   4.780   3.688  1.3893  1.3376 -1.0940
  671MOL0     O90474   3.590   4.869   3.590  0.0914 -0.4799  0.0386
  671MOL0     C90475   3.718   4.842   3.561  0.0356 -0.3016  0.1425
  671MOL0     C90476   3.742   4.876   3.428  0.5535 -0.6711  0.6659
  671MOL0     C90477   3.865   4.837   3.374  0.5727 -1.0405  0.4290
  671MOL0     C90478   3.968   4.785   3.448 -0.3346 -0.0482  0.3245
  671MOL0     C90479   4.102   4.749   3.395 -0.8092 -0.7626 -0.3214
  671MOL0     O90480   4.202   4.728   3.483  0.6827  0.6570 -0.4546
  671MOL0     C90481   4.324   4.678   3.451  0.5264 -0.1796 -0.6764
  671MOL0     C90482   4.368   4.568   3.528  0.2893  0.4499  0.0678
  671MOL0     C90483   4.498   4.518   3.499 -0.3567  0.5131  0.7497
  671MOL0     C90484   4.579   4.562   3.392  0.0509 -0.7971  0.4371
  671MOL0     O90485   4.704   4.513   3.384  0.9263  0.1106 -1.4318
  671MOL0     C90486   4.809   4.591   3.322 -0.3246 -0.7546 -0.3361
  671MOL0     C90487   4.830   4.732   3.369 -0.0377  0.8247 -0.2206
  671MOL0     C90488   4.842   4.745   3.518  0.2499  0.1868 -0.3426
  671MOL0     C90489   4.922   4.643   3.601 -0.2382  0.4978  1.2444
  671MOL0     C90490   4.944   4.686   3.747 -0.4517 -0.2625  0.0195
  671MOL0     C90491   5.030   4.595   3.836 -0.0734 -0.4466  0.7552
  671MOL0     C90492   5.084   4.686   3.948 -0.2333  0.0314 -0.2254
  671MOL0     C90493   5.174   4.591   4.043  0.4033 -0.1207 -0.3970
  671MOL0    Cl90494   5.052   4.474   4.119  0.1414 -0.0537 -0.1286
  671MOL0     C90495   4.525   4.676   3.319 -0.5781 -0.2234 -0.4329
  671MOL0     C90496   4.395   4.731   3.345 -0.4180 -0.9906  0.2955
  671MOL0     O90497   4.103   4.734   3.274 -0.6759  0.2654 -0.1631
  671MOL0     C90498   3.949   4.769   3.591  0.2160 -0.3751 -0.4210
  671MOL0     C90499   3.824   4.791   3.643  0.3978 -0.0280 -0.1948
  671MOL0     N90500   3.044   4.811   3.805  0.2741  0.1588  0.2114
  671MOL0     N90501   2.976   4.736   3.883 -0.3491  0.2570  0.5183
  671MOL0     C90502   1.799   4.797   3.939  0.6704 -0.3376  0.1754
  671MOL0     C90503   1.680   4.833   3.999  0.7235 -0.6160 -0.4331
  671MOL0     C90504   1.328   5.054   4.154 -1.0223  0.2812 -1.2973
  671MOL0     C90505   1.347   5.184   4.135 -1.7975 -0.1079  0.5464
  671MOL0     C90506   1.258   5.283   4.179  0.4914 -0.7035 -0.3678
  671MOL0     C90507   1.144   5.245   4.256  0.2133  1.5644  0.4108
  671MOL0     O90508   1.043   5.326   4.284 -0.1739  0.4452 -0.7772
  671MOL0     C90509   1.029   5.444   4.207  0.1356  0.0324  0.5938
  671MOL0     C90510   0.879   5.488   4.217 -0.5826  0.5014  0.2459
  671MOL0     C90511   0.842   5.595   4.112 -0.6310  0.3618  0.4583
  671MOL0     C90512   0.687   5.636   4.113  0.5828  0.4070  0.1964
  671MOL0     C90513   0.593   5.526   4.080  0.2203 -0.6582 -0.6434
  671MOL0     C90514   0.509   5.444   4.039 -0.9107  0.6255 -0.1207
  671MOL0     C90515   1.125   5.104   4.278  0.2236  0.1676  0.5859
  671MOL0     C90516   1.217   5.013   4.228  0.3076 -0.1446 -0.2351
  671MOL0     C90517   1.196   4.862   4.240 -1.2010 -0.0565 -0.0653
  671MOL0     H90518   1.796   5.095   4.182  0.9099 -1.5302  0.4232
  671MOL0     H90519   2.002   5.014   4.094 -0.2322  0.7010  0.2116
  671MOL0     H90520   2.029   4.750   3.709 -2.0330  0.9156 -1.6533
  671MOL0     H90521   1.996   4.920   3.731  0.2372  0.6106  1.7591
  671MOL0     H90522   2.245   4.939   3.804  1.0008 -1.0126 -0.8838
  671MOL0     H90523   2.214   4.884   3.639  2.6736 -3.1776 -1.6846
  671MOL0     H90524   2.249   4.648   3.714  0.2721 -1.6523  1.3615
  671MOL0     H90525   2.261   4.694   3.877 -0.5845 -1.4471  0.0923
  671MOL0     H90526   2.463   4.785   3.663 -1.9441 -0.0895  0.6887
  671MOL0     H90527   2.482   4.807   3.838 -1.3876  1.4421  0.2888
  671MOL0     H90528   2.465   4.543   3.831  3.0572  0.2400  1.6840
  671MOL0     H90529   2.503   4.571   3.651 -1.3372  2.3291 -1.5413
  671MOL0     H90530   2.702   4.716   3.727 -0.2798  0.4814 -0.7757
  671MOL0     H90531   2.650   4.693   3.898 -3.4520  0.7174 -0.3152
  671MOL0     H90532   2.775   4.505   3.678  1.6084  1.1759 -0.3261
  671MOL0     H90533   2.678   4.431   3.813  2.4177 -0.5284  1.9088
  671MOL0     H90534   2.838   4.538   3.975 -1.4799 -0.1702 -0.2808
  671MOL0     H90535   2.909   4.407   3.860 -0.6047  0.1797 -1.0977
  671MOL0     H90536   3.033   4.535   3.644  0.6893  1.1335  1.3015
  671MOL0     H90537   3.130   4.743   3.494  1.8588 -0.9159 -0.5436
  671MOL0     H90538   3.169   4.895   3.571  1.6548  0.2235 -0.6233
  671MOL0     H90539   3.333   4.638   3.580  1.6884  0.1585 -1.1229
  671MOL0     H90540   3.366   4.789   3.493  3.1841  0.7299  0.8924
  671MOL0     H90541   3.360   4.739   3.800  0.0554 -1.2614 -0.4816
  671MOL0     H90542   3.375   4.905   3.721  0.1928 -0.1059 -1.0419
  671MOL0     H90543   3.567   4.676   3.670  0.4633  0.6356  1.2469
  671MOL0     H90544   3.584   4.806   3.786 -1.4070 -0.0070  0.5857
  671MOL0     H90545   3.662   4.918   3.369  0.6555 -0.8994  0.3658
  671MOL0     H90546   3.878   4.855   3.268  1.1353 -1.6359  0.3935
  671MOL0     H90547   4.300   4.523   3.599 -1.5426  0.1388 -1.7715
  671MOL0     H90548   4.528   4.427   3.550  1.1558  1.0625  0.8866
  671MOL0     H90549   4.903   4.537   3.331 -0.2188 -0.5788 -0.3780
  671MOL0     H90550   4.789   4.591   3.214  0.0402  0.9265 -0.4251
  671MOL0     H90551   4.924   4.764   3.324  1.5666 -0.4553  2.0357
  671MOL0     H90552   4.749   4.796   3.333 -0.8408 -1.2777 -2.4542
  671MOL0     H90553   4.889   4.841   3.541  0.6060 -0.5341  2.3063
  671MOL0     H90554   4.743   4.740   3.564  1.7140  1.0471  3.3087
  671MOL0     H90555   5.014   4.626   3.544 -1.1830  1.0866 -0.5255
  671MOL0     H90556   4.865   4.550   3.600  2.8461 -1.5036  0.8377
  671MOL0     H90557   4.850   4.711   3.797 -1.5808  1.7303 -2.8396
  671MOL0     H90558   4.998   4.780   3.736  3.0124 -2.2972 -2.5005
  671MOL0     H90559   4.981   4.506   3.875  0.8840 -0.3614  2.2155
  671MOL0     H90560   5.112   4.558   3.773 -1.8675  0.6184 -2.4369
  671MOL0     H90561   5.006   4.728   4.011 -2.3543 -1.7142 -1.5508
  671MOL0     H90562   5.153   4.761   3.909  0.8487 -0.4984  0.6093
  671MOL0     H90563   5.250   4.536   3.986 -0.6618 -1.8198 -0.2597
  671MOL0     H90564   5.228   4.645   4.121  3.2036 -2.3132 -0.6280
  671MOL0     H90565   4.571   4.715   3.229 -2.4529  0.2892 -1.2130
  671MOL0     H90566   4.350   4.799   3.273 -1.9042 -3.7164 -1.5164
  671MOL0     H90567   4.023   4.733   3.662  2.6418  1.3787 -1.8954
  671MOL0     H90568   3.812   4.781   3.751 -2.3742 -5.0667 -0.6611
  671MOL0     H90569   1.810   4.713   3.872  0.2532 -0.0725 -0.2311
  671MOL0     H90570   1.592   4.776   3.970 -1.6458  2.5311  0.0250
  671MOL0     H90571   1.429   5.235   4.086 -1.3467  0.7037  2.0672
  671MOL0     H90572   1.280   5.385   4.148 -3.1558 -0.7981 -4.2926
  671MOL0     H90573   1.054   5.428   4.101  0.8418  2.5018  0.3301
  671MOL0     H90574   1.100   5.518   4.245 -1.1163 -0.5480  4.4555
  671MOL0     H90575   0.846   5.511   4.319 -0.9810  0.8946  0.0327
  671MOL0     H90576   0.818   5.398   4.203 -0.5447  0.5605 -0.3006
  671MOL0     H90577   0.868   5.551   4.015  0.8166  0.4882  0.7742
  671MOL0     H90578   0.913   5.678   4.116  0.4331 -0.2604 -2.6475
  671MOL0     H90579   0.665   5.682   4.209 -1.1092  0.5217 -0.2201
  671MOL0     H90580   0.659   5.712   4.040  0.5268  0.1262 -0.0802
  671MOL0     H90581   0.442   5.362   4.022  0.9326 -0.9877  0.0645
  671MOL0     H90582   1.035   5.058   4.318 -0.9674 -0.3949 -2.4695
  671MOL0     H90583   1.287   4.811   4.271 -2.9738 -2.7789  1.0179
  671MOL0     H90584   1.119   4.838   4.313 -1.0129 -1.7964 -0.3986
  671MOL0     H90585   1.165   4.810   4.149  0.0464 -0.8172 -0.0702
  672MOL0     O90586   7.605   6.672   7.379 -0.1806 -0.4901  0.4166
  672MOL0     C90587   7.492   6.626   7.381 -0.3513  0.4070 -0.5260
  672MOL0     O90588   7.466   6.497   7.332 -0.3315 -0.1538  0.8077
  672MOL0     C90589   7.569   6.439   7.254  0.4685  0.9465 -1.0493
  672MOL0     C90590   7.581   6.472   7.120  0.5060 -1.0705  0.5905
  672MOL0     C90591   7.684   6.423   7.043 -0.3160  0.3852  1.7915
  672MOL0     C90592   7.783   6.338   7.095  0.0371  0.4891 -0.6725
  672MOL0     O90593   7.880   6.292   7.014 -0.3123  0.1525  1.0349
  672MOL0     C90594   8.003   6.250   7.071  0.2298  0.3282 -0.7109
  672MOL0     C90595   8.106   6.232   6.949  0.0928  0.0091 -0.6673
  672MOL0     C90596   8.120   6.377   6.888  0.4563  0.2403 -0.2325
  672MOL0     C90597   8.205   6.478   6.966  0.0172  0.3864  0.5549
  672MOL0     C90598   8.354   6.449   6.957 -0.2243  0.8198 -0.0000
  672MOL0     C90599   8.452   6.561   7.013  0.6862  0.7300 -0.0132
  672MOL0     C90600   8.447   6.699   6.941 -0.2268 -0.2233 -0.1771
  672MOL0     C90601   8.581   6.778   6.969  0.0280 -0.1923  0.1568
  672MOL0     N90602   8.603   6.786   7.114 -0.1622 -0.3805  1.4260
  672MOL0     C90603   8.725   6.761   7.166 -0.0537  0.2700  0.8691
  672MOL0     C90604   8.710   6.806   7.294 -0.4949  0.4895  0.4414
  672MOL0     C90605   8.819   6.790   7.396  0.4800 -1.4274  0.2034
  672MOL0     C90606   8.960   6.835   7.358  0.3101  0.2369 -0.4064
  672MOL0     C90607   9.073   6.766   7.440 -0.5160 -0.4961 -0.6308
  672MOL0     C90608   9.210   6.814   7.403  0.2116  0.2724  0.4922
  672MOL0     O90609   9.301   6.796   7.521  0.0811  0.3794 -0.3778
  672MOL0     C90610   9.402   6.888   7.537 -0.3430 -0.8013  0.0952
  672MOL0     C90611   9.457   6.960   7.429  0.0232  0.3430 -0.0617
  672MOL0     C90612   9.566   7.045   7.455  0.6066  0.2632 -0.7752
  672MOL0     C90613   9.626   7.073   7.587  0.8249 -0.0880  0.3792
  672MOL0     C90614   9.745   7.161   7.608  1.4827 -0.2576  0.4444
  672MOL0     O90615   9.800   7.223   7.507  0.4694 -0.4177 -0.1206
  672MOL0     C90616   9.936   7.252   7.501 -0.4650  0.5115  0.3997
  672MOL0     C90617   9.974   7.364   7.427  0.9971  0.0429  0.2894
  672MOL0     C90618  10.107   7.388   7.405  0.0358  0.3906  0.2799
  672MOL0     C90619  10.210   7.308   7.454 -0.1456  0.0871  1.0742
  672MOL0     O90620  10.351   7.330   7.448  0.0657 -0.0816 -0.1727
  672MOL0     C90621  10.389   7.412   7.341 -0.6678 -0.8265  0.4107
  672MOL0     C90622  10.543   7.392   7.327 -0.5808  0.1379  0.0070
  672MOL0     C90623  10.624   7.481   7.428 -0.2404 -0.7574  0.0801
  672MOL0     C90624  10.763   7.413   7.462  0.3548  0.6759 -0.9749
  672MOL0     C90625  10.870   7.485   7.549  0.9969  0.2611 -0.0394
  672MOL0     C90626  11.005   7.408   7.568  1.4178  0.1044  0.4494
  672MOL0     C90627  11.102   7.471   7.668 -0.3350 -0.4378 -1.4343
  672MOL0     C90628  11.244   7.413   7.670 -0.9782  0.1339 -0.1940
  672MOL0    Cl90629  11.232   7.232   7.674 -0.4139 -0.2508  0.4314
  672MOL0     C90630  10.173   7.191   7.521  0.1926  0.1916  0.9555
  672MOL0     C90631  10.035   7.164   7.548  0.4052  0.3103  0.1664
  672MOL0     O90632   9.787   7.162   7.726  0.5370 -0.1370  0.3548
  672MOL0     C90633   9.572   6.996   7.688 -0.0130 -0.1250 -0.1734
  672MOL0     C90634   9.459   6.913   7.663 -0.9856 -0.0222 -0.0271
  672MOL0     N90635   8.597   6.875   7.304 -0.1349 -0.2430 -0.4512
  672MOL0     N90636   8.527   6.859   7.194  0.0033  0.5382 -0.0805
  672MOL0     C90637   7.779   6.302   7.231 -0.3334 -0.3532  0.0898
  672MOL0     C90638   7.673   6.353   7.307 -0.4358  0.0151  0.8205
  672MOL0     C90639   7.373   6.713   7.402  0.1744  0.3995  0.2866
  672MOL0     C90640   7.272   6.684   7.318  0.3477 -0.3609 -0.3239
  672MOL0     C90641   7.148   6.740   7.327  0.4659  0.5307 -0.0155
  672MOL0     C90642   7.116   6.819   7.436 -1.5143  0.3718  1.0014
  672MOL0     O90643   6.986   6.864   7.455 -0.3696 -0.3359  0.1011
  672MOL0     C90644   6.958   6.985   7.527  0.1564 -0.1375  0.2589
  672MOL0     C90645   6.813   6.991   7.547  0.3301 -0.4227  0.4221
  672MOL0     C90646   6.761   6.899   7.658 -0.5814 -0.1346 -0.1154
  672MOL0     C90647   6.610   6.901   7.686 -0.3832  0.7250 -0.3145
  672MOL0     C90648   6.591   7.008   7.780  0.2046 -1.0024  0.0502
  672MOL0     C90649   6.584   7.097   7.864 -0.8228 -0.1268  0.3022
  672MOL0     C90650   7.222   6.840   7.529  0.0302  0.0992 -0.4111
  672MOL0     C90651   7.350   6.791   7.512 -1.0549 -0.1511  0.2019
  672MOL0     C90652   7.453   6.816   7.616  0.1862  0.7055  0.3416
  672MOL0     H90653   7.509   6.536   7.070 -0.5992  0.0697  3.4246
  672MOL0     H90654   7.692   6.448   6.937 -1.7709 -1.4137  1.1961
  672MOL0     H90655   8.048   6.319   7.143 -1.3782  0.9098 -0.2018
  672MOL0     H90656   7.988   6.154   7.122 -0.0598  1.5577  1.6334
  672MOL0     H90657   8.056   6.165   6.879 -3.1107  0.0296  1.3703
  672MOL0     H90658   8.199   6.189   6.987  0.0392 -0.0637 -0.6169
  672MOL0     H90659   8.025   6.428   6.873  1.2702  2.8564  2.5402
  672MOL0     H90660   8.171   6.369   6.791 -1.1137  1.2124 -1.1808
  672MOL0     H90661   8.184   6.577   6.926 -0.4379 -0.0017 -0.1823
  672MOL0     H90662   8.166   6.483   7.068 -0.5784  1.2729  0.2941
  672MOL0     H90663   8.384   6.355   7.004 -2.0151 -1.0775 -2.3361
  672MOL0     H90664   8.386   6.445   6.853  1.4493  3.8507  0.2842
  672MOL0     H90665   8.414   6.581   7.113 -0.7949  0.3865 -0.4771
  672MOL0     H90666   8.555   6.526   7.006  1.0344  1.8381 -0.6801
  672MOL0     H90667   8.373   6.767   6.984  0.3337  0.7497 -0.6992
  672MOL0     H90668   8.432   6.682   6.834  0.7411 -1.0078 -0.1923
  672MOL0     H90669   8.666   6.724   6.927 -0.0929 -0.8483  0.7383
  672MOL0     H90670   8.575   6.878   6.926  0.3864 -0.4612 -0.5412
  672MOL0     H90671   8.810   6.712   7.119 -1.3868  0.4791 -1.9267
  672MOL0     H90672   8.792   6.850   7.484 -0.1557 -0.6891 -0.4817
  672MOL0     H90673   8.825   6.685   7.426 -1.2632 -0.9932  2.3070
  672MOL0     H90674   8.972   6.830   7.249  0.3487 -0.4120 -0.3790
  672MOL0     H90675   8.965   6.940   7.386 -1.8781  0.0752  0.8174
  672MOL0     H90676   9.068   6.656   7.442  0.4512 -0.5477 -0.2290
  672MOL0     H90677   9.060   6.796   7.544  4.8324  0.2034  0.1167
  672MOL0     H90678   9.196   6.921   7.384 -1.3844  0.1001  0.4982
  672MOL0     H90679   9.250   6.765   7.314 -0.0183  0.2889  0.3793
  672MOL0     H90680   9.425   6.934   7.329  0.8126 -0.4634 -0.1171
  672MOL0     H90681   9.598   7.096   7.364  1.4698 -0.4902 -0.9109
  672MOL0     H90682   9.900   7.433   7.387  0.9990 -0.4718 -0.6451
  672MOL0     H90683  10.123   7.480   7.350  1.6554  1.2399  2.0542
  672MOL0     H90684  10.339   7.384   7.248 -0.1903  0.6086 -0.3151
  672MOL0     H90685  10.368   7.518   7.361 -0.0646 -0.2940 -1.5680
  672MOL0     H90686  10.572   7.287   7.333 -1.3986 -0.0071  2.8879
  672MOL0     H90687  10.572   7.425   7.227  1.1727  0.1349  0.4785
  672MOL0     H90688  10.638   7.575   7.373  1.0024 -1.3395 -0.6472
  672MOL0     H90689  10.562   7.502   7.515 -2.7157  1.9131 -2.1024
  672MOL0     H90690  10.804   7.377   7.367 -1.1464 -1.6422 -0.8450
  672MOL0     H90691  10.744   7.316   7.509  1.6525  0.9404  0.1480
  672MOL0     H90692  10.818   7.498   7.644 -0.6397 -1.4198 -0.6373
  672MOL0     H90693  10.900   7.583   7.511  2.2961  0.4099  1.2744
  672MOL0     H90694  10.979   7.314   7.617  0.3601  0.4386  0.5432
  672MOL0     H90695  11.059   7.392   7.474 -0.2876 -1.4739 -0.3139
  672MOL0     H90696  11.055   7.463   7.767 -0.0239  1.1404 -1.1249
  672MOL0     H90697  11.112   7.578   7.646 -2.4166 -0.1702 -1.3141
  672MOL0     H90698  11.301   7.454   7.585 -0.9702  0.8687  0.1605
  672MOL0     H90699  11.301   7.445   7.758  4.5444 -0.3719 -3.1269
  672MOL0     H90700  10.238   7.109   7.550 -0.0913  0.3262  2.0029
  672MOL0     H90701   9.999   7.079   7.604  0.3714  0.4624  0.3773
  672MOL0     H90702   9.604   7.001   7.791 -1.0806  3.4896  0.1444
  672MOL0     H90703   9.421   6.854   7.745  4.3873  0.0570  2.9732
  672MOL0     H90704   7.857   6.249   7.285  2.1907  3.3264  0.4555
  672MOL0     H90705   7.653   6.322   7.409 -1.3423  0.5272  0.8065
  672MOL0     H90706   7.294   6.624   7.230 -1.1341  0.9079 -1.6219
  672MOL0     H90707   7.079   6.707   7.251  2.3018  0.7788 -1.9018
  672MOL0     H90708   6.982   7.077   7.472  2.2589  1.4602  3.5221
  672MOL0     H90709   7.005   6.994   7.626 -0.0710  0.9016  0.2907
  672MOL0     H90710   6.762   6.971   7.452 -0.9315 -2.9087  1.5184
  672MOL0     H90711   6.777   7.091   7.573  0.7626 -0.0273 -0.4618
  672MOL0     H90712   6.820   6.916   7.749 -0.1721  0.8333 -0.5477
  672MOL0     H90713   6.780   6.794   7.636 -2.3555  0.0598 -3.2221
  672MOL0     H90714   6.548   6.902   7.596 -0.7963  0.1253 -0.0444
  672MOL0     H90715   6.583   6.805   7.731 -1.0109  0.2434 -1.6742
  672MOL0     H90716   6.578   7.180   7.931 -4.1106  1.5103 -1.7423
  672MOL0     H90717   7.203   6.893   7.622  1.2416  0.0510 -0.1168
  672MOL0     H90718   7.406   6.855   7.707  1.7991 -0.4610  1.7400
  672MOL0     H90719   7.501   6.724   7.649 -1.8390 -0.1520  1.0307
  672MOL0     H90720   7.525   6.891   7.582  0.2231  0.1924 -0.7244
  673MOL0     O90721   4.712   7.455   7.646  0.1163 -0.8263 -0.2835
  673MOL0     C90722   4.627   7.447   7.561 -0.5924  0.1522  0.1010
  673MOL0     O90723   4.660   7.447   7.424  0.2853  0.0999  0.6601
  673MOL0     C90724   4.782   7.455   7.374 -0.4474  0.6460 -0.2367
  673MOL0     C90725   4.792   7.508   7.242 -0.3294 -0.8453  0.2463
  673MOL0     C90726   4.920   7.516   7.175  0.8403  0.4125 -0.1947
  673MOL0     C90727   5.032   7.458   7.240 -0.4815  0.1206 -0.5191
  673MOL0     O90728   5.162   7.457   7.172  0.2176  0.4175 -0.2228
  673MOL0     C90729   5.166   7.506   7.034 -0.0533  0.3774  0.6348
  673MOL0     C90730   5.306   7.493   6.979  0.0610  0.2743 -0.0434
  673MOL0     C90731   5.332   7.534   6.831  0.4392 -0.1752  0.2224
  673MOL0     C90732   5.482   7.540   6.798  0.0548 -0.5462  0.6735
  673MOL0     C90733   5.516   7.598   6.663  0.6792 -0.3680 -0.5669
  673MOL0     C90734   5.505   7.754   6.634 -0.2974 -0.3647 -0.5679
  673MOL0     C90735   5.481   7.775   6.481  0.8115 -0.3397 -0.0415
  673MOL0     C90736   5.582   7.702   6.398  0.5226  0.5541 -0.0653
  673MOL0     N90737   5.720   7.743   6.423 -0.0186 -0.7659  0.6572
  673MOL0     C90738   5.827   7.658   6.441  0.2285  0.5808  1.1360
  673MOL0     C90739   5.926   7.738   6.490  0.7259 -0.0270 -0.0420
  673MOL0     C90740   6.072   7.699   6.526  1.0034  0.1133  0.3821
  673MOL0     C90741   6.142   7.650   6.401 -0.7875  0.3171  0.3170
  673MOL0     C90742   6.284   7.610   6.435 -0.5941  0.4245 -0.6626
  673MOL0     C90743   6.372   7.571   6.325  0.1239  0.8312 -0.5072
  673MOL0     O90744   6.387   7.430   6.314  0.7183 -0.2053 -1.0036
  673MOL0     C90745   6.522   7.382   6.305 -0.3118  0.7922  0.1573
  673MOL0     C90746   6.629   7.424   6.384  0.1678 -0.2444 -0.1917
  673MOL0     C90747   6.755   7.358   6.381  0.7313 -0.0324 -0.3010
  673MOL0     C90748   6.781   7.252   6.295  0.4905  0.2443  0.0007
  673MOL0     C90749   6.903   7.168   6.302  1.3113  0.4036 -0.6518
  673MOL0     O90750   6.905   7.048   6.224 -0.5280  0.0097 -0.2113
  673MOL0     C90751   7.023   6.980   6.216  0.4705  0.0258 -0.0761
  673MOL0     C90752   7.045   6.846   6.265 -0.3712 -0.4654  0.7108
  673MOL0     C90753   7.170   6.774   6.236 -0.4968  0.7653  0.8262
  673MOL0     C90754   7.270   6.841   6.164  0.3174  0.5448 -0.7144
  673MOL0     O90755   7.389   6.779   6.143  0.2771  0.0648 -0.4143
  673MOL0     C90756   7.388   6.635   6.136  0.5865 -1.0703 -0.2649
  673MOL0     C90757   7.519   6.582   6.071  0.3048 -1.0382 -0.0737
  673MOL0     C90758   7.508   6.447   6.002  0.0873  0.9488 -0.1121
  673MOL0     C90759   7.487   6.328   6.092 -0.6878 -0.3919 -0.4926
  673MOL0     C90760   7.477   6.192   6.029 -1.2294 -0.2707  0.1062
  673MOL0     C90761   7.507   6.074   6.115  0.0447  0.9148 -0.1928
  673MOL0     C90762   7.501   5.934   6.045  0.5158 -0.1051  0.3415
  673MOL0     C90763   7.575   5.828   6.129 -0.4436  0.1179  1.1113
  673MOL0    Cl90764   7.612   5.684   6.032  0.0090 -0.4579 -0.1856
  673MOL0     C90765   7.244   6.971   6.109 -0.1459  0.1527  0.2742
  673MOL0     C90766   7.122   7.038   6.135 -0.3691  1.0300  0.3847
  673MOL0     O90767   6.990   7.219   6.359 -0.7178 -0.3091 -0.1168
  673MOL0     C90768   6.669   7.203   6.219 -1.6103 -0.3683 -0.0141
  673MOL0     C90769   6.546   7.266   6.219  0.5304 -1.4242  0.1430
  673MOL0     N90770   5.888   7.872   6.484  0.5101  0.0482 -0.7765
  673MOL0     N90771   5.766   7.873   6.442  0.6693 -0.0962  0.3357
  673MOL0     C90772   5.029   7.414   7.370  0.2527  0.0884  0.4748
  673MOL0     C90773   4.902   7.404   7.433 -0.2129 -0.4670 -0.4026
  673MOL0     C90774   4.491   7.410   7.581 -0.2376 -1.2912 -0.7906
  673MOL0     C90775   4.398   7.463   7.488  0.4882 -0.2581 -0.3022
  673MOL0     C90776   4.257   7.450   7.501  0.6803  0.4879  0.3460
  673MOL0     C90777   4.203   7.364   7.601 -0.7547  0.0842  0.5155
  673MOL0     O90778   4.079   7.317   7.617  0.1339 -0.3347 -0.2354
  673MOL0     C90779   3.976   7.371   7.537 -0.2794  0.3410  0.7288
  673MOL0     C90780   3.844   7.352   7.618  0.3712  0.5659  0.1773
  673MOL0     C90781   3.780   7.483   7.676 -0.5687 -0.7811 -0.2388
  673MOL0     C90782   3.865   7.571   7.765 -0.7176  0.4925  0.2150
  673MOL0     C90783   3.932   7.504   7.882 -0.1320  0.8022  0.5171
  673MOL0     C90784   3.976   7.444   7.973  0.2159  0.2335  0.3698
  673MOL0     C90785   4.298   7.307   7.693 -0.6323 -0.1235  0.4050
  673MOL0     C90786   4.439   7.333   7.686 -0.5311  0.0107  0.3487
  673MOL0     C90787   4.518   7.281   7.804  0.0649 -0.4713  0.4524
  673MOL0     H90788   4.703   7.563   7.213  1.4678  2.3221  0.3090
  673MOL0     H90789   4.929   7.578   7.087 -1.8122  3.8377  1.7270
  673MOL0     H90790   5.097   7.450   6.971 -1.9227  1.9045  1.2178
  673MOL0     H90791   5.137   7.611   7.024  0.9166  0.8818  2.5716
  673MOL0     H90792   5.356   7.398   7.002  2.4134  1.1593 -1.1556
  673MOL0     H90793   5.374   7.563   7.028  0.6427  0.1913 -0.7082
  673MOL0     H90794   5.295   7.636   6.822  0.2419 -0.2104  0.6318
  673MOL0     H90795   5.281   7.462   6.766 -1.0092  2.8256 -2.1563
  673MOL0     H90796   5.543   7.599   6.866  1.2969  2.7678 -2.9643
  673MOL0     H90797   5.524   7.439   6.804  1.1809 -0.0099  3.1929
  673MOL0     H90798   5.621   7.576   6.646  0.9616 -0.6678  1.3340
  673MOL0     H90799   5.451   7.534   6.602 -0.1206  0.8594 -1.0453
  673MOL0     H90800   5.422   7.797   6.691 -1.7134 -4.1543  0.5765
  673MOL0     H90801   5.595   7.804   6.672 -0.1714 -2.0682  1.5926
  673MOL0     H90802   5.491   7.881   6.455  1.1174  0.1286  1.8256
  673MOL0     H90803   5.377   7.746   6.462 -0.2439  2.3388  1.0715
  673MOL0     H90804   5.564   7.594   6.402  3.5904 -0.0520  0.5337
  673MOL0     H90805   5.563   7.736   6.296  0.8536  1.7222  0.2427
  673MOL0     H90806   5.821   7.554   6.412  0.9417  0.3519  1.7686
  673MOL0     H90807   6.110   7.785   6.583 -2.5008  2.8206 -0.9900
  673MOL0     H90808   6.054   7.620   6.600 -0.7584  1.9092  2.0154
  673MOL0     H90809   6.085   7.565   6.363  0.6855 -0.1804 -0.8806
  673MOL0     H90810   6.137   7.726   6.322 -0.3998  2.4111  2.1994
  673MOL0     H90811   6.285   7.534   6.514 -0.2283 -0.4208 -1.4606
  673MOL0     H90812   6.334   7.697   6.478  0.0022 -0.4011  0.3772
  673MOL0     H90813   6.471   7.616   6.322  1.1576 -0.8383  2.9176
  673MOL0     H90814   6.328   7.605   6.231 -0.6209 -2.3015 -1.3846
  673MOL0     H90815   6.615   7.510   6.450  1.2161  0.6524 -1.0996
  673MOL0     H90816   6.820   7.390   6.461 -1.8667  2.2997  1.0538
  673MOL0     H90817   6.958   6.796   6.305 -1.9677  0.4961 -1.3503
  673MOL0     H90818   7.183   6.675   6.277  0.6243  0.9907  1.0395
  673MOL0     H90819   7.391   6.590   6.236 -1.1075 -0.4173  0.1121
  673MOL0     H90820   7.301   6.599   6.081 -1.4312 -1.2540  2.7930
  673MOL0     H90821   7.545   6.655   5.993 -2.9846 -0.8862 -1.2082
  673MOL0     H90822   7.590   6.578   6.154  0.4667 -0.9326 -0.2064
  673MOL0     H90823   7.424   6.458   5.933 -1.6649  0.4056  1.8332
  673MOL0     H90824   7.604   6.433   5.950  0.7308 -0.1281  1.2954
  673MOL0     H90825   7.391   6.340   6.144 -0.2181 -0.6523  0.4462
  673MOL0     H90826   7.555   6.317   6.176 -0.7788 -0.0513 -0.3729
  673MOL0     H90827   7.551   6.195   5.948  1.5082 -2.8086  2.2697
  673MOL0     H90828   7.377   6.180   5.987 -1.3425 -1.3371  0.6505
  673MOL0     H90829   7.612   6.097   6.133 -0.3952  2.5548  0.4760
  673MOL0     H90830   7.438   6.088   6.199 -2.4621  0.1035 -1.9983
  673MOL0     H90831   7.561   5.953   5.956  0.8963  0.2191  0.6644
  673MOL0     H90832   7.399   5.901   6.026 -0.3347 -1.0674  5.1918
  673MOL0     H90833   7.672   5.859   6.166  0.4514 -1.1951 -0.0091
  673MOL0     H90834   7.507   5.792   6.206 -0.8244 -2.8954 -0.4757
  673MOL0     H90835   7.320   7.009   6.043  0.3847 -2.3332 -0.6523
  673MOL0     H90836   7.114   7.140   6.099  0.5573  1.1111  0.3935
  673MOL0     H90837   6.669   7.126   6.142 -0.6996  0.8629 -1.2872
  673MOL0     H90838   6.462   7.244   6.153 -2.2686  2.2424  2.0898
  673MOL0     H90839   5.111   7.380   7.432  0.5505 -0.4964 -0.2174
  673MOL0     H90840   4.905   7.363   7.533  1.2800  2.0274  0.6562
  673MOL0     H90841   4.433   7.530   7.410 -0.2917  0.5799  0.0488
  673MOL0     H90842   4.196   7.497   7.425 -0.7926 -1.8937 -0.0680
  673MOL0     H90843   3.964   7.312   7.446 -2.8456  1.7175  0.0913
  673MOL0     H90844   4.000   7.476   7.519  2.9433 -0.3563  0.4320
  673MOL0     H90845   3.858   7.278   7.697  1.2581  0.2291 -0.2810
  673MOL0     H90846   3.771   7.309   7.548 -0.0460  2.1949 -0.4458
  673MOL0     H90847   3.695   7.453   7.737 -1.5907 -0.4781 -1.4528
  673MOL0     H90848   3.741   7.557   7.604  1.8315  0.1933 -0.6283
  673MOL0     H90849   3.939   7.612   7.696 -0.7516 -2.7230 -1.9315
  673MOL0     H90850   3.813   7.654   7.815  1.1187  2.4118 -0.9138
  673MOL0     H90851   4.004   7.382   8.056 -0.4916 -3.2169 -1.7717
  673MOL0     H90852   4.260   7.244   7.773 -1.0939  1.9886  1.9557
  673MOL0     H90853   4.537   7.174   7.803 -3.7703 -1.2768  0.7225
  673MOL0     H90854   4.617   7.328   7.817  0.8769 -1.9235 -0.2798
  673MOL0     H90855   4.467   7.304   7.898 -1.2392 -0.4927 -0.2282
  674MOL0     O90856   0.900   8.857   7.745  0.5791 -0.1687  0.0177
  674MOL0     C90857   0.895   8.766   7.829  0.1772 -0.2606  0.3988
  674MOL0     O90858   0.994   8.688   7.864 -0.3950  0.3320  0.8090
  674MOL0     C90859   1.120   8.708   7.811 -0.1104 -0.4728  0.1764
  674MOL0     C90860   1.167   8.634   7.705  0.0609 -0.0641  0.5926
  674MOL0     C90861   1.292   8.663   7.642 -0.3686  0.0871 -0.4789
  674MOL0     C90862   1.368   8.761   7.697  0.5441  0.9762 -0.0213
  674MOL0     O90863   1.473   8.795   7.619 -0.5321  0.3948 -0.2989
  674MOL0     C90864   1.577   8.887   7.659  0.4775 -0.9143 -0.5862
  674MOL0     C90865   1.692   8.869   7.562  0.3345 -0.1389 -1.1411
  674MOL0     C90866   1.790   8.987   7.569  0.5804 -0.5362 -0.0417
  674MOL0     C90867   1.935   8.932   7.534  0.7893 -1.0672  0.3620
  674MOL0     C90868   2.053   9.034   7.543  0.6582 -1.0118 -0.1647
  674MOL0     C90869   2.181   8.966   7.502  1.3159  0.6581 -0.1404
  674MOL0     C90870   2.305   9.031   7.552  0.5804 -0.9387 -0.2329
  674MOL0     C90871   2.388   8.930   7.633 -1.0634  0.1984 -0.5276
  674MOL0     N90872   2.513   8.990   7.679  0.6606  0.5171  0.5855
  674MOL0     C90873   2.541   8.986   7.811 -0.3872  0.7616  0.3683
  674MOL0     C90874   2.671   9.023   7.814 -0.1795  0.2455 -0.6719
  674MOL0     C90875   2.761   9.062   7.935  0.2924  0.1039  0.3936
  674MOL0     C90876   2.760   9.211   7.951 -0.2934  0.5175 -0.1238
  674MOL0     C90877   2.838   9.249   8.080  0.4813  0.7462 -0.1329
  674MOL0     C90878   2.862   9.400   8.087 -0.5171  0.5767 -0.5788
  674MOL0     O90879   2.894   9.432   8.229  0.3105 -0.2037  0.1023
  674MOL0     C90880   3.024   9.462   8.267  0.1513 -0.0765  1.1761
  674MOL0     C90881   3.034   9.502   8.393 -0.3335 -0.8007 -0.1861
  674MOL0     C90882   3.165   9.535   8.439 -0.4362 -0.8332  0.2980
  674MOL0     C90883   3.279   9.538   8.352  1.2916 -0.1579  0.3763
  674MOL0     C90884   3.408   9.581   8.406  0.7297  0.6430 -0.2775
  674MOL0     O90885   3.495   9.627   8.306 -0.0140  0.0295  0.2156
  674MOL0     C90886   3.617   9.692   8.323  0.4367 -0.9426 -0.6961
  674MOL0     C90887   3.657   9.779   8.229  1.2488  0.6975 -0.1270
  674MOL0     C90888   3.772   9.844   8.246 -0.4161 -0.9002 -0.1678
  674MOL0     C90889   3.858   9.823   8.355  0.1996  0.2045 -0.2182
  674MOL0     O90890   3.982   9.873   8.368  0.3584  0.1651  0.5486
  674MOL0     C90891   4.023   9.980   8.280 -0.8428  0.4679  0.4898
  674MOL0     C90892   4.174  10.024   8.303  0.4004 -0.9481  0.2430
  674MOL0     C90893   4.188  10.074   8.452 -0.3331  0.2573 -1.0363
  674MOL0     C90894   4.266   9.986   8.551  0.0085 -0.1966  0.3754
  674MOL0     C90895   4.270  10.045   8.699  0.1262  0.2034  0.2760
  674MOL0     C90896   4.134  10.055   8.767  0.4962  0.2688 -0.4790
  674MOL0     C90897   4.030   9.949   8.736 -0.1830 -0.6175  0.0091
  674MOL0     C90898   3.901   9.954   8.813  0.6304 -0.1553  0.1864
  674MOL0    Cl90899   3.909   9.898   8.979 -0.0644  0.3410 -0.0092
  674MOL0     C90900   3.805   9.741   8.455 -0.3130 -0.2720  0.0489
  674MOL0     C90901   3.692   9.670   8.437  0.4552  0.5469 -0.2010
  674MOL0     O90902   3.442   9.582   8.527 -0.4151 -0.4820  0.3107
  674MOL0     C90903   3.262   9.485   8.227  0.2743 -0.2628  0.3326
  674MOL0     C90904   3.134   9.444   8.181 -0.9921 -0.3973 -0.3568
  674MOL0     N90905   2.712   9.041   7.682 -0.4136 -0.9749 -1.3535
  674MOL0     N90906   2.616   9.021   7.599  0.0395  0.3489  0.6456
  674MOL0     C90907   1.324   8.838   7.809 -0.5377 -0.8411 -0.0682
  674MOL0     C90908   1.206   8.804   7.867 -0.5657 -0.1006 -0.4855
  674MOL0     C90909   0.774   8.752   7.903  0.7272  0.0704 -0.4583
  674MOL0     C90910   0.777   8.673   8.025 -0.1198  0.1719  0.2566
  674MOL0     C90911   0.658   8.645   8.094 -1.3141 -0.6535 -0.1539
  674MOL0     C90912   0.543   8.704   8.054  0.4079 -0.5607 -0.3493
  674MOL0     O90913   0.433   8.688   8.141 -0.1969 -0.2703 -0.0723
  674MOL0     C90914   0.314   8.759   8.115  0.9804  0.7633  0.0783
  674MOL0     C90915   0.218   8.710   8.232  0.4304 -0.6432  0.4665
  674MOL0     C90916   0.103   8.813   8.267  0.0891  0.0007 -0.5634
  674MOL0     C90917  -0.011   8.741   8.353 -0.4270 -0.3554  0.3438
  674MOL0     C90918  -0.097   8.663   8.265 -0.3388  0.7812  0.1832
  674MOL0     C90919  -0.166   8.607   8.179  0.3272 -0.6142 -0.3910
  674MOL0     C90920   0.537   8.792   7.948  0.3606  0.5777 -0.1026
  674MOL0     C90921   0.645   8.814   7.873 -0.4169  0.2463 -0.5953
  674MOL0     C90922   0.631   8.901   7.747  0.6752 -0.0645  0.5925
  674MOL0     H90923   1.113   8.550   7.663  3.2168 -2.5556  1.0905
  674MOL0     H90924   1.332   8.602   7.562 -0.8914 -0.4058 -0.3738
  674MOL0     H90925   1.536   8.988   7.665 -1.2267 -1.5491 -0.9402
  674MOL0     H90926   1.621   8.853   7.753  0.1895 -1.9597 -0.8145
  674MOL0     H90927   1.654   8.867   7.459 -0.6981  3.7203 -0.9691
  674MOL0     H90928   1.741   8.777   7.596  2.1774  1.0839 -0.3062
  674MOL0     H90929   1.788   9.051   7.657  0.4347  0.3071 -0.6486
  674MOL0     H90930   1.767   9.059   7.490  3.4829 -2.3944 -2.8732
  674MOL0     H90931   1.961   8.849   7.601  2.6689 -0.5743  0.3097
  674MOL0     H90932   1.934   8.899   7.430 -1.3246 -0.1113  0.0360
  674MOL0     H90933   2.037   9.119   7.475 -2.9916 -1.0325  0.4583
  674MOL0     H90934   2.055   9.063   7.648 -0.4930 -1.2955 -0.0595
  674MOL0     H90935   2.181   8.863   7.540  3.0933  0.9104  0.6511
  674MOL0     H90936   2.183   8.954   7.393 -1.7046 -0.2926 -0.1794
  674MOL0     H90937   2.282   9.122   7.608  0.3963  0.7573 -2.8612
  674MOL0     H90938   2.375   9.075   7.480 -0.8969  2.4029  0.1860
  674MOL0     H90939   2.326   8.906   7.720 -0.7827 -1.4765 -0.7670
  674MOL0     H90940   2.421   8.846   7.573  2.0406 -0.1931  1.5220
  674MOL0     H90941   2.475   8.961   7.893  0.0931 -3.5022 -0.3624
  674MOL0     H90942   2.717   9.001   8.014 -0.1777 -1.3287 -0.9355
  674MOL0     H90943   2.861   9.023   7.916 -0.1145  0.6371 -3.6825
  674MOL0     H90944   2.808   9.253   7.862 -0.7676  1.4932  0.0715
  674MOL0     H90945   2.655   9.238   7.954 -0.6646 -0.5353 -2.0822
  674MOL0     H90946   2.935   9.204   8.059 -0.2059  0.7490 -3.8880
  674MOL0     H90947   2.803   9.205   8.174  1.9550  0.3981  0.2771
  674MOL0     H90948   2.761   9.437   8.066  0.7574  3.1822 -2.7025
  674MOL0     H90949   2.930   9.426   8.005  0.3572 -2.9287 -1.1282
  674MOL0     H90950   2.946   9.509   8.457  1.1100  4.7500  1.7709
  674MOL0     H90951   3.170   9.572   8.541 -3.3306 -2.5196  1.1498
  674MOL0     H90952   3.598   9.801   8.142  1.5319  1.9546 -0.0156
  674MOL0     H90953   3.797   9.917   8.170 -0.1022  1.7368  2.2735
  674MOL0     H90954   4.013   9.950   8.175  0.0093  1.6781  0.0366
  674MOL0     H90955   3.951  10.062   8.287 -3.0427 -0.9604 -2.6857
  674MOL0     H90956   4.243   9.941   8.289  0.9684 -0.0715 -3.2417
  674MOL0     H90957   4.203  10.102   8.232  1.2238 -2.2561 -0.8992
  674MOL0     H90958   4.262  10.154   8.441 -0.1045 -0.2785 -4.1293
  674MOL0     H90959   4.093  10.104   8.496  1.3799  1.9796  1.8242
  674MOL0     H90960   4.371   9.974   8.521  0.3389 -1.1923  1.8319
  674MOL0     H90961   4.226   9.885   8.555 -1.9152  0.5613  2.4760
  674MOL0     H90962   4.330  10.136   8.686 -0.2328  0.1822 -1.9318
  674MOL0     H90963   4.341   9.988   8.760  2.4795 -0.8611 -3.1714
  674MOL0     H90964   4.155  10.049   8.874 -3.5950 -1.4457  0.4306
  674MOL0     H90965   4.083  10.148   8.739 -2.5738 -0.4778  2.0996
  674MOL0     H90966   4.077   9.850   8.744  0.2597 -0.6161 -2.0004
  674MOL0     H90967   4.013   9.950   8.628  1.3009  3.2541 -0.3306
  674MOL0     H90968   3.873  10.060   8.810  1.9307  0.2081 -2.2488
  674MOL0     H90969   3.824   9.897   8.761 -0.3693  0.0859  1.3764
  674MOL0     H90970   3.870   9.731   8.541 -0.4586  0.1230  0.2037
  674MOL0     H90971   3.683   9.588   8.507  5.8353  0.6440  1.0695
  674MOL0     H90972   3.337   9.494   8.149 -1.9770  1.5730 -1.7837
  674MOL0     H90973   3.123   9.414   8.077 -2.0475 -2.4501  0.2905
  674MOL0     H90974   1.380   8.919   7.854  1.2422 -1.9954 -0.0939
  674MOL0     H90975   1.183   8.851   7.962  3.7685  0.2009  0.6545
  674MOL0     H90976   0.876   8.639   8.055  0.1057  0.6642  0.0725
  674MOL0     H90977   0.665   8.582   8.182  0.2797  0.2290  0.3938
  674MOL0     H90978   0.276   8.745   8.013 -0.2797  1.0627  0.4962
  674MOL0     H90979   0.331   8.864   8.139 -1.4962  0.9367  1.3723
  674MOL0     H90980   0.276   8.682   8.320 -0.4746  0.7721  1.5495
  674MOL0     H90981   0.158   8.622   8.204 -1.2198  0.3811  0.6639
  674MOL0     H90982   0.070   8.851   8.170 -3.0581 -2.0104 -0.4359
  674MOL0     H90983   0.148   8.891   8.328  0.3148 -1.4081  1.1736
  674MOL0     H90984   0.042   8.672   8.420 -1.0836 -0.5937  0.6178
  674MOL0     H90985  -0.070   8.807   8.416  1.3389  1.6033  0.0631
  674MOL0     H90986  -0.242   8.585   8.108 -1.3241  2.1164  0.3939
  674MOL0     H90987   0.448   8.851   7.930 -0.0107 -0.5057 -2.2073
  674MOL0     H90988   0.693   8.990   7.754  2.8209 -1.3681 -0.7251
  674MOL0     H90989   0.672   8.851   7.659 -0.6434 -1.4714  0.7263
  674MOL0     H90990   0.527   8.932   7.734  1.1808  2.3868  1.8224
  675MOL0     O90991   9.691   8.416   8.053  0.2328  0.0219  1.1704
  675MOL0     C90992   9.652   8.520   8.109  0.2975 -0.0792  0.1740
  675MOL0     O90993   9.728   8.621   8.171  0.7897 -0.1830  0.2856
  675MOL0     C90994   9.867   8.624   8.137  0.5890  0.7960 -0.4237
  675MOL0     C90995   9.946   8.508   8.142 -0.6491  0.5032  0.7303
  675MOL0     C90996  10.085   8.522   8.116  0.2838  1.1279 -0.3427
  675MOL0     C90997  10.142   8.645   8.097  1.0798  0.5761  0.1227
  675MOL0     O90998  10.274   8.665   8.079 -0.0797 -0.8551  0.4891
  675MOL0     C90999  10.330   8.583   7.981  0.1202  0.1985 -0.1581
  675MOL0     C91000  10.471   8.624   7.943  0.5786 -0.0090 -1.0017
  675MOL0     C91001  10.572   8.567   8.044  0.6092 -0.8853 -0.7495
  675MOL0     C91002  10.707   8.629   8.007 -0.5604 -0.8440  0.0202
  675MOL0     C91003  10.816   8.590   8.111 -0.2542  0.9945 -0.1516
  675MOL0     C91004  10.771   8.649   8.250 -0.1934  0.5358 -0.1820
  675MOL0     C91005  10.898   8.648   8.346  0.6640  0.2934 -0.0199
  675MOL0     C91006  10.851   8.698   8.483 -0.2310  0.8414  0.5921
  675MOL0     N91007  10.970   8.712   8.563 -0.2319  0.0565  0.2824
  675MOL0     C91008  11.038   8.604   8.611 -0.1278  0.0111 -0.4029
  675MOL0     C91009  11.142   8.646   8.682 -0.4197 -0.2289  0.6909
  675MOL0     C91010  11.243   8.574   8.774  0.4237 -0.2121  0.1601
  675MOL0     C91011  11.378   8.551   8.697  0.3341  0.0759  0.5131
  675MOL0     C91012  11.493   8.498   8.786  0.1504  0.9231  0.2131
  675MOL0     C91013  11.616   8.497   8.703  0.2745  0.4805 -0.7166
  675MOL0     O91014  11.725   8.451   8.784  0.0676 -0.3669 -0.4719
  675MOL0     C91015  11.837   8.449   8.712 -0.2357 -0.4543  0.0212
  675MOL0     C91016  11.936   8.539   8.755 -0.4170  0.1113  0.0620
  675MOL0     C91017  12.065   8.538   8.696 -0.8870  0.0239  0.5108
  675MOL0     C91018  12.088   8.441   8.587 -0.4018 -0.0613 -0.0753
  675MOL0     C91019  12.221   8.446   8.519  0.4457 -0.1597 -0.4973
  675MOL0     O91020  12.273   8.578   8.498  0.4381  0.6686  0.2893
  675MOL0     C91021  12.375   8.609   8.416  0.4012 -0.2481 -0.0395
  675MOL0     C91022  12.353   8.716   8.322 -0.2977  0.7989  0.4190
  675MOL0     C91023  12.455   8.771   8.243  0.0636  0.0212 -0.5819
  675MOL0     C91024  12.579   8.708   8.236  0.1015 -0.2346 -0.1932
  675MOL0     O91025  12.669   8.768   8.151  0.4925  1.0733 -0.2352
  675MOL0     C91026  12.803   8.718   8.138 -0.6315  0.1481  0.1450
  675MOL0     C91027  12.915   8.760   8.240  0.7258  0.1687 -0.1787
  675MOL0     C91028  13.047   8.695   8.201  0.4468  0.0349 -0.1933
  675MOL0     C91029  13.163   8.769   8.270  0.4239  0.8038  0.2603
  675MOL0     C91030  13.301   8.746   8.187 -0.1908  0.1127 -0.0977
  675MOL0     C91031  13.408   8.802   8.266 -0.6423  0.3472 -0.1692
  675MOL0     C91032  13.545   8.782   8.191  0.2194  0.4314  0.1640
  675MOL0     C91033  13.640   8.907   8.201  0.3405  0.3448  0.4834
  675MOL0    Cl91034  13.804   8.857   8.137  0.3852  0.4381  0.0134
  675MOL0     C91035  12.609   8.602   8.327 -0.4567  0.8094 -0.8031
  675MOL0     C91036  12.498   8.547   8.412 -0.2534  0.4630 -0.7670
  675MOL0     O91037  12.273   8.343   8.471  0.6004  0.5734 -0.1963
  675MOL0     C91038  11.997   8.347   8.552 -0.9945 -0.7221 -0.0516
  675MOL0     C91039  11.870   8.356   8.612  0.0095 -0.3874 -0.5212
  675MOL0     N91040  11.147   8.785   8.653  0.2680 -0.6047 -0.0450
  675MOL0     N91041  11.051   8.823   8.579 -0.4240  0.1723 -0.6509
  675MOL0     C91042  10.065   8.762   8.094 -0.3544 -0.2015 -0.4332
  675MOL0     C91043   9.927   8.751   8.106  1.0901 -0.5940 -0.9257
  675MOL0     C91044   9.506   8.543   8.112  0.1228  0.0512 -0.8472
  675MOL0     C91045   9.427   8.431   8.101 -0.2063 -0.6448  0.0797
  675MOL0     C91046   9.289   8.438   8.114  0.0094 -0.2648 -0.0864
  675MOL0     C91047   9.223   8.555   8.137 -0.2895 -0.7773  0.2712
  675MOL0     O91048   9.091   8.554   8.159 -0.0259  0.7110  0.3463
  675MOL0     C91049   9.025   8.684   8.165  0.6209 -0.0715 -0.1182
  675MOL0     C91050   8.883   8.655   8.184 -1.2354 -0.1312  0.0780
  675MOL0     C91051   8.829   8.543   8.081  0.9240 -0.1390 -0.0740
  675MOL0     C91052   8.669   8.519   8.080 -1.0093 -0.3449 -0.1999
  675MOL0     C91053   8.630   8.487   8.219 -0.3013 -0.3734 -0.3349
  675MOL0     C91054   8.606   8.470   8.333 -0.3171 -0.3634  0.2164
  675MOL0     C91055   9.295   8.672   8.152 -0.2154  0.4032  0.1411
  675MOL0     C91056   9.440   8.662   8.144 -0.3484 -0.0330 -0.3309
  675MOL0     C91057   9.516   8.800   8.142  0.5995 -0.3174  0.5690
  675MOL0     H91058   9.890   8.420   8.173  0.7762 -1.5023 -1.9583
  675MOL0     H91059  10.141   8.429   8.115 -0.4591  0.6353 -2.6152
  675MOL0     H91060  10.323   8.478   8.011  1.9234 -0.4408 -1.7753
  675MOL0     H91061  10.266   8.583   7.893  0.5651  1.0659 -0.4923
  675MOL0     H91062  10.473   8.733   7.934  1.3745  0.5371  3.5737
  675MOL0     H91063  10.502   8.592   7.843  1.0655 -2.0011 -0.2554
  675MOL0     H91064  10.583   8.461   8.018  0.9940 -0.4698 -2.3389
  675MOL0     H91065  10.552   8.583   8.150 -0.4923  0.9500 -1.2031
  675MOL0     H91066  10.746   8.608   7.907 -1.8899  1.2010 -0.9981
  675MOL0     H91067  10.697   8.738   8.009  0.6737 -0.7194 -0.0115
  675MOL0     H91068  10.818   8.481   8.121  0.3951  1.0711  0.7231
  675MOL0     H91069  10.912   8.627   8.075  0.1483  1.4612  1.3123
  675MOL0     H91070  10.722   8.746   8.247 -2.5405 -0.5580  0.5565
  675MOL0     H91071  10.699   8.573   8.281  3.4173 -2.3635  1.8728
  675MOL0     H91072  10.977   8.716   8.310  0.8788 -0.0269 -0.1620
  675MOL0     H91073  10.946   8.552   8.363 -3.2488 -2.3677 -2.4332
  675MOL0     H91074  10.801   8.796   8.491  1.4845  1.6479  2.0474
  675MOL0     H91075  10.788   8.621   8.528 -0.7263  1.4937  1.0458
  675MOL0     H91076  10.997   8.503   8.615 -2.1875  0.8344  1.5436
  675MOL0     H91077  11.267   8.623   8.868  1.7243 -0.0962 -0.2122
  675MOL0     H91078  11.202   8.478   8.807  0.3248 -0.1437  0.2379
  675MOL0     H91079  11.368   8.495   8.604  4.5171  2.2574 -1.5050
  675MOL0     H91080  11.414   8.652   8.674  0.0573  0.1692  0.4811
  675MOL0     H91081  11.476   8.390   8.791  0.7115  0.8879  1.7758
  675MOL0     H91082  11.508   8.546   8.882  1.8899 -0.6967  0.8220
  675MOL0     H91083  11.636   8.594   8.656 -0.3481  0.1930 -1.5878
  675MOL0     H91084  11.602   8.423   8.624 -2.9287  0.7447 -0.5233
  675MOL0     H91085  11.917   8.615   8.831  2.5130  0.3717  0.6593
  675MOL0     H91086  12.144   8.603   8.733 -0.8750 -0.3850  1.2433
  675MOL0     H91087  12.259   8.770   8.329 -1.5674 -1.1884 -0.7241
  675MOL0     H91088  12.434   8.858   8.183  1.8693 -0.3716 -1.8571
  675MOL0     H91089  12.814   8.609   8.141 -0.6616  0.1566  0.8056
  675MOL0     H91090  12.838   8.756   8.042 -4.6291 -1.1182 -2.0473
  675MOL0     H91091  12.922   8.869   8.234 -0.5917  0.3417  0.9061
  675MOL0     H91092  12.890   8.724   8.340  0.7007  0.9689  0.1107
  675MOL0     H91093  13.045   8.591   8.236  0.6985  1.1265  3.5713
  675MOL0     H91094  13.057   8.698   8.093 -0.8075  1.9617 -0.3174
  675MOL0     H91095  13.184   8.740   8.373  0.0242 -1.1858 -0.1858
  675MOL0     H91096  13.149   8.877   8.286 -0.3930  1.0662 -1.8300
  675MOL0     H91097  13.289   8.798   8.092 -4.5494  0.3922  0.3941
  675MOL0     H91098  13.323   8.641   8.165  0.7887  0.5276 -1.2027
  675MOL0     H91099  13.389   8.901   8.308  1.6863  1.1423 -0.8455
  675MOL0     H91100  13.416   8.736   8.353  0.0583  1.1798  0.4146
  675MOL0     H91101  13.536   8.757   8.085  2.6928  2.3872 -0.6137
  675MOL0     H91102  13.592   8.694   8.236  1.7721  0.9804 -0.3193
  675MOL0     H91103  13.601   9.000   8.158  0.9359  2.4836  4.0562
  675MOL0     H91104  13.661   8.916   8.308 -0.7586 -1.4842  0.8894
  675MOL0     H91105  12.700   8.544   8.328 -0.5398  0.6601  0.3049
  675MOL0     H91106  12.513   8.458   8.472  0.4685  0.3515 -1.0986
  675MOL0     H91107  12.000   8.268   8.477  0.0451  0.4620 -1.3186
  675MOL0     H91108  11.808   8.276   8.575  3.0840 -2.1245 -2.3192
  675MOL0     H91109  10.119   8.854   8.073  1.9863 -1.8643 -2.2803
  675MOL0     H91110   9.874   8.846   8.109  1.5048 -0.3616 -0.8137
  675MOL0     H91111   9.473   8.334   8.086 -0.7803 -0.9067 -0.0221
  675MOL0     H91112   9.228   8.349   8.122  1.5712 -1.3794 -0.1112
  675MOL0     H91113   9.030   8.741   8.072 -0.9690 -0.4127 -0.4466
  675MOL0     H91114   9.057   8.744   8.251 -1.7493 -0.3312  1.0139
  675MOL0     H91115   8.830   8.747   8.156 -2.7145 -0.6334  1.1213
  675MOL0     H91116   8.858   8.615   8.282  1.7814  0.8941  1.4077
  675MOL0     H91117   8.880   8.447   8.095  0.2101 -0.3346  1.2932
  675MOL0     H91118   8.843   8.572   7.976 -3.1433 -0.9159 -1.0263
  675MOL0     H91119   8.621   8.614   8.057 -1.9343 -1.2539 -2.2531
  675MOL0     H91120   8.629   8.436   8.020 -0.9529 -1.6442  1.4579
  675MOL0     H91121   8.558   8.462   8.429 -2.3092 -0.3160 -0.7345
  675MOL0     H91122   9.246   8.765   8.177 -0.0101  0.0695  1.8911
  675MOL0     H91123   9.535   8.835   8.244 -1.6266  1.4653  0.4615
  675MOL0     H91124   9.599   8.794   8.071 -1.1203  0.5705 -1.6227
  675MOL0     H91125   9.449   8.879   8.108  3.4642  0.9390 -2.7971
  676MOL0     O91126   5.512   3.376   2.849  0.2556 -0.0187  0.6563
  676MOL0     C91127   5.569   3.482   2.856 -0.2099  0.8618 -0.3772
  676MOL0     O91128   5.707   3.493   2.878  0.7614 -0.2436 -0.3542
  676MOL0     C91129   5.781   3.387   2.922 -0.5871  0.1606 -0.0727
  676MOL0     C91130   5.880   3.331   2.843  1.7226  0.6419  0.6522
  676MOL0     C91131   5.965   3.231   2.887  0.4337  0.1594 -0.2604
  676MOL0     C91132   5.961   3.183   3.021  0.0267 -0.1373 -0.7681
  676MOL0     O91133   6.025   3.071   3.077  0.0731 -0.8631 -0.1307
  676MOL0     C91134   6.113   2.994   2.984  0.6510 -0.6360 -1.1288
  676MOL0     C91135   6.193   2.876   3.062  0.1851 -0.2373  0.5990
  676MOL0     C91136   6.323   2.834   2.988  0.3152 -0.9916 -0.2069
  676MOL0     C91137   6.408   2.715   3.033 -0.3634  0.5177 -0.1691
  676MOL0     C91138   6.535   2.701   2.963  0.1631 -0.0210 -0.3273
  676MOL0     C91139   6.598   2.570   3.002 -0.2229 -0.3730  0.0488
  676MOL0     C91140   6.700   2.585   3.121  1.0063  0.2308  0.0909
  676MOL0     C91141   6.766   2.453   3.140 -0.3884  0.3026 -0.0286
  676MOL0     N91142   6.898   2.467   3.206  0.3970  0.4243 -0.0288
  676MOL0     C91143   6.912   2.492   3.341  0.1110  1.2924  0.1270
  676MOL0     C91144   7.045   2.491   3.354 -0.4042  0.3271  0.5805
  676MOL0     C91145   7.117   2.495   3.490 -0.2660  0.2078 -0.1423
  676MOL0     C91146   7.262   2.468   3.504 -0.0593 -0.3567  0.0200
  676MOL0     C91147   7.304   2.495   3.647  0.5083 -0.3453  0.6485
  676MOL0     C91148   7.454   2.469   3.653  0.4008 -0.3237 -0.2441
  676MOL0     O91149   7.493   2.489   3.788 -0.1729  0.6452  0.2767
  676MOL0     C91150   7.620   2.478   3.823 -0.1363  0.0449  0.3073
  676MOL0     C91151   7.649   2.475   3.962 -0.2305  0.0499 -0.5768
  676MOL0     C91152   7.777   2.455   4.011  0.2325 -0.2765 -0.1540
  676MOL0     C91153   7.884   2.447   3.923 -0.0066  0.1575 -0.2344
  676MOL0     C91154   8.032   2.436   3.968 -0.1582  0.0498  0.1558
  676MOL0     O91155   8.039   2.469   4.100 -0.3400  0.1190 -0.5223
  676MOL0     C91156   8.165   2.449   4.147  1.0164  0.5196 -0.1601
  676MOL0     C91157   8.198   2.330   4.208 -0.6122  0.0346  0.5585
  676MOL0     C91158   8.327   2.303   4.271  0.6521 -0.1715 -0.7904
  676MOL0     C91159   8.419   2.409   4.274  0.0335 -0.9744  0.0706
  676MOL0     O91160   8.544   2.407   4.320 -0.4393  0.1650 -1.0545
  676MOL0     C91161   8.612   2.279   4.345 -0.1508  1.3924  0.0672
  676MOL0     C91162   8.615   2.238   4.493 -0.0881  0.2228 -0.4599
  676MOL0     C91163   8.700   2.330   4.580 -0.0804 -0.4911 -0.3015
  676MOL0     C91164   8.849   2.320   4.557  1.1475 -0.3367  0.7432
  676MOL0     C91165   8.936   2.396   4.660 -0.3384 -0.5446  0.7567
  676MOL0     C91166   9.087   2.366   4.615 -0.2458  0.7760 -0.1321
  676MOL0     C91167   9.179   2.453   4.703  0.0538 -0.1059  0.0808
  676MOL0     C91168   9.317   2.480   4.644 -0.4332 -0.6967 -0.1408
  676MOL0    Cl91169   9.312   2.611   4.534  0.2888 -0.2431  0.0819
  676MOL0     C91170   8.379   2.536   4.213 -0.7167 -0.6080 -0.6621
  676MOL0     C91171   8.255   2.551   4.144  0.3428  0.4040  0.1951
  676MOL0     O91172   8.131   2.393   3.898 -0.4319  0.1264  0.3425
  676MOL0     C91173   7.859   2.464   3.781  0.2557 -0.0585  0.0825
  676MOL0     C91174   7.729   2.479   3.730 -0.5483 -0.8045 -0.0586
  676MOL0     N91175   7.108   2.467   3.227  0.1653  0.0316  0.4350
  676MOL0     N91176   7.013   2.457   3.135 -0.5228 -0.6523  0.4700
  676MOL0     C91177   5.862   3.246   3.101  0.1721 -0.4778 -0.3292
  676MOL0     C91178   5.771   3.346   3.058 -0.9337  1.3937  0.3417
  676MOL0     C91179   5.485   3.602   2.834  0.0027  0.2985 -0.3734
  676MOL0     C91180   5.551   3.725   2.817 -0.5858 -0.3836  0.5503
  676MOL0     C91181   5.481   3.843   2.808  0.1593 -0.5111  0.5118
  676MOL0     C91182   5.343   3.851   2.816  0.1188 -0.3424 -0.3141
  676MOL0     O91183   5.287   3.978   2.801  0.0028  0.1830  0.2028
  676MOL0     C91184   5.154   3.977   2.742  0.3056 -0.5561  0.2904
  676MOL0     C91185   5.122   4.121   2.687 -0.0522  0.7483 -0.7877
  676MOL0     C91186   5.225   4.187   2.582 -0.6031 -0.0453  0.3435
  676MOL0     C91187   5.238   4.122   2.437  0.0860 -0.5272  0.4369
  676MOL0     C91188   5.114   4.166   2.366  0.3699 -0.0764  0.1240
  676MOL0     C91189   5.010   4.209   2.311 -0.5298 -0.3232 -0.3051
  676MOL0     C91190   5.272   3.730   2.832 -0.3373  0.3903 -1.0734
  676MOL0     C91191   5.342   3.613   2.836  0.1839  0.3367  0.2305
  676MOL0     C91192   5.245   3.498   2.820 -0.3744 -0.0341  0.1407
  676MOL0     H91193   5.889   3.366   2.741 -0.7587 -1.7682 -0.5414
  676MOL0     H91194   6.024   3.192   2.805  1.7297  0.2200  0.6094
  676MOL0     H91195   6.055   2.960   2.898  0.1529 -1.4536 -0.4919
  676MOL0     H91196   6.185   3.065   2.944 -1.0710  0.9169 -1.5949
  676MOL0     H91197   6.131   2.788   3.083 -1.8453  1.6630  3.3165
  676MOL0     H91198   6.218   2.919   3.159  1.9524  0.2876 -0.0427
  676MOL0     H91199   6.392   2.918   2.974 -2.2094  1.4023  0.7504
  676MOL0     H91200   6.285   2.800   2.891 -0.6254 -1.7054  0.3900
  676MOL0     H91201   6.440   2.730   3.136 -0.4403  1.9038 -0.3347
  676MOL0     H91202   6.338   2.631   3.022 -1.0784  1.2909 -1.7320
  676MOL0     H91203   6.508   2.688   2.858  1.6529 -0.2616 -0.6995
  676MOL0     H91204   6.601   2.787   2.976 -3.2868  2.6839  0.8522
  676MOL0     H91205   6.521   2.496   3.025  0.6234 -0.3340  3.6217
  676MOL0     H91206   6.669   2.542   2.923  3.3102 -2.7849  3.6669
  676MOL0     H91207   6.661   2.621   3.216  1.3604 -1.4315  0.9068
  676MOL0     H91208   6.768   2.660   3.078 -1.6137  0.7009 -3.7649
  676MOL0     H91209   6.698   2.398   3.205  0.5396 -0.3452  0.4168
  676MOL0     H91210   6.778   2.409   3.041  1.5156  4.5247 -1.9043
  676MOL0     H91211   6.846   2.505   3.426 -2.6019 -3.2989 -0.9351
  676MOL0     H91212   7.092   2.594   3.527 -3.3906 -0.0662 -1.2357
  676MOL0     H91213   7.078   2.423   3.563  4.0492 -1.6925  0.6400
  676MOL0     H91214   7.269   2.361   3.484 -1.3802 -0.9984  2.5696
  676MOL0     H91215   7.317   2.517   3.423 -2.1278  0.1383 -1.1582
  676MOL0     H91216   7.241   2.438   3.715 -1.6121 -1.0847 -1.7687
  676MOL0     H91217   7.292   2.602   3.669  0.9381 -0.4781  1.5492
  676MOL0     H91218   7.505   2.540   3.587  2.0822 -1.9371 -0.7402
  676MOL0     H91219   7.480   2.365   3.630  0.0372 -0.9613  1.9734
  676MOL0     H91220   7.565   2.483   4.031 -1.3727  2.0251 -2.0967
  676MOL0     H91221   7.786   2.460   4.119 -0.4700  4.2190 -0.1109
  676MOL0     H91222   8.124   2.251   4.205  0.6856 -1.2390 -2.4920
  676MOL0     H91223   8.336   2.211   4.327 -0.2526 -0.3899 -0.9842
  676MOL0     H91224   8.558   2.202   4.290  0.2021  2.3806 -1.7410
  676MOL0     H91225   8.717   2.282   4.314  1.7210  2.4961  5.4196
  676MOL0     H91226   8.514   2.242   4.534  0.1650 -1.8455  0.5062
  676MOL0     H91227   8.650   2.135   4.498  1.9467  0.8500 -0.6081
  676MOL0     H91228   8.674   2.437   4.577 -0.9072 -0.6956 -0.3950
  676MOL0     H91229   8.680   2.305   4.685 -0.4060  0.4196 -0.1315
  676MOL0     H91230   8.876   2.360   4.459  1.2964 -0.3281  0.7878
  676MOL0     H91231   8.883   2.216   4.560 -3.8101 -2.1864  1.6353
  676MOL0     H91232   8.912   2.365   4.762 -0.4057 -1.2493  0.5310
  676MOL0     H91233   8.912   2.502   4.647 -1.0399 -0.5351  1.9728
  676MOL0     H91234   9.108   2.259   4.616 -1.4860  0.5170 -0.0890
  676MOL0     H91235   9.102   2.402   4.513  0.3976 -1.7566 -0.9934
  676MOL0     H91236   9.183   2.402   4.800 -1.1062 -0.6112 -0.1173
  676MOL0     H91237   9.126   2.547   4.719 -1.1288 -0.9097  1.0666
  676MOL0     H91238   9.396   2.484   4.718 -0.0007  0.5944 -0.6541
  676MOL0     H91239   9.347   2.392   4.586  0.5493 -3.1970  3.7978
  676MOL0     H91240   8.440   2.625   4.225 -2.2070  0.4251 -0.4822
  676MOL0     H91241   8.232   2.647   4.099 -0.2635 -0.7419 -2.1511
  676MOL0     H91242   7.931   2.471   3.699  0.1646  0.4290  0.0425
  676MOL0     H91243   7.718   2.507   3.626 -2.1183 -0.6268  0.1330
  676MOL0     H91244   5.851   3.213   3.204 -3.0112 -1.0398 -0.7557
  676MOL0     H91245   5.706   3.402   3.124 -0.4108  2.3121  0.0887
  676MOL0     H91246   5.658   3.726   2.834  0.1412 -0.3135 -3.1495
  676MOL0     H91247   5.534   3.937   2.805 -2.4546  1.0302 -1.1980
  676MOL0     H91248   5.078   3.953   2.816 -2.6239 -0.1583 -2.3995
  676MOL0     H91249   5.152   3.903   2.661  3.8774  0.2658 -0.7448
  676MOL0     H91250   5.119   4.183   2.777  2.3917  0.0286 -0.1284
  676MOL0     H91251   5.027   4.124   2.633  1.1270 -2.1356 -3.3556
  676MOL0     H91252   5.323   4.190   2.630 -1.2370 -1.2094  1.7748
  676MOL0     H91253   5.202   4.294   2.577  1.1081  0.5749  3.1907
  676MOL0     H91254   5.323   4.174   2.391  0.2879 -1.8079 -0.7119
  676MOL0     H91255   5.270   4.018   2.435 -1.1073 -0.9127 -0.0369
  676MOL0     H91256   4.924   4.238   2.254  0.6041  1.2255 -1.2922
  676MOL0     H91257   5.164   3.728   2.843 -0.3309  0.3535 -1.0115
  676MOL0     H91258   5.148   3.531   2.857  1.2025  3.9359  1.2433
  676MOL0     H91259   5.238   3.469   2.715  0.4243  1.0247 -0.2260
  676MOL0     H91260   5.278   3.413   2.881 -3.7130 -1.9173 -0.4437
  677MOL0     O91261   8.447   1.245   6.141  0.2696  0.6134  0.1264
  677MOL0     C91262   8.442   1.222   6.259 -0.4518  0.5368 -0.2549
  677MOL0     O91263   8.537   1.166   6.323 -0.1435  0.6306 -0.4128
  677MOL0     C91264   8.639   1.102   6.255 -0.6546  0.0572 -0.3581
  677MOL0     C91265   8.769   1.164   6.243  0.4538  0.2213 -0.3222
  677MOL0     C91266   8.879   1.098   6.182 -0.0319 -0.1507  0.1783
  677MOL0     C91267   8.860   0.980   6.115  0.5414 -0.6256 -0.4512
  677MOL0     O91268   8.964   0.914   6.066 -0.3976 -0.3071 -0.7112
  677MOL0     C91269   8.945   0.784   6.004  0.5079  0.0693  0.6987
  677MOL0     C91270   9.085   0.736   5.954 -0.5190  0.0358  0.1450
  677MOL0     C91271   9.179   0.766   6.075 -0.6156  0.0970  0.2296
  677MOL0     C91272   9.320   0.708   6.035  0.4978 -0.5567  0.0514
  677MOL0     C91273   9.424   0.733   6.155  0.6849  0.3472 -0.2303
  677MOL0     C91274   9.566   0.711   6.106 -0.1908  0.7864  0.6020
  677MOL0     C91275   9.683   0.758   6.189  0.3219 -0.0687 -0.7779
  677MOL0     C91276   9.809   0.747   6.107 -0.3352  0.5125  0.4894
  677MOL0     N91277   9.924   0.729   6.192  0.0457  0.5882 -0.6833
  677MOL0     C91278  10.009   0.837   6.228  0.0331  0.2769 -0.4435
  677MOL0     C91279  10.110   0.780   6.295 -0.1955  0.7348  0.3074
  677MOL0     C91280  10.211   0.841   6.383  0.5422 -0.8004  0.0702
  677MOL0     C91281  10.175   0.818   6.533  0.1440 -0.2702  0.6310
  677MOL0     C91282  10.262   0.903   6.626 -0.0488 -1.3044 -0.0930
  677MOL0     C91283  10.416   0.898   6.607  0.0170 -0.4831  0.2286
  677MOL0     O91284  10.464   0.954   6.480 -0.3551  0.0804 -0.6554
  677MOL0     C91285  10.593   0.987   6.466  1.4819 -0.2686  0.7552
  677MOL0     C91286  10.698   0.910   6.507  0.4022  0.4090 -0.8663
  677MOL0     C91287  10.826   0.945   6.474  0.1149 -0.1687  0.5374
  677MOL0     C91288  10.845   1.063   6.399  0.1455 -0.8088  0.0705
  677MOL0     C91289  10.983   1.109   6.377  0.0758  0.2244 -0.9007
  677MOL0     O91290  11.072   1.017   6.371  0.1608 -0.4498 -0.0414
  677MOL0     C91291  11.207   1.052   6.356 -0.8135  1.2641  1.1713
  677MOL0     C91292  11.308   1.016   6.453  1.4075  0.5010  0.4892
  677MOL0     C91293  11.438   1.046   6.421  0.5866 -0.2306 -0.7644
  677MOL0     C91294  11.472   1.101   6.293  0.0103 -0.9277 -0.6999
  677MOL0     O91295  11.606   1.135   6.266  1.2472 -0.2659 -0.0131
  677MOL0     C91296  11.687   1.027   6.222  0.6943 -0.3322 -0.4248
  677MOL0     C91297  11.832   1.054   6.246 -0.4682 -0.6897  0.0994
  677MOL0     C91298  11.888   1.172   6.170  0.0879  0.5321 -0.9153
  677MOL0     C91299  12.039   1.202   6.222 -0.0920 -0.1964  1.0856
  677MOL0     C91300  12.041   1.266   6.358  0.6932 -0.8672 -0.6629
  677MOL0     C91301  12.166   1.335   6.417 -0.1350 -0.0429  0.6362
  677MOL0     C91302  12.136   1.422   6.533  0.2835  0.2292  0.5759
  677MOL0     C91303  12.099   1.352   6.670  0.5412  0.2711  0.2343
  677MOL0    Cl91304  12.244   1.270   6.728 -0.3139  0.1717  0.1262
  677MOL0     C91305  11.372   1.124   6.199 -0.2321  0.4457  1.1266
  677MOL0     C91306  11.244   1.088   6.227  0.3144  0.5993  0.9616
  677MOL0     O91307  10.997   1.223   6.342  2.0080 -0.1614 -0.1580
  677MOL0     C91308  10.739   1.151   6.360 -0.4694  0.2702  0.0580
  677MOL0     C91309  10.606   1.104   6.389  0.0054  0.2509  0.4838
  677MOL0     N91310  10.106   0.643   6.279 -0.6257 -0.0946 -0.7694
  677MOL0     N91311   9.996   0.611   6.213  0.5163 -0.5202  0.4055
  677MOL0     C91312   8.733   0.918   6.125 -0.1747 -0.8764 -0.1862
  677MOL0     C91313   8.626   0.981   6.188 -0.2335  0.1482  0.0655
  677MOL0     C91314   8.343   1.305   6.336 -0.1723 -0.2177 -0.3173
  677MOL0     C91315   8.212   1.324   6.282  0.1764 -0.7590  0.2817
  677MOL0     C91316   8.116   1.393   6.355  0.1118 -0.3638 -0.0611
  677MOL0     C91317   8.142   1.436   6.483  0.0475  1.2936 -0.1670
  677MOL0     O91318   8.055   1.497   6.566  0.3884  0.8732  0.3995
  677MOL0     C91319   7.928   1.543   6.523 -0.7830  0.4080  0.3372
  677MOL0     C91320   7.855   1.594   6.651  0.1893 -0.5825 -1.1601
  677MOL0     C91321   7.745   1.684   6.609 -0.1224 -1.2178 -0.0517
  677MOL0     C91322   7.698   1.765   6.732 -0.4900 -0.9372 -0.0071
  677MOL0     C91323   7.564   1.824   6.692  0.5769  0.6054  0.1878
  677MOL0     C91324   7.457   1.872   6.658  0.0867 -0.2321 -0.3740
  677MOL0     C91325   8.273   1.423   6.534  0.0026 -0.0426 -0.5903
  677MOL0     C91326   8.378   1.364   6.459  0.3578  0.9600  0.1497
  677MOL0     C91327   8.508   1.348   6.537  0.1550  0.7535 -0.2993
  677MOL0     H91328   8.776   1.248   6.311  1.0591  0.3574 -0.5474
  677MOL0     H91329   8.975   1.147   6.191 -0.6084  1.1721 -0.5884
  677MOL0     H91330   8.910   0.712   6.078  0.6575 -0.7491 -0.0234
  677MOL0     H91331   8.875   0.781   5.920  2.9012 -3.7313 -1.4353
  677MOL0     H91332   9.118   0.794   5.867 -4.2541  2.5331  0.2001
  677MOL0     H91333   9.086   0.629   5.933  1.2189  0.1178 -0.4163
  677MOL0     H91334   9.142   0.710   6.162 -0.5986 -0.0365  0.1509
  677MOL0     H91335   9.205   0.867   6.108  1.8438 -0.7317  1.1135
  677MOL0     H91336   9.318   0.600   6.018  0.3866 -0.7709  1.3321
  677MOL0     H91337   9.351   0.758   5.943 -1.3463  0.1710 -0.2254
  677MOL0     H91338   9.401   0.830   6.202 -0.4109 -0.8915  2.0046
  677MOL0     H91339   9.404   0.666   6.239  0.4190  1.5980  0.7407
  677MOL0     H91340   9.585   0.608   6.072 -0.4736  0.3419  1.7671
  677MOL0     H91341   9.569   0.766   6.011 -2.0272 -2.2468 -1.4106
  677MOL0     H91342   9.703   0.694   6.276  0.4334 -1.2354 -1.6452
  677MOL0     H91343   9.679   0.865   6.211  1.9511 -0.0777 -0.3527
  677MOL0     H91344   9.804   0.663   6.037  1.4781 -0.1554  1.1026
  677MOL0     H91345   9.809   0.839   6.048 -1.9092 -0.1464 -0.6252
  677MOL0     H91346   9.991   0.943   6.234 -0.2353  0.4266 -2.8473
  677MOL0     H91347  10.307   0.796   6.356  1.2319  0.8077 -0.2666
  677MOL0     H91348  10.226   0.947   6.364 -1.2181 -0.5688 -0.2219
  677MOL0     H91349  10.071   0.839   6.559  0.6253  0.2568  2.2211
  677MOL0     H91350  10.184   0.716   6.571 -1.9987 -1.0358 -0.7363
  677MOL0     H91351  10.237   0.876   6.729  1.8876 -1.7669  0.2963
  677MOL0     H91352  10.239   1.009   6.608 -0.0156 -1.3807 -0.6259
  677MOL0     H91353  10.455   0.796   6.614 -0.7459 -1.0156 -2.2361
  677MOL0     H91354  10.460   0.961   6.685 -0.0364 -1.0904  0.7605
  677MOL0     H91355  10.681   0.823   6.570  2.1304 -1.9229 -3.3798
  677MOL0     H91356  10.906   0.878   6.504  0.8949  0.6857  0.3993
  677MOL0     H91357  11.282   0.976   6.550  0.0252 -0.7941 -0.3770
  677MOL0     H91358  11.509   1.043   6.503 -1.1153  1.4269  0.8681
  677MOL0     H91359  11.654   0.935   6.271  1.3696  0.1044  0.8955
  677MOL0     H91360  11.671   1.010   6.115  0.6264  0.5173 -0.5604
  677MOL0     H91361  11.839   1.064   6.354 -0.2048  0.0721  0.0156
  677MOL0     H91362  11.893   0.971   6.208 -0.2165  0.8101 -3.0666
  677MOL0     H91363  11.888   1.141   6.065 -0.8342 -0.7222 -0.5769
  677MOL0     H91364  11.836   1.268   6.179 -2.6789 -0.9404  0.4700
  677MOL0     H91365  12.095   1.272   6.159  2.4272 -0.6156  2.7139
  677MOL0     H91366  12.094   1.107   6.219  0.3680  0.0742 -1.2823
  677MOL0     H91367  11.996   1.194   6.426 -1.0091 -1.1550 -2.0094
  677MOL0     H91368  11.966   1.344   6.344 -0.8343 -2.2890 -0.7177
  677MOL0     H91369  12.253   1.270   6.431 -1.9157 -2.4720  1.0987
  677MOL0     H91370  12.203   1.413   6.350 -1.7992 -0.8922 -1.3617
  677MOL0     H91371  12.052   1.485   6.502  1.6034  1.4115 -0.7488
  677MOL0     H91372  12.216   1.493   6.559 -0.2797  1.4024 -0.7917
  677MOL0     H91373  12.061   1.422   6.744  0.1845  0.3956 -0.0641
  677MOL0     H91374  12.014   1.286   6.653 -1.2662  2.2773  1.0499
  677MOL0     H91375  11.382   1.160   6.098 -1.7249  0.5924  1.0149
  677MOL0     H91376  11.162   1.092   6.156 -0.0739 -0.4710  1.3271
  677MOL0     H91377  10.762   1.247   6.316 -1.5334  0.8958  0.8275
  677MOL0     H91378  10.517   1.159   6.360  0.7342  1.1931 -0.0293
  677MOL0     H91379   8.710   0.828   6.068  1.1337  0.2816 -2.7284
  677MOL0     H91380   8.528   0.933   6.187  0.3027 -1.0497  1.5578
  677MOL0     H91381   8.182   1.289   6.184  3.0225 -3.7224  0.3110
  677MOL0     H91382   8.018   1.417   6.315  0.4439  2.5427  0.6161
  677MOL0     H91383   7.885   1.462   6.463 -1.8579  0.8918  0.4237
  677MOL0     H91384   7.957   1.628   6.459  2.2223 -2.0870 -1.9386
  677MOL0     H91385   7.923   1.638   6.725 -2.6198 -1.8029  2.4666
  677MOL0     H91386   7.817   1.504   6.700  4.1909 -0.0183  3.9317
  677MOL0     H91387   7.653   1.632   6.582 -1.6972  0.9800  0.7609
  677MOL0     H91388   7.769   1.747   6.523 -0.1019 -1.1654 -0.0087
  677MOL0     H91389   7.690   1.701   6.820  0.2538 -0.0777  0.7006
  677MOL0     H91390   7.759   1.850   6.763 -0.5438 -0.2475 -1.6689
  677MOL0     H91391   7.370   1.920   6.619  0.6279  0.7897 -0.3684
  677MOL0     H91392   8.288   1.464   6.634 -3.5972 -2.2675  1.0534
  677MOL0     H91393   8.591   1.370   6.470  3.3552  0.2069  3.1129
  677MOL0     H91394   8.518   1.412   6.626  0.6335 -1.9619  1.7469
  677MOL0     H91395   8.520   1.243   6.566 -0.9109  0.2375 -1.6667
  678MOL0     O91396   4.763   6.478   1.736 -0.2999  0.7695  0.8323
  678MOL0     C91397   4.746   6.593   1.762  0.8656 -0.2535 -0.0198
  678MOL0     O91398   4.780   6.656   1.889 -0.2774  0.5611  0.1147
  678MOL0     C91399   4.902   6.654   1.952 -0.2102 -0.3465 -0.3966
  678MOL0     C91400   5.003   6.547   1.942  0.1274  0.2546  0.8893
  678MOL0     C91401   5.124   6.559   2.006 -0.4431  0.0878 -0.3828
  678MOL0     C91402   5.146   6.677   2.086 -0.3356 -0.3348 -0.2693
  678MOL0     O91403   5.274   6.695   2.129  0.4031  0.0071 -0.2565
  678MOL0     C91404   5.330   6.828   2.093 -0.0744 -0.4568 -0.8044
  678MOL0     C91405   5.481   6.811   2.059  0.6542  0.3883  0.2257
  678MOL0     C91406   5.563   6.927   2.118  0.3468  0.3384  0.5059
  678MOL0     C91407   5.706   6.917   2.077  0.0638  0.1311  0.6316
  678MOL0     C91408   5.792   7.023   2.144  0.2451 -0.6094  0.2023
  678MOL0     C91409   5.937   6.987   2.104 -1.3128 -0.3503  0.1426
  678MOL0     C91410   6.044   7.061   2.184 -0.1296 -0.0622 -0.8295
  678MOL0     C91411   6.025   7.213   2.187  0.3673  0.7738 -0.9683
  678MOL0     N91412   6.156   7.277   2.220 -0.3743  0.5296 -0.2381
  678MOL0     C91413   6.239   7.231   2.313 -0.4548  0.1205 -0.4137
  678MOL0     C91414   6.349   7.317   2.306  0.6067 -0.5449 -0.6003
  678MOL0     C91415   6.461   7.328   2.408 -0.3666 -0.3140 -0.8614
  678MOL0     C91416   6.593   7.371   2.363  0.0491 -0.2364 -0.1319
  678MOL0     C91417   6.704   7.288   2.438 -0.2950  0.3070 -0.9490
  678MOL0     C91418   6.847   7.359   2.442  0.1103 -0.0994  0.3588
  678MOL0     O91419   6.843   7.472   2.538  0.0581  0.1439 -0.0049
  678MOL0     C91420   6.962   7.529   2.573 -0.0622 -0.5214 -0.4264
  678MOL0     C91421   6.956   7.648   2.645  0.5583  0.2970  0.1020
  678MOL0     C91422   7.071   7.720   2.680  0.0468 -0.0676 -0.3110
  678MOL0     C91423   7.204   7.671   2.654  0.6386 -0.8365  0.3142
  678MOL0     C91424   7.329   7.746   2.682  1.2924  0.1997 -0.1984
  678MOL0     O91425   7.451   7.700   2.636  0.3943  0.3717  0.3535
  678MOL0     C91426   7.559   7.781   2.655  0.3271 -0.3821 -0.2444
  678MOL0     C91427   7.556   7.917   2.623 -0.0658  0.1623  0.3331
  678MOL0     C91428   7.676   7.996   2.636  0.1516 -1.0327 -0.4921
  678MOL0     C91429   7.801   7.936   2.664 -0.7317 -0.1399 -0.6366
  678MOL0     O91430   7.903   8.023   2.689 -0.0203  0.0687  0.9270
  678MOL0     C91431   8.036   7.996   2.642  0.1268 -0.4574 -0.6782
  678MOL0     C91432   8.135   8.112   2.674  0.2591 -0.0235 -0.5901
  678MOL0     C91433   8.277   8.087   2.609  0.4963  0.0562  0.0803
  678MOL0     C91434   8.363   8.214   2.631  0.4763 -0.0290 -0.8337
  678MOL0     C91435   8.509   8.189   2.605 -0.7523  0.2850  0.5566
  678MOL0     C91436   8.581   8.325   2.611  0.0286 -0.1089 -0.6663
  678MOL0     C91437   8.734   8.300   2.619  0.2227 -0.1829 -0.0171
  678MOL0     C91438   8.783   8.313   2.476 -0.9861 -0.0409  0.3214
  678MOL0    Cl91439   8.940   8.253   2.461 -0.1239  0.0453 -0.4142
  678MOL0     C91440   7.806   7.798   2.689 -0.7320  1.1140  0.1552
  678MOL0     C91441   7.687   7.724   2.681  0.2969 -0.1125 -0.8044
  678MOL0     O91442   7.309   7.850   2.749  0.5079 -0.1411  0.0266
  678MOL0     C91443   7.210   7.550   2.587  1.4637 -0.1265  0.2233
  678MOL0     C91444   7.088   7.480   2.543 -0.9858 -0.3987 -0.2127
  678MOL0     N91445   6.332   7.407   2.199 -0.3133  1.0941 -0.4486
  678MOL0     N91446   6.216   7.388   2.167  0.1724  0.4296  0.0459
  678MOL0     C91447   5.055   6.782   2.101 -0.6773  0.0657  0.3186
  678MOL0     C91448   4.936   6.768   2.032  0.1657 -0.0427  0.0126
  678MOL0     C91449   4.646   6.662   1.669  0.7778 -0.4246  0.5374
  678MOL0     C91450   4.579   6.783   1.704  0.8472  0.1789  0.1938
  678MOL0     C91451   4.487   6.850   1.618 -0.2551 -0.0200  0.9387
  678MOL0     C91452   4.472   6.804   1.487  0.3863 -0.8058  0.2395
  678MOL0     O91453   4.383   6.878   1.405  0.3354  0.4337  0.0575
  678MOL0     C91454   4.384   6.877   1.262 -0.4801  0.4044 -0.6097
  678MOL0     C91455   4.520   6.917   1.201 -0.0291 -0.4906  0.1391
  678MOL0     C91456   4.530   6.903   1.048 -0.3228  0.8617  1.6404
  678MOL0     C91457   4.506   6.754   1.003 -1.0511  0.0550 -0.6548
  678MOL0     C91458   4.601   6.664   1.044  0.9329  0.3999 -0.8319
  678MOL0     C91459   4.696   6.605   1.091  0.2295  0.5280  0.6484
  678MOL0     C91460   4.537   6.691   1.450 -0.6455 -0.1602  0.4648
  678MOL0     C91461   4.616   6.609   1.541 -0.1701  0.2105  0.6805
  678MOL0     C91462   4.660   6.481   1.475  0.6711  0.1831 -0.3472
  678MOL0     H91463   4.991   6.469   1.867  0.3369  1.9037 -0.9664
  678MOL0     H91464   5.199   6.482   1.989  0.9933  1.7293 -1.9474
  678MOL0     H91465   5.287   6.884   2.010  4.9023  1.6725 -2.3085
  678MOL0     H91466   5.321   6.895   2.179  0.9283 -2.2019  0.7360
  678MOL0     H91467   5.479   6.802   1.950 -0.9574 -4.6329  0.4230
  678MOL0     H91468   5.535   6.721   2.092  1.7143 -0.2848 -3.0116
  678MOL0     H91469   5.566   6.927   2.227 -1.0109  1.4783  0.5683
  678MOL0     H91470   5.520   7.024   2.093  0.3969  0.5314  1.1496
  678MOL0     H91471   5.738   6.814   2.098 -1.2640 -0.4719 -0.1697
  678MOL0     H91472   5.711   6.938   1.969 -0.5137  1.5244  0.8624
  678MOL0     H91473   5.765   7.119   2.101  0.4595  0.4593  2.3229
  678MOL0     H91474   5.777   7.026   2.252 -0.5671  1.9882  0.0843
  678MOL0     H91475   5.961   6.883   2.128 -1.7706 -1.2648 -2.9774
  678MOL0     H91476   5.944   6.993   1.995  1.9393  0.5677  0.3011
  678MOL0     H91477   6.144   7.032   2.151  0.1011  1.1501 -1.2536
  678MOL0     H91478   6.041   7.026   2.288  0.3562  1.7024 -0.1812
  678MOL0     H91479   5.994   7.252   2.089 -0.2266  1.1794 -0.6291
  678MOL0     H91480   5.957   7.235   2.269  1.9299  1.6723  0.1289
  678MOL0     H91481   6.214   7.169   2.399 -0.8732 -0.6254 -1.0613
  678MOL0     H91482   6.432   7.392   2.491  0.2604  0.3722 -1.1642
  678MOL0     H91483   6.480   7.229   2.452 -0.3636  0.3465  0.6676
  678MOL0     H91484   6.602   7.353   2.256 -1.8634 -0.9808 -0.2062
  678MOL0     H91485   6.604   7.479   2.379  1.2992 -0.5610  1.4400
  678MOL0     H91486   6.713   7.195   2.380 -1.0218  0.1070 -0.7541
  678MOL0     H91487   6.666   7.267   2.539 -1.0791 -1.9086 -1.6244
  678MOL0     H91488   6.880   7.402   2.347 -0.7390  1.5205  0.7574
  678MOL0     H91489   6.917   7.280   2.472  0.9927  0.2238 -0.7853
  678MOL0     H91490   6.860   7.686   2.680  1.8503  1.8336  2.2267
  678MOL0     H91491   7.054   7.816   2.727 -3.2314 -0.5098 -0.3529
  678MOL0     H91492   7.466   7.963   2.583 -0.3501 -1.8607 -1.5638
  678MOL0     H91493   7.681   8.102   2.615 -1.8160 -1.3733 -3.2092
  678MOL0     H91494   8.071   7.911   2.700  0.0271  1.5154  2.5121
  678MOL0     H91495   8.032   7.981   2.534 -1.3317  2.8485 -1.2210
  678MOL0     H91496   8.093   8.209   2.646 -0.2543 -0.3789 -1.0626
  678MOL0     H91497   8.150   8.110   2.782 -1.1109 -2.7230 -0.3745
  678MOL0     H91498   8.328   7.997   2.645 -0.6372 -0.0197  1.5884
  678MOL0     H91499   8.258   8.070   2.503  0.9463 -1.1362  0.1797
  678MOL0     H91500   8.362   8.250   2.735  3.2496  0.6786 -0.9642
  678MOL0     H91501   8.332   8.292   2.561 -0.4409  1.1218  0.7690
  678MOL0     H91502   8.530   8.138   2.511  0.8656 -2.0017  2.0544
  678MOL0     H91503   8.564   8.125   2.674  3.2539  0.6741 -1.9673
  678MOL0     H91504   8.564   8.388   2.523  1.1922  1.3187  0.0745
  678MOL0     H91505   8.549   8.382   2.699  1.9442  1.8868 -1.1670
  678MOL0     H91506   8.766   8.207   2.667 -2.5081 -0.6423  1.0663
  678MOL0     H91507   8.775   8.385   2.674  1.6031  0.5770 -2.0565
  678MOL0     H91508   8.714   8.262   2.409  0.3770 -2.5090  0.6796
  678MOL0     H91509   8.779   8.418   2.447  3.5361  0.2779  0.0184
  678MOL0     H91510   7.904   7.757   2.713 -0.2799  0.9761 -1.7798
  678MOL0     H91511   7.692   7.616   2.692  0.3995 -0.0415 -0.1676
  678MOL0     H91512   7.307   7.513   2.557  1.2136  1.1469 -2.4845
  678MOL0     H91513   7.105   7.385   2.493 -1.7300 -0.9618  0.5758
  678MOL0     H91514   5.082   6.873   2.153 -1.6747 -0.5667  2.0273
  678MOL0     H91515   4.864   6.849   2.041 -3.0331 -2.8465  2.5886
  678MOL0     H91516   4.598   6.827   1.802 -0.0002 -0.8295  0.8395
  678MOL0     H91517   4.441   6.940   1.656  1.7743  1.8107 -0.6538
  678MOL0     H91518   4.310   6.950   1.227 -3.4847 -1.6968  0.8477
  678MOL0     H91519   4.356   6.779   1.222 -0.1374 -0.1354  0.4502
  678MOL0     H91520   4.592   6.844   1.239 -3.5450 -3.8768  0.8621
  678MOL0     H91521   4.548   7.022   1.212 -0.1942 -0.2083 -1.7314
  678MOL0     H91522   4.627   6.936   1.009 -1.2808  1.6580 -0.1796
  678MOL0     H91523   4.453   6.966   1.004 -0.9005  0.0024  1.3875
  678MOL0     H91524   4.408   6.713   1.029  0.3872 -4.5764 -1.6165
  678MOL0     H91525   4.513   6.766   0.894  0.3460 -0.4334 -0.6429
  678MOL0     H91526   4.769   6.533   1.119 -0.9279 -1.3482 -0.8764
  678MOL0     H91527   4.512   6.660   1.349 -1.7189 -1.2158  1.0411
  678MOL0     H91528   4.599   6.455   1.387  1.8873 -1.1139 -0.8394
  678MOL0     H91529   4.765   6.498   1.454  0.4750  1.7606 -0.1889
  678MOL0     H91530   4.653   6.403   1.551  0.3705 -0.3369 -0.9014
  679MOL0     O91531   9.326   5.711   9.816  0.4332  0.0352  0.0451
  679MOL0     C91532   9.202   5.713   9.834 -0.2425  0.4488 -0.7182
  679MOL0     O91533   9.115   5.812   9.797 -0.5799 -0.2515 -0.7996
  679MOL0     C91534   9.173   5.932   9.752 -0.2288 -0.0476  0.1563
  679MOL0     C91535   9.137   5.978   9.627  0.1923 -0.1113 -0.8858
  679MOL0     C91536   9.185   6.097   9.582 -0.7309  0.5530 -0.5408
  679MOL0     C91537   9.301   6.154   9.630 -0.4834  0.3313 -0.7523
  679MOL0     O91538   9.351   6.256   9.563  0.7066  0.5050  0.0533
  679MOL0     C91539   9.329   6.383   9.627  1.0079  0.0011 -0.7387
  679MOL0     C91540   9.434   6.491   9.594  0.0444 -0.3193 -0.2361
  679MOL0     C91541   9.363   6.629   9.608  0.0213 -0.2875 -0.0685
  679MOL0     C91542   9.447   6.730   9.531 -0.5091 -0.3069  0.7128
  679MOL0     C91543   9.398   6.871   9.563  0.3430 -0.1195 -0.5610
  679MOL0     C91544   9.453   6.972   9.472  0.0141 -0.3505  0.1673
  679MOL0     C91545   9.435   7.118   9.511 -0.3535 -0.8779  0.2293
  679MOL0     C91546   9.297   7.184   9.488  1.0413 -0.0017  0.2842
  679MOL0     N91547   9.288   7.302   9.561  0.0442 -0.0017  0.3956
  679MOL0     C91548   9.371   7.413   9.568 -0.4265 -0.1468  0.6722
  679MOL0     C91549   9.310   7.509   9.638 -0.6024  1.0306 -0.4414
  679MOL0     C91550   9.365   7.645   9.654  0.4246  0.0744 -0.3168
  679MOL0     C91551   9.334   7.735   9.524  0.1728 -0.0235 -0.2797
  679MOL0     C91552   9.456   7.758   9.431 -0.2864 -0.5879  0.3156
  679MOL0     C91553   9.421   7.816   9.288  0.3621 -0.1943 -0.5826
  679MOL0     O91554   9.542   7.830   9.207  0.7087 -0.7631  0.7734
  679MOL0     C91555   9.623   7.933   9.239 -0.0344  0.1778 -0.3710
  679MOL0     C91556   9.743   7.938   9.158 -0.6619  0.5290 -0.0154
  679MOL0     C91557   9.850   8.032   9.187 -0.1606  1.1570 -0.5059
  679MOL0     C91558   9.840   8.115   9.299  0.4850 -0.1214 -0.0180
  679MOL0     C91559   9.958   8.202   9.335  0.6120  0.7748 -0.1867
  679MOL0     O91560  10.025   8.266   9.228 -0.6467  0.6517 -0.4822
  679MOL0     C91561  10.112   8.367   9.260 -0.3036  0.1041 -0.1612
  679MOL0     C91562  10.063   8.478   9.323  0.4044 -0.5324 -0.5382
  679MOL0     C91563  10.147   8.592   9.333  0.1949  0.1364 -0.1666
  679MOL0     C91564  10.283   8.594   9.287 -0.4227  0.3619  0.0700
  679MOL0     O91565  10.367   8.707   9.277  0.7294  0.2118  0.5766
  679MOL0     C91566  10.328   8.831   9.323 -0.5120  0.1053 -0.4741
  679MOL0     C91567  10.272   8.928   9.213  0.8730 -1.2707  0.0656
  679MOL0     C91568  10.385   8.950   9.106  0.2295 -0.8393 -0.4693
  679MOL0     C91569  10.323   9.021   8.979 -1.0571  0.0710  0.3596
  679MOL0     C91570  10.424   9.019   8.860 -0.3888  0.8047 -0.5803
  679MOL0     C91571  10.365   9.045   8.726  0.6257 -0.7195 -0.0822
  679MOL0     C91572  10.468   9.013   8.611 -0.0593 -0.2305 -0.4771
  679MOL0     C91573  10.491   9.119   8.509 -0.5943 -0.4117 -0.1279
  679MOL0    Cl91574  10.591   9.047   8.381 -0.3501  0.2778 -0.7400
  679MOL0     C91575  10.330   8.471   9.243  0.2917  1.0334 -0.5115
  679MOL0     C91576  10.240   8.370   9.223  0.1019  0.1463  0.0337
  679MOL0     O91577   9.964   8.233   9.454 -0.4099 -0.3126  0.1216
  679MOL0     C91578   9.727   8.114   9.382 -0.0832  0.5358  0.0541
  679MOL0     C91579   9.615   8.034   9.342 -0.1945  0.2186 -0.1366
  679MOL0     N91580   9.192   7.465   9.675 -0.2639  0.7431  0.2795
  679MOL0     N91581   9.181   7.339   9.643  0.1105 -0.3277  0.0120
  679MOL0     C91582   9.357   6.094   9.752 -1.0847 -0.0932 -0.1566
  679MOL0     C91583   9.290   5.991   9.817  0.8285 -0.0341  0.1958
  679MOL0     C91584   9.146   5.586   9.896  0.3036 -0.3333  0.8505
  679MOL0     C91585   9.009   5.563   9.878 -0.4240 -0.2399 -0.3532
  679MOL0     C91586   8.954   5.438   9.909 -0.3353  0.1429  0.1182
  679MOL0     C91587   9.031   5.334   9.955 -0.1921 -0.1868 -0.4717
  679MOL0     O91588   8.972   5.215   9.977 -0.2541 -0.4608  0.3956
  679MOL0     C91589   9.026   5.099   9.915  0.7463  0.7238 -0.0531
  679MOL0     C91590   8.924   4.985   9.895 -0.0608  0.9399  0.1129
  679MOL0     C91591   8.960   4.896   9.772 -0.2297 -0.6596  0.4107
  679MOL0     C91592   9.100   4.842   9.787  0.7146 -0.1908  0.4262
  679MOL0     C91593   9.091   4.736   9.890  1.2104  0.3888  0.3382
  679MOL0     C91594   9.094   4.639   9.961  0.6851  0.2671 -0.0034
  679MOL0     C91595   9.162   5.361   9.981 -0.8797  0.8718 -0.1469
  679MOL0     C91596   9.222   5.484   9.959 -0.1579  0.1022 -0.3693
  679MOL0     C91597   9.375   5.486   9.981 -0.1153 -0.0243  0.1709
  679MOL0     H91598   9.066   5.914   9.575  0.6965 -0.2614 -1.4092
  679MOL0     H91599   9.133   6.145   9.500 -1.8436  0.6256  0.1727
  679MOL0     H91600   9.229   6.419   9.602  1.2109  1.2742  0.1915
  679MOL0     H91601   9.340   6.377   9.736  2.0014  0.8471 -0.7810
  679MOL0     H91602   9.460   6.482   9.488 -0.1974  1.3423 -0.4535
  679MOL0     H91603   9.528   6.486   9.650  1.8573  4.0535 -2.4474
  679MOL0     H91604   9.357   6.656   9.714  5.2235  0.3626  0.3232
  679MOL0     H91605   9.261   6.618   9.570 -1.2648  1.7779  2.4407
  679MOL0     H91606   9.555   6.717   9.543  0.0876  1.6303 -1.7949
  679MOL0     H91607   9.431   6.710   9.425  3.4949 -0.2475 -0.0383
  679MOL0     H91608   9.289   6.872   9.552  0.4832 -1.4115 -2.5761
  679MOL0     H91609   9.443   6.896   9.660  0.1373  0.8943 -0.7157
  679MOL0     H91610   9.560   6.952   9.468  0.1445 -0.6907  3.1251
  679MOL0     H91611   9.407   6.965   9.372  2.1261  0.0959 -0.8786
  679MOL0     H91612   9.506   7.176   9.452 -2.7983  2.4912  0.2338
  679MOL0     H91613   9.469   7.134   9.613  0.5338  2.2524 -0.4354
  679MOL0     H91614   9.279   7.202   9.381 -1.1162 -3.6873 -0.1283
  679MOL0     H91615   9.225   7.111   9.523  0.7726  0.3745  0.5187
  679MOL0     H91616   9.471   7.419   9.525 -0.3047 -0.2803  0.9320
  679MOL0     H91617   9.310   7.687   9.738  2.0190 -0.7884  1.2240
  679MOL0     H91618   9.469   7.653   9.685  0.7807 -2.2890 -0.6869
  679MOL0     H91619   9.244   7.705   9.469  0.9721 -0.0532 -1.6156
  679MOL0     H91620   9.311   7.836   9.559  1.4393 -0.0536  0.6812
  679MOL0     H91621   9.518   7.667   9.429 -0.9451 -1.0995  1.5732
  679MOL0     H91622   9.526   7.828   9.476  0.1359 -1.5803  1.2768
  679MOL0     H91623   9.372   7.913   9.297  2.2175  0.9263 -1.7977
  679MOL0     H91624   9.351   7.748   9.241 -1.8770 -0.3754  2.6870
  679MOL0     H91625   9.752   7.864   9.080  1.2176  2.8654 -2.1892
  679MOL0     H91626   9.942   8.023   9.129 -0.1838  0.3621 -0.4308
  679MOL0     H91627   9.959   8.482   9.352  0.3772  1.7514 -0.7030
  679MOL0     H91628  10.106   8.684   9.372  0.9061  0.1203  0.6439
  679MOL0     H91629  10.261   8.827   9.410 -0.3700  0.4102 -0.3463
  679MOL0     H91630  10.425   8.869   9.359  1.3078 -2.4798 -2.3576
  679MOL0     H91631  10.182   8.889   9.165  0.5048 -1.5838  1.0009
  679MOL0     H91632  10.252   9.029   9.250  0.1909 -0.4606 -2.3309
  679MOL0     H91633  10.447   9.030   9.147 -0.3557 -0.0950 -1.0105
  679MOL0     H91634  10.441   8.863   9.070  0.9694 -0.9159  0.8391
  679MOL0     H91635  10.294   9.122   9.009 -2.1507  0.2535 -1.1842
  679MOL0     H91636  10.229   8.968   8.960 -2.6005  1.7779  2.6837
  679MOL0     H91637  10.457   8.915   8.856 -0.2154  0.8257  0.1497
  679MOL0     H91638  10.515   9.078   8.872 -1.0274  1.5820  0.7042
  679MOL0     H91639  10.276   8.981   8.723 -2.3641  2.9918  1.5694
  679MOL0     H91640  10.310   9.139   8.714 -1.4689 -1.8550  0.0891
  679MOL0     H91641  10.434   8.923   8.560 -2.2607 -1.4000  2.7616
  679MOL0     H91642  10.564   8.989   8.657 -0.5680  0.0150  0.7507
  679MOL0     H91643  10.400   9.156   8.461 -0.9833  0.1176  0.9806
  679MOL0     H91644  10.538   9.205   8.557 -2.2501 -0.2570  1.3167
  679MOL0     H91645  10.437   8.458   9.232  0.5439  2.8330 -0.4760
  679MOL0     H91646  10.272   8.278   9.176 -3.9163 -1.2392 -0.3710
  679MOL0     H91647   9.729   8.179   9.469  2.5437  1.9895 -0.9688
  679MOL0     H91648   9.532   8.039   9.411  0.4907  3.8112  0.6346
  679MOL0     H91649   9.453   6.125   9.792 -1.6203 -0.1662  1.2483
  679MOL0     H91650   9.330   5.935   9.902 -0.0621 -5.2165 -2.3721
  679MOL0     H91651   8.938   5.630   9.830  1.2608  2.6442  0.9025
  679MOL0     H91652   8.853   5.413   9.878  0.2484 -1.7153 -0.4079
  679MOL0     H91653   9.103   5.054   9.978  0.0820 -1.6299 -0.8341
  679MOL0     H91654   9.080   5.131   9.825  1.4476 -1.1670 -0.3539
  679MOL0     H91655   8.821   5.018   9.879  0.5165  1.8595 -2.1184
  679MOL0     H91656   8.927   4.931   9.990  0.6330  0.7970  0.0200
  679MOL0     H91657   8.955   4.958   9.682  0.0088  1.6676  1.9041
  679MOL0     H91658   8.885   4.819   9.753 -2.4713  1.3839  0.5182
  679MOL0     H91659   9.129   4.790   9.696 -0.4544  1.6261 -1.0433
  679MOL0     H91660   9.179   4.912   9.816  1.0683 -1.4283  2.7090
  679MOL0     H91661   9.096   4.547  10.016 -2.2016  0.5530  0.7304
  679MOL0     H91662   9.219   5.274  10.012  0.0674  0.4030 -2.9603
  679MOL0     H91663   9.413   5.582  10.017  1.1316 -0.2845 -0.3987
  679MOL0     H91664   9.419   5.403  10.037  1.6557  1.8612  1.7524
  679MOL0     H91665   9.418   5.486   9.880 -2.4160  1.2077 -0.9178
  680MOL0     O91666   4.002   0.697   7.641 -0.0764 -0.4403 -0.2694
  680MOL0     C91667   3.907   0.650   7.706 -0.9343 -0.2659 -0.2800
  680MOL0     O91668   3.900   0.529   7.765  0.2161 -0.3591 -0.5229
  680MOL0     C91669   4.015   0.457   7.761 -0.4592  0.0787  0.5925
  680MOL0     C91670   4.025   0.334   7.696 -0.3049  0.7629  0.2529
  680MOL0     C91671   4.147   0.256   7.688  0.1401  0.0178  0.1291
  680MOL0     C91672   4.256   0.313   7.751 -0.1387  0.4642  0.3581
  680MOL0     O91673   4.369   0.234   7.740 -0.5014 -0.5326 -0.5944
  680MOL0     C91674   4.498   0.298   7.745  0.3665 -0.0503  0.2718
  680MOL0     C91675   4.611   0.200   7.725  1.6863  0.4947  0.4793
  680MOL0     C91676   4.733   0.262   7.662  0.1003  0.6474  0.8490
  680MOL0     C91677   4.802   0.160   7.584 -0.2721  0.6948 -0.4199
  680MOL0     C91678   4.932   0.221   7.538 -0.9145  0.3661  0.1112
  680MOL0     C91679   4.985   0.127   7.423  0.2104 -0.9689 -0.3793
  680MOL0     C91680   5.109   0.181   7.356  0.1475 -0.2073  0.1710
  680MOL0     C91681   5.180   0.084   7.257  0.1522 -0.6113  0.7687
  680MOL0     N91682   5.318   0.132   7.221 -0.4445  0.1245 -0.8409
  680MOL0     C91683   5.430   0.114   7.307  0.1158 -0.6386 -0.6869
  680MOL0     C91684   5.530   0.167   7.254 -0.2323 -0.4536  0.6457
  680MOL0     C91685   5.666   0.162   7.310 -1.0522 -0.3207  0.1605
  680MOL0     C91686   5.766   0.149   7.199 -0.2736 -0.8198  0.0895
  680MOL0     C91687   5.911   0.144   7.254  0.3005 -0.7132 -0.2331
  680MOL0     C91688   6.022   0.103   7.157 -0.3520 -0.3314 -0.2457
  680MOL0     O91689   6.026  -0.044   7.140 -0.1384 -0.3668 -0.2781
  680MOL0     C91690   6.131  -0.100   7.077 -0.6832 -0.4958  0.5422
  680MOL0     C91691   6.240  -0.024   7.023  0.1320  0.1558 -0.3887
  680MOL0     C91692   6.360  -0.089   6.982 -0.2430 -0.1192  0.3134
  680MOL0     C91693   6.357  -0.230   6.968 -0.1808 -0.0004  0.2288
  680MOL0     C91694   6.469  -0.298   6.907  0.8110 -0.3437 -0.3379
  680MOL0     O91695   6.580  -0.223   6.884 -0.1460 -0.7742  0.0747
  680MOL0     C91696   6.692  -0.287   6.842 -0.2685 -0.3100 -0.5984
  680MOL0     C91697   6.757  -0.383   6.926 -0.2833  0.1568  0.0905
  680MOL0     C91698   6.877  -0.437   6.900  0.2748 -0.0979  0.4297
  680MOL0     C91699   6.929  -0.415   6.770  0.7361  0.0275  0.2157
  680MOL0     O91700   7.048  -0.473   6.737 -0.6799 -0.3576 -0.6994
  680MOL0     C91701   7.058  -0.508   6.599 -0.3012 -0.7247  0.2315
  680MOL0     C91702   7.174  -0.602   6.582  0.4938 -0.6251 -0.2574
  680MOL0     C91703   7.307  -0.524   6.576  0.4957 -0.0521 -0.7300
  680MOL0     C91704   7.399  -0.601   6.473 -0.5906  0.5580 -0.5478
  680MOL0     C91705   7.553  -0.568   6.488  0.5018 -0.5720  0.1041
  680MOL0     C91706   7.644  -0.666   6.413  0.4452  0.3713  0.1851
  680MOL0     C91707   7.798  -0.628   6.431 -0.4071 -0.2731 -0.0445
  680MOL0     C91708   7.836  -0.534   6.325  0.6728 -0.0932  0.3872
  680MOL0    Cl91709   8.009  -0.511   6.348  0.3494 -0.0407 -0.2546
  680MOL0     C91710   6.872  -0.317   6.685  0.1709  0.2514  0.0441
  680MOL0     C91711   6.753  -0.263   6.722  0.2920  0.0234  0.8600
  680MOL0     O91712   6.460  -0.420   6.898 -0.5334  1.0966  0.1947
  680MOL0     C91713   6.239  -0.302   7.007  0.1800  0.8336  0.0754
  680MOL0     C91714   6.130  -0.238   7.054 -0.0183 -0.2491 -0.6825
  680MOL0     N91715   5.484   0.229   7.135 -0.4126 -0.4796  0.2713
  680MOL0     N91716   5.357   0.200   7.111 -0.1775 -0.2238  0.1043
  680MOL0     C91717   4.247   0.431   7.818  0.7428 -0.0868  0.8334
  680MOL0     C91718   4.123   0.503   7.826  0.1409  0.1149  1.1296
  680MOL0     C91719   3.786   0.726   7.729  0.5394  0.1631  0.5975
  680MOL0     C91720   3.655   0.663   7.756 -0.3675 -0.2926  0.0697
  680MOL0     C91721   3.545   0.738   7.783 -0.2887  0.2441  0.5043
  680MOL0     C91722   3.547   0.877   7.770  0.0575  0.1914 -0.3929
  680MOL0     O91723   3.449   0.962   7.777  0.1513  0.2325 -0.0742
  680MOL0     C91724   3.324   0.925   7.826  0.5855  0.2641  0.4062
  680MOL0     C91725   3.206   1.020   7.789 -1.0208 -0.4157 -0.5729
  680MOL0     C91726   3.120   0.959   7.678  0.2546  0.4931 -0.1784
  680MOL0     C91727   3.013   1.042   7.607  0.7687  0.0044 -0.9152
  680MOL0     C91728   3.065   1.133   7.506  0.5495  0.0611 -0.1756
  680MOL0     C91729   3.124   1.196   7.425 -0.9302 -0.3834  0.6323
  680MOL0     C91730   3.667   0.939   7.752 -0.0069 -0.3323 -0.1351
  680MOL0     C91731   3.788   0.867   7.720  0.3106 -0.2881  0.3058
  680MOL0     C91732   3.925   0.942   7.724  0.5348 -0.6219  0.1098
  680MOL0     H91733   3.933   0.316   7.642 -1.6684  3.1884  1.5979
  680MOL0     H91734   4.139   0.162   7.634 -2.0785 -0.2135  0.7640
  680MOL0     H91735   4.504   0.374   7.667 -3.4044  0.1475 -0.0522
  680MOL0     H91736   4.516   0.333   7.847  1.0322  0.9022 -0.1714
  680MOL0     H91737   4.577   0.120   7.658 -0.9364  2.7225 -1.0733
  680MOL0     H91738   4.640   0.143   7.813 -0.4006 -2.6113 -0.6651
  680MOL0     H91739   4.801   0.301   7.738  2.6444  1.1279 -1.4954
  680MOL0     H91740   4.722   0.348   7.596 -1.2817 -0.7063 -0.7956
  680MOL0     H91741   4.827   0.077   7.651  0.6474 -0.2382 -1.8483
  680MOL0     H91742   4.738   0.120   7.504  0.4837 -2.6777  0.5152
  680MOL0     H91743   4.921   0.325   7.505  1.5299  1.3649  2.1564
  680MOL0     H91744   5.002   0.213   7.621 -0.5801 -3.0038 -0.3904
  680MOL0     H91745   4.993   0.021   7.449 -1.3910 -1.4814 -1.7346
  680MOL0     H91746   4.917   0.123   7.337  0.1211  0.6038 -0.3980
  680MOL0     H91747   5.178   0.204   7.438 -1.4810 -0.6746  1.7547
  680MOL0     H91748   5.094   0.275   7.302 -2.3186 -1.2041 -1.0567
  680MOL0     H91749   5.186  -0.018   7.297 -1.5856 -0.8522  0.5091
  680MOL0     H91750   5.112   0.077   7.171 -0.8831  3.9529  0.9429
  680MOL0     H91751   5.439   0.055   7.397  2.3431 -0.9315 -1.0656
  680MOL0     H91752   5.671   0.248   7.378 -4.5331 -0.2087  0.4920
  680MOL0     H91753   5.678   0.078   7.380  0.5493  1.2949  1.9385
  680MOL0     H91754   5.743   0.052   7.153  0.6078 -0.4906 -1.1136
  680MOL0     H91755   5.742   0.213   7.113 -0.3075 -2.3500 -1.0904
  680MOL0     H91756   5.924   0.077   7.339 -2.6074  0.9982  1.7730
  680MOL0     H91757   5.925   0.249   7.282 -1.6315 -0.1575 -1.1591
  680MOL0     H91758   6.112   0.134   7.211  1.4495 -2.4270 -1.8911
  680MOL0     H91759   6.016   0.164   7.067 -0.9839  0.5574  0.3734
  680MOL0     H91760   6.255   0.081   7.046  0.2195  0.1102 -0.2349
  680MOL0     H91761   6.454  -0.038   6.963 -0.2819  0.1246  0.7695
  680MOL0     H91762   6.704  -0.408   7.017 -0.6137  0.3316 -0.0502
  680MOL0     H91763   6.925  -0.506   6.969  0.0870 -2.2110 -1.4485
  680MOL0     H91764   6.964  -0.545   6.556 -0.8289  1.3369 -0.4828
  680MOL0     H91765   7.071  -0.419   6.537 -1.4746 -0.7642 -0.0992
  680MOL0     H91766   7.169  -0.673   6.666  0.3843 -0.3015  0.0098
  680MOL0     H91767   7.150  -0.651   6.487 -2.2592 -0.2742  0.1648
  680MOL0     H91768   7.294  -0.419   6.548  0.0378  0.6408  1.8454
  680MOL0     H91769   7.361  -0.531   6.671 -0.5591  1.1049 -0.0261
  680MOL0     H91770   7.370  -0.590   6.368 -1.8334 -0.2845 -0.3223
  680MOL0     H91771   7.387  -0.710   6.467 -0.9240  0.6710 -2.2808
  680MOL0     H91772   7.583  -0.564   6.593  0.4764 -0.8830  0.1266
  680MOL0     H91773   7.575  -0.466   6.458 -3.2868  1.1975  2.5439
  680MOL0     H91774   7.629  -0.765   6.457 -0.7047  0.3147 -0.3184
  680MOL0     H91775   7.603  -0.668   6.312  1.2119  1.1263 -0.1532
  680MOL0     H91776   7.853  -0.722   6.425 -0.9588 -0.6429  0.5291
  680MOL0     H91777   7.797  -0.589   6.533 -0.9740  0.2586 -0.2468
  680MOL0     H91778   7.830  -0.578   6.225  0.5993 -0.3271  0.4933
  680MOL0     H91779   7.782  -0.438   6.323  0.9330  0.0445 -0.5015
  680MOL0     H91780   6.907  -0.285   6.587 -1.2440 -0.2005 -0.6481
  680MOL0     H91781   6.708  -0.202   6.644  2.4254  0.0254 -0.4491
  680MOL0     H91782   6.234  -0.411   7.004 -0.9256  0.8458  0.7229
  680MOL0     H91783   6.057  -0.303   7.100  0.5429 -0.3919  0.0223
  680MOL0     H91784   4.333   0.465   7.874  2.0005 -1.4530 -0.1635
  680MOL0     H91785   4.099   0.594   7.879 -1.8873  0.8314 -0.8422
  680MOL0     H91786   3.646   0.555   7.756  2.0693 -0.5567  0.4608
  680MOL0     H91787   3.453   0.679   7.789  0.6124 -1.2762 -0.0645
  680MOL0     H91788   3.342   0.915   7.934  2.6526  2.3917  0.3345
  680MOL0     H91789   3.292   0.831   7.781 -0.7411  0.4056  0.9958
  680MOL0     H91790   3.249   1.116   7.759 -3.0774  0.0001 -2.4788
  680MOL0     H91791   3.146   1.052   7.875 -2.3381  3.1677 -2.5675
  680MOL0     H91792   3.073   0.868   7.716  0.3143  0.0614 -1.1295
  680MOL0     H91793   3.185   0.925   7.598 -0.8971 -2.2364 -0.0510
  680MOL0     H91794   2.945   0.982   7.547  0.0470 -0.0230 -0.0849
  680MOL0     H91795   2.945   1.095   7.674 -1.1998 -3.3072 -0.0623
  680MOL0     H91796   3.179   1.251   7.351  0.4622 -0.8408  1.2917
  680MOL0     H91797   3.665   1.047   7.741  0.3398 -0.3246 -0.1416
  680MOL0     H91798   3.970   0.958   7.625 -3.2072  2.0547 -1.3692
  680MOL0     H91799   3.909   1.039   7.773  1.7081 -1.0334  1.3700
  680MOL0     H91800   3.993   0.887   7.790  1.4841  0.8672  0.4208
  681MOL0     O91801   6.194   6.388   4.262 -0.2073  0.1657 -0.0985
  681MOL0     C91802   6.126   6.475   4.213 -0.1861  0.0084  0.2642
  681MOL0     O91803   6.155   6.608   4.213  0.2592  0.3882  0.6430
  681MOL0     C91804   6.285   6.644   4.220 -0.4617 -0.5307 -0.4614
  681MOL0     C91805   6.312   6.774   4.254 -0.7722 -0.2968 -0.0058
  681MOL0     C91806   6.437   6.820   4.303  0.2702 -0.3633 -0.4160
  681MOL0     C91807   6.543   6.732   4.299  0.1082 -0.2716 -1.1161
  681MOL0     O91808   6.675   6.743   4.338  0.7128  0.5054  0.0454
  681MOL0     C91809   6.715   6.880   4.369  0.5231 -0.3261 -0.2696
  681MOL0     C91810   6.869   6.893   4.346  0.1728  1.0301 -0.1344
  681MOL0     C91811   6.952   6.849   4.471  0.4860  0.2206 -0.1732
  681MOL0     C91812   6.945   6.953   4.584 -0.8725  0.4198 -0.3772
  681MOL0     C91813   7.014   6.914   4.720  0.3933  1.2000 -0.2694
  681MOL0     C91814   7.164   6.891   4.683 -0.2339 -0.3872 -1.0439
  681MOL0     C91815   7.254   6.902   4.808  0.0369  0.1794 -0.2225
  681MOL0     C91816   7.400   6.933   4.762  0.3309  0.1794 -0.4430
  681MOL0     N91817   7.494   6.920   4.873 -0.1063  0.6541  0.1461
  681MOL0     C91818   7.532   6.798   4.924 -0.5359  0.0349 -0.3312
  681MOL0     C91819   7.654   6.803   4.979 -0.8825  0.2246  0.2888
  681MOL0     C91820   7.734   6.684   5.033 -0.4102 -0.1800  0.7058
  681MOL0     C91821   7.711   6.558   4.952  0.1641 -0.1572 -0.3755
  681MOL0     C91822   7.778   6.438   5.021 -0.7755 -0.7902 -0.3480
  681MOL0     C91823   7.907   6.461   5.110 -0.2927  0.5679  0.4851
  681MOL0     O91824   8.005   6.529   5.021 -0.1215 -0.0756  0.3333
  681MOL0     C91825   8.133   6.553   5.071  0.3914 -1.9836 -0.1281
  681MOL0     C91826   8.227   6.629   4.992  0.1860  0.3238 -0.0474
  681MOL0     C91827   8.354   6.670   5.036 -0.5100 -0.2271  0.7110
  681MOL0     C91828   8.391   6.615   5.161  0.0630 -0.6401 -0.8006
  681MOL0     C91829   8.523   6.650   5.230  0.0741 -0.4020  0.4068
  681MOL0     O91830   8.634   6.647   5.152  0.5370 -0.2202 -0.0680
  681MOL0     C91831   8.762   6.638   5.203  0.8069  0.5183 -0.0676
  681MOL0     C91832   8.797   6.606   5.334 -0.0136 -0.9933  0.1505
  681MOL0     C91833   8.935   6.599   5.373 -0.5134  0.0498  0.3863
  681MOL0     C91834   9.031   6.633   5.280  0.1017 -0.0545 -0.2010
  681MOL0     O91835   9.159   6.624   5.298 -0.2827 -0.1221  0.7181
  681MOL0     C91836   9.212   6.573   5.419 -0.5493  0.6054  0.2505
  681MOL0     C91837   9.361   6.573   5.428 -0.8359  0.3101  0.0213
  681MOL0     C91838   9.430   6.694   5.357 -0.1392 -0.3146 -0.2105
  681MOL0     C91839   9.581   6.706   5.398 -0.2602  0.1032  0.2062
  681MOL0     C91840   9.668   6.793   5.318  0.1041  0.0429 -0.4745
  681MOL0     C91841   9.809   6.801   5.378 -0.9466  0.7144  0.1210
  681MOL0     C91842   9.890   6.898   5.297 -0.1775 -0.2659  0.4423
  681MOL0     C91843  10.004   6.954   5.367  0.2087  0.6265 -0.3768
  681MOL0    Cl91844  10.150   6.871   5.303  0.0697 -0.8922  0.2633
  681MOL0     C91845   8.992   6.667   5.155 -0.2005 -0.9383  0.3651
  681MOL0     C91846   8.861   6.676   5.111  0.1396  0.1475 -0.3978
  681MOL0     O91847   8.519   6.678   5.353 -0.5429 -0.0510  0.2331
  681MOL0     C91848   8.293   6.544   5.236 -0.0625  0.0924 -0.0291
  681MOL0     C91849   8.171   6.523   5.195  0.2471 -0.3647 -0.2343
  681MOL0     N91850   7.694   6.937   4.957  0.6455  0.1553  0.3557
  681MOL0     N91851   7.596   6.999   4.893 -0.1190 -0.2662 -0.2625
  681MOL0     C91852   6.525   6.605   4.240  0.1768 -0.1650 -0.1078
  681MOL0     C91853   6.398   6.558   4.199 -0.3521  0.2644 -0.6970
  681MOL0     C91854   5.985   6.432   4.176  0.1978 -0.2556 -0.4162
  681MOL0     C91855   5.888   6.534   4.158 -0.4565  0.2080  0.3903
  681MOL0     C91856   5.753   6.503   4.146  0.6107  0.9193 -1.0987
  681MOL0     C91857   5.716   6.366   4.128 -0.1516  0.5788 -1.0084
  681MOL0     O91858   5.586   6.351   4.097 -0.6260 -0.2493  0.3832
  681MOL0     C91859   5.496   6.371   4.205  0.1220 -0.0220 -0.4118
  681MOL0     C91860   5.354   6.311   4.176 -0.0324 -0.1834  0.1895
  681MOL0     C91861   5.264   6.376   4.061  0.4035  0.0620 -0.4270
  681MOL0     C91862   5.152   6.280   4.011  0.0456 -0.6763  0.0614
  681MOL0     C91863   5.081   6.336   3.893  0.4833 -0.3546  1.1827
  681MOL0     C91864   5.031   6.393   3.800 -0.5811  0.0969  0.4671
  681MOL0     C91865   5.813   6.269   4.123  0.3145  0.4762 -0.0427
  681MOL0     C91866   5.945   6.292   4.146  0.4036 -0.0431 -0.1542
  681MOL0     C91867   6.043   6.187   4.141 -0.2921  0.7087  0.8483
  681MOL0     H91868   6.228   6.843   4.245 -1.6758 -1.4449 -0.8389
  681MOL0     H91869   6.450   6.923   4.333  0.9621  0.0674 -2.0925
  681MOL0     H91870   6.670   6.954   4.302 -2.9163  0.6015  2.7198
  681MOL0     H91871   6.684   6.883   4.474 -0.2070 -2.0455 -0.3959
  681MOL0     H91872   6.895   6.997   4.325 -4.7243  2.3241 -1.0561
  681MOL0     H91873   6.897   6.842   4.253 -1.4176  3.0092 -1.8065
  681MOL0     H91874   7.057   6.841   4.439  0.3729 -0.5400 -0.3668
  681MOL0     H91875   6.924   6.750   4.507  1.2860 -1.2510 -3.2983
  681MOL0     H91876   6.983   7.049   4.547 -2.3184  0.9885 -0.4230
  681MOL0     H91877   6.840   6.973   4.603 -0.4421  0.7038  2.0571
  681MOL0     H91878   7.011   6.995   4.794  3.6638  1.3175 -0.1132
  681MOL0     H91879   6.969   6.824   4.764 -1.7340  1.9441 -0.8096
  681MOL0     H91880   7.168   6.797   4.626 -0.9706 -2.0201  1.4651
  681MOL0     H91881   7.185   6.975   4.616 -1.9908  0.3907 -0.6832
  681MOL0     H91882   7.244   6.802   4.851 -2.1085 -1.8038 -4.6337
  681MOL0     H91883   7.219   6.978   4.878 -0.4811 -0.0338 -0.2469
  681MOL0     H91884   7.427   6.856   4.689  0.0964  0.5170 -0.8911
  681MOL0     H91885   7.412   7.033   4.719  1.7816 -0.1365 -0.8107
  681MOL0     H91886   7.470   6.709   4.913  0.2116 -0.6442  0.7772
  681MOL0     H91887   7.841   6.707   5.038 -0.1754 -1.2072  0.6801
  681MOL0     H91888   7.694   6.675   5.134 -1.7887 -1.4461  0.0849
  681MOL0     H91889   7.602   6.549   4.943  0.1089  2.3315 -4.4161
  681MOL0     H91890   7.747   6.575   4.851  0.4665  1.3841 -0.0296
  681MOL0     H91891   7.799   6.366   4.942  1.9955 -1.0091  0.4842
  681MOL0     H91892   7.703   6.393   5.086 -0.8441 -2.3180 -1.4363
  681MOL0     H91893   7.936   6.363   5.149 -0.8100  0.2710  0.1288
  681MOL0     H91894   7.881   6.516   5.201 -1.3656 -1.6526  1.5808
  681MOL0     H91895   8.195   6.658   4.892  0.5686  0.2996 -0.1781
  681MOL0     H91896   8.424   6.718   4.968  0.6129 -1.3469  1.0155
  681MOL0     H91897   8.730   6.579   5.415  1.4678 -0.3361  1.6663
  681MOL0     H91898   8.959   6.566   5.474 -1.2220 -2.1109 -0.1124
  681MOL0     H91899   9.188   6.636   5.505 -0.5753  0.6735  0.1932
  681MOL0     H91900   9.175   6.472   5.439  0.0486  0.3782  0.2388
  681MOL0     H91901   9.393   6.579   5.532  0.5384  3.7478 -0.4651
  681MOL0     H91902   9.403   6.478   5.393  1.4208  1.5962 -0.9725
  681MOL0     H91903   9.431   6.673   5.249 -0.5461  2.3737 -0.7959
  681MOL0     H91904   9.383   6.788   5.385  0.8229 -0.4937  2.2555
  681MOL0     H91905   9.618   6.605   5.380 -0.9817 -0.6260  2.5166
  681MOL0     H91906   9.587   6.725   5.506 -2.4903  1.4066  0.1604
  681MOL0     H91907   9.614   6.887   5.303 -1.9313 -1.2290 -1.5823
  681MOL0     H91908   9.675   6.750   5.218 -0.8059 -0.8488 -0.1681
  681MOL0     H91909   9.803   6.813   5.487 -3.5457  0.0289  0.1433
  681MOL0     H91910   9.870   6.710   5.368  1.9890  1.9363  4.2228
  681MOL0     H91911   9.821   6.977   5.263 -2.6904 -0.5953  4.1615
  681MOL0     H91912   9.928   6.843   5.211  2.1391 -0.8752  1.7980
  681MOL0     H91913  10.013   7.061   5.342 -0.8490  0.6652 -0.6103
  681MOL0     H91914  10.002   6.958   5.476 -2.8107  1.5604 -0.3826
  681MOL0     H91915   9.067   6.701   5.084 -0.7933  1.6954  0.9005
  681MOL0     H91916   8.834   6.725   5.018  2.1341 -0.2686 -1.2325
  681MOL0     H91917   8.323   6.514   5.336 -1.3937 -0.6194  0.1774
  681MOL0     H91918   8.093   6.488   5.262 -0.0488  2.6437  1.1063
  681MOL0     H91919   6.613   6.543   4.227  0.0325 -0.1991 -1.0149
  681MOL0     H91920   6.389   6.461   4.151 -0.5441 -1.0780  1.8562
  681MOL0     H91921   5.922   6.636   4.173 -1.2298  0.6047 -0.4377
  681MOL0     H91922   5.668   6.571   4.149  1.7836  2.4503 -1.0461
  681MOL0     H91923   5.486   6.475   4.237 -1.3176 -0.1063 -0.5028
  681MOL0     H91924   5.535   6.322   4.295  1.6717  3.3654  0.9271
  681MOL0     H91925   5.298   6.306   4.269  3.0263  0.4733  2.2150
  681MOL0     H91926   5.377   6.210   4.140  1.7142  0.1841  0.1763
  681MOL0     H91927   5.318   6.417   3.975 -0.8087 -2.7546 -2.6985
  681MOL0     H91928   5.214   6.457   4.116  0.6601 -1.0799  1.5902
  681MOL0     H91929   5.196   6.189   3.968 -0.5571 -1.2432  0.6254
  681MOL0     H91930   5.085   6.252   4.092 -1.7424  1.7654 -0.4539
  681MOL0     H91931   4.982   6.439   3.716  3.4179  3.1349 -0.5215
  681MOL0     H91932   5.787   6.173   4.082  2.0620 -0.2645  0.4896
  681MOL0     H91933   6.070   6.151   4.240  0.0971 -4.9527 -0.9445
  681MOL0     H91934   5.990   6.104   4.094 -0.8848  1.2847  0.4760
  681MOL0     H91935   6.139   6.216   4.096  0.3160 -2.5017 -0.2287
  682MOL0     O91936   8.601   6.015   3.858 -0.1848 -0.3855 -0.2837
  682MOL0     C91937   8.563   5.918   3.797 -0.5545  0.1485 -0.2374
  682MOL0     O91938   8.598   5.894   3.671  0.0799  0.0914  0.5413
  682MOL0     C91939   8.693   5.980   3.620 -0.2643 -0.5037  0.2036
  682MOL0     C91940   8.826   5.965   3.656 -0.9219 -0.5986 -1.2245
  682MOL0     C91941   8.923   6.052   3.616  0.5527 -0.1778  0.2696
  682MOL0     C91942   8.890   6.168   3.544 -0.3358  0.4920  0.1151
  682MOL0     O91943   8.985   6.249   3.490  0.0159 -0.8295  0.2168
  682MOL0     C91944   9.080   6.315   3.571  0.0656  0.2261  0.0527
  682MOL0     C91945   9.022   6.455   3.594  0.3127 -0.7259  0.0310
  682MOL0     C91946   9.126   6.541   3.675  0.4008 -0.2536 -0.1638
  682MOL0     C91947   9.164   6.660   3.581 -1.0665  0.1629 -0.3511
  682MOL0     C91948   9.259   6.754   3.658 -0.3926  0.3876 -0.6104
  682MOL0     C91949   9.317   6.855   3.560 -0.3170  0.3334  0.1455
  682MOL0     C91950   9.420   6.946   3.631  0.5178 -0.1638 -0.2447
  682MOL0     C91951   9.358   7.058   3.720  0.7077 -0.4995 -1.4225
  682MOL0     N91952   9.242   7.137   3.670  0.3531  0.5127 -0.8087
  682MOL0     C91953   9.105   7.098   3.670  0.9841  0.3669 -0.0438
  682MOL0     C91954   9.033   7.203   3.621 -0.3424  0.3354  0.2779
  682MOL0     C91955   8.892   7.211   3.585 -0.3621 -0.1947 -0.4524
  682MOL0     C91956   8.841   7.330   3.514 -0.9422  0.0288 -0.0578
  682MOL0     C91957   8.694   7.343   3.506  0.2726  0.0487 -0.5847
  682MOL0     C91958   8.621   7.212   3.488  0.6266 -0.2883  0.1157
  682MOL0     O91959   8.589   7.160   3.621 -0.4613  0.2609 -0.0758
  682MOL0     C91960   8.482   7.077   3.635  0.7097  0.4584 -0.5361
  682MOL0     C91961   8.397   7.098   3.743  0.0099 -0.6119 -0.0300
  682MOL0     C91962   8.283   7.020   3.764  0.1173  0.0255 -0.2759
  682MOL0     C91963   8.247   6.926   3.670  0.0964  0.6116  0.4172
  682MOL0     C91964   8.121   6.836   3.688 -0.7301 -0.1532  0.9795
  682MOL0     O91965   8.098   6.744   3.593 -0.0786 -0.1616 -0.2014
  682MOL0     C91966   8.007   6.642   3.631 -0.0800 -0.0775  1.0377
  682MOL0     C91967   7.937   6.569   3.522 -0.3399  0.6707 -0.6916
  682MOL0     C91968   7.871   6.453   3.550  0.3008  0.4940 -0.4163
  682MOL0     C91969   7.871   6.398   3.679  0.0735 -0.8481  0.6278
  682MOL0     O91970   7.816   6.280   3.716  0.3574 -0.0900 -0.0614
  682MOL0     C91971   7.693   6.253   3.655 -0.2275  0.0450  0.1144
  682MOL0     C91972   7.609   6.135   3.719 -0.3184  0.2086  0.2519
  682MOL0     C91973   7.568   6.160   3.871  0.0698 -0.2651  0.0304
  682MOL0     C91974   7.471   6.051   3.921 -0.1399  0.1146  0.0318
  682MOL0     C91975   7.424   6.090   4.058  0.1513  0.2490 -0.0620
  682MOL0     C91976   7.298   6.007   4.100 -0.0613 -0.7308  0.2230
  682MOL0     C91977   7.261   6.006   4.253 -0.8005  0.0835 -0.1400
  682MOL0     C91978   7.124   5.925   4.284  0.4183  0.4574  0.0421
  682MOL0    Cl91979   7.078   5.950   4.449  0.0390 -0.0057  0.2435
  682MOL0     C91980   7.944   6.466   3.779  0.4703  0.1079  0.3923
  682MOL0     C91981   8.005   6.591   3.760 -0.1264  0.0359  0.1162
  682MOL0     O91982   8.042   6.872   3.772 -0.7472 -0.6217  0.0145
  682MOL0     C91983   8.327   6.907   3.556 -0.1063  0.7700 -0.2490
  682MOL0     C91984   8.444   6.978   3.539  0.5771 -0.8908  0.5342
  682MOL0     N91985   9.128   7.295   3.580  1.0737  0.2065 -0.3906
  682MOL0     N91986   9.253   7.252   3.606 -0.3616 -0.3546 -0.4758
  682MOL0     C91987   8.759   6.202   3.519 -0.2930  0.4516  1.0204
  682MOL0     C91988   8.662   6.100   3.546  0.9330  0.8762 -0.5875
  682MOL0     C91989   8.467   5.817   3.853  0.4462 -0.2135 -0.7750
  682MOL0     C91990   8.417   5.719   3.771  0.1365  0.5463  0.2909
  682MOL0     C91991   8.310   5.634   3.807  0.7167 -0.0099 -0.5250
  682MOL0     C91992   8.254   5.645   3.933  0.3869  0.5834 -0.6959
  682MOL0     O91993   8.151   5.562   3.962  0.2860  0.3118  0.4420
  682MOL0     C91994   8.047   5.614   4.043 -0.6092  0.3645 -0.4458
  682MOL0     C91995   7.945   5.504   4.056  0.7943  0.6707 -0.8111
  682MOL0     C91996   7.863   5.489   4.192 -0.0017 -0.4256  0.2715
  682MOL0     C91997   7.784   5.356   4.201  0.5295 -0.5914  0.7373
  682MOL0     C91998   7.664   5.364   4.120  0.0658  0.3685 -0.8584
  682MOL0     C91999   7.577   5.385   4.041  0.0749  0.7298 -0.2060
  682MOL0     C92000   8.312   5.743   4.020  0.4432 -0.5118  0.3786
  682MOL0     C92001   8.415   5.834   3.990  0.0863 -0.1487 -0.4145
  682MOL0     C92002   8.455   5.929   4.101 -0.5439  0.1946 -0.0572
  682MOL0     H92003   8.853   5.882   3.721 -2.2172  0.2733  0.4999
  682MOL0     H92004   9.029   6.044   3.637  0.6269 -1.4207 -0.4860
  682MOL0     H92005   9.083   6.260   3.665 -2.6511 -1.7804 -0.8967
  682MOL0     H92006   9.176   6.322   3.518 -0.0033  0.2666 -0.0681
  682MOL0     H92007   8.923   6.446   3.638 -0.3954 -0.0045 -1.3380
  682MOL0     H92008   9.001   6.500   3.497  2.9670 -0.8924 -0.7049
  682MOL0     H92009   9.213   6.479   3.696  0.3179 -0.7243 -1.1228
  682MOL0     H92010   9.085   6.579   3.769  0.5314 -0.6637  0.0599
  682MOL0     H92011   9.223   6.629   3.494  1.0376  2.0340  0.3043
  682MOL0     H92012   9.075   6.711   3.542  0.7366  1.2752 -3.3813
  682MOL0     H92013   9.204   6.804   3.738 -0.2510 -0.5856  0.1155
  682MOL0     H92014   9.342   6.697   3.700  0.1067  0.5315 -1.3638
  682MOL0     H92015   9.378   6.786   3.500  0.7836 -1.1434  2.8133
  682MOL0     H92016   9.244   6.909   3.499  0.5960  1.3669 -0.0713
  682MOL0     H92017   9.483   6.992   3.555 -3.7885  0.4913 -3.8681
  682MOL0     H92018   9.481   6.879   3.691 -1.1351 -0.7891  0.8231
  682MOL0     H92019   9.332   7.017   3.817  0.0218 -0.4822 -1.5935
  682MOL0     H92020   9.434   7.136   3.733 -1.0264  1.1123 -0.3740
  682MOL0     H92021   9.077   6.998   3.702  0.1975  0.6440  0.1585
  682MOL0     H92022   8.882   7.129   3.512  0.8045 -2.1833  1.4968
  682MOL0     H92023   8.829   7.186   3.671 -1.9589  2.5296 -0.7046
  682MOL0     H92024   8.877   7.427   3.550 -2.3124  1.6330 -2.6160
  682MOL0     H92025   8.867   7.323   3.408 -2.1661 -1.4693 -0.2949
  682MOL0     H92026   8.669   7.412   3.425 -2.3842 -2.1187 -1.7646
  682MOL0     H92027   8.657   7.394   3.595 -1.3167 -2.3396  0.2254
  682MOL0     H92028   8.666   7.130   3.430  2.1523  1.4670 -1.3358
  682MOL0     H92029   8.534   7.233   3.425  0.8675 -1.6475 -0.7241
  682MOL0     H92030   8.434   7.172   3.813  0.9507 -1.1891  0.1016
  682MOL0     H92031   8.227   7.049   3.852 -1.3857  0.0828 -1.2214
  682MOL0     H92032   7.936   6.625   3.429  2.3883  2.4142  0.1882
  682MOL0     H92033   7.808   6.406   3.475 -0.4528 -0.1118  0.5722
  682MOL0     H92034   7.632   6.343   3.651  0.4921  0.5000 -1.1998
  682MOL0     H92035   7.698   6.217   3.552 -0.0420 -2.6196  0.9641
  682MOL0     H92036   7.515   6.134   3.663 -1.1139  3.0851  1.3582
  682MOL0     H92037   7.662   6.040   3.710  0.7559  0.5662  2.2269
  682MOL0     H92038   7.653   6.165   3.939 -1.6215 -1.3618  2.3467
  682MOL0     H92039   7.523   6.260   3.878 -1.0808 -0.8595  1.6188
  682MOL0     H92040   7.517   5.952   3.924  0.3180  0.3432  1.1210
  682MOL0     H92041   7.379   6.032   3.865 -1.2830 -0.8454  2.1106
  682MOL0     H92042   7.411   6.199   4.055 -0.9488  0.1151 -2.2425
  682MOL0     H92043   7.501   6.074   4.134  1.4912  1.2617 -1.1745
  682MOL0     H92044   7.224   6.069   4.049  0.6922 -0.6035 -0.7346
  682MOL0     H92045   7.305   5.908   4.053 -0.9017 -0.8844  0.4078
  682MOL0     H92046   7.263   6.104   4.301  2.3944 -0.5782  1.3589
  682MOL0     H92047   7.344   5.959   4.306 -1.4126  0.6499  1.3658
  682MOL0     H92048   7.040   5.949   4.217  2.0117  1.6045 -1.6441
  682MOL0     H92049   7.137   5.819   4.263 -0.4619 -0.0169  1.6891
  682MOL0     H92050   7.949   6.411   3.872 -2.7236 -0.4367  0.3422
  682MOL0     H92051   8.048   6.651   3.839 -0.8763  0.4034  0.2516
  682MOL0     H92052   8.317   6.829   3.480  2.6993  2.3770 -2.4961
  682MOL0     H92053   8.517   6.967   3.460  0.3810  1.1516  0.0198
  682MOL0     H92054   8.738   6.294   3.465  0.5153 -0.3390 -0.7072
  682MOL0     H92055   8.557   6.117   3.523 -0.7049 -1.5748  3.7907
  682MOL0     H92056   8.467   5.699   3.677  1.8166 -0.1478  1.2859
  682MOL0     H92057   8.265   5.569   3.733  0.4511  0.3195 -0.6556
  682MOL0     H92058   8.003   5.706   4.003 -0.1130  1.6140  1.7369
  682MOL0     H92059   8.079   5.625   4.146 -3.9091 -2.0646  1.0358
  682MOL0     H92060   7.985   5.405   4.033 -0.4495  0.7116 -3.4919
  682MOL0     H92061   7.873   5.517   3.974 -0.2552  0.4291  0.0517
  682MOL0     H92062   7.795   5.575   4.199 -1.0194 -0.9126 -2.5067
  682MOL0     H92063   7.936   5.483   4.274 -0.0369  2.0806  0.5622
  682MOL0     H92064   7.839   5.265   4.175  0.1947 -0.6366  0.1585
  682MOL0     H92065   7.757   5.343   4.306  3.5659 -0.5394  1.6311
  682MOL0     H92066   7.493   5.384   3.975 -0.8678  1.7604  0.9444
  682MOL0     H92067   8.269   5.743   4.120 -1.2795 -3.0491 -0.2529
  682MOL0     H92068   8.415   6.027   4.070  0.6098 -0.1208 -2.9001
  682MOL0     H92069   8.408   5.904   4.196 -2.7016  2.3541 -0.4603
  682MOL0     H92070   8.563   5.928   4.113 -0.3516  2.2228 -1.0961
  683MOL0     O92071   7.191  11.029   4.169 -0.7430 -0.2225 -0.5392
  683MOL0     C92072   7.247  11.074   4.073  0.3553 -0.3416 -0.1819
  683MOL0     O92073   7.377  11.077   4.050  0.3647  0.3811 -0.0565
  683MOL0     C92074   7.462  11.013   4.130 -0.3744 -0.1100  0.0244
  683MOL0     C92075   7.453  10.880   4.163 -1.0746 -0.3955 -0.0030
  683MOL0     C92076   7.563  10.821   4.228  0.2552  0.5332 -0.0902
  683MOL0     C92077   7.677  10.887   4.277  0.1488  0.2903  0.2833
  683MOL0     O92078   7.758  10.802   4.351  0.1330  0.2503  0.3337
  683MOL0     C92079   7.845  10.862   4.443  0.1670 -0.7391  0.4904
  683MOL0     C92080   7.808  10.815   4.580 -0.1108 -0.5822 -0.3117
  683MOL0     C92081   7.678  10.871   4.635 -0.0428  0.6304  0.0907
  683MOL0     C92082   7.662  10.832   4.781 -0.3739 -0.4385  0.1630
  683MOL0     C92083   7.535  10.867   4.854 -0.2241 -0.2668 -0.1809
  683MOL0     C92084   7.421  10.770   4.816 -0.3087 -0.0079 -0.4020
  683MOL0     C92085   7.305  10.848   4.892  0.1064  1.0780  0.3453
  683MOL0     C92086   7.175  10.764   4.886  0.1461 -0.2053 -0.0103
  683MOL0     N92087   7.065  10.811   4.969  0.1874 -0.2844  0.0719
  683MOL0     C92088   6.981  10.910   4.927  0.4050 -0.4220 -0.4934
  683MOL0     C92089   6.889  10.926   5.028 -0.4418  0.0099 -1.0244
  683MOL0     C92090   6.793  11.042   5.054 -0.9260 -0.0164 -0.3652
  683MOL0     C92091   6.647  10.995   5.074 -0.5516 -0.2042 -0.1564
  683MOL0     C92092   6.599  10.890   4.971  0.6465 -0.8633  0.2320
  683MOL0     C92093   6.501  10.797   5.028  0.2750  0.7753  0.1706
  683MOL0     O92094   6.427  10.731   4.928  0.1213 -0.4706  0.0297
  683MOL0     C92095   6.497  10.658   4.835  0.9094  0.7715 -0.5209
  683MOL0     C92096   6.561  10.537   4.851  0.5905  0.7914 -0.7102
  683MOL0     C92097   6.602  10.461   4.743  1.1053 -0.6128 -0.2845
  683MOL0     C92098   6.600  10.516   4.615  0.1951  0.3934  0.2394
  683MOL0     C92099   6.660  10.456   4.497  0.3443 -0.5018 -0.4116
  683MOL0     O92100   6.733  10.349   4.528 -0.2617  0.3722 -0.3958
  683MOL0     C92101   6.774  10.254   4.432 -0.0687  0.2665  0.5306
  683MOL0     C92102   6.897  10.193   4.457  0.0598  0.0840 -0.4290
  683MOL0     C92103   6.949  10.087   4.378  0.3409 -0.6149 -0.5858
  683MOL0     C92104   6.882  10.044   4.272  0.6957  0.1894 -0.2553
  683MOL0     O92105   6.938   9.940   4.200 -0.0518  1.0608  0.2874
  683MOL0     C92106   6.855   9.863   4.111 -0.1009  1.4410  0.9755
  683MOL0     C92107   6.957   9.755   4.059 -0.2010 -0.8332  0.2916
  683MOL0     C92108   6.878   9.656   3.975 -0.4207  0.0833 -1.1828
  683MOL0     C92109   6.961   9.526   3.952  0.1181 -0.1101 -0.5822
  683MOL0     C92110   6.896   9.442   3.836  0.7476  0.3757  0.0845
  683MOL0     C92111   6.768   9.372   3.885 -0.5404 -0.2489  0.2129
  683MOL0     C92112   6.799   9.242   3.961  0.0790  0.2319  0.4832
  683MOL0     C92113   6.677   9.170   4.007 -0.1744 -0.0459  0.1355
  683MOL0    Cl92114   6.569   9.128   3.869 -0.1571 -0.0209  0.1095
  683MOL0     C92115   6.757  10.117   4.231  0.1219  0.3125 -0.0665
  683MOL0     C92116   6.708  10.212   4.321  1.0687 -0.5912  0.6748
  683MOL0     O92117   6.629  10.497   4.386  0.6628  0.6040 -0.5141
  683MOL0     C92118   6.546  10.645   4.595 -1.2458  0.1210  0.4118
  683MOL0     C92119   6.495  10.716   4.708  0.1919  0.4422 -0.4697
  683MOL0     N92120   6.919  10.827   5.124 -0.0304 -0.6234  0.0603
  683MOL0     N92121   7.014  10.757   5.075  0.0802 -0.0859 -0.2544
  683MOL0     C92122   7.683  11.028   4.253  0.0333  0.3757  0.2714
  683MOL0     C92123   7.576  11.089   4.180  0.0448  0.0856  0.2464
  683MOL0     C92124   7.154  11.111   3.962  1.0809 -0.0881  0.2464
  683MOL0     C92125   7.210  11.124   3.834  0.1491 -0.0156 -0.1286
  683MOL0     C92126   7.128  11.139   3.723 -1.6720  0.1618 -0.8398
  683MOL0     C92127   6.995  11.147   3.728 -1.0955 -0.4159 -0.2870
  683MOL0     O92128   6.918  11.174   3.618  0.5230  0.3430 -0.5651
  683MOL0     C92129   6.969  11.131   3.490  0.1772  0.1295 -1.1218
  683MOL0     C92130   6.858  11.101   3.395  0.2058  0.3816  0.9315
  683MOL0     C92131   6.755  11.003   3.463  0.0194 -0.0125  0.8899
  683MOL0     C92132   6.650  10.956   3.355  0.2182 -0.4730 -0.0262
  683MOL0     C92133   6.545  10.884   3.414 -1.2371  0.3770 -0.3209
  683MOL0     C92134   6.461  10.815   3.465  0.3111 -0.3367 -0.1282
  683MOL0     C92135   6.940  11.141   3.854 -0.5377 -0.2584  0.6902
  683MOL0     C92136   7.014  11.133   3.971 -0.0475  1.3131 -1.3007
  683MOL0     C92137   6.933  11.142   4.098 -0.1729 -0.8131  0.0231
  683MOL0     H92138   7.364  10.831   4.125 -0.6771 -0.4376 -0.9102
  683MOL0     H92139   7.560  10.713   4.235 -2.4462  0.4920 -0.7136
  683MOL0     H92140   7.948  10.832   4.421 -0.4372 -1.5616 -1.4492
  683MOL0     H92141   7.839  10.971   4.440 -2.1258 -0.7177  2.8258
  683MOL0     H92142   7.883  10.860   4.645 -2.4151  0.7826  1.5705
  683MOL0     H92143   7.803  10.706   4.577 -1.2788 -0.5373 -0.9516
  683MOL0     H92144   7.593  10.832   4.578  2.4308 -3.4892 -1.2083
  683MOL0     H92145   7.682  10.981   4.633 -2.3529  0.7758 -2.3535
  683MOL0     H92146   7.688  10.727   4.798 -0.0136 -0.6453 -1.4929
  683MOL0     H92147   7.739  10.889   4.834 -3.0984  1.0648  2.8546
  683MOL0     H92148   7.547  10.868   4.962 -1.6221  2.0173  0.0308
  683MOL0     H92149   7.508  10.971   4.836  2.1148  0.5915  0.9163
  683MOL0     H92150   7.411  10.777   4.707 -0.3729 -3.9165 -0.7741
  683MOL0     H92151   7.433  10.666   4.846 -0.2914 -0.0489 -0.5479
  683MOL0     H92152   7.287  10.953   4.866  2.4225  1.2553 -0.7063
  683MOL0     H92153   7.332  10.849   4.998  0.3786  1.9781  0.2801
  683MOL0     H92154   7.150  10.772   4.780 -1.1312 -0.8375  0.2358
  683MOL0     H92155   7.194  10.659   4.906 -4.3746 -1.4960 -1.3511
  683MOL0     H92156   6.992  10.990   4.854 -1.6153 -0.9568 -1.4500
  683MOL0     H92157   6.822  11.111   5.133  0.1362  0.0558 -0.8039
  683MOL0     H92158   6.790  11.104   4.965 -1.9006 -0.0385 -0.3555
  683MOL0     H92159   6.633  10.957   5.175  0.1132  0.2931  0.1293
  683MOL0     H92160   6.577  11.074   5.042  0.1719 -0.6497 -3.1715
  683MOL0     H92161   6.677  10.829   4.924  2.1347 -0.5498  2.1513
  683MOL0     H92162   6.550  10.945   4.890  1.1149  0.8267  1.0446
  683MOL0     H92163   6.423  10.852   5.082 -0.3475  0.2709 -0.1920
  683MOL0     H92164   6.545  10.728   5.100  1.7568  1.3216 -0.1736
  683MOL0     H92165   6.582  10.497   4.950 -2.8856 -4.0779 -1.5606
  683MOL0     H92166   6.642  10.363   4.768  0.1167 -0.9395  0.0462
  683MOL0     H92167   6.952  10.226   4.544  0.3912  0.3794 -0.7480
  683MOL0     H92168   7.048  10.050   4.402  1.0000  1.5052  0.1553
  683MOL0     H92169   6.769   9.817   4.162  0.0565 -0.7326 -0.5697
  683MOL0     H92170   6.818   9.915   4.022 -1.7553 -1.1143  0.0400
  683MOL0     H92171   7.039   9.799   4.001  0.6634  0.8615  2.6542
  683MOL0     H92172   7.003   9.705   4.144  2.7136  1.4675  0.2414
  683MOL0     H92173   6.791   9.624   4.033  1.7597 -2.7234  0.8294
  683MOL0     H92174   6.855   9.710   3.883  2.9016  1.3952 -1.3717
  683MOL0     H92175   6.964   9.466   4.043 -0.1069 -0.1994 -0.6324
  683MOL0     H92176   7.065   9.554   3.932  0.9653 -1.8310  1.1806
  683MOL0     H92177   6.965   9.365   3.800  0.1867  0.2884 -0.8392
  683MOL0     H92178   6.860   9.501   3.751 -2.3548 -2.9039 -1.1727
  683MOL0     H92179   6.703   9.436   3.945 -2.1026  1.0136 -2.6551
  683MOL0     H92180   6.715   9.338   3.796 -1.1929  0.6149  0.2569
  683MOL0     H92181   6.862   9.255   4.050 -0.0324 -2.2772  1.0098
  683MOL0     H92182   6.857   9.176   3.897 -0.0221  0.4410  0.1768
  683MOL0     H92183   6.708   9.073   4.048  2.6000 -0.5657 -2.8146
  683MOL0     H92184   6.622   9.227   4.083 -0.9679 -0.5053 -0.0796
  683MOL0     H92185   6.702  10.086   4.142 -1.0203 -0.0435  0.7470
  683MOL0     H92186   6.611  10.260   4.308  2.5763  2.4668 -0.4193
  683MOL0     H92187   6.557  10.688   4.495  1.6339  2.5914  1.6176
  683MOL0     H92188   6.446  10.813   4.694  0.5606  0.4252 -2.0993
  683MOL0     H92189   7.766  11.088   4.290 -1.3964  1.4928  1.8492
  683MOL0     H92190   7.575  11.197   4.168  4.2708  0.3470  0.8164
  683MOL0     H92191   7.317  11.121   3.814 -0.0752  2.9337 -2.4396
  683MOL0     H92192   7.177  11.165   3.630  2.1543  1.4748  1.3183
  683MOL0     H92193   7.021  11.039   3.520 -3.2236 -1.8407 -0.8493
  683MOL0     H92194   7.038  11.209   3.455 -0.2467  2.0097  1.8319
  683MOL0     H92195   6.895  11.055   3.303  0.4532  2.3220  0.0076
  683MOL0     H92196   6.811  11.195   3.365 -0.7469 -0.0626  1.0041
  683MOL0     H92197   6.706  11.040   3.554  0.1497 -0.9938  1.3707
  683MOL0     H92198   6.810  10.915   3.496  1.1720 -0.0663 -1.0340
  683MOL0     H92199   6.605  11.039   3.299  0.2957 -0.0122  0.5898
  683MOL0     H92200   6.710  10.902   3.281 -0.2567  0.4069 -1.0891
  683MOL0     H92201   6.390  10.746   3.507 -0.0763 -0.4122 -0.8977
  683MOL0     H92202   6.832  11.145   3.852 -0.6561  0.2840  3.5593
  683MOL0     H92203   6.961  11.237   4.145  0.3188 -0.2475 -1.3553
  683MOL0     H92204   6.828  11.155   4.071 -0.1703  3.4142  1.3984
  683MOL0     H92205   6.954  11.052   4.157 -0.1519  0.4504  2.0340
  684MOL0     O92206   1.610   3.868   3.796  0.1095  0.4741 -0.1120
  684MOL0     C92207   1.609   3.766   3.727 -0.8655  0.9834  0.7077
  684MOL0     O92208   1.652   3.643   3.767  0.4877  0.1290 -0.0851
  684MOL0     C92209   1.729   3.642   3.883  0.2136  1.1594  0.7441
  684MOL0     C92210   1.664   3.670   4.001 -1.3418  0.7998 -0.3637
  684MOL0     C92211   1.730   3.687   4.121 -0.4333  0.2484 -0.0132
  684MOL0     C92212   1.865   3.656   4.128  0.0743 -0.6830 -0.0599
  684MOL0     O92213   1.942   3.681   4.247 -0.3443 -0.6755 -0.0573
  684MOL0     C92214   1.920   3.808   4.316  0.7312  0.8427 -0.3876
  684MOL0     C92215   1.957   3.932   4.235  0.9386 -0.2975 -0.3196
  684MOL0     C92216   1.992   4.045   4.334 -0.3056 -1.0973  0.5789
  684MOL0     C92217   2.088   4.151   4.266 -0.1049 -0.3887  0.0856
  684MOL0     C92218   2.084   4.279   4.360 -0.3746  0.0388  0.4116
  684MOL0     C92219   2.161   4.395   4.289 -0.0966 -0.1425 -0.6677
  684MOL0     C92220   2.153   4.508   4.396  0.5500 -0.0812 -0.2083
  684MOL0     C92221   2.210   4.642   4.354  0.3550  0.0020  0.6084
  684MOL0     N92222   2.355   4.639   4.308 -0.1806 -0.1084 -0.4546
  684MOL0     C92223   2.461   4.614   4.389  0.2469  0.9692 -0.2348
  684MOL0     C92224   2.579   4.627   4.318 -0.4916 -0.6238  0.3978
  684MOL0     C92225   2.724   4.634   4.371 -0.6825 -0.7472  0.9880
  684MOL0     C92226   2.816   4.686   4.266  0.1568  0.4614  0.3801
  684MOL0     C92227   2.948   4.709   4.332  0.0249  0.0578  0.4993
  684MOL0     C92228   3.035   4.762   4.221 -0.3253  0.6277 -0.0029
  684MOL0     O92229   3.167   4.757   4.283  0.5187 -0.1006  0.0847
  684MOL0     C92230   3.280   4.808   4.216 -0.5517 -0.3428 -0.7109
  684MOL0     C92231   3.268   4.894   4.104 -0.4555 -0.2154  0.0909
  684MOL0     C92232   3.385   4.948   4.049 -0.3984 -0.3243 -0.2617
  684MOL0     C92233   3.519   4.923   4.095  0.5462 -0.1685 -0.4854
  684MOL0     C92234   3.644   4.993   4.047  0.1767 -0.1112 -0.2161
  684MOL0     O92235   3.756   4.974   4.119 -0.6593  0.5875  0.0735
  684MOL0     C92236   3.876   5.026   4.073 -0.2109 -0.1525  0.2993
  684MOL0     C92237   3.925   4.990   3.951 -0.3651  0.1294  0.0300
  684MOL0     C92238   4.064   5.021   3.918 -0.0756  0.2417 -0.3779
  684MOL0     C92239   4.131   5.116   3.995  0.6237 -0.2030 -0.2278
  684MOL0     O92240   4.258   5.155   3.953  0.4270 -0.0471  0.6180
  684MOL0     C92241   4.358   5.059   3.993  0.6868 -0.6294 -0.1699
  684MOL0     C92242   4.428   5.099   4.126  0.6750  1.0173  0.8141
  684MOL0     C92243   4.478   5.245   4.130  0.3218  0.6831  0.1157
  684MOL0     C92244   4.603   5.266   4.037 -0.2494 -0.4080 -0.1761
  684MOL0     C92245   4.640   5.416   4.045  0.0836 -0.3927  0.5958
  684MOL0     C92246   4.740   5.441   3.925  0.3986 -0.2662 -0.1496
  684MOL0     C92247   4.773   5.587   3.900 -0.4251  0.4780 -0.7150
  684MOL0     C92248   4.861   5.607   3.774 -0.2869 -0.4325  0.1090
  684MOL0    Cl92249   5.020   5.541   3.822  0.3317 -0.2059  0.3969
  684MOL0     C92250   4.069   5.175   4.107  0.4716 -0.3513 -0.4233
  684MOL0     C92251   3.948   5.117   4.149  0.3775 -0.2862  0.4209
  684MOL0     O92252   3.639   5.070   3.954 -0.2772  0.0188 -0.4527
  684MOL0     C92253   3.522   4.840   4.207 -0.3341 -0.0556  0.1350
  684MOL0     C92254   3.403   4.791   4.274  0.2594 -0.7871  0.6206
  684MOL0     N92255   2.533   4.649   4.185  0.4089 -0.4673 -0.6874
  684MOL0     N92256   2.401   4.653   4.184 -0.5084  0.3170  0.8402
  684MOL0     C92257   1.940   3.621   4.013  1.0377 -1.1439  0.0771
  684MOL0     C92258   1.871   3.623   3.886 -0.8470  0.4331  0.0667
  684MOL0     C92259   1.558   3.767   3.593 -0.1254 -0.1678  0.4212
  684MOL0     C92260   1.524   3.646   3.534  0.5468  0.1129  1.0048
  684MOL0     C92261   1.490   3.643   3.401  0.3396  0.2220  0.4127
  684MOL0     C92262   1.494   3.755   3.319  0.4683  0.0972 -0.2586
  684MOL0     O92263   1.473   3.746   3.179 -0.5445  0.7809  0.3699
  684MOL0     C92264   1.413   3.846   3.100 -0.7246 -0.5679  0.1688
  684MOL0     C92265   1.269   3.887   3.132 -0.6089 -0.2464 -0.5151
  684MOL0     C92266   1.227   4.006   3.043  0.0158 -1.0516 -0.2531
  684MOL0     C92267   1.067   4.028   3.042  0.1657  0.6186 -0.5616
  684MOL0     C92268   1.003   3.914   2.977  0.2297 -0.0434  0.1381
  684MOL0     C92269   0.964   3.815   2.928  0.1259  0.8615 -0.2498
  684MOL0     C92270   1.498   3.875   3.388  0.2879 -0.9995  0.2321
  684MOL0     C92271   1.541   3.888   3.518 -0.1857 -0.1256  0.2122
  684MOL0     C92272   1.587   4.019   3.561  0.0979  0.9293 -0.9727
  684MOL0     H92273   1.556   3.682   4.000 -1.3095  1.3476  0.7817
  684MOL0     H92274   1.674   3.715   4.210 -0.5851 -0.1845  0.0303
  684MOL0     H92275   1.818   3.834   4.346 -0.2064 -0.9522 -1.7714
  684MOL0     H92276   1.981   3.797   4.406 -1.4167 -0.6411  0.9717
  684MOL0     H92277   1.873   3.959   4.170  0.7514  2.1382  0.8389
  684MOL0     H92278   2.044   3.903   4.175 -0.5496 -0.5434 -2.4789
  684MOL0     H92279   2.036   4.008   4.427  0.6043 -0.6642  0.3321
  684MOL0     H92280   1.902   4.098   4.366  0.5567  3.0500 -2.9115
  684MOL0     H92281   2.194   4.125   4.273  0.5459  2.3529  2.8176
  684MOL0     H92282   2.068   4.174   4.161 -0.6651  2.0963  0.6742
  684MOL0     H92283   1.982   4.308   4.387 -0.6251 -1.4834  1.2145
  684MOL0     H92284   2.135   4.273   4.457 -0.4378  0.7867  0.4999
  684MOL0     H92285   2.262   4.357   4.278  0.3689  0.8021  0.1261
  684MOL0     H92286   2.114   4.419   4.193 -5.0439  0.1660  1.4985
  684MOL0     H92287   2.197   4.478   4.492  1.6477  1.1185 -0.3110
  684MOL0     H92288   2.047   4.533   4.396 -0.1986 -2.8138 -1.7912
  684MOL0     H92289   2.139   4.687   4.284  2.9124  3.3681 -0.1224
  684MOL0     H92290   2.211   4.706   4.443  0.2823  1.1431 -0.1816
  684MOL0     H92291   2.455   4.590   4.494  0.0223  3.8903  0.5155
  684MOL0     H92292   2.726   4.706   4.453 -0.9780  2.7242 -1.8258
  684MOL0     H92293   2.763   4.540   4.411 -0.7812  0.2750  3.6539
  684MOL0     H92294   2.832   4.608   4.191  3.4398  1.8575 -0.5432
  684MOL0     H92295   2.776   4.772   4.211  1.1911 -1.3653 -3.6630
  684MOL0     H92296   2.989   4.616   4.373  0.3309 -0.3477 -0.7028
  684MOL0     H92297   2.942   4.782   4.414  0.3769 -0.0457  0.6194
  684MOL0     H92298   3.014   4.860   4.178  2.2225  1.1282 -0.2317
  684MOL0     H92299   3.053   4.688   4.142 -0.1088  1.6169 -0.8970
  684MOL0     H92300   3.179   4.940   4.062 -2.0709  0.4656  3.8899
  684MOL0     H92301   3.387   5.027   3.975  0.5502 -1.1011 -1.0909
  684MOL0     H92302   3.862   4.928   3.888  0.6681 -0.6632 -0.2412
  684MOL0     H92303   4.114   4.969   3.837 -0.2545 -2.6018  1.1952
  684MOL0     H92304   4.315   4.960   4.010 -2.8746  1.0773  2.1542
  684MOL0     H92305   4.432   5.059   3.913  1.9502 -1.1519  0.9595
  684MOL0     H92306   4.370   5.078   4.217 -0.3696 -1.8547 -0.4003
  684MOL0     H92307   4.513   5.031   4.139  0.7563  1.1650  1.0682
  684MOL0     H92308   4.403   5.316   4.094  1.4936  0.8813 -2.1496
  684MOL0     H92309   4.495   5.281   4.232 -1.6650 -2.1361  1.5649
  684MOL0     H92310   4.581   5.251   3.931 -1.4262  0.7612 -0.1150
  684MOL0     H92311   4.696   5.209   4.053  0.3610  0.9131  1.2608
  684MOL0     H92312   4.688   5.438   4.141  1.3741 -2.7268  0.5518
  684MOL0     H92313   4.552   5.480   4.029  0.5629 -0.1554 -1.3781
  684MOL0     H92314   4.834   5.388   3.947  0.5195  0.9380  2.6687
  684MOL0     H92315   4.697   5.404   3.832  0.8016  0.3150 -0.5754
  684MOL0     H92316   4.832   5.627   3.983  1.2138 -2.0732 -0.5422
  684MOL0     H92317   4.682   5.648   3.888 -0.3325  0.6628 -0.4805
  684MOL0     H92318   4.819   5.556   3.688 -1.2943  2.6615 -1.3544
  684MOL0     H92319   4.872   5.709   3.735  0.9586 -0.4552  0.3438
  684MOL0     H92320   4.120   5.252   4.164 -1.7029  0.5567  0.4192
  684MOL0     H92321   3.897   5.148   4.239  0.5841  3.0888 -0.5004
  684MOL0     H92322   3.617   4.812   4.253 -1.1092  1.1540  2.6558
  684MOL0     H92323   3.401   4.739   4.369 -1.9870 -2.2252 -0.1101
  684MOL0     H92324   2.048   3.609   4.007  0.8285 -2.9875 -0.7229
  684MOL0     H92325   1.922   3.620   3.790 -0.9107  1.1880  0.0050
  684MOL0     H92326   1.540   3.552   3.587 -1.9547 -0.4111  0.9252
  684MOL0     H92327   1.460   3.548   3.357 -1.6414  0.6802  0.6867
  684MOL0     H92328   1.397   3.810   2.998  0.0878 -1.6822  0.4057
  684MOL0     H92329   1.480   3.928   3.073 -1.4847 -0.8725 -2.9723
  684MOL0     H92330   1.262   3.918   3.236  0.1099  2.7129 -1.2735
  684MOL0     H92331   1.194   3.807   3.121 -3.8858  1.9586  3.1855
  684MOL0     H92332   1.250   3.991   2.937  1.7242 -1.2384  0.1101
  684MOL0     H92333   1.270   4.095   3.091  0.5636 -1.4290 -0.0383
  684MOL0     H92334   1.021   4.029   3.141 -0.5589 -0.6639 -0.8628
  684MOL0     H92335   1.041   4.122   2.992 -1.7490  2.1426  2.9295
  684MOL0     H92336   0.927   3.721   2.893 -1.6438  1.6567 -0.6403
  684MOL0     H92337   1.483   3.963   3.326  1.4692 -3.0663 -3.2507
  684MOL0     H92338   1.598   4.090   3.478 -3.6852  3.2180  0.2675
  684MOL0     H92339   1.526   4.056   3.644  0.3612 -4.3128  1.9983
  684MOL0     H92340   1.693   4.005   3.583  0.3610  1.2324 -1.9782
  685MOL0     O92341   9.990   0.248   5.726  0.6665  0.6903  0.5099
  685MOL0     C92342  10.007   0.325   5.815 -0.2056  0.6724  0.2021
  685MOL0     O92343   9.908   0.384   5.888 -0.4751  0.1994 -1.0063
  685MOL0     C92344   9.775   0.341   5.881 -0.6631 -1.0759 -0.1307
  685MOL0     C92345   9.722   0.212   5.854 -0.5723 -0.3736 -0.1930
  685MOL0     C92346   9.589   0.190   5.830  0.1334  0.8472 -0.1590
  685MOL0     C92347   9.494   0.283   5.850  0.6359 -0.5209 -0.4928
  685MOL0     O92348   9.357   0.250   5.851 -0.9540 -0.3652  0.5056
  685MOL0     C92349   9.273   0.348   5.791  0.5140 -1.2035  0.6605
  685MOL0     C92350   9.153   0.275   5.726 -0.4171 -0.0169 -0.2216
  685MOL0     C92351   9.051   0.360   5.653 -0.1016  0.2623  0.4015
  685MOL0     C92352   8.923   0.278   5.630  0.2230  0.3401 -0.7448
  685MOL0     C92353   8.816   0.346   5.539 -0.3792 -0.0119 -0.3519
  685MOL0     C92354   8.788   0.285   5.403  0.5848 -0.2314  0.2886
  685MOL0     C92355   8.913   0.245   5.327  0.3177 -0.4056  0.0359
  685MOL0     C92356   8.884   0.233   5.179 -0.3571 -0.4315  0.3828
  685MOL0     N92357   8.986   0.143   5.100 -0.4966  0.0986  1.0150
  685MOL0     C92358   8.942   0.065   4.999 -0.7311  1.2367  0.3793
  685MOL0     C92359   9.045  -0.023   4.980  0.9344 -0.4504  0.1455
  685MOL0     C92360   9.046  -0.147   4.895 -0.0986  0.4770 -0.0784
  685MOL0     C92361   8.923  -0.194   4.825 -0.7288 -0.5394 -0.0540
  685MOL0     C92362   8.951  -0.312   4.723  0.4354  0.1495  0.0480
  685MOL0     C92363   8.809  -0.356   4.679 -0.4974  0.0439 -0.5785
  685MOL0     O92364   8.812  -0.453   4.569  0.5342 -0.3781  0.3260
  685MOL0     C92365   8.690  -0.504   4.523  0.5781 -0.1119 -0.0979
  685MOL0     C92366   8.684  -0.602   4.418 -0.1669 -0.2086  0.4618
  685MOL0     C92367   8.559  -0.647   4.372 -0.0395  0.5611  0.1198
  685MOL0     C92368   8.438  -0.605   4.425 -0.1426 -0.2735 -1.1745
  685MOL0     C92369   8.307  -0.638   4.371 -0.8844  0.8057  0.1976
  685MOL0     O92370   8.307  -0.695   4.243  0.6946  0.5272 -0.6474
  685MOL0     C92371   8.190  -0.732   4.179 -0.3355 -0.1117  0.4803
  685MOL0     C92372   8.200  -0.756   4.041 -0.2325 -0.3494  0.5921
  685MOL0     C92373   8.092  -0.794   3.970  0.6881 -0.0942  0.4407
  685MOL0     C92374   7.962  -0.810   4.025  0.2357 -0.3353  0.6123
  685MOL0     O92375   7.851  -0.831   3.948  0.0678 -0.4334 -0.9125
  685MOL0     C92376   7.725  -0.776   3.990 -0.6029 -0.2017  0.3619
  685MOL0     C92377   7.611  -0.792   3.887 -0.2547 -0.1060 -0.0314
  685MOL0     C92378   7.499  -0.695   3.910  0.3505 -0.2524 -0.1589
  685MOL0     C92379   7.403  -0.699   3.794 -0.3476 -0.4405 -0.0553
  685MOL0     C92380   7.264  -0.647   3.832  0.2182 -0.3803  0.2155
  685MOL0     C92381   7.159  -0.651   3.718  0.7608 -0.2586 -0.5922
  685MOL0     C92382   7.089  -0.790   3.712 -0.4035  0.3026 -0.3702
  685MOL0     C92383   6.953  -0.758   3.644  0.2022 -0.4611  0.5898
  685MOL0    Cl92384   6.976  -0.722   3.460  0.3651  0.2652  0.1631
  685MOL0     C92385   7.960  -0.808   4.166  0.7489 -0.1073 -0.2764
  685MOL0     C92386   8.070  -0.780   4.241 -0.2697 -0.0748 -0.9223
  685MOL0     O92387   8.209  -0.616   4.436  0.8590 -0.3109  0.2275
  685MOL0     C92388   8.446  -0.521   4.537 -0.3914 -0.0589 -0.5207
  685MOL0     C92389   8.571  -0.473   4.580  0.1985 -0.7834  0.0602
  685MOL0     N92390   9.149   0.015   5.062  0.4969  0.1962 -0.3284
  685MOL0     N92391   9.111   0.105   5.139  0.1421 -0.4234 -0.0388
  685MOL0     C92392   9.539   0.411   5.879 -0.2306  0.1221  1.3176
  685MOL0     C92393   9.674   0.430   5.899  0.1662  0.0334  0.3787
  685MOL0     C92394  10.146   0.356   5.856  0.3706  0.4838 -0.0917
  685MOL0     C92395  10.160   0.473   5.939  0.1419 -0.1055  0.6027
  685MOL0     C92396  10.288   0.519   5.975  0.1835  0.2053 -0.0436
  685MOL0     C92397  10.404   0.449   5.928  0.2134  0.0326 -0.4147
  685MOL0     O92398  10.524   0.484   5.976  0.2622 -0.4676  1.3263
  685MOL0     C92399  10.650   0.458   5.898  1.2537  0.7632 -0.0556
  685MOL0     C92400  10.710   0.325   5.946  0.2045 -0.1339  0.2499
  685MOL0     C92401  10.859   0.305   5.891  0.0593  0.7828  1.0010
  685MOL0     C92402  10.949   0.428   5.878 -0.0239  0.0128  0.5672
  685MOL0     C92403  11.088   0.416   5.826 -0.6404  1.1150  0.8276
  685MOL0     C92404  11.200   0.419   5.777  0.1613  0.6815 -0.3319
  685MOL0     C92405  10.391   0.345   5.837 -0.2498 -0.0253  0.1878
  685MOL0     C92406  10.263   0.292   5.811 -0.9215  0.1632 -0.1663
  685MOL0     C92407  10.258   0.161   5.738 -0.0868 -0.0023 -0.1567
  685MOL0     H92408   9.779   0.124   5.827  0.9304  1.0579 -1.9110
  685MOL0     H92409   9.562   0.091   5.794 -0.7211  1.0394 -0.0605
  685MOL0     H92410   9.225   0.415   5.864 -0.7136 -0.5649 -0.6851
  685MOL0     H92411   9.324   0.404   5.712 -3.3938  0.8461 -0.6904
  685MOL0     H92412   9.109   0.213   5.805  2.0714 -1.5110  0.1033
  685MOL0     H92413   9.190   0.199   5.657  1.8036  1.8701 -1.2619
  685MOL0     H92414   9.085   0.397   5.556  0.4418 -1.1851  0.0133
  685MOL0     H92415   9.026   0.445   5.716 -0.0246 -0.0541  0.8711
  685MOL0     H92416   8.956   0.176   5.606  0.1056 -0.8101  3.3006
  685MOL0     H92417   8.868   0.268   5.724  2.2954 -0.7762  0.4398
  685MOL0     H92418   8.724   0.342   5.599 -0.3410  0.5416 -0.2436
  685MOL0     H92419   8.818   0.455   5.527 -3.7707  0.1468 -0.3500
  685MOL0     H92420   8.725   0.198   5.425  0.7077 -0.1080  1.1983
  685MOL0     H92421   8.727   0.352   5.341 -1.3058 -1.6705  0.4943
  685MOL0     H92422   8.952   0.156   5.377  0.4900 -0.3606 -0.0174
  685MOL0     H92423   8.969   0.338   5.343 -1.8347  0.8670  0.6491
  685MOL0     H92424   8.779   0.207   5.169 -0.8713  0.9314  1.8384
  685MOL0     H92425   8.886   0.334   5.136 -0.7597 -0.2981  0.6756
  685MOL0     H92426   8.845   0.077   4.950 -0.9407  2.3106  1.0439
  685MOL0     H92427   9.111  -0.111   4.816 -0.9817 -0.3539 -1.2166
  685MOL0     H92428   9.093  -0.232   4.946  0.7024  1.8742  1.6162
  685MOL0     H92429   8.851  -0.224   4.901 -2.3732  1.3374 -0.8024
  685MOL0     H92430   8.881  -0.110   4.769  0.2911  0.4523  0.6122
  685MOL0     H92431   9.011  -0.394   4.765  3.1452  1.4862 -0.9677
  685MOL0     H92432   9.013  -0.265   4.646 -0.0146  1.0520  0.2234
  685MOL0     H92433   8.760  -0.262   4.651  0.9864  1.2680  0.7569
  685MOL0     H92434   8.752  -0.400   4.761 -3.1192 -0.3975 -2.5068
  685MOL0     H92435   8.778  -0.626   4.370 -0.2272 -0.4181  0.4480
  685MOL0     H92436   8.562  -0.723   4.295 -1.1757 -0.5958  1.1814
  685MOL0     H92437   8.296  -0.732   3.997 -1.0382  2.6958  0.2324
  685MOL0     H92438   8.092  -0.818   3.864  0.5701  0.8823  0.2158
  685MOL0     H92439   7.690  -0.820   4.084 -0.0043 -1.9555 -0.1876
  685MOL0     H92440   7.744  -0.669   4.004  0.1944 -0.3098  0.1938
  685MOL0     H92441   7.649  -0.756   3.791 -2.6157 -1.1406 -1.4362
  685MOL0     H92442   7.586  -0.899   3.888  0.2477 -0.2389 -0.8193
  685MOL0     H92443   7.450  -0.707   4.007  0.4179 -1.2857 -0.2360
  685MOL0     H92444   7.546  -0.598   3.922  0.0113  0.0601 -1.2548
  685MOL0     H92445   7.403  -0.803   3.760  2.5523  0.2593 -2.6301
  685MOL0     H92446   7.431  -0.648   3.702 -2.0560 -4.0496 -2.8415
  685MOL0     H92447   7.294  -0.547   3.863  4.2024 -1.7361  1.2748
  685MOL0     H92448   7.217  -0.682   3.925  0.9896  0.9570  1.1394
  685MOL0     H92449   7.088  -0.570   3.735 -2.3073 -2.4211 -2.0665
  685MOL0     H92450   7.205  -0.618   3.625  0.1812  0.7207 -0.5426
  685MOL0     H92451   7.073  -0.831   3.812 -1.7278  1.2993 -0.1509
  685MOL0     H92452   7.153  -0.853   3.649 -1.4815  1.3315 -2.6172
  685MOL0     H92453   6.887  -0.844   3.654 -0.8023  0.5007  2.9704
  685MOL0     H92454   6.907  -0.670   3.692 -0.9492 -0.6179 -0.1721
  685MOL0     H92455   7.860  -0.834   4.200  0.3791 -1.2693 -2.1025
  685MOL0     H92456   8.059  -0.788   4.349  0.2707 -0.4199 -0.8891
  685MOL0     H92457   8.353  -0.490   4.584  2.0101  3.6746  2.3139
  685MOL0     H92458   8.569  -0.395   4.655 -0.6047  0.6981 -1.4501
  685MOL0     H92459   9.477   0.499   5.887 -1.2899 -0.3618 -0.7866
  685MOL0     H92460   9.713   0.531   5.897  0.6887 -0.1513  1.0159
  685MOL0     H92461  10.075   0.533   5.970 -1.3755 -0.0411 -3.1692
  685MOL0     H92462  10.294   0.599   6.048 -0.8177 -1.0522  1.4685
  685MOL0     H92463  10.725   0.534   5.923  1.6149  0.0751  0.9871
  685MOL0     H92464  10.634   0.464   5.789  2.7583 -0.6114 -0.3900
  685MOL0     H92465  10.647   0.238   5.926  0.8572 -0.2108 -1.6914
  685MOL0     H92466  10.710   0.332   6.055  0.8991  2.8940  0.1568
  685MOL0     H92467  10.847   0.258   5.793 -1.3005  0.0640  1.4917
  685MOL0     H92468  10.908   0.224   5.946  0.5621  0.2753 -0.1691
  685MOL0     H92469  10.895   0.502   5.819 -0.0402 -0.2158  0.2893
  685MOL0     H92470  10.958   0.486   5.970 -1.5877  0.0698  0.6968
  685MOL0     H92471  11.299   0.438   5.743  0.1771  2.2048  0.4627
  685MOL0     H92472  10.476   0.301   5.788 -0.2484 -0.8286  0.8878
  685MOL0     H92473  10.244   0.184   5.632 -2.7780 -0.9030 -0.0686
  685MOL0     H92474  10.336   0.095   5.777 -0.1938  0.5689  1.0516
  685MOL0     H92475  10.172   0.102   5.771 -0.6431 -0.8235 -2.8341
  686MOL0     O92476  10.364   6.843   7.660 -0.7799 -1.1641  0.8240
  686MOL0     C92477  10.341   6.748   7.584  0.1655  0.9854  0.8118
  686MOL0     O92478  10.436   6.688   7.502 -0.0863  0.2577 -0.2289
  686MOL0     C92479  10.568   6.724   7.514  1.1281  0.4718  0.6126
  686MOL0     C92480  10.658   6.615   7.500  1.0337  0.7781 -0.2428
  686MOL0     C92481  10.795   6.639   7.512 -0.6307 -0.1654  0.0248
  686MOL0     C92482  10.847   6.759   7.528  0.2836 -0.5508 -0.1871
  686MOL0     O92483  10.981   6.772   7.538  0.4299  0.4614 -0.4418
  686MOL0     C92484  11.023   6.856   7.636 -0.4754 -0.3070  0.4623
  686MOL0     C92485  11.134   6.800   7.726  0.2174 -0.9152  0.0811
  686MOL0     C92486  11.273   6.795   7.663 -0.5485 -0.8450 -0.0431
  686MOL0     C92487  11.378   6.747   7.763 -1.0584  0.4456 -0.1554
  686MOL0     C92488  11.512   6.825   7.749  0.3259 -0.5606  0.4191
  686MOL0     C92489  11.603   6.775   7.640 -0.5231 -0.8188  0.5561
  686MOL0     C92490  11.742   6.845   7.638  0.6331  0.0074  0.2741
  686MOL0     C92491  11.735   6.993   7.643 -0.5715  0.1788 -0.0424
  686MOL0     N92492  11.847   7.061   7.575  0.7023 -0.6400 -0.9141
  686MOL0     C92493  11.889   7.057   7.444  0.4177 -0.4189  0.7603
  686MOL0     C92494  12.006   7.123   7.430 -0.5241 -0.6757 -0.7352
  686MOL0     C92495  12.065   7.149   7.296 -0.4922 -0.7087 -0.5487
  686MOL0     C92496  12.197   7.240   7.323  0.2496  0.3537  0.2268
  686MOL0     C92497  12.274   7.250   7.188  0.2420  0.3471 -0.1237
  686MOL0     C92498  12.411   7.318   7.210  0.7957  0.0798 -0.4446
  686MOL0     O92499  12.390   7.463   7.236 -0.0019 -0.3938 -0.6434
  686MOL0     C92500  12.513   7.521   7.265 -0.1239 -0.4036  0.5480
  686MOL0     C92501  12.646   7.464   7.267  0.9547  0.0539  0.2255
  686MOL0     C92502  12.758   7.533   7.296  0.9214 -0.6381 -0.8329
  686MOL0     C92503  12.752   7.677   7.316 -1.0122 -0.9160  0.0593
  686MOL0     C92504  12.876   7.758   7.303 -0.2860 -0.0208 -0.0819
  686MOL0     O92505  12.994   7.685   7.297 -0.1501 -0.3292  0.4332
  686MOL0     C92506  13.117   7.733   7.300 -0.1465  0.2009 -0.4397
  686MOL0     C92507  13.151   7.863   7.267  0.4547  0.1722  0.1699
  686MOL0     C92508  13.267   7.919   7.302  0.1961 -0.7587 -0.7094
  686MOL0     C92509  13.369   7.845   7.361  0.7492  0.6911 -0.2887
  686MOL0     O92510  13.484   7.893   7.404  0.5648 -0.9358  0.3604
  686MOL0     C92511  13.535   8.005   7.326  0.2673  0.5240 -0.8175
  686MOL0     C92512  13.674   7.974   7.299  0.7414 -1.0109 -0.5722
  686MOL0     C92513  13.745   8.107   7.251 -0.0153  0.2452 -0.2445
  686MOL0     C92514  13.892   8.081   7.223 -0.7801  0.3072  1.1291
  686MOL0     C92515  13.971   8.202   7.167 -0.1858  0.5915 -0.0555
  686MOL0     C92516  14.121   8.177   7.163  0.8732 -0.0040 -0.0283
  686MOL0     C92517  14.189   8.290   7.103  0.2551 -0.2134  0.8094
  686MOL0     C92518  14.343   8.277   7.105 -0.1290 -0.4359  0.1376
  686MOL0    Cl92519  14.397   8.347   7.256 -0.2078 -0.3569 -0.3054
  686MOL0     C92520  13.352   7.707   7.382  0.7242 -0.2763 -0.3453
  686MOL0     C92521  13.225   7.651   7.349  0.7269 -0.4845 -0.6034
  686MOL0     O92522  12.863   7.880   7.305 -0.4814  0.1403  0.1964
  686MOL0     C92523  12.626   7.737   7.300 -0.4291 -0.2394  0.0026
  686MOL0     C92524  12.511   7.658   7.280 -0.2970  0.4740  0.4259
  686MOL0     N92525  12.032   7.167   7.562 -0.1765  0.0786  0.3676
  686MOL0     N92526  11.939   7.132   7.647 -0.9439 -0.3015 -0.0457
  686MOL0     C92527  10.755   6.872   7.543 -1.0153 -0.0018  0.1464
  686MOL0     C92528  10.620   6.853   7.533 -0.3920  0.0313  0.2171
  686MOL0     C92529  10.201   6.721   7.556  0.5571 -0.1204 -0.0091
  686MOL0     C92530  10.170   6.654   7.435  0.0501  0.1947 -0.9078
  686MOL0     C92531  10.042   6.638   7.399  0.0507  0.3020 -0.2157
  686MOL0     C92532   9.935   6.688   7.469  0.2333 -0.3709 -1.2856
  686MOL0     O92533   9.811   6.658   7.422 -0.3429 -0.8054  0.8871
  686MOL0     C92534   9.706   6.672   7.515  0.6649 -1.3994  0.6343
  686MOL0     C92535   9.580   6.624   7.440  0.6842 -0.1721 -0.7318
  686MOL0     C92536   9.595   6.476   7.414 -0.2777  0.5105 -0.4372
  686MOL0     C92537   9.471   6.394   7.366 -0.0531  0.1509  0.2249
  686MOL0     C92538   9.354   6.466   7.319  0.8717  0.7289  0.8014
  686MOL0     C92539   9.243   6.511   7.280 -0.2921  0.3224  0.2264
  686MOL0     C92540   9.959   6.772   7.579 -0.2646 -0.1625 -0.2020
  686MOL0     C92541  10.096   6.773   7.633  0.5168 -0.1524  0.4386
  686MOL0     C92542  10.103   6.842   7.764 -0.9738  0.6862  0.2500
  686MOL0     H92543  10.630   6.512   7.479  1.2632  0.5621  0.4997
  686MOL0     H92544  10.865   6.557   7.500 -1.5999 -0.9919 -0.1168
  686MOL0     H92545  11.063   6.944   7.584  2.1244 -1.3870  0.4858
  686MOL0     H92546  10.945   6.886   7.707  0.3388  2.5913  0.2346
  686MOL0     H92547  11.100   6.703   7.765  0.5132 -0.4047  1.6922
  686MOL0     H92548  11.138   6.858   7.818 -1.0887  0.0304 -0.4364
  686MOL0     H92549  11.300   6.898   7.635 -1.0857 -0.1180  1.9527
  686MOL0     H92550  11.269   6.732   7.574  0.3957  1.0859 -1.5293
  686MOL0     H92551  11.353   6.781   7.863  1.4105 -0.9570  1.0413
  686MOL0     H92552  11.395   6.639   7.760  2.9996  0.9165  0.0695
  686MOL0     H92553  11.486   6.930   7.731 -0.0188 -0.4620  1.4056
  686MOL0     H92554  11.566   6.826   7.844 -2.8521  0.6237  2.3722
  686MOL0     H92555  11.619   6.669   7.659  1.3428 -0.2477  2.5569
  686MOL0     H92556  11.563   6.793   7.540  0.4517 -1.4489  0.0424
  686MOL0     H92557  11.794   6.793   7.557 -2.5753 -5.2762  1.0610
  686MOL0     H92558  11.794   6.806   7.727  0.7899 -0.5414 -0.0496
  686MOL0     H92559  11.640   7.040   7.616 -0.2993  0.5982 -0.2847
  686MOL0     H92560  11.741   7.038   7.743 -0.3608  2.0124 -0.8248
  686MOL0     H92561  11.840   7.006   7.362 -0.3542 -1.6226  1.9355
  686MOL0     H92562  12.094   7.054   7.250  0.8419 -2.0469  2.6861
  686MOL0     H92563  11.997   7.202   7.229  1.8145  1.4004 -1.3648
  686MOL0     H92564  12.156   7.339   7.344  0.7340  0.1974  2.0743
  686MOL0     H92565  12.255   7.204   7.409 -1.2980 -1.4278  0.5852
  686MOL0     H92566  12.213   7.298   7.111  0.4719 -1.9256 -1.8210
  686MOL0     H92567  12.299   7.147   7.160 -3.2469 -1.0165  1.2266
  686MOL0     H92568  12.472   7.314   7.119 -0.0385  1.1607 -1.0898
  686MOL0     H92569  12.472   7.273   7.289  2.4716  0.9514 -1.2006
  686MOL0     H92570  12.657   7.356   7.260  0.6468 -0.1459  2.3384
  686MOL0     H92571  12.846   7.469   7.297 -0.5772 -2.9368 -3.0940
  686MOL0     H92572  13.079   7.931   7.222  1.0403  2.1244  2.0600
  686MOL0     H92573  13.268   8.025   7.278 -1.2639 -0.5990 -0.1775
  686MOL0     H92574  13.487   8.008   7.228  1.0169  1.1327 -1.1756
  686MOL0     H92575  13.527   8.100   7.380  3.1074 -0.5272  1.7995
  686MOL0     H92576  13.724   7.934   7.388 -1.4936 -1.5602  0.5120
  686MOL0     H92577  13.675   7.898   7.221  2.2753 -0.4499 -1.1491
  686MOL0     H92578  13.693   8.141   7.161 -1.0421 -0.0519  0.2284
  686MOL0     H92579  13.736   8.178   7.334 -0.6185 -0.6442  0.4636
  686MOL0     H92580  13.904   7.997   7.154  0.6866  0.7756  0.7644
  686MOL0     H92581  13.940   8.062   7.320 -0.1345 -0.0499  0.7453
  686MOL0     H92582  13.960   8.294   7.225 -4.3765  0.8943 -0.9827
  686MOL0     H92583  13.934   8.221   7.066 -1.4899  1.2702  0.5193
  686MOL0     H92584  14.149   8.167   7.268 -1.7590 -1.3011  0.6158
  686MOL0     H92585  14.152   8.081   7.120 -0.9811 -0.2871 -0.8171
  686MOL0     H92586  14.161   8.386   7.148 -0.8641 -0.8608  1.5363
  686MOL0     H92587  14.155   8.298   6.999 -1.0348  3.5512  1.3665
  686MOL0     H92588  14.374   8.174   7.087  0.7458  0.3388 -3.7661
  686MOL0     H92589  14.390   8.331   7.022 -1.1133 -1.1012 -0.8826
  686MOL0     H92590  13.425   7.648   7.437 -1.2902 -0.7667  1.9755
  686MOL0     H92591  13.209   7.551   7.387 -0.8219  0.1986  0.6741
  686MOL0     H92592  12.621   7.845   7.312  3.6835 -0.2046  4.1187
  686MOL0     H92593  12.418   7.711   7.264 -0.4394 -0.3304 -1.7483
  686MOL0     H92594  10.786   6.975   7.560 -0.5090 -0.0980 -0.1469
  686MOL0     H92595  10.549   6.934   7.548 -0.7369 -0.0602 -0.8339
  686MOL0     H92596  10.244   6.598   7.378  1.3105 -1.9965  2.4888
  686MOL0     H92597  10.010   6.577   7.315  0.4219 -0.0608 -0.0939
  686MOL0     H92598   9.690   6.777   7.543 -1.6435 -1.2751 -0.8906
  686MOL0     H92599   9.726   6.619   7.609 -0.0837  2.1945  3.0499
  686MOL0     H92600   9.572   6.676   7.344 -1.7029  0.9606 -0.0062
  686MOL0     H92601   9.492   6.642   7.503 -0.1216  1.3495 -2.2178
  686MOL0     H92602   9.626   6.425   7.505 -2.7912 -0.4276 -0.0075
  686MOL0     H92603   9.677   6.459   7.344 -2.3903  0.4875 -3.0902
  686MOL0     H92604   9.498   6.332   7.281  4.3909 -0.2909  1.7113
  686MOL0     H92605   9.447   6.333   7.454  0.0535 -0.7114 -0.3344
  686MOL0     H92606   9.145   6.545   7.253 -0.3542 -1.4658 -2.0715
  686MOL0     H92607   9.877   6.824   7.627  1.7979  2.0322  1.2526
  686MOL0     H92608  10.005   6.843   7.812  0.2650 -0.0385  3.0680
  686MOL0     H92609  10.173   6.780   7.822 -0.9029 -0.9495 -1.4923
  686MOL0     H92610  10.132   6.944   7.740 -4.3928  0.8506 -4.5842
  687MOL0     O92611   0.346   6.507   2.684 -0.1736  0.0207  0.2369
  687MOL0     C92612   0.267   6.426   2.639 -0.6124 -0.0950 -0.1872
  687MOL0     O92613   0.301   6.306   2.586  0.0170 -0.3370  0.3653
  687MOL0     C92614   0.433   6.281   2.539  0.5545 -0.6603  0.2246
  687MOL0     C92615   0.482   6.326   2.420 -0.7355 -1.3928  0.1654
  687MOL0     C92616   0.614   6.301   2.379  0.2802 -0.0975 -0.4199
  687MOL0     C92617   0.699   6.214   2.453 -0.2494 -0.0246  0.0762
  687MOL0     O92618   0.824   6.206   2.400 -0.4648  0.4101 -0.2675
  687MOL0     C92619   0.931   6.133   2.471  0.9567  0.2272  0.9588
  687MOL0     C92620   1.017   6.082   2.361 -0.3314  0.1128  0.1746
  687MOL0     C92621   1.151   6.020   2.422 -0.2084 -0.2496 -0.5371
  687MOL0     C92622   1.243   5.953   2.314 -0.0181  0.7142 -0.0951
  687MOL0     C92623   1.383   5.923   2.377  0.6814 -0.2966  0.4006
  687MOL0     C92624   1.487   5.867   2.286  0.1662  0.9371 -0.1325
  687MOL0     C92625   1.442   5.752   2.198  0.2308 -0.2417  0.1450
  687MOL0     C92626   1.551   5.650   2.164  0.7593 -0.2703  0.5129
  687MOL0     N92627   1.679   5.697   2.112 -0.2113 -0.8664  0.1740
  687MOL0     C92628   1.802   5.631   2.108  0.4717 -0.5005  0.0260
  687MOL0     C92629   1.887   5.707   2.040 -0.0567  0.3098 -0.4728
  687MOL0     C92630   2.031   5.675   2.024  0.1568  0.1979 -0.4668
  687MOL0     C92631   2.107   5.681   2.155 -0.4866  1.0767 -0.2856
  687MOL0     C92632   2.232   5.597   2.139 -0.7600  0.2190  0.2382
  687MOL0     C92633   2.340   5.633   2.244 -0.3703  0.2699 -0.6302
  687MOL0     O92634   2.444   5.530   2.236 -0.5405  0.1357  0.3929
  687MOL0     C92635   2.572   5.540   2.297 -0.3999 -0.5352 -0.9425
  687MOL0     C92636   2.633   5.664   2.330 -0.3626 -0.7570 -0.0046
  687MOL0     C92637   2.760   5.674   2.393  0.4994  0.2759 -0.2475
  687MOL0     C92638   2.833   5.555   2.422  0.8876 -0.6315  1.6858
  687MOL0     C92639   2.967   5.566   2.479 -1.0842  0.0647 -0.4109
  687MOL0     O92640   3.020   5.449   2.520 -0.0709  0.8860 -0.1344
  687MOL0     C92641   3.155   5.449   2.553 -0.1825  1.2392 -0.2314
  687MOL0     C92642   3.252   5.488   2.464 -0.3830 -1.2582  0.0242
  687MOL0     C92643   3.397   5.483   2.494  1.3967  0.3948 -0.1992
  687MOL0     C92644   3.437   5.428   2.620  0.2011  0.3651  1.0718
  687MOL0     O92645   3.573   5.430   2.644  0.4355  0.4745 -0.9166
  687MOL0     C92646   3.626   5.364   2.762 -0.6051 -0.0159  0.2183
  687MOL0     C92647   3.771   5.387   2.772  0.3094  0.3333  0.3470
  687MOL0     C92648   3.853   5.305   2.873 -0.7069 -0.4770 -0.1414
  687MOL0     C92649   4.005   5.332   2.852  0.1222  0.9458 -0.1679
  687MOL0     C92650   4.091   5.276   2.968  0.3160 -0.4933  0.4172
  687MOL0     C92651   4.241   5.306   2.934  0.2859 -0.6187 -0.4490
  687MOL0     C92652   4.340   5.297   3.060  0.3990  0.0907 -0.7846
  687MOL0     C92653   4.486   5.279   3.027  0.1976  0.1913 -0.3245
  687MOL0    Cl92654   4.596   5.288   3.169 -0.0463 -0.2614  0.2469
  687MOL0     C92655   3.337   5.382   2.715  0.4751 -1.2261  0.1612
  687MOL0     C92656   3.199   5.392   2.681  0.7624  0.5611 -0.0429
  687MOL0     O92657   3.018   5.677   2.481  1.0200 -1.1506  0.2127
  687MOL0     C92658   2.767   5.430   2.394 -0.5496  0.3355 -0.7254
  687MOL0     C92659   2.649   5.422   2.326 -0.2668 -0.6142  0.6662
  687MOL0     N92660   1.820   5.820   1.998  0.1015  0.1750 -0.6674
  687MOL0     N92661   1.693   5.812   2.040 -0.0663  0.6844  0.0888
  687MOL0     C92662   0.640   6.159   2.576 -0.2143 -0.5797  0.7640
  687MOL0     C92663   0.512   6.190   2.614 -0.1286 -0.7213  0.5010
  687MOL0     C92664   0.118   6.451   2.645 -0.1107 -0.5608  0.4120
  687MOL0     C92665   0.036   6.347   2.589  0.1134  0.2281 -1.0272
  687MOL0     C92666  -0.093   6.341   2.630  0.3767  0.7753 -0.0472
  687MOL0     C92667  -0.163   6.433   2.710 -1.0637  0.3826 -0.8061
  687MOL0     O92668  -0.293   6.412   2.742 -0.3613 -0.1594 -0.8182
  687MOL0     C92669  -0.379   6.509   2.807 -0.4336  0.3244 -0.2453
  687MOL0     C92670  -0.344   6.515   2.955 -0.2932 -0.7492 -0.3703
  687MOL0     C92671  -0.333   6.391   3.037  0.1596 -0.6340  0.9856
  687MOL0     C92672  -0.455   6.296   3.019  0.8969 -0.7003  0.5086
  687MOL0     C92673  -0.428   6.172   3.086 -0.0914 -0.2594 -0.8306
  687MOL0     C92674  -0.402   6.077   3.157  0.0471  0.1813 -0.4625
  687MOL0     C92675  -0.092   6.553   2.732  0.6575  0.1461  0.1296
  687MOL0     C92676   0.043   6.562   2.708 -0.8171  0.3263  0.1865
  687MOL0     C92677   0.098   6.700   2.700 -1.1197 -0.1075 -0.5129
  687MOL0     H92678   0.421   6.381   2.349  0.7170  2.0770  1.3743
  687MOL0     H92679   0.641   6.342   2.283 -0.1491 -1.9524 -1.3852
  687MOL0     H92680   0.980   6.204   2.538 -0.3387  1.7632  0.3312
  687MOL0     H92681   0.889   6.054   2.535 -0.2501  0.1001  0.0569
  687MOL0     H92682   1.052   6.163   2.296 -3.4553  1.1367 -0.3693
  687MOL0     H92683   0.947   6.020   2.304 -1.9072  2.1592 -0.2145
  687MOL0     H92684   1.130   5.940   2.494 -0.3948 -3.2405 -3.6051
  687MOL0     H92685   1.189   6.109   2.472 -1.3834 -0.8588  1.5670
  687MOL0     H92686   1.203   5.854   2.290 -0.7108  1.3961 -1.9565
  687MOL0     H92687   1.256   6.012   2.223  0.7693  2.9839  1.3983
  687MOL0     H92688   1.426   6.015   2.417 -0.4760  1.0201 -1.2136
  687MOL0     H92689   1.358   5.860   2.462 -0.1196 -0.6630 -0.0970
  687MOL0     H92690   1.516   5.940   2.209 -0.0963 -0.0482 -1.1982
  687MOL0     H92691   1.569   5.822   2.342  1.0580 -0.7960 -2.6555
  687MOL0     H92692   1.398   5.800   2.110 -0.9404 -1.5151  0.0047
  687MOL0     H92693   1.366   5.695   2.251 -1.7785  0.1056 -2.1659
  687MOL0     H92694   1.588   5.588   2.246  0.9891 -0.0181  0.6033
  687MOL0     H92695   1.511   5.580   2.090  4.3771 -1.9068 -0.1071
  687MOL0     H92696   1.813   5.527   2.140 -0.8436 -0.1749  1.6962
  687MOL0     H92697   2.033   5.572   1.987 -0.0983 -0.6489  1.6845
  687MOL0     H92698   2.067   5.742   1.946 -2.8068 -0.2336 -2.3716
  687MOL0     H92699   2.138   5.785   2.169 -2.4296  1.7712 -0.8838
  687MOL0     H92700   2.062   5.650   2.250  0.5451 -0.3125 -0.2136
  687MOL0     H92701   2.270   5.599   2.036  0.1734  0.2015  0.5673
  687MOL0     H92702   2.211   5.491   2.156  2.7315 -0.5952  0.1922
  687MOL0     H92703   2.293   5.627   2.342  0.5895  0.1445 -0.1645
  687MOL0     H92704   2.377   5.736   2.232 -0.7343  0.2464 -2.1635
  687MOL0     H92705   2.581   5.758   2.314  2.0650  0.4737 -1.0386
  687MOL0     H92706   2.800   5.770   2.422  1.9601  0.0228 -1.2888
  687MOL0     H92707   3.226   5.527   2.366  2.6568 -0.4768 -0.5579
  687MOL0     H92708   3.460   5.504   2.408  2.3454 -1.8811 -0.1463
  687MOL0     H92709   3.570   5.401   2.849 -0.4688  2.1620 -0.5400
  687MOL0     H92710   3.607   5.257   2.755  2.4298 -0.8188  2.2866
  687MOL0     H92711   3.810   5.348   2.677  1.7721 -2.1513  1.8682
  687MOL0     H92712   3.785   5.496   2.777 -2.0278  0.7277 -0.2400
  687MOL0     H92713   3.822   5.337   2.973  2.2762  3.8143 -0.3265
  687MOL0     H92714   3.847   5.196   2.859  4.5331 -0.9267 -1.0259
  687MOL0     H92715   4.021   5.440   2.852 -3.3175  1.5819 -1.4481
  687MOL0     H92716   4.044   5.282   2.763  1.7976  1.6235  0.1407
  687MOL0     H92717   4.079   5.170   2.992  0.4359 -0.9256 -1.3335
  687MOL0     H92718   4.054   5.326   3.059 -0.3576 -3.7115  2.0704
  687MOL0     H92719   4.268   5.235   2.856 -0.4700 -0.2858 -1.0231
  687MOL0     H92720   4.249   5.404   2.887 -0.6115 -1.9882 -3.7231
  687MOL0     H92721   4.308   5.217   3.127  0.4397  2.8925  2.9063
  687MOL0     H92722   4.327   5.394   3.108 -2.9801 -0.4723 -0.3400
  687MOL0     H92723   4.501   5.179   2.985  1.8420 -0.1790  1.0400
  687MOL0     H92724   4.515   5.354   2.952 -1.8551 -0.9695 -2.3839
  687MOL0     H92725   3.367   5.350   2.814 -1.9892 -1.0886  1.0243
  687MOL0     H92726   3.126   5.349   2.749 -0.2563 -1.0930 -2.0615
  687MOL0     H92727   2.813   5.340   2.434  1.1815  1.7343  0.6043
  687MOL0     H92728   2.597   5.330   2.299 -0.5586  0.0907 -1.3545
  687MOL0     H92729   0.705   6.096   2.636 -0.0508 -1.2085 -0.0588
  687MOL0     H92730   0.481   6.147   2.709 -1.4987 -1.7752 -0.3905
  687MOL0     H92731   0.078   6.264   2.534  0.7854 -0.0883 -0.0588
  687MOL0     H92732  -0.148   6.258   2.586  1.9981  0.3081 -1.2928
  687MOL0     H92733  -0.483   6.480   2.791  0.3744 -2.5960 -0.8761
  687MOL0     H92734  -0.349   6.605   2.766 -2.5618  1.5189  0.8300
  687MOL0     H92735  -0.424   6.573   3.002 -2.2755 -4.7677  1.7576
  687MOL0     H92736  -0.253   6.573   2.972  0.2754 -0.7231 -3.1670
  687MOL0     H92737  -0.317   6.424   3.140  1.7539  1.2002  0.2170
  687MOL0     H92738  -0.242   6.338   3.008  0.0947 -0.2971  0.1457
  687MOL0     H92739  -0.541   6.350   3.059  3.5451  4.1461  0.4136
  687MOL0     H92740  -0.464   6.279   2.912  1.1996  3.2130 -0.2755
  687MOL0     H92741  -0.383   5.987   3.212 -0.4536  0.4544  0.1650
  687MOL0     H92742  -0.145   6.639   2.771  0.9831  1.0336 -1.2789
  687MOL0     H92743   0.130   6.729   2.800  1.7096  1.5797 -1.7765
  687MOL0     H92744   0.185   6.717   2.636  0.4915  0.1252  1.6338
  687MOL0     H92745   0.018   6.768   2.668 -0.3573  1.2734  0.4226
  688MOL0     O92746   1.568   0.962   2.927  0.2671 -0.2448  0.1290
  688MOL0     C92747   1.637   0.858   2.904  0.0200 -0.8867  0.5845
  688MOL0     O92748   1.656   0.749   2.979  0.5945 -0.0284 -0.2578
  688MOL0     C92749   1.676   0.631   2.913  0.1702 -0.9654 -0.3066
  688MOL0     C92750   1.571   0.561   2.843 -0.3073  0.2174  0.4161
  688MOL0     C92751   1.603   0.438   2.786  0.6249  0.5796  0.0067
  688MOL0     C92752   1.723   0.377   2.795 -0.2553 -0.4499 -0.3954
  688MOL0     O92753   1.738   0.252   2.738  0.6689  1.1324 -0.0897
  688MOL0     C92754   1.871   0.213   2.695  0.4138 -0.1035  0.4123
  688MOL0     C92755   1.854   0.099   2.598  0.3507  0.9039  0.1432
  688MOL0     C92756   1.904  -0.035   2.656  0.4223  0.1168 -0.0517
  688MOL0     C92757   1.879  -0.147   2.556 -0.4547  0.8421 -0.1076
  688MOL0     C92758   1.916  -0.287   2.616  0.2996 -0.2725  0.4102
  688MOL0     C92759   1.922  -0.381   2.503 -0.7374  0.1955 -0.8969
  688MOL0     C92760   1.958  -0.519   2.553 -0.2003 -0.3759  0.2841
  688MOL0     C92761   2.104  -0.529   2.594  0.7290  0.3286  0.3630
  688MOL0     N92762   2.150  -0.661   2.640 -0.2366 -0.5986 -0.4464
  688MOL0     C92763   2.212  -0.756   2.564  0.0904 -0.0168 -1.3488
  688MOL0     C92764   2.202  -0.873   2.631  0.5290 -0.3295  0.3209
  688MOL0     C92765   2.261  -1.005   2.598  0.5772  0.2871  0.1844
  688MOL0     C92766   2.290  -1.082   2.722 -0.0754 -0.4554  0.3170
  688MOL0     C92767   2.372  -1.206   2.685  0.4385 -0.3660 -0.5846
  688MOL0     C92768   2.403  -1.296   2.810  0.1190 -0.1185  0.1953
  688MOL0     O92769   2.548  -1.291   2.836  0.5870  0.2337  0.6543
  688MOL0     C92770   2.642  -1.367   2.765 -0.4956  0.0007 -0.3660
  688MOL0     C92771   2.620  -1.442   2.648  0.6705  0.4832  0.2250
  688MOL0     C92772   2.722  -1.507   2.589 -0.4918 -0.4030 -0.3335
  688MOL0     C92773   2.854  -1.511   2.648  0.4988  0.1231  0.5479
  688MOL0     C92774   2.963  -1.582   2.581 -0.4538  0.0008  0.5317
  688MOL0     O92775   3.089  -1.547   2.622  0.5935  0.0226 -0.1871
  688MOL0     C92776   3.194  -1.564   2.531  0.1556  0.0559  0.4948
  688MOL0     C92777   3.320  -1.582   2.582 -0.4239  0.0018  0.5594
  688MOL0     C92778   3.432  -1.572   2.492 -0.5551  0.7424 -0.5280
  688MOL0     C92779   3.415  -1.563   2.352 -0.0937 -0.0336 -0.7934
  688MOL0     O92780   3.515  -1.552   2.257 -0.8812 -0.1083  0.6621
  688MOL0     C92781   3.650  -1.592   2.293 -0.4586 -0.5331  0.2105
  688MOL0     C92782   3.756  -1.552   2.188 -0.0991 -0.6744  0.5839
  688MOL0     C92783   3.897  -1.607   2.239 -0.3031  0.0731  0.3843
  688MOL0     C92784   4.000  -1.616   2.122 -0.3461 -0.0371  0.3319
  688MOL0     C92785   4.131  -1.672   2.177 -0.1338 -0.6304 -0.5394
  688MOL0     C92786   4.257  -1.658   2.090  1.1259  0.5895 -0.2267
  688MOL0     C92787   4.225  -1.730   1.958  0.4224 -0.3886 -0.7006
  688MOL0     C92788   4.361  -1.766   1.893 -0.1291 -0.8853 -0.4745
  688MOL0    Cl92789   4.477  -1.639   1.865 -0.5726  0.2920 -0.0203
  688MOL0     C92790   3.282  -1.551   2.301 -0.0803 -0.0192 -0.6935
  688MOL0     C92791   3.178  -1.544   2.397 -0.0449 -0.6012 -0.7418
  688MOL0     O92792   2.932  -1.680   2.517  0.2471 -0.1801  0.8039
  688MOL0     C92793   2.879  -1.433   2.761  0.3935 -0.0816  0.5766
  688MOL0     C92794   2.770  -1.353   2.818 -0.0503 -0.1612 -0.6086
  688MOL0     N92795   2.116  -0.850   2.741  0.3588  0.7151  0.1355
  688MOL0     N92796   2.094  -0.723   2.756 -0.6781 -0.1914 -0.8716
  688MOL0     C92797   1.831   0.449   2.861  0.7366 -0.4854 -1.0031
  688MOL0     C92798   1.801   0.565   2.925 -0.0435  0.4569 -0.5031
  688MOL0     C92799   1.700   0.873   2.775 -0.2229 -0.1023 -0.2421
  688MOL0     C92800   1.634   0.843   2.653  0.1851 -0.1216  0.1902
  688MOL0     C92801   1.692   0.861   2.528  0.4088 -0.5323  0.9099
  688MOL0     C92802   1.814   0.930   2.515  0.1320  0.2267 -0.4169
  688MOL0     O92803   1.850   0.968   2.386 -0.1362 -0.2959 -0.1827
  688MOL0     C92804   1.970   1.042   2.361  0.0073 -0.9642  0.2759
  688MOL0     C92805   1.997   1.059   2.207 -0.5173 -0.9837  0.5418
  688MOL0     C92806   2.077   1.188   2.179 -1.0017 -0.1973  1.3641
  688MOL0     C92807   1.982   1.312   2.171 -0.5205  0.3265  0.4792
  688MOL0     C92808   2.069   1.434   2.174  0.1406  1.0106  0.2904
  688MOL0     C92809   2.132   1.532   2.166 -0.7981  0.3694  0.4109
  688MOL0     C92810   1.883   0.954   2.632 -0.0549  0.0061 -0.0980
  688MOL0     C92811   1.827   0.938   2.761  0.2604  0.0066  0.5389
  688MOL0     C92812   1.900   0.982   2.880 -0.3425 -0.5325  0.2419
  688MOL0     H92813   1.468   0.594   2.846 -0.2152  0.5260  0.2393
  688MOL0     H92814   1.514   0.386   2.754 -2.5255  5.0732  0.4098
  688MOL0     H92815   1.910   0.307   2.655 -0.9688 -0.0055 -0.7697
  688MOL0     H92816   1.942   0.192   2.775  1.1588  1.8656  0.3184
  688MOL0     H92817   1.919   0.114   2.511  2.6885  0.8712  1.7759
  688MOL0     H92818   1.751   0.091   2.562 -0.0186 -1.6877  1.5194
  688MOL0     H92819   1.854  -0.051   2.752  0.2538  0.4998 -0.0712
  688MOL0     H92820   2.010  -0.017   2.677  0.5123 -1.6049  1.1731
  688MOL0     H92821   1.773  -0.162   2.531 -0.4389 -0.1148  0.3467
  688MOL0     H92822   1.951  -0.134   2.475 -0.2504 -0.0979 -0.0953
  688MOL0     H92823   2.010  -0.292   2.671  1.6376 -1.1790 -1.8115
  688MOL0     H92824   1.834  -0.333   2.672 -3.5442 -1.3179 -5.2018
  688MOL0     H92825   1.826  -0.381   2.450 -0.3869  1.3529 -1.5630
  688MOL0     H92826   2.000  -0.350   2.433 -1.8988  0.1261 -2.2675
  688MOL0     H92827   1.948  -0.590   2.470  2.2952  0.7828 -1.1130
  688MOL0     H92828   1.889  -0.556   2.630  0.6656 -1.3263  0.6368
  688MOL0     H92829   2.167  -0.502   2.509  0.3326  1.3277  0.3782
  688MOL0     H92830   2.119  -0.456   2.675  1.1609  1.9483 -1.1229
  688MOL0     H92831   2.239  -0.745   2.459 -2.5514 -0.6030 -2.1758
  688MOL0     H92832   2.184  -1.062   2.544  0.9004 -0.6797  0.7089
  688MOL0     H92833   2.345  -0.994   2.528  2.5226 -2.0505  1.9784
  688MOL0     H92834   2.348  -1.016   2.787  1.1051  4.2144 -4.7609
  688MOL0     H92835   2.198  -1.121   2.769 -1.9046 -1.9630 -4.0062
  688MOL0     H92836   2.467  -1.167   2.648 -0.1215 -0.7002 -2.5171
  688MOL0     H92837   2.338  -1.272   2.604  1.6001 -3.7963  1.5219
  688MOL0     H92838   2.381  -1.397   2.774  0.0964 -0.2085  0.4674
  688MOL0     H92839   2.350  -1.259   2.898 -1.4440  3.4009 -2.0158
  688MOL0     H92840   2.526  -1.443   2.593  1.2983 -0.5154 -0.8565
  688MOL0     H92841   2.714  -1.543   2.487  0.6012 -0.1488 -0.5261
  688MOL0     H92842   3.334  -1.576   2.690  1.0100  0.8027  0.3544
  688MOL0     H92843   3.529  -1.573   2.541  0.9151 -2.8166 -3.0411
  688MOL0     H92844   3.666  -1.549   2.392  0.8406  0.5643 -0.4232
  688MOL0     H92845   3.662  -1.700   2.306  2.4132 -0.1027  2.1115
  688MOL0     H92846   3.731  -1.608   2.097 -3.4804 -1.2395  1.7013
  688MOL0     H92847   3.754  -1.445   2.166  2.0120 -1.2603 -3.2354
  688MOL0     H92848   3.928  -1.535   2.315  1.9065 -3.0219  2.6551
  688MOL0     H92849   3.882  -1.704   2.287  0.4601 -0.5190 -0.5516
  688MOL0     H92850   4.033  -1.519   2.084  1.8844 -0.8818 -0.0331
  688MOL0     H92851   3.973  -1.675   2.034  0.5989 -2.5026  1.5766
  688MOL0     H92852   4.121  -1.774   2.217  2.3943 -1.1809 -1.1413
  688MOL0     H92853   4.142  -1.601   2.259 -5.4068  1.8505 -1.5835
  688MOL0     H92854   4.285  -1.555   2.067  3.7515 -0.0026  0.0191
  688MOL0     H92855   4.333  -1.716   2.143 -0.3953 -1.3265 -0.0301
  688MOL0     H92856   4.161  -1.662   1.900  2.7145  1.7232 -0.8882
  688MOL0     H92857   4.160  -1.817   1.975  0.4197 -0.3552 -0.5425
  688MOL0     H92858   4.412  -1.835   1.962 -0.1782 -1.4063 -0.9514
  688MOL0     H92859   4.347  -1.821   1.800  2.2398  2.7486 -3.2620
  688MOL0     H92860   3.253  -1.533   2.198  2.2000  0.3901 -1.3075
  688MOL0     H92861   3.078  -1.519   2.364  0.5795  3.0893 -0.2806
  688MOL0     H92862   2.975  -1.412   2.808  1.7095  0.1016 -2.0542
  688MOL0     H92863   2.788  -1.282   2.899  1.1847 -3.1466  1.9422
  688MOL0     H92864   1.923   0.397   2.883  0.7609  0.5277  1.6374
  688MOL0     H92865   1.880   0.618   2.976 -0.6704  0.5459  0.4023
  688MOL0     H92866   1.541   0.788   2.666 -0.8867  0.8233 -2.7359
  688MOL0     H92867   1.635   0.839   2.438  2.7231  0.3555 -0.8688
  688MOL0     H92868   2.060   0.991   2.398  0.6123  0.2560  0.5422
  688MOL0     H92869   1.965   1.137   2.415  2.4285  0.1379 -1.2581
  688MOL0     H92870   1.900   1.055   2.157  0.6566 -5.3172 -1.9573
  688MOL0     H92871   2.048   0.971   2.167 -1.6056 -0.7380 -1.5406
  688MOL0     H92872   2.130   1.191   2.083 -0.0783  3.8989  1.8384
  688MOL0     H92873   2.150   1.205   2.259  0.2890 -0.5784  0.2998
  688MOL0     H92874   1.914   1.312   2.086  0.8797  0.7428 -0.6857
  688MOL0     H92875   1.923   1.316   2.263  0.4113 -0.8217  1.1552
  688MOL0     H92876   2.200   1.613   2.151 -0.2713 -0.1940 -0.3970
  688MOL0     H92877   1.987   0.980   2.622 -0.5807  1.7230 -1.7752
  688MOL0     H92878   2.000   1.026   2.869 -1.3500  1.9722  0.3024
  688MOL0     H92879   1.848   1.064   2.932  1.1174 -0.7593  2.1794
  688MOL0     H92880   1.901   0.894   2.945  2.7433 -1.6892 -1.1729
  689MOL0     O92881  10.194   9.164   3.462 -0.3159  0.1982 -0.6479
  689MOL0     C92882  10.107   9.222   3.399  0.3658 -0.0423 -0.2450
  689MOL0     O92883  10.111   9.359   3.377  0.3361 -0.8304 -0.2717
  689MOL0     C92884  10.217   9.432   3.440 -0.2604 -0.4426 -0.2487
  689MOL0     C92885  10.188   9.469   3.572  0.3530 -0.6691  0.6271
  689MOL0     C92886  10.293   9.529   3.652  0.1655  0.3395  0.2222
  689MOL0     C92887  10.424   9.561   3.602  0.9173  0.6905 -0.5842
  689MOL0     O92888  10.511   9.624   3.683  0.7349 -0.0377  0.5743
  689MOL0     C92889  10.636   9.672   3.629 -1.2392  0.7200  0.2730
  689MOL0     C92890  10.709   9.747   3.743  0.2550 -0.4888  0.1777
  689MOL0     C92891  10.852   9.787   3.702 -0.0039 -0.2404 -0.8690
  689MOL0     C92892  10.941   9.799   3.832 -0.0888  0.6672 -0.3741
  689MOL0     C92893  11.066   9.884   3.798  0.0547 -0.5703  0.1544
  689MOL0     C92894  11.165   9.894   3.923  0.0668 -1.0622  0.1383
  689MOL0     C92895  11.239   9.758   3.942 -0.4188 -1.3248  0.7007
  689MOL0     C92896  11.369   9.781   4.024  0.7674 -0.3041  0.3315
  689MOL0     N92897  11.443   9.653   4.046  0.2655  0.1647  0.1322
  689MOL0     C92898  11.571   9.641   4.092  0.1752 -0.2385 -0.0097
  689MOL0     C92899  11.576   9.520   4.142 -0.6911 -0.5522 -0.7916
  689MOL0     C92900  11.696   9.474   4.227 -0.1037  0.1013  0.7719
  689MOL0     C92901  11.834   9.495   4.157  0.9670  0.1801  0.7817
  689MOL0     C92902  11.858   9.394   4.041 -0.0099 -0.2585  0.6490
  689MOL0     C92903  11.987   9.413   3.970  0.0309  0.4792 -0.0522
  689MOL0     O92904  12.093   9.373   4.049 -0.9813 -0.1322  0.2563
  689MOL0     C92905  12.215   9.375   3.992 -0.4807 -0.1129 -0.6897
  689MOL0     C92906  12.250   9.439   3.865  0.2341  0.0038 -0.4568
  689MOL0     C92907  12.384   9.422   3.805 -0.3853 -0.8009 -0.1877
  689MOL0     C92908  12.483   9.341   3.862 -0.2375  0.2733  0.5878
  689MOL0     C92909  12.612   9.309   3.799  0.9970  0.1599  0.5532
  689MOL0     O92910  12.719   9.287   3.881 -0.0423 -1.1740 -0.1904
  689MOL0     C92911  12.854   9.289   3.838  0.5121  0.3273 -0.3148
  689MOL0     C92912  12.921   9.176   3.792 -0.4342 -0.3939 -0.1145
  689MOL0     C92913  13.057   9.179   3.763  0.1785  0.5086 -0.2191
  689MOL0     C92914  13.130   9.288   3.784  0.6974 -0.1722 -0.7974
  689MOL0     O92915  13.266   9.272   3.764  0.1622 -0.2116 -0.5266
  689MOL0     C92916  13.372   9.379   3.749  0.4380  0.5687 -0.0688
  689MOL0     C92917  13.488   9.319   3.661  0.2510 -0.3520 -0.5098
  689MOL0     C92918  13.594   9.423   3.623  0.4003  0.4123 -0.2606
  689MOL0     C92919  13.696   9.349   3.528 -0.8251 -0.1408 -0.9298
  689MOL0     C92920  13.824   9.436   3.513  0.1676  0.4718 -0.2906
  689MOL0     C92921  13.958   9.364   3.451 -0.8512 -0.1250  0.3560
  689MOL0     C92922  14.070   9.473   3.471 -0.4072 -0.0392  0.2901
  689MOL0     C92923  14.205   9.425   3.425 -0.1759 -1.0509 -0.9406
  689MOL0    Cl92924  14.283   9.303   3.529 -0.3802 -0.1618  0.0355
  689MOL0     C92925  13.069   9.411   3.828  0.4374  0.3094  0.6170
  689MOL0     C92926  12.924   9.413   3.849 -0.6957  0.6304 -0.3389
  689MOL0     O92927  12.617   9.317   3.679 -0.1021 -0.0106 -0.2284
  689MOL0     C92928  12.445   9.280   3.993  0.4900  0.2789  1.0463
  689MOL0     C92929  12.315   9.301   4.046  0.3793  0.1506  0.1588
  689MOL0     N92930  11.453   9.451   4.122  0.6371 -0.6697  0.0218
  689MOL0     N92931  11.372   9.541   4.072 -0.4370 -0.2608  0.0960
  689MOL0     C92932  10.452   9.508   3.477 -0.5048  0.0269 -0.0284
  689MOL0     C92933  10.358   9.444   3.396  0.1477 -0.4031  0.2065
  689MOL0     C92934   9.989   9.138   3.345  0.4636  0.2288  0.6371
  689MOL0     C92935   9.998   9.004   3.345 -0.1437 -0.7115  0.7273
  689MOL0     C92936   9.901   8.918   3.302 -0.0438 -0.8265  0.6690
  689MOL0     C92937   9.788   8.968   3.240  0.0153  0.2988 -0.6880
  689MOL0     O92938   9.726   8.874   3.163 -0.2893  0.8282  0.8310
  689MOL0     C92939   9.650   8.915   3.054  0.0790 -0.1458 -0.1832
  689MOL0     C92940   9.507   8.932   3.107 -0.3470  0.2999  0.0414
  689MOL0     C92941   9.415   8.996   2.999  0.5022  0.5197  0.4064
  689MOL0     C92942   9.276   9.017   3.060 -0.2218 -0.1050 -0.3168
  689MOL0     C92943   9.187   8.917   3.004  0.1494 -0.1979 -0.4075
  689MOL0     C92944   9.088   8.849   2.968  0.6042 -0.2551  0.1884
  689MOL0     C92945   9.758   9.106   3.249 -0.0120 -0.5700  0.3289
  689MOL0     C92946   9.862   9.189   3.301  0.3807 -0.2576  0.2426
  689MOL0     C92947   9.837   9.338   3.313 -0.2414 -0.4307 -0.7013
  689MOL0     H92948  10.090   9.458   3.616  0.8385  1.1597  2.3191
  689MOL0     H92949  10.270   9.558   3.754 -2.3964 -0.8755  0.0644
  689MOL0     H92950  10.703   9.588   3.606 -0.8962 -0.4109  4.5343
  689MOL0     H92951  10.616   9.737   3.543  1.0873  2.6658  1.0685
  689MOL0     H92952  10.717   9.684   3.832  1.7264 -1.5309 -0.6367
  689MOL0     H92953  10.646   9.835   3.755 -1.4155 -1.4401 -1.1474
  689MOL0     H92954  10.843   9.888   3.660 -2.9793  0.1754  0.5238
  689MOL0     H92955  10.897   9.714   3.634  0.5496  0.9324 -1.7945
  689MOL0     H92956  10.885   9.848   3.912  2.1163  0.7925  1.1967
  689MOL0     H92957  10.979   9.702   3.866  2.0211  2.0486  1.4212
  689MOL0     H92958  11.125   9.841   3.716 -0.2608 -0.0350 -0.3584
  689MOL0     H92959  11.034   9.983   3.765 -1.1918 -1.4360 -1.4012
  689MOL0     H92960  11.235   9.974   3.899  0.5904 -0.3207  3.6232
  689MOL0     H92961  11.109   9.934   4.007 -2.0656 -0.4062 -1.5052
  689MOL0     H92962  11.262   9.710   3.847  1.0046 -1.8174  1.2595
  689MOL0     H92963  11.170   9.698   4.003 -1.7983  0.8822  1.4412
  689MOL0     H92964  11.433   9.846   3.964  0.2126 -1.5315 -1.6887
  689MOL0     H92965  11.343   9.835   4.116  3.2865  1.2071  0.2431
  689MOL0     H92966  11.646   9.719   4.091 -0.3106  0.2945 -3.2729
  689MOL0     H92967  11.707   9.543   4.312  3.8218  0.5244  0.1207
  689MOL0     H92968  11.684   9.375   4.273  1.7549  0.2950  1.7773
  689MOL0     H92969  11.836   9.597   4.117 -3.0363  0.0105 -0.3175
  689MOL0     H92970  11.913   9.481   4.231  1.6158 -2.4222 -0.3243
  689MOL0     H92971  11.778   9.409   3.968  1.3600 -0.8544 -1.0304
  689MOL0     H92972  11.847   9.294   4.084  3.9694 -0.5817  1.2358
  689MOL0     H92973  12.001   9.513   3.928  0.9236 -0.0871 -1.1657
  689MOL0     H92974  11.980   9.346   3.884 -0.7164 -0.6938  0.8817
  689MOL0     H92975  12.176   9.498   3.812  1.0804  1.0725 -0.4687
  689MOL0     H92976  12.408   9.482   3.718 -0.9483  0.8742  0.7692
  689MOL0     H92977  12.855   9.091   3.781 -0.3160 -0.2478 -2.6761
  689MOL0     H92978  13.106   9.086   3.735 -2.4079 -1.5402  1.6543
  689MOL0     H92979  13.320   9.461   3.698  0.8940  0.5829 -0.5200
  689MOL0     H92980  13.417   9.406   3.846 -0.0060  0.6110  0.1288
  689MOL0     H92981  13.534   9.230   3.704  1.3571  0.8379  0.8897
  689MOL0     H92982  13.420   9.287   3.582 -0.7094 -2.4818  1.0925
  689MOL0     H92983  13.550   9.500   3.559  1.3037 -0.0116 -1.4366
  689MOL0     H92984  13.639   9.473   3.710 -0.5135 -1.6637  1.4992
  689MOL0     H92985  13.640   9.337   3.435 -1.3456 -0.7503 -0.5392
  689MOL0     H92986  13.721   9.252   3.572  0.4641  0.5825 -0.0009
  689MOL0     H92987  13.846   9.468   3.615 -1.9165  3.3274 -0.6304
  689MOL0     H92988  13.796   9.527   3.458  2.7485  2.4727  1.4746
  689MOL0     H92989  13.980   9.273   3.507 -2.1578  0.2479  1.5146
  689MOL0     H92990  13.936   9.336   3.347  0.6952  1.2719 -0.4062
  689MOL0     H92991  14.076   9.496   3.578  1.3942  0.2553  0.1571
  689MOL0     H92992  14.055   9.572   3.428 -0.8282  1.4513  3.5736
  689MOL0     H92993  14.213   9.387   3.323  2.2217  2.8690 -2.4633
  689MOL0     H92994  14.269   9.513   3.440  0.0142 -1.3275 -0.1001
  689MOL0     H92995  13.140   9.491   3.849  0.2022  0.2854  1.5356
  689MOL0     H92996  12.881   9.506   3.885 -0.1027  0.8585 -0.2118
  689MOL0     H92997  12.508   9.210   4.045 -2.6212 -3.0206  0.8022
  689MOL0     H92998  12.290   9.253   4.140  0.7624  1.8523  1.1555
  689MOL0     H92999  10.550   9.528   3.434 -1.2129 -0.8133 -2.1694
  689MOL0     H93000  10.397   9.405   3.302  1.1309 -1.3903  0.9935
  689MOL0     H93001  10.087   8.967   3.394 -0.2465 -0.0614  1.4300
  689MOL0     H93002   9.920   8.812   3.311  0.8780 -0.7432 -0.1997
  689MOL0     H93003   9.647   8.838   2.977 -2.5010 -0.7830  0.4477
  689MOL0     H93004   9.686   9.010   3.012 -0.5305 -0.8745 -2.4531
  689MOL0     H93005   9.504   9.004   3.189  2.1214  0.1064  0.3774
  689MOL0     H93006   9.463   8.841   3.149  0.2558 -0.4909 -0.9992
  689MOL0     H93007   9.416   8.937   2.907  0.1042 -0.3271  0.9339
  689MOL0     H93008   9.453   9.095   2.975  1.0694 -0.2062 -1.9935
  689MOL0     H93009   9.281   8.996   3.167 -1.3006  1.1219  0.0053
  689MOL0     H93010   9.241   9.120   3.046 -0.3890 -0.2311 -0.8440
  689MOL0     H93011   8.998   8.792   2.954  0.7574 -0.1083 -1.6112
  689MOL0     H93012   9.684   9.165   3.196  3.5117  2.2477 -1.9053
  689MOL0     H93013   9.735   9.353   3.276  0.4417  0.4543 -2.3261
  689MOL0     H93014   9.845   9.370   3.417  1.3205  0.1680 -0.9824
  689MOL0     H93015   9.900   9.397   3.247  0.1449  0.2786  0.2782
  690MOL0     O93016   3.553   6.468   6.647  0.0697  0.4424 -0.1649
  690MOL0     C93017   3.569   6.482   6.526 -0.1855  0.4517 -0.0407
  690MOL0     O93018   3.655   6.574   6.466  0.3335  0.2470 -0.4445
  690MOL0     C93019   3.708   6.678   6.538 -0.3615 -0.4302 -0.2802
  690MOL0     C93020   3.700   6.812   6.492  0.5167  0.2460  0.2454
  690MOL0     C93021   3.755   6.920   6.555 -0.0660 -0.3453  0.3033
  690MOL0     C93022   3.823   6.893   6.674  0.7776 -0.3922 -0.1391
  690MOL0     O93023   3.881   7.011   6.726 -0.0984  0.0986  0.2869
  690MOL0     C93024   3.909   7.012   6.862 -0.1269 -1.2134  0.2621
  690MOL0     C93025   3.992   7.141   6.872  0.2654  0.0239 -0.3975
  690MOL0     C93026   4.112   7.140   6.778 -0.5496  0.9950 -0.2499
  690MOL0     C93027   4.210   7.029   6.829  0.1226  0.1664 -0.5480
  690MOL0     C93028   4.348   7.014   6.762 -0.0053  0.1014 -0.4233
  690MOL0     C93029   4.343   6.965   6.623 -0.5035 -1.0475  0.0244
  690MOL0     C93030   4.303   6.811   6.612 -0.4877 -0.0258  1.0274
  690MOL0     C93031   4.149   6.798   6.575 -0.7689 -0.1513  0.4833
  690MOL0     N93032   4.122   6.658   6.550  0.0464 -0.1845  0.4891
  690MOL0     C93033   4.133   6.602   6.431  0.4773 -0.5697  0.1996
  690MOL0     C93034   4.091   6.474   6.440 -0.0598  0.6057  0.1601
  690MOL0     C93035   4.058   6.358   6.335 -0.1768 -0.9422  0.1697
  690MOL0     C93036   3.913   6.332   6.343 -0.4238  0.7834  1.1703
  690MOL0     C93037   3.867   6.230   6.236  0.8997 -0.4032 -0.0679
  690MOL0     C93038   3.929   6.097   6.248  0.1843 -0.0447  0.3368
  690MOL0     O93039   3.863   5.997   6.172  0.1666  0.5208 -0.0788
  690MOL0     C93040   3.852   6.020   6.042  0.6208 -0.4492  0.4924
  690MOL0     C93041   3.964   6.015   5.957 -0.3687  0.8554  0.6905
  690MOL0     C93042   3.949   6.030   5.819 -0.2013 -0.0161 -0.5924
  690MOL0     C93043   3.817   6.044   5.773 -0.5576 -0.8336  0.1528
  690MOL0     C93044   3.796   6.038   5.629 -0.6751  0.1826  0.3721
  690MOL0     O93045   3.672   6.074   5.589  0.9122  0.6727 -0.6353
  690MOL0     C93046   3.642   6.094   5.459  0.0155 -0.2172 -0.6889
  690MOL0     C93047   3.521   6.046   5.408 -0.1438 -0.6205  0.9776
  690MOL0     C93048   3.473   6.093   5.280 -0.4641 -0.3741  1.1755
  690MOL0     C93049   3.554   6.172   5.197  0.2340 -0.1599  0.2098
  690MOL0     O93050   3.504   6.202   5.075 -0.4003  0.0586 -0.6314
  690MOL0     C93051   3.503   6.099   4.985  0.4913  0.4715  0.0096
  690MOL0     C93052   3.402   6.156   4.883 -0.0661  0.2651  0.0619
  690MOL0     C93053   3.395   6.062   4.770  0.4538 -0.5566  0.4249
  690MOL0     C93054   3.272   6.104   4.683  0.8233 -0.2840 -0.2920
  690MOL0     C93055   3.241   6.008   4.573  0.1297  0.4884  0.6547
  690MOL0     C93056   3.115   6.052   4.491 -0.8049 -0.4100  0.0871
  690MOL0     C93057   3.121   6.005   4.341 -0.1441  0.5591 -0.6978
  690MOL0     C93058   2.986   6.030   4.273 -0.0519  0.4470 -0.5418
  690MOL0    Cl93059   3.003   6.037   4.097  0.0794  0.1580  0.1336
  690MOL0     C93060   3.680   6.212   5.245  0.2404 -0.1091 -0.4930
  690MOL0     C93061   3.724   6.171   5.373  0.7887 -0.1707 -0.4255
  690MOL0     O93062   3.889   6.007   5.553 -0.4477  0.0992 -0.3125
  690MOL0     C93063   3.710   6.053   5.859 -0.1559 -0.3468 -0.3158
  690MOL0     C93064   3.727   6.055   5.993 -0.1481  0.2661  0.0395
  690MOL0     N93065   4.051   6.459   6.570 -0.1307  0.3218 -0.0073
  690MOL0     N93066   4.068   6.567   6.642 -0.1416 -0.1423  0.0265
  690MOL0     C93067   3.822   6.765   6.731  0.5961 -0.1402 -1.2743
  690MOL0     C93068   3.771   6.653   6.665 -0.0224  0.0783  0.6488
  690MOL0     C93069   3.491   6.398   6.433 -0.4146 -0.0623 -0.3551
  690MOL0     C93070   3.503   6.429   6.297 -0.1936  0.8415 -0.3770
  690MOL0     C93071   3.426   6.364   6.203  0.4716  0.3293 -0.2686
  690MOL0     C93072   3.322   6.272   6.240  0.1216 -0.3180  0.0287
  690MOL0     O93073   3.238   6.213   6.159  0.8421  0.4527  0.5592
  690MOL0     C93074   3.230   6.248   6.014  0.5755  0.8855 -0.1318
  690MOL0     C93075   3.145   6.143   5.945  0.6155  0.8818  0.5055
  690MOL0     C93076   3.155   6.155   5.793 -0.3444 -0.1362  0.1616
  690MOL0     C93077   3.287   6.112   5.733  0.1538  0.0027 -0.3309
  690MOL0     C93078   3.382   6.223   5.725 -0.0265  0.0911  0.2107
  690MOL0     C93079   3.464   6.313   5.715  0.2994  0.5629 -0.4420
  690MOL0     C93080   3.311   6.241   6.374 -0.3405 -0.6527 -0.6881
  690MOL0     C93081   3.396   6.301   6.471 -0.1534 -0.5950 -0.5397
  690MOL0     C93082   3.390   6.249   6.611  0.7010 -0.1194  0.0586
  690MOL0     H93083   3.644   6.819   6.399 -0.1050  0.3988  0.6260
  690MOL0     H93084   3.744   7.021   6.517  1.5935  1.4894  4.1767
  690MOL0     H93085   3.819   7.041   6.917  0.0377  0.4245 -0.2791
  690MOL0     H93086   3.959   6.930   6.916  0.8363 -1.1204 -0.4564
  690MOL0     H93087   4.026   7.136   6.976  4.0663  1.5555 -1.3993
  690MOL0     H93088   3.930   7.228   6.853  0.5865 -0.3292 -3.6642
  690MOL0     H93089   4.162   7.237   6.779 -0.1061  0.7695 -0.1781
  690MOL0     H93090   4.088   7.122   6.672 -3.0990  1.4270  0.1833
  690MOL0     H93091   4.224   7.048   6.936 -0.3199  0.7589 -0.5925
  690MOL0     H93092   4.156   6.934   6.830 -0.6118  0.5336  1.8114
  690MOL0     H93093   4.393   7.112   6.749  0.3594 -0.0113 -0.0277
  690MOL0     H93094   4.417   6.950   6.818  1.8484  3.4742  1.4704
  690MOL0     H93095   4.275   7.017   6.556  0.9557 -1.1537 -1.6155
  690MOL0     H93096   4.448   6.983   6.595 -1.1607  1.4772 -1.0715
  690MOL0     H93097   4.323   6.745   6.696 -0.8319 -2.6982 -0.8711
  690MOL0     H93098   4.363   6.765   6.533 -3.5022  0.1462 -1.5873
  690MOL0     H93099   4.080   6.845   6.645  0.5525  1.9692  0.4351
  690MOL0     H93100   4.124   6.864   6.492 -2.7872  2.3724  2.9167
  690MOL0     H93101   4.168   6.658   6.345  2.4706  0.3618  1.5308
  690MOL0     H93102   4.082   6.394   6.234  1.1263  4.4508  2.0587
  690MOL0     H93103   4.122   6.270   6.350  2.3755  0.9745  1.4659
  690MOL0     H93104   3.878   6.287   6.436 -1.8294  1.2903  0.9052
  690MOL0     H93105   3.868   6.431   6.335 -1.1740  0.2746 -2.6471
  690MOL0     H93106   3.880   6.267   6.133 -0.4175 -1.0232 -0.4756
  690MOL0     H93107   3.761   6.210   6.253  1.2699 -0.7420  2.0921
  690MOL0     H93108   3.926   6.070   6.354 -1.5271  3.1081  1.2284
  690MOL0     H93109   4.034   6.108   6.217 -0.2948  0.9285 -1.0128
  690MOL0     H93110   4.062   5.992   5.997 -0.2535  0.3265  0.1094
  690MOL0     H93111   4.035   6.021   5.753 -0.6107  1.5430 -1.4033
  690MOL0     H93112   3.451   5.983   5.462  2.2125 -0.0206  5.1161
  690MOL0     H93113   3.387   6.047   5.233  0.4862 -2.3385  1.2765
  690MOL0     H93114   3.596   6.069   4.936  0.1097  0.7287 -0.8901
  690MOL0     H93115   3.444   6.012   5.015  1.0077 -0.5101 -1.6820
  690MOL0     H93116   3.302   6.165   4.928  0.8806 -0.1738  2.3987
  690MOL0     H93117   3.436   6.257   4.858 -3.7093  1.5661 -0.3833
  690MOL0     H93118   3.477   6.063   4.697  0.2822  0.1813  0.2347
  690MOL0     H93119   3.359   5.963   4.800 -0.0555 -0.9410 -1.3233
  690MOL0     H93120   3.290   6.205   4.645  1.6203 -0.9354 -1.7217
  690MOL0     H93121   3.177   6.104   4.737  0.2524 -2.8003 -1.1553
  690MOL0     H93122   3.221   5.910   4.618  0.5989 -0.1907 -0.5575
  690MOL0     H93123   3.320   5.999   4.498  0.3825  0.7522  0.8890
  690MOL0     H93124   3.027   6.004   4.535  0.4190 -0.0162  3.2468
  690MOL0     H93125   3.103   6.159   4.506 -1.3446 -0.3974 -0.3895
  690MOL0     H93126   3.150   5.900   4.332 -0.9578  0.4132 -1.8642
  690MOL0     H93127   3.200   6.063   4.293  0.8991 -1.4485 -1.5144
  690MOL0     H93128   2.910   5.958   4.304  0.2780  0.9084  1.4527
  690MOL0     H93129   2.950   6.128   4.305  1.1489  0.9278 -0.6382
  690MOL0     H93130   3.741   6.273   5.179  0.0531  0.5895 -0.0275
  690MOL0     H93131   3.821   6.206   5.406  1.7342 -0.0895 -3.0717
  690MOL0     H93132   3.611   6.070   5.819 -1.2239  0.0425  2.2787
  690MOL0     H93133   3.639   6.064   6.056 -2.4618  0.1376 -2.9148
  690MOL0     H93134   3.861   6.750   6.831  0.1986 -1.4694 -1.3014
  690MOL0     H93135   3.778   6.556   6.713 -3.1841  1.0226  3.3960
  690MOL0     H93136   3.583   6.491   6.259 -1.9084  4.0814  0.9147
  690MOL0     H93137   3.459   6.370   6.100  3.8585 -2.8263  0.4422
  690MOL0     H93138   3.331   6.233   5.973  1.6655  1.6144  2.1172
  690MOL0     H93139   3.178   6.340   5.987  0.9908  1.3677  0.6598
  690MOL0     H93140   3.041   6.149   5.980 -0.2051 -0.7801 -1.4719
  690MOL0     H93141   3.179   6.042   5.972 -0.1279  0.8709  1.4535
  690MOL0     H93142   3.116   6.255   5.774 -1.3534 -0.9178 -2.2460
  690MOL0     H93143   3.086   6.080   5.754  1.9664 -1.1513 -2.2509
  690MOL0     H93144   3.338   6.045   5.803 -0.8213 -1.0051 -0.5599
  690MOL0     H93145   3.274   6.055   5.641 -2.2874 -3.2329  1.8045
  690MOL0     H93146   3.542   6.385   5.734  2.1930 -1.7313  1.0252
  690MOL0     H93147   3.239   6.170   6.413  0.9349 -0.3523  2.5384
  690MOL0     H93148   3.316   6.168   6.607 -2.3815  2.4635  0.2185
  690MOL0     H93149   3.489   6.214   6.642  0.4405  0.5935  1.8531
  690MOL0     H93150   3.351   6.319   6.686 -1.6775 -1.4860  0.1813
  691MOL0     O93151  10.306   4.719   6.933  0.0950  0.0633  0.6363
  691MOL0     C93152  10.390   4.644   6.988  0.3731 -0.0418 -0.8900
  691MOL0     O93153  10.378   4.600   7.115 -0.1941 -0.3379 -0.4211
  691MOL0     C93154  10.270   4.629   7.189 -0.4517 -0.3953 -0.9965
  691MOL0     C93155  10.207   4.524   7.257 -0.0087  0.1119 -0.2264
  691MOL0     C93156  10.103   4.539   7.353 -0.6439 -0.0241  0.3335
  691MOL0     C93157  10.061   4.677   7.381 -0.2603  0.9162  0.8397
  691MOL0     O93158   9.964   4.723   7.459  0.8309  0.0296  0.1912
  691MOL0     C93159   9.862   4.623   7.495 -0.3405  0.3885  0.4382
  691MOL0     C93160   9.735   4.677   7.568 -0.3493 -0.3357 -0.2405
  691MOL0     C93161   9.673   4.776   7.477 -0.9930 -0.7331 -0.0944
  691MOL0     C93162   9.548   4.824   7.547  0.2853 -0.1465  0.1165
  691MOL0     C93163   9.445   4.880   7.447 -0.2669 -0.0996 -0.3262
  691MOL0     C93164   9.492   5.023   7.389  0.5290 -0.3375 -0.6759
  691MOL0     C93165   9.476   5.144   7.488 -0.6272  0.2694  0.2284
  691MOL0     C93166   9.497   5.268   7.410 -0.1978 -0.5235  0.7253
  691MOL0     N93167   9.491   5.387   7.496  0.1268 -0.1030  0.0726
  691MOL0     C93168   9.593   5.417   7.586 -0.4115  0.3236 -0.7176
  691MOL0     C93169   9.545   5.529   7.636 -1.0719  0.0443 -0.0742
  691MOL0     C93170   9.625   5.616   7.729 -0.2697  0.6241 -0.0332
  691MOL0     C93171   9.526   5.658   7.839 -0.6862  0.8843  0.4641
  691MOL0     C93172   9.574   5.754   7.949 -0.4698  0.0388  0.0487
  691MOL0     C93173   9.702   5.718   8.027 -0.6990  0.8457  0.1564
  691MOL0     O93174   9.676   5.588   8.084 -0.3868  0.0132 -0.5931
  691MOL0     C93175   9.776   5.528   8.152 -0.4898  0.1500  0.6311
  691MOL0     C93176   9.901   5.587   8.180  0.4559  0.5076  0.1454
  691MOL0     C93177  10.014   5.515   8.228 -0.0862  0.1096  0.7107
  691MOL0     C93178  10.002   5.378   8.245 -0.1489  0.2807  0.5513
  691MOL0     C93179  10.117   5.312   8.297  0.3736  0.0035  0.3066
  691MOL0     O93180  10.205   5.394   8.357  0.1915 -0.7305 -0.5503
  691MOL0     C93181  10.314   5.356   8.422 -0.6774  0.7058  0.1972
  691MOL0     C93182  10.333   5.230   8.483 -0.3307  0.7511 -0.6098
  691MOL0     C93183  10.458   5.194   8.544  0.6862 -0.2310 -0.4508
  691MOL0     C93184  10.564   5.289   8.551 -0.6200  0.1251  0.1943
  691MOL0     O93185  10.682   5.252   8.609 -0.9355 -0.2374  0.0592
  691MOL0     C93186  10.796   5.337   8.607  0.8705  0.2199  0.3726
  691MOL0     C93187  10.919   5.252   8.637 -0.1854 -0.8283 -0.6091
  691MOL0     C93188  10.931   5.136   8.534 -0.9968 -0.1574 -0.1046
  691MOL0     C93189  11.002   5.016   8.588  0.1873  0.5136  0.2758
  691MOL0     C93190  11.004   4.902   8.491  1.4386 -0.1692 -0.3665
  691MOL0     C93191  11.009   4.761   8.555  0.1579  0.2080 -0.0540
  691MOL0     C93192  11.013   4.654   8.435  0.5131  0.5658 -0.3128
  691MOL0     C93193  11.144   4.575   8.414 -0.0495 -0.0297  0.1536
  691MOL0    Cl93194  11.173   4.436   8.536  0.3900  0.2328  0.2072
  691MOL0     C93195  10.534   5.419   8.500 -0.6100 -0.2209 -0.3094
  691MOL0     C93196  10.418   5.448   8.436  0.3523 -0.7464 -0.0211
  691MOL0     O93197  10.121   5.187   8.278 -0.2280 -0.9997 -0.0861
  691MOL0     C93198   9.883   5.316   8.217  0.2244  0.0451  0.6334
  691MOL0     C93199   9.774   5.388   8.175  1.1849  0.0040 -0.3122
  691MOL0     N93200   9.423   5.564   7.579  0.1138  0.0175  0.2421
  691MOL0     N93201   9.396   5.479   7.486  0.3561  0.8619  0.4751
  691MOL0     C93202  10.130   4.782   7.313  0.7308  0.4990 -0.2315
  691MOL0     C93203  10.231   4.756   7.217  0.1992 -1.1138 -0.2278
  691MOL0     C93204  10.508   4.600   6.915 -1.7425 -0.1455 -0.0888
  691MOL0     C93205  10.585   4.693   6.845  0.0225  0.1189  0.3468
  691MOL0     C93206  10.708   4.666   6.792  0.2410 -0.1415 -0.4101
  691MOL0     C93207  10.763   4.540   6.800 -0.0057  0.9748 -0.0557
  691MOL0     O93208  10.879   4.493   6.759 -0.4224  0.2755  0.1304
  691MOL0     C93209  10.960   4.572   6.668 -0.0331 -0.1023 -0.4439
  691MOL0     C93210  11.090   4.506   6.613 -0.6092  0.0205  0.8390
  691MOL0     C93211  11.055   4.392   6.509 -0.0726 -0.5230  0.0803
  691MOL0     C93212  11.173   4.347   6.424 -0.5356  0.6252 -0.2318
  691MOL0     C93213  11.277   4.278   6.499 -1.0886  0.3462 -0.4643
  691MOL0     C93214  11.351   4.198   6.549  0.2417  1.1176 -0.5946
  691MOL0     C93215  10.690   4.439   6.873 -0.1691 -1.0966 -0.5032
  691MOL0     C93216  10.571   4.473   6.937  0.8210 -0.8079  0.2941
  691MOL0     C93217  10.505   4.370   7.024 -0.4773  0.1242  0.5029
  691MOL0     H93218  10.233   4.423   7.227  0.5656  1.3464 -4.7040
  691MOL0     H93219  10.051   4.454   7.394 -0.8774  0.1353  0.3710
  691MOL0     H93220   9.835   4.568   7.405 -0.0077 -0.6935  0.9796
  691MOL0     H93221   9.911   4.559   7.570 -2.3703 -0.6005  0.9934
  691MOL0     H93222   9.760   4.731   7.660  0.1545 -0.3826 -0.3469
  691MOL0     H93223   9.672   4.592   7.597 -0.2687 -0.5502 -0.6851
  691MOL0     H93224   9.648   4.717   7.389  2.3586 -1.5226 -0.6507
  691MOL0     H93225   9.738   4.857   7.442 -0.3335 -0.5144  1.5144
  691MOL0     H93226   9.507   4.752   7.618 -0.8320  1.1740  0.8417
  691MOL0     H93227   9.580   4.901   7.617 -0.6315 -2.9219  3.8764
  691MOL0     H93228   9.420   4.813   7.365 -1.4145 -1.5155  1.1043
  691MOL0     H93229   9.358   4.889   7.513  1.8514  2.1524  2.4211
  691MOL0     H93230   9.591   5.010   7.346  1.5166 -2.6830  2.0419
  691MOL0     H93231   9.420   5.036   7.308  0.3310 -0.8572 -0.5876
  691MOL0     H93232   9.542   5.133   7.574 -0.8807  0.4877  0.4528
  691MOL0     H93233   9.371   5.139   7.521  0.0467  0.4654  2.6197
  691MOL0     H93234   9.596   5.263   7.366 -0.2068  3.3356 -0.0530
  691MOL0     H93235   9.422   5.283   7.332 -0.4831 -0.4767  1.0041
  691MOL0     H93236   9.682   5.360   7.610 -2.0349 -3.4732 -2.8082
  691MOL0     H93237   9.709   5.567   7.778  1.6187  4.3872  0.8235
  691MOL0     H93238   9.660   5.699   7.667 -1.8359  1.6654  0.4307
  691MOL0     H93239   9.440   5.704   7.791  1.0730  2.8202 -1.0005
  691MOL0     H93240   9.496   5.566   7.891  3.3200 -0.7406  0.3148
  691MOL0     H93241   9.496   5.780   8.022 -0.3898 -0.5607  0.3489
  691MOL0     H93242   9.589   5.852   7.902  2.5557 -0.7484 -0.8423
  691MOL0     H93243   9.738   5.792   8.100  0.6349  0.3517  0.0372
  691MOL0     H93244   9.785   5.697   7.959 -0.0100  3.7948 -0.0428
  691MOL0     H93245   9.909   5.694   8.160 -0.3415  0.6138  0.3500
  691MOL0     H93246  10.106   5.568   8.248  0.3963 -0.0067 -1.0461
  691MOL0     H93247  10.259   5.152   8.472  0.1570 -0.0997  1.5488
  691MOL0     H93248  10.470   5.094   8.584  1.2311  0.9311  2.5681
  691MOL0     H93249  10.814   5.374   8.505  1.7386  1.1972  0.8528
  691MOL0     H93250  10.777   5.419   8.677 -2.3316 -1.5534  1.7925
  691MOL0     H93251  11.011   5.311   8.632 -0.6444 -0.0754 -0.3566
  691MOL0     H93252  10.906   5.218   8.741 -0.5885 -1.3878 -0.8383
  691MOL0     H93253  10.831   5.106   8.501 -1.8064  1.6302  0.5980
  691MOL0     H93254  10.987   5.167   8.445 -2.4167  2.1140 -0.2758
  691MOL0     H93255  10.947   4.996   8.681 -1.2575 -3.5397 -1.1972
  691MOL0     H93256  11.100   5.056   8.616  0.7077 -0.4323 -0.1230
  691MOL0     H93257  11.091   4.913   8.424  0.3303  3.6925 -1.4793
  691MOL0     H93258  10.917   4.915   8.427 -0.0852  1.4063  1.8738
  691MOL0     H93259  11.098   4.739   8.615  0.1173 -1.8040 -0.6797
  691MOL0     H93260  10.921   4.743   8.617 -0.5835  2.3502 -0.3838
  691MOL0     H93261  11.004   4.718   8.346 -0.2048  1.5203  0.4279
  691MOL0     H93262  10.926   4.588   8.444 -0.0637  1.4340  0.8639
  691MOL0     H93263  11.135   4.529   8.315  0.5398 -0.4449  0.2913
  691MOL0     H93264  11.234   4.637   8.418  0.1915 -0.2289 -1.5471
  691MOL0     H93265  10.606   5.499   8.514  2.4818 -2.9571  0.8254
  691MOL0     H93266  10.413   5.545   8.387 -0.1820 -0.8643 -0.2021
  691MOL0     H93267   9.871   5.209   8.225 -0.0872 -0.0177 -0.4304
  691MOL0     H93268   9.682   5.339   8.144  1.6224  0.7046 -3.0067
  691MOL0     H93269  10.108   4.887   7.327  0.3685  0.4726 -0.5985
  691MOL0     H93270  10.269   4.846   7.171 -1.8090  0.2977  0.7234
  691MOL0     H93271  10.546   4.794   6.836  1.7354  0.9703  1.7505
  691MOL0     H93272  10.764   4.749   6.749  3.1996 -0.1257  3.0304
  691MOL0     H93273  10.990   4.658   6.728 -0.3811  0.1064 -0.5670
  691MOL0     H93274  10.901   4.619   6.589  1.8936 -0.3066 -2.0643
  691MOL0     H93275  11.144   4.457   6.695  0.6766  0.3117  0.1923
  691MOL0     H93276  11.159   4.579   6.570 -0.0598 -0.2039  1.3227
  691MOL0     H93277  10.976   4.425   6.441 -0.1101  0.0028  0.3776
  691MOL0     H93278  11.021   4.313   6.576  1.2849 -0.7667  0.5115
  691MOL0     H93279  11.135   4.285   6.342 -2.6606  1.1740  0.2731
  691MOL0     H93280  11.214   4.438   6.381  1.2110  0.5492  1.1485
  691MOL0     H93281  11.422   4.121   6.576  0.8723  1.6816 -0.6052
  691MOL0     H93282  10.735   4.341   6.881 -0.1060 -1.0012  0.4036
  691MOL0     H93283  10.545   4.368   7.126  0.0371 -0.6611  0.2919
  691MOL0     H93284  10.396   4.376   7.035 -1.0448  1.4593 -3.9090
  691MOL0     H93285  10.526   4.274   6.977 -1.7398 -0.8736  1.8618
  692MOL0     O93286   3.149   8.843   9.668  0.8042 -0.4477  0.0198
  692MOL0     C93287   3.175   8.957   9.638  0.1569  0.3224  0.1189
  692MOL0     O93288   3.193   9.057   9.731 -0.7235 -0.0096  0.1986
  692MOL0     C93289   3.183   9.014   9.859 -0.0454 -0.8208  0.1168
  692MOL0     C93290   3.077   9.074   9.930  0.0131  1.0748 -0.2288
  692MOL0     C93291   3.048   9.027  10.063  0.0625 -0.4076  0.9888
  692MOL0     C93292   3.127   8.930  10.123 -0.3637 -0.0285 -0.0585
  692MOL0     O93293   3.087   8.890  10.246  0.7438  0.1469 -0.8250
  692MOL0     C93294   3.178   8.818  10.330 -0.4829  1.1745  0.7435
  692MOL0     C93295   3.124   8.829  10.481 -0.4344  0.8875  0.1596
  692MOL0     C93296   3.243   8.813  10.581 -0.1343  0.5671  0.3397
  692MOL0     C93297   3.189   8.847  10.724  0.7580 -1.2400  0.3076
  692MOL0     C93298   3.300   8.835  10.834 -0.0797 -0.6601 -0.0579
  692MOL0     C93299   3.341   8.691  10.869 -0.6319 -0.6455 -1.2909
  692MOL0     C93300   3.411   8.683  11.012 -0.5102 -0.2613  0.4545
  692MOL0     C93301   3.529   8.777  11.027  0.4282 -0.8295 -0.8362
  692MOL0     N93302   3.622   8.722  11.126 -0.1510  0.8773  0.6095
  692MOL0     C93303   3.596   8.731  11.260 -1.2933 -0.3302  0.3750
  692MOL0     C93304   3.717   8.693  11.315  0.9411  0.0583 -1.1645
  692MOL0     C93305   3.718   8.662  11.467 -0.1609 -0.1732 -0.6843
  692MOL0     C93306   3.853   8.679  11.544  0.2936  0.1603 -0.1027
  692MOL0     C93307   3.956   8.577  11.500  0.6329 -0.0308  0.0002
  692MOL0     C93308   4.071   8.593  11.598 -0.2955  1.0946  0.1122
  692MOL0     O93309   4.195   8.552  11.538 -0.4807 -0.3538 -0.0217
  692MOL0     C93310   4.318   8.549  11.605  0.1196  0.7117  0.9572
  692MOL0     C93311   4.418   8.470  11.555 -0.7830  1.1045  0.6876
  692MOL0     C93312   4.545   8.467  11.613 -0.7131 -0.7329 -0.3840
  692MOL0     C93313   4.585   8.548  11.725 -0.2066  0.7148 -0.6159
  692MOL0     C93314   4.724   8.555  11.784  1.0897  0.2702 -0.0923
  692MOL0     O93315   4.815   8.482  11.714 -0.1708  0.5717 -0.2778
  692MOL0     C93316   4.954   8.501  11.742  0.6078 -0.2482 -0.7880
  692MOL0     C93317   5.043   8.499  11.639 -0.3074 -0.9032  0.6367
  692MOL0     C93318   5.184   8.521  11.655  0.3201  0.2317  0.4017
  692MOL0     C93319   5.235   8.544  11.787  0.2985 -0.2333  0.6694
  692MOL0     O93320   5.370   8.550  11.809 -0.5382 -0.1013 -0.4094
  692MOL0     C93321   5.466   8.545  11.700  0.0291  1.1054 -0.3927
  692MOL0     C93322   5.608   8.573  11.761 -0.0108  0.8563 -0.3638
  692MOL0     C93323   5.703   8.606  11.652  0.0138 -0.1510  0.6334
  692MOL0     C93324   5.845   8.634  11.703 -0.2762 -0.8578 -1.3074
  692MOL0     C93325   5.920   8.506  11.764  0.9049  0.4784  0.2880
  692MOL0     C93326   6.043   8.546  11.844  0.1602 -0.5498  0.6567
  692MOL0     C93327   6.088   8.426  11.930 -0.4460  0.3216 -0.1229
  692MOL0     C93328   6.225   8.449  12.000  0.4846 -0.4785  0.4181
  692MOL0    Cl93329   6.355   8.433  11.874 -0.2216 -0.2950  0.2844
  692MOL0     C93330   5.143   8.540  11.889  0.2850 -0.0552 -0.4833
  692MOL0     C93331   5.009   8.522  11.874  0.8239 -0.5079  0.6948
  692MOL0     O93332   4.749   8.640  11.865  1.1127  0.3827  0.7117
  692MOL0     C93333   4.474   8.622  11.775 -0.5493 -0.0817 -0.2813
  692MOL0     C93334   4.345   8.626  11.719  0.7556 -0.1597  0.4721
  692MOL0     N93335   3.802   8.660  11.214 -0.5902  0.5296 -0.3628
  692MOL0     N93336   3.742   8.665  11.105 -0.4178  0.0817  0.9237
  692MOL0     C93337   3.224   8.862  10.051  0.0145 -0.0278  0.0151
  692MOL0     C93338   3.255   8.900   9.919  0.9799 -0.6152  0.3235
  692MOL0     C93339   3.179   8.995   9.496  0.3230 -0.4024 -0.4806
  692MOL0     C93340   3.197   9.137   9.469  0.7158  0.3271  0.2336
  692MOL0     C93341   3.196   9.192   9.335 -0.7246  0.1208 -0.7389
  692MOL0     C93342   3.168   9.104   9.230  0.6474  0.6086  0.0276
  692MOL0     O93343   3.158   9.134   9.098  0.6038 -0.4942 -0.2700
  692MOL0     C93344   3.152   9.268   9.061  0.1325 -1.1559  0.7119
  692MOL0     C93345   3.104   9.285   8.912  0.1285  0.4593 -0.0192
  692MOL0     C93346   2.955   9.244   8.882  0.2743 -0.7106  0.6225
  692MOL0     C93347   2.904   9.289   8.737  0.1634 -0.5152  0.0787
  692MOL0     C93348   2.949   9.193   8.634  0.3075 -0.5558 -0.3096
  692MOL0     C93349   2.992   9.119   8.550 -0.3898 -0.3346  0.5980
  692MOL0     C93350   3.154   8.973   9.255  0.5583  0.3858  0.2337
  692MOL0     C93351   3.152   8.916   9.384 -0.2130  0.3136 -0.9607
  692MOL0     C93352   3.113   8.770   9.390  0.8579 -1.1011 -0.8140
  692MOL0     H93353   3.011   9.138   9.871 -2.4759 -2.2628 -1.3860
  692MOL0     H93354   2.974   9.071  10.129 -0.0532  1.6048 -0.3807
  692MOL0     H93355   3.181   8.714  10.296 -2.2848  1.5213 -0.6233
  692MOL0     H93356   3.270   8.876  10.317 -2.8811  5.5963  1.5430
  692MOL0     H93357   3.046   8.754  10.492  0.8927 -0.3692  1.7062
  692MOL0     H93358   3.072   8.924  10.494 -2.2480 -0.2784  1.9757
  692MOL0     H93359   3.333   8.866  10.548  1.7215 -1.6389  1.5978
  692MOL0     H93360   3.262   8.706  10.582  0.5241  0.6751 -0.0608
  692MOL0     H93361   3.144   8.947  10.726 -0.6744 -1.8514  2.8290
  692MOL0     H93362   3.112   8.771  10.743 -1.3296  0.2749 -1.5547
  692MOL0     H93363   3.389   8.889  10.802  1.1456 -2.0193  0.9488
  692MOL0     H93364   3.250   8.880  10.919  0.4670 -1.8033  0.9034
  692MOL0     H93365   3.252   8.628  10.862 -3.5259  3.0989 -1.3348
  692MOL0     H93366   3.415   8.664  10.793  2.4109 -0.2728  1.3345
  692MOL0     H93367   3.444   8.583  11.041  0.3075  0.3220  1.6256
  692MOL0     H93368   3.337   8.714  11.085 -2.1157  0.5059 -1.4043
  692MOL0     H93369   3.583   8.781  10.932  1.1302  1.7125 -0.4154
  692MOL0     H93370   3.507   8.883  11.046 -3.8062 -1.7399  0.2917
  692MOL0     H93371   3.512   8.760  11.323 -0.1255  1.5435  1.1394
  692MOL0     H93372   3.655   8.735  11.519  2.2018 -0.2911  2.5872
  692MOL0     H93373   3.681   8.561  11.484  0.6124 -0.5059 -0.9516
  692MOL0     H93374   3.894   8.779  11.529 -2.4663  1.7784  2.0885
  692MOL0     H93375   3.835   8.664  11.650  0.4771 -1.7870 -0.3241
  692MOL0     H93376   3.989   8.615  11.403 -1.2158  0.5631 -0.4481
  692MOL0     H93377   3.924   8.474  11.486 -0.3855  0.0530  1.4402
  692MOL0     H93378   4.057   8.526  11.684  0.9820  0.1872 -0.3607
  692MOL0     H93379   4.077   8.694  11.639  0.6041  0.4403  1.6763
  692MOL0     H93380   4.392   8.405  11.472  2.0035  0.3923  0.2834
  692MOL0     H93381   4.620   8.396  11.581  0.9587  0.6122  0.3786
  692MOL0     H93382   4.999   8.474  11.543  0.6288 -3.5069  0.8131
  692MOL0     H93383   5.244   8.508  11.566 -2.1461  0.1042 -1.3691
  692MOL0     H93384   5.463   8.449  11.649 -2.1918  0.2327  1.2132
  692MOL0     H93385   5.438   8.630  11.636 -1.0376  1.2973  0.2985
  692MOL0     H93386   5.607   8.650  11.838  0.3050 -1.5533  2.2252
  692MOL0     H93387   5.636   8.480  11.811 -3.5564 -0.1484  0.0334
  692MOL0     H93388   5.712   8.517  11.588  1.8813 -0.2895  1.0119
  692MOL0     H93389   5.658   8.681  11.587 -1.2172 -2.5987 -1.5202
  692MOL0     H93390   5.840   8.704  11.786  2.3473 -2.4114  0.3129
  692MOL0     H93391   5.902   8.678  11.620  0.2758 -0.3678 -0.6826
  692MOL0     H93392   5.925   8.441  11.677 -5.0386  0.8717 -0.7600
  692MOL0     H93393   5.856   8.453  11.835  0.3646  4.7260  3.3760
  692MOL0     H93394   6.115   8.594  11.777  0.4402 -2.4577 -0.4819
  692MOL0     H93395   6.025   8.626  11.917  2.8383  1.4597 -0.6813
  692MOL0     H93396   6.096   8.330  11.878  1.4506  1.0600 -1.2947
  692MOL0     H93397   6.008   8.421  12.003  0.1164 -0.3453  0.4719
  692MOL0     H93398   6.218   8.554  12.030 -1.8419  0.0171 -1.5812
  692MOL0     H93399   6.256   8.379  12.078  1.1276 -0.4084  0.2284
  692MOL0     H93400   5.192   8.567  11.982 -0.7375 -1.4851  0.5226
  692MOL0     H93401   4.947   8.502  11.961  0.6365 -0.5818  0.5444
  692MOL0     H93402   4.492   8.702  11.846 -2.2687 -0.7608  0.9832
  692MOL0     H93403   4.268   8.696  11.750 -2.0780 -3.3329  1.2179
  692MOL0     H93404   3.287   8.781  10.088  1.3151 -0.2295 -2.4127
  692MOL0     H93405   3.325   8.842   9.860  0.5924 -0.3253 -0.4367
  692MOL0     H93406   3.207   9.217   9.543 -0.6418  0.5532  0.1888
  692MOL0     H93407   3.208   9.300   9.328 -1.9020  0.2535 -1.0020
  692MOL0     H93408   3.250   9.315   9.070 -0.5573  0.5571 -0.2939
  692MOL0     H93409   3.086   9.321   9.130  1.0678 -1.2703  1.7296
  692MOL0     H93410   3.168   9.223   8.848  1.2234 -0.2728  1.7346
  692MOL0     H93411   3.117   9.390   8.882  0.6982  1.2932  2.8722
  692MOL0     H93412   2.916   9.299   8.969 -0.1703 -1.1182  0.6836
  692MOL0     H93413   2.945   9.136   8.898  2.2860 -1.3151 -1.6210
  692MOL0     H93414   2.796   9.308   8.735  0.0834 -0.7609  1.2940
  692MOL0     H93415   2.952   9.384   8.712  0.4228 -0.7535 -0.3272
  692MOL0     H93416   3.012   9.054   8.467  0.3914 -0.3816  0.8135
  692MOL0     H93417   3.123   8.911   9.171  4.0701 -2.4846  0.8399
  692MOL0     H93418   3.019   8.756   9.443  1.5793 -2.3193  0.1939
  692MOL0     H93419   3.093   8.726   9.292 -1.2928  0.6446 -1.2464
  692MOL0     H93420   3.196   8.710   9.428  0.0810 -1.6915 -0.0342
  693MOL0     O93421  10.848   0.268   4.076  0.2493  0.4111 -0.0515
  693MOL0     C93422  10.833   0.363   4.006 -0.1737 -0.7600  0.0186
  693MOL0     O93423  10.912   0.478   3.995  0.0420 -0.2281  0.1232
  693MOL0     C93424  11.029   0.473   4.065 -0.5569 -0.1856 -0.3946
  693MOL0     C93425  11.032   0.482   4.208 -0.3217 -0.0237  0.8307
  693MOL0     C93426  11.148   0.472   4.281  0.3227 -0.1388  0.5790
  693MOL0     C93427  11.272   0.474   4.220 -0.6041  0.1344 -0.1717
  693MOL0     O93428  11.381   0.474   4.300 -0.7453 -0.4332 -0.3739
  693MOL0     C93429  11.514   0.450   4.248  0.8646  0.1522 -0.4339
  693MOL0     C93430  11.625   0.483   4.349  1.2153 -0.2596  0.4988
  693MOL0     C93431  11.761   0.457   4.274 -0.2451  0.1269  0.3495
  693MOL0     C93432  11.884   0.476   4.356 -0.2540 -0.1697 -0.5279
  693MOL0     C93433  12.020   0.441   4.310 -0.2415 -0.3425 -0.5122
  693MOL0     C93434  12.042   0.289   4.291  0.3672 -0.4278 -0.5357
  693MOL0     C93435  12.185   0.262   4.246 -0.3470 -0.2260  0.4839
  693MOL0     C93436  12.293   0.308   4.348 -1.0347  0.1999  0.3946
  693MOL0     N93437  12.427   0.258   4.321  0.0029 -0.1876  0.2461
  693MOL0     C93438  12.496   0.272   4.202  0.3200  1.2688  0.7108
  693MOL0     C93439  12.610   0.203   4.222  0.8423 -0.2812  0.8841
  693MOL0     C93440  12.700   0.170   4.117  1.0671  0.0370  0.3617
  693MOL0     C93441  12.834   0.231   4.148  0.2687 -0.2433 -0.2325
  693MOL0     C93442  12.909   0.234   4.021 -0.4555  0.0729  0.1085
  693MOL0     C93443  13.052   0.300   4.056 -0.3404 -0.3790 -0.8516
  693MOL0     O93444  13.141   0.190   4.046 -0.3605  0.2216  0.1816
  693MOL0     C93445  13.263   0.214   3.989 -0.0634  0.8102 -0.8341
  693MOL0     C93446  13.338   0.319   4.032 -0.5505 -0.3467  0.5556
  693MOL0     C93447  13.465   0.344   3.968 -0.0950 -1.0521 -0.8569
  693MOL0     C93448  13.506   0.266   3.853  0.4303 -0.0147  0.3416
  693MOL0     C93449  13.616   0.285   3.758 -0.9447 -0.1557 -1.0938
  693MOL0     O93450  13.599   0.257   3.629  0.1062 -0.1466 -0.4136
  693MOL0     C93451  13.709   0.255   3.554  0.5749 -0.4612  0.2024
  693MOL0     C93452  13.783   0.367   3.534  0.1589 -0.1661 -0.0017
  693MOL0     C93453  13.893   0.367   3.450  0.2219 -0.2917  0.2500
  693MOL0     C93454  13.918   0.256   3.377  0.7212  0.6655 -0.5092
  693MOL0     O93455  14.012   0.269   3.283 -0.5875 -0.7775 -0.9140
  693MOL0     C93456  14.036   0.166   3.181 -0.4365 -0.3666 -0.9912
  693MOL0     C93457  14.174   0.150   3.117 -0.4953 -0.1810 -0.3539
  693MOL0     C93458  14.235   0.275   3.058  0.1743  0.6797 -0.1219
  693MOL0     C93459  14.290   0.369   3.168 -0.0628 -0.5972 -0.2257
  693MOL0     C93460  14.290   0.508   3.103  0.6718 -0.1505  0.5596
  693MOL0     C93461  14.345   0.606   3.208  0.1437 -0.2670 -0.8680
  693MOL0     C93462  14.491   0.591   3.255 -0.7295 -1.1912  0.1229
  693MOL0     C93463  14.542   0.709   3.338  0.1405 -0.4051 -0.8763
  693MOL0    Cl93464  14.558   0.858   3.230 -0.1087 -0.2282 -0.3160
  693MOL0     C93465  13.854   0.131   3.407  0.3731  0.2140 -0.5707
  693MOL0     C93466  13.746   0.135   3.498  0.4292 -0.1466 -0.3643
  693MOL0     O93467  13.719   0.327   3.813  1.3156 -0.2254  0.5453
  693MOL0     C93468  13.419   0.163   3.811 -0.1804 -0.6573 -0.0522
  693MOL0     C93469  13.306   0.136   3.887 -0.5225  0.3440 -0.3679
  693MOL0     N93470  12.610   0.158   4.351 -0.2007 -0.3980  0.3525
  693MOL0     N93471  12.504   0.197   4.420 -0.0689 -0.0090  0.5245
  693MOL0     C93472  11.274   0.473   4.079 -0.2260  0.1011  0.2006
  693MOL0     C93473  11.157   0.470   4.002  0.3045 -1.1367 -0.5989
  693MOL0     C93474  10.729   0.368   3.903  0.3300  0.9787 -0.6783
  693MOL0     C93475  10.763   0.415   3.779  0.3763  0.2297  0.2469
  693MOL0     C93476  10.665   0.396   3.672 -2.3901  0.4935 -0.7363
  693MOL0     C93477  10.537   0.345   3.699  0.4213  0.1085  0.6636
  693MOL0     O93478  10.438   0.341   3.601 -0.2233  0.5483  1.3849
  693MOL0     C93479  10.385   0.463   3.564 -0.0180 -0.5642  0.6336
  693MOL0     C93480  10.260   0.450   3.485 -0.7668  0.6700 -0.1001
  693MOL0     C93481  10.184   0.579   3.491  0.4345 -0.0075 -0.3382
  693MOL0     C93482  10.096   0.607   3.370 -0.4146  0.5032 -0.1561
  693MOL0     C93483   9.996   0.715   3.392 -1.0700  0.4480  0.3055
  693MOL0     C93484   9.926   0.815   3.408 -0.4887 -0.2991 -0.1274
  693MOL0     C93485  10.504   0.305   3.827  0.3321 -0.0377  0.8931
  693MOL0     C93486  10.600   0.312   3.928  0.1500 -0.7144 -0.2032
  693MOL0     C93487  10.550   0.253   4.062 -0.2152 -1.3275  1.0751
  693MOL0     H93488  10.935   0.484   4.257 -0.6183 -0.7949  0.3062
  693MOL0     H93489  11.143   0.480   4.389  3.6964 -5.3507  1.4614
  693MOL0     H93490  11.514   0.352   4.199 -0.8137  1.0923 -2.4930
  693MOL0     H93491  11.529   0.528   4.172 -1.6588  0.2900 -0.8880
  693MOL0     H93492  11.620   0.420   4.438 -1.1607  0.2531  0.7870
  693MOL0     H93493  11.620   0.586   4.384 -0.7687  0.7542 -2.4353
  693MOL0     H93494  11.779   0.535   4.199 -1.1077  0.1685  0.1816
  693MOL0     H93495  11.762   0.356   4.233 -1.0322  0.5532 -0.7503
  693MOL0     H93496  11.883   0.583   4.382 -1.4531 -0.7080  1.9234
  693MOL0     H93497  11.871   0.411   4.443  0.7165  2.2782  1.5773
  693MOL0     H93498  12.038   0.478   4.209  1.4912  0.3575  0.0057
  693MOL0     H93499  12.098   0.487   4.371  1.0540 -0.4829 -1.9974
  693MOL0     H93500  12.014   0.239   4.385  1.8370  1.9348  1.2890
  693MOL0     H93501  11.970   0.249   4.219  0.3930  0.5485 -1.1223
  693MOL0     H93502  12.201   0.303   4.146 -1.5241 -0.4665  0.1770
  693MOL0     H93503  12.189   0.153   4.248  1.0423 -0.1727  1.4471
  693MOL0     H93504  12.301   0.417   4.345  0.8445  0.2578  3.4203
  693MOL0     H93505  12.263   0.275   4.448 -0.0565 -0.2290  0.5555
  693MOL0     H93506  12.462   0.313   4.107 -0.6270 -0.7755  0.1062
  693MOL0     H93507  12.710   0.061   4.105 -0.1940 -0.1233  0.6755
  693MOL0     H93508  12.666   0.206   4.020  3.5306 -1.0058 -0.9987
  693MOL0     H93509  12.823   0.337   4.174  0.0856 -0.5053  0.8214
  693MOL0     H93510  12.896   0.182   4.223  2.3812  1.0531 -1.0283
  693MOL0     H93511  12.851   0.278   3.940  1.7240 -0.8508 -2.0966
  693MOL0     H93512  12.928   0.132   3.988  0.9900 -0.1288  1.4250
  693MOL0     H93513  13.049   0.330   4.161  5.8153  0.2324 -0.5165
  693MOL0     H93514  13.062   0.386   3.989 -0.3420  0.6510  0.4233
  693MOL0     H93515  13.304   0.376   4.119  3.0306  0.8582  1.3204
  693MOL0     H93516  13.510   0.437   4.001  1.1781 -0.4748 -3.8799
  693MOL0     H93517  13.753   0.459   3.582  1.0912 -0.3848  1.0407
  693MOL0     H93518  13.957   0.454   3.437 -0.3811 -0.0124 -1.1211
  693MOL0     H93519  14.018   0.061   3.207 -2.1517 -0.0870 -0.8864
  693MOL0     H93520  13.969   0.192   3.097 -0.3953 -1.4909 -1.3924
  693MOL0     H93521  14.247   0.121   3.193 -0.5902  0.1268 -0.1419
  693MOL0     H93522  14.175   0.075   3.038  2.1726 -2.7895  1.9384
  693MOL0     H93523  14.319   0.245   2.996 -0.5535  0.1323 -0.8708
  693MOL0     H93524  14.171   0.326   2.986 -0.9746  0.9407  1.0381
  693MOL0     H93525  14.393   0.340   3.192 -0.7652 -0.5207  3.4599
  693MOL0     H93526  14.228   0.368   3.259  0.5916  0.5843  0.2629
  693MOL0     H93527  14.185   0.526   3.078  0.2875 -1.4270  1.2012
  693MOL0     H93528  14.362   0.523   3.022  1.4984 -1.0570  1.1009
  693MOL0     H93529  14.318   0.708   3.181 -1.8432 -0.5043  0.1074
  693MOL0     H93530  14.278   0.581   3.290  2.0549  2.6800  1.7952
  693MOL0     H93531  14.546   0.574   3.163  0.2482 -0.3995  0.5381
  693MOL0     H93532  14.488   0.496   3.308 -1.2771 -2.1038 -1.4736
  693MOL0     H93533  14.485   0.726   3.430 -0.0493 -0.7153 -0.9347
  693MOL0     H93534  14.642   0.680   3.371 -0.2869 -0.3944  0.4678
  693MOL0     H93535  13.888   0.033   3.374  2.5993 -0.0585  2.2092
  693MOL0     H93536  13.694   0.045   3.528 -0.3682  0.2487 -0.5388
  693MOL0     H93537  13.437   0.105   3.721  3.7402 -0.6265  0.5273
  693MOL0     H93538  13.244   0.052   3.856  0.8942 -1.7883  2.1513
  693MOL0     H93539  11.369   0.465   4.027 -0.8504 -1.6348 -0.7605
  693MOL0     H93540  11.167   0.459   3.895 -2.8095 -2.8004 -0.8353
  693MOL0     H93541  10.863   0.453   3.761  1.3445 -1.2560  2.1263
  693MOL0     H93542  10.685   0.408   3.566 -1.0580 -0.4542 -0.6266
  693MOL0     H93543  10.468   0.510   3.509  2.7268 -0.0872  4.7766
  693MOL0     H93544  10.366   0.519   3.656  0.5946 -0.2256  0.5582
  693MOL0     H93545  10.205   0.371   3.537  0.3995  1.6649  2.9088
  693MOL0     H93546  10.271   0.427   3.379 -0.4663 -1.4539  0.3340
  693MOL0     H93547  10.254   0.663   3.499 -0.4963  0.7613  0.0224
  693MOL0     H93548  10.117   0.574   3.578  0.6225  1.0875 -0.1066
  693MOL0     H93549  10.169   0.649   3.300 -2.5441  1.5292 -1.8668
  693MOL0     H93550  10.051   0.513   3.336 -1.2404  0.8944 -0.1681
  693MOL0     H93551   9.861   0.900   3.417  0.1171  0.0936  0.7447
  693MOL0     H93552  10.408   0.257   3.846  0.8351 -0.6085  2.0826
  693MOL0     H93553  10.614   0.169   4.091  1.7970  0.1124  1.0413
  693MOL0     H93554  10.557   0.329   4.141 -0.8934  0.2356 -0.2869
  693MOL0     H93555  10.443   0.237   4.069 -0.2506 -2.2906 -1.0301
  694MOL0     O93556   8.809   1.384   6.678  0.2989 -0.0210 -0.3704
  694MOL0     C93557   8.780   1.456   6.775  1.4527 -0.3295 -0.4127
  694MOL0     O93558   8.809   1.589   6.783  1.2121 -0.0885  0.1175
  694MOL0     C93559   8.926   1.639   6.728 -0.7094  0.8095  0.5880
  694MOL0     C93560   9.045   1.577   6.703 -0.2210  0.3371  0.7852
  694MOL0     C93561   9.160   1.636   6.647  1.1090 -0.0239  0.0238
  694MOL0     C93562   9.152   1.772   6.606 -0.0617 -0.4961  0.0529
  694MOL0     O93563   9.242   1.835   6.531 -0.9115  0.2642 -0.0620
  694MOL0     C93564   9.374   1.771   6.505  0.2443 -0.8624  0.3787
  694MOL0     C93565   9.441   1.840   6.379 -0.5155 -0.3641 -0.2379
  694MOL0     C93566   9.568   1.759   6.345 -0.7495  0.0106 -1.1269
  694MOL0     C93567   9.670   1.749   6.464  1.2576  0.1373 -0.6855
  694MOL0     C93568   9.805   1.690   6.419  0.5837 -0.1981 -0.6166
  694MOL0     C93569   9.897   1.695   6.533 -0.3199  0.2303 -0.5793
  694MOL0     C93570  10.038   1.637   6.504  0.3430 -0.2262 -0.8100
  694MOL0     C93571  10.113   1.628   6.636 -0.6486  0.1765 -0.6763
  694MOL0     N93572  10.233   1.549   6.601  0.0608  0.1861 -0.1181
  694MOL0     C93573  10.350   1.608   6.560 -0.3042 -0.2712 -0.1781
  694MOL0     C93574  10.428   1.520   6.505 -0.0246 -0.1443 -0.1968
  694MOL0     C93575  10.566   1.533   6.447  0.7707 -0.0953 -0.3687
  694MOL0     C93576  10.672   1.589   6.553  0.4946 -0.0035 -0.4329
  694MOL0     C93577  10.792   1.632   6.468 -0.8308 -0.0929 -0.0668
  694MOL0     C93578  10.907   1.697   6.554 -0.8422 -1.1616  0.4497
  694MOL0     O93579  11.024   1.722   6.488 -0.0867  0.3370 -0.7240
  694MOL0     C93580  11.123   1.783   6.563  0.1043  0.7972 -0.5804
  694MOL0     C93581  11.099   1.868   6.674  0.2428 -0.1467  0.4579
  694MOL0     C93582  11.211   1.923   6.737  0.0436 -0.0729 -0.5998
  694MOL0     C93583  11.341   1.890   6.696 -0.5747 -0.0238 -0.2299
  694MOL0     C93584  11.457   1.953   6.771  0.9323 -0.7170  0.3362
  694MOL0     O93585  11.427   2.065   6.849  0.0136  0.1770 -0.4314
  694MOL0     C93586  11.532   2.146   6.878 -0.3183 -0.1383  0.7820
  694MOL0     C93587  11.608   2.114   6.995  0.7683 -0.5229  1.3959
  694MOL0     C93588  11.725   2.191   7.021  0.3918  0.0123 -0.3767
  694MOL0     C93589  11.769   2.294   6.939  0.0838 -0.4086  1.0339
  694MOL0     O93590  11.884   2.350   6.973 -0.2516 -0.2961  0.1982
  694MOL0     C93591  11.952   2.441   6.887  0.4861 -0.1340  0.2547
  694MOL0     C93592  12.028   2.368   6.776  0.3784  0.3041  0.0359
  694MOL0     C93593  12.122   2.443   6.688 -0.0697 -0.7753 -0.3099
  694MOL0     C93594  12.048   2.523   6.583  0.1103  0.5639  0.3479
  694MOL0     C93595  12.130   2.603   6.495 -0.7674  0.7174  0.5309
  694MOL0     C93596  12.188   2.524   6.376 -0.2556  0.8670 -0.0092
  694MOL0     C93597  12.266   2.610   6.279 -0.2327 -0.0063 -0.4595
  694MOL0     C93598  12.359   2.539   6.183 -0.4361  0.1915  0.8202
  694MOL0    Cl93599  12.499   2.462   6.265  0.0633  0.4231  0.2753
  694MOL0     C93600  11.693   2.322   6.823  0.4708 -0.0821  0.2885
  694MOL0     C93601  11.571   2.248   6.792 -0.6615 -0.4815  0.2122
  694MOL0     O93602  11.570   1.922   6.731  0.0137  0.2940 -0.0284
  694MOL0     C93603  11.362   1.798   6.595  0.2622 -0.0437  0.1243
  694MOL0     C93604  11.252   1.750   6.525  0.3766  0.3371  1.5029
  694MOL0     N93605  10.359   1.404   6.521  0.7932 -0.5949  0.1988
  694MOL0     N93606  10.241   1.425   6.557  0.2929 -0.3733  0.4091
  694MOL0     C93607   9.034   1.838   6.627 -0.6969  0.0633 -0.6478
  694MOL0     C93608   8.922   1.777   6.680  0.5087  0.6364 -0.9636
  694MOL0     C93609   8.683   1.408   6.876 -0.3967 -0.4820 -0.1171
  694MOL0     C93610   8.594   1.494   6.939  0.2419  0.0093  0.4284
  694MOL0     C93611   8.499   1.454   7.024  0.1002 -0.7356 -0.9293
  694MOL0     C93612   8.474   1.321   7.048 -0.2505 -0.5809 -0.2356
  694MOL0     O93613   8.356   1.283   7.098 -0.2855 -0.2412  0.8812
  694MOL0     C93614   8.263   1.230   6.996  0.4329 -0.6746  0.6903
  694MOL0     C93615   8.229   1.331   6.881 -0.4894 -0.3548  0.0630
  694MOL0     C93616   8.143   1.444   6.922 -0.0469 -0.2389 -0.3459
  694MOL0     C93617   8.009   1.405   6.988 -0.2996 -0.1226  0.4945
  694MOL0     C93618   7.932   1.521   7.024 -0.4446  1.0022  0.0715
  694MOL0     C93619   7.853   1.597   7.060  0.3193 -0.4110 -0.7333
  694MOL0     C93620   8.567   1.231   6.988  1.5597 -0.0992  0.1905
  694MOL0     C93621   8.665   1.268   6.902 -0.4113 -1.0284  0.7129
  694MOL0     C93622   8.769   1.163   6.866  0.2325 -0.9869  0.7372
  694MOL0     H93623   9.049   1.469   6.713  2.7742  0.0602 -1.7577
  694MOL0     H93624   9.240   1.565   6.630  0.4928 -0.7937  0.2451
  694MOL0     H93625   9.428   1.793   6.597 -2.3125 -1.8428  2.2380
  694MOL0     H93626   9.366   1.664   6.484  1.2776 -0.4840 -2.3551
  694MOL0     H93627   9.467   1.941   6.411 -1.0285 -0.6233  1.0915
  694MOL0     H93628   9.371   1.853   6.296 -0.0629  2.0291 -0.3079
  694MOL0     H93629   9.619   1.798   6.256  2.8838  0.5550  0.9929
  694MOL0     H93630   9.529   1.658   6.331  0.0395 -0.5525  0.5077
  694MOL0     H93631   9.679   1.846   6.514  3.1234  0.6046 -1.8278
  694MOL0     H93632   9.625   1.681   6.536  2.5831 -1.8095 -1.6220
  694MOL0     H93633   9.785   1.589   6.381 -1.6102  0.5105 -1.4997
  694MOL0     H93634   9.840   1.750   6.335 -2.8531  2.5677 -0.3161
  694MOL0     H93635   9.912   1.799   6.562 -0.6167 -0.1911  1.2720
  694MOL0     H93636   9.858   1.647   6.623  1.9098 -1.3291 -0.3439
  694MOL0     H93637  10.081   1.701   6.426 -1.7300 -0.1137 -1.9200
  694MOL0     H93638  10.014   1.539   6.462 -1.4698  0.0213 -0.4200
  694MOL0     H93639  10.143   1.727   6.673  0.7671 -0.6464  0.4586
  694MOL0     H93640  10.063   1.575   6.718 -0.5511  0.8930 -0.1439
  694MOL0     H93641  10.368   1.715   6.562  0.3011 -0.3600 -0.5349
  694MOL0     H93642  10.583   1.433   6.406 -1.8201 -1.0275  0.5993
  694MOL0     H93643  10.558   1.608   6.369 -2.3741  1.2235  1.0478
  694MOL0     H93644  10.625   1.683   6.586 -0.0433  0.2474 -1.8444
  694MOL0     H93645  10.699   1.528   6.640 -0.6709 -0.4600 -0.3772
  694MOL0     H93646  10.768   1.697   6.383 -0.8619 -0.2821 -0.2050
  694MOL0     H93647  10.831   1.545   6.414 -2.6559  1.3215 -4.1069
  694MOL0     H93648  10.926   1.626   6.635  1.9765  0.2132  1.1347
  694MOL0     H93649  10.871   1.791   6.598 -0.5862  0.2271 -2.0999
  694MOL0     H93650  11.001   1.904   6.703 -1.0013 -0.7405 -2.6263
  694MOL0     H93651  11.201   1.995   6.818  4.1768  0.3190 -0.2269
  694MOL0     H93652  11.575   2.040   7.067 -0.7694 -0.0351  1.2204
  694MOL0     H93653  11.796   2.163   7.099  0.1935 -3.3747 -1.2365
  694MOL0     H93654  11.879   2.506   6.838  0.1716 -2.0432 -1.9864
  694MOL0     H93655  12.011   2.509   6.948  0.8195  0.1285 -0.3605
  694MOL0     H93656  12.089   2.296   6.832  1.5681 -0.1055 -1.7157
  694MOL0     H93657  11.959   2.305   6.718 -1.6739  0.2718  2.3659
  694MOL0     H93658  12.174   2.510   6.758 -0.5106 -1.9040  1.1354
  694MOL0     H93659  12.179   2.374   6.624 -1.4561  0.4808 -3.0559
  694MOL0     H93660  11.984   2.593   6.638  0.7107  0.4453  1.2255
  694MOL0     H93661  11.975   2.467   6.525 -0.8896  1.4004  0.7749
  694MOL0     H93662  12.204   2.656   6.557  0.0297 -1.4408  1.5420
  694MOL0     H93663  12.062   2.674   6.449  0.1314  2.7410  2.1442
  694MOL0     H93664  12.262   2.456   6.419  0.1272 -1.1974 -3.5206
  694MOL0     H93665  12.117   2.466   6.317  1.0335 -0.2127 -0.5507
  694MOL0     H93666  12.330   2.680   6.335 -1.8232  1.8822 -0.8798
  694MOL0     H93667  12.189   2.661   6.220 -0.9995 -0.4263  0.1560
  694MOL0     H93668  12.317   2.463   6.117  3.0000 -2.5281  1.4746
  694MOL0     H93669  12.402   2.606   6.108 -2.8754  0.5828 -0.2947
  694MOL0     H93670  11.730   2.389   6.746 -1.7218  0.4962 -0.3235
  694MOL0     H93671  11.523   2.270   6.697 -2.2638  0.1841  1.1331
  694MOL0     H93672  11.459   1.760   6.564  0.5902  2.1275 -1.8990
  694MOL0     H93673  11.258   1.676   6.446 -4.9973 -0.5057  1.5393
  694MOL0     H93674   9.035   1.943   6.601  4.1927  0.5177  0.3387
  694MOL0     H93675   8.825   1.826   6.683 -0.1523 -0.6007  2.3047
  694MOL0     H93676   8.587   1.599   6.916 -2.8263 -0.2569 -0.4049
  694MOL0     H93677   8.425   1.525   7.059  0.7206  0.7027 -2.3800
  694MOL0     H93678   8.171   1.206   7.049  0.5466  0.6662  1.5589
  694MOL0     H93679   8.313   1.142   6.955 -0.0147  0.0213 -1.4426
  694MOL0     H93680   8.174   1.274   6.805  0.8237  0.6468 -1.6995
  694MOL0     H93681   8.321   1.376   6.844 -1.4850  2.0334  0.3508
  694MOL0     H93682   8.135   1.503   6.830  2.3806 -2.4456 -2.1538
  694MOL0     H93683   8.192   1.508   6.996 -1.9006  0.8571 -0.0136
  694MOL0     H93684   7.949   1.344   6.920  0.1980 -0.6075  0.4763
  694MOL0     H93685   8.018   1.345   7.079  0.3876  0.7636  1.0262
  694MOL0     H93686   7.787   1.666   7.108 -0.2069 -0.4612 -1.3683
  694MOL0     H93687   8.557   1.123   6.999  0.8889  0.1218  2.1191
  694MOL0     H93688   8.867   1.211   6.878 -0.0334 -0.7226  2.0148
  694MOL0     H93689   8.759   1.071   6.925  1.3140 -0.8771  1.1123
  694MOL0     H93690   8.748   1.136   6.762 -0.3848 -1.1095  0.8885
  695MOL0     O93691   6.323   2.361   1.179 -0.1634 -0.5351 -0.5172
  695MOL0     C93692   6.239   2.451   1.192  0.2608  0.0849 -1.0006
  695MOL0     O93693   6.243   2.573   1.148 -0.0975 -0.9898  0.9078
  695MOL0     C93694   6.358   2.637   1.102  0.1291  0.5694 -0.8245
  695MOL0     C93695   6.386   2.768   1.137 -0.4143 -0.6493  0.0208
  695MOL0     C93696   6.508   2.830   1.109  0.7162  1.3823 -0.2247
  695MOL0     C93697   6.606   2.761   1.036 -0.9504 -0.1003  0.2957
  695MOL0     O93698   6.730   2.798   1.006 -0.2294 -0.1655 -0.8976
  695MOL0     C93699   6.764   2.936   1.022  1.1659  1.0563 -0.2671
  695MOL0     C93700   6.904   2.949   0.977 -0.4024 -0.8758 -0.1379
  695MOL0     C93701   6.999   2.948   1.093 -0.4098 -0.2938  0.2762
  695MOL0     C93702   7.149   2.960   1.059 -0.1339 -0.0700 -0.0143
  695MOL0     C93703   7.233   2.835   1.087 -0.0634 -0.8134  0.1193
  695MOL0     C93704   7.222   2.733   0.973 -0.4379 -0.1980 -0.8529
  695MOL0     C93705   7.339   2.631   0.984 -0.5312  0.6474  0.4598
  695MOL0     C93706   7.453   2.666   0.879 -1.1102  0.4022 -0.2305
  695MOL0     N93707   7.574   2.597   0.925 -0.1178 -0.1295 -0.0554
  695MOL0     C93708   7.616   2.471   0.889 -0.1224 -0.5342  0.9052
  695MOL0     C93709   7.698   2.427   0.989 -0.0905  0.1500 -0.9301
  695MOL0     C93710   7.746   2.283   1.026  0.3809  0.1077  0.5751
  695MOL0     C93711   7.891   2.293   1.068 -0.2051  0.1948 -1.0302
  695MOL0     C93712   7.908   2.309   1.227 -0.0643 -0.6698 -0.2824
  695MOL0     C93713   8.055   2.342   1.245  0.4293 -0.1499 -0.1254
  695MOL0     O93714   8.080   2.354   1.391  0.4937 -0.2745  0.4427
  695MOL0     C93715   8.212   2.341   1.429 -0.0496 -0.0047  0.7778
  695MOL0     C93716   8.319   2.332   1.341 -0.6001  0.1844  0.6015
  695MOL0     C93717   8.448   2.326   1.386 -1.0488 -0.6596 -0.6780
  695MOL0     C93718   8.481   2.336   1.521 -0.4408 -0.4623 -0.9256
  695MOL0     C93719   8.622   2.342   1.569 -0.5883  0.7974  0.0726
  695MOL0     O93720   8.650   2.380   1.703 -0.1815  0.1605 -0.2080
  695MOL0     C93721   8.782   2.394   1.734  0.7641 -0.1023  1.0606
  695MOL0     C93722   8.875   2.465   1.656  0.1819  0.4855  0.3439
  695MOL0     C93723   9.014   2.463   1.680 -1.0510  1.0120 -0.1779
  695MOL0     C93724   9.065   2.399   1.794  0.2568  0.1827 -0.3095
  695MOL0     O93725   9.202   2.403   1.819 -0.2041  0.4976 -0.2027
  695MOL0     C93726   9.247   2.417   1.954 -1.4105 -0.5048  0.6949
  695MOL0     C93727   9.406   2.412   1.959 -0.5804  0.3539 -0.8753
  695MOL0     C93728   9.446   2.392   2.102 -0.6316  0.0087 -0.4911
  695MOL0     C93729   9.602   2.381   2.099 -0.0251  0.5304  0.6594
  695MOL0     C93730   9.655   2.317   2.228 -0.2248 -0.2077 -0.3138
  695MOL0     C93731   9.807   2.304   2.227  0.4193  0.0294 -0.6330
  695MOL0     C93732   9.865   2.218   2.347  0.8156 -0.8725  0.3953
  695MOL0     C93733   9.895   2.084   2.286 -0.1447  0.6996  0.4210
  695MOL0    Cl93734   9.908   1.962   2.418 -0.2393 -0.6898 -0.0350
  695MOL0     C93735   8.978   2.323   1.870  0.3515 -0.0989  0.2303
  695MOL0     C93736   8.841   2.329   1.840 -0.6962 -0.8123 -0.2766
  695MOL0     O93737   8.707   2.303   1.488  0.3107  0.5156 -0.3955
  695MOL0     C93738   8.372   2.363   1.606 -0.5777 -0.2577 -0.8654
  695MOL0     C93739   8.243   2.367   1.560  0.6881  0.5149  0.2031
  695MOL0     N93740   7.722   2.534   1.074  0.1595  0.5419  0.4560
  695MOL0     N93741   7.641   2.633   1.037 -0.5072 -0.0303 -0.3939
  695MOL0     C93742   6.576   2.636   0.988  0.1990  0.4256 -0.5307
  695MOL0     C93743   6.457   2.576   1.019 -0.3182  0.9060  0.4312
  695MOL0     C93744   6.110   2.398   1.245  0.2956  1.0724  0.0457
  695MOL0     C93745   5.981   2.460   1.211 -0.3356 -0.0850 -0.4066
  695MOL0     C93746   5.857   2.406   1.268  0.0109  0.2220 -0.4075
  695MOL0     C93747   5.858   2.287   1.339 -0.0553  0.2868 -0.5351
  695MOL0     O93748   5.734   2.242   1.382 -0.1249  0.6052 -0.0026
  695MOL0     C93749   5.723   2.104   1.416  0.0185 -0.5831  0.2244
  695MOL0     C93750   5.570   2.070   1.390 -0.2251 -0.2390 -0.2249
  695MOL0     C93751   5.473   2.134   1.492 -0.2881 -0.5188 -0.3120
  695MOL0     C93752   5.325   2.081   1.472  0.1498 -1.3326  0.5419
  695MOL0     C93753   5.308   1.938   1.495 -0.3381  1.4487  0.1884
  695MOL0     C93754   5.280   1.816   1.493  0.6744 -0.6197  0.4798
  695MOL0     C93755   5.980   2.232   1.371 -0.4136  0.5022 -0.2527
  695MOL0     C93756   6.104   2.281   1.330 -0.3710  0.1914 -0.1839
  695MOL0     C93757   6.228   2.200   1.378 -0.6453  0.7095  0.5243
  695MOL0     H93758   6.320   2.831   1.195  1.4658  2.0899 -0.5738
  695MOL0     H93759   6.521   2.931   1.144  1.3185  1.7265 -1.4116
  695MOL0     H93760   6.709   3.001   0.954  3.4022  1.1729 -2.0661
  695MOL0     H93761   6.753   2.968   1.126 -1.6155  0.8466 -0.4088
  695MOL0     H93762   6.916   3.046   0.928 -0.7091 -0.3860  0.7339
  695MOL0     H93763   6.919   2.873   0.899 -0.3931  2.8197 -4.1282
  695MOL0     H93764   6.979   2.856   1.149 -0.8101 -1.4270 -1.6497
  695MOL0     H93765   6.983   3.035   1.157 -0.3478  0.6664 -0.9653
  695MOL0     H93766   7.167   2.984   0.953 -0.7824 -1.5197 -0.4716
  695MOL0     H93767   7.195   3.036   1.123  0.2277 -1.1232  1.0059
  695MOL0     H93768   7.336   2.870   1.088 -0.6423  1.0812 -1.0712
  695MOL0     H93769   7.202   2.788   1.181  0.9872 -1.0737  0.3477
  695MOL0     H93770   7.127   2.678   0.976  0.2291 -1.4279 -1.5670
  695MOL0     H93771   7.245   2.790   0.882  4.1433 -0.3581 -0.0359
  695MOL0     H93772   7.305   2.529   0.960  0.3365  0.2120  1.0045
  695MOL0     H93773   7.385   2.632   1.083  1.5405 -0.4184 -0.4069
  695MOL0     H93774   7.429   2.656   0.772 -2.1470  1.2275 -0.0963
  695MOL0     H93775   7.469   2.772   0.903  0.5021  0.1531 -0.0843
  695MOL0     H93776   7.561   2.419   0.810 -1.9304 -0.5396  2.1149
  695MOL0     H93777   7.683   2.248   1.109 -2.4953  2.2874 -0.4984
  695MOL0     H93778   7.746   2.210   0.945  1.1142 -1.8334  2.2268
  695MOL0     H93779   7.932   2.195   1.040  1.0571  0.8507 -1.5182
  695MOL0     H93780   7.944   2.370   1.013  1.4549  1.7112  2.3953
  695MOL0     H93781   7.897   2.209   1.270 -1.0599 -1.0173 -1.2938
  695MOL0     H93782   7.844   2.387   1.271  0.9842 -0.6461  1.2968
  695MOL0     H93783   8.082   2.440   1.205 -0.3692  1.0050  1.9840
  695MOL0     H93784   8.115   2.257   1.210  0.7407  0.7672 -1.9169
  695MOL0     H93785   8.314   2.332   1.233  3.5768  0.0074  0.2276
  695MOL0     H93786   8.528   2.330   1.312 -1.3526  0.2834 -0.9699
  695MOL0     H93787   8.846   2.526   1.572  1.3572 -0.1516 -0.5629
  695MOL0     H93788   9.081   2.525   1.622 -0.3653  1.5662  1.1653
  695MOL0     H93789   9.202   2.511   1.988 -1.1171 -0.0113 -0.2679
  695MOL0     H93790   9.208   2.331   2.009 -0.4846 -1.5650 -0.2805
  695MOL0     H93791   9.448   2.333   1.898  2.8401 -0.2914  1.9686
  695MOL0     H93792   9.448   2.506   1.922  1.8856  0.4431  1.7902
  695MOL0     H93793   9.412   2.472   2.169  1.1272 -0.9802  1.6745
  695MOL0     H93794   9.406   2.302   2.149  1.3539 -0.3841  0.5041
  695MOL0     H93795   9.649   2.480   2.095  1.5664 -0.0427  2.9446
  695MOL0     H93796   9.630   2.313   2.019  0.3590 -2.2233  2.9702
  695MOL0     H93797   9.615   2.217   2.243 -0.5757  0.1358  1.1552
  695MOL0     H93798   9.620   2.377   2.313  2.9073  0.0596  0.9269
  695MOL0     H93799   9.841   2.253   2.136  1.5934  0.0300 -0.2048
  695MOL0     H93800   9.847   2.406   2.221 -0.6639  0.6742  1.8305
  695MOL0     H93801   9.793   2.200   2.427  0.7906 -0.4344  0.4742
  695MOL0     H93802   9.956   2.257   2.392 -1.4894  2.2447  2.7998
  695MOL0     H93803   9.819   2.048   2.217  0.7394 -1.3486  0.4296
  695MOL0     H93804   9.990   2.088   2.231 -1.7227  2.5680 -2.4180
  695MOL0     H93805   9.006   2.253   1.948  2.0227  0.8524  0.5358
  695MOL0     H93806   8.773   2.264   1.895 -3.8097  1.4382 -1.1582
  695MOL0     H93807   8.388   2.397   1.708  1.6274 -0.3657 -1.1282
  695MOL0     H93808   8.175   2.410   1.633 -0.8671  0.0165 -0.9104
  695MOL0     H93809   6.647   2.570   0.940 -0.6740 -1.2339  0.3252
  695MOL0     H93810   6.442   2.472   0.991 -0.9787  0.8844  0.8299
  695MOL0     H93811   5.966   2.559   1.171 -0.0495  0.0019 -0.3072
  695MOL0     H93812   5.760   2.453   1.258 -0.7753 -1.5180 -1.4736
  695MOL0     H93813   5.750   2.107   1.522  1.3139  2.6204 -0.0791
  695MOL0     H93814   5.780   2.040   1.348 -2.0288  0.8650 -3.0863
  695MOL0     H93815   5.551   1.963   1.379 -0.7013 -0.0270 -1.6528
  695MOL0     H93816   5.543   2.110   1.292 -2.7331  1.5645  1.0896
  695MOL0     H93817   5.466   2.242   1.480  2.4376 -0.2429  0.0046
  695MOL0     H93818   5.510   2.106   1.591  1.2760 -2.4123 -1.3668
  695MOL0     H93819   5.264   2.123   1.552 -1.9498 -2.0432 -0.6090
  695MOL0     H93820   5.292   2.111   1.372  3.8803 -0.0423 -0.4558
  695MOL0     H93821   5.255   1.713   1.484  3.5292 -1.2386 -1.9943
  695MOL0     H93822   5.993   2.137   1.423  3.0472  0.7321 -0.4520
  695MOL0     H93823   6.311   2.264   1.410  0.1829  1.3567 -2.5492
  695MOL0     H93824   6.205   2.133   1.461  3.1270 -2.0635 -0.3801
  695MOL0     H93825   6.246   2.140   1.289 -3.7145  2.0476 -1.1368
  696MOL0     O93826   5.986  10.849   7.167 -0.2945  0.1730 -0.0985
  696MOL0     C93827   5.977  10.729   7.203  0.4699 -0.6841 -0.5730
  696MOL0     O93828   6.087  10.655   7.231 -0.5609 -0.1330  0.4347
  696MOL0     C93829   6.197  10.730   7.250  0.3281 -0.0462 -0.1462
  696MOL0     C93830   6.281  10.744   7.145 -0.5973  0.5945 -0.3221
  696MOL0     C93831   6.405  10.801   7.165  0.1589  0.3657 -0.0757
  696MOL0     C93832   6.445  10.845   7.294 -0.9455 -0.6105  0.0504
  696MOL0     O93833   6.573  10.899   7.313  0.1112  0.7613 -0.5674
  696MOL0     C93834   6.691  10.822   7.294  0.6940 -0.1377 -1.0621
  696MOL0     C93835   6.808  10.906   7.350 -0.4101 -0.7442 -0.1465
  696MOL0     C93836   6.951  10.854   7.310  0.4107 -0.6348  0.0780
  696MOL0     C93837   7.059  10.920   7.391  0.5963  0.1341  0.6420
  696MOL0     C93838   7.198  10.845   7.382  0.8283 -0.2310 -0.6753
  696MOL0     C93839   7.302  10.880   7.280  0.7514 -0.3366  0.1263
  696MOL0     C93840   7.253  10.862   7.135 -0.5055  0.3422  0.3763
  696MOL0     C93841   7.231  10.719   7.091 -0.8219  0.3391  0.1014
  696MOL0     N93842   7.351  10.628   7.103  0.8480  0.7124 -0.3155
  696MOL0     C93843   7.484  10.666   7.079  0.7507 -0.3854 -0.3093
  696MOL0     C93844   7.562  10.563   7.125  0.8537  0.0450 -0.0754
  696MOL0     C93845   7.712  10.546   7.117 -0.3986 -0.5179  0.0913
  696MOL0     C93846   7.783  10.638   7.206  0.1132 -0.0851  0.2013
  696MOL0     C93847   7.779  10.599   7.357  0.1187 -0.0808 -0.2630
  696MOL0     C93848   7.855  10.473   7.394 -0.6105  0.4163 -0.0612
  696MOL0     O93849   7.975  10.451   7.326  0.6856 -0.1527 -0.3335
  696MOL0     C93850   8.096  10.493   7.383  0.3693  0.0212 -0.0844
  696MOL0     C93851   8.107  10.586   7.479 -0.7316 -0.0650  0.5165
  696MOL0     C93852   8.231  10.605   7.550 -0.2877 -0.0880  0.4286
  696MOL0     C93853   8.350  10.530   7.512 -0.1930 -0.7915  0.0846
  696MOL0     C93854   8.478  10.566   7.576 -0.0659  0.6591  0.0713
  696MOL0     O93855   8.589  10.511   7.526 -1.0325 -1.0094 -0.1515
  696MOL0     C93856   8.716  10.548   7.575 -0.9648 -0.0903  1.3315
  696MOL0     C93857   8.752  10.622   7.687 -0.0377 -0.9076  0.4069
  696MOL0     C93858   8.887  10.659   7.700 -0.4896 -0.6079 -0.5448
  696MOL0     C93859   8.984  10.628   7.609  0.4190  0.3228  0.1113
  696MOL0     O93860   9.117  10.658   7.628  0.2303  1.1767 -0.5225
  696MOL0     C93861   9.201  10.666   7.512 -0.4656 -0.8350  1.0577
  696MOL0     C93862   9.319  10.763   7.540  0.1207 -0.2289 -0.4417
  696MOL0     C93863   9.273  10.898   7.598 -1.0958  0.4465  0.2649
  696MOL0     C93864   9.394  11.004   7.604  0.1051 -0.2944 -0.0907
  696MOL0     C93865   9.336  11.150   7.628  0.2570 -0.1852 -0.1319
  696MOL0     C93866   9.247  11.161   7.739  0.4330 -0.1423 -0.5852
  696MOL0     C93867   9.250  11.298   7.813  0.3602  0.0631  0.2392
  696MOL0     C93868   9.357  11.301   7.921 -0.0641  0.1336 -0.9420
  696MOL0    Cl93869   9.528  11.298   7.867 -0.2364  0.2550  0.2194
  696MOL0     C93870   8.947  10.534   7.515  0.5427 -0.3650  0.6109
  696MOL0     C93871   8.819  10.501   7.496 -0.1104  0.6899 -0.6115
  696MOL0     O93872   8.475  10.638   7.668  0.1770 -0.3277 -0.8646
  696MOL0     C93873   8.334  10.446   7.404 -0.5546  0.4532  0.0492
  696MOL0     C93874   8.204  10.418   7.346 -0.4897  0.6656 -1.2970
  696MOL0     N93875   7.473  10.462   7.160 -0.5974  0.7266  0.5752
  696MOL0     N93876   7.346  10.498   7.146 -0.2530 -0.3132  0.5653
  696MOL0     C93877   6.360  10.826   7.400  0.7356  0.5127 -0.6855
  696MOL0     C93878   6.236  10.770   7.380  0.1684 -0.2012  0.1530
  696MOL0     C93879   5.845  10.679   7.211 -0.0813  0.1362 -0.1611
  696MOL0     C93880   5.747  10.755   7.151  0.7276  0.3505  0.4506
  696MOL0     C93881   5.615  10.710   7.157 -0.5894 -1.3960  0.4863
  696MOL0     C93882   5.575  10.595   7.221 -0.0335 -0.3845 -0.2148
  696MOL0     O93883   5.445  10.550   7.225  0.0285 -0.1378 -0.3894
  696MOL0     C93884   5.339  10.624   7.172  0.8826 -0.4621  0.0245
  696MOL0     C93885   5.209  10.541   7.172  0.2101  0.5356 -0.0145
  696MOL0     C93886   5.101  10.631   7.123 -0.5029  0.5734 -0.2607
  696MOL0     C93887   4.970  10.547   7.138 -0.6395  0.4537 -0.0783
  696MOL0     C93888   4.973  10.436   7.035  0.0812 -0.0618  0.3383
  696MOL0     C93889   4.971  10.356   6.948  0.8440  0.1360  0.0906
  696MOL0     C93890   5.672  10.518   7.275  0.2018  0.2605  0.1809
  696MOL0     C93891   5.807  10.553   7.277  0.0144  0.5282  0.4804
  696MOL0     C93892   5.904  10.466   7.351 -0.0979 -0.8440 -0.3483
  696MOL0     H93893   6.255  10.727   7.041  1.0580  1.0145 -0.8260
  696MOL0     H93894   6.474  10.814   7.082  3.3823 -1.0742  2.1707
  696MOL0     H93895   6.682  10.727   7.345  3.1996  0.1800  0.1398
  696MOL0     H93896   6.701  10.796   7.188 -2.3396  0.5457 -1.6271
  696MOL0     H93897   6.808  10.899   7.459  1.4320  0.6675 -0.0023
  696MOL0     H93898   6.785  11.010   7.326 -0.7878 -0.4559  1.3886
  696MOL0     H93899   6.974  10.854   7.203 -0.1525  0.7471 -0.0717
  696MOL0     H93900   6.949  10.752   7.348 -1.0093  0.5657  3.6573
  696MOL0     H93901   7.075  11.024   7.362  3.1287 -0.0118  1.3019
  696MOL0     H93902   7.024  10.915   7.495 -1.2393  1.7052  0.1636
  696MOL0     H93903   7.246  10.869   7.478 -2.7488 -0.3694  1.3032
  696MOL0     H93904   7.183  10.737   7.373  0.2471 -0.1410 -0.7895
  696MOL0     H93905   7.331  10.986   7.288  0.6979 -0.1017 -2.1805
  696MOL0     H93906   7.398  10.829   7.290  0.7240 -0.4281 -0.0901
  696MOL0     H93907   7.319  10.916   7.067 -0.3674  1.0651  1.0662
  696MOL0     H93908   7.154  10.908   7.127 -0.9572 -0.4721  1.1439
  696MOL0     H93909   7.149  10.676   7.148  2.4453 -4.8431  1.5659
  696MOL0     H93910   7.200  10.725   6.986 -1.3467 -1.2493  0.1294
  696MOL0     H93911   7.520  10.748   7.017 -1.8620  1.6186  0.6415
  696MOL0     H93912   7.738  10.440   7.127 -2.5467 -1.5321 -3.4438
  696MOL0     H93913   7.750  10.567   7.016  1.7251 -2.0173  0.4955
  696MOL0     H93914   7.890  10.648   7.188  0.2612  1.9189  1.8261
  696MOL0     H93915   7.736  10.737   7.211  2.9784  1.3078  1.5338
  696MOL0     H93916   7.671  10.587   7.373 -0.3453 -4.4803 -4.3726
  696MOL0     H93917   7.816  10.683   7.415  2.4260 -0.3089 -1.3051
  696MOL0     H93918   7.796  10.386   7.364  0.9523 -0.1365 -1.7020
  696MOL0     H93919   7.864  10.466   7.503  1.8342 -0.8017 -0.2735
  696MOL0     H93920   8.023  10.647   7.510  0.1651  2.7573 -2.0348
  696MOL0     H93921   8.234  10.673   7.634 -0.5064 -0.3563  0.6574
  696MOL0     H93922   8.684  10.644   7.769  0.9301 -2.4153  1.6718
  696MOL0     H93923   8.911  10.714   7.790  2.0496 -0.4307 -1.2327
  696MOL0     H93924   9.245  10.569   7.486  3.1596  0.8654  0.1944
  696MOL0     H93925   9.149  10.702   7.423 -2.1904 -2.5507  1.3056
  696MOL0     H93926   9.401  10.718   7.597  0.2576  1.0581  0.3972
  696MOL0     H93927   9.363  10.779   7.441  0.2656 -1.0448 -0.5185
  696MOL0     H93928   9.201  10.937   7.526  0.3024 -0.5018 -1.7281
  696MOL0     H93929   9.239  10.874   7.699 -1.6489 -0.8534 -0.2167
  696MOL0     H93930   9.446  11.001   7.508  0.2802  0.0727 -0.0113
  696MOL0     H93931   9.462  10.980   7.687 -0.5915 -0.9453  0.3049
  696MOL0     H93932   9.281  11.189   7.542  4.3174  2.9644 -1.6040
  696MOL0     H93933   9.422  11.216   7.644 -0.6618  1.8207 -2.7774
  696MOL0     H93934   9.144  11.138   7.708 -0.9923  4.6634 -0.2019
  696MOL0     H93935   9.267  11.078   7.809 -2.7518 -2.3694 -2.0729
  696MOL0     H93936   9.153  11.319   7.857  0.2298  0.7650 -0.3724
  696MOL0     H93937   9.282  11.387   7.758  0.4199 -0.6539 -0.9191
  696MOL0     H93938   9.336  11.392   7.977 -1.9466 -1.1529  0.5711
  696MOL0     H93939   9.345  11.215   7.987 -2.7798 -0.0819 -1.6205
  696MOL0     H93940   9.019  10.493   7.445  0.7377  1.2809 -0.1974
  696MOL0     H93941   8.783  10.436   7.416 -2.8999 -1.3202  2.0212
  696MOL0     H93942   8.421  10.402   7.356 -0.6806  1.5943 -1.2828
  696MOL0     H93943   8.201  10.348   7.263 -0.6461  0.6204 -1.2522
  696MOL0     H93944   6.371  10.859   7.503  1.1475 -0.2623 -0.4689
  696MOL0     H93945   6.163  10.766   7.460 -4.0006  2.2305 -3.0960
  696MOL0     H93946   5.760  10.845   7.092 -0.4974  1.3045  1.5567
  696MOL0     H93947   5.549  10.778   7.104  1.4928  1.2888  1.1073
  696MOL0     H93948   5.364  10.658   7.071  0.5413 -1.3055 -0.3568
  696MOL0     H93949   5.321  10.713   7.232 -0.7641 -0.5835 -0.2342
  696MOL0     H93950   5.190  10.505   7.274  0.5298  1.8390  0.5191
  696MOL0     H93951   5.221  10.462   7.097 -3.6550 -1.3397  1.0959
  696MOL0     H93952   5.120  10.659   7.019  2.4103 -2.8681 -0.8531
  696MOL0     H93953   5.091  10.713   7.196 -0.2805  1.2028 -0.9229
  696MOL0     H93954   4.969  10.497   7.235  0.1941 -1.5920 -1.0653
  696MOL0     H93955   4.879  10.606   7.120 -1.2232  0.1061  1.6197
  696MOL0     H93956   4.958  10.295   6.861  0.4958  0.5176 -0.1330
  696MOL0     H93957   5.636  10.427   7.321  1.6929 -1.8818 -2.6482
  696MOL0     H93958   5.847  10.390   7.404  0.4022 -0.9848 -0.0048
  696MOL0     H93959   5.970  10.416   7.278 -0.7977 -3.8068  0.9253
  696MOL0     H93960   5.963  10.522   7.424  0.4206  0.8488 -1.9626
  697MOL0     O93961   2.232   1.513  10.161 -0.0796 -0.2515 -0.0510
  697MOL0     C93962   2.292   1.576  10.253  0.0509 -0.5850  0.5459
  697MOL0     O93963   2.239   1.672  10.328  0.5941  0.4046 -0.2028
  697MOL0     C93964   2.105   1.673  10.344  0.2922  1.6097 -0.1328
  697MOL0     C93965   2.062   1.610  10.463  0.3686 -0.5781  0.2216
  697MOL0     C93966   1.928   1.610  10.492 -0.7923  0.5260 -0.2811
  697MOL0     C93967   1.834   1.660  10.400 -0.0650  0.6799 -0.3671
  697MOL0     O93968   1.699   1.652  10.409  0.0221  0.5778  0.0646
  697MOL0     C93969   1.637   1.554  10.500 -0.3018 -0.5019 -0.4839
  697MOL0     C93970   1.667   1.406  10.472 -0.7113 -0.5878  0.0710
  697MOL0     C93971   1.635   1.346  10.335  0.7834  0.7378 -0.4890
  697MOL0     C93972   1.501   1.401  10.285  0.5794 -0.0297 -0.1310
  697MOL0     C93973   1.386   1.353  10.367 -0.7740  0.1349  0.0172
  697MOL0     C93974   1.253   1.373  10.310  0.0930  0.7659  0.5220
  697MOL0     C93975   1.138   1.320  10.396  0.3114  0.9254 -0.0897
  697MOL0     C93976   0.999   1.377  10.356  0.1700  0.1068  0.2743
  697MOL0     N93977   0.970   1.332  10.224 -0.1297  0.5097 -0.4911
  697MOL0     C93978   0.955   1.421  10.122 -0.1266 -0.9633  0.4515
  697MOL0     C93979   0.914   1.340  10.014 -0.0680  0.3878 -0.4256
  697MOL0     C93980   0.877   1.374   9.877 -0.9057 -0.3991  0.5968
  697MOL0     C93981   0.978   1.323   9.757 -0.1311  0.5152  0.6221
  697MOL0     C93982   0.931   1.381   9.619  0.5831  0.0325 -0.2588
  697MOL0     C93983   1.026   1.341   9.503 -0.4432  0.5370 -0.0112
  697MOL0     O93984   1.156   1.403   9.537  0.1861  0.0820 -0.6154
  697MOL0     C93985   1.269   1.346   9.477 -0.2377  0.6401  0.0883
  697MOL0     C93986   1.378   1.433   9.469  0.1474  0.4621  0.1298
  697MOL0     C93987   1.500   1.398   9.409 -0.4506  0.5343 -0.0559
  697MOL0     C93988   1.524   1.270   9.360  0.6901  0.4269  0.2924
  697MOL0     C93989   1.655   1.231   9.305 -0.6013 -0.6136 -0.0017
  697MOL0     O93990   1.735   1.336   9.274 -0.1181  0.2953 -0.0066
  697MOL0     C93991   1.864   1.306   9.248  0.7016 -0.9788  0.9304
  697MOL0     C93992   1.939   1.208   9.314  0.1355 -0.7760 -0.2571
  697MOL0     C93993   2.083   1.194   9.293 -0.3576 -0.9583  0.7029
  697MOL0     C93994   2.145   1.280   9.195  0.8484  0.0312  0.2456
  697MOL0     O93995   2.275   1.277   9.162 -0.2078 -0.0130  0.0123
  697MOL0     C93996   2.348   1.155   9.198  0.0130 -0.8282  0.4148
  697MOL0     C93997   2.473   1.136   9.115  0.1526  0.5237  0.1999
  697MOL0     C93998   2.561   1.257   9.121 -0.1373  1.2516 -0.5750
  697MOL0     C93999   2.691   1.225   9.043  0.4930 -0.2401  0.3760
  697MOL0     C94000   2.772   1.354   9.017 -0.7822 -0.8665 -0.0561
  697MOL0     C94001   2.827   1.430   9.139  0.3655  1.4090  0.0027
  697MOL0     C94002   2.949   1.359   9.204 -0.2115  0.1333 -0.6469
  697MOL0     C94003   3.047   1.455   9.278  0.5508  0.0100 -0.5345
  697MOL0    Cl94004   2.942   1.554   9.391  0.4644  0.0469  0.8148
  697MOL0     C94005   2.061   1.376   9.124  0.4149  0.3523 -0.4389
  697MOL0     C94006   1.924   1.390   9.145  0.6681 -0.6595  0.0321
  697MOL0     O94007   1.677   1.116   9.298 -0.7913  0.0778 -0.6871
  697MOL0     C94008   1.414   1.179   9.372 -0.0944  0.0276  0.0547
  697MOL0     C94009   1.291   1.211   9.451 -1.3441  0.5716 -0.2361
  697MOL0     N94010   0.901   1.212  10.066  0.3400  1.0642  0.7427
  697MOL0     N94011   0.935   1.206  10.193  0.4903 -0.4763  0.0793
  697MOL0     C94012   1.876   1.711  10.282  0.4936 -0.0992  0.6986
  697MOL0     C94013   2.014   1.727  10.254  0.7888 -0.1541  0.1317
  697MOL0     C94014   2.442   1.563  10.259  0.3013 -0.1100 -0.8807
  697MOL0     C94015   2.506   1.656  10.346  0.1325  0.3121  0.3854
  697MOL0     C94016   2.644   1.656  10.350  0.1854 -1.0018 -0.0120
  697MOL0     C94017   2.724   1.560  10.291 -0.3988 -0.0848 -0.6553
  697MOL0     O94018   2.859   1.541  10.316  0.1526  0.4180  0.0303
  697MOL0     C94019   2.945   1.655  10.363  0.6015 -0.0374 -0.4888
  697MOL0     C94020   3.099   1.630  10.333  0.1640 -0.0572  0.0330
  697MOL0     C94021   3.132   1.622  10.186 -0.3316  0.1610  0.2233
  697MOL0     C94022   3.275   1.621  10.149 -0.9932 -0.1145  0.0268
  697MOL0     C94023   3.313   1.729  10.043 -0.4371  0.5909  0.1420
  697MOL0     C94024   3.329   1.818   9.961 -0.9324 -0.3208 -0.0783
  697MOL0     C94025   2.662   1.465  10.213  0.8771  0.7847  0.1136
  697MOL0     C94026   2.523   1.464  10.197 -0.8085  0.4143 -0.2548
  697MOL0     C94027   2.467   1.366  10.094 -0.5185 -0.6690 -0.3281
  697MOL0     H94028   2.139   1.571  10.529  0.7818 -1.6641 -0.8697
  697MOL0     H94029   1.904   1.581  10.594 -0.2458  0.8119 -0.0643
  697MOL0     H94030   1.669   1.580  10.601  0.9271 -0.1846 -0.9294
  697MOL0     H94031   1.532   1.586  10.502  0.0814  0.8120  1.1405
  697MOL0     H94032   1.623   1.329  10.535 -2.2710 -1.3073 -1.8220
  697MOL0     H94033   1.772   1.385  10.496 -0.4506  0.0311 -0.4777
  697MOL0     H94034   1.634   1.238  10.352 -2.2909  0.6634 -0.6663
  697MOL0     H94035   1.714   1.373  10.264  0.9615  0.4920 -0.3869
  697MOL0     H94036   1.494   1.510  10.285 -0.8885 -0.0997  0.2543
  697MOL0     H94037   1.484   1.361  10.185  1.6264 -0.9189  0.0313
  697MOL0     H94038   1.396   1.246  10.388  3.6986  0.1498 -0.9669
  697MOL0     H94039   1.377   1.404  10.463 -2.5306 -1.4383  0.7635
  697MOL0     H94040   1.250   1.481  10.299  0.8219  0.9119  1.5691
  697MOL0     H94041   1.246   1.314  10.218 -2.7688  0.8372  0.6072
  697MOL0     H94042   1.160   1.349  10.499 -1.0561 -0.4186  0.6204
  697MOL0     H94043   1.129   1.211  10.402 -2.0419  1.1152  0.6268
  697MOL0     H94044   0.934   1.319  10.421  2.5889 -3.8168 -0.4560
  697MOL0     H94045   0.988   1.485  10.370  1.6283  0.6466 -2.0949
  697MOL0     H94046   0.974   1.528  10.115 -1.6894 -0.7434 -0.8353
  697MOL0     H94047   0.780   1.330   9.856 -1.2131  0.5446 -0.0519
  697MOL0     H94048   0.864   1.483   9.868 -1.8577 -0.3819  2.0205
  697MOL0     H94049   1.076   1.366   9.782 -0.4060  1.5846 -0.0944
  697MOL0     H94050   0.970   1.214   9.757  2.3122  0.2720  0.5892
  697MOL0     H94051   0.925   1.490   9.618 -0.7931  0.1185  3.2200
  697MOL0     H94052   0.834   1.335   9.599  1.7592 -3.6595  1.5348
  697MOL0     H94053   0.989   1.375   9.406  0.5627 -0.8808 -0.9384
  697MOL0     H94054   1.025   1.232   9.491  0.2530  0.3422  1.4229
  697MOL0     H94055   1.376   1.520   9.533 -0.7437 -1.3311  2.7055
  697MOL0     H94056   1.585   1.465   9.410 -0.7335  0.8972  0.7974
  697MOL0     H94057   1.894   1.153   9.396  1.2810  1.8021  2.2756
  697MOL0     H94058   2.137   1.127   9.360  0.1059 -1.8169 -0.4847
  697MOL0     H94059   2.381   1.173   9.300  1.5062 -2.9161  0.3742
  697MOL0     H94060   2.280   1.069   9.187  0.8725 -1.2854 -1.9625
  697MOL0     H94061   2.517   1.041   9.145 -1.1704 -0.3400 -0.4973
  697MOL0     H94062   2.434   1.123   9.014  0.6693 -1.6780  0.2374
  697MOL0     H94063   2.515   1.338   9.062  3.1270  2.1964 -2.0343
  697MOL0     H94064   2.574   1.298   9.221  1.8624  0.0157 -0.2738
  697MOL0     H94065   2.651   1.171   8.957  0.8886 -2.5790  1.5679
  697MOL0     H94066   2.749   1.152   9.101  0.9017 -2.9015 -3.0481
  697MOL0     H94067   2.718   1.425   8.955 -1.5095 -0.3937  1.0926
  697MOL0     H94068   2.856   1.321   8.955 -1.5193 -0.0722 -1.5505
  697MOL0     H94069   2.873   1.522   9.100  1.1262  2.1083  2.4315
  697MOL0     H94070   2.749   1.454   9.212  2.3358 -0.6702  3.0047
  697MOL0     H94071   3.009   1.302   9.132 -0.4485 -3.1190  1.4870
  697MOL0     H94072   2.916   1.284   9.277 -2.0015  1.4294 -0.0860
  697MOL0     H94073   3.123   1.398   9.331  1.0620  1.1412 -0.0041
  697MOL0     H94074   3.095   1.521   9.206  1.5937  0.2071  0.3229
  697MOL0     H94075   2.119   1.431   9.050  1.9614  0.6390  0.9183
  697MOL0     H94076   1.870   1.468   9.091  2.1206  0.1291 -0.3383
  697MOL0     H94077   1.421   1.072   9.358 -1.4578 -0.3875  2.0038
  697MOL0     H94078   1.209   1.142   9.468  0.3481 -0.7530  3.6881
  697MOL0     H94079   1.814   1.731  10.196  0.4448 -0.9115  0.5391
  697MOL0     H94080   2.052   1.771  10.162  0.6099  0.0598  0.1602
  697MOL0     H94081   2.455   1.723  10.413  0.4381  1.0589 -0.1146
  697MOL0     H94082   2.695   1.723  10.418 -1.2936 -3.4058  3.8209
  697MOL0     H94083   2.933   1.675  10.470  0.0325  1.2705 -0.7736
  697MOL0     H94084   2.906   1.749  10.323 -2.6581 -1.0336  0.0528
  697MOL0     H94085   3.118   1.534  10.383  1.2517 -1.2399 -2.4857
  697MOL0     H94086   3.159   1.707  10.384 -0.6259 -0.0730  1.0048
  697MOL0     H94087   3.088   1.712  10.143 -0.1490 -0.0978 -0.5178
  697MOL0     H94088   3.078   1.532  10.153  1.4743 -1.6158  1.7960
  697MOL0     H94089   3.333   1.641  10.239 -2.0146  1.2602  0.4034
  697MOL0     H94090   3.304   1.524  10.107  1.2726  0.8218 -0.7619
  697MOL0     H94091   3.349   1.904   9.900 -0.8623  0.0942  0.5146
  697MOL0     H94092   2.718   1.387  10.161 -1.1721  0.8908 -2.4852
  697MOL0     H94093   2.392   1.304  10.145 -0.4571 -3.0225 -2.8190
  697MOL0     H94094   2.419   1.418  10.011 -0.2756  0.2100  0.0679
  697MOL0     H94095   2.544   1.303  10.047 -0.5534 -1.7520  0.9858
  698MOL0     O94096   1.446   2.020   4.871  0.3400  0.0671 -0.3592
  698MOL0     C94097   1.361   1.958   4.806 -1.2333 -0.0504  0.0602
  698MOL0     O94098   1.391   1.884   4.691 -0.4828 -0.5926  0.1998
  698MOL0     C94099   1.522   1.862   4.663 -0.5004 -0.2936 -0.8516
  698MOL0     C94100   1.593   1.753   4.714 -0.2753  0.1571 -0.5136
  698MOL0     C94101   1.725   1.732   4.676  0.3497  0.6217 -0.6301
  698MOL0     C94102   1.783   1.816   4.585 -0.3221 -0.7896  0.1715
  698MOL0     O94103   1.910   1.791   4.533 -0.1255  0.0578  0.4223
  698MOL0     C94104   2.016   1.763   4.626  1.1323  0.5817 -0.0712
  698MOL0     C94105   2.136   1.815   4.550 -0.7999 -0.1052 -0.0721
  698MOL0     C94106   2.256   1.738   4.593 -1.0491  0.3896  0.2691
  698MOL0     C94107   2.391   1.819   4.610  0.3636  0.1632 -0.6359
  698MOL0     C94108   2.513   1.734   4.612  1.0178 -0.0766  0.5019
  698MOL0     C94109   2.639   1.814   4.593  0.2201 -0.8979  0.3435
  698MOL0     C94110   2.759   1.722   4.576  0.5688  0.0822 -0.1709
  698MOL0     C94111   2.890   1.795   4.591 -0.1248 -0.1507  0.8170
  698MOL0     N94112   3.008   1.711   4.606 -1.3095 -0.0325 -0.7832
  698MOL0     C94113   3.050   1.623   4.508  0.5393 -0.2053  0.4706
  698MOL0     C94114   3.154   1.558   4.564  0.4599 -0.2924 -0.9740
  698MOL0     C94115   3.249   1.473   4.482  0.1943 -0.0213 -0.8594
  698MOL0     C94116   3.340   1.391   4.562  0.2548 -0.6718 -0.5567
  698MOL0     C94117   3.466   1.340   4.489 -0.3976 -0.0873  0.1910
  698MOL0     C94118   3.564   1.460   4.484  0.0658 -0.6805 -0.7707
  698MOL0     O94119   3.693   1.411   4.436  0.0951  0.0023  0.5961
  698MOL0     C94120   3.790   1.350   4.508  0.3327  0.3592 -0.4807
  698MOL0     C94121   3.779   1.313   4.639 -0.0116  0.1684  0.0001
  698MOL0     C94122   3.873   1.223   4.694 -0.6028 -0.1402  0.1618
  698MOL0     C94123   3.984   1.181   4.627  0.5930 -0.6678  0.2389
  698MOL0     C94124   4.073   1.085   4.685  0.1351  0.3381 -0.4918
  698MOL0     O94125   4.194   1.051   4.627 -1.3155  0.6311  0.2571
  698MOL0     C94126   4.285   0.985   4.704  0.7106 -0.5970 -0.2238
  698MOL0     C94127   4.314   0.860   4.660  0.4937  0.2414 -0.1481
  698MOL0     C94128   4.413   0.785   4.719  0.9231  1.0034  1.0659
  698MOL0     C94129   4.480   0.837   4.830  0.0210  0.3072 -0.1710
  698MOL0     O94130   4.580   0.773   4.897  0.2597 -0.2889  0.6904
  698MOL0     C94131   4.687   0.718   4.811  0.4383  0.9293 -0.6724
  698MOL0     C94132   4.795   0.637   4.890 -1.1901  0.6202  0.3787
  698MOL0     C94133   4.899   0.584   4.788 -0.1547 -0.0129 -0.0437
  698MOL0     C94134   5.000   0.514   4.878 -0.0738  0.0643 -0.2653
  698MOL0     C94135   5.100   0.428   4.801  1.3359 -0.4270 -0.3222
  698MOL0     C94136   5.182   0.353   4.905 -0.6249 -0.2592 -1.1868
  698MOL0     C94137   5.296   0.275   4.833 -0.2112  0.2141  0.5934
  698MOL0     C94138   5.411   0.358   4.784  0.5404 -0.3966  0.5574
  698MOL0    Cl94139   5.536   0.234   4.736  0.5446  0.5121 -0.6572
  698MOL0     C94140   4.432   0.958   4.887  0.8671  0.3103  0.4101
  698MOL0     C94141   4.339   1.034   4.824  0.0344 -0.6519 -0.9002
  698MOL0     O94142   4.029   1.027   4.778 -0.0164  0.2047 -0.2439
  698MOL0     C94143   4.002   1.233   4.505 -0.1297  0.0760  1.3892
  698MOL0     C94144   3.910   1.318   4.443  0.2483 -0.3415  0.4038
  698MOL0     N94145   3.160   1.601   4.696 -0.5812 -0.4825  0.6989
  698MOL0     N94146   3.074   1.696   4.722  0.5380  0.3393  0.1323
  698MOL0     C94147   1.714   1.917   4.519  0.5444  1.2334  0.0093
  698MOL0     C94148   1.580   1.938   4.561  0.4591  0.1378  0.8345
  698MOL0     C94149   1.215   1.980   4.848  0.5975 -1.1216  0.9982
  698MOL0     C94150   1.113   1.931   4.769  0.3223 -0.5415 -0.2865
  698MOL0     C94151   0.976   1.943   4.793  0.2728 -0.7699  0.1810
  698MOL0     C94152   0.938   2.011   4.905  0.3187  0.4061  1.5724
  698MOL0     O94153   0.801   2.038   4.916 -0.1856  0.3202 -1.4315
  698MOL0     C94154   0.754   2.120   4.806 -0.1524  0.0515  0.3198
  698MOL0     C94155   0.620   2.182   4.838 -0.4640  0.0510 -0.8064
  698MOL0     C94156   0.635   2.285   4.952  0.7273 -0.2223 -0.1975
  698MOL0     C94157   0.500   2.362   4.963  0.5318 -0.2722 -0.7168
  698MOL0     C94158   0.503   2.475   5.057 -0.4310  0.3114 -0.2849
  698MOL0     C94159   0.500   2.562   5.141  0.6412  0.0831 -0.8252
  698MOL0     C94160   1.038   2.066   4.986 -0.2102 -0.6872  0.1656
  698MOL0     C94161   1.170   2.053   4.966 -0.4777 -0.0731 -0.1031
  698MOL0     C94162   1.270   2.111   5.072  0.1699  0.2414 -0.9705
  698MOL0     H94163   1.543   1.694   4.790  0.3521  2.0393  1.4614
  698MOL0     H94164   1.785   1.653   4.720  0.9366  0.1019 -2.2978
  698MOL0     H94165   1.994   1.818   4.718 -0.5298 -1.4353  0.8077
  698MOL0     H94166   2.020   1.658   4.656  2.0516  0.4618 -0.5696
  698MOL0     H94167   2.147   1.923   4.565 -0.5662  0.0885 -1.4907
  698MOL0     H94168   2.116   1.811   4.442 -0.9572 -2.4172 -0.0153
  698MOL0     H94169   2.268   1.663   4.514 -1.6741 -0.5664  1.0384
  698MOL0     H94170   2.237   1.675   4.681  0.0113 -1.0755 -0.4959
  698MOL0     H94171   2.398   1.892   4.529 -3.1291  3.0896  1.4154
  698MOL0     H94172   2.397   1.870   4.706 -0.8155 -2.0609  0.6962
  698MOL0     H94173   2.520   1.686   4.710 -0.7147 -0.7309  0.3418
  698MOL0     H94174   2.501   1.656   4.536  0.7153  1.5711 -1.2287
  698MOL0     H94175   2.635   1.883   4.508 -0.6221 -0.2296  0.9005
  698MOL0     H94176   2.651   1.886   4.675 -4.4798  2.2037 -1.2832
  698MOL0     H94177   2.753   1.678   4.476  1.2492  0.6746 -0.4811
  698MOL0     H94178   2.751   1.639   4.648  2.3396 -0.3723 -0.4742
  698MOL0     H94179   2.891   1.857   4.501  0.2506  1.5898  1.9717
  698MOL0     H94180   2.886   1.871   4.670 -0.3381 -0.2051  0.8580
  698MOL0     H94181   3.016   1.621   4.405  1.1367 -1.5585  0.2745
  698MOL0     H94182   3.199   1.408   4.410 -1.4493  1.3222 -0.9969
  698MOL0     H94183   3.295   1.559   4.433 -1.5609  2.7703  2.0268
  698MOL0     H94184   3.377   1.444   4.650  0.4006 -0.4335 -0.7625
  698MOL0     H94185   3.289   1.303   4.603 -0.2404  0.3045  1.0113
  698MOL0     H94186   3.437   1.316   4.386  1.3266 -0.2713 -0.2875
  698MOL0     H94187   3.512   1.256   4.543 -0.7697 -1.2322 -1.2122
  698MOL0     H94188   3.567   1.499   4.586 -0.9092 -0.2917 -0.8816
  698MOL0     H94189   3.520   1.542   4.427 -2.3540 -0.5976  1.0976
  698MOL0     H94190   3.695   1.328   4.706 -0.9371  0.9230 -1.3008
  698MOL0     H94191   3.863   1.174   4.790  0.9757 -3.3295 -1.1442
  698MOL0     H94192   4.268   0.832   4.566  1.2939  1.0868 -0.8127
  698MOL0     H94193   4.443   0.685   4.688 -1.3677  0.2815  0.9806
  698MOL0     H94194   4.642   0.636   4.753  2.2016 -1.3567  0.9808
  698MOL0     H94195   4.731   0.796   4.748 -0.3415  1.8885 -0.0357
  698MOL0     H94196   4.840   0.716   4.951 -1.9534  1.2779  0.1154
  698MOL0     H94197   4.746   0.556   4.944 -1.5785 -0.0809 -0.9999
  698MOL0     H94198   4.849   0.518   4.717  1.6899 -0.5874 -0.8764
  698MOL0     H94199   4.948   0.662   4.730  0.9707  0.3174  1.2958
  698MOL0     H94200   4.943   0.457   4.951 -0.2149  0.6776  0.1184
  698MOL0     H94201   5.058   0.592   4.929 -2.4994  1.5569  0.3849
  698MOL0     H94202   5.165   0.489   4.738  1.5340 -0.1815  0.1189
  698MOL0     H94203   5.046   0.356   4.738  2.3029 -2.8870  1.5387
  698MOL0     H94204   5.224   0.415   4.984  2.0963  0.5082 -3.0995
  698MOL0     H94205   5.114   0.288   4.961  0.9776  1.1792  2.7365
  698MOL0     H94206   5.249   0.220   4.750 -1.4426 -1.2649  2.1959
  698MOL0     H94207   5.345   0.202   4.898  0.4809 -1.6495 -1.8575
  698MOL0     H94208   5.367   0.404   4.695 -2.1817 -1.9449  1.0045
  698MOL0     H94209   5.446   0.430   4.858 -0.4231  1.2490 -0.5324
  698MOL0     H94210   4.479   0.990   4.980  0.0497 -1.3911  1.4660
  698MOL0     H94211   4.318   1.129   4.872  1.4874 -0.8320  0.1670
  698MOL0     H94212   4.097   1.217   4.455 -0.7992 -2.9561  0.9379
  698MOL0     H94213   3.930   1.350   4.341 -0.5682  0.8840  0.6004
  698MOL0     H94214   1.752   1.974   4.434 -0.3326  3.9835  1.3684
  698MOL0     H94215   1.524   2.015   4.509  1.8318  2.7960  3.1040
  698MOL0     H94216   1.136   1.870   4.682 -0.2635 -0.0861 -0.7703
  698MOL0     H94217   0.896   1.893   4.740 -0.2206  1.5074 -1.3558
  698MOL0     H94218   0.751   2.050   4.722  0.9964 -3.8369  3.2207
  698MOL0     H94219   0.833   2.195   4.788 -0.2827 -0.2160 -1.4988
  698MOL0     H94220   0.544   2.106   4.857 -0.7618  0.1488 -1.5843
  698MOL0     H94221   0.590   2.239   4.749  1.4791  1.7707 -0.4414
  698MOL0     H94222   0.709   2.357   4.917  2.0605 -1.5080 -0.1015
  698MOL0     H94223   0.655   2.233   5.046  2.7029 -3.2875 -2.1463
  698MOL0     H94224   0.463   2.399   4.868  1.1950  0.4521 -0.7047
  698MOL0     H94225   0.424   2.290   4.995 -0.0310  0.2903 -0.7748
  698MOL0     H94226   0.477   2.628   5.223 -2.5529 -0.5225 -1.1166
  698MOL0     H94227   0.991   2.102   5.077 -1.7452 -2.1540 -0.0125
  698MOL0     H94228   1.322   2.031   5.126  0.5493  0.4452 -1.0379
  698MOL0     H94229   1.346   2.180   5.036  0.5449  1.4179  1.8447
  698MOL0     H94230   1.210   2.163   5.147  1.3915 -0.8020  0.8015
  699MOL0     O94231  10.421   4.050  10.176  0.9137 -0.5617  0.5519
  699MOL0     C94232  10.508   4.136  10.155  0.0165 -0.0384 -0.4217
  699MOL0     O94233  10.632   4.110  10.109  0.2442 -0.4311  0.3646
  699MOL0     C94234  10.661   3.971  10.104  0.6717 -0.4750  0.3644
  699MOL0     C94235  10.713   3.923   9.986  0.0965 -0.4142 -0.4829
  699MOL0     C94236  10.760   3.792   9.971  0.3104  0.1012 -0.4576
  699MOL0     C94237  10.761   3.709  10.082  0.3108  0.5385 -0.4292
  699MOL0     O94238  10.809   3.579  10.065  0.1476 -0.0536 -0.3493
  699MOL0     C94239  10.807   3.482  10.174 -0.1361  0.3870  1.3307
  699MOL0     C94240  10.923   3.393  10.162 -0.2068 -0.9791 -0.6047
  699MOL0     C94241  11.052   3.481  10.197 -0.1839  0.1684 -0.2803
  699MOL0     C94242  11.180   3.404  10.162 -0.1114  0.1585  0.6175
  699MOL0     C94243  11.216   3.288  10.259 -0.1036 -0.4991  0.1756
  699MOL0     C94244  11.309   3.174  10.195  0.4099  0.1491 -0.5793
  699MOL0     C94245  11.366   3.100  10.298 -0.7110 -0.2147 -0.3926
  699MOL0     C94246  11.472   3.009  10.244 -0.5819  0.5353 -0.0310
  699MOL0     N94247  11.532   2.917  10.342  0.2114  0.8629 -0.1036
  699MOL0     C94248  11.558   2.928  10.475 -0.0225 -1.0345 -0.3959
  699MOL0     C94249  11.608   2.809  10.516  0.4107 -0.6348  0.0244
  699MOL0     C94250  11.652   2.756  10.649 -0.5577  0.1659  0.3692
  699MOL0     C94251  11.790   2.812  10.702 -0.2884 -0.0104 -0.1347
  699MOL0     C94252  11.803   2.772  10.846 -0.3582 -0.1099 -1.4718
  699MOL0     C94253  11.938   2.772  10.908 -0.1939  0.0103 -0.1509
  699MOL0     O94254  12.034   2.707  10.833 -0.0839 -0.1058 -0.0693
  699MOL0     C94255  12.158   2.691  10.877 -0.0067 -0.0388  0.8732
  699MOL0     C94256  12.210   2.736  10.997 -0.0132  0.0017  0.1751
  699MOL0     C94257  12.347   2.723  11.035  0.7424 -0.2657 -0.3559
  699MOL0     C94258  12.428   2.657  10.950  0.0515 -0.5705  0.5124
  699MOL0     C94259  12.572   2.633  10.995  0.3621 -0.6344  0.6908
  699MOL0     O94260  12.653   2.578  10.897  0.2831 -0.4044 -0.2221
  699MOL0     C94261  12.778   2.545  10.934  0.2515  0.4071 -0.2853
  699MOL0     C94262  12.881   2.642  10.934  0.3397  1.0601 -0.8487
  699MOL0     C94263  13.011   2.593  10.971 -0.5397  0.8025  0.5097
  699MOL0     C94264  13.043   2.456  11.002  0.8101 -0.4673  0.4269
  699MOL0     O94265  13.167   2.404  11.037  0.0106  0.3913  0.0552
  699MOL0     C94266  13.293   2.467  11.003  0.2740  0.1549  0.2304
  699MOL0     C94267  13.406   2.365  10.991  1.1334 -0.2459 -0.6392
  699MOL0     C94268  13.540   2.442  10.998  0.1448 -0.1649 -0.5553
  699MOL0     C94269  13.652   2.341  10.947 -1.0831 -0.0447 -0.5749
  699MOL0     C94270  13.699   2.248  11.070  0.2721 -0.4502  0.7237
  699MOL0     C94271  13.801   2.155  11.005  0.7630 -0.6272 -0.2867
  699MOL0     C94272  13.860   2.043  11.084  0.6414  0.5852  0.3497
  699MOL0     C94273  13.964   2.077  11.181 -0.6402 -0.2745 -0.0649
  699MOL0    Cl94274  14.024   1.904  11.251  0.0314 -0.0010  0.0588
  699MOL0     C94275  12.949   2.363  10.987  0.8457  0.5153 -0.5157
  699MOL0     C94276  12.820   2.409  10.947 -0.1652  0.2818  0.2510
  699MOL0     O94277  12.599   2.641  11.112  0.2036  0.0150 -0.4060
  699MOL0     C94278  12.378   2.610  10.824 -0.2460  0.6522 -1.3001
  699MOL0     C94279  12.244   2.626  10.796 -0.3165  1.0024 -0.1556
  699MOL0     N94280  11.596   2.725  10.402 -0.8326 -0.7579 -0.8305
  699MOL0     N94281  11.551   2.786  10.304  1.1652 -0.4054 -0.8989
  699MOL0     C94282  10.703   3.759  10.213 -0.2821  0.0051  0.8350
  699MOL0     C94283  10.658   3.888  10.216  0.7018  0.3802 -0.4777
  699MOL0     C94284  10.464   4.273  10.166  0.7521 -0.4579  0.1616
  699MOL0     C94285  10.334   4.303  10.130  0.2969  0.0035 -0.3119
  699MOL0     C94286  10.284   4.440  10.129  0.1951 -0.4915 -0.8683
  699MOL0     C94287  10.373   4.542  10.145  0.3660  0.0948 -0.2013
  699MOL0     O94288  10.323   4.668  10.143  0.2578 -0.2951  0.0738
  699MOL0     C94289  10.356   4.757  10.253  0.3213 -0.5630  0.1891
  699MOL0     C94290  10.322   4.901  10.220  0.3615  0.7632  0.9502
  699MOL0     C94291  10.373   4.996  10.326 -0.0363  1.6135 -0.6584
  699MOL0     C94292  10.284   5.118  10.355 -0.2306 -0.2301  0.8532
  699MOL0     C94293  10.228   5.177  10.232  0.6232 -0.1711  0.5496
  699MOL0     C94294  10.183   5.214  10.130  0.1760 -0.5445  0.6799
  699MOL0     C94295  10.504   4.505  10.186 -0.7522 -0.1668 -0.6667
  699MOL0     C94296  10.553   4.374  10.194 -0.0055  0.3419 -0.2313
  699MOL0     C94297  10.692   4.357  10.251  0.1120 -0.6964  0.3005
  699MOL0     H94298  10.717   3.999   9.909 -0.2326  3.0473  2.6429
  699MOL0     H94299  10.805   3.753   9.880 -1.2126  1.2986 -1.7775
  699MOL0     H94300  10.805   3.528  10.273  0.7068 -1.7882  2.4223
  699MOL0     H94301  10.720   3.415  10.172 -3.2368  4.0462  0.2113
  699MOL0     H94302  10.931   3.347  10.063  1.6399 -1.4561 -0.2815
  699MOL0     H94303  10.915   3.311  10.235  1.1871  0.2043  0.9506
  699MOL0     H94304  11.059   3.503  10.304 -0.1144  2.9264 -0.7943
  699MOL0     H94305  11.035   3.577  10.149 -0.1902  0.4361  0.2483
  699MOL0     H94306  11.175   3.351  10.066 -0.5260 -0.7614  1.1371
  699MOL0     H94307  11.266   3.471  10.150 -0.4076  0.4908  0.2887
  699MOL0     H94308  11.271   3.331  10.344 -0.8950  2.4481 -0.6898
  699MOL0     H94309  11.123   3.240  10.290 -0.0011 -1.3270 -0.7732
  699MOL0     H94310  11.244   3.109  10.135  0.0144  1.0561 -1.1581
  699MOL0     H94311  11.391   3.209  10.132  0.7074 -1.8279 -1.3419
  699MOL0     H94312  11.289   3.041  10.349 -1.8311  2.1441  0.7920
  699MOL0     H94313  11.407   3.167  10.375  0.2890 -0.9347 -0.2847
  699MOL0     H94314  11.420   2.954  10.165 -1.2571  3.6808 -1.9737
  699MOL0     H94315  11.553   3.066  10.197 -0.2621  0.2759  0.2008
  699MOL0     H94316  11.562   3.027  10.519  2.3452  0.9497 -4.4977
  699MOL0     H94317  11.579   2.776  10.728  0.0020  0.1114  0.9086
  699MOL0     H94318  11.654   2.647  10.637  1.0381  0.2779 -0.6254
  699MOL0     H94319  11.858   2.751  10.641 -1.8708  0.2153 -2.2525
  699MOL0     H94320  11.813   2.916  10.676 -0.8533 -0.3582 -2.2464
  699MOL0     H94321  11.752   2.676  10.863 -0.7861  0.3782  0.1226
  699MOL0     H94322  11.743   2.847  10.898  1.8562  1.5927 -1.2835
  699MOL0     H94323  11.921   2.732  11.009  0.9057 -0.6845 -0.2190
  699MOL0     H94324  11.973   2.875  10.909  1.6773 -0.5793 -0.7911
  699MOL0     H94325  12.151   2.791  11.070 -0.0514 -0.5937  0.5947
  699MOL0     H94326  12.375   2.772  11.128 -0.8353  1.4882 -0.7411
  699MOL0     H94327  12.856   2.746  10.918  1.0514  0.9958 -2.6255
  699MOL0     H94328  13.093   2.662  10.987 -0.4065  1.4339 -2.3999
  699MOL0     H94329  13.306   2.525  10.911 -0.7272  1.0057  0.6179
  699MOL0     H94330  13.317   2.539  11.081 -0.7835  2.1470 -1.2101
  699MOL0     H94331  13.394   2.290  11.070 -1.1489  1.3991  0.6935
  699MOL0     H94332  13.388   2.309  10.898 -1.6158  0.4931 -0.6393
  699MOL0     H94333  13.536   2.529  10.933  1.2410 -0.4384 -1.0263
  699MOL0     H94334  13.567   2.465  11.102 -0.1432  2.1649 -0.9466
  699MOL0     H94335  13.738   2.399  10.915 -0.6390 -0.2789  0.1758
  699MOL0     H94336  13.613   2.286  10.861  1.0524 -0.2710 -1.4505
  699MOL0     H94337  13.614   2.199  11.119  0.6389 -0.7707  1.0410
  699MOL0     H94338  13.746   2.311  11.145 -1.6989  0.8605  0.9473
  699MOL0     H94339  13.752   2.113  10.916  1.5370 -0.7578 -0.6568
  699MOL0     H94340  13.883   2.212  10.962 -0.3140  0.3977 -1.0683
  699MOL0     H94341  13.906   1.961  11.029  1.5861 -1.0588  3.3716
  699MOL0     H94342  13.772   1.998  11.130 -1.8119  1.1850 -3.3268
  699MOL0     H94343  14.050   2.124  11.133 -0.8568 -0.7747 -0.9622
  699MOL0     H94344  13.933   2.151  11.255  2.2999 -0.2451  1.3152
  699MOL0     H94345  12.977   2.261  11.007  1.7643  0.8392 -0.1034
  699MOL0     H94346  12.749   2.330  10.925 -0.4809  0.1612  1.6329
  699MOL0     H94347  12.436   2.543  10.761 -0.8067 -4.1295  2.6488
  699MOL0     H94348  12.206   2.579  10.705  1.3332 -0.7871  0.0247
  699MOL0     H94349  10.711   3.706  10.307  0.9357 -0.6851  0.3579
  699MOL0     H94350  10.629   3.938  10.309  0.5587  3.0982 -1.8850
  699MOL0     H94351  10.257   4.227  10.121 -3.9051  3.2968  3.1908
  699MOL0     H94352  10.179   4.465  10.118 -0.2366  0.6884  3.9090
  699MOL0     H94353  10.462   4.774  10.275  1.0265  0.0402 -3.1231
  699MOL0     H94354  10.304   4.719  10.341 -2.0009  0.0420 -0.8486
  699MOL0     H94355  10.214   4.899  10.207  0.6778 -1.3200 -2.8365
  699MOL0     H94356  10.353   4.937  10.121 -0.9099 -2.4776 -0.7541
  699MOL0     H94357  10.471   5.036  10.298  1.7181 -0.8968  1.3521
  699MOL0     H94358  10.382   4.953  10.426 -4.4104  2.2373  0.1859
  699MOL0     H94359  10.201   5.081  10.417 -2.0068  0.1535 -1.1524
  699MOL0     H94360  10.339   5.188  10.418  0.0253  0.5118 -0.1731
  699MOL0     H94361  10.156   5.244  10.030  1.1611 -2.4690 -0.2102
  699MOL0     H94362  10.564   4.595  10.197 -0.0650  0.2539 -5.4126
  699MOL0     H94363  10.683   4.285  10.333 -0.4984 -0.0897  0.7757
  699MOL0     H94364  10.770   4.324  10.182  1.7397 -0.5830  2.0154
  699MOL0     H94365  10.736   4.444  10.299  1.7004 -1.4522  0.2736
  700MOL0     O94366   9.200   2.516   2.926  0.0641 -0.1682  0.5842
  700MOL0     C94367   9.194   2.513   2.800 -0.0499 -0.7760 -0.0724
  700MOL0     O94368   9.297   2.505   2.704  0.3596 -0.0882  0.2127
  700MOL0     C94369   9.423   2.505   2.748  0.0928  0.8943 -0.4502
  700MOL0     C94370   9.497   2.393   2.712 -0.4054 -0.8724 -0.4551
  700MOL0     C94371   9.632   2.370   2.758 -0.1451 -1.6288  0.9305
  700MOL0     C94372   9.695   2.467   2.838 -0.1316  0.1993  0.2989
  700MOL0     O94373   9.824   2.441   2.871 -0.1603  0.5590 -0.1521
  700MOL0     C94374   9.920   2.544   2.870  0.7173 -0.3418 -0.3745
  700MOL0     C94375  10.059   2.482   2.841  0.4076  0.0429  0.3798
  700MOL0     C94376  10.067   2.406   2.713  0.5124  0.8480 -0.0944
  700MOL0     C94377  10.216   2.409   2.668 -0.1229 -0.6651  0.0083
  700MOL0     C94378  10.232   2.323   2.540 -0.5104  1.5320  0.5772
  700MOL0     C94379  10.233   2.171   2.567  1.2353 -0.4194 -0.4556
  700MOL0     C94380  10.250   2.093   2.434  0.5073  0.1348  0.5757
  700MOL0     C94381  10.395   2.097   2.374 -0.1670 -0.0538 -0.4426
  700MOL0     N94382  10.493   2.003   2.433  0.5216 -0.1004 -0.3395
  700MOL0     C94383  10.497   1.865   2.417  0.2530  0.1781 -0.6141
  700MOL0     C94384  10.592   1.826   2.509  0.5634  0.6652 -0.3307
  700MOL0     C94385  10.623   1.684   2.551  0.6337  0.9155  0.2661
  700MOL0     C94386  10.589   1.652   2.695  0.0698  0.2100 -0.1138
  700MOL0     C94387  10.548   1.507   2.711 -0.5288  1.2067 -0.5477
  700MOL0     C94388  10.646   1.402   2.647  0.1152 -0.1313  0.0752
  700MOL0     O94389  10.641   1.274   2.701  0.0772  0.0328 -0.5727
  700MOL0     C94390  10.753   1.194   2.716 -0.4417 -0.0900 -0.5765
  700MOL0     C94391  10.873   1.211   2.650 -0.0636 -0.5694 -0.4460
  700MOL0     C94392  10.988   1.139   2.687  0.0739 -0.4025  0.0819
  700MOL0     C94393  10.968   1.025   2.765 -0.1336  0.1720 -0.1338
  700MOL0     C94394  11.087   0.939   2.783 -0.9193 -0.9169  0.3282
  700MOL0     O94395  11.202   0.986   2.726 -0.4067  0.0920 -0.1498
  700MOL0     C94396  11.327   0.918   2.741  1.2724 -0.5431  0.4923
  700MOL0     C94397  11.359   0.790   2.781  0.0153 -1.2358  0.3983
  700MOL0     C94398  11.492   0.748   2.799  0.3040  0.5034 -0.4662
  700MOL0     C94399  11.593   0.827   2.749  0.4743  0.1256  0.0569
  700MOL0     O94400  11.731   0.805   2.756  0.4279  0.4248  0.0339
  700MOL0     C94401  11.768   0.695   2.843 -0.3098 -0.0963 -0.6132
  700MOL0     C94402  11.912   0.658   2.824 -0.4499  0.6274  0.3413
  700MOL0     C94403  11.943   0.516   2.889 -0.6226 -0.3466 -0.2110
  700MOL0     C94404  12.097   0.484   2.860  0.6076  0.1200  0.5523
  700MOL0     C94405  12.146   0.397   2.977 -0.0560 -0.1319 -0.6301
  700MOL0     C94406  12.218   0.494   3.076 -0.1810  0.3011 -0.1375
  700MOL0     C94407  12.261   0.409   3.195 -0.1622 -0.2639 -0.9494
  700MOL0     C94408  12.316   0.496   3.303  0.1193  0.3448 -0.4539
  700MOL0    Cl94409  12.373   0.399   3.441  0.1228 -0.1256 -0.0304
  700MOL0     C94410  11.557   0.952   2.688 -0.5959  0.4579 -0.0774
  700MOL0     C94411  11.428   0.995   2.685 -0.2941 -0.3357 -0.0996
  700MOL0     O94412  11.080   0.836   2.858  0.0062 -0.4146  0.2236
  700MOL0     C94413  10.843   1.001   2.825  0.4687 -0.6554  0.1294
  700MOL0     C94414  10.744   1.086   2.806  0.4891  0.3808 -0.1209
  700MOL0     N94415  10.642   1.937   2.578 -0.7374 -0.4438 -0.8380
  700MOL0     N94416  10.592   2.038   2.524  0.1360 -0.3500  0.6015
  700MOL0     C94417   9.623   2.581   2.881  0.7693  0.0848 -0.4140
  700MOL0     C94418   9.488   2.598   2.835 -0.9472 -0.2416 -0.7808
  700MOL0     C94419   9.058   2.532   2.744  0.1627  0.7624 -0.5299
  700MOL0     C94420   9.032   2.627   2.643  0.5335  0.0136 -0.0445
  700MOL0     C94421   8.910   2.636   2.575  0.3730  0.0386 -0.8776
  700MOL0     C94422   8.797   2.566   2.621 -0.5447 -0.6106  0.7298
  700MOL0     O94423   8.670   2.583   2.559 -0.0026  1.0119  0.2058
  700MOL0     C94424   8.670   2.560   2.414  0.3328 -0.3973  0.6794
  700MOL0     C94425   8.528   2.551   2.365  0.4461 -0.8275  0.0028
  700MOL0     C94426   8.438   2.688   2.349 -0.0927  0.0241 -1.2868
  700MOL0     C94427   8.295   2.671   2.292 -0.4508  0.2260  0.6908
  700MOL0     C94428   8.226   2.544   2.328 -0.1525  0.0087  0.0352
  700MOL0     C94429   8.174   2.438   2.364 -0.4206 -0.4151 -0.5153
  700MOL0     C94430   8.814   2.476   2.724  0.0655 -0.3677 -2.1691
  700MOL0     C94431   8.942   2.463   2.788 -0.3529  0.6243 -0.3459
  700MOL0     C94432   8.952   2.333   2.866  0.1404  1.3641  0.1673
  700MOL0     H94433   9.451   2.320   2.645  1.5649 -1.2669 -1.4662
  700MOL0     H94434   9.685   2.282   2.724  1.8505 -1.0715  2.3568
  700MOL0     H94435   9.887   2.616   2.795  1.4166 -1.2177 -1.5541
  700MOL0     H94436   9.924   2.592   2.968  5.8238  0.3676 -0.6792
  700MOL0     H94437  10.107   2.422   2.918 -0.6430 -1.9866 -0.4718
  700MOL0     H94438  10.135   2.561   2.831  1.5010 -1.0326 -0.0931
  700MOL0     H94439  10.005   2.461   2.642  0.1736  3.5214  2.0890
  700MOL0     H94440  10.039   2.300   2.720 -0.4723  1.0663 -0.5551
  700MOL0     H94441  10.241   2.513   2.646 -3.0751 -0.4744 -3.6463
  700MOL0     H94442  10.280   2.374   2.749 -1.1246  2.2017  2.1830
  700MOL0     H94443  10.157   2.348   2.464  0.2596  0.1258 -0.6942
  700MOL0     H94444  10.334   2.346   2.507 -0.0982  0.5526  1.1421
  700MOL0     H94445  10.318   2.160   2.634  2.0131  3.4800 -0.6129
  700MOL0     H94446  10.141   2.137   2.617  2.1443 -3.3178 -0.5351
  700MOL0     H94447  10.176   2.126   2.361  0.7511 -1.2689 -0.3373
  700MOL0     H94448  10.226   1.990   2.463 -0.6934  1.4545  5.1184
  700MOL0     H94449  10.384   2.085   2.266 -0.7617  1.8695 -0.6440
  700MOL0     H94450  10.444   2.193   2.395  1.0918 -0.8103  0.1755
  700MOL0     H94451  10.448   1.805   2.341 -0.1163 -0.2318 -0.0546
  700MOL0     H94452  10.552   1.628   2.489  0.9166  0.3461  0.4540
  700MOL0     H94453  10.726   1.657   2.526  1.0349  1.9391  0.7448
  700MOL0     H94454  10.670   1.676   2.765 -2.0180  1.2688  2.1220
  700MOL0     H94455  10.506   1.711   2.736 -1.8436 -2.1692 -0.2737
  700MOL0     H94456  10.446   1.484   2.680  0.4985 -5.0122 -0.6105
  700MOL0     H94457  10.551   1.481   2.818  0.4812 -1.5090 -1.1404
  700MOL0     H94458  10.747   1.442   2.654 -0.5055  1.6201 -0.3754
  700MOL0     H94459  10.629   1.386   2.540  1.7022  2.3072 -0.6238
  700MOL0     H94460  10.882   1.293   2.578 -2.7604 -0.6041 -0.9131
  700MOL0     H94461  11.077   1.159   2.628  1.1014 -2.2663  0.9046
  700MOL0     H94462  11.279   0.725   2.816 -1.2645  0.0835 -0.0008
  700MOL0     H94463  11.515   0.657   2.855  2.6589  0.7804 -0.8604
  700MOL0     H94464  11.742   0.696   2.950  1.2690 -0.2330 -0.1940
  700MOL0     H94465  11.720   0.602   2.812  0.3048 -0.6014 -0.0875
  700MOL0     H94466  11.935   0.656   2.717  0.7865  0.4860  0.5962
  700MOL0     H94467  11.978   0.728   2.876  2.3580 -0.7853 -1.0501
  700MOL0     H94468  11.918   0.527   2.995  0.6170  1.1327 -0.0300
  700MOL0     H94469  11.876   0.442   2.845 -1.4800  0.8771 -1.0446
  700MOL0     H94470  12.152   0.576   2.838 -1.6514  1.5262  0.4231
  700MOL0     H94471  12.100   0.425   2.768  0.4702 -1.6718  1.6519
  700MOL0     H94472  12.214   0.319   2.941  1.1721  0.4840  0.2680
  700MOL0     H94473  12.062   0.354   3.032 -0.4691 -0.7588 -1.7185
  700MOL0     H94474  12.307   0.531   3.024  1.2741 -0.4014  1.7168
  700MOL0     H94475  12.158   0.578   3.111 -0.1806 -0.9323  3.2048
  700MOL0     H94476  12.341   0.347   3.154 -1.3431 -2.5019 -0.0224
  700MOL0     H94477  12.178   0.360   3.247 -0.2956  1.7381  0.9115
  700MOL0     H94478  12.405   0.543   3.260 -0.0694  0.3875 -0.8038
  700MOL0     H94479  12.241   0.567   3.338 -0.8424 -1.1332  0.6261
  700MOL0     H94480  11.625   1.023   2.643 -0.0960 -0.2869 -0.5205
  700MOL0     H94481  11.402   1.086   2.633 -0.1482 -1.5178 -2.3832
  700MOL0     H94482  10.831   0.918   2.893  1.4412 -0.3817  0.6618
  700MOL0     H94483  10.644   1.062   2.841  0.1927 -1.6768 -2.1591
  700MOL0     H94484   9.668   2.651   2.951 -1.0446 -1.8137  2.9400
  700MOL0     H94485   9.425   2.680   2.868  0.1567  1.5059 -2.7443
  700MOL0     H94486   9.123   2.685   2.628  2.1557 -1.6635  2.6047
  700MOL0     H94487   8.889   2.693   2.486 -0.7456  1.2978  0.1525
  700MOL0     H94488   8.710   2.459   2.396  0.5698 -0.4894  1.6340
  700MOL0     H94489   8.727   2.632   2.355 -0.0098 -0.4315  0.3040
  700MOL0     H94490   8.477   2.475   2.424 -0.9398  0.2358  0.2172
  700MOL0     H94491   8.532   2.513   2.262 -0.6864 -0.8622 -0.0363
  700MOL0     H94492   8.485   2.770   2.293 -0.8024  1.5376  0.2454
  700MOL0     H94493   8.423   2.722   2.452  0.0937 -0.3402 -1.1428
  700MOL0     H94494   8.228   2.755   2.313 -2.9578 -0.4917 -3.4548
  700MOL0     H94495   8.301   2.666   2.183  1.4483  1.4071  0.7066
  700MOL0     H94496   8.134   2.342   2.390 -1.9146  0.4645  0.5726
  700MOL0     H94497   8.726   2.425   2.761 -0.0452  2.3328  1.9157
  700MOL0     H94498   9.040   2.320   2.929 -0.7204 -1.3605  0.9628
  700MOL0     H94499   8.871   2.311   2.936  2.9372 -0.7385  3.0123
  700MOL0     H94500   8.949   2.264   2.781 -1.6543  0.2204  1.0926
  701MOL0     O94501   4.259   5.392   1.213 -0.2347 -0.2938 -0.6738
  701MOL0     C94502   4.301   5.274   1.223  0.1025 -0.1304  0.7344
  701MOL0     O94503   4.219   5.167   1.218  0.0481  0.5229  0.5031
  701MOL0     C94504   4.088   5.184   1.210  0.3369  0.9787  1.2160
  701MOL0     C94505   4.017   5.268   1.295 -0.5715  0.0972  0.0909
  701MOL0     C94506   3.879   5.267   1.300  1.0144  0.4098  0.2988
  701MOL0     C94507   3.806   5.189   1.210  0.4182  0.1634  0.4401
  701MOL0     O94508   3.670   5.216   1.192  0.7356 -0.7517 -0.2394
  701MOL0     C94509   3.585   5.100   1.175 -0.7470  0.0986 -0.2751
  701MOL0     C94510   3.440   5.126   1.217  0.1688  0.3095  0.2706
  701MOL0     C94511   3.404   5.158   1.375 -0.3888  0.0475 -0.3170
  701MOL0     C94512   3.252   5.147   1.396  0.3427 -0.1045 -0.9545
  701MOL0     C94513   3.200   5.167   1.542  0.3992 -0.3348  0.1595
  701MOL0     C94514   3.209   5.035   1.625 -0.1688 -1.0136  0.3609
  701MOL0     C94515   3.179   5.066   1.776  0.2899  0.5413  0.2653
  701MOL0     C94516   3.120   4.941   1.847 -0.3277  0.3616 -0.0697
  701MOL0     N94517   2.983   4.932   1.791  0.0806  0.1723  0.1544
  701MOL0     C94518   2.934   4.823   1.723 -0.5821  0.2503 -0.1527
  701MOL0     C94519   2.805   4.846   1.712  0.9581  1.1075 -0.2963
  701MOL0     C94520   2.704   4.768   1.626 -0.7232  0.9826 -0.4179
  701MOL0     C94521   2.642   4.634   1.682 -0.0437  0.2767 -0.2237
  701MOL0     C94522   2.738   4.523   1.682  0.1041 -0.0168 -0.1289
  701MOL0     C94523   2.738   4.429   1.546  1.4175 -0.1144 -1.0104
  701MOL0     O94524   2.776   4.487   1.424 -0.1426  0.1856  0.5287
  701MOL0     C94525   2.908   4.515   1.418  0.3341 -0.8694  0.3713
  701MOL0     C94526   3.003   4.460   1.499  0.0063 -0.0443  0.3984
  701MOL0     C94527   3.132   4.519   1.492  0.4413 -0.4699 -0.1625
  701MOL0     C94528   3.168   4.625   1.406  0.0283  0.1936 -0.3512
  701MOL0     C94529   3.304   4.683   1.393 -0.2120  0.5636  0.3149
  701MOL0     O94530   3.394   4.644   1.493 -0.2273 -0.2647  0.4938
  701MOL0     C94531   3.525   4.684   1.495 -0.3305  0.4583 -0.0894
  701MOL0     C94532   3.605   4.639   1.393  0.4563 -0.1559  0.4370
  701MOL0     C94533   3.738   4.694   1.383  0.2512 -0.4247  0.0003
  701MOL0     C94534   3.790   4.786   1.476  0.7771  0.1143 -0.1316
  701MOL0     O94535   3.919   4.827   1.448  0.3365  0.5974  0.4024
  701MOL0     C94536   3.975   4.949   1.512  0.1214  0.2294  0.3933
  701MOL0     C94537   4.123   4.922   1.530 -0.4502  0.1560 -0.9567
  701MOL0     C94538   4.154   4.807   1.627 -0.1830  0.5091  0.3212
  701MOL0     C94539   4.311   4.822   1.661  0.9841  0.7169 -0.0918
  701MOL0     C94540   4.355   4.726   1.777 -0.6091  0.5101 -0.0145
  701MOL0     C94541   4.499   4.761   1.821 -0.1399 -0.3061 -0.0413
  701MOL0     C94542   4.585   4.645   1.883 -0.6404 -1.3006  1.9138
  701MOL0     C94543   4.541   4.614   2.011  1.2754 -0.5979  0.4779
  701MOL0    Cl94544   4.644   4.490   2.090 -0.0167 -0.2046  0.1379
  701MOL0     C94545   3.708   4.810   1.587 -0.8964  0.6869 -0.5362
  701MOL0     C94546   3.576   4.761   1.592 -0.3578 -0.4021  0.2323
  701MOL0     O94547   3.332   4.744   1.293 -0.2477 -0.6594  0.6822
  701MOL0     C94548   3.066   4.676   1.331 -0.0583 -0.3408  0.6035
  701MOL0     C94549   2.939   4.625   1.342 -0.3662  1.0587 -0.5672
  701MOL0     N94550   2.772   4.960   1.788  0.0227  0.1332  0.0418
  701MOL0     N94551   2.879   5.006   1.839  0.6932  0.1542  0.6892
  701MOL0     C94552   3.879   5.102   1.131  0.0035  0.6349  0.1256
  701MOL0     C94553   4.016   5.098   1.126  0.2811 -0.0772  0.5432
  701MOL0     C94554   4.444   5.239   1.232 -1.1848  0.5926  1.0495
  701MOL0     C94555   4.531   5.352   1.229 -0.2309 -0.2713 -0.3427
  701MOL0     C94556   4.676   5.340   1.241  0.2933 -1.1891 -0.9270
  701MOL0     C94557   4.738   5.217   1.247  0.0940 -0.1694 -0.1245
  701MOL0     O94558   4.865   5.210   1.290 -0.2129  0.2256 -0.9515
  701MOL0     C94559   4.948   5.117   1.222  0.2730 -0.7666 -1.0247
  701MOL0     C94560   5.076   5.198   1.187  0.0561  0.3411 -0.8821
  701MOL0     C94561   5.168   5.229   1.306 -0.2966  0.1233  0.4358
  701MOL0     C94562   5.244   5.351   1.255  0.3411  0.4702 -0.3972
  701MOL0     C94563   5.337   5.409   1.363  0.4254 -0.6160 -0.2628
  701MOL0     C94564   5.393   5.464   1.456 -0.2793  0.3673  0.0745
  701MOL0     C94565   4.650   5.101   1.246 -1.4940 -0.5334  0.3970
  701MOL0     C94566   4.513   5.111   1.242  0.2015 -0.2684  0.3738
  701MOL0     C94567   4.436   4.976   1.255 -0.7742 -0.1963  0.2507
  701MOL0     H94568   4.056   5.337   1.370  0.8773 -1.5172  0.9159
  701MOL0     H94569   3.820   5.338   1.356 -1.2400  1.1304 -2.7110
  701MOL0     H94570   3.600   5.059   1.075  2.2573 -2.1730  0.9600
  701MOL0     H94571   3.625   5.020   1.238  1.8204  0.5574 -1.2067
  701MOL0     H94572   3.384   5.036   1.194 -1.7574  1.6828 -0.6523
  701MOL0     H94573   3.401   5.209   1.157  0.7866  0.1323 -0.4045
  701MOL0     H94574   3.436   5.258   1.405 -1.7127  0.4687 -0.2415
  701MOL0     H94575   3.441   5.080   1.442 -0.3093  1.1276  0.9201
  701MOL0     H94576   3.209   5.226   1.333 -1.3629 -0.8079 -0.7263
  701MOL0     H94577   3.206   5.055   1.359 -0.9368 -1.1482  2.7774
  701MOL0     H94578   3.259   5.248   1.586 -1.6246  1.0551  0.4505
  701MOL0     H94579   3.097   5.203   1.547  1.0848  1.5917  3.3397
  701MOL0     H94580   3.145   4.957   1.583 -2.2018  0.1515  1.1600
  701MOL0     H94581   3.309   4.991   1.629  0.1598 -0.9097 -3.0918
  701MOL0     H94582   3.107   5.146   1.796 -0.2041  0.0935  0.3067
  701MOL0     H94583   3.273   5.087   1.827  0.3359  0.4172  0.2322
  701MOL0     H94584   3.179   4.850   1.828 -0.0698  0.4882  0.1130
  701MOL0     H94585   3.127   4.954   1.956  1.3742  0.7917 -0.2005
  701MOL0     H94586   2.985   4.743   1.671 -0.9512 -0.2303  0.2104
  701MOL0     H94587   2.609   4.822   1.613 -0.0666  2.2589 -0.0537
  701MOL0     H94588   2.752   4.747   1.530 -1.4470 -1.9028 -0.2572
  701MOL0     H94589   2.625   4.654   1.788  2.1471 -0.4812  0.3145
  701MOL0     H94590   2.547   4.607   1.634 -1.4729  0.2256  2.4265
  701MOL0     H94591   2.723   4.460   1.769  2.1204  1.4018  1.3407
  701MOL0     H94592   2.834   4.561   1.718  2.4416 -6.6699  2.2418
  701MOL0     H94593   2.632   4.401   1.542  1.0343  0.9883  0.5208
  701MOL0     H94594   2.796   4.338   1.562  3.0150  1.0831  0.4054
  701MOL0     H94595   2.977   4.387   1.575 -0.8003  0.4037  0.5570
  701MOL0     H94596   3.204   4.478   1.562  0.2216  3.3743  2.6493
  701MOL0     H94597   3.557   4.565   1.330 -2.2602 -0.7762  2.9779
  701MOL0     H94598   3.806   4.673   1.301 -0.4424  2.5286 -1.4518
  701MOL0     H94599   3.963   5.027   1.436 -3.0265 -1.5526 -1.1497
  701MOL0     H94600   3.923   4.964   1.607 -0.2683 -0.6614  0.3319
  701MOL0     H94601   4.168   4.914   1.431 -0.5215 -2.6920 -0.8522
  701MOL0     H94602   4.168   5.011   1.574  0.3374 -0.6218 -0.1446
  701MOL0     H94603   4.101   4.802   1.722 -0.3451  0.6428  0.2373
  701MOL0     H94604   4.134   4.713   1.575  1.8339 -0.3183  0.9152
  701MOL0     H94605   4.323   4.920   1.708 -5.2985  0.7987  2.2683
  701MOL0     H94606   4.370   4.809   1.569 -1.2426  0.6490 -1.6075
  701MOL0     H94607   4.349   4.623   1.740  1.9673 -0.5861  2.2950
  701MOL0     H94608   4.278   4.743   1.852 -1.5796  0.4203 -0.9659
  701MOL0     H94609   4.548   4.801   1.732 -3.8211  1.7340 -1.4038
  701MOL0     H94610   4.481   4.848   1.885  1.4046  3.1832 -3.9071
  701MOL0     H94611   4.687   4.683   1.897 -0.5866  0.3806 -1.8347
  701MOL0     H94612   4.585   4.557   1.817 -1.5431  0.4521 -0.5707
  701MOL0     H94613   4.535   4.706   2.070  0.3515 -1.2668  1.4627
  701MOL0     H94614   4.441   4.569   2.011  0.6617  0.7170  0.0657
  701MOL0     H94615   3.737   4.877   1.667  3.8441 -1.2973 -0.2897
  701MOL0     H94616   3.509   4.785   1.674 -0.8046  3.2717 -0.9820
  701MOL0     H94617   3.074   4.762   1.266  2.4989 -0.3106  0.8702
  701MOL0     H94618   2.858   4.656   1.277 -1.0653 -2.6230 -1.7025
  701MOL0     H94619   3.826   5.044   1.056 -0.8813  2.8558 -1.0561
  701MOL0     H94620   4.066   5.016   1.075 -3.3310 -2.0385 -0.2771
  701MOL0     H94621   4.491   5.450   1.204  2.5462  0.6859 -1.4180
  701MOL0     H94622   4.739   5.428   1.243 -1.3567  0.0540  0.8058
  701MOL0     H94623   4.906   5.078   1.129  2.7200  3.0940 -4.0851
  701MOL0     H94624   4.967   5.034   1.290 -0.9900  0.6896  1.2290
  701MOL0     H94625   5.041   5.283   1.128 -1.8234  0.7935  0.7834
  701MOL0     H94626   5.141   5.149   1.114  0.6540  1.5759 -1.2001
  701MOL0     H94627   5.235   5.147   1.332  0.9075  1.4820  1.8346
  701MOL0     H94628   5.102   5.241   1.393  0.1321 -2.4532  1.1876
  701MOL0     H94629   5.306   5.317   1.171 -1.0606 -2.7189 -0.2578
  701MOL0     H94630   5.166   5.424   1.233 -1.9349 -0.8741  2.4856
  701MOL0     H94631   5.456   5.501   1.535  2.9306 -2.3158 -0.9489
  701MOL0     H94632   4.705   5.013   1.276 -0.1037  0.5465  1.1346
  701MOL0     H94633   4.376   4.960   1.346 -2.0292  0.3600 -0.4526
  701MOL0     H94634   4.375   4.967   1.165  0.4015  0.1033 -0.5934
  701MOL0     H94635   4.516   4.901   1.257  1.7792  2.2895  3.4450
  702MOL0     O94636   8.331   5.718   0.908  0.2151 -0.1280  0.4500
  702MOL0     C94637   8.363   5.644   1.002 -0.5484  0.5434  0.7724
  702MOL0     O94638   8.277   5.584   1.092  0.4997  0.7028 -0.4723
  702MOL0     C94639   8.141   5.577   1.069 -0.5223 -0.0306  0.4656
  702MOL0     C94640   8.088   5.534   0.941  0.3665 -0.3798  0.1268
  702MOL0     C94641   7.950   5.522   0.921 -0.4327 -0.3353 -0.9932
  702MOL0     C94642   7.857   5.543   1.024 -0.9899 -0.3737 -0.8723
  702MOL0     O94643   7.731   5.545   0.990  0.3218 -0.1904  1.0207
  702MOL0     C94644   7.626   5.515   1.086 -0.1600 -0.4515 -0.3393
  702MOL0     C94645   7.523   5.424   1.027  0.2711  0.0702 -0.4711
  702MOL0     C94646   7.414   5.517   0.953  0.2436  0.4840 -0.6376
  702MOL0     C94647   7.333   5.442   0.851 -0.3192 -0.1453 -0.3042
  702MOL0     C94648   7.216   5.531   0.797  0.8311  0.8561  0.1885
  702MOL0     C94649   7.239   5.678   0.765  0.8632  0.6797 -0.6421
  702MOL0     C94650   7.106   5.735   0.709 -0.6057  0.3971 -0.3087
  702MOL0     C94651   7.065   5.702   0.563  0.4657  0.3075 -0.7735
  702MOL0     N94652   7.177   5.713   0.469  0.2324  0.4499  0.7489
  702MOL0     C94653   7.254   5.820   0.447  0.0577 -0.5817  0.3450
  702MOL0     C94654   7.331   5.779   0.351  0.0142  0.7042 -0.5317
  702MOL0     C94655   7.450   5.858   0.289  0.0771  0.8166 -0.1259
  702MOL0     C94656   7.559   5.902   0.388 -0.2739 -0.2527 -0.6831
  702MOL0     C94657   7.520   6.030   0.472 -0.2447 -0.2591 -1.3313
  702MOL0     C94658   7.643   6.122   0.503 -0.9799 -0.2493 -0.6345
  702MOL0     O94659   7.713   6.042   0.605 -0.4368  0.3357 -0.3956
  702MOL0     C94660   7.828   6.083   0.660 -0.2746  0.3745  0.3696
  702MOL0     C94661   7.885   6.006   0.765 -0.6827  0.5575  0.3139
  702MOL0     C94662   8.012   6.031   0.819 -0.1965  0.5099 -0.1800
  702MOL0     C94663   8.086   6.142   0.782 -0.7690  0.0366  1.1098
  702MOL0     C94664   8.224   6.167   0.834 -0.0172 -0.3282  0.6360
  702MOL0     O94665   8.281   6.060   0.895 -1.2268  0.6875  1.0969
  702MOL0     C94666   8.420   6.063   0.928  0.9062 -1.3510  1.0005
  702MOL0     C94667   8.472   6.043   1.056 -0.8503  0.4593 -0.4072
  702MOL0     C94668   8.606   6.011   1.075 -0.8859  0.2373  0.3174
  702MOL0     C94669   8.699   6.039   0.968 -0.0708  0.1474  0.2800
  702MOL0     O94670   8.834   6.012   0.979  0.2708  0.7308  0.2037
  702MOL0     C94671   8.905   6.043   1.098  0.3821  0.1462 -0.2169
  702MOL0     C94672   9.035   6.105   1.073 -0.4592  0.1199  0.4784
  702MOL0     C94673   9.135   6.002   1.008 -0.6518  0.2951  0.3752
  702MOL0     C94674   9.282   6.060   0.993  0.3606  0.6143 -0.0221
  702MOL0     C94675   9.371   5.960   0.910 -0.2934  0.0107 -0.1617
  702MOL0     C94676   9.515   5.986   0.926 -0.1532 -0.9547  0.6744
  702MOL0     C94677   9.579   5.947   1.054 -0.3551  0.8025 -0.4759
  702MOL0     C94678   9.706   6.032   1.071  0.1621 -0.1333  0.3988
  702MOL0    Cl94679   9.845   5.991   0.963 -0.2022  0.3978 -0.2374
  702MOL0     C94680   8.652   6.069   0.844 -0.1386 -0.9389 -0.0325
  702MOL0     C94681   8.512   6.088   0.824  0.3872  1.0533  0.7635
  702MOL0     O94682   8.284   6.269   0.795 -0.2535  0.4173 -0.9581
  702MOL0     C94683   8.013   6.237   0.707  0.1216  0.6671 -0.2747
  702MOL0     C94684   7.888   6.207   0.652  0.2432  0.1162  0.8316
  702MOL0     N94685   7.305   5.651   0.320  0.0160 -0.4984  0.2484
  702MOL0     N94686   7.214   5.610   0.397  0.3190  0.1118  0.2473
  702MOL0     C94687   7.904   5.579   1.153 -0.5005 -0.8453  0.2600
  702MOL0     C94688   8.044   5.588   1.176 -0.8846  0.1790  0.5053
  702MOL0     C94689   8.504   5.604   1.010 -0.2236 -0.0300 -1.1455
  702MOL0     C94690   8.601   5.701   0.961  0.2730  0.3971 -0.9335
  702MOL0     C94691   8.737   5.666   0.950  0.2565  0.5359 -0.2123
  702MOL0     C94692   8.791   5.544   1.000  0.5567  0.1335  0.5460
  702MOL0     O94693   8.916   5.518   0.989 -0.2107  0.1329 -1.3543
  702MOL0     C94694   9.017   5.609   1.010  0.3790 -0.0375 -0.2815
  702MOL0     C94695   9.143   5.545   1.065  0.4567  0.4025 -0.7515
  702MOL0     C94696   9.225   5.626   1.165  0.6590  0.7680  0.1768
  702MOL0     C94697   9.312   5.536   1.260  0.1374 -0.0330 -0.1444
  702MOL0     C94698   9.385   5.421   1.201 -0.6070  0.9721  0.7595
  702MOL0     C94699   9.447   5.312   1.174 -0.2073  0.2721 -0.3081
  702MOL0     C94700   8.697   5.456   1.064 -0.4522 -0.8468 -0.0751
  702MOL0     C94701   8.556   5.483   1.065  0.1439  0.6156 -0.3912
  702MOL0     C94702   8.475   5.358   1.126 -0.0080 -0.7942 -0.9199
  702MOL0     H94703   8.152   5.515   0.855  1.7749 -0.2492  1.1060
  702MOL0     H94704   7.908   5.499   0.824 -0.8511 -1.8251 -0.4680
  702MOL0     H94705   7.671   5.452   1.164 -0.5421 -1.5138 -0.9511
  702MOL0     H94706   7.569   5.599   1.125  2.5970  1.8033 -0.8418
  702MOL0     H94707   7.480   5.367   1.110  0.2364 -1.2020 -1.3470
  702MOL0     H94708   7.572   5.352   0.962  0.9480 -0.5317  0.6732
  702MOL0     H94709   7.464   5.601   0.904  0.6106  1.8222  1.8472
  702MOL0     H94710   7.356   5.567   1.031 -1.1916 -0.5237 -1.0025
  702MOL0     H94711   7.389   5.407   0.764 -3.2957 -5.4915 -0.4984
  702MOL0     H94712   7.294   5.352   0.899  3.5008 -0.3895  2.8493
  702MOL0     H94713   7.193   5.473   0.707 -0.8281 -0.4673  1.4192
  702MOL0     H94714   7.138   5.526   0.873  0.9610  1.3821  0.3580
  702MOL0     H94715   7.261   5.733   0.856 -0.7184 -2.4221  1.8032
  702MOL0     H94716   7.324   5.696   0.698 -1.2116  1.4055 -3.2949
  702MOL0     H94717   7.123   5.843   0.712  0.8660  0.3252 -2.7818
  702MOL0     H94718   7.012   5.707   0.757 -1.7340  0.7316 -2.2105
  702MOL0     H94719   7.031   5.598   0.571  1.3508  0.1598  3.0256
  702MOL0     H94720   6.992   5.772   0.522  1.4221  1.2392 -0.9199
  702MOL0     H94721   7.246   5.921   0.487  0.3563  0.0572 -1.1195
  702MOL0     H94722   7.483   5.779   0.221 -1.9814 -2.6861  2.6519
  702MOL0     H94723   7.414   5.947   0.235  2.7475  1.0469 -1.7003
  702MOL0     H94724   7.581   5.820   0.457 -1.7459  1.2510  1.7545
  702MOL0     H94725   7.650   5.930   0.335 -0.3436  1.1944 -0.0922
  702MOL0     H94726   7.456   6.001   0.555  2.1342 -1.6060  0.1161
  702MOL0     H94727   7.450   6.081   0.405 -3.2548 -1.3822  0.7492
  702MOL0     H94728   7.610   6.222   0.533  1.8478  1.0276 -1.4191
  702MOL0     H94729   7.708   6.134   0.416 -0.3223 -0.8210 -0.2396
  702MOL0     H94730   7.836   5.915   0.798  1.8404 -1.0955 -0.2058
  702MOL0     H94731   8.060   5.962   0.889  3.4011  1.2941 -1.6509
  702MOL0     H94732   8.402   6.024   1.137 -0.0120 -0.8609  0.0391
  702MOL0     H94733   8.633   5.975   1.174 -0.9467 -2.8210 -0.6825
  702MOL0     H94734   8.848   6.099   1.173 -0.6306 -3.5610  2.0884
  702MOL0     H94735   8.934   5.946   1.140  1.4717  0.1367 -0.9434
  702MOL0     H94736   9.030   6.195   1.011 -1.3162  0.6602  1.3012
  702MOL0     H94737   9.076   6.124   1.173 -0.0771  1.5011  0.0816
  702MOL0     H94738   9.134   5.906   1.062 -1.8730 -0.2593 -0.5876
  702MOL0     H94739   9.093   5.974   0.911  1.0584  1.8905 -0.9000
  702MOL0     H94740   9.324   6.081   1.091 -1.4862 -1.8147  1.3866
  702MOL0     H94741   9.281   6.161   0.950  2.4652  1.6914  2.1872
  702MOL0     H94742   9.340   5.953   0.805  0.6786  2.1998 -0.6499
  702MOL0     H94743   9.356   5.854   0.936 -0.0358 -0.3241 -1.3256
  702MOL0     H94744   9.557   5.920   0.850 -1.8205 -0.3246 -0.8679
  702MOL0     H94745   9.529   6.091   0.896 -3.1043 -0.9597 -1.1252
  702MOL0     H94746   9.614   5.844   1.056  0.3125  1.0443  1.4682
  702MOL0     H94747   9.517   5.979   1.138  0.7547  2.3881 -0.2160
  702MOL0     H94748   9.684   6.139   1.066 -2.3708 -0.5576  1.1466
  702MOL0     H94749   9.735   6.016   1.175 -0.3403  2.2297  0.9776
  702MOL0     H94750   8.724   6.089   0.766  0.9535  4.7168  1.9575
  702MOL0     H94751   8.479   6.120   0.726  1.2731  1.7862  0.6846
  702MOL0     H94752   8.077   6.316   0.670  0.7743  0.4084  0.2766
  702MOL0     H94753   7.848   6.286   0.589  1.6317  1.1454  1.1861
  702MOL0     H94754   7.833   5.605   1.230 -1.1572 -4.1706  0.9482
  702MOL0     H94755   8.069   5.623   1.275  1.9050  1.9564 -0.6833
  702MOL0     H94756   8.566   5.790   0.909  0.2538  2.4549  2.2483
  702MOL0     H94757   8.805   5.723   0.888 -0.1757  1.8497  0.4977
  702MOL0     H94758   8.988   5.676   1.091  0.4777 -1.3783  0.9056
  702MOL0     H94759   9.036   5.678   0.927 -1.1123  1.1903  0.3611
  702MOL0     H94760   9.204   5.529   0.975 -0.1546  1.5758 -1.3961
  702MOL0     H94761   9.121   5.444   1.100  4.0390 -0.3165 -0.1745
  702MOL0     H94762   9.162   5.683   1.234  0.6194 -0.6465  1.3295
  702MOL0     H94763   9.296   5.683   1.105  0.1926 -1.5644 -2.8773
  702MOL0     H94764   9.385   5.598   1.314 -1.9966  1.5537  1.1339
  702MOL0     H94765   9.249   5.503   1.343 -1.0260 -1.1623 -1.4220
  702MOL0     H94766   9.514   5.229   1.168 -1.4871 -0.8448  0.2208
  702MOL0     H94767   8.734   5.364   1.109 -0.1865 -1.1100 -0.8105
  702MOL0     H94768   8.400   5.316   1.059 -0.6423 -1.8740  0.4255
  702MOL0     H94769   8.539   5.276   1.159  2.4488  0.4095 -2.3594
  702MOL0     H94770   8.415   5.403   1.206  0.0433  5.5216 -3.8233
  703MOL0     O94771   3.318   7.157   6.329 -0.6434  0.5099 -0.8866
  703MOL0     C94772   3.342   7.088   6.427 -0.3519 -0.1177  0.1277
  703MOL0     O94773   3.446   7.120   6.509  0.5208 -0.4725  0.1726
  703MOL0     C94774   3.556   7.196   6.475 -0.5916 -0.0217  0.1874
  703MOL0     C94775   3.609   7.201   6.343  0.1397 -0.2795 -1.1453
  703MOL0     C94776   3.731   7.277   6.320  0.0397  0.7987 -0.9321
  703MOL0     C94777   3.806   7.327   6.428  0.6845  0.3050 -0.7610
  703MOL0     O94778   3.922   7.389   6.400 -0.0178 -0.1610  0.2954
  703MOL0     C94779   4.030   7.321   6.330  0.3574  0.8036  0.3814
  703MOL0     C94780   4.099   7.416   6.221  0.7851 -0.1493  0.3306
  703MOL0     C94781   4.190   7.513   6.294  0.7730  0.2260  0.5107
  703MOL0     C94782   4.320   7.451   6.335 -0.4147 -0.6586 -0.6308
  703MOL0     C94783   4.356   7.460   6.488 -0.0221  0.0750  0.6783
  703MOL0     C94784   4.495   7.391   6.504 -0.6074 -0.4557  0.6601
  703MOL0     C94785   4.535   7.413   6.653  0.3133 -0.3310  0.6327
  703MOL0     C94786   4.662   7.329   6.694  0.4686 -0.5380  1.6494
  703MOL0     N94787   4.790   7.391   6.675 -0.2361  0.5939 -0.5728
  703MOL0     C94788   4.843   7.472   6.577  0.1061 -0.4071  0.1416
  703MOL0     C94789   4.972   7.504   6.620 -0.1233  0.3924  1.6889
  703MOL0     C94790   5.068   7.594   6.540  0.0287  0.3182  0.1765
  703MOL0     C94791   5.019   7.735   6.565 -0.1674 -0.3081  0.5553
  703MOL0     C94792   4.938   7.800   6.452 -0.2538 -0.2039 -0.6101
  703MOL0     C94793   4.876   7.934   6.491  0.2268  0.0766  0.0998
  703MOL0     O94794   4.778   7.909   6.596 -0.3341 -0.0065  0.6469
  703MOL0     C94795   4.642   7.897   6.578  0.7285  0.1204  0.6431
  703MOL0     C94796   4.593   7.840   6.461  0.4681 -0.4898  0.4726
  703MOL0     C94797   4.451   7.827   6.444 -0.3971  1.1073  0.2738
  703MOL0     C94798   4.358   7.878   6.537 -0.8733 -0.0147 -0.2453
  703MOL0     C94799   4.214   7.857   6.519 -0.2772 -0.2129  0.1604
  703MOL0     O94800   4.138   7.899   6.621  0.6122  0.4475  0.7012
  703MOL0     C94801   4.006   7.854   6.633 -0.2442 -0.2007  0.0710
  703MOL0     C94802   3.912   7.942   6.695  0.8789 -0.7533 -0.0086
  703MOL0     C94803   3.777   7.899   6.722  0.2724 -0.5957 -1.0320
  703MOL0     C94804   3.731   7.766   6.679 -0.8009 -1.0051  0.0182
  703MOL0     O94805   3.596   7.746   6.698  0.1019 -0.2126  0.4003
  703MOL0     C94806   3.549   7.650   6.614  0.5716 -0.1427 -0.0284
  703MOL0     C94807   3.399   7.620   6.622 -0.2486  0.0243 -0.1084
  703MOL0     C94808   3.325   7.731   6.561  0.1053  0.7599  0.5888
  703MOL0     C94809   3.188   7.686   6.530  0.5775  0.8821  0.5537
  703MOL0     C94810   3.107   7.792   6.462  0.9942  0.2729 -0.4409
  703MOL0     C94811   3.063   7.913   6.532  0.4614 -0.0980 -0.3050
  703MOL0     C94812   2.968   8.010   6.455 -0.5410  0.6529  0.0795
  703MOL0     C94813   2.876   8.103   6.536  0.8045 -0.4066  0.1500
  703MOL0    Cl94814   2.714   8.093   6.450  0.4423 -0.3794 -0.1089
  703MOL0     C94815   3.828   7.681   6.630 -0.6330  0.5905  0.7409
  703MOL0     C94816   3.963   7.720   6.610  0.4161  0.9644 -0.5527
  703MOL0     O94817   4.171   7.796   6.423  0.0568  0.0558  0.3646
  703MOL0     C94818   4.411   7.932   6.649 -1.7530 -0.0586 -0.5212
  703MOL0     C94819   4.551   7.950   6.669  0.7143  0.2820 -0.2201
  703MOL0     N94820   4.996   7.433   6.736  0.4308  0.5472 -0.2010
  703MOL0     N94821   4.889   7.369   6.772 -0.0203 -0.4036 -0.0737
  703MOL0     C94822   3.757   7.316   6.559  0.6998 -0.2281  0.2722
  703MOL0     C94823   3.632   7.250   6.574 -0.0211 -0.1790 -0.1771
  703MOL0     C94824   3.263   6.961   6.438 -0.3891  0.4196  0.1406
  703MOL0     C94825   3.329   6.848   6.484 -0.8192  0.4355  0.3003
  703MOL0     C94826   3.267   6.719   6.484 -0.0885  0.6194 -0.8683
  703MOL0     C94827   3.127   6.700   6.445 -0.1381  0.2954 -0.4373
  703MOL0     O94828   3.070   6.576   6.437 -0.3136 -0.0937  0.5825
  703MOL0     C94829   3.090   6.483   6.551 -0.2286 -0.7117  0.0303
  703MOL0     C94830   2.999   6.358   6.541 -0.5640  0.7526 -0.2400
  703MOL0     C94831   2.857   6.399   6.502 -0.3642  0.4760  0.1659
  703MOL0     C94832   2.764   6.282   6.490  0.3982 -0.3143 -0.2379
  703MOL0     C94833   2.623   6.326   6.464  0.0631  0.1812 -0.3964
  703MOL0     C94834   2.509   6.354   6.444  0.1939 -0.1236  0.4742
  703MOL0     C94835   3.067   6.819   6.391 -0.3503  0.2664 -0.7106
  703MOL0     C94836   3.138   6.944   6.391  1.3751 -0.3038 -0.7670
  703MOL0     C94837   3.048   7.055   6.334  0.1131 -0.0612 -0.3766
  703MOL0     H94838   3.551   7.158   6.261 -0.7980 -0.7391 -0.2660
  703MOL0     H94839   3.767   7.296   6.220  2.4096 -1.1706 -0.5459
  703MOL0     H94840   4.105   7.282   6.400  1.1921 -3.1652 -2.3970
  703MOL0     H94841   3.992   7.230   6.284  2.0618 -0.3371  1.1188
  703MOL0     H94842   4.032   7.479   6.162  3.3408  0.3022 -2.3081
  703MOL0     H94843   4.155   7.359   6.146  0.7806  2.4510 -1.7659
  703MOL0     H94844   4.129   7.538   6.382  1.0008  0.0847  0.7097
  703MOL0     H94845   4.196   7.606   6.237 -2.8039  0.2499 -0.0792
  703MOL0     H94846   4.334   7.350   6.296  2.8469 -1.1894  1.5276
  703MOL0     H94847   4.397   7.506   6.280  0.4800 -1.2853 -0.0410
  703MOL0     H94848   4.357   7.565   6.518 -1.9360  0.1228  0.6856
  703MOL0     H94849   4.290   7.405   6.555  0.8285 -0.3153  1.2185
  703MOL0     H94850   4.477   7.284   6.488 -2.1984 -0.0821 -0.2242
  703MOL0     H94851   4.572   7.426   6.434 -0.3774 -1.5999  0.3200
  703MOL0     H94852   4.452   7.392   6.722 -1.9707  5.3509  0.1333
  703MOL0     H94853   4.559   7.517   6.674 -1.1806  0.1326  0.1564
  703MOL0     H94854   4.655   7.311   6.801  0.2190 -0.0547  1.7178
  703MOL0     H94855   4.656   7.237   6.636 -1.0456  0.6491 -0.2118
  703MOL0     H94856   4.794   7.506   6.486  2.7820  2.5382 -0.3877
  703MOL0     H94857   5.172   7.575   6.568 -0.1256 -1.3450 -0.3188
  703MOL0     H94858   5.052   7.566   6.435 -0.7454  1.3383 -0.0005
  703MOL0     H94859   4.951   7.736   6.650 -2.1695  2.3784 -0.9299
  703MOL0     H94860   5.107   7.792   6.597  0.2648 -0.8593  0.3628
  703MOL0     H94861   4.872   7.720   6.418 -2.3954  1.1987  0.0633
  703MOL0     H94862   5.008   7.823   6.371  0.2937 -0.2316 -0.1578
  703MOL0     H94863   4.849   7.998   6.406  0.7902  2.1682  1.3974
  703MOL0     H94864   4.946   7.996   6.549  1.0892 -1.8255  1.2026
  703MOL0     H94865   4.664   7.801   6.389 -0.5652 -2.5735  0.5025
  703MOL0     H94866   4.412   7.779   6.354  1.4903  1.6209 -0.8681
  703MOL0     H94867   3.928   8.044   6.728 -0.7969  0.0069 -1.4158
  703MOL0     H94868   3.711   7.980   6.753  1.4332  0.3308 -0.9170
  703MOL0     H94869   3.563   7.669   6.507 -2.6195 -2.4910 -1.0262
  703MOL0     H94870   3.595   7.552   6.632 -1.1619 -1.2084 -1.0227
  703MOL0     H94871   3.389   7.530   6.561  1.5938 -0.6751  0.5606
  703MOL0     H94872   3.353   7.608   6.720  1.7777 -2.6060  0.6264
  703MOL0     H94873   3.316   7.812   6.633 -1.0366 -1.6748  3.3582
  703MOL0     H94874   3.370   7.770   6.469  0.9500  2.2309  1.5900
  703MOL0     H94875   3.138   7.657   6.622 -0.7675  0.5831 -0.2479
  703MOL0     H94876   3.200   7.595   6.470  2.3463  1.9882 -0.8758
  703MOL0     H94877   3.013   7.743   6.433  1.2143  0.5904 -1.7696
  703MOL0     H94878   3.166   7.825   6.375  1.7135  1.0086  0.3134
  703MOL0     H94879   3.005   7.893   6.623 -0.6588  0.4184 -0.8824
  703MOL0     H94880   3.153   7.964   6.567  1.5404 -1.3636 -1.1655
  703MOL0     H94881   2.899   7.959   6.388 -0.9814  0.3926  0.7172
  703MOL0     H94882   3.032   8.078   6.398 -1.3150  1.9344  0.6964
  703MOL0     H94883   2.854   8.079   6.641  0.3835 -0.5054  0.0438
  703MOL0     H94884   2.899   8.210   6.541 -0.9768  0.1317 -1.6597
  703MOL0     H94885   3.806   7.575   6.617  1.2458  0.1344  1.0421
  703MOL0     H94886   4.033   7.651   6.564  0.1501  1.8105 -2.3166
  703MOL0     H94887   4.351   7.979   6.726 -1.7899  2.2428 -1.8763
  703MOL0     H94888   4.596   8.002   6.753 -0.9334  2.0055 -0.3150
  703MOL0     H94889   3.811   7.360   6.642 -0.7287  1.4149  0.3791
  703MOL0     H94890   3.593   7.233   6.674  0.7292  0.1052  0.1738
  703MOL0     H94891   3.435   6.859   6.504 -0.8917  1.4081  0.2146
  703MOL0     H94892   3.328   6.636   6.519  1.1983  1.6142 -0.6734
  703MOL0     H94893   3.074   6.522   6.652  1.3577  0.4945 -0.1518
  703MOL0     H94894   3.198   6.467   6.555 -0.3449 -1.6577 -0.3286
  703MOL0     H94895   2.993   6.307   6.638 -2.1229  1.4785  0.0752
  703MOL0     H94896   3.044   6.288   6.470  0.4635  0.8518  0.2886
  703MOL0     H94897   2.859   6.447   6.404 -0.4588  2.1632  0.9600
  703MOL0     H94898   2.818   6.481   6.562 -0.5261  1.8099 -1.6600
  703MOL0     H94899   2.789   6.240   6.393  0.4186  2.4778 -1.5576
  703MOL0     H94900   2.771   6.205   6.567  1.2264 -0.3909 -0.3797
  703MOL0     H94901   2.418   6.406   6.423  0.5587  0.8050  1.1372
  703MOL0     H94902   2.964   6.800   6.362 -0.2140 -2.5797  0.3011
  703MOL0     H94903   2.944   7.029   6.315 -0.2156  1.0060 -0.1026
  703MOL0     H94904   3.062   7.133   6.409  1.0017 -0.6121  0.0528
  703MOL0     H94905   3.082   7.092   6.236  0.1635  1.9660  0.3609
  704MOL0     O94906   3.025   1.027   9.681  0.2482 -0.4335 -0.4728
  704MOL0     C94907   2.946   0.970   9.751  0.6409 -0.5132 -0.0350
  704MOL0     O94908   2.973   0.861   9.828 -0.2456  0.0689 -0.0295
  704MOL0     C94909   3.093   0.803   9.805 -0.1585  0.6064  0.6912
  704MOL0     C94910   3.094   0.665   9.781  0.2158  0.2025 -0.3331
  704MOL0     C94911   3.215   0.603   9.777  0.1501 -0.1434  0.2065
  704MOL0     C94912   3.337   0.670   9.791 -0.8879  0.5913 -0.1185
  704MOL0     O94913   3.464   0.609   9.789 -0.5808 -0.2877 -0.1673
  704MOL0     C94914   3.480   0.478   9.733 -0.9518  0.0586  0.4170
  704MOL0     C94915   3.618   0.476   9.662 -0.3351 -0.2342 -0.3849
  704MOL0     C94916   3.645   0.579   9.560  0.9143  0.2897 -0.7564
  704MOL0     C94917   3.757   0.558   9.466 -0.5604  1.0120  0.8523
  704MOL0     C94918   3.821   0.685   9.429 -0.0689  0.0464 -0.1649
  704MOL0     C94919   3.951   0.671   9.349  0.5900  0.5384  0.6581
  704MOL0     C94920   4.015   0.796   9.293 -0.2644 -0.8834 -0.2074
  704MOL0     C94921   4.070   0.900   9.398 -0.2047  0.0505 -0.3111
  704MOL0     N94922   4.189   0.853   9.468  0.0937  0.1169 -0.4628
  704MOL0     C94923   4.191   0.791   9.590 -0.1799 -0.1085 -0.2441
  704MOL0     C94924   4.318   0.781   9.627 -0.1022  0.5217  0.2056
  704MOL0     C94925   4.368   0.750   9.764  0.1062  0.4310  0.2216
  704MOL0     C94926   4.328   0.852   9.871  0.7732 -0.0525  1.0378
  704MOL0     C94927   4.413   0.983   9.870  0.0055  0.1933  0.3106
  704MOL0     C94928   4.327   1.090   9.947 -0.5842  0.5586  0.1490
  704MOL0     O94929   4.396   1.212   9.933  0.2802  0.0867  0.2743
  704MOL0     C94930   4.517   1.239  10.006 -0.0433  0.5106  0.4204
  704MOL0     C94931   4.549   1.193  10.130 -0.5708  0.3089  0.1295
  704MOL0     C94932   4.662   1.234  10.204 -0.3381 -1.0079 -0.6295
  704MOL0     C94933   4.748   1.335  10.150  0.1366  0.3361  0.1584
  704MOL0     C94934   4.869   1.382  10.223 -0.0329 -0.0999 -0.0855
  704MOL0     O94935   4.865   1.379  10.357 -0.1206  0.3905  0.2749
  704MOL0     C94936   4.981   1.385  10.421  0.1256 -0.4249  0.4456
  704MOL0     C94937   5.040   1.264  10.461 -0.2510  0.2396 -1.3174
  704MOL0     C94938   5.159   1.269  10.545 -0.1959  0.0434 -0.3562
  704MOL0     C94939   5.199   1.394  10.589 -0.1027 -0.0132 -0.1243
  704MOL0     O94940   5.311   1.403  10.670  0.1736  0.2335 -0.0532
  704MOL0     C94941   5.431   1.380  10.597  0.3448 -0.0524 -0.2183
  704MOL0     C94942   5.494   1.249  10.644 -0.1585 -0.0471  0.7734
  704MOL0     C94943   5.637   1.222  10.600 -0.2764  0.1400 -1.0173
  704MOL0     C94944   5.695   1.082  10.631 -0.4593  0.8750  0.5009
  704MOL0     C94945   5.845   1.091  10.630 -0.2176 -0.1494 -0.3783
  704MOL0     C94946   5.901   0.947  10.604 -0.3808 -0.8561 -0.4308
  704MOL0     C94947   6.053   0.947  10.571 -0.1032 -0.4772  0.2839
  704MOL0     C94948   6.092   0.805  10.552 -0.5365 -0.0742 -0.5915
  704MOL0    Cl94949   6.276   0.798  10.544 -0.1502  0.3425  0.5229
  704MOL0     C94950   5.132   1.510  10.550  0.3409 -0.4993  0.6557
  704MOL0     C94951   5.028   1.511  10.466 -0.5750  0.5424  0.2579
  704MOL0     O94952   4.956   1.438  10.153 -0.3919 -0.2390 -0.2430
  704MOL0     C94953   4.713   1.380  10.021 -0.0601 -0.9824  0.3873
  704MOL0     C94954   4.603   1.334   9.953 -0.0959 -0.4461 -0.7398
  704MOL0     N94955   4.394   0.830   9.521 -1.1393  0.7800  0.3475
  704MOL0     N94956   4.315   0.868   9.426  0.2732  0.0087  0.5531
  704MOL0     C94957   3.334   0.804   9.815 -0.2841 -0.4254 -0.3722
  704MOL0     C94958   3.216   0.872   9.823 -0.1495  0.1485  0.9168
  704MOL0     C94959   2.807   1.020   9.762 -0.1327  0.4248  0.2048
  704MOL0     C94960   2.725   0.955   9.863  0.5352  0.1844 -0.0553
  704MOL0     C94961   2.592   0.986   9.867  0.1165 -0.7678  0.1640
  704MOL0     C94962   2.537   1.081   9.782  0.9567 -0.2412  0.2210
  704MOL0     O94963   2.402   1.115   9.822 -0.2127  0.1239  0.5700
  704MOL0     C94964   2.335   1.224   9.758 -1.1133  0.0941 -0.7251
  704MOL0     C94965   2.187   1.220   9.780 -0.0585  1.2264  0.1876
  704MOL0     C94966   2.159   1.264   9.925  0.2219  0.3894 -0.0847
  704MOL0     C94967   2.010   1.280   9.954 -0.1789 -0.8083  0.1186
  704MOL0     C94968   1.986   1.304  10.100 -0.6813  0.1740  0.7652
  704MOL0     C94969   1.974   1.336  10.219  0.1911 -0.2654  0.1314
  704MOL0     C94970   2.610   1.146   9.692  0.6303 -0.9045 -0.5891
  704MOL0     C94971   2.737   1.101   9.668  0.8324 -0.1285  0.7883
  704MOL0     C94972   2.798   1.190   9.555 -0.9546 -0.6444  0.2299
  704MOL0     H94973   3.008   0.598   9.780  0.2943  0.1079 -0.8135
  704MOL0     H94974   3.222   0.496   9.760 -0.9193 -0.6166  2.4472
  704MOL0     H94975   3.479   0.395   9.804 -2.8327  1.6786  2.4046
  704MOL0     H94976   3.403   0.451   9.660 -0.1561 -0.9440 -0.0810
  704MOL0     H94977   3.628   0.375   9.620  0.1667 -1.9465  3.4403
  704MOL0     H94978   3.704   0.487   9.729 -0.5997  0.8313 -0.2138
  704MOL0     H94979   3.645   0.677   9.610 -0.2928  0.5992 -1.3306
  704MOL0     H94980   3.552   0.585   9.503  0.5997  0.5092 -0.2280
  704MOL0     H94981   3.828   0.491   9.515  0.0411  2.2827  1.7597
  704MOL0     H94982   3.724   0.504   9.376  0.8324  0.6543  0.5381
  704MOL0     H94983   3.754   0.753   9.375 -0.9498 -1.8993 -1.6082
  704MOL0     H94984   3.848   0.735   9.524 -0.5787  2.3374 -1.1479
  704MOL0     H94985   4.022   0.621   9.416 -0.0073 -2.9054 -1.0460
  704MOL0     H94986   3.928   0.610   9.261  0.9036  0.5654  0.5563
  704MOL0     H94987   3.939   0.850   9.234  0.8945 -0.1113 -1.0484
  704MOL0     H94988   4.090   0.758   9.223  2.3321  3.2294 -0.0074
  704MOL0     H94989   4.096   0.991   9.344 -0.8425 -0.1347 -0.9464
  704MOL0     H94990   3.993   0.929   9.470  1.1372  4.1381 -0.2533
  704MOL0     H94991   4.117   0.761   9.664 -0.1145 -1.0380 -0.5369
  704MOL0     H94992   4.325   0.653   9.790 -1.4135  1.0347  0.0141
  704MOL0     H94993   4.475   0.728   9.773 -0.5203 -2.2883  2.3994
  704MOL0     H94994   4.224   0.879   9.850  0.4947  1.3583  3.8518
  704MOL0     H94995   4.319   0.789   9.960  0.3026 -3.3733 -1.1646
  704MOL0     H94996   4.437   1.033   9.775  0.9949 -2.1097 -0.7423
  704MOL0     H94997   4.508   0.953   9.915  0.8311 -0.9631 -2.0369
  704MOL0     H94998   4.308   1.051  10.047 -0.6206 -2.0602 -0.8093
  704MOL0     H94999   4.231   1.086   9.896 -0.3164  1.6776 -0.4765
  704MOL0     H95000   4.478   1.124  10.175  1.0464  0.9091  4.0047
  704MOL0     H95001   4.681   1.198  10.305  0.1815  0.4792 -0.1795
  704MOL0     H95002   4.995   1.165  10.453  1.1707 -0.8236  1.8766
  704MOL0     H95003   5.208   1.178  10.576  1.5698  1.5502  1.5101
  704MOL0     H95004   5.420   1.367  10.488  0.8080  0.4823 -0.3339
  704MOL0     H95005   5.503   1.462  10.601 -1.8630  2.1094 -1.5282
  704MOL0     H95006   5.474   1.232  10.751 -0.5441 -0.0021  0.7110
  704MOL0     H95007   5.440   1.163  10.603 -0.1039  1.6447 -3.1979
  704MOL0     H95008   5.653   1.241  10.494 -0.6993 -1.2361 -1.3435
  704MOL0     H95009   5.703   1.285  10.660 -0.5413 -1.2495  0.8402
  704MOL0     H95010   5.660   1.009  10.558  0.5685 -0.4132  1.2416
  704MOL0     H95011   5.664   1.043  10.729 -0.2405 -0.7692 -0.0578
  704MOL0     H95012   5.879   1.124  10.728 -2.5001  0.6668  0.1950
  704MOL0     H95013   5.888   1.156  10.553 -2.3295 -1.5561 -2.9263
  704MOL0     H95014   5.881   0.873  10.682 -1.0764  0.1560  0.3882
  704MOL0     H95015   5.851   0.921  10.511 -0.9279  2.1745 -1.0945
  704MOL0     H95016   6.102   0.982  10.662 -0.9560  0.0874  0.5383
  704MOL0     H95017   6.076   1.006  10.482 -2.7192  0.4242  0.0971
  704MOL0     H95018   6.055   0.750  10.639  0.7196  0.5215  0.3762
  704MOL0     H95019   6.044   0.759  10.466  2.0870 -3.2873 -0.5531
  704MOL0     H95020   5.163   1.608  10.587 -1.2507 -0.7062  2.6801
  704MOL0     H95021   4.969   1.598  10.442 -1.3423 -0.8262 -3.5875
  704MOL0     H95022   4.768   1.457   9.968 -0.1023 -0.1433  1.5221
  704MOL0     H95023   4.589   1.377   9.854 -0.3938 -1.8192 -1.3238
  704MOL0     H95024   3.428   0.854   9.834 -0.5160  0.8466 -2.2574
  704MOL0     H95025   3.203   0.977   9.846  1.5186  0.5293  0.2650
  704MOL0     H95026   2.766   0.882   9.932 -0.7422  1.8368  2.5783
  704MOL0     H95027   2.529   0.958   9.951 -1.6921  1.1712 -0.4700
  704MOL0     H95028   2.353   1.227   9.650 -1.1783 -2.2284 -0.8694
  704MOL0     H95029   2.385   1.310   9.803  1.4181 -2.2832  1.3710
  704MOL0     H95030   2.165   1.115   9.758  1.7817  1.0156 -0.8290
  704MOL0     H95031   2.132   1.285   9.710  0.3181 -0.5575 -1.8693
  704MOL0     H95032   2.210   1.359   9.945 -0.9698  0.6856  1.8559
  704MOL0     H95033   2.195   1.190   9.997 -4.6090 -0.3165  1.9702
  704MOL0     H95034   1.967   1.365   9.899 -1.0760 -0.1722  1.7622
  704MOL0     H95035   1.962   1.187   9.921 -0.3959 -0.2005 -1.3991
  704MOL0     H95036   1.964   1.384  10.314  0.6556 -1.3196  0.7213
  704MOL0     H95037   2.574   1.230   9.633  0.2847  1.8209  3.1527
  704MOL0     H95038   2.819   1.289   9.596 -2.7539  0.1364 -0.6146
  704MOL0     H95039   2.890   1.148   9.513 -1.7742 -0.5597 -1.7647
  704MOL0     H95040   2.728   1.202   9.472 -1.2131 -0.3987  0.4820
  705MOL0     O95041   3.984   8.479   5.751 -0.6557  0.0521  0.0669
  705MOL0     C95042   3.939   8.450   5.858 -0.1975  0.0727  0.4949
  705MOL0     O95043   4.002   8.453   5.974 -0.4993 -0.8460  0.3437
  705MOL0     C95044   4.131   8.498   5.980  0.0181  0.3908  0.0994
  705MOL0     C95045   4.233   8.419   5.934 -0.4121  0.6980  0.4286
  705MOL0     C95046   4.364   8.463   5.945  0.9773 -0.4704  0.0369
  705MOL0     C95047   4.400   8.589   5.980  1.0966  0.3465  0.8921
  705MOL0     O95048   4.527   8.642   5.974 -1.1101  0.7648  0.5266
  705MOL0     C95049   4.630   8.559   6.032  0.1957  0.0381  0.1566
  705MOL0     C95050   4.759   8.637   6.010  0.3599 -0.7744 -0.4518
  705MOL0     C95051   4.864   8.607   6.105  1.0198  0.3038  0.4912
  705MOL0     C95052   4.978   8.698   6.089  0.2248  0.2022  0.2110
  705MOL0     C95053   5.094   8.649   6.169  0.3951 -0.3801  0.2412
  705MOL0     C95054   5.201   8.750   6.152 -0.3879  0.5566 -0.5610
  705MOL0     C95055   5.319   8.685   6.223 -0.3885  0.3527  0.1204
  705MOL0     C95056   5.444   8.773   6.194  0.8871 -0.7083 -0.5872
  705MOL0     N95057   5.550   8.734   6.290  0.0518 -0.0571  0.1041
  705MOL0     C95058   5.630   8.630   6.271 -0.4050 -1.0764  1.0890
  705MOL0     C95059   5.723   8.642   6.377 -1.8576 -0.5674  0.5029
  705MOL0     C95060   5.858   8.574   6.424  0.6294  0.1742  0.3343
  705MOL0     C95061   5.967   8.675   6.376  0.3336  0.3131 -0.1071
  705MOL0     C95062   6.108   8.645   6.430  0.5772 -0.2931 -0.1057
  705MOL0     C95063   6.211   8.748   6.399 -0.4554 -0.4184  0.3272
  705MOL0     O95064   6.332   8.708   6.466  0.4027 -0.0080  0.1535
  705MOL0     C95065   6.452   8.784   6.451  0.4340  0.7952 -0.3570
  705MOL0     C95066   6.571   8.735   6.511  0.9015  0.6596 -0.9517
  705MOL0     C95067   6.692   8.801   6.497 -0.4065  1.0593 -0.1641
  705MOL0     C95068   6.704   8.908   6.414 -0.1083 -0.4269 -0.4465
  705MOL0     C95069   6.826   8.984   6.397  0.4335  0.2061 -0.5790
  705MOL0     O95070   6.937   8.928   6.441 -1.2410  0.0470  0.1685
  705MOL0     C95071   7.063   8.977   6.415  0.5945  0.0019  0.3065
  705MOL0     C95072   7.161   8.984   6.514  0.8002  0.8096 -0.7039
  705MOL0     C95073   7.298   9.017   6.493  0.4744  0.7469 -0.4686
  705MOL0     C95074   7.334   9.074   6.375  0.2926 -0.3021  1.0671
  705MOL0     O95075   7.461   9.119   6.351 -0.5773 -0.6163 -0.1013
  705MOL0     C95076   7.551   9.153   6.458 -0.4466 -0.6289 -0.8739
  705MOL0     C95077   7.689   9.185   6.398  0.7573 -0.2652  0.1286
  705MOL0     C95078   7.758   9.268   6.499 -0.5371  0.6241  0.8304
  705MOL0     C95079   7.896   9.326   6.444  0.3281 -0.4393 -1.3328
  705MOL0     C95080   7.969   9.414   6.553 -0.4219  0.2345 -0.7201
  705MOL0     C95081   8.048   9.320   6.660  0.1603  0.3074 -0.7145
  705MOL0     C95082   8.147   9.406   6.730  0.2987  0.2064  0.3223
  705MOL0     C95083   8.213   9.314   6.828 -0.2537 -0.2455 -0.1537
  705MOL0    Cl95084   8.349   9.385   6.930  0.1401  0.1701  0.3889
  705MOL0     C95085   7.240   9.063   6.278  0.7195 -0.6551 -0.3688
  705MOL0     C95086   7.105   9.021   6.291  0.2878 -0.0585  0.3746
  705MOL0     O95087   6.818   9.094   6.340 -0.4408 -0.1174 -0.2059
  705MOL0     C95088   6.586   8.954   6.347 -0.1603  0.5985 -0.0953
  705MOL0     C95089   6.465   8.887   6.364 -0.2452  0.5701  0.7862
  705MOL0     N95090   5.686   8.739   6.465 -0.1725  0.4893  0.1765
  705MOL0     N95091   5.585   8.799   6.410 -0.6834  1.1881  0.7329
  705MOL0     C95092   4.290   8.670   6.018  0.3342 -0.9283 -0.0327
  705MOL0     C95093   4.157   8.626   6.024  0.8297  0.8329  0.5401
  705MOL0     C95094   3.806   8.380   5.854  0.7980 -0.2695 -0.0575
  705MOL0     C95095   3.780   8.287   5.966 -1.2188 -0.2551  0.8037
  705MOL0     C95096   3.671   8.197   5.968 -0.3223 -0.6260  0.4202
  705MOL0     C95097   3.589   8.184   5.860  0.7434 -0.7431 -0.0147
  705MOL0     O95098   3.486   8.105   5.844  0.1507  0.9813 -0.6980
  705MOL0     C95099   3.410   8.086   5.971 -0.1756  0.7108  0.6058
  705MOL0     C95100   3.287   7.995   5.949 -0.0190 -0.3179 -0.6018
  705MOL0     C95101   3.168   8.026   6.053 -0.8179 -0.5845 -0.1313
  705MOL0     C95102   3.077   8.158   6.030  0.1328  0.3069 -0.4674
  705MOL0     C95103   3.042   8.196   5.893 -0.3650  0.3502  0.0828
  705MOL0     C95104   3.023   8.215   5.772 -0.0634 -0.8893  0.1692
  705MOL0     C95105   3.621   8.265   5.744 -0.1609 -0.1399  0.0700
  705MOL0     C95106   3.715   8.368   5.740 -0.7845  0.3380 -0.3361
  705MOL0     C95107   3.720   8.438   5.599 -0.4054  1.4912 -1.0460
  705MOL0     H95108   4.211   8.320   5.896  0.0349 -0.1198  2.1974
  705MOL0     H95109   4.450   8.403   5.915  1.2686  0.1970 -0.4990
  705MOL0     H95110   4.600   8.538   6.135 -2.4360  0.6763 -0.4107
  705MOL0     H95111   4.632   8.465   5.975 -1.6503  0.8217 -1.3195
  705MOL0     H95112   4.732   8.742   6.030  2.7613  0.7748 -4.2831
  705MOL0     H95113   4.784   8.647   5.904 -0.6114 -2.4984 -0.8917
  705MOL0     H95114   4.893   8.501   6.101  0.7969  0.2323  0.7286
  705MOL0     H95115   4.832   8.634   6.206 -2.8355  3.9651 -1.3777
  705MOL0     H95116   5.011   8.700   5.984 -1.2927 -0.0876 -0.2916
  705MOL0     H95117   4.945   8.800   6.110 -0.0802  0.4518 -1.3305
  705MOL0     H95118   5.076   8.644   6.277 -1.1655  1.0493  0.0725
  705MOL0     H95119   5.121   8.547   6.140 -0.6012 -1.0739  1.6414
  705MOL0     H95120   5.221   8.761   6.046 -4.0801 -1.5801 -1.6894
  705MOL0     H95121   5.172   8.843   6.201 -2.1545 -1.1024  1.8101
  705MOL0     H95122   5.331   8.586   6.178 -0.9432 -0.5509  1.8658
  705MOL0     H95123   5.305   8.669   6.330  0.0569 -1.5307 -0.0738
  705MOL0     H95124   5.480   8.776   6.091  0.1576  0.3971 -0.8296
  705MOL0     H95125   5.420   8.875   6.228  0.3794 -0.3759 -1.8745
  705MOL0     H95126   5.642   8.571   6.181 -1.9929 -0.2182  0.2856
  705MOL0     H95127   5.869   8.568   6.533 -0.4174  2.1155  0.6003
  705MOL0     H95128   5.866   8.476   6.377  0.8821  0.8931 -1.1811
  705MOL0     H95129   5.966   8.669   6.267 -1.6271 -0.5927 -0.0792
  705MOL0     H95130   5.937   8.778   6.400 -0.9117 -0.3661  1.3691
  705MOL0     H95131   6.148   8.548   6.401  2.7062 -0.0016  1.5871
  705MOL0     H95132   6.097   8.648   6.539  5.3751  2.3121  0.6206
  705MOL0     H95133   6.179   8.843   6.443  0.4316 -1.4471  3.4636
  705MOL0     H95134   6.235   8.758   6.293 -1.0461  0.9792  0.2994
  705MOL0     H95135   6.561   8.641   6.564 -3.6159  0.2322 -2.1723
  705MOL0     H95136   6.782   8.763   6.544 -1.7072 -2.6938 -0.3823
  705MOL0     H95137   7.142   8.950   6.616 -0.9541  1.3559 -0.8218
  705MOL0     H95138   7.368   8.983   6.569 -0.7767 -1.1179 -0.0832
  705MOL0     H95139   7.508   9.236   6.516  0.4390 -0.3826 -0.5477
  705MOL0     H95140   7.567   9.073   6.531 -1.2723  0.8679  1.0552
  705MOL0     H95141   7.727   9.085   6.375  2.0277  0.6330 -1.9084
  705MOL0     H95142   7.663   9.237   6.306  0.0975 -2.0087 -0.7147
  705MOL0     H95143   7.697   9.354   6.528  0.1049  1.9591 -1.4981
  705MOL0     H95144   7.791   9.199   6.578 -0.4917 -0.3826 -0.0460
  705MOL0     H95145   7.878   9.372   6.346  0.9947 -1.3852 -1.9173
  705MOL0     H95146   7.954   9.236   6.419 -1.2445 -1.1104 -2.7481
  705MOL0     H95147   7.908   9.482   6.614 -0.5762 -1.9064  1.6756
  705MOL0     H95148   8.043   9.475   6.500  1.1637 -0.5010  0.5532
  705MOL0     H95149   7.972   9.283   6.730  0.4607 -1.3321 -1.2111
  705MOL0     H95150   8.098   9.243   6.601  0.6187  1.4422 -1.8738
  705MOL0     H95151   8.103   9.487   6.789 -1.4532  0.2880 -0.9911
  705MOL0     H95152   8.215   9.452   6.658 -1.7163 -0.2540 -2.0253
  705MOL0     H95153   8.132   9.274   6.889 -1.0926 -0.0436 -1.1112
  705MOL0     H95154   8.246   9.224   6.774 -3.9533 -0.4965 -2.3830
  705MOL0     H95155   7.265   9.115   6.186  0.1734  2.0758  0.9180
  705MOL0     H95156   7.046   9.022   6.200  2.1883 -0.0390 -0.9163
  705MOL0     H95157   6.581   9.037   6.277 -1.6380 -0.7887 -1.7342
  705MOL0     H95158   6.383   8.929   6.306 -0.3913  1.3080  1.5164
  705MOL0     H95159   4.302   8.777   6.033 -0.1602 -0.6203 -1.6669
  705MOL0     H95160   4.083   8.702   6.048  1.9529  1.0315  4.0588
  705MOL0     H95161   3.853   8.286   6.046  1.9402 -2.2201 -1.8209
  705MOL0     H95162   3.665   8.123   6.047  2.1076 -0.8875  0.4457
  705MOL0     H95163   3.381   8.188   5.995 -5.4100 -0.0247 -1.4185
  705MOL0     H95164   3.473   8.053   6.054  1.6751  2.7366  0.0895
  705MOL0     H95165   3.322   7.892   5.959  0.6778 -0.1176 -0.8608
  705MOL0     H95166   3.243   8.012   5.851  0.5354  1.6752 -0.5523
  705MOL0     H95167   3.211   8.026   6.153 -0.7303  0.5923 -0.1532
  705MOL0     H95168   3.095   7.944   6.051 -0.0811 -1.3005  1.3641
  705MOL0     H95169   2.988   8.159   6.093  2.1316 -0.0147  2.6021
  705MOL0     H95170   3.141   8.238   6.070 -3.9546  3.6816  0.0157
  705MOL0     H95171   3.013   8.243   5.669 -1.3479 -2.8236 -0.2788
  705MOL0     H95172   3.557   8.255   5.657 -0.4803  1.9839  0.0102
  705MOL0     H95173   3.636   8.507   5.593  0.0121  2.0603 -0.5458
  705MOL0     H95174   3.812   8.492   5.572  1.0566 -1.0240 -1.4050
  705MOL0     H95175   3.709   8.363   5.521 -0.0127  1.8886 -1.4850
  706MOL0     O95176   5.877   0.227   5.598  0.6934  0.1525 -0.3443
  706MOL0     C95177   5.799   0.239   5.504 -0.0378 -0.3874  1.1706
  706MOL0     O95178   5.829   0.299   5.384 -0.1493 -0.6998  0.3070
  706MOL0     C95179   5.949   0.366   5.389  0.4267  0.3968 -0.3895
  706MOL0     C95180   5.950   0.494   5.446 -0.5094  0.6057 -0.1526
  706MOL0     C95181   6.074   0.568   5.453  0.2849  0.5320  0.0586
  706MOL0     C95182   6.192   0.506   5.404  0.0997  0.4295 -0.0803
  706MOL0     O95183   6.314   0.569   5.402 -0.2226 -0.1699  0.6924
  706MOL0     C95184   6.334   0.672   5.498  0.2447 -0.6079  0.1087
  706MOL0     C95185   6.480   0.731   5.508 -0.7744  0.0505 -0.5462
  706MOL0     C95186   6.594   0.632   5.488 -0.8385  0.3304  0.8532
  706MOL0     C95187   6.732   0.700   5.515  0.8806  0.1589 -0.2245
  706MOL0     C95188   6.853   0.609   5.480  0.0061 -0.1372 -0.6569
  706MOL0     C95189   6.981   0.659   5.542 -1.0555  0.2040  0.5484
  706MOL0     C95190   7.093   0.554   5.502  0.1795 -0.1816  0.2363
  706MOL0     C95191   7.228   0.624   5.526 -0.8725 -0.0183  0.1590
  706MOL0     N95192   7.276   0.708   5.418 -1.4415  0.1843 -0.2905
  706MOL0     C95193   7.350   0.664   5.307  0.3885 -0.0496  0.5384
  706MOL0     C95194   7.343   0.770   5.224  0.3712 -1.1563 -0.5196
  706MOL0     C95195   7.389   0.799   5.083  0.8384 -0.2580 -0.0847
  706MOL0     C95196   7.538   0.786   5.056  0.0737  0.0468 -0.7285
  706MOL0     C95197   7.566   0.859   4.931 -0.9455 -0.3858  0.7040
  706MOL0     C95198   7.708   0.858   4.886 -0.9232 -0.0261  0.3418
  706MOL0     O95199   7.749   0.725   4.876  0.5201  0.0633  0.1586
  706MOL0     C95200   7.885   0.693   4.852 -0.7865  0.1415 -0.4360
  706MOL0     C95201   7.983   0.792   4.835 -0.4439  1.3845 -0.1679
  706MOL0     C95202   8.118   0.762   4.821 -0.2520  0.6672 -0.5222
  706MOL0     C95203   8.153   0.623   4.821 -0.5465 -0.2785 -0.5392
  706MOL0     C95204   8.297   0.585   4.831  1.5374 -0.1923  0.2641
  706MOL0     O95205   8.324   0.455   4.860 -0.3532  0.6264 -0.3274
  706MOL0     C95206   8.430   0.394   4.807 -0.0377 -0.0976 -0.0181
  706MOL0     C95207   8.477   0.408   4.674 -0.1768  0.1380  0.8899
  706MOL0     C95208   8.589   0.343   4.621  1.2859 -0.2411 -0.1676
  706MOL0     C95209   8.641   0.234   4.697 -0.4590 -0.8073 -0.4048
  706MOL0     O95210   8.741   0.144   4.663  0.4413 -0.8902 -1.6816
  706MOL0     C95211   8.798   0.135   4.534  0.4402 -0.3654  0.0296
  706MOL0     C95212   8.911   0.231   4.513  0.5471 -0.5665 -0.5517
  706MOL0     C95213   8.999   0.228   4.639  0.3194 -0.4651  0.0762
  706MOL0     C95214   9.137   0.241   4.584 -0.4463 -0.1336 -1.2738
  706MOL0     C95215   9.247   0.236   4.690  0.2068 -0.8329  0.2954
  706MOL0     C95216   9.227   0.324   4.809  0.1494  0.1905 -0.0638
  706MOL0     C95217   9.347   0.296   4.916 -0.3830 -0.3707 -0.5230
  706MOL0     C95218   9.330   0.388   5.041 -0.3114 -0.0005  0.4297
  706MOL0    Cl95219   9.385   0.561   5.008  0.3876 -0.1467 -0.0197
  706MOL0     C95220   8.588   0.214   4.826 -0.9030  0.4742 -0.7942
  706MOL0     C95221   8.491   0.291   4.886 -0.4165 -0.3450  1.2160
  706MOL0     O95222   8.383   0.666   4.803  0.3189  0.3920 -0.2891
  706MOL0     C95223   8.057   0.527   4.830  0.4331  0.3346  0.3449
  706MOL0     C95224   7.922   0.560   4.847  0.0596  0.5616 -0.0773
  706MOL0     N95225   7.267   0.876   5.284  0.1953  0.4365 -0.4622
  706MOL0     N95226   7.236   0.838   5.404 -0.7093 -1.2288 -0.4718
  706MOL0     C95227   6.184   0.381   5.339  1.0303  0.4178 -0.1066
  706MOL0     C95228   6.059   0.303   5.342 -0.2521 -1.0688  0.1016
  706MOL0     C95229   5.661   0.200   5.534  0.1323  0.2725 -0.4938
  706MOL0     C95230   5.555   0.262   5.463  0.5511 -1.1106 -0.8389
  706MOL0     C95231   5.418   0.224   5.478 -0.2458 -0.8028  0.6213
  706MOL0     C95232   5.383   0.126   5.570 -0.2119 -0.1145 -0.5053
  706MOL0     O95233   5.249   0.101   5.577 -0.2971  0.3872 -0.6876
  706MOL0     C95234   5.200  -0.024   5.623 -0.4283 -0.6135  0.2575
  706MOL0     C95235   5.058  -0.046   5.580  0.8665  0.1268 -0.1814
  706MOL0     C95236   4.957   0.042   5.634 -0.1884 -0.0267 -0.0417
  706MOL0     C95237   4.811  -0.017   5.591 -1.0403  0.2559 -0.2817
  706MOL0     C95238   4.704   0.080   5.619  0.6553 -0.6386 -0.3537
  706MOL0     C95239   4.633   0.173   5.654 -0.0118 -0.2398 -0.9531
  706MOL0     C95240   5.484   0.077   5.650 -0.1186  0.1044 -0.5807
  706MOL0     C95241   5.615   0.103   5.635  0.4879 -0.8021  0.7361
  706MOL0     C95242   5.709   0.017   5.713 -0.4881 -0.2253 -0.5454
  706MOL0     H95243   5.857   0.530   5.489 -1.0704 -0.6646 -0.2611
  706MOL0     H95244   6.076   0.667   5.499  1.3235  0.0140  1.1884
  706MOL0     H95245   6.261   0.749   5.470 -1.1438 -1.6282  0.7645
  706MOL0     H95246   6.307   0.634   5.597 -0.1523  1.1378  0.7010
  706MOL0     H95247   6.486   0.756   5.614 -0.4537  0.3699 -0.6387
  706MOL0     H95248   6.487   0.823   5.450 -0.1237  0.2243 -0.1936
  706MOL0     H95249   6.590   0.583   5.390 -0.0683  0.7886  0.5853
  706MOL0     H95250   6.587   0.551   5.561  0.1118 -1.0613 -0.5316
  706MOL0     H95251   6.735   0.792   5.456  1.5228  0.2653 -0.0399
  706MOL0     H95252   6.726   0.718   5.622 -0.5851 -4.4405  0.6778
  706MOL0     H95253   6.842   0.503   5.505 -0.6208  0.1118  0.1551
  706MOL0     H95254   6.865   0.603   5.372 -2.6910 -1.5656 -0.9600
  706MOL0     H95255   6.993   0.754   5.490 -0.3930 -0.5708 -0.7778
  706MOL0     H95256   6.984   0.675   5.650  1.7489  0.1955  0.5267
  706MOL0     H95257   7.095   0.537   5.394  1.1009  0.6960  0.0964
  706MOL0     H95258   7.092   0.466   5.566  0.3555  1.6526  2.9519
  706MOL0     H95259   7.223   0.683   5.618  3.3027  1.7980 -0.5454
  706MOL0     H95260   7.299   0.542   5.539 -2.3436 -1.7347 -2.0377
  706MOL0     H95261   7.388   0.565   5.284  0.2660  0.1088 -0.3636
  706MOL0     H95262   7.325   0.748   5.010 -0.0012 -1.4776  1.4594
  706MOL0     H95263   7.369   0.904   5.060 -1.2737 -1.0480 -2.3978
  706MOL0     H95264   7.593   0.841   5.133  0.9924 -1.4183 -0.3045
  706MOL0     H95265   7.566   0.681   5.063 -2.3744 -0.7673 -1.9299
  706MOL0     H95266   7.541   0.965   4.942  0.1651 -0.2459  2.1342
  706MOL0     H95267   7.502   0.813   4.855  0.0106  0.6815 -0.8079
  706MOL0     H95268   7.764   0.913   4.963 -1.5409 -0.6434  1.2536
  706MOL0     H95269   7.737   0.910   4.794  1.9071  0.6975  1.5200
  706MOL0     H95270   7.962   0.898   4.828 -0.9613  1.1464 -3.8211
  706MOL0     H95271   8.194   0.839   4.814  0.8954 -0.5720 -2.9778
  706MOL0     H95272   8.426   0.486   4.619 -0.1246 -1.8590 -2.1988
  706MOL0     H95273   8.618   0.357   4.517 -0.5732  2.2176 -0.4469
  706MOL0     H95274   8.842   0.035   4.530 -0.7501 -0.8746 -1.4116
  706MOL0     H95275   8.725   0.152   4.454  0.0768 -0.8139  0.2656
  706MOL0     H95276   8.963   0.194   4.424  0.7441  0.7299 -0.9985
  706MOL0     H95277   8.873   0.332   4.497 -0.8527 -0.6492  1.8099
  706MOL0     H95278   8.974   0.309   4.708  0.2403  0.8454 -1.4276
  706MOL0     H95279   9.000   0.136   4.698 -0.1455 -2.4256 -2.7899
  706MOL0     H95280   9.141   0.340   4.539 -1.3631  1.5195  1.9503
  706MOL0     H95281   9.147   0.162   4.509  0.0095 -1.3157 -0.0061
  706MOL0     H95282   9.341   0.259   4.638 -1.0049  0.2442 -1.5266
  706MOL0     H95283   9.261   0.137   4.735  1.7222 -0.3785  0.9081
  706MOL0     H95284   9.231   0.420   4.756 -2.1682 -1.0820 -2.8252
  706MOL0     H95285   9.128   0.300   4.849  0.3852 -1.6281 -0.4923
  706MOL0     H95286   9.439   0.329   4.866 -1.1756  3.0177 -0.0245
  706MOL0     H95287   9.355   0.195   4.956 -0.7347 -1.1238 -2.2733
  706MOL0     H95288   9.230   0.385   5.086  0.2745  1.3623  1.9183
  706MOL0     H95289   9.391   0.345   5.122 -1.4432  0.5777  1.6213
  706MOL0     H95290   8.642   0.142   4.887  0.0405  0.8983 -1.1114
  706MOL0     H95291   8.468   0.269   4.990  0.2273  0.4465  1.5296
  706MOL0     H95292   8.092   0.424   4.827  2.1713  0.8691 -3.7921
  706MOL0     H95293   7.852   0.478   4.862 -1.3889  1.5275 -1.2440
  706MOL0     H95294   6.270   0.343   5.285 -1.1137 -2.7490 -1.5794
  706MOL0     H95295   6.042   0.202   5.308 -0.6281 -1.9683  2.8086
  706MOL0     H95296   5.566   0.340   5.388  1.7458 -1.8295 -1.4357
  706MOL0     H95297   5.345   0.280   5.421 -0.3363  0.8745  2.2763
  706MOL0     H95298   5.214  -0.025   5.731 -4.1826 -2.9490  0.9192
  706MOL0     H95299   5.258  -0.102   5.574 -0.1458 -0.1937 -0.0791
  706MOL0     H95300   5.041  -0.151   5.606  0.9669 -0.6752 -3.0059
  706MOL0     H95301   5.058  -0.044   5.471 -2.5535  0.3104 -0.2734
  706MOL0     H95302   4.977   0.143   5.598  3.0863 -0.4193  0.3988
  706MOL0     H95303   4.966   0.037   5.743  1.4245  1.5484 -0.0716
  706MOL0     H95304   4.809  -0.053   5.487  1.5596  0.8408 -0.6223
  706MOL0     H95305   4.781  -0.109   5.641 -0.7770 -0.6381 -1.7009
  706MOL0     H95306   4.576   0.263   5.663 -2.1885 -1.2305 -3.5822
  706MOL0     H95307   5.458   0.001   5.723  0.3716  0.2529 -0.2472
  706MOL0     H95308   5.726   0.062   5.811 -4.6089  0.0215  0.2179
  706MOL0     H95309   5.674  -0.084   5.732 -0.4597 -0.6576 -2.5510
  706MOL0     H95310   5.805   0.014   5.660 -1.0585  4.1921 -2.3413
  707MOL0     O95311  10.813   3.759   3.879  0.0511  0.6474 -0.0646
  707MOL0     C95312  10.816   3.636   3.859  0.9935 -0.5115 -1.1152
  707MOL0     O95313  10.902   3.547   3.909 -0.6989  0.4104  0.0185
  707MOL0     C95314  10.982   3.579   4.013  0.4944  0.6350  0.3188
  707MOL0     C95315  11.054   3.702   4.026 -1.3985 -1.3979 -0.0644
  707MOL0     C95316  11.137   3.707   4.142  0.3406 -0.2354 -0.1076
  707MOL0     C95317  11.151   3.606   4.234 -0.7004  0.6583 -0.3313
  707MOL0     O95318  11.236   3.630   4.335 -0.6847 -0.2024 -0.0058
  707MOL0     C95319  11.286   3.516   4.405 -0.1800 -0.8958 -0.5661
  707MOL0     C95320  11.412   3.545   4.477 -0.1184 -0.0997 -0.0256
  707MOL0     C95321  11.384   3.655   4.586 -0.2804  0.6197  0.3609
  707MOL0     C95322  11.462   3.642   4.715 -0.0800 -0.0318  0.5580
  707MOL0     C95323  11.617   3.654   4.697  0.2795  0.0901 -0.1303
  707MOL0     C95324  11.674   3.590   4.827  0.4974 -0.1813 -0.0409
  707MOL0     C95325  11.829   3.621   4.826  1.1070  0.4550 -0.8488
  707MOL0     C95326  11.905   3.533   4.727  0.2684 -0.5447 -0.1740
  707MOL0     N95327  12.053   3.527   4.745  0.0247 -0.2756 -0.9189
  707MOL0     C95328  12.142   3.594   4.666 -0.2862 -0.2187 -0.6198
  707MOL0     C95329  12.264   3.566   4.719  0.0792 -0.0467  0.8186
  707MOL0     C95330  12.387   3.639   4.686  0.4825 -0.0001  0.8897
  707MOL0     C95331  12.513   3.568   4.731 -0.1122 -0.3080 -0.4521
  707MOL0     C95332  12.539   3.437   4.657 -0.4804  0.2153 -0.9792
  707MOL0     C95333  12.682   3.385   4.665 -0.1435  1.3834 -0.5292
  707MOL0     O95334  12.765   3.490   4.622 -0.2406  0.5125 -0.2409
  707MOL0     C95335  12.902   3.469   4.612 -0.1820  0.3160 -0.6779
  707MOL0     C95336  12.971   3.381   4.703  0.3264 -0.0457  0.3207
  707MOL0     C95337  13.103   3.353   4.688  0.1440  0.4394  0.3467
  707MOL0     C95338  13.172   3.417   4.584 -0.2549  0.1255 -0.7034
  707MOL0     C95339  13.318   3.410   4.572 -0.0081  0.6019 -0.9792
  707MOL0     O95340  13.385   3.367   4.686 -0.0232 -0.4521  0.2002
  707MOL0     C95341  13.515   3.323   4.689 -0.8662  0.5509  0.2299
  707MOL0     C95342  13.591   3.264   4.586 -0.4520 -0.0345  0.0572
  707MOL0     C95343  13.731   3.252   4.602 -0.3123 -0.8282  0.2024
  707MOL0     C95344  13.792   3.253   4.729  0.1236 -0.1765  0.1623
  707MOL0     O95345  13.910   3.197   4.739 -0.5392 -0.8635  0.4526
  707MOL0     C95346  13.945   3.109   4.847  0.4568 -0.0763  0.1814
  707MOL0     C95347  14.063   3.020   4.793  1.5140 -0.1340  0.5654
  707MOL0     C95348  14.174   3.008   4.898 -0.3070  0.6047  0.3438
  707MOL0     C95349  14.282   3.115   4.879 -0.4477 -0.0817  0.1305
  707MOL0     C95350  14.414   3.064   4.940 -0.4837 -0.6679  0.0318
  707MOL0     C95351  14.523   3.178   4.950  0.4516  0.1800 -0.3700
  707MOL0     C95352  14.648   3.111   5.010 -0.4731 -0.6308  0.8896
  707MOL0     C95353  14.761   3.208   5.030  0.5724 -0.7775  0.6140
  707MOL0    Cl95354  14.820   3.255   4.855 -0.0427 -0.1138  0.5048
  707MOL0     C95355  13.711   3.289   4.838  0.2626 -0.0094  0.2552
  707MOL0     C95356  13.578   3.335   4.813  0.0702 -0.5305  0.0695
  707MOL0     O95357  13.372   3.442   4.466 -0.2380 -0.4359 -0.3005
  707MOL0     C95358  13.108   3.498   4.486  0.1590  0.1266  0.4949
  707MOL0     C95359  12.970   3.527   4.501  0.7005  0.4153 -0.2526
  707MOL0     N95360  12.243   3.471   4.823  0.3297 -0.2477  0.4093
  707MOL0     N95361  12.119   3.441   4.830  0.3649  0.2850 -0.3865
  707MOL0     C95362  11.077   3.491   4.223 -0.0071  0.2868 -0.2741
  707MOL0     C95363  10.991   3.483   4.116  0.0105  0.4153 -0.2205
  707MOL0     C95364  10.725   3.585   3.756  0.2322 -0.0011  0.0557
  707MOL0     C95365  10.788   3.518   3.648  1.1309 -0.7543  0.2502
  707MOL0     C95366  10.712   3.462   3.539 -0.5834  0.0737 -0.0503
  707MOL0     C95367  10.579   3.475   3.530 -0.5615 -0.0138 -0.3786
  707MOL0     O95368  10.494   3.413   3.444 -0.6316 -0.2878 -0.0253
  707MOL0     C95369  10.559   3.327   3.342  1.4102 -1.0312 -0.0546
  707MOL0     C95370  10.586   3.188   3.392  1.2059 -0.6263  0.7438
  707MOL0     C95371  10.615   3.096   3.274  0.2337 -0.1567 -0.4032
  707MOL0     C95372  10.652   2.954   3.329 -0.1299 -0.5294  0.1832
  707MOL0     C95373  10.552   2.888   3.418 -0.0883  0.2475 -0.0151
  707MOL0     C95374  10.464   2.840   3.493 -0.3182 -0.5146  0.0225
  707MOL0     C95375  10.521   3.558   3.628  0.8746  0.2220  1.2555
  707MOL0     C95376  10.589   3.617   3.739 -0.8195 -0.2575 -0.1479
  707MOL0     C95377  10.520   3.714   3.834  0.1533 -0.5464  0.3905
  707MOL0     H95378  11.038   3.788   3.962 -0.1101 -0.9783  0.1527
  707MOL0     H95379  11.182   3.803   4.166 -1.9255  0.7712  0.3815
  707MOL0     H95380  11.215   3.461   4.468  0.9373 -0.1974  1.3843
  707MOL0     H95381  11.301   3.439   4.329  1.3957  0.5968 -1.8551
  707MOL0     H95382  11.477   3.580   4.396 -1.2086 -2.6263 -2.1607
  707MOL0     H95383  11.455   3.457   4.527 -0.0689  0.9940  1.9347
  707MOL0     H95384  11.278   3.657   4.615 -0.2411  0.0985  0.5405
  707MOL0     H95385  11.401   3.748   4.530 -1.7591  0.4331 -0.4710
  707MOL0     H95386  11.425   3.730   4.768  1.3803  0.4267  0.8613
  707MOL0     H95387  11.419   3.550   4.757 -1.2884 -0.2918 -1.1327
  707MOL0     H95388  11.651   3.608   4.603  1.9839  2.3069 -0.6928
  707MOL0     H95389  11.648   3.758   4.687  1.7904 -0.4679 -1.8064
  707MOL0     H95390  11.625   3.631   4.915 -2.7800  0.2063 -1.8938
  707MOL0     H95391  11.647   3.484   4.837 -1.2489  0.2653  0.3185
  707MOL0     H95392  11.865   3.597   4.927 -0.3042 -1.9434 -0.8413
  707MOL0     H95393  11.845   3.724   4.792 -5.4864  1.9749 -0.7298
  707MOL0     H95394  11.865   3.431   4.726  0.4804 -0.6435  0.6245
  707MOL0     H95395  11.898   3.577   4.628  0.5157  2.6536  1.1085
  707MOL0     H95396  12.112   3.654   4.580 -0.4225 -1.6938 -1.6284
  707MOL0     H95397  12.386   3.678   4.583 -3.5418 -1.8794 -0.0036
  707MOL0     H95398  12.382   3.730   4.746  0.1276 -2.0542  4.2020
  707MOL0     H95399  12.593   3.638   4.706  1.4774 -1.2446  1.7080
  707MOL0     H95400  12.518   3.549   4.838 -1.5206  2.1093  0.1241
  707MOL0     H95401  12.501   3.438   4.555  1.2662 -0.1759 -1.6663
  707MOL0     H95402  12.479   3.362   4.711  0.2821 -0.0838 -0.5249
  707MOL0     H95403  12.701   3.290   4.614  2.5952  1.1409  0.7406
  707MOL0     H95404  12.705   3.364   4.770  2.2301  0.0179 -1.2421
  707MOL0     H95405  12.922   3.333   4.787 -2.6519 -1.2904 -1.9680
  707MOL0     H95406  13.150   3.281   4.755  1.5727 -0.9765 -2.0635
  707MOL0     H95407  13.553   3.245   4.486  2.0538 -2.9012 -0.5311
  707MOL0     H95408  13.799   3.220   4.523 -1.2777  0.1230 -1.0597
  707MOL0     H95409  13.979   3.169   4.932 -2.2215 -2.2201  2.9992
  707MOL0     H95410  13.866   3.044   4.886  0.0712  1.8763  3.0180
  707MOL0     H95411  14.025   2.919   4.773  1.0551 -0.0477  0.9779
  707MOL0     H95412  14.101   3.072   4.705 -2.5953  0.7196 -0.9658
  707MOL0     H95413  14.125   3.010   4.996 -0.6290 -2.7754  0.3854
  707MOL0     H95414  14.222   2.910   4.886  1.1999  1.6326 -3.6233
  707MOL0     H95415  14.262   3.209   4.932 -0.2894  1.2481 -2.0332
  707MOL0     H95416  14.283   3.150   4.775  0.8516  0.6020  0.3575
  707MOL0     H95417  14.443   2.981   4.876 -2.2241 -0.4495 -1.1041
  707MOL0     H95418  14.392   3.032   5.042 -1.0682 -0.1498  0.0797
  707MOL0     H95419  14.548   3.200   4.846 -0.7227 -0.1494 -0.7360
  707MOL0     H95420  14.488   3.263   5.010 -1.9346  0.1010 -1.5246
  707MOL0     H95421  14.698   3.045   4.938  4.0499  0.1686  2.9331
  707MOL0     H95422  14.635   3.051   5.100  2.0607 -0.9177  1.1513
  707MOL0     H95423  14.728   3.290   5.095 -0.4582  1.4313 -2.4555
  707MOL0     H95424  14.842   3.161   5.086  1.4236 -0.4401 -0.3184
  707MOL0     H95425  13.752   3.278   4.938  4.6700  5.8799 -0.3566
  707MOL0     H95426  13.525   3.378   4.898 -3.2649 -1.7627 -1.2706
  707MOL0     H95427  13.155   3.521   4.391 -0.3090 -0.0634  0.2163
  707MOL0     H95428  12.902   3.581   4.436 -3.5057 -2.0175  1.7095
  707MOL0     H95429  11.093   3.408   4.290  0.2852  2.1904  2.1388
  707MOL0     H95430  10.936   3.392   4.091  3.1424 -1.3183 -1.3399
  707MOL0     H95431  10.896   3.505   3.643  1.2312  0.0129  0.3719
  707MOL0     H95432  10.774   3.416   3.463  0.3068 -0.9495  1.2620
  707MOL0     H95433  10.646   3.376   3.297  0.8578  1.8729  1.7346
  707MOL0     H95434  10.487   3.333   3.260  2.9155 -0.4292 -1.3753
  707MOL0     H95435  10.499   3.151   3.447 -0.0100  0.6370 -0.2504
  707MOL0     H95436  10.678   3.192   3.452  2.1028 -1.9624 -0.4862
  707MOL0     H95437  10.695   3.124   3.205 -0.1570 -2.2280 -1.8129
  707MOL0     H95438  10.534   3.081   3.202  0.4470 -3.7310 -0.0572
  707MOL0     H95439  10.665   2.893   3.239 -3.9317  0.9059 -1.5716
  707MOL0     H95440  10.741   2.965   3.392 -1.2613  1.2615  1.5876
  707MOL0     H95441  10.390   2.794   3.555  1.4166 -1.0416  1.8155
  707MOL0     H95442  10.414   3.570   3.617  0.6045 -1.4779  1.7458
  707MOL0     H95443  10.560   3.814   3.816 -1.2213  0.1425  0.9892
  707MOL0     H95444  10.411   3.711   3.824  0.3496 -1.8528 -2.3287
  707MOL0     H95445  10.547   3.695   3.938  3.7819  1.1901 -0.0880
  708MOL0     O95446   8.349   3.032   8.080 -0.5556 -0.9437 -0.2429
  708MOL0     C95447   8.444   3.094   8.041 -0.0295  0.0676 -0.8302
  708MOL0     O95448   8.513   3.183   8.114  0.0143 -0.4829 -0.4484
  708MOL0     C95449   8.438   3.250   8.208 -0.1987  0.5162 -1.2768
  708MOL0     C95450   8.372   3.183   8.323 -1.2995  0.0334  0.1329
  708MOL0     C95451   8.292   3.258   8.413  0.0697  0.3447 -0.1815
  708MOL0     C95452   8.284   3.397   8.403 -0.3695  0.3070 -0.5548
  708MOL0     O95453   8.230   3.460   8.509  0.3942 -0.1526 -0.0771
  708MOL0     C95454   8.258   3.601   8.520 -0.6400  0.2311 -0.3660
  708MOL0     C95455   8.184   3.652   8.648  0.5720 -0.5591 -0.1097
  708MOL0     C95456   8.048   3.592   8.686  0.8015 -1.0005 -0.7664
  708MOL0     C95457   7.955   3.608   8.568  0.6576  0.3264  0.5647
  708MOL0     C95458   7.823   3.533   8.593  0.3292 -0.7994  0.6376
  708MOL0     C95459   7.734   3.597   8.704  0.1048 -0.4892  0.6311
  708MOL0     C95460   7.604   3.515   8.721 -0.6988  0.1318  0.1573
  708MOL0     C95461   7.520   3.561   8.842 -0.1725 -0.0584 -0.1678
  708MOL0     N95462   7.403   3.475   8.853  0.5204 -0.2930  0.6180
  708MOL0     C95463   7.279   3.517   8.850  0.1030 -0.7444 -0.0452
  708MOL0     C95464   7.208   3.405   8.859 -0.2453  0.2020  0.5721
  708MOL0     C95465   7.064   3.408   8.845  0.7749 -0.1933 -0.2733
  708MOL0     C95466   6.988   3.365   8.714 -0.9733 -0.6878 -0.5968
  708MOL0     C95467   7.023   3.471   8.606  0.1609 -0.6701  0.3014
  708MOL0     C95468   7.151   3.447   8.523  0.1254  1.0954  0.6218
  708MOL0     O95469   7.175   3.552   8.430  0.2068 -0.1177 -0.5531
  708MOL0     C95470   7.307   3.563   8.386  0.5779 -0.1856 -0.3261
  708MOL0     C95471   7.338   3.507   8.261  0.1945 -0.1156  0.5080
  708MOL0     C95472   7.459   3.548   8.206 -0.7112 -0.2364  0.0809
  708MOL0     C95473   7.548   3.629   8.274 -0.4540 -1.2655  0.3543
  708MOL0     C95474   7.686   3.662   8.213  0.1564 -0.7280  0.2137
  708MOL0     O95475   7.787   3.701   8.294  0.4589  0.2971 -0.2993
  708MOL0     C95476   7.903   3.722   8.233  0.2204 -0.5936  0.4765
  708MOL0     C95477   7.964   3.624   8.157  0.4615  0.1662 -0.3053
  708MOL0     C95478   8.092   3.648   8.111  0.2590 -0.3167  0.1130
  708MOL0     C95479   8.166   3.767   8.131 -0.0654 -0.5168  0.6839
  708MOL0     O95480   8.297   3.793   8.099 -0.2873  0.1672 -0.6897
  708MOL0     C95481   8.355   3.733   7.988  0.2911 -0.9144  0.2614
  708MOL0     C95482   8.484   3.825   7.971 -0.6729  0.1121  0.3255
  708MOL0     C95483   8.576   3.828   8.093  0.0737 -0.1154 -0.7158
  708MOL0     C95484   8.712   3.900   8.072  0.3512  1.1022  0.0052
  708MOL0     C95485   8.819   3.842   8.164  0.1148  0.0030 -0.5992
  708MOL0     C95486   8.866   3.700   8.119 -0.2932 -0.5906  0.7153
  708MOL0     C95487   8.955   3.608   8.210 -0.9649  0.0146  0.3417
  708MOL0     C95488   9.113   3.642   8.218  0.3876 -0.3090  0.3359
  708MOL0    Cl95489   9.168   3.631   8.052  0.2640  0.2008  0.2137
  708MOL0     C95490   8.103   3.869   8.205 -0.3864  0.7061  0.4630
  708MOL0     C95491   7.973   3.842   8.254 -0.0067  0.4927  0.6393
  708MOL0     O95492   7.689   3.677   8.084  0.2181  0.8163  0.2040
  708MOL0     C95493   7.527   3.666   8.401  0.3451 -0.4116 -0.3509
  708MOL0     C95494   7.398   3.647   8.455 -0.8133 -0.0025 -1.1967
  708MOL0     N95495   7.293   3.302   8.857  0.8952  1.0081  0.1071
  708MOL0     N95496   7.412   3.345   8.868 -0.2413  0.6981 -0.0651
  708MOL0     C95497   8.351   3.461   8.299  0.2808  0.3889  0.7631
  708MOL0     C95498   8.431   3.388   8.203 -0.8159 -0.7774 -0.2325
  708MOL0     C95499   8.476   3.053   7.903  0.7148 -0.0550 -0.3341
  708MOL0     C95500   8.599   3.091   7.862 -0.4081  0.7756  0.7709
  708MOL0     C95501   8.629   3.079   7.720  0.0276 -0.3903 -0.3989
  708MOL0     C95502   8.551   3.011   7.624 -0.3096 -0.6503 -1.0959
  708MOL0     O95503   8.600   2.992   7.497  0.2526  0.1595 -0.3359
  708MOL0     C95504   8.552   2.872   7.431 -0.1258  0.5811 -0.0273
  708MOL0     C95505   8.649   2.841   7.319  0.1000 -0.3154 -0.1035
  708MOL0     C95506   8.627   2.954   7.210  0.0404  0.6084 -0.0905
  708MOL0     C95507   8.722   2.941   7.096 -0.2000  0.4155 -0.2556
  708MOL0     C95508   8.703   2.810   7.022 -0.2262 -0.2219  0.3793
  708MOL0     C95509   8.689   2.705   6.970  0.5726  0.6988 -0.1368
  708MOL0     C95510   8.433   2.977   7.674  0.0099  0.5632  0.1279
  708MOL0     C95511   8.386   2.994   7.809  0.8839  0.1370 -0.6330
  708MOL0     C95512   8.242   2.949   7.834  0.6012  0.1894  0.5439
  708MOL0     H95513   8.379   3.076   8.342 -3.4116  0.0511  1.3102
  708MOL0     H95514   8.250   3.205   8.499 -0.8569  2.0229  0.4447
  708MOL0     H95515   8.366   3.618   8.530 -0.7629  1.5294 -1.0828
  708MOL0     H95516   8.223   3.657   8.433 -0.9752 -0.4461 -0.6773
  708MOL0     H95517   8.165   3.759   8.656 -5.5877 -1.4397  3.6774
  708MOL0     H95518   8.251   3.632   8.733  1.2753  0.5442 -0.3871
  708MOL0     H95519   8.004   3.625   8.780  1.4868 -1.9296 -0.1030
  708MOL0     H95520   8.074   3.490   8.718  1.9268 -0.2876  0.6715
  708MOL0     H95521   7.940   3.716   8.554 -2.8948 -0.1439 -0.1604
  708MOL0     H95522   7.987   3.568   8.471 -2.5841  0.4589 -0.6757
  708MOL0     H95523   7.770   3.536   8.497  0.3708  0.9870  0.6460
  708MOL0     H95524   7.844   3.427   8.608  0.9758 -0.9253 -0.9471
  708MOL0     H95525   7.781   3.605   8.803 -1.1727  0.3562  1.1936
  708MOL0     H95526   7.722   3.703   8.680  1.0662 -0.3965  0.5114
  708MOL0     H95527   7.630   3.409   8.732  1.0841  0.5311  0.0304
  708MOL0     H95528   7.536   3.521   8.636  1.0289 -1.1561 -1.4093
  708MOL0     H95529   7.580   3.555   8.933 -1.9228 -1.3635  0.9710
  708MOL0     H95530   7.496   3.667   8.828  0.6571 -0.1470 -3.0497
  708MOL0     H95531   7.248   3.620   8.832  0.5344 -0.6054 -0.0071
  708MOL0     H95532   7.031   3.325   8.908  1.0139  0.2533  0.4444
  708MOL0     H95533   7.029   3.509   8.869  2.6512  0.7838 -1.4404
  708MOL0     H95534   7.031   3.268   8.687  3.1961  0.2390  1.8566
  708MOL0     H95535   6.879   3.356   8.718 -0.9404 -2.2920 -1.8993
  708MOL0     H95536   7.007   3.568   8.653 -2.1192 -1.8679  2.2742
  708MOL0     H95537   6.943   3.465   8.532  0.7524  3.0333 -0.8094
  708MOL0     H95538   7.153   3.350   8.474 -2.8456  1.8950 -1.3725
  708MOL0     H95539   7.241   3.445   8.584  1.3251  1.8873 -1.0465
  708MOL0     H95540   7.271   3.433   8.217 -0.7738 -1.8847  4.5344
  708MOL0     H95541   7.486   3.502   8.112 -0.3891 -0.6016  0.3483
  708MOL0     H95542   7.901   3.535   8.149 -2.5850  1.9214  1.8391
  708MOL0     H95543   8.142   3.564   8.065  2.1795  0.7399  0.1790
  708MOL0     H95544   8.374   3.630   8.021 -1.7068 -1.5924 -0.5902
  708MOL0     H95545   8.291   3.733   7.900 -0.4326 -1.4807  0.7743
  708MOL0     H95546   8.547   3.786   7.891  1.2501  1.4366  1.1153
  708MOL0     H95547   8.449   3.924   7.941 -0.7705 -0.1496 -0.4514
  708MOL0     H95548   8.522   3.893   8.163  0.9155  0.5409 -0.6579
  708MOL0     H95549   8.586   3.734   8.148  2.8797  0.5027 -0.0383
  708MOL0     H95550   8.692   4.005   8.094 -0.2509  0.7856  1.0384
  708MOL0     H95551   8.746   3.874   7.971  1.4101 -0.8238  0.7976
  708MOL0     H95552   8.778   3.843   8.266 -0.3441 -0.7251 -0.7634
  708MOL0     H95553   8.899   3.915   8.177 -1.1639  1.3257  0.2252
  708MOL0     H95554   8.770   3.656   8.092 -0.3243  0.6173 -1.3887
  708MOL0     H95555   8.916   3.710   8.022 -2.6632 -0.6385 -0.5747
  708MOL0     H95556   8.945   3.505   8.176 -0.4082  0.6528 -1.9308
  708MOL0     H95557   8.918   3.623   8.312  1.2988  1.5098  1.0161
  708MOL0     H95558   9.136   3.745   8.247 -1.6434 -0.6340  3.6704
  708MOL0     H95559   9.167   3.573   8.283  2.0650 -0.5356 -1.2237
  708MOL0     H95560   8.146   3.966   8.227 -4.2822  2.2581  2.2441
  708MOL0     H95561   7.918   3.919   8.307 -1.3546  0.7698 -1.0497
  708MOL0     H95562   7.605   3.728   8.443 -1.4656  0.8535  1.3183
  708MOL0     H95563   7.380   3.693   8.551  1.6630 -0.0210 -0.6504
  708MOL0     H95564   8.360   3.569   8.292  2.1137  0.2167 -0.1819
  708MOL0     H95565   8.463   3.443   8.115 -0.4827  0.0845  0.4080
  708MOL0     H95566   8.680   3.122   7.928 -0.2274  0.6661  0.5997
  708MOL0     H95567   8.728   3.103   7.682 -1.1429 -1.8876 -4.9467
  708MOL0     H95568   8.451   2.889   7.393 -0.6020  0.5131  1.1830
  708MOL0     H95569   8.565   2.785   7.496  1.2153  1.2488  0.6367
  708MOL0     H95570   8.641   2.741   7.276 -0.3442 -0.2610 -0.1531
  708MOL0     H95571   8.752   2.840   7.356 -0.0888  0.7772  0.5016
  708MOL0     H95572   8.645   3.052   7.255 -0.3450  1.1541 -1.0963
  708MOL0     H95573   8.526   2.953   7.170  0.1231  0.7854 -0.3079
  708MOL0     H95574   8.694   3.019   7.024  0.6768  0.9367 -0.0493
  708MOL0     H95575   8.827   2.955   7.125 -0.0836  1.8525 -1.2179
  708MOL0     H95576   8.670   2.618   6.911 -2.2907  0.2170  1.3480
  708MOL0     H95577   8.369   2.925   7.603 -2.2605  0.5313  2.0520
  708MOL0     H95578   8.214   2.885   7.751 -1.7165  5.0092 -2.8517
  708MOL0     H95579   8.231   2.905   7.934  3.1517  3.1760  2.3530
  708MOL0     H95580   8.172   3.032   7.832 -0.1377 -0.4407 -0.2430
  709MOL0     O95581   2.296   6.198   0.737 -0.3482  0.5684  0.4252
  709MOL0     C95582   2.336   6.151   0.842  0.2594 -0.1062  0.3951
  709MOL0     O95583   2.348   6.215   0.963  0.0714 -0.6085  0.0086
  709MOL0     C95584   2.334   6.352   0.958 -0.6328  0.3449 -0.5691
  709MOL0     C95585   2.209   6.416   0.983  0.4290  0.1962  0.2827
  709MOL0     C95586   2.203   6.559   0.992  0.3588  0.1506  0.7447
  709MOL0     C95587   2.315   6.639   0.971 -0.3249 -0.0148  0.7448
  709MOL0     O95588   2.316   6.773   0.966  0.8977  0.6394 -0.2263
  709MOL0     C95589   2.202   6.824   0.895 -0.0891 -0.0660  0.2512
  709MOL0     C95590   2.236   6.980   0.884 -0.4579  0.1989 -0.0394
  709MOL0     C95591   2.117   7.050   0.805  0.4128  0.2351  0.3926
  709MOL0     C95592   2.136   7.201   0.795  0.0334 -0.0546 -0.6406
  709MOL0     C95593   2.248   7.261   0.713 -0.6161 -0.1041 -0.3494
  709MOL0     C95594   2.222   7.231   0.564 -0.2338 -0.2809  0.1756
  709MOL0     C95595   2.098   7.301   0.509 -0.3483 -0.1110  0.3069
  709MOL0     C95596   2.093   7.266   0.364  0.6559  0.2420  0.9196
  709MOL0     N95597   1.964   7.328   0.314 -0.7573  0.7054  0.6546
  709MOL0     C95598   1.838   7.273   0.338 -0.8984 -0.0528 -0.6334
  709MOL0     C95599   1.762   7.331   0.241  0.1194 -0.7259 -0.0266
  709MOL0     C95600   1.614   7.326   0.239  0.0865  0.2783 -0.1702
  709MOL0     C95601   1.544   7.446   0.298  0.2988 -0.2277 -0.3696
  709MOL0     C95602   1.562   7.440   0.449 -0.4671  0.0357  0.4172
  709MOL0     C95603   1.567   7.576   0.521 -0.2069  1.0938 -0.4966
  709MOL0     O95604   1.609   7.554   0.654 -0.5788 -0.2425  0.3865
  709MOL0     C95605   1.739   7.579   0.684 -0.2313  0.6858 -0.5448
  709MOL0     C95606   1.850   7.586   0.590  0.8015 -1.7728 -0.8438
  709MOL0     C95607   1.984   7.610   0.642 -0.5648 -0.1602  0.1680
  709MOL0     C95608   2.006   7.623   0.780 -0.6080  0.7156 -0.4821
  709MOL0     C95609   2.135   7.666   0.835 -0.6175  0.4180 -0.3707
  709MOL0     O95610   2.238   7.654   0.743 -0.4182 -0.1493 -0.0654
  709MOL0     C95611   2.366   7.682   0.781 -0.3552 -0.3835  0.2683
  709MOL0     C95612   2.451   7.588   0.843 -1.5007 -0.1403  1.2465
  709MOL0     C95613   2.592   7.617   0.873 -0.1277  0.1196  0.0949
  709MOL0     C95614   2.652   7.734   0.831  0.1589  0.0801 -0.6348
  709MOL0     O95615   2.783   7.757   0.864 -0.3648 -0.8056 -0.7861
  709MOL0     C95616   2.873   7.807   0.759  0.1834 -0.7550 -0.1408
  709MOL0     C95617   3.010   7.817   0.823  0.4857 -0.1421  0.1345
  709MOL0     C95618   3.115   7.843   0.713 -0.0949 -0.4060  0.8386
  709MOL0     C95619   3.252   7.879   0.781 -0.2328 -0.8660 -1.1203
  709MOL0     C95620   3.316   7.767   0.864 -1.0417 -0.1179 -0.5011
  709MOL0     C95621   3.442   7.822   0.933 -1.1689  0.3946 -0.3319
  709MOL0     C95622   3.525   7.713   1.014  0.1056 -0.4180  0.9806
  709MOL0     C95623   3.629   7.784   1.100  0.0955  0.0246 -0.5566
  709MOL0    Cl95624   3.742   7.878   1.001  0.2880 -0.1262  0.0199
  709MOL0     C95625   2.569   7.838   0.789 -0.8694  0.0007  0.9369
  709MOL0     C95626   2.430   7.807   0.756 -0.2648 -0.0182 -0.7768
  709MOL0     O95627   2.136   7.721   0.949 -0.4557 -0.0188  1.6368
  709MOL0     C95628   1.899   7.608   0.861 -0.9018  0.1029 -0.5538
  709MOL0     C95629   1.767   7.588   0.823  0.3208  0.6713 -0.1068
  709MOL0     N95630   1.837   7.423   0.161  0.3584  0.0552  0.6951
  709MOL0     N95631   1.959   7.404   0.194  0.8981  1.3219 -0.3543
  709MOL0     C95632   2.436   6.576   0.942  0.2984  0.6872 -0.1805
  709MOL0     C95633   2.446   6.440   0.939  0.4947  0.4060  0.3138
  709MOL0     C95634   2.370   6.012   0.851  0.4848  0.2694  0.0362
  709MOL0     C95635   2.358   5.931   0.735  0.3754 -0.1052  0.5852
  709MOL0     C95636   2.354   5.787   0.733 -0.5511 -0.2850  0.2851
  709MOL0     C95637   2.374   5.715   0.851  0.0240  0.3328 -0.0403
  709MOL0     O95638   2.371   5.578   0.873  0.0422  0.2711  0.1459
  709MOL0     C95639   2.278   5.503   0.804 -0.3728  0.5652  0.2287
  709MOL0     C95640   2.187   5.438   0.906 -0.5626  0.4621 -0.1364
  709MOL0     C95641   2.247   5.307   0.970  0.5959 -0.6604 -0.3981
  709MOL0     C95642   2.126   5.234   1.049  0.8045  0.6986  0.7253
  709MOL0     C95643   2.064   5.314   1.155 -0.5671 -0.0487  0.0338
  709MOL0     C95644   2.001   5.384   1.231 -0.2196  0.9411 -0.2487
  709MOL0     C95645   2.386   5.800   0.973  0.9483  0.1850  0.2226
  709MOL0     C95646   2.391   5.936   0.966 -0.2560  0.3595 -0.0186
  709MOL0     C95647   2.399   5.990   1.103  0.4435  0.6114  0.5075
  709MOL0     H95648   2.113   6.365   0.988 -1.0480  2.6002 -1.0613
  709MOL0     H95649   2.104   6.602   1.004  0.2254 -0.0968  0.5409
  709MOL0     H95650   2.201   6.775   0.797  1.7393 -0.6962  0.5074
  709MOL0     H95651   2.106   6.808   0.945  0.0748 -1.3384  0.1906
  709MOL0     H95652   2.331   6.994   0.830 -0.6412  1.2278 -0.1194
  709MOL0     H95653   2.240   7.020   0.985  0.7863 -2.2089  0.9342
  709MOL0     H95654   2.021   7.022   0.849 -0.5222  2.3281 -0.1685
  709MOL0     H95655   2.108   7.009   0.704  1.8531  2.7875 -0.8848
  709MOL0     H95656   2.041   7.254   0.782 -0.0821  0.0740  0.5991
  709MOL0     H95657   2.160   7.228   0.898  0.7317 -2.9168  0.0320
  709MOL0     H95658   2.257   7.367   0.738  1.3499 -0.6013  1.3455
  709MOL0     H95659   2.339   7.212   0.748 -0.0036  0.2416 -1.3862
  709MOL0     H95660   2.296   7.279   0.499 -0.5110  0.6303  0.5196
  709MOL0     H95661   2.224   7.123   0.548 -0.0056  0.0366 -2.2476
  709MOL0     H95662   2.103   7.409   0.524  3.4554  0.1306 -1.6105
  709MOL0     H95663   2.006   7.261   0.553 -2.1552  0.8213 -2.3619
  709MOL0     H95664   2.173   7.311   0.305  0.3895  1.0391  1.1435
  709MOL0     H95665   2.100   7.159   0.344  1.0560  0.1012  1.7771
  709MOL0     H95666   1.801   7.209   0.418  0.3850  1.8463  1.6212
  709MOL0     H95667   1.569   7.308   0.141 -2.2382 -0.3219  0.9322
  709MOL0     H95668   1.593   7.231   0.289  0.6003 -0.4830 -1.3414
  709MOL0     H95669   1.592   7.540   0.270  1.5531 -1.1671 -1.4904
  709MOL0     H95670   1.442   7.450   0.259  0.6549  0.3715 -1.2690
  709MOL0     H95671   1.651   7.383   0.477 -0.2766 -0.1935 -0.6168
  709MOL0     H95672   1.483   7.374   0.486  0.4014 -1.2829  0.0201
  709MOL0     H95673   1.463   7.610   0.515 -0.9487 -1.1884 -2.8292
  709MOL0     H95674   1.624   7.650   0.464  0.2867  1.5639  0.5919
  709MOL0     H95675   1.830   7.581   0.484  0.0826 -0.5141 -0.7896
  709MOL0     H95676   2.063   7.620   0.568 -1.6763 -0.5687 -1.1074
  709MOL0     H95677   2.409   7.491   0.868  0.2517 -1.0591  0.7698
  709MOL0     H95678   2.649   7.545   0.930 -1.5356 -2.4949 -1.5567
  709MOL0     H95679   2.883   7.744   0.670  1.4817  0.4572 -0.9037
  709MOL0     H95680   2.834   7.902   0.721  0.9312 -0.4140 -0.0809
  709MOL0     H95681   3.008   7.881   0.911 -1.9485 -0.7166  0.5808
  709MOL0     H95682   3.038   7.718   0.861  3.4699  0.1557 -1.0408
  709MOL0     H95683   3.130   7.749   0.660  3.8933  0.0948  0.7966
  709MOL0     H95684   3.090   7.924   0.644  0.1842 -1.1501 -0.1499
  709MOL0     H95685   3.228   7.953   0.858 -2.1857 -3.0584  0.5051
  709MOL0     H95686   3.336   7.918   0.723  0.9572 -0.2210  0.9426
  709MOL0     H95687   3.354   7.686   0.801  1.2288  0.8371 -0.4729
  709MOL0     H95688   3.248   7.720   0.935 -0.1695  0.0348  0.4604
  709MOL0     H95689   3.510   7.869   0.862 -1.1169 -0.3277 -0.7784
  709MOL0     H95690   3.404   7.900   0.999  1.3307  2.3625 -1.0785
  709MOL0     H95691   3.573   7.640   0.948  3.8181 -0.3193  3.3243
  709MOL0     H95692   3.471   7.648   1.084 -0.1664  0.0541  1.2155
  709MOL0     H95693   3.572   7.843   1.172  0.8300 -0.7738  0.7045
  709MOL0     H95694   3.678   7.703   1.155 -0.5722 -0.6937 -0.9922
  709MOL0     H95695   2.608   7.939   0.778 -2.1156  0.6675  2.3459
  709MOL0     H95696   2.370   7.886   0.711 -1.1095 -0.5901 -0.6879
  709MOL0     H95697   1.921   7.617   0.967 -0.7092 -1.7681 -0.3967
  709MOL0     H95698   1.688   7.570   0.896  0.3378 -0.1818 -0.2944
  709MOL0     H95699   2.528   6.632   0.927  0.3486  0.0838 -2.5352
  709MOL0     H95700   2.544   6.395   0.938 -0.3837 -1.7004 -2.4959
  709MOL0     H95701   2.340   5.980   0.640  1.9723 -3.9139 -1.9342
  709MOL0     H95702   2.341   5.730   0.642  1.1824  0.3448 -0.4064
  709MOL0     H95703   2.332   5.433   0.739 -0.9628  0.1412  0.1943
  709MOL0     H95704   2.218   5.569   0.742  1.8921  0.4058 -2.3219
  709MOL0     H95705   2.097   5.413   0.850  0.8100  0.7534 -2.6300
  709MOL0     H95706   2.151   5.513   0.977  0.4645 -0.8421  1.8421
  709MOL0     H95707   2.326   5.337   1.039 -2.0732  2.1805  1.7444
  709MOL0     H95708   2.294   5.237   0.900  0.9096  0.6997 -1.5850
  709MOL0     H95709   2.051   5.197   0.978 -2.2416  0.5929  3.7580
  709MOL0     H95710   2.163   5.143   1.098  0.1665 -0.1202 -0.2601
  709MOL0     H95711   1.953   5.404   1.325 -3.5536 -2.2109 -1.0291
  709MOL0     H95712   2.395   5.747   1.067  0.6973 -2.0395 -0.9380
  709MOL0     H95713   2.466   6.076   1.105 -2.1105  2.7823 -0.4964
  709MOL0     H95714   2.300   6.028   1.130  0.0046  0.2191 -0.4732
  709MOL0     H95715   2.442   5.921   1.176 -2.5714 -0.4137  1.4512
  710MOL0     O95716   8.850   6.868   3.617 -0.0861  0.7431  0.2797
  710MOL0     C95717   8.754   6.815   3.671 -0.0680 -0.2475 -0.8336
  710MOL0     O95718   8.729   6.824   3.812  0.1410 -0.8277  0.5284
  710MOL0     C95719   8.832   6.879   3.895  0.3933 -0.6372  0.4890
  710MOL0     C95720   8.932   6.801   3.943  0.0675 -0.6581 -0.2998
  710MOL0     C95721   9.047   6.858   3.999 -0.9463  0.1684 -0.6685
  710MOL0     C95722   9.077   6.994   4.008  1.2404 -0.0136 -0.9273
  710MOL0     O95723   9.198   7.041   4.057 -0.0281  0.7624 -0.7230
  710MOL0     C95724   9.216   7.177   4.089  0.5303 -0.0178  0.1836
  710MOL0     C95725   9.255   7.273   3.984 -0.6623  0.8081 -0.7599
  710MOL0     C95726   9.284   7.417   4.042 -0.0512  0.4348  0.7212
  710MOL0     C95727   9.429   7.429   4.088  0.0009 -0.4297  0.7452
  710MOL0     C95728   9.471   7.559   4.152 -0.0018  0.8025 -0.1123
  710MOL0     C95729   9.486   7.682   4.071 -0.2227 -0.5842 -0.6407
  710MOL0     C95730   9.527   7.805   4.168 -0.3712  0.5125 -0.3388
  710MOL0     C95731   9.672   7.786   4.240 -0.1630 -0.1617 -0.2691
  710MOL0     N95732   9.790   7.810   4.153  0.6388  0.3692 -0.2744
  710MOL0     C95733   9.829   7.714   4.066  0.0396 -0.4633  0.5828
  710MOL0     C95734   9.945   7.767   4.012 -0.5648  0.0868  0.0569
  710MOL0     C95735  10.010   7.701   3.897  0.1595  0.0159  0.2050
  710MOL0     C95736  10.146   7.766   3.851 -0.0313  0.1065  0.5285
  710MOL0     C95737  10.251   7.717   3.949 -1.4196 -0.5677  0.0443
  710MOL0     C95738  10.390   7.767   3.904  0.2580  0.7389  0.7425
  710MOL0     O95739  10.428   7.709   3.783 -0.1950 -0.0922 -0.4064
  710MOL0     C95740  10.538   7.758   3.721  0.1354 -0.0402  1.3056
  710MOL0     C95741  10.560   7.692   3.602  0.2020  0.0327 -0.0195
  710MOL0     C95742  10.680   7.715   3.530 -0.5876 -0.6651  1.1460
  710MOL0     C95743  10.780   7.802   3.581  0.5390  0.4915  0.3520
  710MOL0     C95744  10.906   7.821   3.519 -0.1796  0.1809  0.6392
  710MOL0     O95745  10.957   7.719   3.437  0.5772 -0.5286  0.4863
  710MOL0     C95746  11.080   7.714   3.380 -0.5796  0.1766  0.1577
  710MOL0     C95747  11.164   7.827   3.361  0.0227  0.5056 -0.4285
  710MOL0     C95748  11.296   7.809   3.316  0.3564  0.1582  0.9027
  710MOL0     C95749  11.347   7.687   3.295  0.3558  1.2573 -0.1050
  710MOL0     O95750  11.476   7.673   3.264 -0.3021 -0.4240  0.7015
  710MOL0     C95751  11.527   7.565   3.191  0.2144  0.0838 -0.3760
  710MOL0     C95752  11.672   7.603   3.162 -0.2903 -1.1210  1.2193
  710MOL0     C95753  11.769   7.494   3.117 -0.5476 -0.3415  0.6370
  710MOL0     C95754  11.775   7.369   3.199  0.0579  0.5842 -0.6095
  710MOL0     C95755  11.817   7.243   3.119 -0.0130  0.2969  0.6363
  710MOL0     C95756  11.842   7.123   3.198 -0.5403 -0.2592 -0.3957
  710MOL0     C95757  11.970   7.135   3.287 -0.5043  0.2837 -0.2171
  710MOL0     C95758  12.022   7.003   3.352 -0.3198  0.9292  0.4031
  710MOL0    Cl95759  12.166   7.035   3.471 -0.1081 -0.2088  0.3073
  710MOL0     C95760  11.261   7.573   3.302  0.5972  0.3949 -0.4026
  710MOL0     C95761  11.129   7.592   3.343 -0.3581 -0.1500 -1.2854
  710MOL0     O95762  10.969   7.922   3.545  0.0788 -0.5545 -0.3087
  710MOL0     C95763  10.753   7.873   3.699  0.0770  0.0818  0.1560
  710MOL0     C95764  10.634   7.844   3.767 -0.4398 -0.4523  0.2781
  710MOL0     N95765   9.968   7.891   4.070  0.2998  0.2834  0.0835
  710MOL0     N95766   9.869   7.918   4.151  0.0374  0.2079  0.1619
  710MOL0     C95767   8.970   7.079   3.961 -0.4751 -0.1590 -0.4670
  710MOL0     C95768   8.848   7.022   3.909  0.2701 -0.6566 -0.2464
  710MOL0     C95769   8.661   6.723   3.598 -0.2362 -0.9587 -0.3405
  710MOL0     C95770   8.547   6.675   3.667 -0.4082  0.4234  0.3976
  710MOL0     C95771   8.478   6.571   3.609 -0.4344  0.0127 -0.0540
  710MOL0     C95772   8.512   6.510   3.488  0.6285 -0.1539  0.0478
  710MOL0     O95773   8.433   6.400   3.450  0.2681  0.1919 -0.3042
  710MOL0     C95774   8.408   6.376   3.315  1.0528 -0.6942 -0.3869
  710MOL0     C95775   8.267   6.380   3.288  1.0773 -0.5285 -0.4103
  710MOL0     C95776   8.202   6.520   3.281  0.8287 -0.3147  0.7640
  710MOL0     C95777   8.073   6.529   3.205  0.5802 -0.6189 -0.1322
  710MOL0     C95778   8.035   6.669   3.179 -0.6475  0.3370 -0.1808
  710MOL0     C95779   8.010   6.774   3.131 -0.3138 -0.3487  0.0257
  710MOL0     C95780   8.610   6.571   3.417  0.7520  0.8485  0.5095
  710MOL0     C95781   8.684   6.677   3.464  0.3002  0.3662 -0.0423
  710MOL0     C95782   8.791   6.729   3.371  0.4897 -0.3617 -0.6866
  710MOL0     H95783   8.926   6.694   3.929  3.5695 -0.8955 -0.7301
  710MOL0     H95784   9.129   6.790   4.023  1.0327  0.8811 -4.5684
  710MOL0     H95785   9.131   7.223   4.140  1.1655  0.4540  0.8282
  710MOL0     H95786   9.288   7.175   4.171  0.9436  0.7234 -0.1555
  710MOL0     H95787   9.175   7.275   3.909  0.7310  0.4404 -2.3171
  710MOL0     H95788   9.345   7.245   3.928 -1.7091 -0.5498 -1.8382
  710MOL0     H95789   9.203   7.444   4.111 -0.2542 -1.9227  1.5208
  710MOL0     H95790   9.269   7.482   3.956 -0.0348  0.3712  0.6702
  710MOL0     H95791   9.446   7.351   4.164  1.1674 -0.7388  0.1953
  710MOL0     H95792   9.490   7.419   3.998  0.7639 -2.3090  1.4061
  710MOL0     H95793   9.399   7.564   4.234  0.0637 -1.3140  0.1463
  710MOL0     H95794   9.564   7.534   4.205 -0.0115 -2.2425 -1.3078
  710MOL0     H95795   9.555   7.672   3.987 -1.5904 -1.3783 -1.7087
  710MOL0     H95796   9.389   7.706   4.027 -0.4793  0.5631  0.4839
  710MOL0     H95797   9.454   7.812   4.249  0.5565 -2.7458  0.9353
  710MOL0     H95798   9.543   7.893   4.105 -0.7616  0.7079 -0.1663
  710MOL0     H95799   9.675   7.851   4.328  1.2936 -0.6332  0.0510
  710MOL0     H95800   9.686   7.682   4.271 -0.6364 -0.8617 -2.2448
  710MOL0     H95801   9.793   7.616   4.037 -0.3137  0.0204 -0.6458
  710MOL0     H95802  10.027   7.599   3.934  1.0132 -0.5010 -1.4959
  710MOL0     H95803   9.944   7.685   3.811 -0.5195  0.2797  0.6677
  710MOL0     H95804  10.175   7.720   3.756 -0.4466 -0.3631  0.6216
  710MOL0     H95805  10.147   7.875   3.843  1.4049  0.5163  4.3088
  710MOL0     H95806  10.251   7.608   3.948  2.8929 -0.7943 -2.6627
  710MOL0     H95807  10.232   7.761   4.047  0.5979  1.8200 -0.5245
  710MOL0     H95808  10.467   7.744   3.978  0.5763  1.0166  0.4996
  710MOL0     H95809  10.376   7.875   3.893 -2.7593  0.5384  1.5626
  710MOL0     H95810  10.485   7.621   3.569  0.8959 -0.6428 -0.1779
  710MOL0     H95811  10.707   7.659   3.441  0.2288  0.0444  0.9300
  710MOL0     H95812  11.137   7.930   3.383  1.7473  0.7499  0.7973
  710MOL0     H95813  11.359   7.898   3.312 -1.8217  1.7606  0.3014
  710MOL0     H95814  11.520   7.483   3.263  1.3499 -0.6286 -1.0465
  710MOL0     H95815  11.483   7.542   3.094  1.7683 -1.5811 -0.7368
  710MOL0     H95816  11.658   7.681   3.086 -0.1535 -0.3625  1.9490
  710MOL0     H95817  11.703   7.660   3.250 -1.2733  1.0708  0.2326
  710MOL0     H95818  11.745   7.466   3.014 -0.1456 -0.7283  0.6418
  710MOL0     H95819  11.873   7.528   3.109 -0.3660 -1.1129 -0.5246
  710MOL0     H95820  11.672   7.346   3.230 -0.8443  2.1183 -2.2882
  710MOL0     H95821  11.848   7.388   3.278 -0.4988 -0.1606  0.1031
  710MOL0     H95822  11.911   7.258   3.065  1.7779 -3.1912  2.4856
  710MOL0     H95823  11.743   7.214   3.043  2.0696 -2.8689 -0.3829
  710MOL0     H95824  11.751   7.104   3.256 -1.5107  2.4370 -0.8763
  710MOL0     H95825  11.861   7.040   3.129 -0.0297 -1.6147  1.3130
  710MOL0     H95826  11.946   7.210   3.364  1.3480  0.2706  0.4345
  710MOL0     H95827  12.048   7.186   3.229 -1.9274  3.7125  0.5996
  710MOL0     H95828  11.943   6.957   3.412  1.1307 -1.9040  0.2800
  710MOL0     H95829  12.045   6.929   3.275 -2.0917 -0.3383  1.0177
  710MOL0     H95830  11.306   7.477   3.284  0.9832  0.9747 -2.9895
  710MOL0     H95831  11.069   7.502   3.347 -0.7213  0.0317 -2.3211
  710MOL0     H95832  10.827   7.945   3.731 -1.9104  1.8331  1.0640
  710MOL0     H95833  10.629   7.908   3.855  0.6709  0.8988 -0.5918
  710MOL0     H95834   8.975   7.185   3.982  1.9446 -0.6901  2.1955
  710MOL0     H95835   8.786   7.090   3.852 -0.8568 -0.6948  0.9006
  710MOL0     H95836   8.517   6.699   3.769  0.7620 -2.8174  1.6317
  710MOL0     H95837   8.387   6.537   3.657 -0.8048  0.5222 -0.3926
  710MOL0     H95838   8.449   6.276   3.296  2.3707 -0.3281  0.4290
  710MOL0     H95839   8.452   6.439   3.238 -2.4669 -0.8405 -2.7110
  710MOL0     H95840   8.216   6.321   3.364  1.9861 -2.9623 -1.5707
  710MOL0     H95841   8.267   6.325   3.193 -0.4476  0.7385 -1.1954
  710MOL0     H95842   8.279   6.583   3.236  0.6513 -0.7641 -0.1898
  710MOL0     H95843   8.185   6.554   3.383  0.9179  2.0175  0.0649
  710MOL0     H95844   8.080   6.478   3.108 -2.9554 -0.1377 -0.7759
  710MOL0     H95845   7.993   6.472   3.253  0.6945  0.6320  1.6448
  710MOL0     H95846   7.976   6.869   3.097  0.4215 -0.6701 -1.7292
  710MOL0     H95847   8.638   6.523   3.324  1.9020  1.8527  0.3124
  710MOL0     H95848   8.774   6.679   3.275  0.0265 -1.5512 -0.0079
  710MOL0     H95849   8.791   6.838   3.373 -1.9845 -0.3282  0.4960
  710MOL0     H95850   8.888   6.694   3.408  2.7907  1.1051 -4.6923
  711MOL0     O95851   3.383   6.537   8.227  0.2644 -0.1773  0.0391
  711MOL0     C95852   3.374   6.519   8.104 -0.6566 -0.3680  1.2060
  711MOL0     O95853   3.431   6.601   8.015 -0.4338  0.9259 -0.2695
  711MOL0     C95854   3.519   6.700   8.069  0.1151 -0.3718  0.3288
  711MOL0     C95855   3.468   6.806   8.142  0.2773 -0.8475  0.3400
  711MOL0     C95856   3.543   6.904   8.209  0.0634  0.1868  0.8276
  711MOL0     C95857   3.678   6.880   8.209 -0.8255 -0.0654  0.0420
  711MOL0     O95858   3.773   6.957   8.274  0.4276 -0.3327  0.2300
  711MOL0     C95859   3.739   7.048   8.376 -0.8277 -1.2095 -0.8485
  711MOL0     C95860   3.864   7.096   8.457 -0.3029  0.4314  0.2272
  711MOL0     C95861   3.965   7.149   8.355  0.3321  0.7453  0.4582
  711MOL0     C95862   4.009   7.292   8.390  1.0808  0.5334 -0.6245
  711MOL0     C95863   4.145   7.320   8.321 -0.0426 -0.0942  0.4053
  711MOL0     C95864   4.253   7.254   8.408  1.0156 -0.4501 -0.9737
  711MOL0     C95865   4.386   7.271   8.341 -1.3921  0.8308  0.0888
  711MOL0     C95866   4.492   7.163   8.372  0.3247  0.2236  1.5780
  711MOL0     N95867   4.621   7.177   8.293 -0.3459  0.2353  0.4300
  711MOL0     C95868   4.738   7.179   8.354 -0.2784 -0.5374 -1.1595
  711MOL0     C95869   4.833   7.210   8.261 -0.4167 -0.5338  0.5796
  711MOL0     C95870   4.977   7.240   8.272 -0.4043  0.1579  0.0183
  711MOL0     C95871   5.069   7.118   8.240 -0.1868 -0.0470 -0.1360
  711MOL0     C95872   5.042   7.001   8.333 -0.6459 -0.0944 -0.3091
  711MOL0     C95873   5.153   6.894   8.351  0.0004  0.1519 -0.2725
  711MOL0     O95874   5.267   6.952   8.421 -0.8158 -0.1767 -0.2975
  711MOL0     C95875   5.368   6.869   8.468 -0.2735 -0.3770  0.2679
  711MOL0     C95876   5.455   6.911   8.572 -0.1000  0.2443 -0.6091
  711MOL0     C95877   5.553   6.833   8.625  0.6606  0.6450  0.2581
  711MOL0     C95878   5.587   6.704   8.568 -0.4921 -0.2083  0.7681
  711MOL0     C95879   5.712   6.636   8.606 -0.1313  0.2016 -0.4099
  711MOL0     O95880   5.815   6.705   8.636  0.0040 -0.4121  0.9093
  711MOL0     C95881   5.928   6.645   8.668 -0.2122 -0.0869 -0.1942
  711MOL0     C95882   5.951   6.605   8.798 -0.2461  0.1701 -0.2376
  711MOL0     C95883   6.072   6.543   8.832 -0.2726 -0.2138 -0.2547
  711MOL0     C95884   6.172   6.533   8.740 -0.2338 -0.1778 -0.4482
  711MOL0     O95885   6.291   6.474   8.779  0.1660  0.1746 -0.6279
  711MOL0     C95886   6.404   6.478   8.693 -0.2668  0.1521 -0.3077
  711MOL0     C95887   6.540   6.448   8.766  0.5785 -0.3022  0.0496
  711MOL0     C95888   6.550   6.527   8.897  0.1200  0.0307 -0.2108
  711MOL0     C95889   6.692   6.497   8.943 -0.1309  0.0720 -0.0092
  711MOL0     C95890   6.710   6.551   9.092  0.0427  0.0870 -1.2653
  711MOL0     C95891   6.843   6.496   9.156  1.1499 -0.2344 -0.1947
  711MOL0     C95892   6.965   6.531   9.070 -0.3886  0.7426 -0.2818
  711MOL0     C95893   7.090   6.520   9.159  0.8154 -0.3984  0.0126
  711MOL0    Cl95894   7.114   6.349   9.191  0.2930 -0.5125  0.2695
  711MOL0     C95895   6.147   6.560   8.610  0.0006 -0.0634  0.3741
  711MOL0     C95896   6.026   6.616   8.572 -0.1235  0.1021  0.2902
  711MOL0     O95897   5.709   6.512   8.609 -0.3834 -0.1065  0.5356
  711MOL0     C95898   5.501   6.658   8.462  0.3629  0.2293  0.1435
  711MOL0     C95899   5.393   6.739   8.413  0.1940  0.5385 -0.2822
  711MOL0     N95900   4.766   7.200   8.138 -0.5748 -0.5086 -0.2135
  711MOL0     N95901   4.639   7.185   8.153  1.0051  0.1018  0.5969
  711MOL0     C95902   3.741   6.782   8.123 -0.1712 -0.8650 -0.7120
  711MOL0     C95903   3.661   6.690   8.062  0.4379  0.7910 -0.5112
  711MOL0     C95904   3.270   6.421   8.048  0.3369  0.7369  0.7323
  711MOL0     C95905   3.241   6.433   7.917 -0.0940 -0.1748 -0.0077
  711MOL0     C95906   3.152   6.346   7.852  0.1108 -0.6864  0.4949
  711MOL0     C95907   3.082   6.248   7.919 -0.3149 -0.0148 -0.0011
  711MOL0     O95908   2.990   6.162   7.860 -0.0572  0.5999 -1.0097
  711MOL0     C95909   2.924   6.194   7.730 -0.2226  0.9706 -0.7667
  711MOL0     C95910   2.860   6.075   7.667  0.6935 -0.0024  0.7671
  711MOL0     C95911   2.957   5.979   7.588 -0.7208 -0.3278 -0.2075
  711MOL0     C95912   3.037   5.882   7.679  0.2670  0.4594  0.3096
  711MOL0     C95913   2.944   5.803   7.752  1.2609  0.6510  0.6725
  711MOL0     C95914   2.877   5.722   7.824  0.5612 -0.6285  0.6590
  711MOL0     C95915   3.122   6.224   8.048  0.1949 -0.0780 -0.7078
  711MOL0     C95916   3.208   6.310   8.121  0.2771  0.1417 -0.6635
  711MOL0     C95917   3.241   6.273   8.268  0.8521  0.7736  0.3222
  711MOL0     H95918   3.360   6.816   8.143  0.2167 -1.3478  2.1825
  711MOL0     H95919   3.491   6.981   8.265  0.1174  0.5871  0.3296
  711MOL0     H95920   3.685   7.132   8.333 -1.6643 -2.0102 -1.3889
  711MOL0     H95921   3.677   7.010   8.458  0.5174 -1.3516  0.1325
  711MOL0     H95922   3.893   7.004   8.507  0.5858  0.5565 -0.0398
  711MOL0     H95923   3.840   7.178   8.525 -4.3088  1.0961 -1.6768
  711MOL0     H95924   3.923   7.162   8.255  0.8142  3.0409  0.4971
  711MOL0     H95925   4.045   7.074   8.354  0.3076  0.7120  0.8124
  711MOL0     H95926   3.940   7.365   8.346 -0.0356 -0.7997 -1.1391
  711MOL0     H95927   4.035   7.309   8.494 -0.0720 -0.3089 -0.1863
  711MOL0     H95928   4.153   7.278   8.220 -0.7728  0.2599  0.1974
  711MOL0     H95929   4.167   7.425   8.303 -2.2349  0.0301 -2.2678
  711MOL0     H95930   4.257   7.277   8.515  1.1452 -0.2995 -1.0107
  711MOL0     H95931   4.223   7.150   8.401 -1.8510  0.3942 -2.6205
  711MOL0     H95932   4.432   7.369   8.358  1.2722 -0.1120 -1.0905
  711MOL0     H95933   4.371   7.266   8.233  1.3023 -0.2750 -0.3037
  711MOL0     H95934   4.509   7.158   8.480  0.5170 -0.4986  1.5180
  711MOL0     H95935   4.441   7.069   8.350  0.3212  0.1279  1.9831
  711MOL0     H95936   4.750   7.164   8.461  0.5270 -3.1537 -1.5425
  711MOL0     H95937   5.011   7.311   8.196  2.8679 -0.4271  0.7988
  711MOL0     H95938   4.997   7.275   8.373 -1.0895 -0.5702  0.4127
  711MOL0     H95939   5.051   7.094   8.134  0.3045 -0.0680 -0.2135
  711MOL0     H95940   5.176   7.140   8.245 -0.5716  2.4760 -1.4867
  711MOL0     H95941   4.948   6.950   8.312 -1.3435  1.3937 -0.9420
  711MOL0     H95942   5.027   7.034   8.437 -1.5999  0.4274 -0.6084
  711MOL0     H95943   5.177   6.869   8.247 -0.4715  0.5409 -0.4733
  711MOL0     H95944   5.107   6.813   8.409  2.1039 -0.4836  0.6308
  711MOL0     H95945   5.450   7.013   8.608  0.6701  0.0966 -0.0710
  711MOL0     H95946   5.620   6.876   8.699 -2.1275  1.5477  2.4745
  711MOL0     H95947   5.860   6.613   8.857 -0.8141 -0.3008 -1.0363
  711MOL0     H95948   6.083   6.518   8.937 -3.0785 -0.1875  0.1317
  711MOL0     H95949   6.395   6.406   8.611 -0.5831  0.6379 -0.7041
  711MOL0     H95950   6.417   6.575   8.644 -1.8702 -0.1607 -1.4210
  711MOL0     H95951   6.548   6.340   8.783  2.3536  0.0127  1.6157
  711MOL0     H95952   6.624   6.457   8.697 -0.5391  0.5526 -1.2291
  711MOL0     H95953   6.529   6.633   8.878 -1.1418  0.0526  1.1026
  711MOL0     H95954   6.483   6.480   8.970  0.2233 -0.6524 -0.5502
  711MOL0     H95955   6.759   6.533   8.864  1.2321  0.9646  1.4788
  711MOL0     H95956   6.710   6.389   8.949  0.7009  0.1810 -0.3618
  711MOL0     H95957   6.630   6.523   9.161 -1.3256  2.1061 -1.9524
  711MOL0     H95958   6.714   6.659   9.104  0.4001 -0.2635  5.0975
  711MOL0     H95959   6.842   6.533   9.260 -3.0042 -2.2670  0.7099
  711MOL0     H95960   6.837   6.387   9.161  3.1343 -0.3745 -0.0496
  711MOL0     H95961   6.955   6.620   9.007 -0.4286  0.8962 -0.0606
  711MOL0     H95962   6.965   6.452   8.995 -1.3671 -1.1795  1.6186
  711MOL0     H95963   7.169   6.561   9.096 -0.2515  1.3647 -0.2482
  711MOL0     H95964   7.096   6.571   9.256  0.9377  0.9303 -0.6747
  711MOL0     H95965   6.211   6.543   8.524 -2.3750 -1.7023 -1.2421
  711MOL0     H95966   6.020   6.648   8.468 -1.8461  3.1044  1.1818
  711MOL0     H95967   5.506   6.562   8.412  0.2915  0.3963 -0.1852
  711MOL0     H95968   5.327   6.707   8.333 -0.5123  3.5826 -1.0203
  711MOL0     H95969   3.850   6.780   8.124 -0.0388  0.0489  3.2189
  711MOL0     H95970   3.701   6.605   8.009  0.2208 -0.1959  0.8608
  711MOL0     H95971   3.291   6.501   7.848 -0.8808  0.5055  0.0766
  711MOL0     H95972   3.148   6.370   7.746  4.9113  2.6794  0.7052
  711MOL0     H95973   3.001   6.236   7.664  4.8323 -0.9692  3.1717
  711MOL0     H95974   2.847   6.268   7.754 -1.0615 -0.0509 -0.2230
  711MOL0     H95975   2.784   6.126   7.606  0.4319  1.8426  2.5142
  711MOL0     H95976   2.806   6.009   7.736  0.9582 -0.9044  0.1352
  711MOL0     H95977   3.035   6.036   7.537  0.0418 -1.5655 -0.4715
  711MOL0     H95978   2.910   5.935   7.500 -1.1180  0.1213 -0.2239
  711MOL0     H95979   3.100   5.812   7.624 -1.3174  0.9082 -2.2353
  711MOL0     H95980   3.101   5.943   7.744  2.1041 -1.1469  0.0900
  711MOL0     H95981   2.805   5.675   7.889 -1.0841  1.3917  0.4187
  711MOL0     H95982   3.070   6.138   8.088 -1.0587  0.6732 -0.6672
  711MOL0     H95983   3.213   6.367   8.317 -1.5861  0.4996 -0.4211
  711MOL0     H95984   3.175   6.199   8.313  1.6766  0.4381  0.9921
  711MOL0     H95985   3.347   6.249   8.277  0.7219  0.3199  0.6421
  712MOL0     O95986  10.415   5.720   8.113  0.2249  0.3059 -0.5156
  712MOL0     C95987  10.425   5.844   8.124 -0.1641  0.4248  0.3406
  712MOL0     O95988  10.512   5.910   8.205  0.2786 -0.4410  0.3522
  712MOL0     C95989  10.601   5.871   8.302 -0.2007  0.2809  0.1879
  712MOL0     C95990  10.617   5.955   8.415 -0.3956  0.1216  0.6641
  712MOL0     C95991  10.697   5.922   8.526 -0.8339 -1.4132  0.2978
  712MOL0     C95992  10.768   5.804   8.513  0.2461 -0.0189  0.4793
  712MOL0     O95993  10.841   5.771   8.627  0.0050  0.2164 -0.6582
  712MOL0     C95994  10.955   5.681   8.618  0.2611 -0.1142  0.4128
  712MOL0     C95995  11.062   5.747   8.516  0.8621  0.1942  0.0530
  712MOL0     C95996  11.194   5.670   8.504 -0.0922  0.4235 -0.5599
  712MOL0     C95997  11.176   5.531   8.446 -1.0693 -0.3582  0.0437
  712MOL0     C95998  11.312   5.476   8.401  0.2147 -0.6804 -0.4487
  712MOL0     C95999  11.306   5.325   8.354  0.4164  0.0075  0.1288
  712MOL0     C96000  11.434   5.282   8.293  0.8522 -0.1099  0.9087
  712MOL0     C96001  11.407   5.137   8.245  0.7578  0.4826  0.6969
  712MOL0     N96002  11.535   5.075   8.199 -0.5947  0.3086 -0.0980
  712MOL0     C96003  11.600   5.089   8.072 -0.2688 -0.3616 -0.8453
  712MOL0     C96004  11.722   5.026   8.089  0.2042  0.6288 -0.5340
  712MOL0     C96005  11.830   5.011   7.986  0.4932 -1.1594  0.5737
  712MOL0     C96006  11.849   4.873   7.919  0.8044 -1.2594  0.4794
  712MOL0     C96007  11.902   4.880   7.776 -0.1439  0.8755 -0.0195
  712MOL0     C96008  12.060   4.869   7.764  0.6627 -0.8062  0.2225
  712MOL0     O96009  12.109   4.998   7.817 -0.8034  0.0209  0.1636
  712MOL0     C96010  12.215   4.986   7.906 -0.5778 -0.0821  0.0510
  712MOL0     C96011  12.226   5.073   8.018  0.6574  0.1804  0.6257
  712MOL0     C96012  12.332   5.072   8.097  0.7321  1.4520 -0.8046
  712MOL0     C96013  12.442   4.998   8.071  0.1135  0.9758  0.1816
  712MOL0     C96014  12.562   5.009   8.152 -0.7338 -0.6766  0.1371
  712MOL0     O96015  12.666   4.949   8.092 -0.5631  0.1387 -0.2040
  712MOL0     C96016  12.798   4.963   8.120  0.4374 -1.0707 -0.3677
  712MOL0     C96017  12.841   5.003   8.248 -0.5705  0.2045  0.0376
  712MOL0     C96018  12.979   5.011   8.273 -0.1203 -0.1268  0.2372
  712MOL0     C96019  13.075   4.989   8.171  1.2719  0.3556  0.1277
  712MOL0     O96020  13.206   5.019   8.167  0.4286 -0.7407 -0.1657
  712MOL0     C96021  13.272   5.043   8.297 -0.0878 -1.1146  0.9009
  712MOL0     C96022  13.426   5.027   8.291 -0.2003  0.2027 -0.8098
  712MOL0     C96023  13.472   4.892   8.239  0.0537  0.2648 -1.0627
  712MOL0     C96024  13.632   4.882   8.261  0.6141  0.2322 -0.3609
  712MOL0     C96025  13.669   4.731   8.248  0.0867 -0.7718 -0.5171
  712MOL0     C96026  13.700   4.692   8.104  0.7642 -0.4373 -0.3296
  712MOL0     C96027  13.838   4.744   8.051  0.5386 -0.2481  0.2432
  712MOL0     C96028  13.860   4.675   7.916 -0.7186 -0.0424  0.2151
  712MOL0    Cl96029  13.734   4.701   7.790  0.1237 -0.4762 -0.1291
  712MOL0     C96030  13.026   4.937   8.046  0.4525 -0.4837 -0.6901
  712MOL0     C96031  12.890   4.943   8.022  0.5256  0.8499  0.3771
  712MOL0     O96032  12.568   5.077   8.252  0.0356  0.0033 -0.2422
  712MOL0     C96033  12.436   4.909   7.962 -0.2055  0.0605 -0.4309
  712MOL0     C96034  12.321   4.907   7.883 -0.1667  0.5090 -0.7489
  712MOL0     N96035  11.722   4.967   8.215 -0.2518  0.4083 -0.2163
  712MOL0     N96036  11.613   4.997   8.275  0.0242 -0.3579  0.0977
  712MOL0     C96037  10.750   5.719   8.403 -1.2001  0.1892 -0.4607
  712MOL0     C96038  10.663   5.745   8.296  0.0235  0.3635  0.5133
  712MOL0     C96039  10.325   5.916   8.040 -0.1463 -0.2660 -1.0123
  712MOL0     C96040  10.261   5.838   7.936  0.7428 -0.1386  0.8000
  712MOL0     C96041  10.183   5.899   7.833 -0.5849 -0.1415 -1.1720
  712MOL0     C96042  10.179   6.036   7.821 -0.0034  0.2643 -0.7255
  712MOL0     O96043  10.108   6.082   7.716  0.8167  0.4911 -0.4726
  712MOL0     C96044  10.085   6.225   7.701 -0.1343  0.5138  0.3239
  712MOL0     C96045   9.958   6.271   7.779  0.0887  0.3029 -0.2811
  712MOL0     C96046   9.930   6.418   7.779  0.1563  0.2236  1.1540
  712MOL0     C96047  10.017   6.492   7.882 -0.4097  0.4082 -0.0247
  712MOL0     C96048   9.999   6.455   8.025 -0.4060 -0.0929 -0.7808
  712MOL0     C96049  10.001   6.409   8.138 -0.6413  0.5918 -0.5793
  712MOL0     C96050  10.238   6.119   7.926  0.6900  0.4838 -0.1615
  712MOL0     C96051  10.289   6.055   8.043 -0.3994 -0.0628 -0.4893
  712MOL0     C96052  10.341   6.156   8.141 -0.1038  0.2648 -0.5545
  712MOL0     H96053  10.557   6.044   8.430 -0.8585 -0.1804  0.6397
  712MOL0     H96054  10.711   5.977   8.619  0.9031 -0.9417 -0.2012
  712MOL0     H96055  10.998   5.669   8.719  1.1642  2.9556  0.5001
  712MOL0     H96056  10.918   5.582   8.591 -2.4713  1.5175 -2.4581
  712MOL0     H96057  11.077   5.851   8.548 -4.3836  1.0617  0.6044
  712MOL0     H96058  11.006   5.754   8.423 -1.4915 -0.4631  1.3270
  712MOL0     H96059  11.229   5.654   8.606 -1.7375 -0.1260 -0.0434
  712MOL0     H96060  11.267   5.723   8.443  0.6403 -0.0215 -0.0854
  712MOL0     H96061  11.138   5.466   8.526  1.3355 -0.1011  1.4901
  712MOL0     H96062  11.107   5.526   8.362  1.1889  0.5604 -1.9723
  712MOL0     H96063  11.358   5.527   8.316  0.9990 -1.1491 -0.3143
  712MOL0     H96064  11.385   5.491   8.481 -2.4572  0.7689  1.9026
  712MOL0     H96065  11.268   5.261   8.434  0.6129  0.5210  0.6420
  712MOL0     H96066  11.228   5.324   8.278  0.3438 -0.1049  0.2048
  712MOL0     H96067  11.522   5.275   8.357 -0.1033 -3.3537  2.0697
  712MOL0     H96068  11.463   5.339   8.204  2.6673  0.8948  2.0819
  712MOL0     H96069  11.359   5.085   8.329 -1.4664  3.1920  1.2839
  712MOL0     H96070  11.338   5.137   8.160  0.5579 -0.0021  0.8541
  712MOL0     H96071  11.562   5.142   7.985  1.5800  0.1183 -1.4037
  712MOL0     H96072  11.812   5.096   7.919 -0.9999  0.1917  2.5662
  712MOL0     H96073  11.922   5.038   8.038  0.6403 -2.9349  1.2830
  712MOL0     H96074  11.911   4.801   7.973  0.0226 -2.2045  0.1346
  712MOL0     H96075  11.747   4.834   7.919  0.3054 -0.1642  3.0603
  712MOL0     H96076  11.871   4.972   7.726 -0.2044  0.3727 -0.9206
  712MOL0     H96077  11.876   4.800   7.706  1.0927  0.0778  0.4052
  712MOL0     H96078  12.088   4.867   7.658  0.0657  0.8563  0.0042
  712MOL0     H96079  12.096   4.785   7.824  0.3482 -0.3634  1.0352
  712MOL0     H96080  12.144   5.140   8.042 -0.6849 -1.8931  2.2279
  712MOL0     H96081  12.337   5.122   8.193  1.2713 -1.7916  1.0293
  712MOL0     H96082  12.773   5.034   8.327 -2.8528 -2.0755 -0.8761
  712MOL0     H96083  13.011   5.068   8.360 -1.4957  0.4982  0.3593
  712MOL0     H96084  13.239   5.141   8.333 -2.1105 -0.4440 -2.3671
  712MOL0     H96085  13.246   4.959   8.362  1.0143 -0.7932  1.7941
  712MOL0     H96086  13.466   5.109   8.230 -0.2968  0.7586 -0.1402
  712MOL0     H96087  13.470   5.038   8.390  2.9234  1.5936 -2.2086
  712MOL0     H96088  13.422   4.814   8.298  0.1841  0.0623 -1.2199
  712MOL0     H96089  13.439   4.884   8.135  0.3038 -0.3319 -1.0983
  712MOL0     H96090  13.660   4.923   8.359 -1.0608  1.9041 -0.5160
  712MOL0     H96091  13.695   4.934   8.188  2.3596 -1.1303  0.1128
  712MOL0     H96092  13.591   4.660   8.278 -0.3942  0.2315  0.6965
  712MOL0     H96093  13.753   4.712   8.316 -1.1975 -0.7316  1.1422
  712MOL0     H96094  13.701   4.583   8.097 -0.7473 -0.4057 -1.4788
  712MOL0     H96095  13.621   4.721   8.034  0.4985 -1.4526 -0.4632
  712MOL0     H96096  13.914   4.727   8.128  0.7136  0.4645  0.2360
  712MOL0     H96097  13.845   4.852   8.035  2.0351 -0.4250 -0.4456
  712MOL0     H96098  13.955   4.720   7.886 -0.3208 -0.5285  0.7386
  712MOL0     H96099  13.875   4.568   7.932  0.8247 -0.4976 -3.3623
  712MOL0     H96100  13.091   4.904   7.966 -0.1700  0.4851 -1.6225
  712MOL0     H96101  12.862   4.930   7.918 -0.8825  2.1999  0.5515
  712MOL0     H96102  12.529   4.867   7.925  0.5045  2.0295 -1.0106
  712MOL0     H96103  12.331   4.854   7.788  2.6274 -2.2535  0.9107
  712MOL0     H96104  10.798   5.621   8.403 -2.3484 -0.3977 -0.6083
  712MOL0     H96105  10.646   5.672   8.217  1.1421 -0.1923  0.7676
  712MOL0     H96106  10.280   5.732   7.923  1.3160 -0.2379  2.2744
  712MOL0     H96107  10.132   5.834   7.763  0.5662 -4.3772  1.5217
  712MOL0     H96108  10.061   6.246   7.596  1.4065 -0.6760 -0.3145
  712MOL0     H96109  10.168   6.293   7.716  1.7729 -1.1187 -1.9760
  712MOL0     H96110   9.971   6.233   7.881  0.0631  2.6085  0.6223
  712MOL0     H96111   9.871   6.218   7.739 -1.1091  0.9413  1.4003
  712MOL0     H96112   9.821   6.430   7.784 -0.2524 -0.3200 -2.8935
  712MOL0     H96113   9.959   6.458   7.681 -0.0099  0.9421  1.3886
  712MOL0     H96114  10.119   6.487   7.842  0.0148 -1.0182  1.1404
  712MOL0     H96115   9.998   6.600   7.882  0.1279  0.5200 -1.4808
  712MOL0     H96116  10.004   6.355   8.231  2.6854 -0.2473 -1.0484
  712MOL0     H96117  10.234   6.227   7.919 -0.2754  0.4276 -0.5799
  712MOL0     H96118  10.335   6.110   8.240 -0.7708 -3.4636 -2.1520
  712MOL0     H96119  10.446   6.174   8.118  0.1122 -2.0567 -1.7676
  712MOL0     H96120  10.273   6.242   8.136 -0.8449 -0.3395 -1.2261
  713MOL0     O96121   4.990   1.629   3.711 -0.3449 -0.2441  0.1839
  713MOL0     C96122   4.997   1.506   3.686 -0.4931  0.5376  0.5344
  713MOL0     O96123   5.082   1.419   3.751  0.3665  0.0561 -0.7893
  713MOL0     C96124   5.216   1.446   3.777 -0.0858  0.5263 -0.2643
  713MOL0     C96125   5.281   1.355   3.856 -0.8181  0.2092  0.5308
  713MOL0     C96126   5.419   1.371   3.870 -0.2769  0.7721 -0.4338
  713MOL0     C96127   5.485   1.479   3.805  0.1769  0.4946  0.2788
  713MOL0     O96128   5.622   1.489   3.814  0.3373 -0.0060 -0.0330
  713MOL0     C96129   5.698   1.516   3.691  0.4494  0.0177 -0.5001
  713MOL0     C96130   5.782   1.404   3.636  0.1809 -0.3277 -0.0609
  713MOL0     C96131   5.720   1.265   3.622  0.8945 -0.2506 -0.4249
  713MOL0     C96132   5.821   1.166   3.569 -0.3434  0.7584  1.0534
  713MOL0     C96133   5.745   1.035   3.520 -0.9296 -0.9295 -0.0033
  713MOL0     C96134   5.860   0.931   3.492 -0.2623 -0.5124  0.0955
  713MOL0     C96135   5.803   0.796   3.454  0.4311  0.1358  0.3146
  713MOL0     C96136   5.710   0.739   3.553 -1.0190 -0.4876  0.8718
  713MOL0     N96137   5.724   0.589   3.561 -0.5125 -0.4131 -0.3067
  713MOL0     C96138   5.800   0.514   3.645 -0.0576 -0.3045 -0.0353
  713MOL0     C96139   5.789   0.385   3.600 -0.4928  0.7902  0.1540
  713MOL0     C96140   5.819   0.249   3.676  0.2604 -0.3055  0.2621
  713MOL0     C96141   5.946   0.206   3.590  0.0274 -0.1165  0.5499
  713MOL0     C96142   5.996   0.070   3.627 -0.0036 -0.2955 -0.0838
  713MOL0     C96143   6.139   0.043   3.567 -0.6068  0.0200  0.4954
  713MOL0     O96144   6.146  -0.081   3.490 -0.2256  0.8226  0.8257
  713MOL0     C96145   6.129  -0.211   3.549  0.2843 -1.1980 -0.6032
  713MOL0     C96146   6.095  -0.320   3.465  0.0182  0.0354 -0.5802
  713MOL0     C96147   6.073  -0.446   3.514  0.8697 -0.6019  0.1757
  713MOL0     C96148   6.078  -0.474   3.649 -0.8026 -0.3720  0.4286
  713MOL0     C96149   6.055  -0.615   3.703  0.2016  0.9694  0.1966
  713MOL0     O96150   5.992  -0.709   3.622  0.5468 -0.1119 -0.3951
  713MOL0     C96151   5.972  -0.830   3.679  0.1484 -0.1138 -0.7108
  713MOL0     C96152   5.860  -0.876   3.750  1.1661  0.4932  0.4733
  713MOL0     C96153   5.850  -1.007   3.797  0.6777 -0.2344  0.6726
  713MOL0     C96154   5.959  -1.089   3.774  0.1422  0.3403  0.5119
  713MOL0     O96155   5.970  -1.222   3.805 -0.0240  0.3184 -0.4350
  713MOL0     C96156   5.876  -1.273   3.902 -1.0602  0.2971 -1.0114
  713MOL0     C96157   5.932  -1.401   3.961 -0.6330  0.0972 -0.5812
  713MOL0     C96158   5.834  -1.464   4.054  0.4446 -0.4649  0.1430
  713MOL0     C96159   5.880  -1.596   4.112  0.4623  0.3725  0.3163
  713MOL0     C96160   5.832  -1.626   4.254 -0.3508  1.1915 -0.7622
  713MOL0     C96161   5.876  -1.769   4.296 -0.3379  0.0229  0.1012
  713MOL0     C96162   5.865  -1.771   4.448  0.4875  0.5573 -0.6413
  713MOL0     C96163   5.922  -1.909   4.504  0.0041  0.0828 -0.2238
  713MOL0    Cl96164   5.949  -1.915   4.679 -0.0317  0.5385  0.3196
  713MOL0     C96165   6.072  -1.046   3.717  0.3071 -0.0426  0.8931
  713MOL0     C96166   6.073  -0.919   3.662 -0.6768  0.2140  0.4887
  713MOL0     O96167   6.100  -0.638   3.809 -0.4864 -0.6956 -0.8122
  713MOL0     C96168   6.117  -0.369   3.734  0.3207 -0.9281 -0.2644
  713MOL0     C96169   6.153  -0.241   3.684  1.1217 -0.0209 -0.1922
  713MOL0     N96170   5.711   0.385   3.486 -0.1543  0.5105 -0.3216
  713MOL0     N96171   5.668   0.503   3.466  0.3435  0.9090 -0.9351
  713MOL0     C96172   5.408   1.582   3.749  0.0249 -0.2902 -0.1326
  713MOL0     C96173   5.276   1.563   3.728 -0.0646  0.0638 -0.0764
  713MOL0     C96174   4.898   1.457   3.585  0.7588 -0.2402 -0.4401
  713MOL0     C96175   4.852   1.543   3.488 -0.6632 -0.0996  0.2424
  713MOL0     C96176   4.743   1.512   3.407  0.2254 -0.0410 -0.8297
  713MOL0     C96177   4.680   1.390   3.420 -0.1349  0.5639  0.3497
  713MOL0     O96178   4.571   1.342   3.354  0.7611 -0.0050  0.0228
  713MOL0     C96179   4.539   1.398   3.231 -0.6329 -0.5607 -0.8560
  713MOL0     C96180   4.500   1.288   3.132  1.1018  0.1703 -0.8287
  713MOL0     C96181   4.353   1.245   3.161  0.1940  0.6022  0.2615
  713MOL0     C96182   4.322   1.116   3.087 -0.4666  0.6947  0.0383
  713MOL0     C96183   4.182   1.089   3.101 -0.5326  0.7054 -0.1110
  713MOL0     C96184   4.059   1.074   3.127 -0.4834 -0.8719  0.5800
  713MOL0     C96185   4.731   1.296   3.514 -0.1533 -0.3659  0.6173
  713MOL0     C96186   4.835   1.334   3.592 -0.0354 -0.8797 -0.0645
  713MOL0     C96187   4.872   1.235   3.692 -0.5079  0.1419  1.3228
  713MOL0     H96188   5.230   1.265   3.886  2.4478 -1.2767  2.1465
  713MOL0     H96189   5.463   1.299   3.938 -0.0075 -0.6356 -2.0154
  713MOL0     H96190   5.622   1.540   3.616  0.6947 -0.6147 -0.9688
  713MOL0     H96191   5.762   1.600   3.718  2.4444 -1.9654  1.3386
  713MOL0     H96192   5.874   1.397   3.696  0.1710 -0.6431 -0.0824
  713MOL0     H96193   5.822   1.430   3.537  0.8114 -2.5974 -0.4709
  713MOL0     H96194   5.632   1.274   3.558 -2.1607  0.8813  3.5139
  713MOL0     H96195   5.679   1.235   3.719  0.8195 -0.3997 -0.5021
  713MOL0     H96196   5.860   1.216   3.480 -1.4695  2.6217  1.5555
  713MOL0     H96197   5.908   1.145   3.632 -1.1086 -2.0068  1.3229
  713MOL0     H96198   5.675   0.998   3.596 -0.2591 -3.5086 -0.5674
  713MOL0     H96199   5.680   1.056   3.435  0.9324 -0.7069 -1.4240
  713MOL0     H96200   5.924   0.972   3.414  2.1128 -1.8279  1.2507
  713MOL0     H96201   5.912   0.913   3.587 -0.4469  1.7772  0.7010
  713MOL0     H96202   5.887   0.730   3.430  0.0373 -0.2017 -0.1480
  713MOL0     H96203   5.759   0.806   3.354 -0.7093 -0.2327  0.7710
  713MOL0     H96204   5.743   0.777   3.650  0.6751  0.9783 -0.2231
  713MOL0     H96205   5.611   0.765   3.515 -0.8627 -0.5057  0.4440
  713MOL0     H96206   5.858   0.539   3.733 -2.0192  0.8309  0.9944
  713MOL0     H96207   5.845   0.255   3.782  0.1561 -0.5463  0.3013
  713MOL0     H96208   5.739   0.175   3.675 -0.4766  0.4424  1.5644
  713MOL0     H96209   5.928   0.201   3.482  0.0875  0.4173  0.5126
  713MOL0     H96210   6.025   0.281   3.596  0.4707 -0.5344 -0.0442
  713MOL0     H96211   5.922   0.002   3.583  0.7643 -0.7074 -0.7701
  713MOL0     H96212   6.001   0.050   3.734 -0.6796  0.2820  0.0598
  713MOL0     H96213   6.217   0.030   3.643  1.0926  2.0434 -0.8065
  713MOL0     H96214   6.178   0.122   3.503  0.4614 -0.5391  0.4248
  713MOL0     H96215   6.085  -0.295   3.360 -1.5254 -1.2666 -0.7767
  713MOL0     H96216   6.044  -0.529   3.450 -0.2565 -0.6457  0.7200
  713MOL0     H96217   5.774  -0.814   3.773 -0.8728 -2.1016  0.3771
  713MOL0     H96218   5.765  -1.041   3.857  0.4700  1.4832  1.4209
  713MOL0     H96219   5.871  -1.205   3.988  1.4483  1.8643 -1.9971
  713MOL0     H96220   5.787  -1.285   3.839 -2.1248  0.5053  0.3976
  713MOL0     H96221   5.964  -1.471   3.883  1.4398  0.3062  0.0058
  713MOL0     H96222   6.021  -1.384   4.022  0.1271 -0.5673 -1.4682
  713MOL0     H96223   5.818  -1.388   4.131 -1.1981  1.1167 -1.6587
  713MOL0     H96224   5.739  -1.469   4.000  1.3706 -0.5574 -1.5297
  713MOL0     H96225   5.989  -1.602   4.115  0.4125 -0.2596  1.5943
  713MOL0     H96226   5.849  -1.673   4.041  0.8124  2.1396 -1.8596
  713MOL0     H96227   5.725  -1.612   4.273 -1.3818 -0.7211 -4.3321
  713MOL0     H96228   5.885  -1.554   4.316 -1.0948  0.2265  1.0637
  713MOL0     H96229   5.814  -1.849   4.255 -0.5984  0.3155 -0.0835
  713MOL0     H96230   5.980  -1.790   4.271 -0.3826 -1.2161  0.8996
  713MOL0     H96231   5.760  -1.751   4.468  0.6627  1.1019 -0.2642
  713MOL0     H96232   5.932  -1.700   4.496  2.0943 -2.2106  1.4965
  713MOL0     H96233   5.859  -1.993   4.475  0.2140 -0.0689 -0.2423
  713MOL0     H96234   6.016  -1.924   4.450 -0.4709 -1.5663 -0.6420
  713MOL0     H96235   6.153  -1.117   3.704 -0.8920 -1.4135  0.7414
  713MOL0     H96236   6.161  -0.877   3.614 -0.8381  0.6756  0.5943
  713MOL0     H96237   6.130  -0.391   3.839  0.8992  0.2225 -0.0782
  713MOL0     H96238   6.196  -0.177   3.760  0.4747  0.7986 -0.5087
  713MOL0     H96239   5.450   1.673   3.708 -1.9895 -0.3780 -2.6216
  713MOL0     H96240   5.229   1.635   3.662 -1.2564 -1.8381 -1.4281
  713MOL0     H96241   4.899   1.640   3.477  0.2853 -0.6606 -0.7461
  713MOL0     H96242   4.707   1.592   3.343  3.3129  3.3123  1.2226
  713MOL0     H96243   4.634   1.438   3.194  0.3671 -2.0747 -0.0294
  713MOL0     H96244   4.466   1.477   3.247 -1.0345 -0.6954 -1.9135
  713MOL0     H96245   4.567   1.202   3.146  0.9075 -0.3247 -2.6452
  713MOL0     H96246   4.505   1.326   3.029 -1.7645 -0.9869 -1.4896
  713MOL0     H96247   4.292   1.325   3.118  1.0351  1.0828 -0.0731
  713MOL0     H96248   4.321   1.246   3.266 -1.1946  0.7301 -0.1449
  713MOL0     H96249   4.340   1.140   2.982  1.0862 -0.1942  0.0833
  713MOL0     H96250   4.379   1.028   3.116  1.4544  2.0209  0.5402
  713MOL0     H96251   3.955   1.075   3.153 -0.9254 -0.4993 -1.0973
  713MOL0     H96252   4.685   1.198   3.521 -2.0153  0.4450  0.4304
  713MOL0     H96253   4.868   1.279   3.792 -2.7028  0.5615  1.1032
  713MOL0     H96254   4.800   1.153   3.706 -3.4012  2.2203 -0.4055
  713MOL0     H96255   4.968   1.188   3.670  0.4758  2.0019  1.4606
  714MOL0     O96256   5.485   4.507   4.324  0.2494 -0.0451  0.3020
  714MOL0     C96257   5.502   4.464   4.209  0.0144 -0.4507 -0.2448
  714MOL0     O96258   5.553   4.542   4.119 -0.2710 -0.0804  1.2089
  714MOL0     C96259   5.575   4.677   4.134  0.6837 -0.6529 -0.0307
  714MOL0     C96260   5.603   4.748   4.254 -0.5701  0.8389  0.3569
  714MOL0     C96261   5.643   4.884   4.255 -0.5367  0.1552 -0.2823
  714MOL0     C96262   5.656   4.951   4.134  0.1388  0.2763 -0.3150
  714MOL0     O96263   5.703   5.080   4.135  0.2990  0.1769  0.3062
  714MOL0     C96264   5.816   5.118   4.215 -0.1544 -0.6182  0.0112
  714MOL0     C96265   5.924   5.013   4.207 -0.0127  0.3555  0.6092
  714MOL0     C96266   6.066   5.062   4.216  0.3133 -0.2362  0.1334
  714MOL0     C96267   6.097   5.154   4.341  0.3909 -0.0902 -0.7203
  714MOL0     C96268   6.245   5.213   4.329  1.0508 -0.1975 -0.2960
  714MOL0     C96269   6.354   5.103   4.296  0.4214  0.1394  0.0273
  714MOL0     C96270   6.492   5.176   4.300  0.6486 -0.0763 -0.0165
  714MOL0     C96271   6.557   5.192   4.445 -0.6014 -0.5151  0.0520
  714MOL0     N96272   6.661   5.293   4.428 -0.1057  0.1679 -0.7134
  714MOL0     C96273   6.641   5.414   4.365  0.0735  0.3433 -0.5338
  714MOL0     C96274   6.768   5.464   4.353  0.1331  0.4896 -0.7815
  714MOL0     C96275   6.792   5.587   4.284  0.0608  0.2836  0.1804
  714MOL0     C96276   6.737   5.709   4.357  0.1360  0.3688 -0.3705
  714MOL0     C96277   6.627   5.776   4.273  0.2038  0.0182 -0.3721
  714MOL0     C96278   6.684   5.862   4.162  0.0005  0.1280 -0.7260
  714MOL0     O96279   6.773   5.795   4.071  0.7179  0.1790 -0.3824
  714MOL0     C96280   6.851   5.878   3.994 -0.2865  0.6122 -0.9820
  714MOL0     C96281   6.799   6.001   3.946 -0.7422 -0.5172 -0.0328
  714MOL0     C96282   6.886   6.082   3.872 -0.7835  0.1439  0.1779
  714MOL0     C96283   7.016   6.046   3.833  0.4220 -0.2928 -0.7540
  714MOL0     C96284   7.082   6.141   3.743 -0.7462  0.0884  0.0283
  714MOL0     O96285   7.019   6.258   3.705 -0.3961 -0.0537 -0.4110
  714MOL0     C96286   7.086   6.376   3.661 -0.8155  0.3574  0.3967
  714MOL0     C96287   7.006   6.494   3.638  0.3030 -0.8625  0.7676
  714MOL0     C96288   7.063   6.609   3.583  0.2942 -0.0044 -0.8056
  714MOL0     C96289   7.194   6.620   3.550 -0.4511 -0.1372  0.0343
  714MOL0     O96290   7.252   6.739   3.500 -0.5962  0.1726  0.6612
  714MOL0     C96291   7.397   6.760   3.507 -0.0655 -0.5982  0.8248
  714MOL0     C96292   7.437   6.866   3.414 -0.1650 -0.2617  0.5244
  714MOL0     C96293   7.593   6.887   3.400 -0.1267 -0.9391  0.3983
  714MOL0     C96294   7.612   7.026   3.330 -0.1546  0.1161 -0.3553
  714MOL0     C96295   7.757   7.060   3.300  0.4157  0.1715  0.6332
  714MOL0     C96296   7.837   7.047   3.434 -0.8174 -0.2553  0.1117
  714MOL0     C96297   7.969   7.115   3.414 -0.1602 -0.4397 -0.0413
  714MOL0     C96298   8.064   7.044   3.311 -1.4910  0.3345 -0.9885
  714MOL0    Cl96299   8.223   7.116   3.299  0.1032 -0.0785 -0.2577
  714MOL0     C96300   7.275   6.500   3.581  0.4278 -0.3426  0.0962
  714MOL0     C96301   7.223   6.386   3.628 -0.3917 -0.7723 -0.0912
  714MOL0     O96302   7.199   6.106   3.715 -0.6191 -0.7584 -0.5867
  714MOL0     C96303   7.067   5.927   3.874 -0.2815 -0.4962  0.0751
  714MOL0     C96304   6.986   5.841   3.952 -0.6364 -0.2984 -0.2078
  714MOL0     N96305   6.855   5.368   4.407  0.0524 -0.1233 -0.9377
  714MOL0     N96306   6.790   5.275   4.457 -0.2320 -0.1285 -0.1081
  714MOL0     C96307   5.616   4.885   4.014 -0.2952  0.1547  1.0814
  714MOL0     C96308   5.580   4.753   4.021 -0.5132 -0.6033 -0.5650
  714MOL0     C96309   5.481   4.322   4.191 -0.3619 -0.0446  0.2200
  714MOL0     C96310   5.397   4.253   4.280  0.4635 -0.1459 -0.4607
  714MOL0     C96311   5.369   4.121   4.275 -0.5399  0.6195 -0.6311
  714MOL0     C96312   5.419   4.043   4.180  0.9929  1.1021  0.1600
  714MOL0     O96313   5.374   3.909   4.161  0.4507  0.1136 -0.2690
  714MOL0     C96314   5.460   3.819   4.088 -0.0519 -0.8447  0.8812
  714MOL0     C96315   5.480   3.685   4.166  0.3092  0.9545  0.1119
  714MOL0     C96316   5.344   3.611   4.189  0.7447 -0.6476 -0.1039
  714MOL0     C96317   5.355   3.471   4.259 -1.1916 -0.5406  1.4340
  714MOL0     C96318   5.220   3.417   4.280 -0.3833  0.3223 -0.5690
  714MOL0     C96319   5.116   3.356   4.283  0.3734 -0.6186  0.4546
  714MOL0     C96320   5.491   4.107   4.085 -0.2019 -0.4346  0.5057
  714MOL0     C96321   5.530   4.245   4.083 -0.1997 -0.0710  0.1074
  714MOL0     C96322   5.625   4.297   3.980  0.1824 -0.2466 -0.6749
  714MOL0     H96323   5.604   4.688   4.345 -2.5863  1.3044  0.7292
  714MOL0     H96324   5.685   4.922   4.347  0.1042 -4.2984  1.5610
  714MOL0     H96325   5.847   5.220   4.191 -1.0758 -0.3221  0.0459
  714MOL0     H96326   5.778   5.123   4.317 -2.4363  3.0494 -0.8252
  714MOL0     H96327   5.909   4.969   4.108 -0.6072  2.6562 -0.3954
  714MOL0     H96328   5.898   4.931   4.275 -2.0258 -0.7359 -1.3442
  714MOL0     H96329   6.083   5.120   4.124  1.3188 -3.7616 -2.1056
  714MOL0     H96330   6.137   4.979   4.211  2.1367  1.0591  2.3212
  714MOL0     H96331   6.035   5.242   4.359  0.6853 -0.0887  0.3709
  714MOL0     H96332   6.094   5.098   4.435 -3.9641  0.8654 -0.0619
  714MOL0     H96333   6.251   5.292   4.254  2.4208 -0.3971 -0.4258
  714MOL0     H96334   6.268   5.251   4.429 -0.2406 -0.2915  0.0590
  714MOL0     H96335   6.339   5.015   4.360  0.7615 -1.5490 -2.1016
  714MOL0     H96336   6.343   5.067   4.194  2.6646 -1.0744  0.1629
  714MOL0     H96337   6.489   5.274   4.251 -1.6842  0.9052  1.8645
  714MOL0     H96338   6.551   5.111   4.234  1.2841  0.3894  0.0802
  714MOL0     H96339   6.483   5.218   4.521  1.6537  0.3697  2.0476
  714MOL0     H96340   6.607   5.102   4.481 -0.5243 -0.0106  1.2487
  714MOL0     H96341   6.554   5.467   4.327 -0.5519 -0.7375 -0.6364
  714MOL0     H96342   6.900   5.603   4.277  0.2488 -0.8002  0.4605
  714MOL0     H96343   6.761   5.565   4.182 -1.3027 -2.1629  1.0406
  714MOL0     H96344   6.700   5.668   4.451  1.7016 -0.6812 -0.1779
  714MOL0     H96345   6.814   5.786   4.373  0.0225  0.2131  0.9790
  714MOL0     H96346   6.571   5.848   4.334  2.0060  2.5612 -1.5014
  714MOL0     H96347   6.569   5.697   4.226  1.8449  0.1778 -2.8632
  714MOL0     H96348   6.733   5.951   4.203  0.7221 -1.6346  2.6354
  714MOL0     H96349   6.602   5.905   4.105  0.9433 -0.5168 -2.6439
  714MOL0     H96350   6.699   6.036   3.970  0.4516  1.7797  2.0617
  714MOL0     H96351   6.845   6.168   3.820 -2.6025 -1.9567 -2.0926
  714MOL0     H96352   6.902   6.483   3.667 -0.0974  3.4549  1.6480
  714MOL0     H96353   7.007   6.702   3.582  0.3530  0.0348 -0.5445
  714MOL0     H96354   7.420   6.802   3.606 -2.9839  0.4001  1.1613
  714MOL0     H96355   7.464   6.675   3.490 -1.9249 -2.0592  0.5555
  714MOL0     H96356   7.426   6.841   3.308  2.4374  1.2155 -0.1938
  714MOL0     H96357   7.389   6.956   3.452 -0.0951 -0.0224  0.0445
  714MOL0     H96358   7.624   6.900   3.504  0.6364 -0.8747  0.1672
  714MOL0     H96359   7.632   6.799   3.348 -1.1417 -2.7065  2.4373
  714MOL0     H96360   7.575   7.103   3.399  3.7260  3.0222 -1.1435
  714MOL0     H96361   7.566   7.036   3.232 -0.7379  2.3604  0.0838
  714MOL0     H96362   7.749   7.162   3.262  1.6957 -0.1266 -0.5183
  714MOL0     H96363   7.813   7.017   3.217  0.4329  1.5881 -0.1059
  714MOL0     H96364   7.780   7.095   3.514  2.4208  3.2585  0.5765
  714MOL0     H96365   7.845   6.940   3.457 -1.4051  0.0404  1.8931
  714MOL0     H96366   8.017   7.128   3.512 -2.3735  1.6368  0.8656
  714MOL0     H96367   7.950   7.215   3.374 -1.7584 -0.5832  0.2975
  714MOL0     H96368   8.081   6.938   3.329 -0.5843  0.7878  1.1768
  714MOL0     H96369   8.021   7.045   3.211 -0.2175  0.0887 -1.5573
  714MOL0     H96370   7.383   6.504   3.567  0.2417  3.3239 -1.7156
  714MOL0     H96371   7.285   6.297   3.638 -1.9801 -1.7765  1.4909
  714MOL0     H96372   7.173   5.910   3.854  0.6255  0.3118  3.6027
  714MOL0     H96373   7.036   5.755   3.994  1.3113  0.2787 -1.2238
  714MOL0     H96374   5.621   4.929   3.915 -0.3829 -2.7192 -0.2921
  714MOL0     H96375   5.547   4.714   3.925  0.3299  1.3703 -1.7173
  714MOL0     H96376   5.353   4.308   4.363 -1.0172 -2.4690  0.4161
  714MOL0     H96377   5.293   4.076   4.337  1.0054  1.1638  1.8104
  714MOL0     H96378   5.558   3.868   4.086 -0.8692  0.8512 -0.2381
  714MOL0     H96379   5.430   3.800   3.985  0.9986  0.7590  0.2238
  714MOL0     H96380   5.527   3.718   4.259  0.0173  0.3588  0.4777
  714MOL0     H96381   5.555   3.620   4.119 -1.5369 -0.4701 -1.0287
  714MOL0     H96382   5.296   3.603   4.091 -0.0949 -0.5633  0.2924
  714MOL0     H96383   5.288   3.680   4.253 -0.9982 -1.7795 -0.3386
  714MOL0     H96384   5.415   3.397   4.206  0.2083  1.2237  0.4621
  714MOL0     H96385   5.398   3.493   4.357 -1.9561  0.9636  1.4613
  714MOL0     H96386   5.023   3.302   4.278  0.5131 -1.1255  2.4615
  714MOL0     H96387   5.526   4.049   4.000  4.1085 -1.0752  2.4052
  714MOL0     H96388   5.685   4.367   4.040 -0.7846  1.5862 -1.7670
  714MOL0     H96389   5.695   4.228   3.933 -0.2903 -0.6962 -0.7252
  714MOL0     H96390   5.577   4.351   3.898  3.0599 -0.0715 -2.3506
  715MOL0     O96391   8.610   7.460   0.452 -0.9029 -0.3621  0.4769
  715MOL0     C96392   8.581   7.443   0.573  1.2416 -0.4094  1.1174
  715MOL0     O96393   8.667   7.429   0.677  0.0139 -0.5246 -0.3889
  715MOL0     C96394   8.800   7.467   0.663  0.5668 -0.5738 -0.1246
  715MOL0     C96395   8.829   7.592   0.608 -0.3658 -0.4228  0.7172
  715MOL0     C96396   8.958   7.642   0.590 -0.5356  0.6073 -1.0688
  715MOL0     C96397   9.064   7.560   0.624 -0.7656  0.6843 -0.6112
  715MOL0     O96398   9.188   7.605   0.589 -0.8651 -0.0064 -0.1780
  715MOL0     C96399   9.251   7.513   0.504  0.3202  0.2193 -0.6226
  715MOL0     C96400   9.362   7.588   0.425  1.0271 -0.1349 -0.1848
  715MOL0     C96401   9.466   7.655   0.531 -1.3787 -0.6991  0.2979
  715MOL0     C96402   9.522   7.559   0.631  0.0328 -0.2735 -0.0715
  715MOL0     C96403   9.633   7.617   0.723  0.2151 -0.2008  0.9644
  715MOL0     C96404   9.586   7.731   0.817  0.1217  0.5849  0.3408
  715MOL0     C96405   9.487   7.680   0.926 -1.0222 -0.5113 -0.6467
  715MOL0     C96406   9.550   7.594   1.036  0.0326  0.6439 -0.7045
  715MOL0     N96407   9.618   7.684   1.137 -0.3518 -0.1596  0.3809
  715MOL0     C96408   9.741   7.751   1.132 -0.9822  0.3105  0.1724
  715MOL0     C96409   9.747   7.835   1.237 -0.2377  0.4616  0.2669
  715MOL0     C96410   9.876   7.899   1.288  0.2803 -0.3004  0.5074
  715MOL0     C96411   9.838   8.036   1.352  0.2320  0.1160  0.2145
  715MOL0     C96412   9.947   8.088   1.445 -0.0653 -0.1009 -0.6490
  715MOL0     C96413   9.929   8.231   1.508  0.3836 -0.0640  0.7152
  715MOL0     O96414  10.048   8.277   1.564  0.1095  0.6788  0.6501
  715MOL0     C96415  10.110   8.388   1.531 -0.6746 -0.5366  0.2868
  715MOL0     C96416  10.238   8.406   1.577 -0.2688 -0.5500 -0.9178
  715MOL0     C96417  10.320   8.516   1.546  0.0492 -0.1700  0.3159
  715MOL0     C96418  10.267   8.624   1.467 -0.2032  0.0844 -0.1126
  715MOL0     C96419  10.343   8.746   1.441 -0.8951  0.3983  0.5063
  715MOL0     O96420  10.482   8.745   1.469 -0.1549  0.1137  0.3462
  715MOL0     C96421  10.554   8.863   1.433  0.1431  0.4185 -0.2696
  715MOL0     C96422  10.522   8.991   1.478  0.2116 -0.1334 -0.4165
  715MOL0     C96423  10.599   9.101   1.433 -0.1810 -0.9732  1.1925
  715MOL0     C96424  10.711   9.088   1.346 -0.2527 -0.3342 -0.6066
  715MOL0     O96425  10.795   9.177   1.294  0.1533  0.7341 -0.1752
  715MOL0     C96426  10.818   9.294   1.371 -0.1649  0.2109  0.0409
  715MOL0     C96427  10.953   9.359   1.331 -0.0347 -0.2044 -0.2047
  715MOL0     C96428  10.983   9.482   1.424 -0.2300 -1.1431 -0.0681
  715MOL0     C96429  11.125   9.541   1.407 -0.6316 -0.7721  0.2545
  715MOL0     C96430  11.122   9.647   1.299  0.1949 -0.5432 -0.2891
  715MOL0     C96431  11.231   9.743   1.325  0.1366 -0.7230 -0.6937
  715MOL0     C96432  11.369   9.674   1.322  0.7480  0.1646  0.5245
  715MOL0     C96433  11.472   9.761   1.374 -0.0443 -0.2357  0.2396
  715MOL0    Cl96434  11.470   9.783   1.549  0.3110 -0.0469  0.4191
  715MOL0     C96435  10.743   8.957   1.306  0.3048  0.8399 -1.3691
  715MOL0     C96436  10.667   8.847   1.356  0.3880  0.3329  0.4611
  715MOL0     O96437  10.280   8.840   1.386 -0.2458 -0.3382  0.0269
  715MOL0     C96438  10.138   8.609   1.421  0.6520  0.2711  0.2736
  715MOL0     C96439  10.065   8.489   1.449 -0.0014 -0.5641 -0.4990
  715MOL0     N96440   9.614   7.842   1.286  0.0780  0.0704 -0.5542
  715MOL0     N96441   9.542   7.749   1.227 -0.3485 -0.5297  0.6628
  715MOL0     C96442   9.039   7.433   0.669 -0.0430 -0.1780 -0.0948
  715MOL0     C96443   8.909   7.384   0.697  0.1662  0.3529 -0.2520
  715MOL0     C96444   8.439   7.428   0.601  0.3117  0.0028 -0.1612
  715MOL0     C96445   8.357   7.372   0.495 -0.3638  0.3763 -0.3203
  715MOL0     C96446   8.224   7.351   0.508  0.3039  0.3236 -0.1546
  715MOL0     C96447   8.161   7.393   0.627 -0.7217  0.3180  0.4311
  715MOL0     O96448   8.030   7.370   0.631  0.0949 -0.2614 -0.1134
  715MOL0     C96449   7.953   7.440   0.729 -0.3912 -0.1474  0.5998
  715MOL0     C96450   7.808   7.408   0.752 -0.5001 -0.0794  0.2008
  715MOL0     C96451   7.721   7.421   0.625  0.7216  0.1183  0.4047
  715MOL0     C96452   7.589   7.365   0.667 -0.0637  0.0948 -0.6696
  715MOL0     C96453   7.487   7.368   0.562 -0.0373  0.2184  0.9014
  715MOL0     C96454   7.407   7.379   0.472 -0.2438  0.1974  0.4541
  715MOL0     C96455   8.238   7.454   0.734  0.3389 -0.9124  0.2792
  715MOL0     C96456   8.376   7.471   0.725 -0.3105  0.0987 -0.1709
  715MOL0     C96457   8.463   7.504   0.848  0.3021 -0.2685  1.4168
  715MOL0     H96458   8.760   7.671   0.579  1.5481  1.1378  0.2028
  715MOL0     H96459   8.984   7.742   0.558  0.7310  0.0852 -1.7416
  715MOL0     H96460   9.296   7.441   0.573 -1.5720  0.2556  0.7203
  715MOL0     H96461   9.183   7.469   0.431  2.4483 -0.4275 -2.3407
  715MOL0     H96462   9.324   7.653   0.346 -1.2273 -2.8406 -1.4767
  715MOL0     H96463   9.423   7.516   0.369  0.6519  1.4947 -2.8802
  715MOL0     H96464   9.423   7.747   0.573  1.0900 -0.4736  2.6015
  715MOL0     H96465   9.552   7.689   0.473 -1.8779  1.9733  1.0082
  715MOL0     H96466   9.442   7.526   0.697  1.5990 -1.4606  1.3167
  715MOL0     H96467   9.578   7.472   0.594  0.2469 -0.8397  1.5221
  715MOL0     H96468   9.673   7.525   0.767 -1.6440 -1.7979 -0.4745
  715MOL0     H96469   9.710   7.663   0.660 -1.0579  1.8299  0.7980
  715MOL0     H96470   9.676   7.772   0.865  0.8259  0.2916 -0.6841
  715MOL0     H96471   9.531   7.816   0.775 -1.1124 -1.0774 -1.5931
  715MOL0     H96472   9.394   7.636   0.888 -2.5781  0.0040  2.2711
  715MOL0     H96473   9.448   7.766   0.980 -1.9221  0.7489 -3.1287
  715MOL0     H96474   9.473   7.538   1.089  0.5222 -0.0944 -0.7591
  715MOL0     H96475   9.615   7.519   0.990  0.4364  0.9287 -0.6092
  715MOL0     H96476   9.820   7.727   1.062 -1.2160  0.3345 -0.1047
  715MOL0     H96477   9.905   7.824   1.362 -0.5256 -2.3429 -1.1425
  715MOL0     H96478   9.966   7.910   1.226 -1.0930 -0.1540 -1.5769
  715MOL0     H96479   9.816   8.103   1.268  2.2542 -1.6515 -1.8922
  715MOL0     H96480   9.745   8.023   1.408  0.5509 -0.2475  0.6647
  715MOL0     H96481  10.047   8.074   1.403  0.2247  2.2910 -0.8841
  715MOL0     H96482   9.938   8.017   1.528 -2.1082 -0.3278 -1.0252
  715MOL0     H96483   9.846   8.226   1.579  0.6112 -1.9036  0.9023
  715MOL0     H96484   9.902   8.302   1.430  1.2811 -0.8143 -0.3119
  715MOL0     H96485  10.272   8.314   1.622 -1.7495 -0.1899  1.0748
  715MOL0     H96486  10.418   8.530   1.592  0.7749  2.6671 -1.8078
  715MOL0     H96487  10.435   9.001   1.542 -0.7593 -2.0065 -1.3667
  715MOL0     H96488  10.572   9.200   1.468  2.6829  1.4219 -2.5731
  715MOL0     H96489  10.734   9.362   1.356 -1.8339 -1.3854  1.5799
  715MOL0     H96490  10.835   9.273   1.477 -1.5627  3.8671  1.1213
  715MOL0     H96491  11.035   9.287   1.340  0.8998  0.1571 -4.0303
  715MOL0     H96492  10.952   9.374   1.223 -0.6013  0.2973 -0.1332
  715MOL0     H96493  10.904   9.545   1.384  1.0155 -2.6971 -5.9670
  715MOL0     H96494  10.962   9.433   1.520  0.7982  0.2558  0.9115
  715MOL0     H96495  11.190   9.454   1.394 -1.2447 -1.5404  2.0268
  715MOL0     H96496  11.130   9.601   1.498 -0.5488 -2.4917  1.4213
  715MOL0     H96497  11.027   9.701   1.293  0.6436  0.4288  1.0904
  715MOL0     H96498  11.134   9.597   1.202 -2.1572 -1.2334 -0.2862
  715MOL0     H96499  11.234   9.825   1.253  2.2615  1.1960  1.4152
  715MOL0     H96500  11.211   9.793   1.420 -1.8697 -0.6026 -1.1490
  715MOL0     H96501  11.389   9.651   1.217  0.9953 -0.3585  0.6827
  715MOL0     H96502  11.375   9.582   1.380 -1.9056  1.0073  2.3175
  715MOL0     H96503  11.568   9.727   1.336 -1.3692 -0.2882 -3.4697
  715MOL0     H96504  11.461   9.859   1.327 -0.8195 -1.2394 -1.7811
  715MOL0     H96505  10.822   8.943   1.233  0.1662  3.1915 -2.0451
  715MOL0     H96506  10.694   8.745   1.329 -0.1692  0.6616 -1.5164
  715MOL0     H96507  10.097   8.694   1.366  1.1423  1.6095  1.9036
  715MOL0     H96508   9.960   8.494   1.422 -0.6003  1.1966  1.7711
  715MOL0     H96509   9.127   7.371   0.688  0.2512  0.3962  0.4640
  715MOL0     H96510   8.895   7.282   0.730  3.1347 -0.3818 -0.9837
  715MOL0     H96511   8.396   7.344   0.397  0.3693  1.4850 -0.3583
  715MOL0     H96512   8.165   7.311   0.425  1.0567 -1.2881  0.0621
  715MOL0     H96513   7.962   7.543   0.694  0.8799 -0.0258  1.2171
  715MOL0     H96514   8.004   7.422   0.824  0.9543  0.3353 -0.0039
  715MOL0     H96515   7.766   7.473   0.829  1.7901  0.1019  1.3767
  715MOL0     H96516   7.809   7.305   0.791  0.8095  0.8841  2.9493
  715MOL0     H96517   7.758   7.377   0.532  0.5653  2.5393 -0.8968
  715MOL0     H96518   7.697   7.524   0.596 -3.4530 -1.1035 -1.3104
  715MOL0     H96519   7.593   7.259   0.694  0.1492 -0.2433 -1.9909
  715MOL0     H96520   7.543   7.426   0.746 -2.3192  0.0160 -1.8378
  715MOL0     H96521   7.325   7.409   0.410 -0.6356 -1.9670 -0.1457
  715MOL0     H96522   8.197   7.478   0.832 -1.8909 -0.3864 -0.7215
  715MOL0     H96523   8.398   7.544   0.926  0.0260  2.2082  0.0203
  715MOL0     H96524   8.520   7.418   0.883  0.4065 -1.8182 -2.1162
  715MOL0     H96525   8.540   7.580   0.829  0.6763 -0.8187  0.6669
  716MOL0     O96526   3.091   3.647  10.886 -0.3101 -0.4882  0.2463
  716MOL0     C96527   3.072   3.662  10.763 -0.3582  0.8175  0.6257
  716MOL0     O96528   3.151   3.733  10.668 -0.2481 -0.5008 -0.2547
  716MOL0     C96529   3.291   3.751  10.697 -0.6431  0.6794  0.8410
  716MOL0     C96530   3.359   3.858  10.630  0.1422 -0.8231 -0.2005
  716MOL0     C96531   3.499   3.877  10.646  0.2837  0.0190  0.0229
  716MOL0     C96532   3.576   3.795  10.724  0.0496  0.1926  0.7849
  716MOL0     O96533   3.715   3.821  10.743 -0.3640 -0.5923  0.4835
  716MOL0     C96534   3.782   3.734  10.835  0.1745 -0.3105  0.8085
  716MOL0     C96535   3.934   3.775  10.845 -0.1149 -0.8177 -0.7293
  716MOL0     C96536   3.969   3.904  10.925  1.1067 -0.5959 -0.5989
  716MOL0     C96537   4.117   3.906  10.958  0.0848  0.1744  0.4681
  716MOL0     C96538   4.144   4.026  11.048 -0.2190  0.0689  1.1283
  716MOL0     C96539   4.295   4.053  11.072 -0.6270  0.2308  0.2491
  716MOL0     C96540   4.317   4.148  11.180  0.3894 -0.0468  0.3158
  716MOL0     C96541   4.454   4.146  11.247 -0.0278 -0.0125  0.6845
  716MOL0     N96542   4.471   4.219  11.373 -0.0258 -0.8841 -0.1487
  716MOL0     C96543   4.479   4.359  11.380  0.0428 -0.4706  0.6621
  716MOL0     C96544   4.495   4.376  11.514  0.2457  0.4606 -0.4319
  716MOL0     C96545   4.531   4.510  11.584  0.4323 -0.4146  0.0999
  716MOL0     C96546   4.673   4.545  11.585  0.3867  0.3026  0.4425
  716MOL0     C96547   4.714   4.648  11.696 -0.3187  0.0422  0.0428
  716MOL0     C96548   4.859   4.680  11.720 -0.7360 -0.7586 -0.1548
  716MOL0     O96549   4.871   4.772  11.837  0.2781 -0.3251  0.4987
  716MOL0     C96550   4.990   4.824  11.875 -0.4888  0.5337  0.0261
  716MOL0     C96551   5.115   4.757  11.856  0.6609 -0.2488  0.2555
  716MOL0     C96552   5.237   4.821  11.876 -0.1075  0.5441 -0.6676
  716MOL0     C96553   5.244   4.949  11.935 -0.1673  0.2403  0.0407
  716MOL0     C96554   5.376   5.008  11.951  0.5005  0.4053 -0.2949
  716MOL0     O96555   5.382   5.139  11.972 -0.2772 -0.2773  0.0276
  716MOL0     C96556   5.503   5.196  12.005 -0.2299  0.6448  0.8349
  716MOL0     C96557   5.560   5.198  12.129 -0.9853  0.1699  0.3983
  716MOL0     C96558   5.685   5.258  12.147 -0.8133 -0.4850  0.1927
  716MOL0     C96559   5.768   5.314  12.039  0.3802  0.5105 -0.8939
  716MOL0     O96560   5.891   5.361  12.061 -0.7178  0.6855 -0.2480
  716MOL0     C96561   5.961   5.437  11.964 -0.6094 -0.7264  0.2051
  716MOL0     C96562   6.104   5.459  12.026 -0.0739  0.8552  0.2705
  716MOL0     C96563   6.175   5.331  12.062 -0.5713  0.1061 -0.1413
  716MOL0     C96564   6.263   5.275  11.939  1.1894 -0.6708 -0.0606
  716MOL0     C96565   6.337   5.154  11.983 -0.4163  0.0363  0.2854
  716MOL0     C96566   6.440   5.107  11.873 -0.6357 -0.0384 -0.2053
  716MOL0     C96567   6.464   4.955  11.894  0.0417  0.1388 -1.0739
  716MOL0     C96568   6.607   4.912  11.902 -0.2684 -0.2896  0.0318
  716MOL0    Cl96569   6.700   4.964  11.757  0.2189 -0.7314 -0.5730
  716MOL0     C96570   5.704   5.320  11.920  0.4171 -0.2453 -0.1098
  716MOL0     C96571   5.584   5.247  11.904  0.4536  0.3005 -0.4562
  716MOL0     O96572   5.471   4.935  11.934 -0.8368 -0.1292  0.6359
  716MOL0     C96573   5.121   5.017  11.955 -0.5765  0.6264 -0.1902
  716MOL0     C96574   4.994   4.954  11.923  0.0882  0.3076 -0.3406
  716MOL0     N96575   4.506   4.256  11.582  0.3084 -0.3828  0.6850
  716MOL0     N96576   4.492   4.172  11.493  0.7796  0.2757  0.2485
  716MOL0     C96577   3.512   3.682  10.779  0.0681 -0.0044 -0.6750
  716MOL0     C96578   3.371   3.661  10.771  0.0494 -0.5836  0.3792
  716MOL0     C96579   2.932   3.613  10.720 -0.3042  0.3641  0.9017
  716MOL0     C96580   2.826   3.665  10.788  0.3125 -0.1243  0.1832
  716MOL0     C96581   2.695   3.632  10.766  0.4958 -0.0952  0.2046
  716MOL0     C96582   2.667   3.539  10.667  0.0479  0.9290 -0.3521
  716MOL0     O96583   2.543   3.486  10.630 -0.4729  0.6563  0.1959
  716MOL0     C96584   2.428   3.550  10.684  0.2663  0.0913 -0.6215
  716MOL0     C96585   2.378   3.673  10.593  0.2057 -0.2147 -0.3512
  716MOL0     C96586   2.249   3.724  10.667  0.9244  0.4285  0.2622
  716MOL0     C96587   2.146   3.612  10.696 -0.2404  1.3146 -0.3472
  716MOL0     C96588   2.113   3.526  10.582  0.5510  0.2021  0.5391
  716MOL0     C96589   2.071   3.451  10.487 -0.4068 -0.0820 -0.9052
  716MOL0     C96590   2.773   3.480  10.592 -0.0779  0.4926 -0.8115
  716MOL0     C96591   2.904   3.515  10.616  0.1197 -0.6803  0.1681
  716MOL0     C96592   3.019   3.449  10.540  0.5222 -0.4155 -0.0676
  716MOL0     H96593   3.303   3.927  10.569  1.0087  0.9357  0.9101
  716MOL0     H96594   3.549   3.961  10.599  2.0820 -1.2535 -0.4651
  716MOL0     H96595   3.740   3.729  10.936 -0.3977 -1.5049  0.5378
  716MOL0     H96596   3.783   3.632  10.794 -1.2091 -0.4974  1.1579
  716MOL0     H96597   3.968   3.794  10.743  0.4902 -1.3253 -0.6224
  716MOL0     H96598   3.990   3.696  10.895 -0.7773 -0.6640  0.2883
  716MOL0     H96599   3.908   3.899  11.016  0.1848 -0.6061 -1.1990
  716MOL0     H96600   3.942   4.001  10.883  1.7739  2.0912  4.5137
  716MOL0     H96601   4.142   3.815  11.013 -1.7333 -2.2912 -2.4268
  716MOL0     H96602   4.174   3.915  10.865 -1.2884 -0.6886 -0.4986
  716MOL0     H96603   4.116   4.111  10.984  0.8275 -1.7035 -1.8763
  716MOL0     H96604   4.089   4.027  11.142 -2.6844  1.1039 -0.2347
  716MOL0     H96605   4.349   3.959  11.090 -2.5780 -0.6936  1.6793
  716MOL0     H96606   4.344   4.084  10.979 -3.1620  1.3115 -0.8125
  716MOL0     H96607   4.248   4.117  11.259 -0.5626 -2.0462 -1.2189
  716MOL0     H96608   4.302   4.252  11.149 -0.9115 -1.1313 -3.2801
  716MOL0     H96609   4.489   4.042  11.251 -1.4279 -0.4951  0.9549
  716MOL0     H96610   4.526   4.190  11.178 -0.4705 -0.1431  0.1362
  716MOL0     H96611   4.471   4.432  11.300 -0.0462 -0.6838  0.4766
  716MOL0     H96612   4.480   4.593  11.533 -3.4964 -0.5232  3.3831
  716MOL0     H96613   4.488   4.513  11.684  2.6784 -3.1567  1.2764
  716MOL0     H96614   4.731   4.452  11.592 -2.3976 -1.5026  1.0783
  716MOL0     H96615   4.691   4.587  11.486 -2.8236 -1.2284 -0.9268
  716MOL0     H96616   4.680   4.616  11.795 -0.7573  2.9607  0.9359
  716MOL0     H96617   4.669   4.742  11.664  1.8021  0.9724 -0.3712
  716MOL0     H96618   4.888   4.754  11.645  1.1126 -0.6467  0.6182
  716MOL0     H96619   4.934   4.601  11.706 -0.8764 -0.4537 -3.4471
  716MOL0     H96620   5.112   4.656  11.816 -0.9709  0.6455 -2.0886
  716MOL0     H96621   5.323   4.760  11.852  0.8694  1.5823  0.0905
  716MOL0     H96622   5.500   5.150  12.205 -3.1093  3.1275  0.7881
  716MOL0     H96623   5.729   5.257  12.246  1.1166 -0.8246 -0.6203
  716MOL0     H96624   5.978   5.371  11.878  3.4994  0.5000 -0.1402
  716MOL0     H96625   5.912   5.533  11.947  0.2344 -0.0019  1.6196
  716MOL0     H96626   6.158   5.523  11.955 -2.3276  2.9676  0.3069
  716MOL0     H96627   6.093   5.520  12.117  0.9085 -0.2239  1.1387
  716MOL0     H96628   6.241   5.349  12.148 -1.1691 -2.7526  1.0347
  716MOL0     H96629   6.099   5.257  12.090  0.3459 -0.0581  2.1351
  716MOL0     H96630   6.334   5.351  11.907  0.0364  0.8111  0.7717
  716MOL0     H96631   6.193   5.250  11.859 -1.4970 -1.0245  2.2420
  716MOL0     H96632   6.274   5.067  12.004  3.0177 -2.6930  0.2436
  716MOL0     H96633   6.391   5.158  12.078 -1.3060  0.1506  0.8035
  716MOL0     H96634   6.400   5.132  11.774 -2.0255  1.0750  0.5865
  716MOL0     H96635   6.535   5.157  11.895  1.4274 -3.9399  0.6205
  716MOL0     H96636   6.416   4.905  11.809 -0.0601  0.9550 -1.5034
  716MOL0     H96637   6.422   4.913  11.986  2.8006 -0.2763  0.1015
  716MOL0     H96638   6.661   4.928  11.997 -3.1292 -1.8333  2.0738
  716MOL0     H96639   6.607   4.803  11.906 -0.8309 -0.2923 -0.0010
  716MOL0     H96640   5.760   5.364  11.838 -1.5577  0.5948 -1.0693
  716MOL0     H96641   5.541   5.249  11.804  0.0229 -0.8088 -0.3076
  716MOL0     H96642   5.114   5.114  12.004 -0.9760 -0.4198  1.9521
  716MOL0     H96643   4.897   5.002  11.929 -0.2174 -0.3482  0.0711
  716MOL0     H96644   3.568   3.605  10.832  2.6762  2.5804  0.5890
  716MOL0     H96645   3.320   3.573  10.810 -0.9795 -1.0762 -1.8427
  716MOL0     H96646   2.861   3.727  10.870 -0.1589  0.1937  0.1474
  716MOL0     H96647   2.612   3.686  10.811 -0.6762 -0.5918 -1.2346
  716MOL0     H96648   2.439   3.583  10.788 -0.4823  1.2625 -0.9013
  716MOL0     H96649   2.353   3.471  10.687  0.9233 -0.5083  0.3484
  716MOL0     H96650   2.348   3.633  10.496 -0.1668  1.2683 -0.8840
  716MOL0     H96651   2.452   3.754  10.588  0.5162 -0.5352 -1.1070
  716MOL0     H96652   2.195   3.801  10.611 -0.7329 -0.3241  0.7593
  716MOL0     H96653   2.278   3.768  10.763  2.0615 -0.2793  0.2632
  716MOL0     H96654   2.174   3.550  10.782  1.4488  2.1925 -0.2237
  716MOL0     H96655   2.050   3.662  10.716  0.0373  2.5756 -2.0335
  716MOL0     H96656   2.033   3.391  10.406  0.4273 -1.1813 -0.5068
  716MOL0     H96657   2.744   3.399  10.526 -3.9300  0.1915  0.9410
  716MOL0     H96658   2.968   3.401  10.456 -1.2476  1.0730  0.1022
  716MOL0     H96659   3.083   3.527  10.497  2.6789 -1.6762  0.6841
  716MOL0     H96660   3.090   3.381  10.587 -0.7515  0.2675  3.0576
  717MOL0     O96661  11.348   7.225   4.473  0.0441 -0.2963 -0.0489
  717MOL0     C96662  11.384   7.161   4.574  0.8143  0.2323 -0.2341
  717MOL0     O96663  11.503   7.167   4.629 -0.2830 -0.1277 -0.1632
  717MOL0     C96664  11.593   7.247   4.568 -1.0827  0.1225  0.2487
  717MOL0     C96665  11.577   7.383   4.550  0.3914 -0.3262 -0.0299
  717MOL0     C96666  11.669   7.450   4.470  0.0361  0.4944 -0.1622
  717MOL0     C96667  11.790   7.394   4.429  0.3166  0.4299  0.2906
  717MOL0     O96668  11.876   7.463   4.349  0.1246 -0.4009  0.4089
  717MOL0     C96669  11.940   7.565   4.415 -1.3571  0.0336  0.9024
  717MOL0     C96670  12.084   7.572   4.366  0.2777  1.0265  0.2574
  717MOL0     C96671  12.159   7.444   4.388  0.6853  1.3776  0.2707
  717MOL0     C96672  12.300   7.424   4.323  0.5289  1.0324  0.2160
  717MOL0     C96673  12.404   7.347   4.396 -0.0175 -0.8480  0.5448
  717MOL0     C96674  12.541   7.414   4.364  0.0295  0.2299  0.1515
  717MOL0     C96675  12.577   7.427   4.215  0.2327 -0.0579  0.1067
  717MOL0     C96676  12.694   7.522   4.186  0.2829 -0.5320 -0.7041
  717MOL0     N96677  12.807   7.449   4.238 -0.2288  0.0130  0.5135
  717MOL0     C96678  12.899   7.378   4.162 -0.4823  0.1414 -0.9269
  717MOL0     C96679  12.990   7.347   4.253 -0.1769  0.5555 -0.4186
  717MOL0     C96680  13.109   7.260   4.222  0.0076  0.3786 -0.0860
  717MOL0     C96681  13.228   7.297   4.306  1.3142 -0.1308  0.6523
  717MOL0     C96682  13.351   7.217   4.293 -0.8478  0.1134  0.6140
  717MOL0     C96683  13.484   7.296   4.323  1.3425  0.0712 -1.2374
  717MOL0     O96684  13.584   7.199   4.317 -0.0759  0.3578  0.3779
  717MOL0     C96685  13.714   7.238   4.289  1.2716 -0.5685  0.8319
  717MOL0     C96686  13.804   7.139   4.257  0.1367  0.1297 -0.3075
  717MOL0     C96687  13.936   7.172   4.231 -0.3406  0.5513  0.7640
  717MOL0     C96688  13.980   7.305   4.230  0.1177  0.6266 -0.8699
  717MOL0     C96689  14.120   7.347   4.204 -0.1079  0.4991  1.1101
  717MOL0     O96690  14.208   7.245   4.167  0.8407 -0.5315 -0.4257
  717MOL0     C96691  14.340   7.284   4.141 -0.1157 -0.4029  0.9572
  717MOL0     C96692  14.385   7.375   4.042  0.2278  0.5028 -0.1440
  717MOL0     C96693  14.518   7.396   4.014  0.3570 -0.2203 -0.2577
  717MOL0     C96694  14.617   7.325   4.086  0.8064  0.7041  0.4001
  717MOL0     O96695  14.744   7.360   4.042 -0.0765 -0.0609  1.0591
  717MOL0     C96696  14.837   7.370   4.146 -0.8608 -1.1722  0.4004
  717MOL0     C96697  14.962   7.454   4.116  0.8749 -0.5895 -0.0251
  717MOL0     C96698  15.050   7.481   4.230 -0.6127 -1.0380 -0.7562
  717MOL0     C96699  15.204   7.484   4.205  0.6173  0.4404  0.5501
  717MOL0     C96700  15.271   7.469   4.341 -0.3798  0.1884 -0.5116
  717MOL0     C96701  15.427   7.486   4.326 -0.1555  1.0091 -0.1787
  717MOL0     C96702  15.504   7.435   4.449  0.9537 -0.2483 -0.3881
  717MOL0     C96703  15.486   7.537   4.562  0.4165  0.0688  0.0661
  717MOL0    Cl96704  15.610   7.499   4.688  0.5931  0.1341 -0.0988
  717MOL0     C96705  14.576   7.224   4.177 -0.0731  0.0278 -0.2978
  717MOL0     C96706  14.436   7.213   4.205 -0.9231 -0.2094  0.1264
  717MOL0     O96707  14.143   7.467   4.201 -0.5861  0.1998 -0.5213
  717MOL0     C96708  13.886   7.408   4.262  0.4919  0.5824  0.4565
  717MOL0     C96709  13.757   7.374   4.299 -0.6109 -0.1106 -0.6082
  717MOL0     N96710  12.953   7.400   4.379 -0.1476  0.5544  0.8020
  717MOL0     N96711  12.849   7.475   4.364 -0.8215  0.0371 -0.3584
  717MOL0     C96712  11.806   7.263   4.451 -0.2624  0.6419 -0.4244
  717MOL0     C96713  11.714   7.182   4.521  0.2002  0.0829 -0.5023
  717MOL0     C96714  11.275   7.073   4.634  0.4777  0.2003  0.2280
  717MOL0     C96715  11.185   7.011   4.537  0.0961 -1.1368 -0.2869
  717MOL0     C96716  11.100   6.907   4.590 -0.4705  0.1904 -0.4943
  717MOL0     C96717  11.099   6.868   4.725  0.2189 -0.9848  0.0003
  717MOL0     O96718  11.021   6.770   4.784 -0.2717  0.2863  0.6671
  717MOL0     C96719  10.938   6.698   4.693 -0.2957  0.2474 -0.6997
  717MOL0     C96720  10.849   6.595   4.769 -0.2817  0.0138  0.2291
  717MOL0     C96721  10.771   6.665   4.881 -0.4026 -0.7010 -0.1922
  717MOL0     C96722  10.655   6.580   4.939  0.4918 -0.1624  0.0330
  717MOL0     C96723  10.582   6.665   5.034 -0.9326 -0.2769  0.1844
  717MOL0     C96724  10.507   6.742   5.086  0.0100  0.4085  0.0097
  717MOL0     C96725  11.184   6.933   4.816 -0.0854 -0.1094  1.0969
  717MOL0     C96726  11.271   7.042   4.774  0.4129  0.5660  0.5953
  717MOL0     C96727  11.365   7.097   4.881 -0.6169 -0.2304  0.0181
  717MOL0     H96728  11.486   7.435   4.579 -0.8934 -2.3701 -0.1792
  717MOL0     H96729  11.643   7.551   4.438  1.1374  0.2454 -2.0023
  717MOL0     H96730  11.892   7.660   4.390  1.1415  0.8026 -1.4527
  717MOL0     H96731  11.952   7.550   4.522  2.1665  0.4321  0.6882
  717MOL0     H96732  12.136   7.651   4.420  2.5300 -0.6850  0.7215
  717MOL0     H96733  12.085   7.599   4.260  1.9940  1.7425  0.4390
  717MOL0     H96734  12.105   7.357   4.349 -0.4040  1.3354  1.7539
  717MOL0     H96735  12.179   7.424   4.494  4.1101 -0.8947 -0.6149
  717MOL0     H96736  12.284   7.368   4.231  1.0152  1.3264 -0.0510
  717MOL0     H96737  12.350   7.519   4.301  0.0811  1.3626  0.5978
  717MOL0     H96738  12.389   7.355   4.504  0.6445  1.8703  0.4926
  717MOL0     H96739  12.408   7.243   4.362  1.5762 -0.9325  0.9103
  717MOL0     H96740  12.529   7.516   4.403 -1.9438 -0.5877  1.8611
  717MOL0     H96741  12.617   7.360   4.422  0.9824  0.9697 -0.3841
  717MOL0     H96742  12.495   7.468   4.155 -1.1466 -0.8033  1.3852
  717MOL0     H96743  12.613   7.330   4.180  2.4904  0.9872 -0.6475
  717MOL0     H96744  12.710   7.522   4.077 -1.8202 -1.6428 -1.0587
  717MOL0     H96745  12.682   7.619   4.235  3.3355 -2.4847  4.6917
  717MOL0     H96746  12.883   7.342   4.060 -0.5844  0.0933 -0.8948
  717MOL0     H96747  13.080   7.160   4.257  2.1918 -0.4661 -0.5360
  717MOL0     H96748  13.128   7.261   4.115  0.1740 -0.2165 -0.0678
  717MOL0     H96749  13.239   7.398   4.265 -4.8295  1.1947  1.2169
  717MOL0     H96750  13.200   7.300   4.412 -1.2992 -0.8256  0.0606
  717MOL0     H96751  13.363   7.179   4.191 -0.2952  2.0427 -0.0827
  717MOL0     H96752  13.340   7.128   4.355 -0.7153  0.9628  1.9113
  717MOL0     H96753  13.473   7.342   4.422 -1.0808  2.5964 -2.5418
  717MOL0     H96754  13.495   7.373   4.246  1.0700  1.1119 -0.2597
  717MOL0     H96755  13.778   7.034   4.265 -0.0957  0.2121  0.0267
  717MOL0     H96756  14.005   7.096   4.198  0.0935  1.5037 -0.6286
  717MOL0     H96757  14.322   7.440   3.982 -0.5783 -0.7335 -0.6812
  717MOL0     H96758  14.540   7.476   3.944  0.4244  0.0159  0.0301
  717MOL0     H96759  14.778   7.401   4.233 -0.4678  1.3122 -0.1446
  717MOL0     H96760  14.860   7.267   4.173  0.1129 -1.1984 -0.4550
  717MOL0     H96761  15.017   7.392   4.044  0.5598 -0.7329 -0.1447
  717MOL0     H96762  14.929   7.543   4.062 -0.3954 -1.5807 -0.9691
  717MOL0     H96763  15.019   7.574   4.279  1.4769 -1.3073  1.2796
  717MOL0     H96764  15.026   7.412   4.312  0.6399  0.7873  1.2630
  717MOL0     H96765  15.239   7.575   4.155 -0.4688  2.3261  2.9828
  717MOL0     H96766  15.233   7.401   4.141 -0.7034 -1.6177  2.4586
  717MOL0     H96767  15.248   7.374   4.390 -1.8724  1.0865  0.5957
  717MOL0     H96768  15.238   7.546   4.410 -0.0732  0.5807 -0.7976
  717MOL0     H96769  15.454   7.421   4.242  0.1416  3.7674 -2.3781
  717MOL0     H96770  15.445   7.590   4.297 -1.9965  1.2088 -0.7238
  717MOL0     H96771  15.610   7.423   4.425  0.1928 -3.9848 -2.6830
  717MOL0     H96772  15.470   7.336   4.479  2.2904 -1.2781 -2.1526
  717MOL0     H96773  15.501   7.643   4.540 -3.0455  0.9303  1.2280
  717MOL0     H96774  15.382   7.527   4.594 -0.0978 -1.9108 -1.9225
  717MOL0     H96775  14.655   7.160   4.217  1.8614  2.9353  0.9054
  717MOL0     H96776  14.412   7.143   4.283 -1.6764  0.7282  0.7625
  717MOL0     H96777  13.921   7.511   4.257 -0.4403  0.8733 -0.4769
  717MOL0     H96778  13.686   7.451   4.326 -0.2172 -0.3442  1.2048
  717MOL0     H96779  11.895   7.224   4.403  0.2953  1.6767 -0.2598
  717MOL0     H96780  11.740   7.079   4.543 -0.8156 -0.0445  0.1884
  717MOL0     H96781  11.184   7.038   4.432 -0.7865 -2.0812 -0.5375
  717MOL0     H96782  11.012   6.885   4.530 -3.3294  3.3650  2.1463
  717MOL0     H96783  11.006   6.641   4.630  2.4919  1.1055  1.3505
  717MOL0     H96784  10.879   6.761   4.625  0.0467 -0.0650 -1.2889
  717MOL0     H96785  10.917   6.518   4.808 -0.2029 -0.4663 -0.8278
  717MOL0     H96786  10.778   6.564   4.692  1.2385  0.5797 -1.4506
  717MOL0     H96787  10.726   6.761   4.857 -2.6847 -2.0843 -1.8228
  717MOL0     H96788  10.828   6.674   4.974 -1.3203 -2.2436  0.5546
  717MOL0     H96789  10.583   6.539   4.867  1.4287 -4.1166  1.1021
  717MOL0     H96790  10.698   6.501   5.001  0.6026 -1.4655 -1.6326
  717MOL0     H96791  10.441   6.813   5.131  1.8673  0.8616  2.2230
  717MOL0     H96792  11.179   6.900   4.919 -4.2847 -3.4589  0.0697
  717MOL0     H96793  11.450   7.029   4.871  0.2084  0.8715 -0.7740
  717MOL0     H96794  11.389   7.202   4.862 -2.8464  0.4712  0.7710
  717MOL0     H96795  11.321   7.085   4.980  3.8776 -0.5465  2.2360
  718MOL0     O96796   8.177   9.133   1.669 -0.9431  0.2977 -0.0592
  718MOL0     C96797   8.260   9.049   1.671 -0.4104 -0.8186 -0.1774
  718MOL0     O96798   8.390   9.070   1.700 -0.3758 -0.1920  0.0007
  718MOL0     C96799   8.438   9.193   1.726 -0.0303  0.1561 -0.1294
  718MOL0     C96800   8.364   9.295   1.792 -0.5363 -0.9603 -0.0937
  718MOL0     C96801   8.415   9.423   1.811 -0.0845 -0.0604 -0.5888
  718MOL0     C96802   8.554   9.448   1.786 -0.1328  0.0403 -0.2250
  718MOL0     O96803   8.616   9.570   1.824  0.1277  0.3293 -0.5224
  718MOL0     C96804   8.722   9.554   1.912 -1.0777 -0.2802 -0.4544
  718MOL0     C96805   8.755   9.694   1.968  0.1226  0.8396 -0.0828
  718MOL0     C96806   8.902   9.715   2.008  0.5384 -0.5053 -0.1097
  718MOL0     C96807   8.931   9.860   2.004  1.3282  0.6697  0.0444
  718MOL0     C96808   9.067   9.888   2.052 -0.6862 -1.2213 -0.0315
  718MOL0     C96809   9.110  10.036   2.013  0.6485 -0.1434 -0.7707
  718MOL0     C96810   9.237  10.088   2.083 -0.8696 -0.5044  0.4122
  718MOL0     C96811   9.362  10.015   2.035  0.6476  0.2277  1.1618
  718MOL0     N96812   9.478  10.060   2.103 -0.1983 -0.1006  1.0532
  718MOL0     C96813   9.564   9.978   2.166 -0.3446  0.3444 -0.9610
  718MOL0     C96814   9.668  10.061   2.191  0.4960 -0.6775 -0.7217
  718MOL0     C96815   9.799  10.037   2.262  1.0925 -0.3307  0.6336
  718MOL0     C96816   9.833  10.154   2.354  0.8609  0.4081  0.1535
  718MOL0     C96817   9.954  10.123   2.448  1.0236 -0.3395 -0.0147
  718MOL0     C96818  10.007  10.248   2.518 -0.1783  0.4833 -0.0737
  718MOL0     O96819  10.086  10.196   2.617  0.0383  0.1068  0.1806
  718MOL0     C96820  10.159  10.276   2.693  0.1427 -0.3325 -0.2481
  718MOL0     C96821  10.246  10.219   2.789 -0.3301 -0.1125  0.3159
  718MOL0     C96822  10.343  10.293   2.846  0.6834  0.2973 -1.6343
  718MOL0     C96823  10.346  10.433   2.832  0.2100  0.2487  0.0758
  718MOL0     C96824  10.459  10.516   2.875  0.8776 -0.5889  0.4878
  718MOL0     O96825  10.444  10.652   2.855  0.2046  0.9955 -0.8845
  718MOL0     C96826  10.538  10.736   2.904  0.0787 -0.2280  0.1664
  718MOL0     C96827  10.524  10.779   3.036 -0.1657  0.2205 -0.1476
  718MOL0     C96828  10.619  10.861   3.092  0.3812  0.1699  0.1383
  718MOL0     C96829  10.734  10.891   3.017  0.1347 -0.0124  0.7085
  718MOL0     O96830  10.841  10.957   3.074  0.9308  0.3576 -0.6874
  718MOL0     C96831  10.827  11.035   3.189  0.8217 -0.5900 -0.6986
  718MOL0     C96832  10.856  10.960   3.319  0.5946 -0.0230  0.6295
  718MOL0     C96833  10.976  10.865   3.318  0.2263 -0.3419  0.2422
  718MOL0     C96834  11.106  10.916   3.264 -0.1624  0.3181  0.1765
  718MOL0     C96835  11.221  10.805   3.262 -0.4559  0.9672 -0.2223
  718MOL0     C96836  11.338  10.843   3.166 -0.7651  0.2047 -0.5626
  718MOL0     C96837  11.383  10.715   3.096 -0.4985  0.8036 -1.2284
  718MOL0     C96838  11.527  10.713   3.058  0.3695 -0.0713 -0.4543
  718MOL0    Cl96839  11.569  10.851   2.954  0.1672  0.2595 -0.3010
  718MOL0     C96840  10.750  10.849   2.885  0.0050 -0.1560  0.7001
  718MOL0     C96841  10.651  10.760   2.831 -0.4615  0.4293  0.5535
  718MOL0     O96842  10.548  10.458   2.937 -0.8505 -0.2935  0.1215
  718MOL0     C96843  10.250  10.492   2.746 -0.4501  0.8659  0.0200
  718MOL0     C96844  10.168  10.411   2.673 -0.0391 -0.2051  0.5085
  718MOL0     N96845   9.637  10.191   2.153 -0.0829  0.1072  0.6513
  718MOL0     N96846   9.519  10.192   2.095 -0.3738  0.3038  0.4073
  718MOL0     C96847   8.631   9.345   1.715 -0.6204  0.2870 -0.9251
  718MOL0     C96848   8.573   9.221   1.695  0.1776  0.3732 -0.0004
  718MOL0     C96849   8.231   8.910   1.636  0.4200 -0.2234  0.4072
  718MOL0     C96850   8.332   8.815   1.629 -0.0950 -0.0631  0.5644
  718MOL0     C96851   8.308   8.679   1.587  1.2688 -0.6021 -1.0720
  718MOL0     C96852   8.173   8.647   1.554 -0.3771 -0.8229 -0.2787
  718MOL0     O96853   8.121   8.527   1.500 -0.0638 -0.3260 -0.5013
  718MOL0     C96854   8.198   8.407   1.485  0.2684  0.3477 -0.2286
  718MOL0     C96855   8.112   8.308   1.397  0.7946 -0.8792 -0.3536
  718MOL0     C96856   8.088   8.344   1.254 -0.4843 -0.9697  0.3534
  718MOL0     C96857   8.021   8.244   1.174  0.9151  0.4736 -0.4592
  718MOL0     C96858   7.875   8.224   1.210  0.0498  0.3239  0.2601
  718MOL0     C96859   7.759   8.233   1.241 -1.0141  0.0875  0.5162
  718MOL0     C96860   8.065   8.737   1.569 -0.2728  0.8238  0.6029
  718MOL0     C96861   8.093   8.865   1.610 -0.7932 -0.0916 -0.1641
  718MOL0     C96862   7.968   8.953   1.612 -0.2120 -0.1993  0.4026
  718MOL0     H96863   8.261   9.293   1.826 -0.8305  1.0460 -0.7165
  718MOL0     H96864   8.340   9.491   1.852 -1.0627  0.6431 -3.3687
  718MOL0     H96865   8.696   9.490   1.996 -1.1599 -1.8965 -1.6617
  718MOL0     H96866   8.803   9.505   1.858 -1.7797 -0.3285 -1.4915
  718MOL0     H96867   8.692   9.720   2.054 -1.0412  3.9770 -1.6941
  718MOL0     H96868   8.731   9.774   1.897  0.3271  2.1971  1.3152
  718MOL0     H96869   8.973   9.662   1.944 -0.0925 -0.4458 -0.8706
  718MOL0     H96870   8.919   9.685   2.112  1.9083 -2.7648 -0.9224
  718MOL0     H96871   8.926   9.897   1.901  1.2993  1.8464  0.4489
  718MOL0     H96872   8.860   9.924   2.059  2.7792  2.2977  0.1142
  718MOL0     H96873   9.077   9.871   2.160  3.0316  0.2231  0.0092
  718MOL0     H96874   9.138   9.820   2.003 -0.7456 -0.0342 -1.8813
  718MOL0     H96875   9.114  10.055   1.905  0.3126 -0.8014 -0.9062
  718MOL0     H96876   9.025  10.092   2.051 -0.3143 -1.2595 -1.2073
  718MOL0     H96877   9.224  10.083   2.191 -3.1220  1.4186  0.3003
  718MOL0     H96878   9.253  10.191   2.050 -1.9942 -1.1656 -2.5451
  718MOL0     H96879   9.361   9.907   2.047  3.2341 -0.0538 -0.2733
  718MOL0     H96880   9.372  10.049   1.932 -0.2587  0.4820  1.1515
  718MOL0     H96881   9.569   9.871   2.181  1.0862  0.5508  0.2631
  718MOL0     H96882   9.788   9.945   2.319  1.3806 -0.6282  0.2143
  718MOL0     H96883   9.874  10.021   2.184  0.2032 -2.9141  0.2094
  718MOL0     H96884   9.851  10.244   2.294 -2.1163  1.9078  1.2999
  718MOL0     H96885   9.742  10.171   2.411  0.7653 -0.6102  0.3197
  718MOL0     H96886  10.032  10.083   2.382 -1.4946  1.5742 -4.6676
  718MOL0     H96887   9.919  10.051   2.523  2.1695  1.4782  2.4142
  718MOL0     H96888   9.920  10.305   2.555 -0.8144  0.1009 -0.9384
  718MOL0     H96889  10.069  10.314   2.457  1.1892  0.4670  1.2244
  718MOL0     H96890  10.231  10.113   2.804 -1.6788 -0.0045 -0.1932
  718MOL0     H96891  10.404  10.241   2.920 -1.3399  0.7656  0.4637
  718MOL0     H96892  10.436  10.749   3.094 -0.6699  0.3602 -0.8265
  718MOL0     H96893  10.631  10.869   3.200  1.8506 -0.2215  0.0284
  718MOL0     H96894  10.896  11.119   3.180  1.5732 -1.1955 -0.7419
  718MOL0     H96895  10.723  11.069   3.193 -0.6981 -4.6699  0.0930
  718MOL0     H96896  10.883  11.038   3.391 -0.3149  0.9694 -0.0632
  718MOL0     H96897  10.767  10.909   3.358  1.0144  1.3957  3.7577
  718MOL0     H96898  10.982  10.811   3.414  3.8376 -1.0107 -0.1986
  718MOL0     H96899  10.940  10.789   3.249  0.5345 -1.8396  1.6468
  718MOL0     H96900  11.132  11.008   3.316 -0.0785  0.7503 -0.6151
  718MOL0     H96901  11.083  10.946   3.161  0.7704  0.4674  0.0087
  718MOL0     H96902  11.180  10.708   3.233  1.2416  0.3700 -0.6847
  718MOL0     H96903  11.267  10.795   3.361  0.1329  0.8971 -0.5024
  718MOL0     H96904  11.286  10.910   3.097 -2.5849  1.4399  1.8624
  718MOL0     H96905  11.421  10.883   3.223 -1.9204  1.9990 -0.0556
  718MOL0     H96906  11.316  10.690   3.013 -2.3986  0.0179  0.4613
  718MOL0     H96907  11.364  10.628   3.159 -0.0126  1.1072 -0.6589
  718MOL0     H96908  11.593  10.718   3.145  0.0306 -0.7430 -0.1535
  718MOL0     H96909  11.551  10.620   3.007  1.4448 -0.5114  0.7974
  718MOL0     H96910  10.841  10.875   2.833  0.9813  1.9703  3.2327
  718MOL0     H96911  10.651  10.707   2.736  1.8875 -0.3881  0.9650
  718MOL0     H96912  10.247  10.599   2.726 -2.9178  0.8619  0.0869
  718MOL0     H96913  10.103  10.460   2.602  0.1431 -0.1508  0.3796
  718MOL0     H96914   8.733   9.378   1.700 -0.5006  2.6814  3.4260
  718MOL0     H96915   8.630   9.138   1.654 -1.1039 -1.0338  0.9302
  718MOL0     H96916   8.436   8.835   1.653 -0.4876  0.8832  1.5605
  718MOL0     H96917   8.384   8.602   1.582 -0.3896 -2.5639  1.3403
  718MOL0     H96918   8.216   8.350   1.576  0.1407  3.5285  1.9468
  718MOL0     H96919   8.296   8.427   1.442 -0.0853  1.9967 -0.3140
  718MOL0     H96920   8.017   8.313   1.450  1.1563  2.2219  0.1572
  718MOL0     H96921   8.151   8.205   1.399 -0.5351 -1.4588 -1.9531
  718MOL0     H96922   8.181   8.364   1.200  1.0339 -1.2797  2.6916
  718MOL0     H96923   8.029   8.436   1.252  0.1832 -0.4767 -3.1884
  718MOL0     H96924   8.019   8.276   1.070  0.7419  2.2586  0.0637
  718MOL0     H96925   8.074   8.149   1.186  1.3713  0.5986 -1.4160
  718MOL0     H96926   7.666   8.237   1.295 -0.8956 -0.4300  0.7639
  718MOL0     H96927   7.966   8.696   1.552 -0.8053  1.3160  2.3391
  718MOL0     H96928   7.973   9.016   1.523 -0.6648 -2.8525 -1.6441
  718MOL0     H96929   7.874   8.900   1.594 -1.0915  1.8761 -1.4805
  718MOL0     H96930   7.961   9.019   1.699 -2.8341  1.5681 -0.9995
  719MOL0     O96931   0.985   7.688  11.209  0.0357  0.6552  0.2744
  719MOL0     C96932   0.985   7.641  11.099  0.4116  0.1556 -0.0822
  719MOL0     O96933   1.084   7.580  11.038  0.7410 -0.1409  0.6808
  719MOL0     C96934   1.202   7.581  11.098  0.1841  0.3306 -1.1202
  719MOL0     C96935   1.280   7.692  11.086  0.9313  0.5988 -0.8482
  719MOL0     C96936   1.397   7.708  11.162  0.5367 -0.8722  0.2991
  719MOL0     C96937   1.434   7.605  11.250 -0.5548 -0.3707 -0.7428
  719MOL0     O96938   1.544   7.600  11.329 -0.2178  0.7443 -0.1901
  719MOL0     C96939   1.671   7.629  11.265 -0.0796 -0.0847  0.6617
  719MOL0     C96940   1.732   7.751  11.318 -0.9940 -0.5717 -0.3028
  719MOL0     C96941   1.853   7.799  11.227  0.5619  0.9781 -0.0320
  719MOL0     C96942   1.900   7.929  11.282 -0.3169  0.4817 -0.1046
  719MOL0     C96943   1.992   8.010  11.198  0.7163  0.0045  0.3721
  719MOL0     C96944   2.144   7.972  11.228 -0.2200 -0.8926  0.5634
  719MOL0     C96945   2.200   7.822  11.194 -0.1174  0.4673  0.1450
  719MOL0     C96946   2.177   7.773  11.048  0.3807 -0.1025 -0.3741
  719MOL0     N96947   2.257   7.658  11.017 -0.1322  0.5211 -0.7817
  719MOL0     C96948   2.391   7.643  11.008  0.4128  0.0816  0.1834
  719MOL0     C96949   2.407   7.512  10.984 -0.7759 -0.8644  0.6803
  719MOL0     C96950   2.550   7.450  10.963  0.5839 -0.0355  0.2753
  719MOL0     C96951   2.535   7.297  10.942  0.3054  0.3358 -0.2622
  719MOL0     C96952   2.674   7.220  10.980  0.2932 -0.1436 -0.2939
  719MOL0     C96953   2.783   7.248  10.881  0.4318 -0.5117 -0.0082
  719MOL0     O96954   2.903   7.189  10.933 -0.2983  0.2181 -0.1499
  719MOL0     C96955   3.003   7.288  10.967 -0.9537  0.8880  0.7770
  719MOL0     C96956   2.989   7.424  11.010  0.1716 -0.0866 -0.2046
  719MOL0     C96957   3.096   7.504  11.056 -0.0526  0.7716  0.4355
  719MOL0     C96958   3.231   7.466  11.041  0.3089 -0.8034 -0.5794
  719MOL0     C96959   3.339   7.558  11.075 -0.2076 -0.3157 -0.1682
  719MOL0     O96960   3.316   7.685  11.117 -0.7809  0.3880 -0.1068
  719MOL0     C96961   3.422   7.751  11.173  0.7491 -1.1691 -0.1789
  719MOL0     C96962   3.455   7.719  11.306 -0.2139 -0.0825 -0.9580
  719MOL0     C96963   3.567   7.786  11.361 -0.1040 -0.1183  0.3186
  719MOL0     C96964   3.640   7.883  11.293 -0.7123  0.0098 -0.0522
  719MOL0     O96965   3.733   7.941  11.374 -0.4015  0.2917  0.1991
  719MOL0     C96966   3.800   8.052  11.322 -0.4015 -0.3387 -0.1197
  719MOL0     C96967   3.911   8.085  11.422  0.7174 -0.4248  0.1029
  719MOL0     C96968   3.992   7.966  11.459 -0.3655 -0.4523 -0.3088
  719MOL0     C96969   4.113   7.998  11.540 -0.4447 -0.1277 -0.9569
  719MOL0     C96970   4.222   8.090  11.471  0.1238  0.9766  0.1493
  719MOL0     C96971   4.363   8.066  11.520  0.1236  0.6656  0.4099
  719MOL0     C96972   4.382   8.110  11.656  0.6470 -1.1937 -0.4713
  719MOL0     C96973   4.511   8.052  11.708 -0.0302  0.4277  0.2380
  719MOL0    Cl96974   4.658   8.121  11.630  0.3936  0.0177  0.1420
  719MOL0     C96975   3.594   7.921  11.167 -0.5687  0.3906  0.1111
  719MOL0     C96976   3.483   7.858  11.105 -0.0393  0.0063 -0.2160
  719MOL0     O96977   3.451   7.503  11.074  0.4359  0.2362  1.1057
  719MOL0     C96978   3.250   7.330  11.012 -0.4191 -0.2773 -0.3163
  719MOL0     C96979   3.143   7.244  10.978  0.6348  0.0679  0.5884
  719MOL0     N96980   2.286   7.450  10.992  0.8784 -0.3601  0.0139
  719MOL0     N96981   2.191   7.534  11.009 -0.0213 -0.9906  0.8189
  719MOL0     C96982   1.357   7.489  11.258 -0.5794  0.4611 -0.4838
  719MOL0     C96983   1.244   7.477  11.185 -0.2128 -0.5862  0.1855
  719MOL0     C96984   0.863   7.633  11.028  0.7001  0.3644  0.2997
  719MOL0     C96985   0.743   7.655  11.096  0.1284  0.8272  0.0755
  719MOL0     C96986   0.614   7.654  11.033 -0.2559 -0.1675  1.3071
  719MOL0     C96987   0.612   7.656  10.894  0.4031 -0.1829  0.9960
  719MOL0     O96988   0.491   7.674  10.830  0.2100 -0.1297  0.5268
  719MOL0     C96989   0.414   7.795  10.851 -1.1314  1.5896  0.4685
  719MOL0     C96990   0.504   7.918  10.856  0.5240 -0.1342  0.7258
  719MOL0     C96991   0.416   8.048  10.873 -0.2369 -0.6425 -0.5990
  719MOL0     C96992   0.392   8.117  10.735 -0.7556  0.2319  0.7192
  719MOL0     C96993   0.299   8.229  10.723 -0.4644  0.3868 -0.5205
  719MOL0     C96994   0.201   8.307  10.719 -0.6268  0.7191 -0.7821
  719MOL0     C96995   0.731   7.633  10.823 -0.1147  0.5784  0.6781
  719MOL0     C96996   0.860   7.607  10.883 -0.1859  0.3149 -0.7198
  719MOL0     C96997   0.973   7.581  10.782  0.1898  0.2109 -0.3258
  719MOL0     H96998   1.247   7.771  11.019 -3.1203  0.3122  0.5477
  719MOL0     H96999   1.449   7.799  11.134 -0.6749 -0.7557 -1.8164
  719MOL0     H97000   1.735   7.540  11.263  0.3025  0.0805 -3.7929
  719MOL0     H97001   1.648   7.645  11.160 -0.2594 -0.9798  0.5572
  719MOL0     H97002   1.768   7.731  11.419 -0.2929 -0.5530 -0.5459
  719MOL0     H97003   1.653   7.827  11.319  0.5879  1.1736  2.3800
  719MOL0     H97004   1.820   7.800  11.123 -2.2920 -0.7913  0.7467
  719MOL0     H97005   1.935   7.726  11.233 -2.3988 -2.5544  1.5800
  719MOL0     H97006   1.808   7.986  11.300 -2.3942 -2.7372  0.3448
  719MOL0     H97007   1.933   7.909  11.384 -1.7838 -1.1162  0.1046
  719MOL0     H97008   1.968   7.990  11.094 -0.0278  1.1943  0.3023
  719MOL0     H97009   1.974   8.117  11.207 -0.5225 -0.0323 -1.3388
  719MOL0     H97010   2.211   8.043  11.180  1.0716 -3.2651 -1.4170
  719MOL0     H97011   2.159   7.996  11.334 -1.1046  0.2005  0.4562
  719MOL0     H97012   2.145   7.753  11.259  0.8881 -0.0603  0.4616
  719MOL0     H97013   2.305   7.826  11.226  1.0405  1.8170 -3.3180
  719MOL0     H97014   2.074   7.741  11.031  0.2400 -0.2750  0.7422
  719MOL0     H97015   2.208   7.851  10.977 -0.1279  1.9106  1.5085
  719MOL0     H97016   2.462   7.725  11.007  0.2195  0.2954  1.7253
  719MOL0     H97017   2.598   7.489  10.873  0.1709  0.7532  0.3863
  719MOL0     H97018   2.622   7.472  11.043 -0.4677 -2.9247  2.1941
  719MOL0     H97019   2.459   7.246  11.001 -0.7796  1.2011 -0.8716
  719MOL0     H97020   2.504   7.271  10.840 -1.8005  1.5040  0.0103
  719MOL0     H97021   2.664   7.112  10.974  1.6800 -0.2015 -2.9289
  719MOL0     H97022   2.711   7.244  11.081  0.4659  1.5522 -0.7280
  719MOL0     H97023   2.794   7.353  10.854 -1.6753  0.0194  0.9990
  719MOL0     H97024   2.766   7.187  10.791 -0.0106  0.7934 -0.8376
  719MOL0     H97025   2.888   7.462  11.007  0.5224  0.8194 -2.7328
  719MOL0     H97026   3.063   7.602  11.090 -1.5127  0.3312  0.3674
  719MOL0     H97027   3.390   7.654  11.363 -2.2282  1.4061 -1.4393
  719MOL0     H97028   3.611   7.763  11.458 -0.0526  1.7292  0.7741
  719MOL0     H97029   3.840   8.033  11.222 -0.8316  4.7791 -1.5115
  719MOL0     H97030   3.735   8.139  11.309  1.3661  1.0836  0.1393
  719MOL0     H97031   3.969   8.170  11.387  0.4189  0.7690  2.3097
  719MOL0     H97032   3.869   8.121  11.516 -1.4352 -0.0811 -0.9322
  719MOL0     H97033   3.930   7.902  11.524  1.7231 -1.9279  0.3493
  719MOL0     H97034   4.016   7.905  11.372 -1.2139 -0.3434 -0.6333
  719MOL0     H97035   4.161   7.910  11.583  1.9209  2.0917  1.4113
  719MOL0     H97036   4.074   8.047  11.630  3.6688 -0.6222  1.3287
  719MOL0     H97037   4.191   8.193  11.488 -3.4760 -0.0806  0.6945
  719MOL0     H97038   4.218   8.072  11.363  1.5324  0.4446  0.1567
  719MOL0     H97039   4.400   7.966  11.500 -0.5078  1.1256 -3.8935
  719MOL0     H97040   4.414   8.130  11.448 -0.7032  0.9315  0.0414
  719MOL0     H97041   4.297   8.094  11.723 -0.4602 -1.0220 -1.7877
  719MOL0     H97042   4.385   8.219  11.661  1.0568 -1.2269  3.5127
  719MOL0     H97043   4.508   8.064  11.817 -0.3804 -2.5127  0.6149
  719MOL0     H97044   4.518   7.947  11.679  2.1149  0.9425 -1.3652
  719MOL0     H97045   3.633   7.995  11.098 -3.2563  3.2079  1.3686
  719MOL0     H97046   3.444   7.881  11.006  0.1916  0.1510 -0.2727
  719MOL0     H97047   3.353   7.294  11.010  0.5740  2.2150  1.0972
  719MOL0     H97048   3.172   7.144  10.946  0.6279  0.3375 -0.2822
  719MOL0     H97049   1.379   7.399  11.315  0.1631 -1.4180 -3.5050
  719MOL0     H97050   1.189   7.383  11.192  0.3668 -0.8539  1.4468
  719MOL0     H97051   0.754   7.667  11.203  0.3601  0.6328  0.0755
  719MOL0     H97052   0.524   7.656  11.092 -0.4214  2.5127  1.0801
  719MOL0     H97053   0.362   7.789  10.947  1.5157  1.9079  2.0063
  719MOL0     H97054   0.341   7.800  10.770  1.3257 -0.7873 -2.0986
  719MOL0     H97055   0.584   7.917  10.782 -0.9230  0.6674 -0.9157
  719MOL0     H97056   0.542   7.910  10.959 -1.9264 -0.7230  1.6679
  719MOL0     H97057   0.464   8.130  10.927  0.1120 -1.0140 -0.3364
  719MOL0     H97058   0.330   8.018  10.934 -0.1073 -2.0432 -1.0589
  719MOL0     H97059   0.489   8.139  10.689 -0.2321 -1.1758  1.0972
  719MOL0     H97060   0.352   8.041  10.668 -0.2368  1.5518 -1.1457
  719MOL0     H97061   0.130   8.386  10.715 -0.2960  1.1048  0.5763
  719MOL0     H97062   0.726   7.619  10.716  4.1838 -3.0395  0.6752
  719MOL0     H97063   0.928   7.562  10.684 -2.6070 -1.9720  1.2081
  719MOL0     H97064   1.048   7.660  10.775  1.3152 -0.4895  2.4049
  719MOL0     H97065   1.026   7.491  10.814 -3.8117 -2.2679 -0.0124
  720MOL0     O97066   0.128   3.650   5.728 -0.1732 -0.6026  0.0619
  720MOL0     C97067   0.086   3.539   5.767  0.1247 -0.9916  0.2471
  720MOL0     O97068  -0.047   3.500   5.747 -0.3375 -0.0101 -0.3845
  720MOL0     C97069  -0.129   3.605   5.703 -1.0570 -0.0370  0.3524
  720MOL0     C97070  -0.156   3.618   5.569  0.2685  0.1375 -0.0531
  720MOL0     C97071  -0.252   3.711   5.525  0.5236  0.5591  0.0970
  720MOL0     C97072  -0.316   3.801   5.611  0.3553  0.4549 -0.8046
  720MOL0     O97073  -0.424   3.873   5.568  0.1765  0.1637  0.2042
  720MOL0     C97074  -0.434   3.911   5.427 -0.4783  1.2275 -0.0667
  720MOL0     C97075  -0.522   3.805   5.359 -0.5389 -0.4294  0.0182
  720MOL0     C97076  -0.536   3.827   5.213  0.2231 -0.1338 -0.2295
  720MOL0     C97077  -0.620   3.719   5.145 -0.1913  0.0636 -0.7839
  720MOL0     C97078  -0.654   3.739   4.999  0.1919  0.4473  0.0214
  720MOL0     C97079  -0.723   3.625   4.929  1.2613  0.2846  0.1194
  720MOL0     C97080  -0.708   3.606   4.772  0.2551 -1.2924  0.6954
  720MOL0     C97081  -0.716   3.742   4.702  0.2171  0.3514  0.2458
  720MOL0     N97082  -0.718   3.720   4.554 -0.3860 -0.2887  0.0738
  720MOL0     C97083  -0.775   3.796   4.456  0.0494 -0.5973  1.0720
  720MOL0     C97084  -0.726   3.755   4.338 -0.6465  0.2883 -0.0692
  720MOL0     C97085  -0.759   3.798   4.197 -0.1402  0.5148  0.2737
  720MOL0     C97086  -0.783   3.955   4.192 -0.1903  0.1518  0.5139
  720MOL0     C97087  -0.653   4.043   4.201 -0.0527  0.1122 -0.2054
  720MOL0     C97088  -0.550   4.028   4.088 -0.1426  0.6070 -0.3724
  720MOL0     O97089  -0.452   4.134   4.076  0.5747  0.1517 -0.8088
  720MOL0     C97090  -0.348   4.146   4.167  0.7328 -0.2958  0.0931
  720MOL0     C97091  -0.285   4.269   4.180  0.3878  0.1142  0.4632
  720MOL0     C97092  -0.177   4.286   4.268  0.5459  0.7130  0.4602
  720MOL0     C97093  -0.136   4.177   4.344  0.0312 -0.3166  0.3254
  720MOL0     C97094  -0.028   4.177   4.448 -0.4099  0.6255  0.0331
  720MOL0     O97095  -0.001   4.061   4.520  0.2454 -0.0295  0.4744
  720MOL0     C97096   0.087   4.067   4.623 -0.3217 -0.1854  0.6340
  720MOL0     C97097   0.057   4.149   4.735 -0.9724  0.1058  0.8170
  720MOL0     C97098   0.153   4.195   4.829  0.6655  0.2723  0.3964
  720MOL0     C97099   0.282   4.134   4.824 -0.0653 -0.5998 -0.3879
  720MOL0     O97100   0.382   4.173   4.909 -0.0481  0.2162 -0.2281
  720MOL0     C97101   0.342   4.200   5.042 -0.1956 -0.3666  0.1999
  720MOL0     C97102   0.464   4.217   5.134 -0.4802  0.0244 -0.4497
  720MOL0     C97103   0.561   4.097   5.132  0.4708  0.8413  0.1925
  720MOL0     C97104   0.490   3.960   5.157  0.2310  0.0498  0.1881
  720MOL0     C97105   0.587   3.863   5.217  0.0932 -0.6027  0.3335
  720MOL0     C97106   0.697   3.812   5.118  0.6684  0.5710 -0.3225
  720MOL0     C97107   0.801   3.728   5.184 -0.2395  0.3598  0.9268
  720MOL0     C97108   0.934   3.715   5.109 -0.5951  0.2020  0.7360
  720MOL0    Cl97109   1.043   3.625   5.217 -0.3745  0.1023  0.0381
  720MOL0     C97110   0.310   4.050   4.721  0.1187 -0.0534  0.5695
  720MOL0     C97111   0.213   4.014   4.622  0.2298  0.3324 -0.3756
  720MOL0     O97112   0.008   4.288   4.482  0.0918 -0.5878  0.2968
  720MOL0     C97113  -0.202   4.053   4.323 -0.8986 -0.0640  0.0466
  720MOL0     C97114  -0.311   4.036   4.240  0.0277 -0.7236 -0.3647
  720MOL0     N97115  -0.637   3.654   4.358  0.0009  0.6036 -0.3905
  720MOL0     N97116  -0.637   3.627   4.488  0.1062  0.5032 -0.8328
  720MOL0     C97117  -0.295   3.787   5.749 -1.1367  0.0776 -0.6056
  720MOL0     C97118  -0.201   3.690   5.793  0.7560  0.6406 -0.4325
  720MOL0     C97119   0.182   3.447   5.847  0.9859 -0.6550 -0.6606
  720MOL0     C97120   0.114   3.349   5.927 -1.3884 -0.3197 -0.0231
  720MOL0     C97121   0.186   3.268   6.019  0.3047  0.3982 -0.3750
  720MOL0     C97122   0.328   3.284   6.036 -0.7678 -0.4356  0.4325
  720MOL0     O97123   0.394   3.218   6.132  0.3801 -0.0665  0.1069
  720MOL0     C97124   0.400   3.078   6.133  0.1911 -0.7860 -0.1378
  720MOL0     C97125   0.477   3.023   6.009  0.3377  0.1357 -0.6852
  720MOL0     C97126   0.530   2.878   6.034 -0.7523 -0.2493  0.3746
  720MOL0     C97127   0.554   2.798   5.914 -0.1139 -0.3791 -0.0942
  720MOL0     C97128   0.594   2.663   5.957  0.4287 -0.0181 -0.9107
  720MOL0     C97129   0.646   2.563   6.000  0.3045 -0.7096  0.6322
  720MOL0     C97130   0.392   3.374   5.950 -0.0165  0.1025  0.3539
  720MOL0     C97131   0.325   3.457   5.857  0.2968 -0.0150 -0.3467
  720MOL0     C97132   0.416   3.553   5.788  0.2539  0.0946 -0.4779
  720MOL0     H97133  -0.099   3.565   5.494 -0.5123  1.6920 -1.8153
  720MOL0     H97134  -0.284   3.705   5.421 -1.3770  2.3938  0.5046
  720MOL0     H97135  -0.480   4.011   5.422 -0.6536  1.3355  2.4909
  720MOL0     H97136  -0.336   3.915   5.380 -0.0232  0.9913  0.8539
  720MOL0     H97137  -0.621   3.808   5.404 -0.0749 -0.6913  1.0931
  720MOL0     H97138  -0.479   3.705   5.375  4.6366  1.7347  1.9714
  720MOL0     H97139  -0.435   3.834   5.172  0.5966 -2.8727  0.0875
  720MOL0     H97140  -0.585   3.922   5.189  1.5331  0.6592  0.1544
  720MOL0     H97141  -0.577   3.619   5.159 -0.5793  0.2191  2.1548
  720MOL0     H97142  -0.715   3.716   5.200 -0.4655 -5.8515 -0.8653
  720MOL0     H97143  -0.707   3.834   4.995 -2.4575 -0.8802  1.3729
  720MOL0     H97144  -0.555   3.758   4.956 -0.8074  1.2926 -2.0243
  720MOL0     H97145  -0.687   3.531   4.972  0.5777  0.9456  2.2620
  720MOL0     H97146  -0.829   3.635   4.953  1.6180  1.0014  1.4980
  720MOL0     H97147  -0.785   3.538   4.735  0.2316 -0.6767 -0.4140
  720MOL0     H97148  -0.609   3.566   4.749  0.1922 -0.9682 -0.1584
  720MOL0     H97149  -0.805   3.798   4.730  0.4694  1.5855 -1.2893
  720MOL0     H97150  -0.631   3.803   4.734 -1.0009  1.4171  1.5985
  720MOL0     H97151  -0.859   3.864   4.466  0.0534 -0.7073  1.8870
  720MOL0     H97152  -0.680   3.766   4.129 -1.1946 -3.6213  0.7665
  720MOL0     H97153  -0.851   3.746   4.170 -0.5197  0.5900  1.3664
  720MOL0     H97154  -0.835   3.967   4.096 -1.3533  0.1181  1.1260
  720MOL0     H97155  -0.860   3.991   4.260 -0.8799 -1.5163  0.6741
  720MOL0     H97156  -0.601   4.023   4.295 -2.3030 -3.4520  0.4724
  720MOL0     H97157  -0.678   4.150   4.207  0.3859  0.2129 -0.0726
  720MOL0     H97158  -0.609   4.035   3.996 -0.4228 -1.2154 -0.3792
  720MOL0     H97159  -0.518   3.923   4.088 -1.8584 -0.0223 -2.7677
  720MOL0     H97160  -0.317   4.361   4.133  1.8886  0.8194  0.7479
  720MOL0     H97161  -0.133   4.385   4.272  1.0356  0.6011 -1.2715
  720MOL0     H97162  -0.040   4.198   4.731  0.0998  2.5468 -4.6133
  720MOL0     H97163   0.129   4.277   4.897 -0.8660  0.3834 -0.2343
  720MOL0     H97164   0.290   4.295   5.051  1.4454  0.8334 -2.0517
  720MOL0     H97165   0.279   4.117   5.076  1.0626 -0.2252  3.2339
  720MOL0     H97166   0.523   4.306   5.108 -0.5948  0.4645  0.7521
  720MOL0     H97167   0.424   4.238   5.233 -1.2604  0.6584 -0.8802
  720MOL0     H97168   0.626   4.082   5.045  0.9194 -2.6349  0.9762
  720MOL0     H97169   0.625   4.131   5.214  0.8131  2.1964 -0.6036
  720MOL0     H97170   0.446   3.917   5.066 -1.0204  0.6884  0.4630
  720MOL0     H97171   0.408   3.986   5.224 -1.7867 -1.1588 -1.6580
  720MOL0     H97172   0.532   3.775   5.254  0.5941 -1.6304 -1.2721
  720MOL0     H97173   0.638   3.909   5.302  1.4922 -1.3691 -0.0620
  720MOL0     H97174   0.655   3.742   5.045  1.5992  0.7438 -1.0334
  720MOL0     H97175   0.744   3.903   5.079 -0.3184  1.6433  0.9001
  720MOL0     H97176   0.761   3.627   5.200  0.4860 -0.0419  0.2471
  720MOL0     H97177   0.819   3.767   5.285  2.2961 -1.3388  1.2424
  720MOL0     H97178   0.923   3.656   5.017 -0.9655 -1.3470  1.7239
  720MOL0     H97179   0.979   3.812   5.088  1.5364 -0.8122  0.3234
  720MOL0     H97180   0.403   3.994   4.715  1.5111  2.0788  1.3225
  720MOL0     H97181   0.243   3.956   4.535  2.8753 -0.6782  1.0817
  720MOL0     H97182  -0.169   3.957   4.361 -0.6356 -0.5530 -1.3574
  720MOL0     H97183  -0.352   3.938   4.220 -2.0503  0.1889 -0.9361
  720MOL0     H97184  -0.351   3.845   5.822 -2.8296 -0.5225 -1.3958
  720MOL0     H97185  -0.177   3.670   5.897  6.2411  2.3951 -1.0216
  720MOL0     H97186   0.006   3.343   5.918 -1.4919  2.0209 -1.0527
  720MOL0     H97187   0.124   3.204   6.082  0.8580  0.5770  0.3698
  720MOL0     H97188   0.304   3.030   6.151 -0.1165 -0.4088 -0.7553
  720MOL0     H97189   0.463   3.060   6.221  1.3629 -0.5859 -0.9012
  720MOL0     H97190   0.545   3.101   5.973 -1.1593  2.1523  0.6400
  720MOL0     H97191   0.404   3.012   5.929 -0.3984 -0.5749  0.0563
  720MOL0     H97192   0.450   2.826   6.088 -3.0409  3.4748  0.9556
  720MOL0     H97193   0.619   2.874   6.098 -0.4777  2.5482  0.2953
  720MOL0     H97194   0.472   2.796   5.842  0.3739 -0.2260 -0.6638
  720MOL0     H97195   0.640   2.841   5.861  1.1144 -0.5647  1.6792
  720MOL0     H97196   0.699   2.475   6.028  0.3541 -0.2378  2.0733
  720MOL0     H97197   0.498   3.374   5.971 -0.0798 -2.8238  1.0199
  720MOL0     H97198   0.380   3.654   5.808  0.8035  1.0645 -3.6929
  720MOL0     H97199   0.517   3.530   5.821 -1.0402 -1.2018  2.9616
  720MOL0     H97200   0.404   3.531   5.681 -2.7249  1.1772 -0.4533
  721MOL0     O97201   2.571   0.407  10.859 -0.6144 -0.7671  0.8248
  721MOL0     C97202   2.517   0.322  10.790 -1.3423 -1.1584 -0.8728
  721MOL0     O97203   2.580   0.263  10.684  0.1614  0.2200  0.0943
  721MOL0     C97204   2.711   0.288  10.653  0.0426  0.3856 -0.3533
  721MOL0     C97205   2.796   0.182  10.636  0.0112 -0.3068  0.3618
  721MOL0     C97206   2.929   0.197  10.588  0.2473 -0.4973  0.5876
  721MOL0     C97207   2.974   0.334  10.552 -0.6905  0.0479 -0.8259
  721MOL0     O97208   3.106   0.357  10.509 -0.1162  0.6526  0.8977
  721MOL0     C97209   3.210   0.278  10.552 -0.4067  0.0362 -0.1378
  721MOL0     C97210   3.328   0.384  10.562 -0.9557  0.3245 -0.6517
  721MOL0     C97211   3.475   0.327  10.581 -0.1509 -0.4884  0.2739
  721MOL0     C97212   3.579   0.439  10.578 -0.8820 -0.5431 -0.3962
  721MOL0     C97213   3.723   0.371  10.610  0.4740  0.1495 -0.0129
  721MOL0     C97214   3.783   0.300  10.489 -0.4828  0.0096 -0.1942
  721MOL0     C97215   3.910   0.214  10.516  0.0251  0.4347  0.0241
  721MOL0     C97216   4.023   0.312  10.580  0.9763  0.3176 -0.4304
  721MOL0     N97217   4.157   0.286  10.519 -0.3100  0.4841 -0.5767
  721MOL0     C97218   4.234   0.166  10.525  0.1796  0.3322  0.9353
  721MOL0     C97219   4.363   0.193  10.487 -0.2922  0.5878 -0.4631
  721MOL0     C97220   4.474   0.089  10.463  0.0939 -1.1470  0.5371
  721MOL0     C97221   4.607   0.137  10.426 -0.5947 -1.2764 -0.3384
  721MOL0     C97222   4.716   0.111  10.524 -0.1518 -0.7486  0.1392
  721MOL0     C97223   4.716   0.219  10.632 -0.0373 -0.0532  0.3496
  721MOL0     O97224   4.775   0.335  10.580 -0.1681 -0.3945 -0.7823
  721MOL0     C97225   4.915   0.345  10.577 -1.5236  0.5312  0.1662
  721MOL0     C97226   4.998   0.253  10.645 -0.4487 -0.6689 -0.5876
  721MOL0     C97227   5.133   0.278  10.656 -0.8503  0.7065 -0.5483
  721MOL0     C97228   5.197   0.390  10.596 -0.6589 -0.0481 -0.3249
  721MOL0     C97229   5.344   0.403  10.609 -0.6795 -0.2869  0.1524
  721MOL0     O97230   5.414   0.508  10.548  0.0501  0.3389  0.2986
  721MOL0     C97231   5.545   0.521  10.589  0.6293  0.8303 -0.4573
  721MOL0     C97232   5.647   0.568  10.499 -0.0926  0.6517  0.2065
  721MOL0     C97233   5.782   0.567  10.541  0.5717 -0.0230 -0.1495
  721MOL0     C97234   5.823   0.520  10.671 -0.1679  0.8641  1.0517
  721MOL0     O97235   5.953   0.524  10.706 -0.0957  0.5657 -0.1731
  721MOL0     C97236   6.004   0.418  10.794 -0.8162  0.3017  0.1579
  721MOL0     C97237   6.155   0.395  10.740 -0.7390  0.8687  0.9906
  721MOL0     C97238   6.260   0.491  10.796  0.3707 -0.6163 -0.2025
  721MOL0     C97239   6.395   0.444  10.748  0.1782  0.1719  0.4032
  721MOL0     C97240   6.500   0.541  10.784 -0.4692  0.0175  0.1214
  721MOL0     C97241   6.632   0.481  10.740  1.0146 -0.3380  0.4818
  721MOL0     C97242   6.741   0.574  10.777 -0.6988  0.5300  0.6063
  721MOL0     C97243   6.885   0.511  10.749  0.0554  0.0913 -0.1387
  721MOL0    Cl97244   6.920   0.535  10.581 -0.6151 -0.3849  0.3095
  721MOL0     C97245   5.719   0.500  10.763  0.9275 -0.4219 -0.3786
  721MOL0     C97246   5.581   0.497  10.726  0.6584 -0.0400  0.3216
  721MOL0     O97247   5.392   0.308  10.674  0.1917  0.3982  0.5683
  721MOL0     C97248   5.127   0.472  10.522 -0.1532 -0.4459  0.4643
  721MOL0     C97249   4.986   0.449  10.521 -0.1042  0.5981  0.1206
  721MOL0     N97250   4.372   0.323  10.464  0.9141  0.1938 -1.1537
  721MOL0     N97251   4.249   0.380  10.474 -0.4709 -0.3735 -0.2730
  721MOL0     C97252   2.880   0.436  10.560  0.4690  0.0525 -0.4121
  721MOL0     C97253   2.746   0.419  10.611 -0.4984  0.5155  0.7079
  721MOL0     C97254   2.373   0.308  10.804 -0.8967 -0.3447  0.3565
  721MOL0     C97255   2.296   0.275  10.691  0.1782 -0.1502 -0.3257
  721MOL0     C97256   2.164   0.252  10.703 -0.1232 -0.0183 -0.8471
  721MOL0     C97257   2.104   0.257  10.832 -0.5697  0.3775  0.5745
  721MOL0     O97258   1.970   0.238  10.856  0.3617 -0.7482  0.3945
  721MOL0     C97259   1.869   0.223  10.753  0.3440 -0.9946 -0.5224
  721MOL0     C97260   1.845   0.080  10.733  0.2512  0.7759 -0.3063
  721MOL0     C97261   1.798  -0.001  10.852 -0.3416  0.4737  0.0198
  721MOL0     C97262   1.839  -0.148  10.860 -0.0209 -0.2976 -0.5833
  721MOL0     C97263   1.772  -0.225  10.759 -0.3282 -0.1179 -0.1772
  721MOL0     C97264   1.709  -0.300  10.689  0.2373  0.2053  0.5605
  721MOL0     C97265   2.177   0.285  10.940  1.4906 -0.2666  0.3973
  721MOL0     C97266   2.311   0.311  10.934 -0.3186 -0.2124  0.2182
  721MOL0     C97267   2.391   0.334  11.064  0.7164 -1.3435  0.3101
  721MOL0     H97268   2.761   0.081  10.655  1.8127 -0.3805  4.3443
  721MOL0     H97269   2.995   0.110  10.594 -0.9667 -1.4627  0.2450
  721MOL0     H97270   3.190   0.238  10.652 -1.8130  0.4687 -0.2320
  721MOL0     H97271   3.238   0.203  10.478 -0.8623  0.8594 -1.1553
  721MOL0     H97272   3.297   0.443  10.649 -2.5328 -0.5010 -0.6122
  721MOL0     H97273   3.323   0.455  10.479 -0.5573  0.2789 -0.7161
  721MOL0     H97274   3.483   0.251  10.503 -2.6173 -2.6819  1.9726
  721MOL0     H97275   3.486   0.268  10.672 -3.2416 -0.6925  0.6321
  721MOL0     H97276   3.578   0.506  10.491 -1.3070  0.8844  0.6689
  721MOL0     H97277   3.562   0.514  10.656  1.7882 -0.7655  0.5225
  721MOL0     H97278   3.792   0.444  10.654  1.5255  0.4335 -1.9763
  721MOL0     H97279   3.715   0.300  10.692 -3.2512 -1.4731 -1.5524
  721MOL0     H97280   3.701   0.239  10.451  3.0170 -4.6238 -1.3032
  721MOL0     H97281   3.814   0.365  10.406  2.4129  0.7777  1.3477
  721MOL0     H97282   3.943   0.183  10.416 -2.3235  0.7361 -0.9140
  721MOL0     H97283   3.874   0.127  10.572 -3.2738  1.1152 -0.8060
  721MOL0     H97284   4.004   0.414  10.544 -2.3829 -1.0178 -2.9744
  721MOL0     H97285   4.030   0.294  10.688 -0.9724 -2.1712 -0.6552
  721MOL0     H97286   4.191   0.067  10.539 -0.8245  0.3704 -1.3786
  721MOL0     H97287   4.477   0.035  10.559 -2.2263  0.1050  1.3943
  721MOL0     H97288   4.440   0.012  10.393 -1.3106 -3.3305  3.4115
  721MOL0     H97289   4.641   0.100  10.329 -0.4730  1.6986 -1.5254
  721MOL0     H97290   4.617   0.244  10.407  4.1263 -1.2104  1.3045
  721MOL0     H97291   4.813   0.103  10.476  0.0596  1.7358  0.0050
  721MOL0     H97292   4.697   0.013  10.568 -1.0832  0.1873  1.9643
  721MOL0     H97293   4.767   0.181  10.722  0.0607 -0.6440  0.0480
  721MOL0     H97294   4.616   0.255  10.656  0.4834  0.0862  2.6014
  721MOL0     H97295   4.967   0.166  10.703  0.3693  0.3762  1.4988
  721MOL0     H97296   5.186   0.213  10.726 -1.3214 -0.9206 -1.6490
  721MOL0     H97297   5.624   0.597  10.397 -1.5733  2.4344  0.9932
  721MOL0     H97298   5.856   0.594  10.466 -1.3216  0.1711 -2.0590
  721MOL0     H97299   5.998   0.449  10.899 -1.4350 -0.4662  0.3560
  721MOL0     H97300   5.946   0.327  10.774 -1.2171  1.0038 -2.2060
  721MOL0     H97301   6.182   0.294  10.772 -0.1055  1.2860  1.8338
  721MOL0     H97302   6.151   0.398  10.631 -2.0795 -1.4144  0.9220
  721MOL0     H97303   6.233   0.589  10.756  1.0962 -0.4972 -0.4013
  721MOL0     H97304   6.245   0.502  10.904 -0.9365  0.6929 -0.4854
  721MOL0     H97305   6.385   0.431  10.640  1.7346 -2.1750  0.4802
  721MOL0     H97306   6.414   0.342  10.783  1.4736 -0.6041 -2.3360
  721MOL0     H97307   6.504   0.568  10.890  2.3773 -1.6976  0.5617
  721MOL0     H97308   6.490   0.633  10.726  1.8572 -0.4946 -1.2286
  721MOL0     H97309   6.636   0.384  10.789 -1.8699 -1.7815 -1.8392
  721MOL0     H97310   6.626   0.476  10.631  2.2683  1.0510  0.3113
  721MOL0     H97311   6.726   0.600  10.882  0.8537 -2.1051  1.5931
  721MOL0     H97312   6.744   0.672  10.729  1.4312  1.0697  1.6938
  721MOL0     H97313   6.953   0.562  10.817  2.4767 -0.0655 -2.3086
  721MOL0     H97314   6.884   0.404  10.771  0.3971  0.0846 -0.1517
  721MOL0     H97315   5.743   0.478  10.867  1.2871 -0.4632 -0.4690
  721MOL0     H97316   5.506   0.487  10.804  0.0571 -1.2756 -0.3866
  721MOL0     H97317   5.166   0.569  10.493 -0.5550  0.5162  2.8272
  721MOL0     H97318   4.940   0.524  10.459  1.0835  1.0689 -0.2085
  721MOL0     H97319   2.913   0.534  10.527 -0.6286  0.1511 -1.2560
  721MOL0     H97320   2.675   0.500  10.604 -0.0186  1.1910  2.9356
  721MOL0     H97321   2.346   0.251  10.597 -1.1062 -3.4456 -0.3019
  721MOL0     H97322   2.105   0.213  10.621  0.2097 -1.9830 -0.2064
  721MOL0     H97323   1.893   0.266  10.655  1.4449 -1.0046 -0.2622
  721MOL0     H97324   1.782   0.282  10.784  1.4473  0.8347 -0.7973
  721MOL0     H97325   1.945   0.042  10.712  0.1913 -0.6560  1.6227
  721MOL0     H97326   1.770   0.067  10.654 -0.2654 -1.3016  0.4468
  721MOL0     H97327   1.689  -0.003  10.860 -0.2148  0.0114  2.0613
  721MOL0     H97328   1.830   0.047  10.945 -1.3921 -0.2443  0.7775
  721MOL0     H97329   1.948  -0.159  10.857 -0.1838 -2.3582 -0.2151
  721MOL0     H97330   1.822  -0.190  10.959 -0.1424 -0.7964 -0.8114
  721MOL0     H97331   1.665  -0.373  10.624  1.2703 -0.2871  0.3940
  721MOL0     H97332   2.122   0.283  11.034 -0.2633  1.7633 -0.5304
  721MOL0     H97333   2.330   0.322  11.154 -0.0014 -0.1499 -0.0077
  721MOL0     H97334   2.475   0.264  11.059 -0.2691 -2.4937 -0.9997
  721MOL0     H97335   2.412   0.441  11.062 -0.4700 -0.9853  3.1054
  722MOL0     O97336   3.295   3.627   6.268  0.0149  0.2244 -0.0485
  722MOL0     C97337   3.176   3.655   6.260  0.2435  0.4943  0.8965
  722MOL0     O97338   3.129   3.770   6.216 -0.6582  0.4906 -0.1234
  722MOL0     C97339   3.224   3.871   6.203  0.5276 -0.2095 -0.0050
  722MOL0     C97340   3.263   3.937   6.316 -0.0759 -0.2152  0.9635
  722MOL0     C97341   3.349   4.047   6.307  0.3329 -0.1916  0.3302
  722MOL0     C97342   3.390   4.100   6.183 -0.4075  0.3675 -0.5317
  722MOL0     O97343   3.462   4.215   6.177 -0.6002 -0.0142 -1.1154
  722MOL0     C97344   3.603   4.192   6.178 -0.5180 -0.4068  0.4350
  722MOL0     C97345   3.651   4.292   6.074 -0.4407 -0.4948  0.5146
  722MOL0     C97346   3.801   4.264   6.035  0.4022  0.2373 -0.5569
  722MOL0     C97347   3.906   4.306   6.141  0.5045  1.1862  0.1904
  722MOL0     C97348   4.048   4.273   6.097  0.9570 -0.2624  0.2008
  722MOL0     C97349   4.143   4.293   6.207 -0.6797  0.8939  0.1675
  722MOL0     C97350   4.285   4.309   6.150 -0.1858 -0.6011  0.2175
  722MOL0     C97351   4.384   4.351   6.257  0.3706 -0.3012  0.5057
  722MOL0     N97352   4.502   4.416   6.193 -0.0651 -0.1548 -0.0597
  722MOL0     C97353   4.577   4.371   6.087 -0.1697  0.3930 -0.5452
  722MOL0     C97354   4.645   4.481   6.050 -0.5765  0.3195  0.1294
  722MOL0     C97355   4.744   4.481   5.926  0.6187  0.2753  0.0020
  722MOL0     C97356   4.825   4.352   5.933  1.0237  0.0691 -0.1292
  722MOL0     C97357   4.931   4.326   5.832 -0.1272 -0.3282 -0.5892
  722MOL0     C97358   4.877   4.297   5.690 -0.6862  0.4583  0.1745
  722MOL0     O97359   4.993   4.292   5.599  0.6729  0.3663 -0.0505
  722MOL0     C97360   5.037   4.168   5.554  0.5991 -0.0888 -0.3727
  722MOL0     C97361   5.163   4.122   5.582 -0.2730 -0.4434 -0.5300
  722MOL0     C97362   5.204   3.997   5.539  0.2842  0.8803  0.2368
  722MOL0     C97363   5.110   3.914   5.477  0.2698 -0.1160  0.0305
  722MOL0     C97364   5.143   3.772   5.450  0.2473 -1.1774  0.4349
  722MOL0     O97365   5.274   3.743   5.432  0.5536 -0.1306 -0.0241
  722MOL0     C97366   5.316   3.619   5.418  0.3600 -0.5483 -0.1455
  722MOL0     C97367   5.386   3.591   5.301  0.9651 -0.1469  0.6504
  722MOL0     C97368   5.437   3.467   5.269  0.3429  0.1086  0.0436
  722MOL0     C97369   5.426   3.359   5.356 -0.7394  0.3370  0.0520
  722MOL0     O97370   5.490   3.240   5.320  0.4538 -0.5710  0.0947
  722MOL0     C97371   5.488   3.133   5.418  0.9942 -0.6220  0.4907
  722MOL0     C97372   5.594   3.031   5.371  0.5788 -0.2408 -0.1326
  722MOL0     C97373   5.577   2.910   5.458 -0.5830  0.3357  0.0534
  722MOL0     C97374   5.686   2.801   5.447  0.2087 -0.8732  0.7149
  722MOL0     C97375   5.702   2.740   5.312  0.3524  0.5996  0.7185
  722MOL0     C97376   5.841   2.698   5.276 -0.6645 -0.5908  0.1566
  722MOL0     C97377   5.902   2.588   5.370  0.5992 -0.6378 -0.7877
  722MOL0     C97378   6.037   2.546   5.322  0.2952  0.4325 -0.8144
  722MOL0    Cl97379   6.019   2.452   5.168  0.1625 -0.0531 -0.0189
  722MOL0     C97380   5.355   3.384   5.478  0.4726 -0.0095 -0.1747
  722MOL0     C97381   5.307   3.510   5.511  0.8846  0.4567  0.1229
  722MOL0     O97382   5.049   3.698   5.453 -0.0480 -0.7060 -0.4227
  722MOL0     C97383   4.976   3.962   5.438 -0.0020  0.4389 -0.3061
  722MOL0     C97384   4.941   4.090   5.488 -0.2527 -0.6194  0.9923
  722MOL0     N97385   4.629   4.580   6.146  0.3548  0.3758 -0.2020
  722MOL0     N97386   4.548   4.542   6.228 -0.9719  1.2775  0.2693
  722MOL0     C97387   3.358   4.026   6.071 -0.0271 -0.4427 -0.0188
  722MOL0     C97388   3.273   3.913   6.077  0.3474 -0.3183 -0.5977
  722MOL0     C97389   3.075   3.565   6.321  0.7551  0.0526  0.6466
  722MOL0     C97390   3.128   3.472   6.413  0.3306 -0.2544  0.0864
  722MOL0     C97391   3.045   3.372   6.467 -0.1712  0.1614 -0.1104
  722MOL0     C97392   2.918   3.342   6.424 -0.2903  0.7702 -0.3549
  722MOL0     O97393   2.871   3.224   6.474  0.0997 -0.4421 -0.1983
  722MOL0     C97394   2.733   3.208   6.461 -0.0992 -0.9176  0.3482
  722MOL0     C97395   2.678   3.084   6.520 -0.0472  0.2375  0.7314
  722MOL0     C97396   2.712   3.086   6.666  0.4471 -0.6805 -0.8554
  722MOL0     C97397   2.675   2.955   6.725 -0.0141 -0.7826  0.0909
  722MOL0     C97398   2.531   2.949   6.739  0.8190  0.8742 -0.0782
  722MOL0     C97399   2.406   2.947   6.750 -0.3927 -0.1798 -0.4801
  722MOL0     C97400   2.855   3.443   6.348  0.1822 -0.1614 -0.4004
  722MOL0     C97401   2.937   3.549   6.289 -0.0937  0.6142  0.7825
  722MOL0     C97402   2.876   3.629   6.169  0.4573 -0.4935 -0.3441
  722MOL0     H97403   3.208   3.907   6.405 -3.6249 -3.0447 -1.8334
  722MOL0     H97404   3.373   4.099   6.399  0.4465  0.4887 -0.0738
  722MOL0     H97405   3.649   4.194   6.277 -7.2049  1.2546  4.1336
  722MOL0     H97406   3.622   4.090   6.142  1.6085 -0.5095  1.7352
  722MOL0     H97407   3.639   4.393   6.116  0.6175 -0.5429  0.9844
  722MOL0     H97408   3.590   4.282   5.985  0.6677 -0.7972 -0.2332
  722MOL0     H97409   3.828   4.306   5.938  1.6565  0.3046 -0.1978
  722MOL0     H97410   3.819   4.156   6.027  0.8357  0.3519 -1.2359
  722MOL0     H97411   3.893   4.414   6.149  0.7480  1.2216  0.1037
  722MOL0     H97412   3.879   4.265   6.239  1.8198 -0.0889  0.0535
  722MOL0     H97413   4.053   4.170   6.062  3.0014 -0.0849 -0.1328
  722MOL0     H97414   4.080   4.331   6.010  2.1793  0.0258  0.8155
  722MOL0     H97415   4.115   4.377   6.271  2.1663  2.8460 -0.9370
  722MOL0     H97416   4.156   4.201   6.264  0.6428  0.1454 -1.2627
  722MOL0     H97417   4.264   4.388   6.077 -1.4878  1.2014  2.4168
  722MOL0     H97418   4.332   4.222   6.104  3.3833  2.1236 -1.8364
  722MOL0     H97419   4.341   4.415   6.335 -0.8226 -0.9209  0.3719
  722MOL0     H97420   4.409   4.261   6.314 -0.3808 -1.4595 -0.9100
  722MOL0     H97421   4.565   4.275   6.038  0.3651  0.2249 -0.3550
  722MOL0     H97422   4.699   4.487   5.827  0.1570 -0.3685  0.1663
  722MOL0     H97423   4.809   4.569   5.934  2.2607 -0.6794 -2.0459
  722MOL0     H97424   4.880   4.355   6.027  1.0471  1.6694 -0.1747
  722MOL0     H97425   4.747   4.276   5.931  0.7026  0.3997 -0.1510
  722MOL0     H97426   4.999   4.250   5.871 -2.6658 -2.4477  0.0247
  722MOL0     H97427   4.994   4.415   5.837 -0.6592 -0.0125  1.3853
  722MOL0     H97428   4.821   4.382   5.650  0.8465  0.1817 -2.8045
  722MOL0     H97429   4.822   4.203   5.675  1.0981 -0.6867  0.4602
  722MOL0     H97430   5.235   4.185   5.634 -3.0649  2.1244  0.5047
  722MOL0     H97431   5.306   3.960   5.546 -0.1589 -1.1932 -2.7170
  722MOL0     H97432   5.394   3.674   5.231  0.8011 -1.6688 -1.2733
  722MOL0     H97433   5.495   3.451   5.178  1.6418  2.0186  0.4984
  722MOL0     H97434   5.519   3.173   5.515  0.9014 -1.8105  1.0323
  722MOL0     H97435   5.389   3.087   5.409  0.5529  0.5711 -1.4857
  722MOL0     H97436   5.555   2.992   5.276 -1.1342  0.5567  0.2047
  722MOL0     H97437   5.691   3.080   5.360  0.3172  1.0067  2.5018
  722MOL0     H97438   5.562   2.924   5.565 -0.2029 -0.4369  0.2139
  722MOL0     H97439   5.486   2.859   5.423 -0.9157  1.1880 -0.3537
  722MOL0     H97440   5.676   2.718   5.517 -0.2128  0.7517  2.7096
  722MOL0     H97441   5.782   2.849   5.470 -0.6053  0.8010  0.8127
  722MOL0     H97442   5.656   2.806   5.237  0.1258 -2.4801 -2.1108
  722MOL0     H97443   5.637   2.652   5.312  1.1699 -0.0896 -1.7007
  722MOL0     H97444   5.833   2.668   5.171 -2.4658  3.5762 -1.1298
  722MOL0     H97445   5.904   2.788   5.278 -1.9593  0.3171  1.2084
  722MOL0     H97446   5.830   2.506   5.372  1.1005 -1.1250 -1.6789
  722MOL0     H97447   5.907   2.634   5.469 -4.1254  1.4101 -1.2175
  722MOL0     H97448   6.101   2.632   5.299 -1.5179  2.2678  0.6439
  722MOL0     H97449   6.087   2.474   5.388 -1.0801  0.4783  0.3168
  722MOL0     H97450   5.339   3.304   5.550 -1.4387  0.6758  0.2259
  722MOL0     H97451   5.261   3.522   5.609  0.1863 -2.0548  0.1928
  722MOL0     H97452   4.903   3.892   5.399  0.3504  0.7863 -1.6419
  722MOL0     H97453   4.841   4.130   5.473 -0.4286 -0.4044  2.5781
  722MOL0     H97454   3.386   4.068   5.975  1.6451  3.0571  1.8081
  722MOL0     H97455   3.257   3.848   5.992  2.3712 -2.0911  0.2750
  722MOL0     H97456   3.231   3.480   6.444  1.9416 -3.8868 -3.4123
  722MOL0     H97457   3.104   3.304   6.529  1.3427  1.9233  0.4873
  722MOL0     H97458   2.704   3.218   6.355  3.0212 -0.8463 -0.5936
  722MOL0     H97459   2.687   3.292   6.514 -0.1446 -1.0668  0.5468
  722MOL0     H97460   2.717   2.995   6.471  0.3582  0.9447 -0.2517
  722MOL0     H97461   2.571   3.101   6.500  0.6173  1.6699 -1.9511
  722MOL0     H97462   2.673   3.175   6.716 -2.3359 -1.7314 -0.9807
  722MOL0     H97463   2.817   3.072   6.694  0.2292  0.5153  0.6597
  722MOL0     H97464   2.723   2.874   6.670 -0.0105 -0.1295 -0.8956
  722MOL0     H97465   2.728   2.948   6.821  2.8322 -3.8167 -1.4777
  722MOL0     H97466   2.300   2.948   6.766  0.0766 -1.5523  4.2009
  722MOL0     H97467   2.752   3.442   6.313 -0.0031 -2.2509  0.0478
  722MOL0     H97468   2.893   3.736   6.173 -1.3058 -0.2281  2.1338
  722MOL0     H97469   2.900   3.593   6.068 -1.1336  2.6917 -2.0110
  722MOL0     H97470   2.767   3.619   6.167  0.5250 -1.5781 -2.4761
  723MOL0     O97471  11.287   9.914   7.162 -0.5349  0.2708 -0.4114
  723MOL0     C97472  11.277   9.796   7.140  0.6485 -0.1204 -0.8129
  723MOL0     O97473  11.368   9.705   7.171  0.4741  0.0870 -0.9338
  723MOL0     C97474  11.492   9.749   7.196 -0.2704 -0.4955  0.2405
  723MOL0     C97475  11.526   9.739   7.329 -0.2833 -0.2947  0.6736
  723MOL0     C97476  11.653   9.790   7.377  0.5596 -0.8258  0.5458
  723MOL0     C97477  11.731   9.858   7.291 -0.0449 -0.8773 -0.3837
  723MOL0     O97478  11.846   9.902   7.343  0.7094 -0.4307 -0.0407
  723MOL0     C97479  11.858  10.047   7.351  0.7721 -0.2854 -0.4990
  723MOL0     C97480  11.916  10.084   7.484 -0.0376  0.1142 -0.3702
  723MOL0     C97481  12.048  10.015   7.515 -0.1448 -0.7544 -1.0491
  723MOL0     C97482  12.163  10.084   7.447  0.4365  1.0049 -0.8253
  723MOL0     C97483  12.295  10.026   7.484 -1.0651 -0.3984 -0.0819
  723MOL0     C97484  12.419  10.080   7.411  0.6377 -1.0728  1.0169
  723MOL0     C97485  12.542  10.022   7.463 -0.4682  0.8896 -0.5135
  723MOL0     C97486  12.671  10.064   7.393 -0.0801 -0.6901 -1.0245
  723MOL0     N97487  12.784   9.993   7.454  0.0525  0.2659  0.7348
  723MOL0     C97488  12.810   9.857   7.439  0.4191 -1.4106 -0.6917
  723MOL0     C97489  12.928   9.841   7.497 -0.0519 -0.8867  0.1968
  723MOL0     C97490  13.021   9.729   7.467  0.0510 -0.5520 -0.5939
  723MOL0     C97491  13.159   9.764   7.402  0.0923  0.2641  0.0378
  723MOL0     C97492  13.148   9.823   7.263  0.2178 -1.1292 -0.4310
  723MOL0     C97493  13.278   9.875   7.219 -0.7037  0.0316  0.9820
  723MOL0     O97494  13.274   9.913   7.076 -0.2369 -0.2281  0.2133
  723MOL0     C97495  13.384   9.986   7.029  0.4088 -0.5160 -1.4552
  723MOL0     C97496  13.514   9.973   7.073  0.1419 -0.7957 -0.5566
  723MOL0     C97497  13.617  10.059   7.025  0.1650  0.5915  0.5029
  723MOL0     C97498  13.597  10.124   6.906 -0.6352  0.6480  0.3049
  723MOL0     C97499  13.715  10.203   6.845 -0.2548  0.5370  0.4875
  723MOL0     O97500  13.681  10.303   6.771 -0.1687  0.0760  0.1530
  723MOL0     C97501  13.765  10.364   6.677  0.2618 -0.8260 -0.7133
  723MOL0     C97502  13.867  10.293   6.609  0.1384 -0.0031  0.8457
  723MOL0     C97503  13.951  10.348   6.519 -0.2803  0.0591  0.5493
  723MOL0     C97504  13.948  10.486   6.493 -0.0071  0.0988 -0.2064
  723MOL0     O97505  14.023  10.551   6.396  0.4725 -0.4693  0.0099
  723MOL0     C97506  14.125  10.468   6.335  0.5447 -0.0698 -0.3578
  723MOL0     C97507  14.192  10.546   6.228  0.4729 -1.2244  0.0279
  723MOL0     C97508  14.337  10.507   6.209  0.9783 -0.2027 -0.2707
  723MOL0     C97509  14.416  10.604   6.116 -0.3850  0.3398  0.0627
  723MOL0     C97510  14.569  10.604   6.145  0.8911 -0.1184 -0.0318
  723MOL0     C97511  14.634  10.471   6.091 -0.3542 -0.8875 -0.6721
  723MOL0     C97512  14.782  10.472   6.127 -0.1641  0.0727  0.2901
  723MOL0     C97513  14.840  10.342   6.072  0.5685  0.2992 -0.2461
  723MOL0    Cl97514  15.004  10.334   6.121 -0.3887 -0.8867  0.0885
  723MOL0     C97515  13.852  10.562   6.554 -0.6859  0.1427  0.2271
  723MOL0     C97516  13.764  10.504   6.652 -0.2804  0.4138  0.1964
  723MOL0     O97517  13.828  10.161   6.860  0.1934  0.3169  0.6455
  723MOL0     C97518  13.472  10.130   6.846  0.0755 -0.3416 -0.4980
  723MOL0     C97519  13.369  10.065   6.919 -0.0644  0.2630  0.5886
  723MOL0     N97520  12.958   9.949   7.566 -0.3347 -0.1994  0.1131
  723MOL0     N97521  12.870  10.046   7.541  0.0075 -0.6287 -1.1652
  723MOL0     C97522  11.696   9.861   7.153  0.0243 -0.5342 -0.3163
  723MOL0     C97523  11.580   9.803   7.101  0.8018  0.2884  0.9918
  723MOL0     C97524  11.163   9.746   7.079  0.4702 -0.4435 -0.6106
  723MOL0     C97525  11.118   9.812   6.969 -0.1533  0.2304 -0.4053
  723MOL0     C97526  10.992   9.781   6.907 -0.4244 -0.3362 -0.6287
  723MOL0     C97527  10.922   9.671   6.954 -0.5608 -0.0468  0.2157
  723MOL0     O97528  10.796   9.625   6.915  0.6186 -0.5232 -0.2583
  723MOL0     C97529  10.750   9.660   6.780 -0.1455 -0.9620 -1.5722
  723MOL0     C97530  10.703   9.811   6.764  0.8139 -0.2362 -0.7543
  723MOL0     C97531  10.550   9.815   6.768  0.1598 -0.1975 -0.1727
  723MOL0     C97532  10.496   9.959   6.743 -0.0013  0.1178  1.3550
  723MOL0     C97533  10.523  10.053   6.850  0.3333  0.0051  0.0474
  723MOL0     C97534  10.571  10.122   6.939 -0.1277 -0.5525  0.6891
  723MOL0     C97535  10.979   9.596   7.057  0.4587 -0.4638  0.4170
  723MOL0     C97536  11.091   9.633   7.127  0.4850 -0.0685 -0.4436
  723MOL0     C97537  11.114   9.551   7.249 -0.0641 -0.2175  0.0196
  723MOL0     H97538  11.454   9.685   7.390 -0.6081 -0.9041 -0.2299
  723MOL0     H97539  11.682   9.764   7.478  0.7084 -2.1342  0.1836
  723MOL0     H97540  11.914  10.092   7.269 -0.1898  1.8118 -0.0717
  723MOL0     H97541  11.762  10.099   7.344  0.8400 -0.2977 -1.8135
  723MOL0     H97542  11.842  10.061   7.562  0.9332  0.6702  0.7472
  723MOL0     H97543  11.926  10.193   7.489 -3.0444  0.4598  0.1823
  723MOL0     H97544  12.048   9.906   7.505  0.7734 -1.1031  1.8949
  723MOL0     H97545  12.061  10.023   7.623  1.0483 -2.0536 -1.0774
  723MOL0     H97546  12.157  10.069   7.339 -0.0836  0.9776 -0.7928
  723MOL0     H97547  12.162  10.192   7.463 -3.9034  0.9412  0.6107
  723MOL0     H97548  12.293  10.029   7.594 -1.6878  1.6218 -0.1106
  723MOL0     H97549  12.299   9.920   7.457  2.6257 -0.1602 -1.0232
  723MOL0     H97550  12.411  10.060   7.304  2.4017  0.9242  0.4598
  723MOL0     H97551  12.417  10.189   7.411  0.5774 -1.0070 -1.7026
  723MOL0     H97552  12.542   9.913   7.467 -0.9574  0.9090  0.1978
  723MOL0     H97553  12.558  10.056   7.566  1.5694  1.8808 -1.0957
  723MOL0     H97554  12.676  10.038   7.287  0.7153  1.3080 -1.5263
  723MOL0     H97555  12.676  10.173   7.400 -1.0303 -0.7282  0.9118
  723MOL0     H97556  12.764   9.793   7.364 -0.3980 -0.2247 -1.2174
  723MOL0     H97557  13.053   9.693   7.565  0.2683  0.3754 -0.3132
  723MOL0     H97558  12.973   9.653   7.404  1.3654  0.1253 -2.5351
  723MOL0     H97559  13.214   9.824   7.475  3.7367 -0.2036 -2.1268
  723MOL0     H97560  13.220   9.673   7.403 -1.4019 -0.8793 -2.6378
  723MOL0     H97561  13.075   9.903   7.252 -2.1915 -3.0247  0.8780
  723MOL0     H97562  13.109   9.744   7.198 -3.0079  0.0603 -0.1279
  723MOL0     H97563  13.342   9.786   7.222  0.4158  0.5354 -2.7289
  723MOL0     H97564  13.312   9.959   7.279 -1.9154  1.3020 -0.0491
  723MOL0     H97565  13.541   9.910   7.158 -3.4856 -0.4317  1.0905
  723MOL0     H97566  13.708  10.078   7.080  1.8834 -2.9029 -0.8052
  723MOL0     H97567  13.878  10.187   6.627 -0.9307 -0.6422 -1.7227
  723MOL0     H97568  14.020  10.279   6.470 -1.0838  0.3580 -1.0628
  723MOL0     H97569  14.195  10.429   6.409  0.7465  0.9465  0.0086
  723MOL0     H97570  14.086  10.376   6.291  1.4357 -0.7076  0.1585
  723MOL0     H97571  14.139  10.529   6.133  3.4581 -1.7648 -1.6607
  723MOL0     H97572  14.181  10.651   6.254  0.3723 -0.0351 -4.0475
  723MOL0     H97573  14.381  10.521   6.308 -0.9715 -0.7294  0.7097
  723MOL0     H97574  14.346  10.409   6.160 -3.0411 -0.6740 -0.3357
  723MOL0     H97575  14.377  10.702   6.144  0.1536 -0.0720  2.5444
  723MOL0     H97576  14.389  10.589   6.011 -0.6873  2.8821 -0.2890
  723MOL0     H97577  14.576  10.614   6.254 -2.8082 -3.7870  0.8257
  723MOL0     H97578  14.612  10.686   6.087 -0.7575 -0.8968 -2.5037
  723MOL0     H97579  14.603  10.383   6.148  0.6950 -2.4830 -2.4149
  723MOL0     H97580  14.609  10.449   5.987  1.2467  0.9977 -1.5131
  723MOL0     H97581  14.783  10.483   6.236 -1.5492 -1.7128  0.5366
  723MOL0     H97582  14.829  10.554   6.073 -1.4282  0.0568 -0.8778
  723MOL0     H97583  14.778  10.255   6.095  1.4050 -0.4189 -0.6327
  723MOL0     H97584  14.835  10.342   5.963  0.5919 -1.3866 -0.2836
  723MOL0     H97585  13.850  10.667   6.529 -1.2725  0.3965  1.2742
  723MOL0     H97586  13.688  10.569   6.694 -1.4234  0.1076 -1.2930
  723MOL0     H97587  13.446  10.188   6.758 -1.1779 -0.7256 -0.3935
  723MOL0     H97588  13.271  10.064   6.873  0.9918  0.8238 -1.8219
  723MOL0     H97589  11.779   9.872   7.085  0.3780 -0.4227  0.1340
  723MOL0     H97590  11.563   9.803   6.994  1.1544  1.9271  0.9049
  723MOL0     H97591  11.171   9.901   6.938  0.6764 -0.7346 -1.8610
  723MOL0     H97592  10.967   9.847   6.825 -1.6700  0.2509  0.1936
  723MOL0     H97593  10.674   9.587   6.750 -0.2679 -0.2604 -3.1007
  723MOL0     H97594  10.838   9.648   6.717  1.7594 -1.6229  1.0759
  723MOL0     H97595  10.748   9.860   6.677  0.2015  0.8267 -0.4897
  723MOL0     H97596  10.740   9.874   6.846  2.9131  2.1100 -3.3239
  723MOL0     H97597  10.514   9.769   6.860 -2.4667  0.1622 -0.9165
  723MOL0     H97598  10.514   9.752   6.686  1.0886 -0.8383 -0.1015
  723MOL0     H97599  10.548   9.998   6.655 -0.7923 -0.8156  0.4475
  723MOL0     H97600  10.388   9.971   6.730  0.0222  1.2803  2.0971
  723MOL0     H97601  10.604  10.193   7.012 -0.0328 -0.0276  0.1394
  723MOL0     H97602  10.933   9.506   7.096 -0.1257  0.5033  2.0658
  723MOL0     H97603  11.057   9.605   7.325 -0.3206 -0.8401  0.2789
  723MOL0     H97604  11.061   9.455   7.251  1.3817 -1.0457  0.5028
  723MOL0     H97605  11.218   9.545   7.283  1.1660  1.3060 -3.0834
  724MOL0     O97606   9.338   8.177   5.626  0.0745  0.5398 -0.3490
  724MOL0     C97607   9.346   8.090   5.543 -0.1108  0.6771 -0.3444
  724MOL0     O97608   9.443   8.078   5.454 -0.2537  0.4418 -0.0611
  724MOL0     C97609   9.503   8.194   5.409  0.7932 -0.3836  0.3426
  724MOL0     C97610   9.585   8.268   5.491 -0.1661  1.0721  0.2122
  724MOL0     C97611   9.635   8.384   5.445  0.7993 -0.5048 -0.0853
  724MOL0     C97612   9.607   8.435   5.321 -0.2315  0.5257  1.5051
  724MOL0     O97613   9.665   8.552   5.297  0.6781 -0.0229 -0.1253
  724MOL0     C97614   9.705   8.577   5.166  0.1354 -0.8039 -0.6102
  724MOL0     C97615   9.813   8.693   5.158 -0.2207  0.1777  0.0354
  724MOL0     C97616   9.874   8.718   5.021 -0.3133 -0.0829  0.2390
  724MOL0     C97617   9.970   8.843   5.027 -0.6681 -0.1252  0.6309
  724MOL0     C97618  10.018   8.880   4.884  0.9906  0.0061  0.9972
  724MOL0     C97619  10.105   8.781   4.802 -0.3842 -0.8929 -0.3490
  724MOL0     C97620  10.131   8.824   4.659  0.1311 -0.8396 -0.1285
  724MOL0     C97621  10.208   8.708   4.584  0.0351  0.5925 -0.4782
  724MOL0     N97622  10.350   8.709   4.618 -0.1917 -0.3564  0.2606
  724MOL0     C97623  10.421   8.616   4.691  0.5925 -0.9521 -0.0956
  724MOL0     C97624  10.545   8.667   4.702  0.1199  0.2188 -0.3421
  724MOL0     C97625  10.651   8.612   4.791 -0.0464  0.3883 -0.0097
  724MOL0     C97626  10.632   8.636   4.944  0.3837  0.5799 -0.1104
  724MOL0     C97627  10.612   8.784   4.966 -0.4134  0.0671  0.4017
  724MOL0     C97628  10.724   8.874   4.912 -0.3947 -0.6373 -0.0242
  724MOL0     O97629  10.743   8.989   4.994  0.2913 -0.0226 -0.3531
  724MOL0     C97630  10.822   9.094   4.953  0.0283 -0.3438  0.6437
  724MOL0     C97631  10.830   9.209   5.028  0.0666  0.1469 -0.0623
  724MOL0     C97632  10.912   9.322   5.000  0.2213  0.1424  0.3316
  724MOL0     C97633  10.985   9.327   4.881 -0.1607  0.1848  0.0737
  724MOL0     C97634  11.068   9.443   4.856 -0.4726 -0.4740 -0.0825
  724MOL0     O97635  11.127   9.440   4.726 -0.1422 -0.4272 -0.0043
  724MOL0     C97636  11.230   9.524   4.690 -0.7659  0.6724 -0.3441
  724MOL0     C97637  11.240   9.653   4.737  0.2410 -0.1168 -0.7906
  724MOL0     C97638  11.350   9.739   4.690 -0.9200  1.5656  0.4847
  724MOL0     C97639  11.441   9.685   4.589 -0.6844 -0.5586  0.0028
  724MOL0     O97640  11.546   9.761   4.540  0.9916  0.6197 -0.3428
  724MOL0     C97641  11.617   9.838   4.627  0.4686 -0.8235  0.4630
  724MOL0     C97642  11.685   9.959   4.543  0.2874  0.9135 -0.3908
  724MOL0     C97643  11.811  10.020   4.627  0.2445  0.7247  0.9997
  724MOL0     C97644  11.927   9.925   4.622  0.1408 -0.1700  1.0001
  724MOL0     C97645  12.075   9.987   4.632 -1.0184 -0.5863  0.2410
  724MOL0     C97646  12.109  10.081   4.520  0.7438 -0.9225 -0.2744
  724MOL0     C97647  12.257  10.073   4.501  0.1209  0.0864  0.5681
  724MOL0     C97648  12.304  10.198   4.429  0.3314  0.3667  0.4675
  724MOL0    Cl97649  12.334  10.331   4.548  0.3400  0.2242 -0.3323
  724MOL0     C97650  11.424   9.558   4.544 -0.5977 -0.1146 -0.8111
  724MOL0     C97651  11.326   9.476   4.597 -0.0301  0.3746 -0.1122
  724MOL0     O97652  11.071   9.538   4.933 -0.0244  0.4026  0.1835
  724MOL0     C97653  10.971   9.217   4.794  1.4051 -0.4311  1.0027
  724MOL0     C97654  10.891   9.102   4.826  0.3596 -0.0828  0.3445
  724MOL0     N97655  10.558   8.780   4.623  0.1786  0.9323  0.1770
  724MOL0     N97656  10.441   8.800   4.569 -0.3293 -0.4104  0.2824
  724MOL0     C97657   9.525   8.361   5.232  0.3083  0.1555  0.7897
  724MOL0     C97658   9.470   8.239   5.278 -0.2251 -1.0840  0.2983
  724MOL0     C97659   9.254   7.968   5.558  0.0875 -0.2826  0.5213
  724MOL0     C97660   9.124   7.987   5.623  0.2914  0.6799  1.0477
  724MOL0     C97661   9.030   7.888   5.620  0.8691  0.9226 -0.0962
  724MOL0     C97662   9.060   7.755   5.574  0.1037  0.2126  0.2644
  724MOL0     O97663   8.973   7.646   5.586  0.0304 -0.7241 -0.2905
  724MOL0     C97664   8.836   7.672   5.575 -0.9950  0.4559  0.0455
  724MOL0     C97665   8.796   7.754   5.451 -0.1239  0.6302  0.2092
  724MOL0     C97666   8.641   7.744   5.427 -0.1665 -0.1363  0.2256
  724MOL0     C97667   8.556   7.718   5.551  0.6681  0.6655  0.2017
  724MOL0     C97668   8.421   7.752   5.519  0.8698  0.5899 -0.8910
  724MOL0     C97669   8.301   7.778   5.508  0.1112  0.5038 -0.1397
  724MOL0     C97670   9.189   7.730   5.519 -0.6331  0.3908 -0.6680
  724MOL0     C97671   9.276   7.838   5.514 -0.2251 -0.5076 -0.1852
  724MOL0     C97672   9.411   7.802   5.455  0.0592  0.1941 -0.9654
  724MOL0     H97673   9.616   8.220   5.583  0.3788 -0.0980 -0.5548
  724MOL0     H97674   9.690   8.440   5.520 -4.1412  2.1345  1.9647
  724MOL0     H97675   9.745   8.489   5.115  0.7513  0.1067 -1.7339
  724MOL0     H97676   9.631   8.626   5.102  0.0692  0.8775  0.6993
  724MOL0     H97677   9.885   8.687   5.240  0.0013 -1.2317 -0.2420
  724MOL0     H97678   9.760   8.787   5.172 -0.2312  0.2086 -0.1984
  724MOL0     H97679   9.797   8.724   4.944  0.1611 -1.4420 -0.3754
  724MOL0     H97680   9.933   8.629   4.996  1.0611  0.8692 -0.0425
  724MOL0     H97681   9.928   8.935   5.069 -0.4274  0.4779 -0.4233
  724MOL0     H97682  10.057   8.804   5.079  0.6947 -1.4241 -2.3816
  724MOL0     H97683   9.927   8.910   4.832  1.3620 -1.8520 -0.8549
  724MOL0     H97684  10.077   8.972   4.896  3.5115 -1.1551 -1.2242
  724MOL0     H97685  10.196   8.765   4.862 -0.3042  3.5478  1.1421
  724MOL0     H97686  10.048   8.691   4.777 -2.3905  0.2270 -0.0256
  724MOL0     H97687  10.192   8.914   4.650  0.2638 -0.3721  3.7325
  724MOL0     H97688  10.035   8.838   4.608 -0.0999 -2.9537 -0.3659
  724MOL0     H97689  10.177   8.605   4.603  1.1426  0.3317 -0.0362
  724MOL0     H97690  10.198   8.732   4.478 -0.8401 -1.2967 -0.8586
  724MOL0     H97691  10.374   8.527   4.733 -2.9881  1.4898  1.5944
  724MOL0     H97692  10.653   8.506   4.763  0.7215  0.3912  0.0080
  724MOL0     H97693  10.742   8.656   4.751 -0.2551 -0.0503 -0.9866
  724MOL0     H97694  10.549   8.575   4.981  0.7853  0.1015  0.0051
  724MOL0     H97695  10.711   8.601   5.010  1.0362  3.7910  0.9747
  724MOL0     H97696  10.598   8.791   5.075 -0.4124 -3.2851  0.7002
  724MOL0     H97697  10.521   8.816   4.914 -0.4519 -1.8060 -0.7791
  724MOL0     H97698  10.714   8.911   4.810  3.0534  2.7767  0.6335
  724MOL0     H97699  10.823   8.827   4.921 -0.5616 -1.0326 -0.2429
  724MOL0     H97700  10.760   9.203   5.110 -0.5250 -1.8871 -0.6560
  724MOL0     H97701  10.913   9.408   5.066  0.3729 -1.0841  1.9656
  724MOL0     H97702  11.175   9.690   4.815 -2.2449  1.4444 -3.4262
  724MOL0     H97703  11.354   9.844   4.718  0.0528  1.3394  1.2555
  724MOL0     H97704  11.559   9.885   4.707 -0.8686  0.9188 -1.4260
  724MOL0     H97705  11.701   9.776   4.660 -1.4372 -1.9519  3.6398
  724MOL0     H97706  11.734   9.923   4.452  2.9771 -2.9289  2.2380
  724MOL0     H97707  11.617  10.041   4.518 -1.3742  0.0112  0.9914
  724MOL0     H97708  11.834  10.119   4.585 -2.7457  2.7992  3.7666
  724MOL0     H97709  11.779  10.037   4.730 -0.3234  2.2588  0.5969
  724MOL0     H97710  11.932   9.873   4.526  0.4982 -5.0366  3.3677
  724MOL0     H97711  11.922   9.842   4.693  2.3740  0.3560  1.8656
  724MOL0     H97712  12.135   9.896   4.627 -2.2568 -1.4782  1.0155
  724MOL0     H97713  12.098  10.036   4.727 -0.7161  0.3052 -0.2802
  724MOL0     H97714  12.060  10.056   4.425 -1.5441 -3.4671  1.4204
  724MOL0     H97715  12.087  10.184   4.548  2.1023 -0.5044 -0.6441
  724MOL0     H97716  12.291   9.978   4.458  0.4098 -0.8486  2.7720
  724MOL0     H97717  12.307  10.074   4.598  2.8427  0.9428 -0.7243
  724MOL0     H97718  12.397  10.186   4.372 -0.2201  3.8212 -1.4670
  724MOL0     H97719  12.231  10.227   4.352  0.1938 -1.2489 -0.0562
  724MOL0     H97720  11.487   9.518   4.466 -0.8713 -4.7623  1.0747
  724MOL0     H97721  11.335   9.372   4.568  4.8924  0.8131 -1.0352
  724MOL0     H97722  11.029   9.226   4.703  1.3300 -1.1349  0.8802
  724MOL0     H97723  10.894   9.029   4.746  0.7174  1.0903 -0.7404
  724MOL0     H97724   9.487   8.391   5.134 -3.0613  0.5389  2.0783
  724MOL0     H97725   9.395   8.186   5.221  0.8673  0.5466 -2.9116
  724MOL0     H97726   9.093   8.081   5.667 -1.2566  0.4320  0.5297
  724MOL0     H97727   8.938   7.902   5.675 -0.3926  1.0972 -2.1658
  724MOL0     H97728   8.800   7.728   5.661 -2.9012 -2.1097  1.0515
  724MOL0     H97729   8.793   7.572   5.565  1.7018 -0.8781  0.8600
  724MOL0     H97730   8.853   7.723   5.364  3.4486  1.4334  2.0915
  724MOL0     H97731   8.816   7.860   5.466  1.8013  0.3184  0.0486
  724MOL0     H97732   8.616   7.671   5.350  0.4204  0.7983 -0.8951
  724MOL0     H97733   8.614   7.841   5.383 -2.7878 -1.2582 -0.8089
  724MOL0     H97734   8.565   7.611   5.573  1.3459  0.7081  0.1815
  724MOL0     H97735   8.586   7.788   5.630  3.0132 -1.7367  1.6342
  724MOL0     H97736   8.195   7.794   5.505  0.0809  0.2588 -0.5818
  724MOL0     H97737   9.233   7.634   5.496 -0.6637  0.5580 -1.4383
  724MOL0     H97738   9.425   7.858   5.362  1.8841  5.0055  1.8594
  724MOL0     H97739   9.493   7.829   5.522 -2.0011  2.3957  0.8407
  724MOL0     H97740   9.422   7.694   5.439  0.6585 -0.1660  1.5706
  725MOL0     O97741   5.507   3.024   7.481  0.2232 -0.5946  0.0367
  725MOL0     C97742   5.492   2.971   7.589  0.7844  0.0120  0.2103
  725MOL0     O97743   5.583   2.903   7.658 -0.1718  0.2179 -0.0838
  725MOL0     C97744   5.683   2.847   7.583  0.1576  0.0934  0.0100
  725MOL0     C97745   5.676   2.712   7.554 -0.0910  0.4843  0.0733
  725MOL0     C97746   5.768   2.639   7.477  0.6708  0.0137 -0.1517
  725MOL0     C97747   5.869   2.712   7.416  0.0260 -0.4658 -0.2670
  725MOL0     O97748   5.969   2.662   7.336 -0.6298  0.0053 -0.3146
  725MOL0     C97749   5.944   2.533   7.268  0.0472 -0.0526  0.6141
  725MOL0     C97750   6.061   2.503   7.181 -0.0090  0.5688  0.1410
  725MOL0     C97751   6.052   2.360   7.126  0.2694  0.6928  0.2291
  725MOL0     C97752   6.175   2.317   7.055 -0.5698  1.3186  0.0254
  725MOL0     C97753   6.173   2.177   6.997 -1.0926 -0.1868 -0.1223
  725MOL0     C97754   6.068   2.155   6.893 -0.6107  0.0934  0.3153
  725MOL0     C97755   6.082   2.010   6.843  0.3997  0.9531  0.7340
  725MOL0     C97756   6.219   1.976   6.767 -0.7071  0.5718 -0.4225
  725MOL0     N97757   6.196   1.837   6.705  0.4653 -0.0139  0.0211
  725MOL0     C97758   6.121   1.732   6.753 -0.2283  0.0090 -0.4271
  725MOL0     C97759   6.149   1.624   6.669  0.4045 -0.1567 -0.2970
  725MOL0     C97760   6.102   1.491   6.680  0.2274  0.0177 -0.0651
  725MOL0     C97761   5.956   1.461   6.695  0.8887  0.2456  0.1695
  725MOL0     C97762   5.906   1.367   6.585  0.1709  0.1448  0.2604
  725MOL0     C97763   5.755   1.347   6.594 -0.3577  0.0322 -0.8163
  725MOL0     O97764   5.688   1.473   6.570 -0.5901  0.7833  0.2845
  725MOL0     C97765   5.550   1.478   6.592  0.2804  0.5993  0.3844
  725MOL0     C97766   5.466   1.529   6.491  0.5551 -0.3918  0.2549
  725MOL0     C97767   5.329   1.532   6.497  0.2935  0.7950  1.1466
  725MOL0     C97768   5.259   1.481   6.609 -0.1804 -0.0025  1.0807
  725MOL0     C97769   5.106   1.496   6.620  0.0635 -0.2622 -0.7627
  725MOL0     O97770   5.052   1.597   6.540  0.2546  0.1056 -0.3814
  725MOL0     C97771   4.917   1.601   6.542  0.3948 -0.0985 -0.6881
  725MOL0     C97772   4.846   1.710   6.603  0.3778  0.7368 -0.0813
  725MOL0     C97773   4.710   1.728   6.577  0.2799 -0.1358 -0.0858
  725MOL0     C97774   4.632   1.648   6.495  0.4455  0.2169  0.4420
  725MOL0     O97775   4.497   1.682   6.476  0.3916  0.9057  0.4011
  725MOL0     C97776   4.423   1.634   6.365  0.4006  0.2222 -0.0692
  725MOL0     C97777   4.399   1.728   6.251 -0.3663  0.7680  0.2549
  725MOL0     C97778   4.311   1.673   6.128 -0.1861 -0.6052 -0.7527
  725MOL0     C97779   4.169   1.669   6.180 -0.1478  0.3355  0.6372
  725MOL0     C97780   4.073   1.644   6.063 -0.3259 -0.9952  1.3234
  725MOL0     C97781   3.937   1.601   6.124 -0.9017 -0.1477 -1.0762
  725MOL0     C97782   3.818   1.595   6.020  0.0411  0.0472 -0.0933
  725MOL0     C97783   3.827   1.477   5.916 -0.6170 -0.0245 -0.2532
  725MOL0    Cl97784   3.661   1.411   5.863  0.1275  0.2040 -0.1387
  725MOL0     C97785   4.696   1.532   6.451 -0.3419 -0.2837  0.0185
  725MOL0     C97786   4.837   1.515   6.470  0.0691 -0.0465  0.5659
  725MOL0     O97787   5.052   1.440   6.712  0.0880 -0.6283 -0.1943
  725MOL0     C97788   5.344   1.424   6.706  0.5426 -0.6008  0.2127
  725MOL0     C97789   5.484   1.422   6.706  0.3775  0.4870  0.5218
  725MOL0     N97790   6.241   1.668   6.586  0.4544  0.1130  0.2986
  725MOL0     N97791   6.268   1.792   6.597  0.2967 -0.1555  0.0071
  725MOL0     C97792   5.871   2.851   7.434  0.7490 -0.6308 -0.1819
  725MOL0     C97793   5.778   2.916   7.514 -0.3749 -0.0884  0.1946
  725MOL0     C97794   5.363   3.009   7.657 -0.8956  0.3118 -0.5879
  725MOL0     C97795   5.372   3.070   7.779 -1.4133  0.1577 -1.3781
  725MOL0     C97796   5.262   3.123   7.845  0.9729 -0.2204 -0.5391
  725MOL0     C97797   5.139   3.120   7.785 -0.0609  0.2203 -0.0684
  725MOL0     O97798   5.024   3.159   7.839  0.0115  0.7851  0.4126
  725MOL0     C97799   5.020   3.164   7.989  0.2303 -0.4459  0.7367
  725MOL0     C97800   4.879   3.191   8.045 -0.0811 -0.2483 -0.5442
  725MOL0     C97801   4.875   3.215   8.196  0.6260 -0.2593 -0.0541
  725MOL0     C97802   4.734   3.222   8.252 -0.4554 -0.6626 -0.2129
  725MOL0     C97803   4.677   3.089   8.277 -0.7378  1.0803 -0.1819
  725MOL0     C97804   4.642   2.969   8.288  0.5386 -0.6802  0.0249
  725MOL0     C97805   5.134   3.071   7.658  0.0371 -0.2763 -0.6405
  725MOL0     C97806   5.239   3.017   7.593 -0.3690  0.3265 -0.0630
  725MOL0     C97807   5.217   2.957   7.461  0.0485 -0.2092 -0.4848
  725MOL0     H97808   5.597   2.647   7.591  1.1294 -0.3482  1.3349
  725MOL0     H97809   5.748   2.532   7.478  1.4460 -0.1523  1.2524
  725MOL0     H97810   5.934   2.455   7.344  0.4006 -0.2394  0.4725
  725MOL0     H97811   5.857   2.522   7.202  2.1768 -2.0393 -2.1092
  725MOL0     H97812   6.156   2.503   7.234  0.8038 -0.9079 -1.2213
  725MOL0     H97813   6.062   2.578   7.101 -0.3974  1.7611  1.2270
  725MOL0     H97814   5.964   2.359   7.061 -0.5915  1.0963  1.3427
  725MOL0     H97815   6.027   2.286   7.203  0.2121 -1.1555 -1.4645
  725MOL0     H97816   6.179   2.385   6.969 -2.7702 -0.7533 -1.8457
  725MOL0     H97817   6.264   2.336   7.116 -0.6651 -0.3180  0.7092
  725MOL0     H97818   6.270   2.154   6.953 -1.3492 -2.4492  0.3403
  725MOL0     H97819   6.148   2.103   7.074  0.0058 -0.5728 -0.1188
  725MOL0     H97820   5.968   2.181   6.929 -0.5603 -0.8657  1.2068
  725MOL0     H97821   6.096   2.222   6.811 -1.3158 -0.4757 -0.3953
  725MOL0     H97822   5.997   1.989   6.777  1.3992  2.0612 -0.9799
  725MOL0     H97823   6.069   1.943   6.929  3.2865 -0.5340  0.1447
  725MOL0     H97824   6.266   2.040   6.691 -1.6549  1.3430 -0.3721
  725MOL0     H97825   6.299   1.984   6.841  1.0245  0.2392 -2.1620
  725MOL0     H97826   6.064   1.730   6.845  2.4874  0.7929  1.4050
  725MOL0     H97827   6.132   1.462   6.579  2.5956 -0.4520  0.7066
  725MOL0     H97828   6.162   1.436   6.753 -0.3128 -0.0357  0.3473
  725MOL0     H97829   5.936   1.423   6.796  1.5382  0.1117  0.2498
  725MOL0     H97830   5.901   1.556   6.696  1.8770  0.8345 -0.0782
  725MOL0     H97831   5.954   1.269   6.598 -1.2077 -0.3568  2.0080
  725MOL0     H97832   5.920   1.411   6.486 -0.9034  1.6568  0.7555
  725MOL0     H97833   5.727   1.300   6.688  0.1753 -0.2014 -0.7678
  725MOL0     H97834   5.716   1.276   6.520 -0.6813 -1.0381  0.3549
  725MOL0     H97835   5.517   1.583   6.412  0.3535 -4.3995 -2.9500
  725MOL0     H97836   5.275   1.594   6.426 -1.1710 -1.4098  0.2619
  725MOL0     H97837   4.901   1.786   6.658  2.4417  0.1147 -1.1684
  725MOL0     H97838   4.655   1.802   6.635 -0.6111 -1.3401  0.6485
  725MOL0     H97839   4.466   1.539   6.332 -0.1846 -0.0317 -0.1210
  725MOL0     H97840   4.326   1.603   6.405  1.7699 -0.3827  3.0702
  725MOL0     H97841   4.360   1.822   6.289 -0.8594  0.5706  0.2357
  725MOL0     H97842   4.496   1.765   6.214  1.1589 -1.0163  2.2382
  725MOL0     H97843   4.314   1.737   6.039 -1.1105  1.4265  0.6108
  725MOL0     H97844   4.343   1.571   6.103  1.0816 -0.4411  0.1316
  725MOL0     H97845   4.145   1.765   6.227  0.5051  0.6227  0.3956
  725MOL0     H97846   4.159   1.593   6.258  0.4549  1.6941  2.1054
  725MOL0     H97847   4.115   1.563   6.003 -2.1139  0.6116 -2.4584
  725MOL0     H97848   4.072   1.734   6.001  1.6010 -1.8960 -0.1174
  725MOL0     H97849   3.941   1.511   6.186 -0.9375 -1.0960 -2.3946
  725MOL0     H97850   3.907   1.689   6.180 -2.2438  0.3087 -2.4458
  725MOL0     H97851   3.799   1.694   5.978 -1.2486  0.0128  0.3794
  725MOL0     H97852   3.724   1.573   6.072  0.0741 -1.4219 -0.6107
  725MOL0     H97853   3.880   1.511   5.826 -2.3640 -2.5288 -2.3760
  725MOL0     H97854   3.879   1.399   5.972  0.3212  0.5505 -0.2865
  725MOL0     H97855   4.663   1.455   6.382  2.1501 -0.4871 -1.0610
  725MOL0     H97856   4.899   1.437   6.425  1.4756  0.9083  0.7658
  725MOL0     H97857   5.291   1.375   6.787 -0.2956 -2.5469 -1.4259
  725MOL0     H97858   5.539   1.380   6.790  1.9464  1.2791 -0.0780
  725MOL0     H97859   5.960   2.894   7.390  0.4143  0.5533  0.2642
  725MOL0     H97860   5.769   3.021   7.537 -5.2193 -0.4947  1.2853
  725MOL0     H97861   5.461   3.067   7.842 -2.0335 -0.4968 -0.5120
  725MOL0     H97862   5.268   3.163   7.946 -0.0908 -3.3746  0.9205
  725MOL0     H97863   5.074   3.257   8.006  2.9734 -1.3598 -2.0345
  725MOL0     H97864   5.073   3.080   8.034  2.1228 -0.6453 -1.6578
  725MOL0     H97865   4.818   3.103   8.023 -1.5193  0.2723  1.1559
  725MOL0     H97866   4.852   3.282   7.990  0.2936  0.4445  0.3877
  725MOL0     H97867   4.924   3.312   8.214  0.5290 -0.0579 -0.8544
  725MOL0     H97868   4.926   3.139   8.256 -1.8721 -1.2498  0.9242
  725MOL0     H97869   4.728   3.274   8.349 -1.2572 -2.3412  0.6850
  725MOL0     H97870   4.681   3.278   8.175  3.1523  0.2829 -2.2070
  725MOL0     H97871   4.608   2.868   8.296  0.7055 -0.6500  1.3324
  725MOL0     H97872   5.035   3.067   7.614 -0.5358 -1.5052  0.6715
  725MOL0     H97873   5.143   2.877   7.458 -1.5816  1.2112  0.3613
  725MOL0     H97874   5.193   3.047   7.403  0.3647  0.9266  1.0904
  725MOL0     H97875   5.309   2.909   7.424  0.2047 -3.5184  3.5504
  726MOL0     O97876   2.065   3.168  10.718 -0.0717 -0.3488 -0.3796
  726MOL0     C97877   2.098   3.048  10.723  0.1172  0.3636  0.0830
  726MOL0     O97878   2.032   2.946  10.791 -0.7956 -0.2232 -0.2336
  726MOL0     C97879   1.929   2.980  10.871 -0.3071  0.1504 -0.4200
  726MOL0     C97880   1.804   2.940  10.830  0.4637 -0.0427 -0.8975
  726MOL0     C97881   1.692   2.968  10.915 -0.4300 -0.4627 -0.5180
  726MOL0     C97882   1.711   3.026  11.042  0.4934  0.1827 -0.7378
  726MOL0     O97883   1.603   3.053  11.124  1.0277  0.3698  0.4856
  726MOL0     C97884   1.475   3.038  11.071 -0.6714  0.6669 -0.8252
  726MOL0     C97885   1.367   3.078  11.169 -0.2892 -0.1991  0.0927
  726MOL0     C97886   1.225   3.073  11.109 -0.0524 -0.1258  0.2758
  726MOL0     C97887   1.117   3.051  11.219 -0.7040  1.6426 -0.1161
  726MOL0     C97888   0.989   3.092  11.163  0.8386 -0.4464  0.3540
  726MOL0     C97889   0.864   3.054  11.252  0.0742  0.1054  0.1904
  726MOL0     C97890   0.735   3.075  11.165  0.3262 -0.6370 -0.0675
  726MOL0     C97891   0.605   3.057  11.246  0.6398 -0.3667 -0.4863
  726MOL0     N97892   0.490   3.096  11.152  0.0599  0.0598  0.6162
  726MOL0     C97893   0.355   3.067  11.176  0.0108  0.4373 -0.2625
  726MOL0     C97894   0.288   3.094  11.053 -0.5512 -0.8632  0.0637
  726MOL0     C97895   0.149   3.114  11.012  0.4466  0.5643  0.0057
  726MOL0     C97896   0.124   3.071  10.863 -0.0642 -0.5552  0.8162
  726MOL0     C97897  -0.031   3.057  10.827 -0.6623  0.0421 -0.1891
  726MOL0     C97898  -0.075   3.164  10.735 -0.3654  0.7234  0.1329
  726MOL0     O97899  -0.054   3.297  10.790  0.4150  0.5180 -0.6249
  726MOL0     C97900  -0.137   3.393  10.747 -0.1532  0.2350  0.2778
  726MOL0     C97901  -0.145   3.510  10.821  0.6710  0.8819  0.3630
  726MOL0     C97902  -0.219   3.617  10.780 -0.3762  0.2454 -0.6175
  726MOL0     C97903  -0.290   3.609  10.665  0.6364 -0.5249  0.1635
  726MOL0     C97904  -0.371   3.727  10.620  0.1211  0.6217 -0.6739
  726MOL0     O97905  -0.403   3.814  10.718  0.7171  0.5368 -0.2112
  726MOL0     C97906  -0.477   3.920  10.683 -0.7183 -0.3094 -0.2809
  726MOL0     C97907  -0.430   4.049  10.715  0.4824  0.0484 -0.1987
  726MOL0     C97908  -0.503   4.165  10.691 -0.5920  0.1808  0.1742
  726MOL0     C97909  -0.637   4.162  10.634 -0.1237  0.0539  0.1319
  726MOL0     O97910  -0.726   4.257  10.605 -0.3869 -0.4404  0.0205
  726MOL0     C97911  -0.664   4.389  10.621 -0.0501  0.1103  0.1544
  726MOL0     C97912  -0.782   4.486  10.602 -0.4369  0.5565 -0.3836
  726MOL0     C97913  -0.751   4.639  10.589  0.4897 -0.3832 -0.1217
  726MOL0     C97914  -0.720   4.710  10.730 -0.6622 -0.4602  0.2833
  726MOL0     C97915  -0.706   4.864  10.706  0.2404 -0.5172  0.3243
  726MOL0     C97916  -0.587   4.888  10.619 -0.4960 -0.5737  0.2801
  726MOL0     C97917  -0.519   5.024  10.614  0.8853 -0.4288  0.1195
  726MOL0     C97918  -0.389   5.043  10.549 -0.8709 -0.9005  0.0653
  726MOL0    Cl97919  -0.350   5.227  10.552 -0.2137 -0.0485 -0.0035
  726MOL0     C97920  -0.682   4.026  10.595  0.0051  0.0501  0.0177
  726MOL0     C97921  -0.602   3.913  10.620  0.2915 -0.3790 -0.3108
  726MOL0     O97922  -0.410   3.729  10.504 -0.2850  0.5387 -0.7195
  726MOL0     C97923  -0.290   3.494  10.589 -0.2825  0.3904  0.8284
  726MOL0     C97924  -0.212   3.387  10.625 -0.9543  0.1703 -0.7436
  726MOL0     N97925   0.389   3.139  10.963 -0.3186 -1.5013  0.7669
  726MOL0     N97926   0.507   3.139  11.019  0.1136  0.3770  1.0191
  726MOL0     C97927   1.841   3.069  11.080 -0.5158 -0.2726 -0.7886
  726MOL0     C97928   1.949   3.042  10.996 -0.2459 -0.2896 -0.7107
  726MOL0     C97929   2.225   3.014  10.650 -1.0287 -0.1291 -0.4818
  726MOL0     C97930   2.289   3.112  10.579  0.0389 -0.3138  0.0974
  726MOL0     C97931   2.409   3.092  10.516 -0.1417  0.2008  0.1294
  726MOL0     C97932   2.461   2.963  10.520  0.1138  0.3353 -0.2195
  726MOL0     O97933   2.569   2.940  10.447 -0.0501  0.0112 -0.0999
  726MOL0     C97934   2.667   3.046  10.429 -0.0113 -0.8395 -0.0019
  726MOL0     C97935   2.798   2.968  10.442 -0.5956  0.5667 -0.0151
  726MOL0     C97936   2.927   3.057  10.444 -0.9803 -0.2966  0.4018
  726MOL0     C97937   3.054   2.971  10.430 -0.8158  0.4579 -0.0567
  726MOL0     C97938   3.185   3.029  10.470 -0.0646  0.0125  0.7099
  726MOL0     C97939   3.286   3.098  10.478 -0.3727  0.3789 -0.1200
  726MOL0     C97940   2.391   2.857  10.582 -0.6552 -0.0627 -0.3427
  726MOL0     C97941   2.274   2.879  10.655 -1.0563  0.0113 -0.2501
  726MOL0     C97942   2.220   2.758  10.720 -0.5638 -0.1518 -0.4636
  726MOL0     H97943   1.799   2.900  10.729  1.0034 -0.9759 -0.5625
  726MOL0     H97944   1.591   2.938  10.890 -1.1249 -0.3479  1.9068
  726MOL0     H97945   1.469   3.098  10.980 -0.3758 -1.1669 -2.1092
  726MOL0     H97946   1.459   2.933  11.045  4.5233 -0.9305  1.1136
  726MOL0     H97947   1.392   3.183  11.189  0.7185  0.0954 -2.2754
  726MOL0     H97948   1.385   3.021  11.260  2.5815 -1.3142 -1.0502
  726MOL0     H97949   1.215   2.987  11.043  0.4045  1.3162 -1.7997
  726MOL0     H97950   1.210   3.160  11.044  1.3399 -1.5193 -2.0480
  726MOL0     H97951   1.128   2.945  11.243 -0.6572  1.5465 -0.5566
  726MOL0     H97952   1.138   3.111  11.308  3.4053 -0.5270  0.6681
  726MOL0     H97953   0.980   3.199  11.142  1.4701 -0.6136 -0.9047
  726MOL0     H97954   0.979   3.029  11.074 -0.5134  0.2987 -0.0383
  726MOL0     H97955   0.879   2.951  11.285  1.0459  0.5271  1.1318
  726MOL0     H97956   0.868   3.124  11.336  1.9841  2.6007 -1.8112
  726MOL0     H97957   0.742   3.007  11.080 -0.7632  0.3339 -0.9738
  726MOL0     H97958   0.747   3.178  11.127  2.3985 -1.1335 -0.9053
  726MOL0     H97959   0.605   2.954  11.282 -0.1769 -0.6889 -1.3705
  726MOL0     H97960   0.602   3.114  11.340  0.8857  0.3927 -0.9343
  726MOL0     H97961   0.319   3.039  11.275 -3.5363  1.6260 -1.0454
  726MOL0     H97962   0.075   3.058  11.071 -0.0962  2.1228  0.8629
  726MOL0     H97963   0.123   3.219  11.027 -0.4275  0.4370 -0.5352
  726MOL0     H97964   0.182   3.137  10.798  1.7663 -2.2725  0.6438
  726MOL0     H97965   0.165   2.972  10.843 -1.7685 -0.8216 -1.8680
  726MOL0     H97966  -0.084   3.067  10.922  1.5368 -0.2966  1.1504
  726MOL0     H97967  -0.050   2.961  10.778 -1.6740 -0.5436  1.2974
  726MOL0     H97968  -0.182   3.148  10.713 -0.3339  0.6537  0.0293
  726MOL0     H97969  -0.025   3.142  10.640 -2.1353  0.7621 -0.8565
  726MOL0     H97970  -0.094   3.512  10.917  1.6884 -0.4122 -0.1206
  726MOL0     H97971  -0.195   3.704  10.841 -0.5652 -1.7000  2.4513
  726MOL0     H97972  -0.332   4.062  10.761  0.4488 -2.1636  0.6483
  726MOL0     H97973  -0.442   4.250  10.718 -2.4034  0.8805  2.3406
  726MOL0     H97974  -0.624   4.412  10.721 -1.9011  0.6182  0.8137
  726MOL0     H97975  -0.590   4.421  10.547 -1.6352  0.6083 -1.2883
  726MOL0     H97976  -0.842   4.449  10.519  0.6200  1.0529 -1.3852
  726MOL0     H97977  -0.849   4.480  10.689 -2.4846 -1.8426 -1.9972
  726MOL0     H97978  -0.661   4.653  10.528  2.6889  1.1652  3.1869
  726MOL0     H97979  -0.841   4.681  10.545 -0.0917  2.0313  3.0302
  726MOL0     H97980  -0.629   4.661  10.766  1.6996  1.1601 -2.9593
  726MOL0     H97981  -0.810   4.693  10.789 -1.4802  0.4996 -0.6451
  726MOL0     H97982  -0.698   4.927  10.795 -1.9148  0.9052 -0.4278
  726MOL0     H97983  -0.797   4.898  10.656  0.5908  3.1711  1.8478
  726MOL0     H97984  -0.499   4.831  10.651 -0.8079 -2.2400 -1.6740
  726MOL0     H97985  -0.613   4.865  10.516  1.5559  0.1487 -0.4515
  726MOL0     H97986  -0.513   5.049  10.720 -0.3625  2.2675 -0.3448
  726MOL0     H97987  -0.593   5.090  10.567  0.7336 -0.7376 -0.0816
  726MOL0     H97988  -0.323   4.986  10.615 -1.7464 -3.1334 -0.8898
  726MOL0     H97989  -0.382   5.008  10.445 -1.2260  0.6819 -0.5183
  726MOL0     H97990  -0.778   4.002  10.551 -0.2531 -2.1214  1.6603
  726MOL0     H97991  -0.638   3.811  10.609  0.8793 -0.8427  1.6161
  726MOL0     H97992  -0.360   3.484  10.507  0.1674  0.5075  0.4273
  726MOL0     H97993  -0.223   3.303  10.557 -0.4482 -1.9479  1.6552
  726MOL0     H97994   1.852   3.111  11.180 -0.3485 -0.2766 -0.8039
  726MOL0     H97995   2.052   3.064  11.024 -0.8788  1.8949  0.0655
  726MOL0     H97996   2.248   3.211  10.562  0.0976 -0.7720 -3.6328
  726MOL0     H97997   2.447   3.166  10.447 -2.3763  2.4000  1.1043
  726MOL0     H97998   2.659   3.131  10.497  0.3364  2.6442 -3.9410
  726MOL0     H97999   2.658   3.098  10.333 -0.8502  2.8979  1.9109
  726MOL0     H98000   2.809   2.904  10.353 -0.0083 -0.7673  0.9780
  726MOL0     H98001   2.804   2.904  10.531 -0.2097  0.6897  0.0454
  726MOL0     H98002   2.936   3.106  10.541 -0.0126  2.4370 -0.9677
  726MOL0     H98003   2.929   3.129  10.362 -2.5071 -1.7139 -0.9714
  726MOL0     H98004   3.046   2.881  10.493 -0.0959  2.9084  3.8845
  726MOL0     H98005   3.049   2.944  10.324 -2.1892  0.8496 -0.1145
  726MOL0     H98006   3.369   3.161  10.501  1.0055 -1.4331  0.0534
  726MOL0     H98007   2.431   2.756  10.575  0.2330  0.3869 -3.0179
  726MOL0     H98008   2.259   2.665  10.677  1.1794  0.0955  0.4770
  726MOL0     H98009   2.257   2.757  10.823  2.1027  1.0643 -1.3321
  726MOL0     H98010   2.111   2.746  10.719 -0.9493  2.6489  0.7651
  727MOL0     O98011   0.034   5.906   5.743 -0.7187  0.5979 -0.7653
  727MOL0     C98012   0.013   5.892   5.625 -0.0081  0.3066  0.1074
  727MOL0     O98013   0.066   5.978   5.526  0.0145  0.0246 -0.2047
  727MOL0     C98014   0.160   6.073   5.558  0.4114 -0.1875  0.1273
  727MOL0     C98015   0.281   6.075   5.504 -0.8558 -0.2634 -0.1348
  727MOL0     C98016   0.382   6.171   5.529  0.4348 -0.9172  0.8879
  727MOL0     C98017   0.350   6.270   5.618 -0.5733 -0.7604 -0.4083
  727MOL0     O98018   0.451   6.361   5.649 -0.1494  0.1786  0.1586
  727MOL0     C98019   0.434   6.504   5.643  0.7600  0.1501 -0.9434
  727MOL0     C98020   0.510   6.576   5.757 -0.1715  0.1438  0.6663
  727MOL0     C98021   0.454   6.528   5.895  0.0660  0.4035 -0.2001
  727MOL0     C98022   0.549   6.593   5.995  0.2691  0.3600  0.5479
  727MOL0     C98023   0.505   6.530   6.128  0.0870  0.2745  0.2402
  727MOL0     C98024   0.606   6.553   6.244  0.1228 -0.5626 -0.2724
  727MOL0     C98025   0.732   6.465   6.231 -0.4564  0.5534 -1.3199
  727MOL0     C98026   0.822   6.494   6.355 -0.2680  0.2656  0.3113
  727MOL0     N98027   0.753   6.455   6.481  0.1789 -1.5235  0.6691
  727MOL0     C98028   0.700   6.337   6.513 -0.3003  0.9984 -0.5642
  727MOL0     C98029   0.627   6.359   6.627 -0.4203  0.2698 -0.8146
  727MOL0     C98030   0.540   6.258   6.693  0.6394  0.3549 -1.2963
  727MOL0     C98031   0.395   6.300   6.701  0.2944 -0.4083 -0.7225
  727MOL0     C98032   0.318   6.177   6.732  0.8967  0.3403  0.3980
  727MOL0     C98033   0.168   6.203   6.755  0.0501  0.2525 -0.4795
  727MOL0     O98034   0.098   6.228   6.634  0.1094  0.0045  0.7082
  727MOL0     C98035  -0.037   6.226   6.643  0.3765 -0.0674  0.1284
  727MOL0     C98036  -0.114   6.222   6.759 -0.0591  0.2198  0.2920
  727MOL0     C98037  -0.253   6.251   6.749 -0.8664 -1.0017  0.1967
  727MOL0     C98038  -0.317   6.271   6.627  0.0214  0.3502  0.1850
  727MOL0     C98039  -0.467   6.276   6.616 -0.0145  0.3748 -0.0657
  727MOL0     O98040  -0.533   6.232   6.500 -0.2023 -0.2977 -0.0181
  727MOL0     C98041  -0.658   6.274   6.466  0.5939  0.4375 -0.0433
  727MOL0     C98042  -0.711   6.398   6.514 -0.5728  1.0343  0.6795
  727MOL0     C98043  -0.849   6.439   6.489 -1.3730 -0.2736  0.5373
  727MOL0     C98044  -0.932   6.353   6.416 -0.4190 -0.9478  0.5749
  727MOL0     O98045  -1.041   6.410   6.366  0.4032 -0.4394  0.6289
  727MOL0     C98046  -1.133   6.318   6.301  1.0562  0.8309 -0.5324
  727MOL0     C98047  -1.260   6.389   6.252 -0.1152  0.3572  0.8508
  727MOL0     C98048  -1.372   6.438   6.348 -0.7172 -0.4825 -0.3785
  727MOL0     C98049  -1.467   6.526   6.276 -0.3578 -0.8074  1.0285
  727MOL0     C98050  -1.603   6.517   6.361  0.4320 -0.1698  0.4788
  727MOL0     C98051  -1.602   6.617   6.475 -0.2315 -0.0123 -0.0474
  727MOL0     C98052  -1.737   6.660   6.526 -0.2863  0.1943  0.1882
  727MOL0     C98053  -1.836   6.549   6.569 -0.1969  0.2053 -0.1456
  727MOL0    Cl98054  -1.985   6.618   6.657  0.1661 -0.0949 -0.1200
  727MOL0     C98055  -0.878   6.233   6.372 -0.2886  0.2808 -0.4194
  727MOL0     C98056  -0.751   6.198   6.398 -0.1739  0.2296 -0.4720
  727MOL0     O98057  -0.521   6.331   6.714 -0.6912  0.3459  0.2071
  727MOL0     C98058  -0.240   6.273   6.515 -0.2193  0.7009  1.0291
  727MOL0     C98059  -0.103   6.248   6.519  0.8071  0.6762  0.2478
  727MOL0     N98060   0.635   6.494   6.662  0.5548 -0.3845  0.7010
  727MOL0     N98061   0.699   6.552   6.562  0.7152  0.2404 -0.3677
  727MOL0     C98062   0.219   6.285   5.662  0.3055 -0.3110 -0.3056
  727MOL0     C98063   0.123   6.183   5.635 -0.1343 -0.3719  0.6328
  727MOL0     C98064  -0.062   5.777   5.572 -0.1924  0.2077  0.0930
  727MOL0     C98065  -0.024   5.706   5.457 -1.2229 -1.1559 -0.1310
  727MOL0     C98066  -0.082   5.593   5.412  0.3297 -0.0973 -0.0703
  727MOL0     C98067  -0.186   5.530   5.483 -0.2657 -0.0780  0.1658
  727MOL0     O98068  -0.248   5.417   5.426  0.4112 -0.1896 -0.3430
  727MOL0     C98069  -0.396   5.419   5.422 -0.5810  0.0636 -0.2047
  727MOL0     C98070  -0.446   5.321   5.325  0.0934 -0.4277  0.2290
  727MOL0     C98071  -0.440   5.366   5.168 -0.4598 -0.4862  0.2794
  727MOL0     C98072  -0.543   5.270   5.086  0.4545 -0.6818  0.5826
  727MOL0     C98073  -0.677   5.315   5.097  0.1728 -0.2694 -0.2064
  727MOL0     C98074  -0.786   5.362   5.121 -0.6394 -0.8994  0.1511
  727MOL0     C98075  -0.229   5.595   5.596  0.1085 -0.1787  0.3571
  727MOL0     C98076  -0.155   5.707   5.650  0.5533 -0.2653 -0.9273
  727MOL0     C98077  -0.202   5.740   5.787 -0.6930 -0.2665  0.1890
  727MOL0     H98078   0.313   5.998   5.434  1.8437  2.4192 -2.1281
  727MOL0     H98079   0.480   6.164   5.482 -1.7082 -0.3984 -4.4417
  727MOL0     H98080   0.479   6.547   5.554  0.9088 -0.0272 -0.9532
  727MOL0     H98081   0.327   6.526   5.641  0.1879 -2.2146 -4.2583
  727MOL0     H98082   0.502   6.684   5.744 -1.0204  0.0822  0.6444
  727MOL0     H98083   0.613   6.549   5.734 -0.7915  1.1780 -4.7886
  727MOL0     H98084   0.475   6.421   5.909  2.0683  0.6747 -0.8876
  727MOL0     H98085   0.349   6.552   5.916  0.1473 -0.0999  0.8434
  727MOL0     H98086   0.652   6.559   5.978  0.4225  0.1157  1.8766
  727MOL0     H98087   0.537   6.702   5.999  2.2243  0.6864 -0.7359
  727MOL0     H98088   0.409   6.572   6.158  0.5234  1.3414  0.1803
  727MOL0     H98089   0.488   6.422   6.130  0.0846  0.2302 -1.4425
  727MOL0     H98090   0.631   6.657   6.266 -2.3892  1.2126 -4.5794
  727MOL0     H98091   0.552   6.511   6.330  2.1232 -0.8983  0.8827
  727MOL0     H98092   0.797   6.475   6.143  0.1718 -2.3933 -1.3025
  727MOL0     H98093   0.690   6.364   6.229 -1.0612  0.7832 -0.4897
  727MOL0     H98094   0.906   6.425   6.345 -1.4514 -1.4162  1.3986
  727MOL0     H98095   0.837   6.602   6.358  1.1720  0.0736  2.4426
  727MOL0     H98096   0.713   6.241   6.465  0.6042  1.4011 -1.1726
  727MOL0     H98097   0.554   6.159   6.647  0.9862 -0.6502  0.8590
  727MOL0     H98098   0.575   6.250   6.796  0.0517  0.3373 -1.0951
  727MOL0     H98099   0.372   6.377   6.776 -1.8047 -1.5568 -0.1041
  727MOL0     H98100   0.358   6.341   6.607 -0.1238  1.6050  0.2609
  727MOL0     H98101   0.356   6.126   6.821 -1.0575  0.3915  1.3054
  727MOL0     H98102   0.328   6.108   6.647 -4.0985 -0.5905  0.3006
  727MOL0     H98103   0.156   6.286   6.824  1.0853 -1.2533  1.6166
  727MOL0     H98104   0.132   6.109   6.798  1.1465  0.6081  1.2973
  727MOL0     H98105  -0.078   6.206   6.859 -1.2393 -0.8188  0.5822
  727MOL0     H98106  -0.317   6.248   6.836 -3.8508  2.4247 -1.5907
  727MOL0     H98107  -0.642   6.476   6.545  0.1156  0.1066  1.5651
  727MOL0     H98108  -0.887   6.538   6.508 -0.3106  0.2587 -0.0192
  727MOL0     H98109  -1.094   6.277   6.208 -1.8285 -0.8039 -1.1137
  727MOL0     H98110  -1.168   6.238   6.367 -1.8792  2.5853  0.2081
  727MOL0     H98111  -1.222   6.472   6.192  2.6160  0.1812  2.1863
  727MOL0     H98112  -1.309   6.313   6.191 -1.0335  2.6977 -1.4964
  727MOL0     H98113  -1.414   6.349   6.397 -0.4955  0.7773  2.3112
  727MOL0     H98114  -1.334   6.498   6.431 -0.9177 -1.2645  0.2917
  727MOL0     H98115  -1.482   6.484   6.176 -0.6225 -1.0664  1.1730
  727MOL0     H98116  -1.431   6.628   6.261 -2.5318 -0.0537  0.4963
  727MOL0     H98117  -1.603   6.414   6.397  4.8601 -0.6953 -0.4455
  727MOL0     H98118  -1.689   6.523   6.294 -1.0253 -2.0270  2.0816
  727MOL0     H98119  -1.526   6.581   6.545  2.0038  1.6678 -1.4611
  727MOL0     H98120  -1.559   6.702   6.423  1.3538 -1.3048 -0.9587
  727MOL0     H98121  -1.784   6.723   6.449  0.5803  1.4338  0.6405
  727MOL0     H98122  -1.709   6.727   6.608 -3.7730 -0.5277  2.1933
  727MOL0     H98123  -1.874   6.493   6.483  0.6718  1.4564 -1.3671
  727MOL0     H98124  -1.792   6.487   6.648 -0.8891  1.8088  1.5861
  727MOL0     H98125  -0.941   6.169   6.311 -0.6683  1.8971 -1.7694
  727MOL0     H98126  -0.704   6.112   6.352 -2.2243 -1.1593 -0.1296
  727MOL0     H98127  -0.289   6.276   6.418  2.3257  2.3684 -0.3370
  727MOL0     H98128  -0.037   6.237   6.433 -1.4284 -2.9619 -1.2066
  727MOL0     H98129   0.184   6.376   5.711 -0.7107 -1.1474  0.5603
  727MOL0     H98130   0.020   6.187   5.671 -1.0785 -1.5224 -1.7168
  727MOL0     H98131   0.057   5.745   5.395 -0.3450 -2.7408 -0.0347
  727MOL0     H98132  -0.040   5.558   5.318 -0.7947  1.4942 -1.2174
  727MOL0     H98133  -0.418   5.512   5.369 -0.3106 -0.6688 -1.6319
  727MOL0     H98134  -0.441   5.416   5.522 -2.2583  0.4687 -0.9016
  727MOL0     H98135  -0.552   5.303   5.343  0.0887 -0.3610  0.2634
  727MOL0     H98136  -0.386   5.229   5.331  0.4703 -0.2022 -0.0343
  727MOL0     H98137  -0.344   5.343   5.120  0.6020  1.7125  1.1980
  727MOL0     H98138  -0.472   5.468   5.145 -0.3909 -0.8940 -1.8698
  727MOL0     H98139  -0.525   5.287   4.980 -0.4126  2.2803  0.8282
  727MOL0     H98140  -0.533   5.164   5.113 -0.2825 -1.0934 -0.6778
  727MOL0     H98141  -0.885   5.402   5.133  0.2483  1.8266 -0.8341
  727MOL0     H98142  -0.300   5.551   5.665  0.4117  2.9316  2.8955
  727MOL0     H98143  -0.224   5.847   5.795 -0.7750 -0.3848  2.2922
  727MOL0     H98144  -0.298   5.692   5.807 -0.1809 -0.0145  4.0791
  727MOL0     H98145  -0.134   5.702   5.864 -2.8527  1.0288  2.9622
  728MOL0     O98146   2.637   6.227   5.098  0.0995  0.0736  0.6744
  728MOL0     C98147   2.518   6.240   5.108  0.8744  0.2863 -0.1127
  728MOL0     O98148   2.452   6.370   5.102 -0.6399 -0.0230  0.0916
  728MOL0     C98149   2.541   6.474   5.105 -0.7177 -0.1587 -0.6843
  728MOL0     C98150   2.543   6.545   5.230 -0.3895 -0.0327  0.6337
  728MOL0     C98151   2.618   6.663   5.246 -0.6541 -0.1996 -0.0269
  728MOL0     C98152   2.692   6.704   5.133 -0.0668 -0.8534 -0.4940
  728MOL0     O98153   2.745   6.835   5.144  0.4261 -0.3665 -0.1352
  728MOL0     C98154   2.873   6.849   5.089  0.4144 -0.0529 -0.2535
  728MOL0     C98155   2.939   6.972   5.152 -0.0764 -0.6260  0.6514
  728MOL0     C98156   3.084   6.990   5.097 -0.6903  0.0178  0.8032
  728MOL0     C98157   3.144   7.083   5.198 -0.0084 -0.1228 -0.2770
  728MOL0     C98158   3.289   7.078   5.188 -0.3160  0.2149 -0.3331
  728MOL0     C98159   3.352   7.196   5.264 -0.4556 -0.2672 -0.2668
  728MOL0     C98160   3.507   7.205   5.255  0.1495  0.2673  0.9622
  728MOL0     C98161   3.569   7.305   5.351 -0.3959  0.8168 -0.0888
  728MOL0     N98162   3.717   7.298   5.340  0.1509 -0.4990  0.4691
  728MOL0     C98163   3.787   7.299   5.224  0.0124  0.5578  0.6726
  728MOL0     C98164   3.913   7.299   5.267  0.1220  0.5311 -0.6636
  728MOL0     C98165   4.028   7.301   5.174  0.1904 -0.0075  0.8867
  728MOL0     C98166   4.143   7.206   5.223  0.4733 -0.7928 -0.9087
  728MOL0     C98167   4.270   7.222   5.154  0.0575 -0.6246 -0.6052
  728MOL0     C98168   4.358   7.104   5.175 -0.5026 -0.8355 -0.0698
  728MOL0     O98169   4.359   7.047   5.305  0.3436  0.3087 -0.0773
  728MOL0     C98170   4.426   7.122   5.408  1.0801 -0.4703  1.1658
  728MOL0     C98171   4.542   7.198   5.387 -0.3079  1.0875  0.1615
  728MOL0     C98172   4.598   7.274   5.496 -1.0255 -0.3890  0.3693
  728MOL0     C98173   4.550   7.267   5.621  1.0047 -0.5262 -1.0649
  728MOL0     C98174   4.617   7.348   5.730 -0.4213 -0.3456 -1.0211
  728MOL0     O98175   4.708   7.440   5.696 -0.5533  0.0232 -0.3477
  728MOL0     C98176   4.781   7.497   5.792  0.7401 -0.0837  0.8265
  728MOL0     C98177   4.925   7.508   5.764  0.6280  0.1374 -0.4362
  728MOL0     C98178   5.005   7.569   5.852  0.4348 -0.8490 -0.0658
  728MOL0     C98179   4.964   7.616   5.979  0.3986  0.1914  0.3150
  728MOL0     O98180   5.045   7.662   6.075 -0.0970 -0.5132  0.5435
  728MOL0     C98181   5.145   7.759   6.042 -1.0377 -0.2362 -0.2524
  728MOL0     C98182   5.276   7.681   6.036  0.2657  1.3002 -0.0823
  728MOL0     C98183   5.403   7.772   6.036  0.0146  0.4687  0.2178
  728MOL0     C98184   5.532   7.696   6.011 -0.1779  0.2651  0.7443
  728MOL0     C98185   5.654   7.791   6.038  0.1151  0.1461  0.0206
  728MOL0     C98186   5.779   7.724   6.022 -0.0858 -0.0365  0.0812
  728MOL0     C98187   5.899   7.795   6.095  1.1547 -0.0103 -0.5054
  728MOL0     C98188   6.034   7.746   6.034  0.4969 -0.4077 -1.2170
  728MOL0    Cl98189   6.054   7.577   5.986  0.3698 -0.0924  0.5067
  728MOL0     C98190   4.826   7.612   6.004 -0.5422 -0.6135  0.2019
  728MOL0     C98191   4.732   7.558   5.910 -0.0884 -0.2883  0.1687
  728MOL0     O98192   4.568   7.338   5.844 -0.3113 -0.4545 -0.2094
  728MOL0     C98193   4.448   7.184   5.641 -0.4111 -0.1615  0.1133
  728MOL0     C98194   4.386   7.115   5.542 -0.8694 -0.0388  0.6016
  728MOL0     N98195   3.913   7.281   5.409 -0.6303  0.8317  0.1987
  728MOL0     N98196   3.794   7.284   5.448 -0.4921  0.6661  0.6444
  728MOL0     C98197   2.689   6.637   5.009  0.1681 -1.3427  0.0511
  728MOL0     C98198   2.615   6.518   4.997 -0.3818  0.9567 -0.4205
  728MOL0     C98199   2.434   6.127   5.135  0.9274  0.5269  0.2606
  728MOL0     C98200   2.312   6.141   5.208  0.8248  0.4365 -0.0195
  728MOL0     C98201   2.240   6.025   5.248 -0.3838  0.6783 -0.0267
  728MOL0     C98202   2.275   5.901   5.211  0.9577 -0.2505  0.0180
  728MOL0     O98203   2.188   5.799   5.257 -0.7635  0.0864  0.2542
  728MOL0     C98204   2.230   5.662   5.246  0.3125  0.5146  0.3550
  728MOL0     C98205   2.335   5.612   5.348  0.3927  0.4009 -0.0611
  728MOL0     C98206   2.312   5.654   5.485  0.1586  0.0465  0.8737
  728MOL0     C98207   2.192   5.580   5.548 -0.7062 -0.0969 -0.1237
  728MOL0     C98208   2.231   5.449   5.592 -1.6143  0.2500 -0.3441
  728MOL0     C98209   2.263   5.350   5.660 -0.5055  0.6854  0.0409
  728MOL0     C98210   2.383   5.890   5.128  0.6217 -0.1622 -0.1800
  728MOL0     C98211   2.462   6.001   5.083  0.0474 -0.4994 -0.0553
  728MOL0     C98212   2.581   5.954   4.991  0.4457 -0.2986  0.1833
  728MOL0     H98213   2.488   6.509   5.316 -1.4604 -0.7375 -0.3282
  728MOL0     H98214   2.624   6.723   5.337 -2.4114 -1.1401  0.7516
  728MOL0     H98215   2.924   6.753   5.106 -5.0111 -3.8628 -2.7613
  728MOL0     H98216   2.868   6.865   4.981  2.1930 -2.6172 -0.8327
  728MOL0     H98217   2.950   6.947   5.258 -1.5901 -1.5816  0.6085
  728MOL0     H98218   2.884   7.063   5.124  2.1212  1.0207  1.3529
  728MOL0     H98219   3.093   7.025   4.994  1.3964 -3.3347 -0.3479
  728MOL0     H98220   3.147   6.901   5.095 -0.3595  0.2597  0.0509
  728MOL0     H98221   3.105   7.185   5.189  1.1529  0.2682 -1.3137
  728MOL0     H98222   3.132   7.046   5.300  0.3693 -4.1697 -1.5506
  728MOL0     H98223   3.326   6.989   5.240 -1.0981  1.0159  1.7184
  728MOL0     H98224   3.327   7.080   5.086 -1.9379 -3.1296 -1.1681
  728MOL0     H98225   3.320   7.287   5.212 -1.3224  0.5265  1.5575
  728MOL0     H98226   3.315   7.194   5.367  2.2640  0.1762  0.7995
  728MOL0     H98227   3.533   7.242   5.156  1.4144 -0.9853  0.7999
  728MOL0     H98228   3.552   7.106   5.264  1.5938  0.9811  1.9671
  728MOL0     H98229   3.529   7.401   5.317 -3.4087 -0.9869 -2.2187
  728MOL0     H98230   3.545   7.292   5.457  0.9919 -2.3950 -0.0487
  728MOL0     H98231   3.755   7.302   5.120  1.7611  0.8906  0.1043
  728MOL0     H98232   4.006   7.275   5.070  2.1398  2.8967 -0.3809
  728MOL0     H98233   4.068   7.403   5.175  1.9847 -0.6494  0.1683
  728MOL0     H98234   4.158   7.225   5.330 -0.0449  3.5197 -1.4058
  728MOL0     H98235   4.108   7.103   5.214 -3.9490  0.4786 -0.5322
  728MOL0     H98236   4.329   7.307   5.190  1.3964 -1.0085 -1.7709
  728MOL0     H98237   4.242   7.249   5.052 -4.0616  0.2855  0.5768
  728MOL0     H98238   4.459   7.127   5.138 -0.3004 -0.6845  0.5696
  728MOL0     H98239   4.331   7.024   5.105  2.6280 -3.3258  1.3103
  728MOL0     H98240   4.587   7.199   5.288 -1.9584 -1.3698 -0.7139
  728MOL0     H98241   4.676   7.329   5.446 -0.9132 -2.2069 -1.6388
  728MOL0     H98242   4.962   7.471   5.668 -0.2096  1.3418 -1.2542
  728MOL0     H98243   5.104   7.591   5.813  0.3420 -2.7090 -1.4515
  728MOL0     H98244   5.137   7.799   5.941  5.7279 -0.7667 -1.4818
  728MOL0     H98245   5.157   7.842   6.112  1.3073 -0.5338 -0.2326
  728MOL0     H98246   5.292   7.609   6.117 -0.0397 -0.3631 -1.4428
  728MOL0     H98247   5.283   7.634   5.938  1.2459  0.5753  0.3197
  728MOL0     H98248   5.403   7.840   5.950  0.3611  1.0853  0.6952
  728MOL0     H98249   5.406   7.835   6.125 -1.8542  2.1867 -0.8269
  728MOL0     H98250   5.532   7.665   5.906  1.3983 -0.3627  0.8948
  728MOL0     H98251   5.536   7.606   6.073 -2.3042 -0.1667  0.2985
  728MOL0     H98252   5.659   7.826   6.141  0.3232 -1.4220  0.5657
  728MOL0     H98253   5.654   7.882   5.977 -0.8416 -1.1493 -2.0125
  728MOL0     H98254   5.771   7.629   6.077 -0.4842 -0.2013 -0.2592
  728MOL0     H98255   5.806   7.707   5.917 -0.1437 -2.8766  0.4368
  728MOL0     H98256   5.894   7.768   6.200 -0.2542  1.7394 -0.0741
  728MOL0     H98257   5.883   7.903   6.088  1.4209  0.1112  0.6549
  728MOL0     H98258   6.052   7.802   5.941 -0.5596 -0.3727 -1.4151
  728MOL0     H98259   6.103   7.785   6.109  0.1187  5.3576 -3.3321
  728MOL0     H98260   4.790   7.633   6.105 -0.6082 -1.1499  0.2928
  728MOL0     H98261   4.625   7.575   5.917 -0.1036 -0.0025 -0.6228
  728MOL0     H98262   4.414   7.156   5.740 -1.2170 -1.3211 -0.4699
  728MOL0     H98263   4.304   7.055   5.580 -0.2027 -0.7129  0.9854
  728MOL0     H98264   2.722   6.683   4.916 -0.0602  3.8307  2.1761
  728MOL0     H98265   2.621   6.460   4.906 -2.4402 -3.3527  1.8337
  728MOL0     H98266   2.272   6.234   5.247  0.9409 -0.0820  1.3967
  728MOL0     H98267   2.154   6.034   5.313 -0.1954 -3.5812  1.1076
  728MOL0     H98268   2.274   5.634   5.150 -1.9773 -1.7087 -0.1483
  728MOL0     H98269   2.143   5.595   5.248 -0.0488  0.9356  2.8658
  728MOL0     H98270   2.435   5.652   5.328  0.0818  2.0805  1.4856
  728MOL0     H98271   2.333   5.503   5.345 -0.4984  0.3084  2.0909
  728MOL0     H98272   2.294   5.762   5.491 -0.5895  0.0841 -1.2038
  728MOL0     H98273   2.398   5.639   5.551  1.6095  0.7860 -0.7522
  728MOL0     H98274   2.136   5.634   5.625  1.5675  1.2333  0.6907
  728MOL0     H98275   2.113   5.567   5.474 -2.4185 -0.3133  1.6482
  728MOL0     H98276   2.284   5.261   5.717 -3.0263 -0.1031 -0.1457
  728MOL0     H98277   2.424   5.790   5.112 -0.2307 -0.4542 -0.5605
  728MOL0     H98278   2.594   5.846   4.986  0.1745 -0.2877 -1.8207
  728MOL0     H98279   2.568   5.985   4.886  2.7468 -1.9099 -0.6392
  728MOL0     H98280   2.675   5.998   5.026  0.0590 -0.3065  1.2737
  729MOL0     O98281   3.070   9.119   6.392  0.4252 -0.2526  0.3337
  729MOL0     C98282   2.998   9.057   6.471  0.4587  0.6675 -0.7094
  729MOL0     O98283   3.026   9.036   6.601 -0.0149  0.4643 -0.6107
  729MOL0     C98284   3.127   9.101   6.662 -0.4512  0.3180  0.5293
  729MOL0     C98285   3.216   9.037   6.744  0.2690 -0.3589 -0.1326
  729MOL0     C98286   3.329   9.095   6.806  0.6206 -0.2672 -0.4937
  729MOL0     C98287   3.356   9.229   6.781  0.0071  0.3575 -0.3248
  729MOL0     O98288   3.464   9.283   6.838 -0.0378 -0.3523 -0.8221
  729MOL0     C98289   3.587   9.231   6.769 -1.5323 -0.4912 -1.0344
  729MOL0     C98290   3.720   9.318   6.794  0.5502  0.2168 -0.0441
  729MOL0     C98291   3.845   9.254   6.829 -0.1363 -0.1336  0.2211
  729MOL0     C98292   3.974   9.334   6.786  0.1386 -0.7873 -0.1649
  729MOL0     C98293   4.112   9.292   6.841 -0.4133  0.5098 -0.1513
  729MOL0     C98294   4.128   9.329   6.992  0.2391  0.1328  0.3468
  729MOL0     C98295   4.266   9.313   7.054 -0.0613 -0.4982  0.2147
  729MOL0     C98296   4.277   9.355   7.199 -0.2200  0.2921 -0.1968
  729MOL0     N98297   4.409   9.327   7.248 -0.3048  0.6552  0.2126
  729MOL0     C98298   4.530   9.381   7.208 -0.5182  0.4978 -0.1154
  729MOL0     C98299   4.624   9.314   7.285 -0.1737  0.1065 -0.3320
  729MOL0     C98300   4.776   9.327   7.283 -0.0550  0.0030 -0.4954
  729MOL0     C98301   4.831   9.365   7.420  0.3200 -0.9002 -0.3813
  729MOL0     C98302   4.978   9.389   7.431  0.6273 -0.1338 -0.2332
  729MOL0     C98303   5.022   9.477   7.319  0.0730  0.1387  0.1048
  729MOL0     O98304   5.163   9.510   7.318  0.7095  0.2548 -0.0377
  729MOL0     C98305   5.220   9.577   7.433  0.2203 -0.5451  1.2439
  729MOL0     C98306   5.348   9.547   7.471 -0.3230  0.0732  1.1517
  729MOL0     C98307   5.404   9.601   7.590 -0.4404  1.2835  0.7280
  729MOL0     C98308   5.334   9.691   7.661 -0.4469  0.0278  0.7057
  729MOL0     C98309   5.384   9.744   7.796 -0.5090  0.6273 -0.0536
  729MOL0     O98310   5.301   9.795   7.872 -0.3710 -0.3955 -0.1615
  729MOL0     C98311   5.343   9.822   8.001  0.0845  0.7452 -0.2771
  729MOL0     C98312   5.377   9.951   8.025 -0.8131 -0.1360  0.4140
  729MOL0     C98313   5.443   9.988   8.143 -0.1612  0.0930 -1.0898
  729MOL0     C98314   5.462   9.888   8.243 -0.3014 -0.0374 -0.1072
  729MOL0     O98315   5.513   9.929   8.362  0.3047  0.4658  0.0417
  729MOL0     C98316   5.641   9.872   8.389  0.2626 -0.2635  0.1067
  729MOL0     C98317   5.652   9.860   8.543  0.4278  0.3436  0.1973
  729MOL0     C98318   5.794   9.838   8.577 -0.2643 -0.2016 -1.1342
  729MOL0     C98319   5.819   9.789   8.718 -0.2249 -0.1336 -0.8942
  729MOL0     C98320   5.966   9.777   8.756 -0.0633  0.1044 -0.7915
  729MOL0     C98321   6.023   9.914   8.806 -0.4924 -0.4325 -0.3524
  729MOL0     C98322   6.170   9.926   8.809  0.1563  0.8892 -0.0907
  729MOL0     C98323   6.237   9.838   8.914  0.7611  0.3226 -0.0118
  729MOL0    Cl98324   6.411   9.862   8.920 -0.0438 -0.1479  0.0960
  729MOL0     C98325   5.403   9.763   8.226 -0.4574  0.6240  0.8088
  729MOL0     C98326   5.343   9.725   8.103 -0.1582 -0.4036  0.3250
  729MOL0     O98327   5.506   9.739   7.820  0.5733  0.3191  0.4578
  729MOL0     C98328   5.210   9.736   7.624 -0.1899  0.9722  0.2274
  729MOL0     C98329   5.154   9.675   7.505 -0.6569 -0.7604  0.2317
  729MOL0     N98330   4.563   9.233   7.374 -0.4209 -0.3787 -0.4164
  729MOL0     N98331   4.437   9.237   7.348 -0.7020 -0.4107 -0.2368
  729MOL0     C98332   3.257   9.302   6.706 -0.5810 -0.3799  0.5744
  729MOL0     C98333   3.145   9.242   6.650  0.1277 -1.6279 -1.2105
  729MOL0     C98334   2.879   8.986   6.419  0.3420  0.4339  0.3919
  729MOL0     C98335   2.806   8.910   6.507 -1.1890 -0.2046 -0.4506
  729MOL0     C98336   2.688   8.843   6.467  0.0061  0.3322 -0.1616
  729MOL0     C98337   2.641   8.852   6.337  0.1701 -0.4789  0.0613
  729MOL0     O98338   2.520   8.798   6.320  0.0188  0.4407  0.0618
  729MOL0     C98339   2.481   8.759   6.190 -0.8449 -0.4039 -0.0535
  729MOL0     C98340   2.349   8.690   6.214 -0.0871  1.3866  0.0765
  729MOL0     C98341   2.249   8.792   6.271  0.3145  0.0813  0.3491
  729MOL0     C98342   2.102   8.741   6.292  0.9877  0.1833  0.5680
  729MOL0     C98343   2.101   8.647   6.404  0.0550  0.3078  1.0327
  729MOL0     C98344   2.095   8.556   6.488 -0.5045 -0.6477 -0.0032
  729MOL0     C98345   2.710   8.936   6.249  0.9851  0.7155  0.4504
  729MOL0     C98346   2.824   9.004   6.283  0.3118 -0.2870  0.5248
  729MOL0     C98347   2.907   9.063   6.166  0.6049  0.0226 -0.2016
  729MOL0     H98348   3.205   8.929   6.751  0.3651 -0.4651 -1.4636
  729MOL0     H98349   3.396   9.034   6.867  0.1218 -0.9465 -0.6079
  729MOL0     H98350   3.604   9.133   6.814 -0.0187  0.6303  1.0029
  729MOL0     H98351   3.566   9.200   6.666 -0.9310  2.0719 -2.0051
  729MOL0     H98352   3.693   9.371   6.886 -1.0278 -2.6468  1.3147
  729MOL0     H98353   3.724   9.379   6.704 -1.1702  0.8436  0.2628
  729MOL0     H98354   3.851   9.154   6.785  0.2817 -0.4249  0.9138
  729MOL0     H98355   3.838   9.233   6.936  1.2787 -3.6286 -0.2508
  729MOL0     H98356   3.971   9.335   6.676  1.4884  2.7316 -0.2926
  729MOL0     H98357   3.964   9.439   6.817  0.9323 -1.3048  2.0214
  729MOL0     H98358   4.138   9.188   6.820  1.3382  0.9883 -0.5533
  729MOL0     H98359   4.190   9.348   6.788  3.0875 -0.8250  3.1124
  729MOL0     H98360   4.097   9.434   6.997  4.6447  1.5940  1.4735
  729MOL0     H98361   4.053   9.278   7.053 -3.2302  1.7673 -2.2233
  729MOL0     H98362   4.346   9.360   6.995  2.3675 -4.5476 -0.0671
  729MOL0     H98363   4.289   9.207   7.058  0.4580 -0.3529  1.3028
  729MOL0     H98364   4.256   9.462   7.193  0.9267  0.4591 -2.1125
  729MOL0     H98365   4.204   9.310   7.266 -0.6876 -0.7358 -1.3636
  729MOL0     H98366   4.545   9.466   7.142  1.3989  0.1045 -0.2635
  729MOL0     H98367   4.814   9.230   7.250 -1.7503 -1.1731  0.8132
  729MOL0     H98368   4.797   9.414   7.220 -1.1834  1.0042  0.4385
  729MOL0     H98369   4.790   9.464   7.441 -0.6380 -1.1831 -0.8557
  729MOL0     H98370   4.802   9.288   7.492 -1.7836  0.9612  0.8849
  729MOL0     H98371   5.044   9.302   7.435  0.1738 -0.6185 -2.2352
  729MOL0     H98372   4.988   9.447   7.523  0.6758  0.4041 -0.5707
  729MOL0     H98373   4.976   9.576   7.312  2.6043  1.4396  0.4707
  729MOL0     H98374   5.012   9.420   7.227  2.4293  0.0084 -0.1467
  729MOL0     H98375   5.401   9.466   7.421  0.8708  0.1504  2.2441
  729MOL0     H98376   5.499   9.563   7.627 -0.4287  1.1002  0.5065
  729MOL0     H98377   5.365  10.033   7.955 -3.6149 -1.2549 -0.5783
  729MOL0     H98378   5.475  10.085   8.178  1.3203 -0.7227 -0.0647
  729MOL0     H98379   5.648   9.775   8.338 -0.0461  1.1546 -2.8429
  729MOL0     H98380   5.714   9.941   8.346 -0.3613 -0.0186 -0.5844
  729MOL0     H98381   5.610   9.951   8.587 -0.9780 -1.1524  2.1453
  729MOL0     H98382   5.590   9.778   8.580 -0.0990  0.7143  0.1391
  729MOL0     H98383   5.833   9.762   8.509  2.6263 -0.4447  0.5943
  729MOL0     H98384   5.844   9.932   8.554 -1.4003  0.7719  0.1658
  729MOL0     H98385   5.779   9.688   8.729 -1.9841  0.7484  1.5933
  729MOL0     H98386   5.760   9.849   8.788 -0.9481 -1.8959  0.0768
  729MOL0     H98387   6.027   9.744   8.672 -0.0164  0.5113 -0.9231
  729MOL0     H98388   5.988   9.698   8.828  0.3255 -0.3899 -1.4509
  729MOL0     H98389   5.972   9.992   8.747 -0.7960 -0.8450 -0.6416
  729MOL0     H98390   5.990   9.934   8.908  2.1000  2.9563 -0.0138
  729MOL0     H98391   6.203  10.026   8.839  1.6314  0.4090 -0.0148
  729MOL0     H98392   6.213   9.920   8.709 -2.0561  1.4001 -1.1393
  729MOL0     H98393   6.193   9.869   9.009 -2.5488  1.6937 -1.8203
  729MOL0     H98394   6.214   9.733   8.890 -0.3146  0.6511 -0.4886
  729MOL0     H98395   5.402   9.693   8.309  2.4070 -2.1576 -1.2571
  729MOL0     H98396   5.299   9.632   8.067  0.3866 -0.1442 -1.0459
  729MOL0     H98397   5.155   9.806   7.685 -0.5533  0.0507  0.9909
  729MOL0     H98398   5.053   9.712   7.486 -0.5088  1.3827  2.8857
  729MOL0     H98399   3.252   9.410   6.716 -0.5136 -0.4852  2.1040
  729MOL0     H98400   3.086   9.299   6.578 -0.7404 -1.8358 -0.6798
  729MOL0     H98401   2.838   8.900   6.611  0.0050 -0.2926 -0.8109
  729MOL0     H98402   2.625   8.791   6.539 -1.5728  0.1316 -1.6238
  729MOL0     H98403   2.560   8.695   6.150  0.4335  0.3141  1.2291
  729MOL0     H98404   2.477   8.845   6.122  2.8053  0.0576  0.1308
  729MOL0     H98405   2.359   8.609   6.287  1.2267  0.5870 -0.9495
  729MOL0     H98406   2.311   8.651   6.120  3.0927 -0.9802 -0.3840
  729MOL0     H98407   2.238   8.878   6.204 -3.6284  0.5518  1.3965
  729MOL0     H98408   2.281   8.827   6.369 -0.1519  1.4850  0.0151
  729MOL0     H98409   2.032   8.821   6.315  1.6291  0.1775  2.7737
  729MOL0     H98410   2.072   8.699   6.196 -0.4218  1.1011  0.5795
  729MOL0     H98411   2.080   8.483   6.565 -3.8155 -0.7528 -0.6017
  729MOL0     H98412   2.686   8.949   6.144  3.2410  0.4134 -0.1548
  729MOL0     H98413   2.931   9.169   6.179 -0.8529  0.2652  0.7591
  729MOL0     H98414   3.003   9.011   6.162  0.7344  0.2693 -0.2865
  729MOL0     H98415   2.855   9.063   6.070 -0.1972  2.8906  0.1304
  730MOL0     O98416   1.873   5.501   9.733 -0.2311  0.1625  0.6239
  730MOL0     C98417   1.953   5.590   9.721 -0.0617 -0.2567  0.0847
  730MOL0     O98418   1.927   5.713   9.665 -0.0528  0.9243 -0.6912
  730MOL0     C98419   1.804   5.738   9.607 -0.4675  0.5134 -0.5478
  730MOL0     C98420   1.753   5.657   9.511 -0.0683 -0.1978 -0.6377
  730MOL0     C98421   1.630   5.686   9.459  0.7326  0.5253 -1.1303
  730MOL0     C98422   1.547   5.796   9.501 -1.2904  0.2146 -0.4162
  730MOL0     O98423   1.425   5.806   9.457 -0.1270 -0.9743  0.9139
  730MOL0     C98424   1.332   5.893   9.517  0.0703 -0.2053  0.0066
  730MOL0     C98425   1.196   5.879   9.448  0.5141  0.4299 -0.0188
  730MOL0     C98426   1.187   5.938   9.302 -0.6159 -1.0334 -0.2814
  730MOL0     C98427   1.181   6.088   9.293 -0.0030  0.4134  0.3988
  730MOL0     C98428   1.045   6.120   9.237  0.0914 -0.3881  0.3626
  730MOL0     C98429   1.021   6.270   9.245 -0.0245 -0.1512 -0.2111
  730MOL0     C98430   0.879   6.304   9.204  0.3352  0.3879 -0.4985
  730MOL0     C98431   0.845   6.452   9.222 -0.2554 -0.1918 -0.8902
  730MOL0     N98432   0.707   6.484   9.199  0.4675 -0.0043 -0.5851
  730MOL0     C98433   0.613   6.530   9.292  0.0721  0.5724  0.9225
  730MOL0     C98434   0.509   6.569   9.219  0.3682  0.7739 -0.1493
  730MOL0     C98435   0.387   6.641   9.267  0.4428  0.2130 -0.2622
  730MOL0     C98436   0.357   6.768   9.187 -0.1891 -0.0278  0.1499
  730MOL0     C98437   0.463   6.879   9.203  0.5209  1.0570  0.1584
  730MOL0     C98438   0.497   6.917   9.344 -0.4379  0.5198  0.0990
  730MOL0     O98439   0.571   6.813   9.410 -0.2166 -0.2265 -0.4932
  730MOL0     C98440   0.703   6.838   9.433  0.2016  0.3967  0.5735
  730MOL0     C98441   0.766   6.778   9.542  0.1868 -0.0494  0.0308
  730MOL0     C98442   0.899   6.803   9.567 -0.5480 -0.6855  0.8604
  730MOL0     C98443   0.985   6.882   9.484 -0.1083  0.9084 -0.1872
  730MOL0     C98444   1.121   6.908   9.526  0.5733 -0.7142  0.2742
  730MOL0     O98445   1.192   6.968   9.429  0.0121  0.5228 -0.0263
  730MOL0     C98446   1.312   7.018   9.470 -0.0988 -1.3363 -0.3197
  730MOL0     C98447   1.326   7.153   9.499 -1.0932  0.2506  0.2694
  730MOL0     C98448   1.449   7.207   9.534 -0.2693  0.4762 -0.2825
  730MOL0     C98449   1.571   7.133   9.534  0.3441  0.4224  0.0732
  730MOL0     O98450   1.686   7.193   9.577 -0.4599  0.1114 -0.7312
  730MOL0     C98451   1.749   7.277   9.477 -0.6626 -0.1178 -0.0277
  730MOL0     C98452   1.891   7.235   9.454 -0.3494 -0.5160  1.3592
  730MOL0     C98453   1.991   7.288   9.568  0.2704 -0.3103  0.1186
  730MOL0     C98454   2.130   7.263   9.515  0.0379 -0.0871 -0.4830
  730MOL0     C98455   2.243   7.335   9.599  0.3934 -0.1301 -0.6528
  730MOL0     C98456   2.296   7.249   9.710  0.2004  0.9275  0.0470
  730MOL0     C98457   2.383   7.314   9.817  0.2369 -0.2587 -0.0989
  730MOL0     C98458   2.524   7.256   9.825 -0.1529 -0.2725 -0.3196
  730MOL0    Cl98459   2.586   7.306   9.983  0.1881  0.0634 -0.3157
  730MOL0     C98460   1.554   6.996   9.507 -0.2001 -0.7130 -0.5945
  730MOL0     C98461   1.429   6.938   9.464  0.0314 -0.5279  0.0207
  730MOL0     O98462   1.166   6.868   9.634  0.7333  0.0346  0.5900
  730MOL0     C98463   0.922   6.934   9.368 -0.3859 -0.5967 -0.6558
  730MOL0     C98464   0.784   6.916   9.345  1.0861  0.1026 -0.3307
  730MOL0     N98465   0.532   6.539   9.086  0.1388  0.5568 -0.1194
  730MOL0     N98466   0.654   6.486   9.080  0.5113 -0.2003 -0.3420
  730MOL0     C98467   1.609   5.887   9.594 -0.3988  0.4794 -1.3078
  730MOL0     C98468   1.733   5.854   9.649  0.0862 -0.6385 -0.2906
  730MOL0     C98469   2.090   5.576   9.777 -0.2601 -0.0717  0.2269
  730MOL0     C98470   2.170   5.695   9.771  0.4595  0.5389 -0.0029
  730MOL0     C98471   2.302   5.691   9.815 -0.9884  0.0081  0.3869
  730MOL0     C98472   2.354   5.577   9.867 -0.4143  0.1488  0.1343
  730MOL0     O98473   2.489   5.590   9.905 -0.4728  0.7061 -0.4930
  730MOL0     C98474   2.564   5.484   9.956  1.1157  0.0957  0.0974
  730MOL0     C98475   2.706   5.535   9.985  0.0898 -0.4329  0.2407
  730MOL0     C98476   2.819   5.433  10.006  0.1177 -0.2430 -0.1557
  730MOL0     C98477   2.835   5.345   9.880  0.0796  0.4551 -0.2358
  730MOL0     C98478   2.821   5.412   9.754  0.1229  0.9849  0.6345
  730MOL0     C98479   2.784   5.456   9.650  0.0503 -0.1441  0.2742
  730MOL0     C98480   2.280   5.458   9.874  0.4196  0.8241 -0.1838
  730MOL0     C98481   2.151   5.459   9.828  0.2514  0.9951 -0.6026
  730MOL0     C98482   2.070   5.333   9.820 -0.1528  0.3234  0.1857
  730MOL0     H98483   1.808   5.575   9.468 -0.1087 -0.7147  0.2687
  730MOL0     H98484   1.593   5.606   9.395  2.3049  0.1025 -1.5785
  730MOL0     H98485   1.319   5.864   9.622 -1.2023 -0.1468 -0.1094
  730MOL0     H98486   1.367   5.997   9.518  0.9685 -0.4778 -1.1952
  730MOL0     H98487   1.136   5.944   9.512 -1.5353  0.2176 -1.6142
  730MOL0     H98488   1.169   5.773   9.451 -0.4042  0.5303 -2.4797
  730MOL0     H98489   1.101   5.888   9.258  0.4703 -2.7167 -0.5946
  730MOL0     H98490   1.273   5.899   9.246 -1.5297 -1.9809 -1.0590
  730MOL0     H98491   1.178   6.137   9.391 -0.1731  0.0603  0.5760
  730MOL0     H98492   1.260   6.135   9.235 -0.3746  2.3561  1.3897
  730MOL0     H98493   1.025   6.083   9.136  0.4898  1.0169 -0.2499
  730MOL0     H98494   0.965   6.079   9.300 -0.9412  2.3015  0.9561
  730MOL0     H98495   1.039   6.316   9.343  1.5020 -1.4721  0.1842
  730MOL0     H98496   1.093   6.318   9.178 -0.9128 -0.4167 -1.3921
  730MOL0     H98497   0.809   6.249   9.268  0.4667 -2.6668 -2.7030
  730MOL0     H98498   0.860   6.278   9.099  0.6715 -1.8813 -0.0663
  730MOL0     H98499   0.880   6.488   9.319 -0.6955  0.0962 -0.8330
  730MOL0     H98500   0.915   6.510   9.161  0.6052 -0.1198  0.1373
  730MOL0     H98501   0.620   6.546   9.400  0.0232 -0.0191  1.0154
  730MOL0     H98502   0.300   6.575   9.262  0.6783 -0.3628  1.9842
  730MOL0     H98503   0.394   6.653   9.376 -0.5152  0.4895 -0.2266
  730MOL0     H98504   0.337   6.737   9.084 -1.5278  1.0853  0.0417
  730MOL0     H98505   0.262   6.802   9.230 -0.1611 -0.3956  0.5073
  730MOL0     H98506   0.432   6.971   9.154  0.7120  2.7129  2.8992
  730MOL0     H98507   0.553   6.838   9.156 -0.9373 -0.7219 -1.2014
  730MOL0     H98508   0.406   6.918   9.404  2.0280  0.4952  4.2581
  730MOL0     H98509   0.534   7.020   9.349 -0.7699  0.6557 -0.1859
  730MOL0     H98510   0.696   6.733   9.611  1.3570 -1.6942  0.2070
  730MOL0     H98511   0.956   6.754   9.645  3.9618  1.3065 -0.8457
  730MOL0     H98512   1.240   7.219   9.496 -0.2813  1.3344  0.2354
  730MOL0     H98513   1.459   7.313   9.555 -1.4045  1.1679 -2.8831
  730MOL0     H98514   1.693   7.268   9.383  1.2558 -0.1463 -1.2203
  730MOL0     H98515   1.742   7.381   9.510  0.7723  0.2935 -0.9385
  730MOL0     H98516   1.895   7.127   9.437 -1.6215 -0.5367  1.0755
  730MOL0     H98517   1.921   7.272   9.355 -1.8554 -1.3182  0.5646
  730MOL0     H98518   1.972   7.396   9.573  0.4594 -0.2935  0.4938
  730MOL0     H98519   1.975   7.238   9.664 -3.2980  2.5422  1.2657
  730MOL0     H98520   2.124   7.311   9.417 -0.4215 -0.0923 -0.4587
  730MOL0     H98521   2.146   7.156   9.496 -0.4843  0.4041 -4.7382
  730MOL0     H98522   2.210   7.429   9.645  1.7995  0.2686 -0.4078
  730MOL0     H98523   2.332   7.365   9.543  0.9790 -0.8686 -0.1349
  730MOL0     H98524   2.214   7.204   9.766  1.9226 -2.0824  0.3386
  730MOL0     H98525   2.351   7.164   9.670 -3.0548 -0.4492 -1.9589
  730MOL0     H98526   2.336   7.295   9.913 -0.0508 -0.2339 -0.2329
  730MOL0     H98527   2.377   7.422   9.799 -1.2374 -0.5970 -2.0581
  730MOL0     H98528   2.538   7.148   9.821  1.0715 -0.1804  0.8842
  730MOL0     H98529   2.593   7.290   9.747  0.0651  1.1096  0.4497
  730MOL0     H98530   1.643   6.934   9.505  0.4376  0.1820 -0.8351
  730MOL0     H98531   1.437   6.832   9.444 -1.1504 -1.0496  2.0003
  730MOL0     H98532   0.980   6.992   9.297 -0.6072  1.5632  0.8256
  730MOL0     H98533   0.746   6.954   9.251  0.7321  0.1125 -0.1887
  730MOL0     H98534   1.560   5.979   9.622  1.8257  0.9543  1.4721
  730MOL0     H98535   1.779   5.928   9.713  1.7588  0.7511 -2.9275
  730MOL0     H98536   2.127   5.785   9.730 -3.2626 -1.5477 -1.1423
  730MOL0     H98537   2.366   5.776   9.796 -1.7068  0.3663 -0.4869
  730MOL0     H98538   2.579   5.412   9.875 -1.1430 -0.4488  0.0915
  730MOL0     H98539   2.528   5.437  10.048  4.2723  0.4408  1.6427
  730MOL0     H98540   2.710   5.601  10.072 -3.3940 -1.9246  1.6818
  730MOL0     H98541   2.726   5.593   9.894 -2.3585 -2.6256 -1.8372
  730MOL0     H98542   2.794   5.380  10.098 -0.0493  1.2166  0.6591
  730MOL0     H98543   2.907   5.491  10.034 -0.6545  0.1132  1.6712
  730MOL0     H98544   2.929   5.290   9.874 -0.3320 -0.4327  0.9679
  730MOL0     H98545   2.760   5.265   9.877  1.2341 -0.6316 -1.2012
  730MOL0     H98546   2.740   5.491   9.558  1.4274 -3.2359 -1.7010
  730MOL0     H98547   2.330   5.381   9.932  0.7891  0.7204 -0.6311
  730MOL0     H98548   2.054   5.314   9.714 -0.5520  2.8739 -0.2609
  730MOL0     H98549   2.112   5.244   9.869 -1.6025 -2.3606 -3.0786
  730MOL0     H98550   1.966   5.342   9.851 -0.6927  0.5928 -1.6384
  731MOL0     O98551   4.849   9.428   4.718  0.2747  0.3425  0.0012
  731MOL0     C98552   4.808   9.459   4.830 -0.2567 -0.2807 -0.2704
  731MOL0     O98553   4.867   9.416   4.956 -0.2930 -0.1104  0.8470
  731MOL0     C98554   4.967   9.312   4.965  0.4496  1.1167 -0.3131
  731MOL0     C98555   5.094   9.325   4.903 -0.2906 -0.3643  0.3725
  731MOL0     C98556   5.187   9.217   4.922 -0.7991 -0.7471  0.9105
  731MOL0     C98557   5.163   9.106   5.004  0.4495  0.3235  0.2153
  731MOL0     O98558   5.249   9.002   5.028  0.7433  0.7323 -0.0020
  731MOL0     C98559   5.350   8.962   4.936  0.0582 -0.7160 -0.5408
  731MOL0     C98560   5.481   9.031   4.967  0.5342 -0.0519  0.3336
  731MOL0     C98561   5.576   9.014   4.843 -0.1706 -0.3532  0.0082
  731MOL0     C98562   5.732   9.058   4.863  0.2330  0.1208  0.6347
  731MOL0     C98563   5.811   9.021   4.737  0.2409  0.8671 -0.3673
  731MOL0     C98564   5.952   9.072   4.741  0.8869  0.1325 -0.1157
  731MOL0     C98565   6.019   9.071   4.604 -0.1476  0.4682  0.0164
  731MOL0     C98566   6.156   9.148   4.609  0.0113 -0.7764  0.3836
  731MOL0     N98567   6.216   9.126   4.471 -0.2725  0.1164  0.9981
  731MOL0     C98568   6.314   9.031   4.434 -0.5393 -0.0948 -0.4739
  731MOL0     C98569   6.309   9.025   4.297 -0.1050  0.8816 -0.2045
  731MOL0     C98570   6.393   8.938   4.207  0.0357  0.0582  1.2306
  731MOL0     C98571   6.350   8.793   4.224  0.4860 -0.2778 -0.1756
  731MOL0     C98572   6.201   8.764   4.211  0.1328 -0.0511 -0.4267
  731MOL0     C98573   6.147   8.665   4.322 -0.6995 -0.4256 -0.2727
  731MOL0     O98574   6.021   8.633   4.284  0.1626 -0.2030 -0.2404
  731MOL0     C98575   5.915   8.672   4.365  0.1846 -0.6526  0.5168
  731MOL0     C98576   5.866   8.805   4.361 -0.3229  0.4117  0.2684
  731MOL0     C98577   5.745   8.838   4.413 -0.0262 -0.8533 -1.2556
  731MOL0     C98578   5.671   8.739   4.493  0.8765 -0.2763  0.4302
  731MOL0     C98579   5.553   8.776   4.573 -0.6004  0.9262 -0.9267
  731MOL0     O98580   5.479   8.875   4.521 -0.2034  0.2434  0.3800
  731MOL0     C98581   5.347   8.885   4.555 -0.3696 -0.1135  0.3758
  731MOL0     C98582   5.261   8.771   4.582 -0.0144 -0.6703 -0.3167
  731MOL0     C98583   5.120   8.788   4.606 -0.3143 -0.1067  0.4121
  731MOL0     C98584   5.066   8.917   4.602 -0.0715 -0.5815  0.2564
  731MOL0     O98585   4.933   8.935   4.614 -0.0729 -0.1392 -0.4610
  731MOL0     C98586   4.901   8.897   4.746 -0.1783  0.6405  0.6351
  731MOL0     C98587   4.758   8.938   4.773 -1.1365 -0.3088  0.3214
  731MOL0     C98588   4.747   9.091   4.796  1.1135 -0.2316 -0.6740
  731MOL0     C98589   4.608   9.142   4.795  0.7614 -0.6428 -0.8140
  731MOL0     C98590   4.513   9.093   4.907 -0.5523 -0.5262  0.0181
  731MOL0     C98591   4.370   9.153   4.904  0.5745 -0.0578  0.5456
  731MOL0     C98592   4.275   9.064   4.812  0.4746 -0.5227  0.4986
  731MOL0     C98593   4.166   9.158   4.747 -0.4152 -0.6393  0.4183
  731MOL0    Cl98594   4.064   9.251   4.869 -0.0074 -0.3826  0.3141
  731MOL0     C98595   5.149   9.026   4.565 -0.0622 -0.0714 -0.1193
  731MOL0     C98596   5.287   9.013   4.547 -0.0987  0.4929  0.4689
  731MOL0     O98597   5.530   8.706   4.670  0.2568  0.3577 -0.1386
  731MOL0     C98598   5.728   8.608   4.500 -0.3666 -0.2344  0.2701
  731MOL0     C98599   5.844   8.577   4.433  0.5616  0.2694  0.6550
  731MOL0     N98600   6.215   9.113   4.253 -0.2147  0.3860  0.7514
  731MOL0     N98601   6.172   9.182   4.352  0.4098  0.7953 -1.0138
  731MOL0     C98602   5.042   9.101   5.069 -1.3045  0.3459 -0.0475
  731MOL0     C98603   4.941   9.200   5.045 -0.0296  0.0516 -0.3099
  731MOL0     C98604   4.682   9.555   4.831 -0.4092 -0.2688 -0.2666
  731MOL0     C98605   4.640   9.606   4.953 -0.0028 -0.1907 -0.2429
  731MOL0     C98606   4.534   9.688   4.967 -1.1615  0.6708  0.2094
  731MOL0     C98607   4.453   9.710   4.853  0.3694 -0.3334  0.4224
  731MOL0     O98608   4.340   9.784   4.869 -0.5816  1.1288  0.3792
  731MOL0     C98609   4.319   9.885   4.773 -0.3131 -0.6045 -0.2489
  731MOL0     C98610   4.272  10.009   4.848  0.6963 -0.4919 -0.3432
  731MOL0     C98611   4.133   9.975   4.909 -0.9776  0.2781 -0.3400
  731MOL0     C98612   4.045  10.100   4.911  0.8034 -0.1648  1.0266
  731MOL0     C98613   4.108  10.207   4.990 -0.1846  0.5609 -0.6006
  731MOL0     C98614   4.153  10.294   5.062  0.3656 -1.1482 -0.3450
  731MOL0     C98615   4.480   9.642   4.735  0.3655 -0.3781 -0.3864
  731MOL0     C98616   4.600   9.570   4.718  0.1913  0.4495 -0.5725
  731MOL0     C98617   4.622   9.522   4.578  0.0598 -0.5541 -0.4418
  731MOL0     H98618   5.116   9.419   4.854 -1.7999 -0.8731 -1.3982
  731MOL0     H98619   5.283   9.222   4.872 -0.9202 -0.4997  0.7054
  731MOL0     H98620   5.371   8.855   4.944  0.9773 -0.6394 -1.7402
  731MOL0     H98621   5.322   8.987   4.833  2.6536  0.7895 -0.9723
  731MOL0     H98622   5.530   8.982   5.051  3.0345 -1.7594 -1.9439
  731MOL0     H98623   5.458   9.136   4.987 -2.4792 -0.4972 -0.2019
  731MOL0     H98624   5.523   9.069   4.765  1.6236  1.4907  0.0117
  731MOL0     H98625   5.572   8.907   4.818 -1.2576 -0.2861 -0.1538
  731MOL0     H98626   5.726   9.166   4.880 -2.6969  0.1077  0.2209
  731MOL0     H98627   5.767   9.006   4.953  0.4323 -1.6536 -0.4098
  731MOL0     H98628   5.799   8.915   4.714 -0.1447  0.9588 -0.6105
  731MOL0     H98629   5.758   9.069   4.654 -0.6007 -1.1933 -1.1023
  731MOL0     H98630   5.952   9.172   4.785  0.7006 -0.1994  0.6550
  731MOL0     H98631   6.024   9.016   4.801  3.4066  2.5747 -0.6486
  731MOL0     H98632   5.956   9.120   4.530 -0.2823 -1.2907 -1.0848
  731MOL0     H98633   6.047   8.972   4.567  1.3975 -0.1079  2.4437
  731MOL0     H98634   6.139   9.254   4.633 -1.5339 -1.4538  2.6486
  731MOL0     H98635   6.229   9.101   4.676  0.7920 -0.4541 -0.2220
  731MOL0     H98636   6.370   8.972   4.505  1.5605 -0.2982 -2.2063
  731MOL0     H98637   6.394   8.973   4.104 -0.4893 -1.3623  0.7147
  731MOL0     H98638   6.496   8.928   4.244  1.3692 -3.6688 -2.6654
  731MOL0     H98639   6.412   8.737   4.154  1.7892  0.2754  0.4948
  731MOL0     H98640   6.391   8.754   4.317 -1.1839  0.1616  0.7909
  731MOL0     H98641   6.184   8.721   4.112  0.9260 -1.3716 -0.0228
  731MOL0     H98642   6.140   8.854   4.218  2.6939  1.6879  4.3112
  731MOL0     H98643   6.155   8.718   4.417 -1.0254 -0.5582 -0.1694
  731MOL0     H98644   6.194   8.568   4.342 -2.8523 -1.1841  1.4366
  731MOL0     H98645   5.925   8.883   4.315  1.5728 -0.7651  0.5839
  731MOL0     H98646   5.719   8.940   4.439  0.8996 -1.4344  2.5007
  731MOL0     H98647   5.296   8.670   4.598 -0.9679 -0.6991  2.0574
  731MOL0     H98648   5.058   8.700   4.616  0.4083 -1.3080 -3.8910
  731MOL0     H98649   4.902   8.788   4.756 -0.8747  0.6291  0.6832
  731MOL0     H98650   4.969   8.940   4.820  0.9688 -0.4127  0.2238
  731MOL0     H98651   4.691   8.906   4.693 -1.1790 -3.2387  1.4107
  731MOL0     H98652   4.739   8.884   4.866  2.3614 -1.5574  0.4677
  731MOL0     H98653   4.778   9.117   4.897 -0.4121 -1.6940  0.2314
  731MOL0     H98654   4.809   9.146   4.725  0.8884  1.8637  0.6890
  731MOL0     H98655   4.562   9.129   4.696 -1.3378 -4.8346  0.5003
  731MOL0     H98656   4.611   9.251   4.809  2.0671 -0.8211  0.4732
  731MOL0     H98657   4.570   9.113   4.998 -1.4208 -3.0112  1.2145
  731MOL0     H98658   4.511   8.983   4.911 -0.6845 -0.4906  1.5702
  731MOL0     H98659   4.321   9.163   5.001  2.7424  0.7053  1.6408
  731MOL0     H98660   4.367   9.250   4.853 -0.8436 -1.8829 -3.2007
  731MOL0     H98661   4.229   8.983   4.869 -0.3669 -1.3372 -1.2658
  731MOL0     H98662   4.335   9.013   4.736 -0.7252  0.0908 -0.9171
  731MOL0     H98663   4.228   9.225   4.687  1.0234  1.5595  4.0934
  731MOL0     H98664   4.094   9.106   4.682  0.2212 -1.2562  0.1826
  731MOL0     H98665   5.104   9.125   4.566  1.8340  0.8704  2.4866
  731MOL0     H98666   5.341   9.103   4.518 -1.3521  0.9565 -0.5248
  731MOL0     H98667   5.683   8.530   4.561  1.3127 -0.5108  1.2148
  731MOL0     H98668   5.892   8.481   4.449 -1.1817 -0.6531  0.6321
  731MOL0     H98669   5.035   9.025   5.145  1.1882 -0.1751 -0.2383
  731MOL0     H98670   4.846   9.192   5.097  0.0080  0.5063 -0.1658
  731MOL0     H98671   4.711   9.591   5.034 -0.4951 -0.6500  0.1127
  731MOL0     H98672   4.510   9.727   5.065 -3.2231  0.2850 -0.0951
  731MOL0     H98673   4.246   9.848   4.700 -0.8253 -0.1428  0.0233
  731MOL0     H98674   4.412   9.918   4.728 -0.2877 -1.2840 -0.7062
  731MOL0     H98675   4.259  10.083   4.768  1.2510 -2.8360 -2.7403
  731MOL0     H98676   4.341  10.056   4.919  0.2423  0.4018 -0.4761
  731MOL0     H98677   4.142   9.930   5.008  0.2624  0.4261 -0.3735
  731MOL0     H98678   4.078   9.904   4.847 -4.9572  2.3187  0.5212
  731MOL0     H98679   4.027  10.134   4.809  0.1863 -0.2357  1.1113
  731MOL0     H98680   3.951  10.074   4.959 -0.3928  0.4288 -0.8760
  731MOL0     H98681   4.194  10.355   5.140  0.4060  0.1431 -1.3506
  731MOL0     H98682   4.420   9.649   4.645 -1.4643  0.1653  0.8180
  731MOL0     H98683   4.629   9.413   4.576 -1.4832 -0.6793 -0.4776
  731MOL0     H98684   4.544   9.553   4.508  0.6112 -3.1783 -2.3713
  731MOL0     H98685   4.719   9.557   4.544 -0.4607  0.6096 -0.7794
  732MOL0     O98686   2.067   1.440   4.348  0.1386 -0.6222 -0.7730
  732MOL0     C98687   2.042   1.409   4.237  0.0020  0.2434 -0.7503
  732MOL0     O98688   2.140   1.376   4.144  0.1115 -0.8929  0.3566
  732MOL0     C98689   2.266   1.416   4.182 -0.2049 -0.4271 -0.1394
  732MOL0     C98690   2.361   1.320   4.195 -0.0699 -0.5559 -0.4678
  732MOL0     C98691   2.495   1.343   4.216  0.1670 -0.9349  0.0094
  732MOL0     C98692   2.533   1.470   4.252  0.1337  0.6080 -0.5916
  732MOL0     O98693   2.657   1.514   4.288 -0.0724  0.0273  0.0877
  732MOL0     C98694   2.752   1.419   4.336  0.9811 -0.2091  1.0388
  732MOL0     C98695   2.824   1.353   4.211 -0.6780  0.2758  0.3338
  732MOL0     C98696   2.943   1.285   4.273 -1.5588  0.2801 -0.5620
  732MOL0     C98697   3.040   1.227   4.163  0.4234 -0.7903 -0.1366
  732MOL0     C98698   3.169   1.167   4.237  0.2947 -0.2524 -0.2435
  732MOL0     C98699   3.247   1.072   4.145  0.0469 -0.1512  1.2818
  732MOL0     C98700   3.330   1.154   4.044 -0.3683 -0.1926  0.1199
  732MOL0     C98701   3.381   1.081   3.925  0.4037  0.6374 -0.0177
  732MOL0     N98702   3.447   0.953   3.943 -0.1769 -0.6251 -0.1687
  732MOL0     C98703   3.567   0.934   4.015 -0.4604  0.3667  0.9585
  732MOL0     C98704   3.608   0.809   3.977 -0.1265 -0.7737  0.6455
  732MOL0     C98705   3.740   0.748   4.025  0.3168 -0.5776 -0.1093
  732MOL0     C98706   3.757   0.603   3.984  0.4649  0.0889 -0.2842
  732MOL0     C98707   3.660   0.513   4.068 -0.5343  0.8397 -0.4111
  732MOL0     C98708   3.685   0.374   4.012  0.2496 -0.2086 -0.2138
  732MOL0     O98709   3.584   0.331   3.912 -0.2849 -0.2773  0.2455
  732MOL0     C98710   3.468   0.285   3.968  0.6407  0.1021 -0.3783
  732MOL0     C98711   3.377   0.235   3.872 -0.6997  0.9660  0.0083
  732MOL0     C98712   3.255   0.180   3.896  0.3458 -0.1063 -0.0172
  732MOL0     C98713   3.209   0.174   4.032 -0.1971 -0.0458  0.6558
  732MOL0     C98714   3.076   0.130   4.070 -0.7565  1.1510  1.1447
  732MOL0     O98715   3.045   0.128   4.194 -0.2754  0.0769 -0.2211
  732MOL0     C98716   2.930   0.070   4.235  0.0348 -0.3873 -0.3319
  732MOL0     C98717   2.846   0.140   4.333  0.2987 -0.3668 -0.3909
  732MOL0     C98718   2.731   0.069   4.386  1.4470 -0.6290 -0.5275
  732MOL0     C98719   2.705  -0.059   4.353  0.4078  0.6111 -1.0623
  732MOL0     O98720   2.618  -0.133   4.427 -0.0112 -0.1038  0.4425
  732MOL0     C98721   2.530  -0.227   4.363 -1.1839 -0.8298 -0.4777
  732MOL0     C98722   2.427  -0.284   4.458 -1.0172  0.1392  0.2108
  732MOL0     C98723   2.310  -0.363   4.393 -0.5276 -0.5656  0.5614
  732MOL0     C98724   2.196  -0.380   4.500  0.4536  0.0277  0.0186
  732MOL0     C98725   2.057  -0.393   4.436 -0.0790 -0.0907 -0.8570
  732MOL0     C98726   1.951  -0.419   4.540  0.3187  0.0352  0.3183
  732MOL0     C98727   1.821  -0.481   4.483 -0.6247  0.1697  0.7780
  732MOL0     C98728   1.747  -0.569   4.584 -0.7547 -0.0842  1.5205
  732MOL0    Cl98729   1.654  -0.466   4.702 -0.4862  0.2003  0.1302
  732MOL0     C98730   2.779  -0.117   4.256  0.3701 -0.2456 -0.0852
  732MOL0     C98731   2.889  -0.055   4.198 -0.4928 -0.2080 -0.1744
  732MOL0     O98732   2.996   0.088   3.981  0.2307 -0.5376 -0.9212
  732MOL0     C98733   3.300   0.211   4.133 -0.3088 -0.1357 -0.1981
  732MOL0     C98734   3.423   0.268   4.102 -0.7784  0.5151 -0.7654
  732MOL0     N98735   3.511   0.750   3.896  0.0846 -0.6039 -0.4911
  732MOL0     N98736   3.423   0.835   3.872  0.3844 -0.8716 -0.0300
  732MOL0     C98737   2.438   1.569   4.253  0.3697 -0.4096  0.4209
  732MOL0     C98738   2.308   1.548   4.211 -0.4345  0.0651  0.2241
  732MOL0     C98739   1.909   1.415   4.189  0.4608  0.4601  0.3420
  732MOL0     C98740   1.892   1.373   4.054 -0.3317 -0.1537 -0.1020
  732MOL0     C98741   1.769   1.364   3.992 -0.0103  0.2497 -0.1031
  732MOL0     C98742   1.658   1.396   4.062  0.4285 -0.0404  0.5149
  732MOL0     O98743   1.533   1.397   4.001  0.0802  0.2204  0.1432
  732MOL0     C98744   1.500   1.347   3.871  0.3705  0.5649  0.4157
  732MOL0     C98745   1.367   1.418   3.849 -0.4994 -0.1780 -0.8812
  732MOL0     C98746   1.318   1.402   3.704  0.3762  0.4329 -0.2106
  732MOL0     C98747   1.175   1.445   3.706  0.2179 -0.4034  0.1993
  732MOL0     C98748   1.107   1.418   3.581  0.4351 -0.6303 -0.0677
  732MOL0     C98749   1.034   1.393   3.491  0.0324 -0.4158  1.0860
  732MOL0     C98750   1.671   1.433   4.191 -0.1764 -0.0429 -0.1405
  732MOL0     C98751   1.791   1.448   4.257 -0.0323  0.0666  0.5713
  732MOL0     C98752   1.787   1.504   4.395  0.6399 -0.3514  0.4634
  732MOL0     H98753   2.333   1.220   4.166  0.7444 -2.1302  3.4490
  732MOL0     H98754   2.563   1.259   4.227  2.3811  1.0160  2.5822
  732MOL0     H98755   2.832   1.481   4.378  1.9628 -0.6357 -0.1316
  732MOL0     H98756   2.710   1.343   4.402 -1.6603 -1.6827 -2.0764
  732MOL0     H98757   2.848   1.431   4.138  0.4531 -0.3765 -0.0075
  732MOL0     H98758   2.768   1.278   4.155  2.8688 -1.7529 -0.7659
  732MOL0     H98759   2.909   1.214   4.349 -2.4812  0.0873 -1.1300
  732MOL0     H98760   3.001   1.357   4.331 -1.6559 -0.8995  1.0649
  732MOL0     H98761   2.992   1.154   4.097  0.0241 -0.2645 -0.4439
  732MOL0     H98762   3.080   1.313   4.108  2.8998 -2.4133 -1.0298
  732MOL0     H98763   3.238   1.245   4.269 -0.1216 -0.0242  0.1173
  732MOL0     H98764   3.137   1.122   4.332 -2.1489  1.2928 -0.2600
  732MOL0     H98765   3.303   1.013   4.218 -0.4518  0.2504  2.0105
  732MOL0     H98766   3.176   1.007   4.093  0.2575 -0.5649  1.5156
  732MOL0     H98767   3.408   1.206   4.101  0.1458 -2.7162  1.8841
  732MOL0     H98768   3.274   1.239   4.004 -3.5272 -1.3760  1.6935
  732MOL0     H98769   3.294   1.072   3.858  1.8463 -2.2609 -1.6896
  732MOL0     H98770   3.456   1.142   3.872 -1.7105  2.7950 -0.7368
  732MOL0     H98771   3.620   0.997   4.086  2.2188 -0.9241  0.2483
  732MOL0     H98772   3.815   0.818   3.988  0.1972  0.0425  0.8023
  732MOL0     H98773   3.753   0.753   4.133  0.8540  1.5747 -0.2248
  732MOL0     H98774   3.742   0.592   3.876  1.9752 -0.9655 -0.4157
  732MOL0     H98775   3.860   0.577   4.010 -0.0582 -1.0552  0.7798
  732MOL0     H98776   3.553   0.538   4.071 -0.7322 -0.0283  0.3536
  732MOL0     H98777   3.699   0.528   4.169 -0.5198 -0.6163 -0.1854
  732MOL0     H98778   3.684   0.306   4.097 -0.3934  0.0657  0.0048
  732MOL0     H98779   3.785   0.377   3.969  1.2223  4.7073  1.6953
  732MOL0     H98780   3.416   0.240   3.771 -1.7418 -0.9459 -0.5335
  732MOL0     H98781   3.186   0.166   3.814  2.6655  1.5258 -2.4113
  732MOL0     H98782   2.873   0.236   4.376  0.6795 -1.8715  3.1035
  732MOL0     H98783   2.677   0.117   4.466  0.9691 -0.3019 -1.0341
  732MOL0     H98784   2.475  -0.185   4.279 -0.3152  0.7678 -0.2850
  732MOL0     H98785   2.603  -0.298   4.321  0.4539  1.2285 -1.2745
  732MOL0     H98786   2.479  -0.345   4.532 -0.4318 -0.3709 -0.6152
  732MOL0     H98787   2.400  -0.203   4.528  0.4145 -0.4455  1.4934
  732MOL0     H98788   2.276  -0.302   4.308 -0.5028 -1.9262 -0.4621
  732MOL0     H98789   2.348  -0.454   4.345  1.5208 -0.8105  2.5154
  732MOL0     H98790   2.198  -0.299   4.573 -0.0344  0.2611 -0.2300
  732MOL0     H98791   2.208  -0.477   4.550  0.9664 -1.1872 -2.3201
  732MOL0     H98792   2.057  -0.469   4.357  1.7947 -0.9521 -0.0873
  732MOL0     H98793   2.046  -0.299   4.381 -0.4435 -0.2054 -0.9848
  732MOL0     H98794   1.988  -0.482   4.622  2.6602  2.2461  1.0981
  732MOL0     H98795   1.931  -0.320   4.582 -0.7560 -0.5072  1.1272
  732MOL0     H98796   1.847  -0.538   4.394  1.5442 -0.4969  1.7573
  732MOL0     H98797   1.762  -0.398   4.444  0.2280 -1.6596 -5.4079
  732MOL0     H98798   1.678  -0.634   4.528  1.0335 -1.9029  1.2962
  732MOL0     H98799   1.820  -0.625   4.643  1.2354 -0.1489 -0.8371
  732MOL0     H98800   2.758  -0.219   4.226  1.3906 -0.6594  0.5509
  732MOL0     H98801   2.950  -0.126   4.144  0.4098  0.2726  0.1963
  732MOL0     H98802   3.285   0.185   4.237  2.1448 -0.4473  0.1281
  732MOL0     H98803   3.490   0.282   4.186 -2.1437  0.3579  0.3963
  732MOL0     H98804   2.458   1.672   4.282  1.5111 -0.0453 -1.4968
  732MOL0     H98805   2.242   1.634   4.208  0.2365  0.6896  2.1297
  732MOL0     H98806   1.979   1.342   3.996 -0.9102  0.1601 -1.1673
  732MOL0     H98807   1.764   1.331   3.888 -1.0957  0.0707 -0.0042
  732MOL0     H98808   1.497   1.238   3.870 -0.0776  0.5434  1.8923
  732MOL0     H98809   1.563   1.378   3.787 -1.4159 -1.4809 -1.8427
  732MOL0     H98810   1.387   1.525   3.853  0.4123 -0.2544 -2.4322
  732MOL0     H98811   1.292   1.390   3.923  1.2164  0.1310  1.0840
  732MOL0     H98812   1.320   1.296   3.677 -4.3287  0.1562 -0.3351
  732MOL0     H98813   1.382   1.453   3.631 -0.5149  0.5194 -0.9583
  732MOL0     H98814   1.118   1.401   3.788  2.6978  0.1654  2.3682
  732MOL0     H98815   1.170   1.552   3.731  1.4489 -0.1656 -0.5170
  732MOL0     H98816   0.961   1.375   3.414  1.0748  0.9365 -0.2838
  732MOL0     H98817   1.579   1.445   4.247 -0.1610 -0.5568  0.0036
  732MOL0     H98818   1.864   1.580   4.405 -1.2186  1.4928  1.5373
  732MOL0     H98819   1.691   1.555   4.406  1.6082  1.8988 -1.0672
  732MOL0     H98820   1.801   1.433   4.478 -3.0544  1.2853  2.7684
  733MOL0     O98821  10.253   5.661   2.887 -0.1055  0.0374  0.0847
  733MOL0     C98822  10.229   5.761   2.956 -0.1277 -0.2752  0.8384
  733MOL0     O98823  10.321   5.854   2.991  0.0646 -0.1030  0.8073
  733MOL0     C98824  10.436   5.878   2.927  0.0410 -0.2133  0.0921
  733MOL0     C98825  10.544   5.942   2.985  0.2892  0.0863 -0.2834
  733MOL0     C98826  10.661   5.975   2.923 -0.4120  0.8218  0.3269
  733MOL0     C98827  10.684   5.933   2.793  0.2997 -0.2968  0.2831
  733MOL0     O98828  10.805   5.953   2.722  0.0928 -0.0084  0.0739
  733MOL0     C98829  10.910   6.019   2.789  0.3865  0.1897  0.6864
  733MOL0     C98830  11.037   6.028   2.699  0.6165  0.4610 -0.0515
  733MOL0     C98831  11.114   5.899   2.690  0.4444 -0.0865  0.0437
  733MOL0     C98832  11.264   5.936   2.659  0.5656  0.2340  0.1287
  733MOL0     C98833  11.352   5.825   2.614  0.1135 -0.1571 -1.1478
  733MOL0     C98834  11.503   5.830   2.665 -0.2378 -0.4616  0.3615
  733MOL0     C98835  11.605   5.724   2.624  0.0955 -0.4133 -0.0489
  733MOL0     C98836  11.747   5.759   2.691  0.3191  0.1178  0.1842
  733MOL0     N98837  11.860   5.716   2.615  0.1262  0.5826 -0.7769
  733MOL0     C98838  11.917   5.788   2.518 -0.5049 -0.0181  0.1323
  733MOL0     C98839  12.017   5.714   2.471 -0.2525  0.1634 -0.8046
  733MOL0     C98840  12.132   5.771   2.396  0.1984 -0.2671 -0.4842
  733MOL0     C98841  12.277   5.726   2.431 -0.1298 -0.5924  0.2449
  733MOL0     C98842  12.293   5.572   2.421 -0.1890 -0.6963 -0.4433
  733MOL0     C98843  12.420   5.525   2.354  0.5579 -1.2282 -0.7880
  733MOL0     O98844  12.513   5.555   2.452  1.3734 -0.0964  0.3526
  733MOL0     C98845  12.634   5.492   2.447 -0.2668 -0.6854 -0.0281
  733MOL0     C98846  12.667   5.409   2.346  0.8406  0.0224  0.6300
  733MOL0     C98847  12.805   5.372   2.333  0.9120 -0.8155  0.1761
  733MOL0     C98848  12.900   5.413   2.429 -0.3574 -0.8093  0.1338
  733MOL0     C98849  13.036   5.388   2.406 -0.3512 -0.5278 -0.4376
  733MOL0     O98850  13.116   5.435   2.507 -0.4070  0.1624  0.5544
  733MOL0     C98851  13.251   5.392   2.507  0.5704 -0.2451  0.2797
  733MOL0     C98852  13.340   5.397   2.392 -0.0329  0.7810 -0.7608
  733MOL0     C98853  13.469   5.359   2.413 -0.4060 -0.6120  0.3423
  733MOL0     C98854  13.513   5.315   2.541 -0.6493  0.4394 -0.2092
  733MOL0     O98855  13.645   5.297   2.557 -0.2828  0.0888  0.0185
  733MOL0     C98856  13.716   5.419   2.605  0.0628  0.2375  0.6359
  733MOL0     C98857  13.855   5.384   2.659 -0.1506  0.2076 -0.0861
  733MOL0     C98858  13.862   5.294   2.782 -0.0044 -0.0287 -0.4836
  733MOL0     C98859  14.014   5.261   2.804  0.0808  0.5956 -0.1353
  733MOL0     C98860  14.048   5.121   2.857  0.6373  0.4893  0.1987
  733MOL0     C98861  14.202   5.127   2.885 -0.3081  0.9225  1.0710
  733MOL0     C98862  14.265   4.996   2.930  0.5849 -0.8364  0.1061
  733MOL0     C98863  14.204   4.952   3.059 -0.3373 -0.8617  0.4439
  733MOL0    Cl98864  14.278   4.793   3.112  0.0666 -0.1976  0.0152
  733MOL0     C98865  13.425   5.308   2.652  0.0338 -0.2525 -0.2004
  733MOL0     C98866  13.286   5.343   2.637 -0.9093  0.7844  0.0069
  733MOL0     O98867  13.070   5.315   2.311  0.2750 -0.0198 -0.2003
  733MOL0     C98868  12.855   5.492   2.539 -0.5435  0.4408 -0.1237
  733MOL0     C98869  12.725   5.539   2.546  0.2643 -0.4014  0.0016
  733MOL0     N98870  12.022   5.599   2.544  0.8838  0.1199 -0.5113
  733MOL0     N98871  11.924   5.595   2.630 -0.7910 -0.2170 -0.3467
  733MOL0     C98872  10.581   5.874   2.723 -0.5193  0.2383 -0.2189
  733MOL0     C98873  10.455   5.845   2.788 -0.1208 -0.3400 -0.0631
  733MOL0     C98874  10.086   5.784   2.994  0.4583 -0.1541  0.1766
  733MOL0     C98875  10.057   5.910   3.056 -0.0065 -0.3479 -0.3510
  733MOL0     C98876   9.926   5.941   3.107  0.0786  1.4499 -0.1979
  733MOL0     C98877   9.823   5.844   3.092  0.3246  0.8471  0.1999
  733MOL0     O98878   9.682   5.855   3.103 -0.2110 -0.1403  0.5542
  733MOL0     C98879   9.621   5.989   3.110 -0.2354  0.0850  0.6684
  733MOL0     C98880   9.474   5.986   3.082  1.1343  0.2347 -0.5473
  733MOL0     C98881   9.414   6.119   3.131 -0.4988  0.1024 -0.0834
  733MOL0     C98882   9.264   6.122   3.105  0.2145 -0.1048 -0.2998
  733MOL0     C98883   9.187   6.032   3.200  0.4771  1.1081 -0.5510
  733MOL0     C98884   9.127   5.962   3.285  0.2212 -0.6357 -0.2699
  733MOL0     C98885   9.864   5.720   3.041  0.3092  0.5175 -0.1448
  733MOL0     C98886   9.987   5.681   2.994  0.0920 -0.4027 -0.5342
  733MOL0     C98887  10.010   5.543   2.938  0.1810  0.1734 -0.1901
  733MOL0     H98888  10.550   5.970   3.090  1.4759 -2.1160  0.2862
  733MOL0     H98889  10.729   6.031   2.986 -0.7937  0.9219  0.6547
  733MOL0     H98890  10.881   6.121   2.815  0.6093  0.1999  0.9030
  733MOL0     H98891  10.930   5.960   2.879  2.2031  0.2619  0.3803
  733MOL0     H98892  11.103   6.097   2.753  1.7539 -1.2876  0.8704
  733MOL0     H98893  11.018   6.072   2.601  1.1928  0.3432 -0.2205
  733MOL0     H98894  11.064   5.825   2.628  0.8679 -0.1431 -0.2393
  733MOL0     H98895  11.113   5.856   2.790  1.3270  0.4049  0.2772
  733MOL0     H98896  11.266   6.015   2.583  1.3245 -0.2643 -0.3948
  733MOL0     H98897  11.306   5.972   2.753  1.9098 -2.7301  0.7811
  733MOL0     H98898  11.315   5.728   2.649  0.3204  0.0480 -0.3272
  733MOL0     H98899  11.350   5.811   2.505 -1.0655  0.1244 -1.1702
  733MOL0     H98900  11.542   5.926   2.632 -1.7286  0.1546  0.3147
  733MOL0     H98901  11.501   5.838   2.774  2.7801 -0.3588  0.4861
  733MOL0     H98902  11.615   5.737   2.516 -1.7429 -1.3159 -0.3773
  733MOL0     H98903  11.577   5.619   2.639 -0.2466 -0.2218  0.7103
  733MOL0     H98904  11.746   5.867   2.709 -0.5272  1.2437 -5.0679
  733MOL0     H98905  11.749   5.721   2.794 -0.2234  0.1009  0.1922
  733MOL0     H98906  11.889   5.888   2.485 -1.2213  0.4509  2.0200
  733MOL0     H98907  12.114   5.752   2.289  1.8859  1.0881 -1.0497
  733MOL0     H98908  12.117   5.878   2.408 -1.7591 -0.5090 -0.4283
  733MOL0     H98909  12.351   5.772   2.364  0.3539  0.1725  1.2727
  733MOL0     H98910  12.295   5.759   2.533 -0.8260  2.3657 -0.4824
  733MOL0     H98911  12.206   5.549   2.360 -1.6179  1.1376  0.7946
  733MOL0     H98912  12.277   5.528   2.520  0.0041  3.8689  1.8722
  733MOL0     H98913  12.431   5.578   2.259  0.8346 -0.0336 -0.1121
  733MOL0     H98914  12.407   5.418   2.339  0.1452 -1.1749 -0.8262
  733MOL0     H98915  12.604   5.381   2.263  0.2582 -1.5122  1.5444
  733MOL0     H98916  12.835   5.309   2.250  0.9596 -1.1808  0.4719
  733MOL0     H98917  13.302   5.431   2.296 -1.4627 -2.5316 -1.5125
  733MOL0     H98918  13.539   5.369   2.331 -1.6377 -0.6754 -0.7438
  733MOL0     H98919  13.725   5.488   2.521 -3.7382  1.3689  0.9625
  733MOL0     H98920  13.665   5.464   2.691  2.1314  1.8683  1.0779
  733MOL0     H98921  13.901   5.333   2.573 -0.2312 -0.6039  0.3423
  733MOL0     H98922  13.908   5.476   2.683  0.1768 -0.0542  0.2144
  733MOL0     H98923  13.829   5.350   2.870  1.8605  1.3539 -0.5943
  733MOL0     H98924  13.794   5.212   2.755 -2.4647  2.1771 -1.4241
  733MOL0     H98925  14.050   5.332   2.879 -1.4886  3.1858 -1.6950
  733MOL0     H98926  14.074   5.285   2.716  0.1876  2.0332  0.3141
  733MOL0     H98927  14.015   5.044   2.786  0.2154  1.0765 -0.2520
  733MOL0     H98928  13.990   5.097   2.946  0.1730 -1.9791 -0.6962
  733MOL0     H98929  14.256   5.153   2.793 -1.2554  0.7829  0.4667
  733MOL0     H98930  14.224   5.197   2.966  0.5641 -0.0821  1.7273
  733MOL0     H98931  14.373   5.002   2.941  0.6413 -2.5889  0.8961
  733MOL0     H98932  14.244   4.921   2.853  2.1360 -0.9261 -0.2651
  733MOL0     H98933  14.220   5.043   3.117 -1.1117  0.7755 -1.7522
  733MOL0     H98934  14.099   4.935   3.032 -0.4310 -0.0754  0.3025
  733MOL0     H98935  13.468   5.288   2.750  1.0186  3.3799  0.2643
  733MOL0     H98936  13.212   5.335   2.717 -0.4873 -0.5877  0.2915
  733MOL0     H98937  12.921   5.532   2.616 -0.4130 -1.3760  0.7450
  733MOL0     H98938  12.696   5.607   2.625 -2.8026 -5.2041  3.5431
  733MOL0     H98939  10.613   5.844   2.623  0.4563 -1.8167  0.6455
  733MOL0     H98940  10.369   5.817   2.728 -0.2957  0.6834 -0.3118
  733MOL0     H98941  10.139   5.981   3.066 -1.1086  0.8842  0.3077
  733MOL0     H98942   9.904   6.042   3.139  2.5457  1.8822  0.3893
  733MOL0     H98943   9.677   6.057   3.045 -2.7895  2.0958  0.3992
  733MOL0     H98944   9.634   6.026   3.212  2.9654 -0.3102  0.5095
  733MOL0     H98945   9.445   5.897   3.139 -0.8541 -0.6488 -2.7399
  733MOL0     H98946   9.459   5.979   2.973  1.0156  1.5783 -0.6242
  733MOL0     H98947   9.466   6.211   3.099  1.9350  1.8779  7.0523
  733MOL0     H98948   9.436   6.116   3.238 -1.1047 -0.1182  0.0363
  733MOL0     H98949   9.221   6.220   3.123 -1.3406 -1.0934  1.7939
  733MOL0     H98950   9.233   6.102   3.002  0.8352  1.7877 -0.8781
  733MOL0     H98951   9.075   5.905   3.359  1.8058  1.5145  2.6773
  733MOL0     H98952   9.778   5.654   3.030  0.1178  0.8869 -0.8805
  733MOL0     H98953   9.908   5.503   2.936  0.8203 -1.8977  2.5476
  733MOL0     H98954  10.046   5.542   2.835  1.3920  0.0821  0.2243
  733MOL0     H98955  10.067   5.479   3.006 -1.3941  0.5583  1.5827
  734MOL0     O98956  11.146   6.261   1.694 -0.6812 -0.5770  0.1381
  734MOL0     C98957  11.104   6.187   1.610  0.4322 -0.5292  0.6387
  734MOL0     O98958  11.158   6.168   1.489  0.1031 -0.3606 -0.2636
  734MOL0     C98959  11.294   6.185   1.457  0.0617 -0.6382 -0.6129
  734MOL0     C98960  11.320   6.160   1.327  1.4993 -0.0856 -0.3214
  734MOL0     C98961  11.449   6.167   1.270 -0.7315 -1.3156  0.3455
  734MOL0     C98962  11.558   6.184   1.357  0.5337 -1.0582 -0.0411
  734MOL0     O98963  11.694   6.163   1.332  0.1016 -0.8638  0.6702
  734MOL0     C98964  11.735   6.163   1.196 -1.3249  0.3493  0.9176
  734MOL0     C98965  11.886   6.155   1.190 -0.5856 -0.5232  0.4221
  734MOL0     C98966  11.944   6.045   1.280  0.2822  0.2662 -0.2632
  734MOL0     C98967  12.091   6.043   1.264  0.8353  1.3428  0.0152
  734MOL0     C98968  12.156   5.941   1.351  0.6711  0.1445 -0.3691
  734MOL0     C98969  12.302   5.910   1.317 -0.6534 -0.8500  0.1554
  734MOL0     C98970  12.391   6.030   1.350 -0.5407  0.5238 -0.4864
  734MOL0     C98971  12.537   5.997   1.315 -0.3407 -0.0609  0.1799
  734MOL0     N98972  12.619   6.123   1.348 -0.3135 -0.0239 -0.4302
  734MOL0     C98973  12.740   6.128   1.416 -0.3627 -0.4082 -0.5713
  734MOL0     C98974  12.754   6.256   1.445  0.5069  0.1149 -0.6244
  734MOL0     C98975  12.867   6.336   1.505 -0.5436  1.2088  0.6321
  734MOL0     C98976  12.976   6.383   1.402 -0.0198  0.2392  0.4517
  734MOL0     C98977  13.078   6.280   1.363  0.1880 -0.3169  0.6169
  734MOL0     C98978  13.164   6.332   1.236  0.7939 -0.3065 -0.8940
  734MOL0     O98979  13.274   6.422   1.286  0.6406  0.5902 -0.0908
  734MOL0     C98980  13.388   6.357   1.324  0.2211  0.4226  0.0982
  734MOL0     C98981  13.418   6.227   1.366 -0.2473  0.5225 -0.5417
  734MOL0     C98982  13.548   6.194   1.412 -1.4881 -1.0172 -0.6969
  734MOL0     C98983  13.651   6.297   1.399  0.0180  0.1974  0.2551
  734MOL0     C98984  13.792   6.262   1.421  0.6445  0.5769  0.7055
  734MOL0     O98985  13.823   6.133   1.459  0.8308  0.9873  0.3953
  734MOL0     C98986  13.947   6.104   1.513 -0.1106  0.7423  0.6531
  734MOL0     C98987  13.978   5.971   1.504  0.2172  0.5998  0.8549
  734MOL0     C98988  14.101   5.933   1.535  0.7477  0.1845  0.0164
  734MOL0     C98989  14.195   6.022   1.589  0.2728 -0.4580  0.3244
  734MOL0     O98990  14.325   5.993   1.623  0.8378 -0.1024 -0.3552
  734MOL0     C98991  14.349   5.859   1.672  0.0027 -0.3643 -0.1863
  734MOL0     C98992  14.501   5.853   1.690 -0.2227  0.6999  0.7193
  734MOL0     C98993  14.571   5.864   1.565 -0.1077 -0.1883  0.5334
  734MOL0     C98994  14.721   5.870   1.575 -0.5919 -0.4651 -0.1684
  734MOL0     C98995  14.799   5.862   1.434  0.4783 -0.4670  0.1675
  734MOL0     C98996  14.952   5.874   1.429 -1.0393 -0.6120  0.6024
  734MOL0     C98997  15.006   6.015   1.464  0.2152 -0.4327  0.0638
  734MOL0     C98998  15.159   6.009   1.406  0.8200 -0.1689  0.2125
  734MOL0    Cl98999  15.233   6.175   1.413 -0.2750  0.2873  0.1858
  734MOL0     C99000  14.164   6.155   1.603  0.4516  0.1590 -0.3872
  734MOL0     C99001  14.041   6.197   1.572  1.2697 -0.3907 -0.4068
  734MOL0     O99002  13.875   6.350   1.400  0.6218  0.4073 -0.5588
  734MOL0     C99003  13.621   6.426   1.345  0.6688 -0.8072  0.3733
  734MOL0     C99004  13.495   6.458   1.313 -0.2780  0.2886  0.2277
  734MOL0     N99005  12.644   6.325   1.406 -0.4119 -0.4700 -0.2596
  734MOL0     N99006  12.567   6.253   1.340  0.1637 -0.1164  0.1943
  734MOL0     C99007  11.531   6.205   1.488 -0.7038  0.1304  0.0007
  734MOL0     C99008  11.396   6.224   1.536 -0.8031 -0.3040  0.7244
  734MOL0     C99009  10.955   6.147   1.625 -0.1335 -0.0280  0.7242
  734MOL0     C99010  10.885   6.103   1.509 -0.6935  0.2479 -1.8019
  734MOL0     C99011  10.751   6.068   1.497  0.7880 -0.5134 -0.2790
  734MOL0     C99012  10.679   6.068   1.616 -0.4757  0.0204  0.0773
  734MOL0     O99013  10.546   6.038   1.609 -0.8048 -0.7865 -0.2185
  734MOL0     C99014  10.466   6.022   1.729  0.1493 -0.2240  0.1246
  734MOL0     C99015  10.492   5.889   1.795  0.7358 -0.3721 -0.2764
  734MOL0     C99016  10.461   5.770   1.701 -0.2741 -0.7763 -1.2071
  734MOL0     C99017  10.377   5.659   1.764 -0.1103  0.0504 -0.3791
  734MOL0     C99018  10.273   5.616   1.674  0.0984  0.3363  0.9184
  734MOL0     C99019  10.206   5.581   1.579 -0.3633  0.5794 -0.2223
  734MOL0     C99020  10.745   6.117   1.738  0.9950  0.1383 -0.3500
  734MOL0     C99021  10.876   6.165   1.743 -0.1560  0.2188 -0.3582
  734MOL0     C99022  10.933   6.190   1.883  0.4378  0.1352 -0.1250
  734MOL0     H99023  11.240   6.125   1.262 -0.5766  0.9688  1.5427
  734MOL0     H99024  11.466   6.147   1.165  0.8006  2.8252 -0.4207
  734MOL0     H99025  11.681   6.086   1.141 -2.2747  2.3032 -1.0491
  734MOL0     H99026  11.702   6.255   1.147  0.3500 -0.4797 -2.0249
  734MOL0     H99027  11.936   6.245   1.226  0.3806 -1.5103  1.6657
  734MOL0     H99028  11.904   6.134   1.084 -2.8436 -2.8198  0.3956
  734MOL0     H99029  11.908   5.943   1.261  0.0589  0.4233 -0.6905
  734MOL0     H99030  11.903   6.072   1.378 -1.1360 -0.8119 -0.5282
  734MOL0     H99031  12.113   6.022   1.159  1.6063  1.9096  0.0586
  734MOL0     H99032  12.128   6.145   1.277 -0.8389  1.9958 -0.0590
  734MOL0     H99033  12.140   5.959   1.457  3.0157  1.7599 -0.2308
  734MOL0     H99034  12.099   5.848   1.335 -1.0669  1.2679 -0.9780
  734MOL0     H99035  12.345   5.841   1.389  2.7630 -0.0087 -0.8840
  734MOL0     H99036  12.306   5.863   1.218  1.3816 -0.8129  0.1943
  734MOL0     H99037  12.376   6.055   1.456 -1.0673 -1.6310  0.0084
  734MOL0     H99038  12.360   6.112   1.285 -2.7535 -1.1109 -1.6120
  734MOL0     H99039  12.577   5.919   1.380  1.7134 -0.2870 -1.2729
  734MOL0     H99040  12.545   5.970   1.209  0.8260  2.4710 -0.4614
  734MOL0     H99041  12.808   6.043   1.425  0.2478  0.0521 -0.8084
  734MOL0     H99042  12.824   6.430   1.541 -0.9814  0.9143  0.8956
  734MOL0     H99043  12.912   6.276   1.584 -3.1454 -0.0699  1.2696
  734MOL0     H99044  12.927   6.400   1.307 -0.0567  2.1747  0.7888
  734MOL0     H99045  13.031   6.472   1.433 -1.9048  2.7562 -2.8981
  734MOL0     H99046  13.030   6.184   1.343  1.4747 -1.1640  1.4511
  734MOL0     H99047  13.142   6.266   1.451 -0.6671 -3.0555  0.9074
  734MOL0     H99048  13.106   6.393   1.167  0.3653 -3.5751 -3.7015
  734MOL0     H99049  13.190   6.241   1.180 -3.9872 -3.1977  0.9839
  734MOL0     H99050  13.345   6.147   1.358 -0.5967  0.6431  1.1917
  734MOL0     H99051  13.582   6.098   1.450 -1.1069 -0.9381 -0.8368
  734MOL0     H99052  13.909   5.901   1.461 -0.3994  3.2291 -2.8838
  734MOL0     H99053  14.114   5.828   1.512 -3.2686 -0.2248 -1.0074
  734MOL0     H99054  14.290   5.841   1.762 -0.4254 -3.1628 -0.9303
  734MOL0     H99055  14.322   5.774   1.609  2.1242 -2.5670  1.6713
  734MOL0     H99056  14.541   5.927   1.760  1.0648  2.1013 -1.3970
  734MOL0     H99057  14.527   5.755   1.729  1.5491 -0.6834 -3.4109
  734MOL0     H99058  14.540   5.779   1.503 -2.5477  1.7539 -1.1452
  734MOL0     H99059  14.537   5.947   1.502 -0.1543 -0.8417 -0.3249
  734MOL0     H99060  14.754   5.785   1.635 -2.2117 -1.8035 -1.0975
  734MOL0     H99061  14.741   5.958   1.637 -3.1441 -0.5387  0.8663
  734MOL0     H99062  14.756   5.928   1.358 -2.0825 -1.1183  0.9287
  734MOL0     H99063  14.784   5.761   1.395  1.9101 -0.0058 -1.7224
  734MOL0     H99064  15.000   5.810   1.504  1.3249  0.3563  0.0043
  734MOL0     H99065  14.981   5.838   1.330 -1.1194 -2.3300  1.1783
  734MOL0     H99066  14.994   6.035   1.571 -2.2790  0.7961 -0.3839
  734MOL0     H99067  14.950   6.087   1.404  2.1251 -0.3830 -1.7601
  734MOL0     H99068  15.223   5.929   1.443  0.0326 -0.9151 -0.0249
  734MOL0     H99069  15.157   5.982   1.300  2.5475 -2.5883  0.7293
  734MOL0     H99070  14.232   6.228   1.646 -1.3069  2.0960 -0.7210
  734MOL0     H99071  14.011   6.299   1.592 -2.0448 -1.2075 -0.6336
  734MOL0     H99072  13.688   6.508   1.319 -1.7635  0.6591 -1.7730
  734MOL0     H99073  13.468   6.554   1.270 -1.5744  0.3134  1.0432
  734MOL0     H99074  11.617   6.218   1.554 -3.4495 -2.0151  4.4908
  734MOL0     H99075  11.386   6.264   1.636 -0.5076  3.6552 -0.6353
  734MOL0     H99076  10.950   6.078   1.426  1.0809 -1.0450 -0.1197
  734MOL0     H99077  10.699   6.043   1.405 -0.7596  1.3263  0.0169
  734MOL0     H99078  10.360   6.024   1.701 -0.0766  1.4401  0.9595
  734MOL0     H99079  10.490   6.109   1.791 -0.4478  0.7330 -0.9475
  734MOL0     H99080  10.427   5.881   1.882  3.7809  0.1062  2.2455
  734MOL0     H99081  10.591   5.893   1.841  1.3624  2.2402 -1.6635
  734MOL0     H99082  10.558   5.737   1.662  2.1886  2.2172  1.8049
  734MOL0     H99083  10.393   5.812   1.627 -1.4869 -1.0182 -0.2573
  734MOL0     H99084  10.448   5.581   1.793  0.3005  0.8841  0.9285
  734MOL0     H99085  10.330   5.693   1.857 -0.0923 -0.3976 -0.2052
  734MOL0     H99086  10.128   5.561   1.508 -1.0474  2.8475 -0.1869
  734MOL0     H99087  10.689   6.107   1.831 -3.2767  3.1029 -2.2752
  734MOL0     H99088  10.850   6.212   1.951 -0.5385  1.4506 -1.6593
  734MOL0     H99089  11.001   6.112   1.918  3.0636  2.0253 -0.7089
  734MOL0     H99090  10.992   6.282   1.890 -1.3969  1.2642  1.5546
  735MOL0     O99091   6.284   0.692   5.830 -0.2587  0.0193 -0.2887
  735MOL0     C99092   6.216   0.590   5.840  0.6846 -0.8314  0.3791
  735MOL0     O99093   6.273   0.468   5.851 -0.0400 -0.9006  0.6168
  735MOL0     C99094   6.403   0.462   5.802 -0.3020 -0.0420  0.8925
  735MOL0     C99095   6.513   0.496   5.885  0.4022  0.3183  0.2319
  735MOL0     C99096   6.637   0.450   5.849 -0.4656 -0.8313 -0.1944
  735MOL0     C99097   6.654   0.370   5.743 -0.1187  0.2128  0.6624
  735MOL0     O99098   6.777   0.335   5.725 -0.7646  0.6020  0.4497
  735MOL0     C99099   6.787   0.190   5.696 -0.1954  0.5456  0.6641
  735MOL0     C99100   6.926   0.135   5.745 -0.9374  0.4978 -0.9055
  735MOL0     C99101   6.924   0.106   5.892 -1.1981  0.3795 -0.4393
  735MOL0     C99102   7.053   0.045   5.947  1.2004 -0.7209  0.0350
  735MOL0     C99103   7.034   0.008   6.093  1.2879  0.4779 -0.1909
  735MOL0     C99104   7.162  -0.058   6.142  0.2764 -0.0060 -0.1554
  735MOL0     C99105   7.159  -0.064   6.298  0.5447 -1.2029  0.9662
  735MOL0     C99106   7.226  -0.184   6.346 -0.1335 -0.0717  0.5072
  735MOL0     N99107   7.373  -0.189   6.329 -0.3864 -0.7451  0.5826
  735MOL0     C99108   7.464  -0.093   6.370 -0.2573  0.0069  0.2680
  735MOL0     C99109   7.574  -0.120   6.290 -0.4971 -0.4691  1.1180
  735MOL0     C99110   7.705  -0.049   6.288 -0.2570 -0.0231 -0.0438
  735MOL0     C99111   7.812  -0.131   6.363 -0.6839  0.0335  0.0579
  735MOL0     C99112   7.775  -0.153   6.515 -1.2911 -0.2133 -0.2028
  735MOL0     C99113   7.886  -0.197   6.604  0.3716 -0.1902  0.4745
  735MOL0     O99114   7.923  -0.080   6.678 -0.0332 -0.0332  0.2122
  735MOL0     C99115   8.040  -0.091   6.752  0.4012 -0.9953 -0.0772
  735MOL0     C99116   8.028  -0.120   6.886  0.9743 -0.0441  0.0275
  735MOL0     C99117   8.149  -0.127   6.965  0.5019 -1.1237  0.1489
  735MOL0     C99118   8.275  -0.095   6.915 -0.4863  0.2041 -0.1008
  735MOL0     C99119   8.394  -0.081   6.992 -0.2250 -0.4178  0.1805
  735MOL0     O99120   8.507  -0.144   6.935 -0.1428 -0.6386  0.0928
  735MOL0     C99121   8.635  -0.140   6.973  0.1602 -0.3591  0.3154
  735MOL0     C99122   8.688  -0.096   7.097 -0.1292  0.7286  0.0719
  735MOL0     C99123   8.830  -0.087   7.103 -0.5965  0.4569  0.3101
  735MOL0     C99124   8.917  -0.141   7.004  0.3580  0.4277 -0.5219
  735MOL0     O99125   9.053  -0.143   7.004  0.7813 -0.3196 -0.4977
  735MOL0     C99126   9.114  -0.083   7.123  0.1243  0.2705  0.2129
  735MOL0     C99127   9.257  -0.096   7.114  0.3888  0.4245 -1.0735
  735MOL0     C99128   9.342  -0.067   7.240  0.2498 -0.7843 -0.1349
  735MOL0     C99129   9.311   0.077   7.301 -0.5780 -0.1252 -0.0344
  735MOL0     C99130   9.380   0.108   7.437  0.4050  0.3941  0.5003
  735MOL0     C99131   9.531   0.113   7.433  0.1733 -0.2469  0.3899
  735MOL0     C99132   9.604   0.115   7.566 -0.3933  0.1727 -0.8985
  735MOL0     C99133   9.541   0.214   7.666 -0.0221 -0.0554  0.2083
  735MOL0    Cl99134   9.529   0.375   7.596  0.5242 -0.0164  0.2034
  735MOL0     C99135   8.863  -0.201   6.895  0.3827 -0.8217  0.7014
  735MOL0     C99136   8.721  -0.190   6.875 -1.4098 -0.5402  0.0914
  735MOL0     O99137   8.392  -0.031   7.104 -0.0484 -0.3457 -0.1761
  735MOL0     C99138   8.283  -0.070   6.781 -0.6421  0.3096  0.0720
  735MOL0     C99139   8.169  -0.080   6.696  0.4583  0.4337 -0.3754
  735MOL0     N99140   7.545  -0.240   6.222 -0.8037 -0.4224  0.4512
  735MOL0     N99141   7.431  -0.284   6.252  0.7766  0.5856 -0.0825
  735MOL0     C99142   6.548   0.340   5.660  0.4331  0.2484  0.7914
  735MOL0     C99143   6.424   0.381   5.693 -0.2085 -0.5168  0.1743
  735MOL0     C99144   6.067   0.596   5.846  0.2550  0.5058  0.0191
  735MOL0     C99145   5.989   0.478   5.805  0.1236  0.0744  0.3325
  735MOL0     C99146   5.846   0.482   5.805  0.1612  0.0299  0.6582
  735MOL0     C99147   5.780   0.599   5.825  0.0043 -0.2350 -0.1134
  735MOL0     O99148   5.648   0.598   5.810  1.1652  0.1219 -1.0292
  735MOL0     C99149   5.581   0.616   5.936  0.3717  0.6752 -0.4521
  735MOL0     C99150   5.448   0.705   5.937 -0.3319  1.0393  0.0550
  735MOL0     C99151   5.349   0.643   5.835  0.1982  0.0432  0.7914
  735MOL0     C99152   5.196   0.695   5.852  0.1347 -0.1411 -0.7397
  735MOL0     C99153   5.187   0.842   5.843 -0.6806 -0.6753  0.7102
  735MOL0     C99154   5.172   0.962   5.827 -0.2868 -0.0412 -0.3862
  735MOL0     C99155   5.852   0.715   5.852  0.3469 -1.2525 -0.3264
  735MOL0     C99156   5.993   0.721   5.857 -0.1234 -0.4579  0.4516
  735MOL0     C99157   6.045   0.861   5.878  0.4562 -0.1028  0.9308
  735MOL0     H99158   6.499   0.558   5.974  4.8432  2.2417 -0.1364
  735MOL0     H99159   6.725   0.479   5.905  0.5623  0.3045 -2.2902
  735MOL0     H99160   6.709   0.129   5.744 -0.0116  0.0927  0.3963
  735MOL0     H99161   6.789   0.172   5.588  2.4518 -1.4117  0.9431
  735MOL0     H99162   7.001   0.211   5.721 -0.5827  0.4379 -0.0017
  735MOL0     H99163   6.953   0.045   5.689 -0.7199 -0.1853  0.2774
  735MOL0     H99164   6.832   0.047   5.897 -1.9589  1.6047  1.0435
  735MOL0     H99165   6.914   0.199   5.950 -1.1439 -2.3138  4.4109
  735MOL0     H99166   7.083  -0.047   5.896  3.2689 -1.4187  2.3225
  735MOL0     H99167   7.136   0.115   5.929 -1.2858  1.8213 -2.8044
  735MOL0     H99168   7.027   0.104   6.145  0.1707  0.6078 -0.5512
  735MOL0     H99169   6.943  -0.052   6.100  1.3218  0.4462 -0.0201
  735MOL0     H99170   7.173  -0.162   6.110 -2.0171 -0.7272  1.1652
  735MOL0     H99171   7.250  -0.010   6.100  0.2095  2.2447  2.0404
  735MOL0     H99172   7.052  -0.069   6.320  0.3297 -1.2055 -0.0304
  735MOL0     H99173   7.195   0.031   6.339 -2.7458  1.1908 -1.1809
  735MOL0     H99174   7.218  -0.196   6.454  1.8837 -1.3597  0.5756
  735MOL0     H99175   7.179  -0.271   6.299 -4.1961  2.2914 -0.1973
  735MOL0     H99176   7.441  -0.011   6.437 -1.9796  0.7252 -1.1071
  735MOL0     H99177   7.729  -0.039   6.182 -1.4605  1.1816 -0.2300
  735MOL0     H99178   7.698   0.052   6.329  1.9559  0.6495 -1.1969
  735MOL0     H99179   7.829  -0.230   6.320  0.2330 -0.0903  0.6620
  735MOL0     H99180   7.911  -0.084   6.369 -0.9125  0.5702 -0.3736
  735MOL0     H99181   7.699  -0.231   6.524 -1.0863 -0.3456  0.4435
  735MOL0     H99182   7.734  -0.058   6.553  1.7860  1.5504 -0.9129
  735MOL0     H99183   7.963  -0.246   6.545  2.0264  2.4726  0.2857
  735MOL0     H99184   7.864  -0.273   6.680  1.8105 -0.9850  0.1241
  735MOL0     H99185   7.930  -0.123   6.932 -0.8239  1.1864 -3.3552
  735MOL0     H99186   8.145  -0.143   7.072  0.1860  2.3919  0.7698
  735MOL0     H99187   8.640  -0.040   7.177 -0.5418  2.8547 -1.5672
  735MOL0     H99188   8.868  -0.044   7.195 -0.0297 -1.7315  1.1692
  735MOL0     H99189   9.084   0.022   7.125 -2.3466 -0.3715  2.4959
  735MOL0     H99190   9.083  -0.130   7.217 -1.6462  0.3108 -0.3122
  735MOL0     H99191   9.267  -0.199   7.081 -0.3162  0.4293 -1.3146
  735MOL0     H99192   9.291  -0.041   7.026 -0.1016 -1.2509 -2.3518
  735MOL0     H99193   9.328  -0.140   7.320 -2.4159 -1.0797 -0.7567
  735MOL0     H99194   9.443  -0.072   7.200  0.7900  0.5250  0.9833
  735MOL0     H99195   9.204   0.090   7.319 -0.0631  1.1574  2.6435
  735MOL0     H99196   9.336   0.160   7.234 -2.3066  0.0671 -0.4700
  735MOL0     H99197   9.356   0.033   7.513  1.3545  0.5219  0.9395
  735MOL0     H99198   9.351   0.201   7.488 -0.3581 -1.8902  4.7756
  735MOL0     H99199   9.545   0.018   7.380 -2.7717 -2.6884  3.5328
  735MOL0     H99200   9.565   0.195   7.369 -0.6119  0.4165  0.8059
  735MOL0     H99201   9.708   0.149   7.560 -0.1178 -0.0896  1.4901
  735MOL0     H99202   9.600   0.012   7.603  1.9571 -0.1984 -1.5289
  735MOL0     H99203   9.444   0.175   7.698  0.5883 -0.8602  1.1084
  735MOL0     H99204   9.601   0.222   7.757  2.5290  2.0646 -1.4946
  735MOL0     H99205   8.931  -0.248   6.825  1.6561  2.1802 -0.2239
  735MOL0     H99206   8.681  -0.224   6.780 -2.5294  1.2875 -0.1315
  735MOL0     H99207   8.374  -0.036   6.732 -0.8672  1.4537  0.4168
  735MOL0     H99208   8.176  -0.057   6.590 -0.6575  0.5986 -0.4272
  735MOL0     H99209   6.563   0.274   5.575 -0.0037  0.4859  0.5217
  735MOL0     H99210   6.344   0.341   5.632  0.4195  0.1871 -1.1844
  735MOL0     H99211   6.036   0.382   5.785 -1.8736 -1.2868  1.7878
  735MOL0     H99212   5.786   0.403   5.761  1.1230 -0.7062  0.6211
  735MOL0     H99213   5.650   0.664   6.006 -2.0272  1.7932  1.3054
  735MOL0     H99214   5.553   0.520   5.981 -1.7038  2.3616  2.1770
  735MOL0     H99215   5.478   0.809   5.920  2.3157  0.3278 -0.1428
  735MOL0     H99216   5.415   0.692   6.040 -2.0598 -2.2269 -0.7642
  735MOL0     H99217   5.353   0.535   5.852 -1.5436 -0.0180  0.9125
  735MOL0     H99218   5.373   0.675   5.734  0.6999  0.8147  1.1466
  735MOL0     H99219   5.131   0.653   5.775 -0.2322 -2.7662  0.8556
  735MOL0     H99220   5.144   0.667   5.945 -0.1393  4.8607  0.9253
  735MOL0     H99221   5.171   1.069   5.823  2.7704  0.0318 -1.8645
  735MOL0     H99222   5.799   0.808   5.871  0.3256 -0.8198 -2.2336
  735MOL0     H99223   6.125   0.849   5.951  2.6037  1.0199 -1.1044
  735MOL0     H99224   6.093   0.886   5.783  1.2779 -1.4706  0.9622
  735MOL0     H99225   5.979   0.941   5.915 -0.8736  0.7815 -2.8858
  736MOL0     O99226   0.285   2.757   2.260 -0.0217 -0.1059  0.7050
  736MOL0     C99227   0.244   2.693   2.356  0.0186  0.5504  0.3489
  736MOL0     O99228   0.322   2.646   2.462  0.3908  0.0621  0.0539
  736MOL0     C99229   0.459   2.644   2.455  0.2908 -0.0665 -0.5257
  736MOL0     C99230   0.544   2.732   2.391  0.6978 -1.1434  0.1608
  736MOL0     C99231   0.684   2.720   2.382  0.4038 -0.5945 -0.2248
  736MOL0     C99232   0.750   2.617   2.440  0.3447 -0.0685 -0.9168
  736MOL0     O99233   0.889   2.604   2.438 -0.4310 -0.7633  0.0274
  736MOL0     C99234   0.963   2.615   2.312 -0.1267  0.3110  0.0243
  736MOL0     C99235   1.079   2.515   2.319 -0.3263 -0.5168  0.4326
  736MOL0     C99236   1.166   2.517   2.449 -0.0116 -1.0172  1.2031
  736MOL0     C99237   1.300   2.451   2.434 -0.2718  0.6351 -0.3007
  736MOL0     C99238   1.349   2.426   2.580  0.5933 -0.0433  0.0111
  736MOL0     C99239   1.493   2.397   2.600 -0.6278 -0.2075  0.0406
  736MOL0     C99240   1.540   2.278   2.517  0.6224 -0.5430 -0.0987
  736MOL0     C99241   1.694   2.248   2.527 -0.9395  0.8756  0.1530
  736MOL0     N99242   1.715   2.125   2.445  0.8641 -0.6503  0.0066
  736MOL0     C99243   1.688   1.998   2.493  0.1667  0.4715 -0.9028
  736MOL0     C99244   1.677   1.923   2.388  0.6677  0.2045 -0.2753
  736MOL0     C99245   1.655   1.765   2.399 -0.4242 -0.5677 -0.0868
  736MOL0     C99246   1.790   1.703   2.450  0.3429  0.6119  0.5113
  736MOL0     C99247   1.900   1.701   2.348  0.1077 -0.3062  0.5404
  736MOL0     C99248   2.040   1.762   2.383  0.7557  0.1722 -0.7353
  736MOL0     O99249   2.024   1.874   2.460  0.3513 -0.5952  0.2167
  736MOL0     C99250   2.144   1.923   2.504  0.2263 -0.5465  0.4963
  736MOL0     C99251   2.256   1.925   2.429 -0.4827 -0.1393 -0.3674
  736MOL0     C99252   2.374   1.962   2.485 -0.1733  0.1403  0.2406
  736MOL0     C99253   2.382   2.003   2.618  0.8259  0.4715 -0.2982
  736MOL0     C99254   2.509   2.033   2.683 -0.3951  1.5116  0.3409
  736MOL0     O99255   2.617   2.024   2.600  0.1494 -0.2060 -0.7886
  736MOL0     C99256   2.736   2.040   2.671 -0.2963  0.0954 -0.5096
  736MOL0     C99257   2.813   1.929   2.704 -0.5627  0.3914 -0.0822
  736MOL0     C99258   2.940   1.947   2.756  0.3809 -0.2322 -0.4074
  736MOL0     C99259   2.983   2.082   2.789  0.4865  0.3568 -0.4496
  736MOL0     O99260   3.121   2.091   2.828  0.4105  0.3725  0.1634
  736MOL0     C99261   3.153   2.201   2.910 -0.2636 -0.4330 -1.1052
  736MOL0     C99262   3.302   2.217   2.942  0.6913  0.7855 -0.9547
  736MOL0     C99263   3.354   2.356   2.997 -0.5362 -1.1364  0.3302
  736MOL0     C99264   3.503   2.364   2.995 -0.5520  0.1552 -0.1260
  736MOL0     C99265   3.566   2.499   2.991  0.3919 -0.3052  0.1873
  736MOL0     C99266   3.710   2.499   3.041 -0.6762  0.5030 -0.0476
  736MOL0     C99267   3.749   2.653   3.050  0.8151  0.4889  0.9665
  736MOL0     C99268   3.877   2.660   3.137  0.3986  0.3006 -0.3565
  736MOL0    Cl99269   3.833   2.607   3.302  0.0819  0.1986  0.3509
  736MOL0     C99270   2.896   2.192   2.761 -0.3565 -0.3272  0.0006
  736MOL0     C99271   2.776   2.166   2.703  0.5984  0.0163 -0.3383
  736MOL0     O99272   2.510   2.052   2.809 -0.2726 -0.6327 -0.1352
  736MOL0     C99273   2.256   2.006   2.691 -0.4470 -0.1169  0.0723
  736MOL0     C99274   2.138   1.970   2.632 -0.1794 -0.3023 -0.4931
  736MOL0     N99275   1.673   2.016   2.276  0.2934  0.1634 -0.4003
  736MOL0     N99276   1.697   2.130   2.314  0.4236 -0.3874  0.0149
  736MOL0     C99277   0.668   2.518   2.500  0.0311  0.4127 -1.0601
  736MOL0     C99278   0.527   2.541   2.513  0.2556  0.5688  0.1386
  736MOL0     C99279   0.104   2.672   2.360  0.8674 -0.2911  0.5554
  736MOL0     C99280   0.039   2.665   2.483 -0.1667  0.4096  0.3434
  736MOL0     C99281  -0.097   2.636   2.498 -0.2887 -1.2825 -1.5404
  736MOL0     C99282  -0.177   2.633   2.385 -0.0427 -0.0717  0.4519
  736MOL0     O99283  -0.310   2.622   2.389 -0.7960 -0.0289 -0.1737
  736MOL0     C99284  -0.376   2.717   2.478 -0.0453  0.5403 -0.2960
  736MOL0     C99285  -0.360   2.861   2.430  0.2507 -0.6228  0.0081
  736MOL0     C99286  -0.459   2.960   2.497 -0.4267  0.3392  0.4415
  736MOL0     C99287  -0.611   2.948   2.455 -0.1699 -0.2659 -0.4723
  736MOL0     C99288  -0.627   2.905   2.315 -1.1889 -0.5037 -0.5211
  736MOL0     C99289  -0.634   2.864   2.204 -0.3290 -0.1205 -0.3948
  736MOL0     C99290  -0.122   2.639   2.260 -0.1447  0.2118  0.5695
  736MOL0     C99291   0.020   2.662   2.243  0.7243 -0.0588  0.2201
  736MOL0     C99292   0.062   2.688   2.101  0.3561 -0.5656  0.4980
  736MOL0     H99293   0.508   2.818   2.335  0.3716 -1.8525 -0.7374
  736MOL0     H99294   0.741   2.803   2.343 -0.9048  0.4273 -0.0275
  736MOL0     H99295   0.910   2.585   2.221  0.4633 -1.5658  0.2413
  736MOL0     H99296   0.996   2.718   2.299 -1.4689  0.4787 -2.7031
  736MOL0     H99297   1.141   2.510   2.229 -1.2463  0.8415 -0.2990
  736MOL0     H99298   1.029   2.418   2.315  0.3779 -0.9133  0.8864
  736MOL0     H99299   1.093   2.461   2.508 -2.5853 -0.5550 -1.3135
  736MOL0     H99300   1.182   2.623   2.470  3.3942 -0.8872 -1.2394
  736MOL0     H99301   1.298   2.350   2.394 -0.2607 -0.0668  1.3794
  736MOL0     H99302   1.368   2.519   2.381  1.9230 -0.6334  0.7195
  736MOL0     H99303   1.318   2.511   2.640 -4.0614 -0.9387 -0.6691
  736MOL0     H99304   1.296   2.337   2.617  1.1546 -0.6246 -0.5552
  736MOL0     H99305   1.537   2.490   2.562 -1.7689 -0.1776 -1.3062
  736MOL0     H99306   1.526   2.384   2.703 -1.7592 -2.2811  0.1947
  736MOL0     H99307   1.514   2.276   2.411 -2.6339 -0.9673  0.5873
  736MOL0     H99308   1.487   2.188   2.550 -0.8102  1.1817  2.7825
  736MOL0     H99309   1.746   2.338   2.495 -1.2030  0.9550 -0.0470
  736MOL0     H99310   1.731   2.219   2.627 -0.1619 -2.9478 -1.0667
  736MOL0     H99311   1.693   1.966   2.597 -0.6546 -1.3276 -1.3805
  736MOL0     H99312   1.580   1.734   2.473  0.1134 -0.7964  0.3678
  736MOL0     H99313   1.613   1.729   2.304 -2.2910  2.7666 -0.6644
  736MOL0     H99314   1.822   1.761   2.537  0.8096  0.1252  0.6725
  736MOL0     H99315   1.770   1.601   2.484 -4.3014  2.0358  2.8657
  736MOL0     H99316   1.879   1.751   2.253  3.2163 -0.7721 -0.5227
  736MOL0     H99317   1.909   1.593   2.332 -0.7008 -0.3784  0.5660
  736MOL0     H99318   2.099   1.781   2.292 -1.9532  0.1132 -2.5971
  736MOL0     H99319   2.087   1.677   2.434 -0.6805  0.3160  0.8982
  736MOL0     H99320   2.238   1.897   2.326 -0.4193 -2.9315  0.3130
  736MOL0     H99321   2.465   1.958   2.426  1.2665  0.7671  2.3006
  736MOL0     H99322   2.779   1.828   2.685 -1.4793  0.9549 -1.6471
  736MOL0     H99323   3.012   1.867   2.772  0.8991 -0.2249 -2.3638
  736MOL0     H99324   3.117   2.296   2.869  1.3674  1.0487  0.6169
  736MOL0     H99325   3.106   2.187   3.008 -0.2248 -1.8119 -1.2715
  736MOL0     H99326   3.333   2.131   3.002  3.0195  1.4070 -1.1590
  736MOL0     H99327   3.349   2.193   2.846 -0.2562  1.1129 -1.5120
  736MOL0     H99328   3.317   2.440   2.938 -0.2230 -0.4226  1.1423
  736MOL0     H99329   3.334   2.383   3.101 -1.1834  1.2367 -0.3651
  736MOL0     H99330   3.535   2.315   2.902  1.7660  0.9965  0.1728
  736MOL0     H99331   3.547   2.306   3.077 -0.5619 -1.9439 -1.5166
  736MOL0     H99332   3.513   2.554   3.069 -1.1229  0.3471 -1.2314
  736MOL0     H99333   3.558   2.552   2.895  1.8740 -0.5904 -0.1222
  736MOL0     H99334   3.722   2.449   3.138  0.2879  0.6980 -0.0572
  736MOL0     H99335   3.770   2.448   2.966 -1.5331  0.8311 -0.9828
  736MOL0     H99336   3.667   2.712   3.093 -0.1865 -0.5492  0.5088
  736MOL0     H99337   3.771   2.694   2.951  0.3770 -0.9869  0.2380
  736MOL0     H99338   3.963   2.609   3.093  1.6450 -1.6012  3.8404
  736MOL0     H99339   3.900   2.767   3.142  0.6576  0.2186  0.2655
  736MOL0     H99340   2.920   2.297   2.777 -1.9039 -0.0963  1.0692
  736MOL0     H99341   2.717   2.250   2.667  1.8552  1.3404  0.5422
  736MOL0     H99342   2.265   2.020   2.798  0.7534  1.2611 -0.1804
  736MOL0     H99343   2.056   1.958   2.702 -0.3532 -2.3723 -0.9929
  736MOL0     H99344   0.729   2.440   2.545 -0.6637  0.9287  0.8182
  736MOL0     H99345   0.471   2.467   2.568  0.7729 -2.2929 -2.8418
  736MOL0     H99346   0.112   2.676   2.562  0.7557 -1.6206 -0.1497
  736MOL0     H99347  -0.136   2.628   2.599  2.9356  0.5081  0.0184
  736MOL0     H99348  -0.352   2.708   2.584 -2.0252 -1.3812  0.0780
  736MOL0     H99349  -0.482   2.692   2.470 -0.8201  2.6228  2.2338
  736MOL0     H99350  -0.361   2.873   2.321 -2.5251  0.4859  0.0821
  736MOL0     H99351  -0.265   2.894   2.472  0.1131 -0.1324 -0.0609
  736MOL0     H99352  -0.416   3.053   2.460  0.3267 -0.2922 -0.3251
  736MOL0     H99353  -0.466   2.953   2.606 -2.2072  0.0335  0.3404
  736MOL0     H99354  -0.669   2.874   2.512 -0.4459  0.2459 -0.0808
  736MOL0     H99355  -0.651   3.048   2.473 -1.9075 -0.6135 -2.0994
  736MOL0     H99356  -0.639   2.818   2.108  0.5235 -0.9452 -0.0629
  736MOL0     H99357  -0.194   2.641   2.179  3.0525  2.2301 -2.4446
  736MOL0     H99358  -0.017   2.664   2.030  0.6763 -0.4345  0.0941
  736MOL0     H99359   0.092   2.792   2.085 -1.7186 -0.0381 -0.2473
  736MOL0     H99360   0.153   2.630   2.082  0.6269 -2.3611  5.7585
  737MOL0     O99361   8.914   6.672   6.100 -0.6981  0.5534  0.6428
  737MOL0     C99362   8.943   6.574   6.031  0.1277 -0.5315  0.0168
  737MOL0     O99363   9.068   6.514   6.020 -0.1759  0.5390 -0.3537
  737MOL0     C99364   9.178   6.578   6.072 -0.7912  0.0568  0.5769
  737MOL0     C99365   9.287   6.497   6.094 -1.7751  0.2310  0.5343
  737MOL0     C99366   9.415   6.548   6.113 -0.0322 -0.2605  0.2692
  737MOL0     C99367   9.435   6.688   6.137 -0.3305 -0.4500  1.1065
  737MOL0     O99368   9.566   6.727   6.167 -0.7730  0.7228 -0.7223
  737MOL0     C99369   9.602   6.867   6.160 -0.2813  0.0602  0.9582
  737MOL0     C99370   9.748   6.863   6.205 -0.3890 -0.1025  0.0737
  737MOL0     C99371   9.822   7.003   6.161 -0.6612 -0.2412 -0.2842
  737MOL0     C99372   9.958   7.023   6.231  0.3227  0.5683  0.0948
  737MOL0     C99373  10.044   7.126   6.165  0.2501  0.4286 -0.3916
  737MOL0     C99374  10.174   7.127   6.236  0.3885 -0.3378  0.2135
  737MOL0     C99375  10.264   7.242   6.177 -0.3119  0.4298 -0.0869
  737MOL0     C99376  10.408   7.230   6.226 -0.6815  0.4118  1.3367
  737MOL0     N99377  10.477   7.121   6.158  0.0491 -0.4980  0.3126
  737MOL0     C99378  10.525   7.134   6.023 -0.2244 -0.2958 -0.5869
  737MOL0     C99379  10.584   7.015   6.004  0.6520 -0.8824  1.0917
  737MOL0     C99380  10.651   6.974   5.880 -0.3557 -0.4512  0.3299
  737MOL0     C99381  10.796   7.040   5.878 -0.4195 -0.2120 -0.4231
  737MOL0     C99382  10.874   6.983   5.766 -0.8658 -0.0323  0.0736
  737MOL0     C99383  11.025   7.032   5.784  0.6770 -0.2733 -0.6329
  737MOL0     O99384  11.026   7.167   5.763  0.3202 -0.4065 -0.4864
  737MOL0     C99385  11.155   7.228   5.769  0.5509 -0.2817 -0.1468
  737MOL0     C99386  11.163   7.357   5.718  0.3314 -0.0190  0.4507
  737MOL0     C99387  11.278   7.431   5.717 -0.4801 -0.0222 -0.4684
  737MOL0     C99388  11.395   7.379   5.772  0.6223  0.2774  0.4284
  737MOL0     C99389  11.518   7.461   5.771 -0.1591 -0.4885 -0.3928
  737MOL0     O99390  11.515   7.586   5.717 -0.1930  0.1022  0.0930
  737MOL0     C99391  11.628   7.665   5.708 -0.3588 -0.6010  0.2274
  737MOL0     C99392  11.644   7.746   5.598  0.0497  0.1566  0.7809
  737MOL0     C99393  11.757   7.829   5.590 -0.5191  0.1017  0.0210
  737MOL0     C99394  11.855   7.829   5.686 -0.4267 -0.2103  0.1622
  737MOL0     O99395  11.966   7.912   5.687  0.6690  0.4191 -0.3773
  737MOL0     C99396  12.071   7.869   5.602 -0.1274  0.2173  0.4448
  737MOL0     C99397  12.184   7.966   5.601  0.6042 -0.9745 -1.1616
  737MOL0     C99398  12.293   7.921   5.512 -0.3906 -0.1981 -0.6106
  737MOL0     C99399  12.428   8.008   5.522  0.3338  0.0621 -0.5252
  737MOL0     C99400  12.497   8.012   5.670  0.6809  0.5331 -0.7613
  737MOL0     C99401  12.610   8.120   5.673 -0.8801  0.8986 -0.1737
  737MOL0     C99402  12.676   8.101   5.808 -0.4851  0.4310  0.8358
  737MOL0     C99403  12.703   8.237   5.872  0.5800  0.4641  0.3742
  737MOL0    Cl99404  12.845   8.305   5.791  0.2652  0.3855  0.0330
  737MOL0     C99405  11.833   7.759   5.805 -0.4437  0.4009 -0.0553
  737MOL0     C99406  11.724   7.680   5.822  0.3263  0.4496  0.2315
  737MOL0     O99407  11.613   7.413   5.831  0.5424  0.2321  0.7169
  737MOL0     C99408  11.396   7.240   5.819  0.2977  0.3338  0.3601
  737MOL0     C99409  11.271   7.168   5.819 -0.4613  0.2754 -0.2606
  737MOL0     N99410  10.568   6.935   6.112 -0.0831 -0.9881  0.1146
  737MOL0     N99411  10.510   6.995   6.205  0.3021 -0.4064  0.8244
  737MOL0     C99412   9.328   6.773   6.114 -0.1275 -0.3537 -0.5217
  737MOL0     C99413   9.199   6.715   6.091  0.1911 -0.1455  0.4395
  737MOL0     C99414   8.827   6.522   5.953 -0.4037 -0.2346 -0.6892
  737MOL0     C99415   8.697   6.525   6.001 -0.7995 -1.0820 -0.0432
  737MOL0     C99416   8.597   6.455   5.936  0.1668 -0.3667 -1.5328
  737MOL0     C99417   8.614   6.391   5.820  0.0681  0.1272 -0.1080
  737MOL0     O99418   8.500   6.347   5.767  0.3107  1.1765  0.2861
  737MOL0     C99419   8.507   6.284   5.636  0.3227 -0.0317  0.3227
  737MOL0     C99420   8.377   6.214   5.601 -0.3992  0.7008  1.0628
  737MOL0     C99421   8.255   6.306   5.615 -0.5105 -1.0408  0.2565
  737MOL0     C99422   8.122   6.248   5.564  0.1487  0.3324  0.1174
  737MOL0     C99423   8.008   6.334   5.601  0.4764 -0.1929  0.2504
  737MOL0     C99424   7.923   6.421   5.628 -0.7170 -0.4446 -0.3775
  737MOL0     C99425   8.744   6.381   5.772 -0.0530 -0.2456  0.5488
  737MOL0     C99426   8.860   6.441   5.829  0.2092  0.2498 -0.2661
  737MOL0     C99427   8.994   6.422   5.764  1.0922  0.3868  0.8152
  737MOL0     H99428   9.286   6.391   6.070 -1.0630  0.7503 -1.9968
  737MOL0     H99429   9.496   6.476   6.111 -1.6400 -2.1461  0.2427
  737MOL0     H99430   9.594   6.915   6.062 -1.4657 -0.4963  0.7663
  737MOL0     H99431   9.542   6.932   6.225 -1.3694  0.1418 -0.0869
  737MOL0     H99432   9.802   6.784   6.152  0.2985 -0.4374  1.2306
  737MOL0     H99433   9.744   6.854   6.314 -0.2388 -2.6059 -0.0775
  737MOL0     H99434   9.764   7.093   6.183  2.0110  1.5414 -0.0167
  737MOL0     H99435   9.835   6.995   6.053  1.7551 -3.8390  0.1036
  737MOL0     H99436   9.937   7.054   6.334 -0.1922  2.9144 -0.6488
  737MOL0     H99437  10.009   6.927   6.218  0.7996  1.0759 -2.3602
  737MOL0     H99438  10.062   7.093   6.062  0.7424 -3.0757  0.6854
  737MOL0     H99439   9.985   7.218   6.174 -0.5866 -0.2234  1.0917
  737MOL0     H99440  10.161   7.131   6.344  0.3339 -2.0243  0.2934
  737MOL0     H99441  10.221   7.033   6.207 -0.1404 -0.3872 -0.5191
  737MOL0     H99442  10.233   7.340   6.215 -2.2428 -0.0866 -0.2271
  737MOL0     H99443  10.267   7.238   6.068  2.4961 -2.0723 -0.0362
  737MOL0     H99444  10.457   7.320   6.189  0.5484 -1.5607 -2.3753
  737MOL0     H99445  10.427   7.217   6.333  1.0688  1.1444  1.1456
  737MOL0     H99446  10.518   7.233   5.979  1.2772  0.6161  1.0812
  737MOL0     H99447  10.670   6.866   5.883 -1.5369 -0.8263 -2.6262
  737MOL0     H99448  10.597   7.001   5.789 -2.7740 -0.0942  1.7835
  737MOL0     H99449  10.781   7.147   5.860 -1.0143 -0.8161 -4.3302
  737MOL0     H99450  10.840   7.022   5.977 -2.3500 -0.2271  0.4818
  737MOL0     H99451  10.841   7.013   5.666  2.0088  0.6753 -0.7398
  737MOL0     H99452  10.890   6.875   5.768 -2.3640 -0.4065 -2.7468
  737MOL0     H99453  11.081   6.979   5.706  0.7348  1.3151 -1.7089
  737MOL0     H99454  11.071   7.001   5.878  1.7561  0.2732 -0.9694
  737MOL0     H99455  11.070   7.395   5.676  0.9560  0.9904 -0.0522
  737MOL0     H99456  11.276   7.532   5.679  0.8692  0.0923 -0.2893
  737MOL0     H99457  11.571   7.735   5.519 -0.2226 -1.1985  1.2013
  737MOL0     H99458  11.783   7.903   5.515 -1.2112  0.9192  0.5674
  737MOL0     H99459  12.105   7.776   5.648  0.0508 -0.2410 -0.5703
  737MOL0     H99460  12.032   7.853   5.501 -0.7582  4.6505 -0.2262
  737MOL0     H99461  12.146   8.059   5.559  0.1539 -0.9446 -0.7003
  737MOL0     H99462  12.212   7.984   5.705  1.2131  0.5024 -1.5555
  737MOL0     H99463  12.321   7.817   5.534  2.9813  0.8430  0.5473
  737MOL0     H99464  12.266   7.921   5.406  3.4053  0.0016 -1.7252
  737MOL0     H99465  12.417   8.109   5.480  1.1149  0.0102 -0.8791
  737MOL0     H99466  12.494   7.959   5.450 -0.5510 -0.5563 -0.9235
  737MOL0     H99467  12.544   7.915   5.689 -1.2558  0.1966  3.3132
  737MOL0     H99468  12.424   8.030   5.749  2.3758 -0.5452  1.1148
  737MOL0     H99469  12.689   8.107   5.599  0.3465  1.8644  0.9191
  737MOL0     H99470  12.574   8.223   5.667  0.5602  1.5551  1.5036
  737MOL0     H99471  12.759   8.033   5.789 -1.5240 -0.4912 -0.6328
  737MOL0     H99472  12.617   8.044   5.879  0.8171 -2.4300 -0.2332
  737MOL0     H99473  12.615   8.302   5.870  2.4158  3.1748  1.3450
  737MOL0     H99474  12.723   8.214   5.977  0.1106 -2.6479 -0.1414
  737MOL0     H99475  11.888   7.769   5.898 -3.6292  2.3764  1.7857
  737MOL0     H99476  11.702   7.621   5.910 -0.7266  0.0147 -0.2956
  737MOL0     H99477  11.478   7.179   5.855 -1.2602 -0.9846  1.8768
  737MOL0     H99478  11.283   7.066   5.853 -0.5153 -1.1439 -4.0244
  737MOL0     H99479   9.330   6.880   6.127 -1.4211 -0.5045  1.2444
  737MOL0     H99480   9.117   6.782   6.066 -1.1318 -2.3926 -1.6762
  737MOL0     H99481   8.666   6.559   6.099 -1.4151 -3.5913  0.7104
  737MOL0     H99482   8.507   6.458   5.996  0.9683  0.3318 -0.3154
  737MOL0     H99483   8.589   6.211   5.632 -1.1324 -1.7169  0.2471
  737MOL0     H99484   8.522   6.360   5.558 -1.8252 -1.2396 -1.3957
  737MOL0     H99485   8.363   6.126   5.666 -0.5700  1.2167  1.7432
  737MOL0     H99486   8.393   6.180   5.499  4.1052 -0.3573  1.9123
  737MOL0     H99487   8.279   6.400   5.565 -0.1012  0.4124  2.9882
  737MOL0     H99488   8.244   6.342   5.718 -0.9267 -1.7173  0.4552
  737MOL0     H99489   8.133   6.257   5.456 -2.8233 -0.7540 -0.3694
  737MOL0     H99490   8.102   6.145   5.593 -0.4045  0.6202  0.7709
  737MOL0     H99491   7.841   6.483   5.659  2.5150  2.3720  3.8794
  737MOL0     H99492   8.768   6.339   5.675 -2.0303 -0.9836  0.3201
  737MOL0     H99493   9.052   6.511   5.787  2.2289  0.0788 -0.7035
  737MOL0     H99494   9.039   6.331   5.806  0.1284  0.2862  1.6685
  737MOL0     H99495   8.984   6.414   5.655  2.0862  0.8187  0.6849
  738MOL0     O99496   2.697   5.519   7.656 -0.3272 -0.2041  0.2271
  738MOL0     C99497   2.607   5.468   7.596  0.2795  0.3599  0.5484
  738MOL0     O99498   2.537   5.354   7.641 -0.3966 -0.0493  0.3994
  738MOL0     C99499   2.583   5.290   7.747 -0.6706 -0.0132  0.6834
  738MOL0     C99500   2.642   5.170   7.728 -0.5416  1.1803 -0.1884
  738MOL0     C99501   2.673   5.094   7.844  0.0632 -1.3655  0.6204
  738MOL0     C99502   2.658   5.135   7.977  0.5696  0.0948 -0.2522
  738MOL0     O99503   2.691   5.059   8.088  0.1441  0.1433  0.0805
  738MOL0     C99504   2.832   5.030   8.101 -0.4880 -0.4465 -0.0439
  738MOL0     C99505   2.853   5.047   8.254 -0.8644  0.2260 -0.2168
  738MOL0     C99506   2.999   5.063   8.278  0.4118 -0.1544  0.3902
  738MOL0     C99507   3.024   5.126   8.410 -0.3560 -0.2952 -0.0450
  738MOL0     C99508   3.172   5.185   8.412  0.2476  0.3471 -0.2986
  738MOL0     C99509   3.197   5.329   8.358  0.1490  0.3059 -0.0774
  738MOL0     C99510   3.350   5.364   8.333 -0.0112  0.3499  0.1423
  738MOL0     C99511   3.423   5.417   8.452  1.1758 -1.0305  0.4133
  738MOL0     N99512   3.452   5.315   8.547 -1.5314  0.1417 -0.7271
  738MOL0     C99513   3.560   5.230   8.538  0.4107 -0.7162 -0.4033
  738MOL0     C99514   3.582   5.170   8.665  0.5298  0.2853 -0.9754
  738MOL0     C99515   3.680   5.064   8.707  0.2634 -0.1837  0.1658
  738MOL0     C99516   3.825   5.108   8.658  0.0812  0.1421 -0.0183
  738MOL0     C99517   3.899   5.228   8.714  0.4278  0.6816  0.0623
  738MOL0     C99518   3.891   5.235   8.872 -0.0322 -0.1067 -0.0420
  738MOL0     O99519   3.948   5.122   8.936 -0.7944 -0.6916 -0.6847
  738MOL0     C99520   4.082   5.114   8.945  0.5536 -0.1970  0.0020
  738MOL0     C99521   4.123   5.001   9.011 -0.6888  0.8057 -0.1199
  738MOL0     C99522   4.265   4.975   9.021  0.4855 -0.5589  0.6669
  738MOL0     C99523   4.363   5.068   8.972  0.7609  0.9369 -0.4336
  738MOL0     C99524   4.505   5.035   8.976 -0.2362  0.5602  0.0515
  738MOL0     O99525   4.547   4.931   9.056 -1.0477 -0.1332  0.7291
  738MOL0     C99526   4.674   4.891   9.041 -0.9259 -0.4270  0.4396
  738MOL0     C99527   4.783   4.922   9.123  0.1651 -0.9884 -0.7069
  738MOL0     C99528   4.912   4.872   9.103 -0.5514 -0.1118 -0.2163
  738MOL0     C99529   4.923   4.762   9.017  0.1845  0.3941 -0.9670
  738MOL0     O99530   5.041   4.700   9.016 -0.4513 -0.0118 -0.3112
  738MOL0     C99531   5.094   4.639   8.899  1.2199 -1.0925 -0.6182
  738MOL0     C99532   5.235   4.609   8.920  0.0862  0.2844 -0.4946
  738MOL0     C99533   5.330   4.726   8.947  0.2499 -0.0875  0.4024
  738MOL0     C99534   5.385   4.784   8.811  0.0993  0.0632  0.7986
  738MOL0     C99535   5.481   4.911   8.822 -0.0932  0.6293  0.3320
  738MOL0     C99536   5.483   4.990   8.689 -0.2599  0.1353  0.5929
  738MOL0     C99537   5.617   5.002   8.616  0.9707  0.3507  0.7579
  738MOL0     C99538   5.731   5.084   8.673  1.0392  1.0336 -0.2440
  738MOL0    Cl99539   5.672   5.242   8.733 -0.0154 -0.8939  0.0951
  738MOL0     C99540   4.814   4.714   8.946  0.1310  0.3862 -0.0243
  738MOL0     C99541   4.702   4.791   8.949 -0.6714 -1.0209  0.0067
  738MOL0     O99542   4.573   5.090   8.890 -0.4313 -0.4250  1.1167
  738MOL0     C99543   4.314   5.179   8.912 -0.4755  0.1328 -0.7632
  738MOL0     C99544   4.182   5.201   8.901  0.5936  0.6023 -0.1140
  738MOL0     N99545   3.479   5.221   8.747  0.5433  0.1929  0.6019
  738MOL0     N99546   3.402   5.299   8.675  0.2107  0.3749 -0.4326
  738MOL0     C99547   2.596   5.259   7.993 -0.2879  0.9932 -0.1185
  738MOL0     C99548   2.562   5.335   7.881 -0.3736 -0.3048 -0.4153
  738MOL0     C99549   2.564   5.524   7.470  0.2433  0.1878 -0.7760
  738MOL0     C99550   2.490   5.436   7.395  0.2015 -1.0535  0.2495
  738MOL0     C99551   2.436   5.471   7.268  0.1985 -0.0402  0.1169
  738MOL0     C99552   2.457   5.604   7.221 -0.3406  0.8229 -0.9067
  738MOL0     O99553   2.426   5.652   7.100  0.6934  0.1379  0.6508
  738MOL0     C99554   2.465   5.558   6.996 -0.4441  0.4274  0.0330
  738MOL0     C99555   2.521   5.630   6.879 -0.4193 -0.2851  0.0856
  738MOL0     C99556   2.634   5.719   6.908 -0.9774  0.7072  0.4819
  738MOL0     C99557   2.716   5.762   6.784  0.3075  1.1847  0.3353
  738MOL0     C99558   2.647   5.819   6.661 -0.7113  0.6228  0.9452
  738MOL0     C99559   2.605   5.862   6.560 -0.7147  0.0123 -0.0607
  738MOL0     C99560   2.545   5.688   7.297  0.0740 -0.4193  0.5993
  738MOL0     C99561   2.600   5.654   7.421  0.6077 -0.0763 -0.6439
  738MOL0     C99562   2.671   5.764   7.495 -0.3591 -0.4906  0.0941
  738MOL0     H99563   2.667   5.130   7.630 -0.2498 -1.0035  0.7277
  738MOL0     H99564   2.709   4.997   7.814  2.1404 -0.0281 -1.5009
  738MOL0     H99565   2.851   4.927   8.071  0.3833 -0.7209  1.3779
  738MOL0     H99566   2.893   5.099   8.042 -1.4807 -0.1290 -0.7387
  738MOL0     H99567   2.824   4.954   8.304  1.0467  0.7662  2.0819
  738MOL0     H99568   2.794   5.130   8.294 -0.3705  1.2024 -1.4573
  738MOL0     H99569   3.034   5.133   8.202 -3.6445 -0.1318 -1.7171
  738MOL0     H99570   3.044   4.963   8.269 -2.6173 -2.1426  4.3939
  738MOL0     H99571   2.952   5.209   8.420 -0.4314 -0.5002  1.3933
  738MOL0     H99572   3.012   5.054   8.492 -1.3776  2.1217  2.0959
  738MOL0     H99573   3.197   5.202   8.517  0.2663  0.9217 -0.3975
  738MOL0     H99574   3.242   5.112   8.369  2.6656  1.6904  1.0897
  738MOL0     H99575   3.148   5.357   8.264  0.2505  2.0912  0.3616
  738MOL0     H99576   3.163   5.398   8.435 -1.3570  2.4264 -2.4985
  738MOL0     H99577   3.349   5.442   8.256 -2.7792 -1.4048 -1.8082
  738MOL0     H99578   3.407   5.279   8.295  1.2495 -1.3899  5.2339
  738MOL0     H99579   3.520   5.453   8.416  2.4490 -3.1396  1.5267
  738MOL0     H99580   3.365   5.496   8.501  2.2175 -0.5744  0.9625
  738MOL0     H99581   3.626   5.214   8.453  1.6817 -0.2337  0.4614
  738MOL0     H99582   3.676   5.061   8.816 -0.8324  0.7295  0.1796
  738MOL0     H99583   3.646   4.968   8.667  1.7813 -0.4846 -0.4639
  738MOL0     H99584   3.877   5.013   8.673 -0.6904  0.0336  2.2916
  738MOL0     H99585   3.820   5.133   8.551 -0.2486 -2.4507 -0.6671
  738MOL0     H99586   3.864   5.321   8.668  3.3226  1.6099 -0.4654
  738MOL0     H99587   4.002   5.217   8.679  0.0376 -2.2219 -0.3657
  738MOL0     H99588   3.787   5.239   8.907  0.2037 -1.5053  0.8575
  738MOL0     H99589   3.940   5.329   8.902 -0.0789 -0.1146  0.0591
  738MOL0     H99590   4.055   4.932   9.060 -1.2770  1.0935 -0.5211
  738MOL0     H99591   4.310   4.894   9.078 -0.7119 -1.2891  0.6124
  738MOL0     H99592   4.764   5.001   9.195  2.9377 -0.4328 -0.4587
  738MOL0     H99593   4.993   4.908   9.166  0.2655  0.1506 -1.3835
  738MOL0     H99594   5.042   4.546   8.874  2.1113 -0.9410 -3.3635
  738MOL0     H99595   5.089   4.708   8.814  5.0238  1.8297  1.2446
  738MOL0     H99596   5.250   4.556   9.015 -0.0499  0.7291 -0.2230
  738MOL0     H99597   5.267   4.540   8.841 -0.7026  0.4408 -0.9569
  738MOL0     H99598   5.271   4.802   9.000  1.5820  1.3419 -0.1056
  738MOL0     H99599   5.407   4.689   9.014 -0.0478  0.0870  0.8515
  738MOL0     H99600   5.300   4.820   8.753 -0.8991 -1.8681  0.9983
  738MOL0     H99601   5.430   4.703   8.753  1.4897 -0.3961  2.4321
  738MOL0     H99602   5.583   4.874   8.835  0.3281  0.4761 -2.6962
  738MOL0     H99603   5.454   4.975   8.907  0.8577 -0.4034  1.4501
  738MOL0     H99604   5.400   4.956   8.627 -0.8700 -0.3213  1.6241
  738MOL0     H99605   5.454   5.089   8.727  0.3228 -0.0419  1.5389
  738MOL0     H99606   5.600   5.054   8.521 -0.3433  0.2439  0.9174
  738MOL0     H99607   5.646   4.898   8.600 -0.6467 -0.0883  0.5430
  738MOL0     H99608   5.775   5.028   8.756 -0.3021  1.5523  0.8605
  738MOL0     H99609   5.812   5.088   8.600  2.6072  3.4469  1.4590
  738MOL0     H99610   4.825   4.629   8.880  0.3227 -0.4157  1.0194
  738MOL0     H99611   4.620   4.750   8.891 -0.7703 -0.6767 -0.0984
  738MOL0     H99612   4.387   5.250   8.873  1.2586 -1.0949  0.0788
  738MOL0     H99613   4.156   5.285   8.837 -0.3749  1.8539  1.8095
  738MOL0     H99614   2.572   5.293   8.093 -0.9692 -2.1745  0.8984
  738MOL0     H99615   2.524   5.436   7.894  0.7556  0.3614 -2.0091
  738MOL0     H99616   2.465   5.334   7.421 -1.0377 -0.8614 -0.1143
  738MOL0     H99617   2.385   5.406   7.198  0.6846  0.2551 -0.5200
  738MOL0     H99618   2.381   5.502   6.953  0.0329  1.4896 -2.4533
  738MOL0     H99619   2.545   5.489   7.026  1.6464  2.2757 -1.0324
  738MOL0     H99620   2.440   5.695   6.845  2.0037  1.3865 -2.9519
  738MOL0     H99621   2.564   5.565   6.802  2.0512 -0.4212  1.4962
  738MOL0     H99622   2.702   5.668   6.977  0.1520  2.0381  0.3919
  738MOL0     H99623   2.594   5.806   6.959 -0.9811  0.1108  1.5165
  738MOL0     H99624   2.784   5.836   6.827 -1.3705  2.7303  0.5058
  738MOL0     H99625   2.773   5.678   6.743 -0.4198  0.0203  1.6263
  738MOL0     H99626   2.563   5.904   6.471 -1.2639  0.5553  0.4471
  738MOL0     H99627   2.564   5.789   7.262  0.1027 -1.3538 -2.3270
  738MOL0     H99628   2.611   5.804   7.577 -2.2120 -3.2147  0.2143
  738MOL0     H99629   2.764   5.729   7.539  0.5914  1.9959  0.2211
  738MOL0     H99630   2.702   5.840   7.422 -0.0306  0.2013  0.9453
  739MOL0     O99631   4.769   0.867   7.900 -0.3300  0.2524 -0.3648
  739MOL0     C99632   4.700   0.930   7.986 -0.8595  0.8271 -0.2343
  739MOL0     O99633   4.757   1.030   8.065 -0.0392 -0.1933  0.5010
  739MOL0     C99634   4.859   1.101   7.999  0.2215  0.1987  0.6500
  739MOL0     C99635   4.989   1.054   7.985 -0.4702 -0.2614  0.7341
  739MOL0     C99636   5.099   1.139   7.927  0.5008  0.2442  0.7373
  739MOL0     C99637   5.070   1.265   7.883 -0.2027  0.1327  0.3524
  739MOL0     O99638   5.184   1.332   7.845  0.5252  0.6560  0.2895
  739MOL0     C99639   5.173   1.469   7.818 -0.3780  0.2420  0.1150
  739MOL0     C99640   5.275   1.509   7.714  0.7640 -0.0387 -0.0772
  739MOL0     C99641   5.424   1.489   7.764 -0.0644 -0.7569 -0.1453
  739MOL0     C99642   5.511   1.527   7.647 -0.0345 -0.4821  0.4092
  739MOL0     C99643   5.644   1.560   7.692  0.1423  0.5253 -0.3104
  739MOL0     C99644   5.740   1.608   7.575  0.2294  0.7240 -0.2807
  739MOL0     C99645   5.880   1.637   7.628  0.6096 -0.6006  0.4587
  739MOL0     C99646   5.900   1.780   7.695 -0.6557 -0.0574 -0.6839
  739MOL0     N99647   6.043   1.800   7.735  0.1789 -0.4524 -0.1514
  739MOL0     C99648   6.139   1.721   7.788  1.1406 -0.2636  0.4833
  739MOL0     C99649   6.249   1.791   7.807 -0.4506 -0.1218  0.1130
  739MOL0     C99650   6.380   1.748   7.864 -0.0101  0.0836  0.3086
  739MOL0     C99651   6.440   1.838   7.968  0.2354 -0.0985  0.1823
  739MOL0     C99652   6.597   1.816   7.964 -0.3537 -0.0168  0.7141
  739MOL0     C99653   6.663   1.893   8.082  0.3939 -0.3121  0.3186
  739MOL0     O99654   6.666   2.033   8.050  0.2376  0.1013 -0.2827
  739MOL0     C99655   6.697   2.116   8.165  0.1724 -0.8307  0.2596
  739MOL0     C99656   6.602   2.188   8.240 -0.3821  0.0404 -0.1043
  739MOL0     C99657   6.641   2.281   8.332 -0.1734 -0.0599  0.2330
  739MOL0     C99658   6.775   2.311   8.357  0.3667  0.0943  0.2699
  739MOL0     C99659   6.808   2.418   8.455 -0.1111  1.0460 -0.0085
  739MOL0     O99660   6.942   2.452   8.462  0.1063 -0.2916 -0.0413
  739MOL0     C99661   6.986   2.545   8.554 -0.5330 -0.1461 -0.2642
  739MOL0     C99662   6.967   2.521   8.693 -1.0419 -0.7871  0.0504
  739MOL0     C99663   7.036   2.595   8.791  0.8599  0.3706  0.0524
  739MOL0     C99664   7.110   2.710   8.765 -0.6415 -0.2575 -0.2455
  739MOL0     O99665   7.153   2.795   8.863  1.0595 -0.8189 -0.4505
  739MOL0     C99666   7.240   2.910   8.841 -0.2936 -0.3364  0.2612
  739MOL0     C99667   7.389   2.865   8.832 -0.0591 -0.2926 -0.7565
  739MOL0     C99668   7.475   2.997   8.801  0.1295 -0.1754  0.0376
  739MOL0     C99669   7.624   2.969   8.797 -0.5499  0.2408  0.1450
  739MOL0     C99670   7.703   3.102   8.756  0.2185 -0.5538  1.0560
  739MOL0     C99671   7.851   3.083   8.773  0.2353  0.5761 -1.3424
  739MOL0     C99672   7.928   3.192   8.698  0.6111 -0.1377 -0.5890
  739MOL0     C99673   8.061   3.146   8.669 -1.0952  0.2499 -0.2938
  739MOL0    Cl99674   8.140   3.063   8.814 -0.0826  0.1227 -0.0658
  739MOL0     C99675   7.120   2.735   8.624  0.0022 -0.0641  0.0949
  739MOL0     C99676   7.058   2.658   8.522  0.0553 -0.2298 -0.2882
  739MOL0     O99677   6.718   2.473   8.514  0.0607  0.5638 -0.0948
  739MOL0     C99678   6.876   2.231   8.288 -0.0620  0.1740 -0.4488
  739MOL0     C99679   6.836   2.130   8.205  0.7813 -0.0708  1.0222
  739MOL0     N99680   6.220   1.918   7.755 -0.1315  0.7694 -0.3209
  739MOL0     N99681   6.102   1.921   7.710  0.4266 -0.0636 -0.0196
  739MOL0     C99682   4.941   1.307   7.881  0.4755  0.0926  0.1045
  739MOL0     C99683   4.836   1.230   7.938 -0.4995 -0.4505  0.0432
  739MOL0     C99684   4.557   0.906   8.013 -0.0485  0.4569 -0.1892
  739MOL0     C99685   4.484   1.013   8.064  0.3220 -0.2465 -0.5534
  739MOL0     C99686   4.345   1.003   8.067  0.3772  0.0817  0.7338
  739MOL0     C99687   4.272   0.881   8.049  0.5511 -0.4898  0.2203
  739MOL0     O99688   4.139   0.861   8.069 -0.1787  0.2825 -0.2360
  739MOL0     C99689   4.051   0.980   8.074 -0.3214  0.0781  0.6675
  739MOL0     C99690   3.904   0.934   8.105  1.2190 -0.0274 -0.1264
  739MOL0     C99691   3.819   1.058   8.135  0.6296  0.1671  0.0604
  739MOL0     C99692   3.858   1.120   8.270  0.2742  0.8244 -0.4567
  739MOL0     C99693   3.784   1.241   8.306 -0.7792 -0.5780  0.8322
  739MOL0     C99694   3.732   1.346   8.343 -1.4943  0.5535  0.2804
  739MOL0     C99695   4.356   0.772   8.016 -0.9985  0.1552  0.0715
  739MOL0     C99696   4.489   0.778   7.993 -0.3846 -0.7518 -0.5627
  739MOL0     C99697   4.554   0.652   7.947 -0.7066 -0.1726  0.4530
  739MOL0     H99698   5.029   0.965   8.031  3.3623  2.0055  2.3498
  739MOL0     H99699   5.185   1.073   7.922  0.5248  0.3073  0.2844
  739MOL0     H99700   5.073   1.494   7.783  0.0998 -0.8444 -2.2368
  739MOL0     H99701   5.176   1.527   7.911 -0.2939 -0.2084  0.3964
  739MOL0     H99702   5.251   1.615   7.699 -0.7290 -0.0758  1.7986
  739MOL0     H99703   5.257   1.457   7.620  0.5289  2.0215 -1.2349
  739MOL0     H99704   5.465   1.394   7.800  0.8306  0.4603  2.3215
  739MOL0     H99705   5.432   1.567   7.841  0.7319 -1.8259  0.8835
  739MOL0     H99706   5.530   1.444   7.579  0.5258 -0.5497  0.6477
  739MOL0     H99707   5.469   1.613   7.593 -1.9048 -0.6790  1.4594
  739MOL0     H99708   5.635   1.638   7.769  0.9927 -0.4221  0.7941
  739MOL0     H99709   5.684   1.471   7.740 -2.3799 -0.4944  0.0277
  739MOL0     H99710   5.765   1.535   7.498  0.3358  0.4980 -0.0359
  739MOL0     H99711   5.698   1.693   7.520 -0.8992 -0.1567 -0.8379
  739MOL0     H99712   5.945   1.626   7.540  0.8842  0.7440  0.4735
  739MOL0     H99713   5.911   1.566   7.705 -2.8800 -0.0349  2.5972
  739MOL0     H99714   5.857   1.854   7.628 -1.6538  0.5832  0.6306
  739MOL0     H99715   5.840   1.771   7.786  1.3402 -1.7996  0.5648
  739MOL0     H99716   6.118   1.618   7.816 -2.2052  0.0012 -0.6176
  739MOL0     H99717   6.376   1.643   7.894 -1.0022  0.5285  1.8371
  739MOL0     H99718   6.449   1.734   7.779 -0.5869  0.2558 -0.1936
  739MOL0     H99719   6.413   1.943   7.952  0.2788 -0.3632 -2.0242
  739MOL0     H99720   6.393   1.827   8.066  0.7732 -0.1587  0.4394
  739MOL0     H99721   6.646   1.848   7.872 -1.4488  3.2002  1.1354
  739MOL0     H99722   6.625   1.711   7.978  1.0188  0.0769 -0.9848
  739MOL0     H99723   6.763   1.850   8.092  0.5893  0.0589 -0.0283
  739MOL0     H99724   6.611   1.860   8.172 -0.7348 -2.6338 -1.1025
  739MOL0     H99725   6.500   2.163   8.216 -0.2010 -2.0374  1.0883
  739MOL0     H99726   6.566   2.324   8.398 -0.4210 -0.7066  0.3772
  739MOL0     H99727   6.915   2.429   8.719  0.0549 -0.6195  3.1870
  739MOL0     H99728   7.020   2.552   8.889 -0.3333 -1.2836 -0.8194
  739MOL0     H99729   7.201   2.972   8.760 -0.4957  3.2856  2.9005
  739MOL0     H99730   7.235   2.974   8.929 -1.3856 -4.2510  3.3434
  739MOL0     H99731   7.427   2.833   8.930 -1.6042  2.1312  0.7443
  739MOL0     H99732   7.412   2.798   8.749  1.0509  1.2008 -1.6926
  739MOL0     H99733   7.451   3.024   8.698  1.2517 -0.5551 -0.3398
  739MOL0     H99734   7.457   3.079   8.871  0.2145 -1.9814  2.3351
  739MOL0     H99735   7.633   2.887   8.725 -1.1291  1.0047 -0.8245
  739MOL0     H99736   7.674   2.933   8.887  1.4569  2.3629 -0.0192
  739MOL0     H99737   7.677   3.190   8.815 -0.1431  0.3893 -0.4523
  739MOL0     H99738   7.686   3.112   8.648  1.3922 -0.6149  0.8558
  739MOL0     H99739   7.875   3.097   8.879 -3.0847  1.9177 -0.6355
  739MOL0     H99740   7.880   2.984   8.738 -1.5745 -0.1709 -0.8398
  739MOL0     H99741   7.939   3.281   8.761  0.5534 -0.1124 -0.6139
  739MOL0     H99742   7.871   3.225   8.611 -0.3783 -3.7990 -1.4771
  739MOL0     H99743   8.060   3.076   8.585  2.5092 -1.7228  1.0541
  739MOL0     H99744   8.129   3.228   8.645 -1.8243  0.7616 -0.6235
  739MOL0     H99745   7.169   2.824   8.587 -0.1313 -0.3534 -0.8123
  739MOL0     H99746   7.070   2.675   8.416  0.3225  1.3311 -0.0311
  739MOL0     H99747   6.983   2.234   8.306 -0.4294 -1.3893  2.6110
  739MOL0     H99748   6.916   2.078   8.152  1.3775  0.5362  1.3197
  739MOL0     H99749   4.911   1.399   7.831  0.4035 -2.1830 -4.4964
  739MOL0     H99750   4.735   1.270   7.945 -0.5139 -0.4051 -0.3845
  739MOL0     H99751   4.523   1.112   8.085 -0.0417 -0.2590  0.1892
  739MOL0     H99752   4.287   1.085   8.109 -1.8732  0.0730 -2.0733
  739MOL0     H99753   4.056   1.031   7.977 -2.1136 -1.1555 -0.1168
  739MOL0     H99754   4.093   1.043   8.153  0.1866 -1.1246  1.3638
  739MOL0     H99755   3.903   0.874   8.196  0.7668  0.9834  0.5460
  739MOL0     H99756   3.860   0.865   8.032 -0.0981 -2.8139  3.0361
  739MOL0     H99757   3.712   1.037   8.134  0.9961 -1.9526 -0.1027
  739MOL0     H99758   3.837   1.136   8.061 -1.4490 -1.6650 -2.5605
  739MOL0     H99759   3.831   1.049   8.348 -2.0236  2.6224  0.5151
  739MOL0     H99760   3.966   1.132   8.274  0.4119 -0.2101 -0.7453
  739MOL0     H99761   3.672   1.424   8.386 -0.5916  1.6745 -0.4445
  739MOL0     H99762   4.307   0.677   7.997  1.8169 -1.6902  1.2535
  739MOL0     H99763   4.490   0.563   7.944 -0.8773 -0.1102 -3.6221
  739MOL0     H99764   4.589   0.663   7.844  1.5756  2.0368  1.3835
  739MOL0     H99765   4.646   0.640   8.005  1.5847  4.5738 -1.6848
  740MOL0     O99766   5.193   7.820   8.645  0.0254 -0.6135  0.7465
  740MOL0     C99767   5.305   7.827   8.596 -0.6364 -0.4470 -0.0726
  740MOL0     O99768   5.340   7.805   8.459  0.2062 -0.2601 -0.6103
  740MOL0     C99769   5.234   7.769   8.387  0.6801 -0.1506  0.0528
  740MOL0     C99770   5.223   7.641   8.338  0.6492  0.6520 -0.4811
  740MOL0     C99771   5.111   7.586   8.276  0.0501  1.0408 -0.2789
  740MOL0     C99772   5.001   7.666   8.261  0.8582  0.2221  0.4472
  740MOL0     O99773   4.889   7.607   8.204  0.1384  0.2979  0.2829
  740MOL0     C99774   4.788   7.687   8.128  0.0418  0.4060 -0.8581
  740MOL0     C99775   4.661   7.611   8.150 -0.1002  0.0998  0.2380
  740MOL0     C99776   4.565   7.620   8.024 -0.7443 -0.0508  0.2378
  740MOL0     C99777   4.427   7.574   8.065 -0.0678  0.5151 -0.6305
  740MOL0     C99778   4.337   7.661   7.966 -0.1555 -0.9089 -0.3915
  740MOL0     C99779   4.355   7.623   7.825  0.2269  0.1028  0.1637
  740MOL0     C99780   4.279   7.709   7.722  0.5356 -0.2156 -0.8824
  740MOL0     C99781   4.350   7.844   7.688  0.0845  0.0529  0.5812
  740MOL0     N99782   4.476   7.827   7.608 -0.3857 -1.9833  0.0538
  740MOL0     C99783   4.612   7.832   7.643  0.6779  0.1463  0.2915
  740MOL0     C99784   4.676   7.805   7.532  1.0324  0.3055 -0.2284
  740MOL0     C99785   4.825   7.798   7.532 -0.4026 -0.0882  0.3427
  740MOL0     C99786   4.888   7.838   7.396 -0.1479  0.2630  0.3474
  740MOL0     C99787   5.038   7.823   7.398 -0.2617  0.8999 -0.0906
  740MOL0     C99788   5.113   7.939   7.472  0.4390  0.5649 -0.8671
  740MOL0     O99789   5.251   7.916   7.447  0.1703  0.2161 -0.0486
  740MOL0     C99790   5.351   7.984   7.515  0.1543  0.5388 -0.0350
  740MOL0     C99791   5.470   7.926   7.493  0.2781 -0.0561 -0.0846
  740MOL0     C99792   5.584   7.962   7.562  0.3845  0.6475 -0.4288
  740MOL0     C99793   5.582   8.081   7.648  0.3800 -0.2430  0.4711
  740MOL0     C99794   5.696   8.136   7.715  0.0355 -0.5500 -0.5727
  740MOL0     O99795   5.796   8.048   7.718 -0.9313 -0.0901 -0.3735
  740MOL0     C99796   5.910   8.061   7.793 -1.0109 -0.2366 -0.4023
  740MOL0     C99797   5.990   7.946   7.794 -0.2454  0.7858 -0.0445
  740MOL0     C99798   6.115   7.943   7.856  0.3742  0.9255  0.1932
  740MOL0     C99799   6.167   8.052   7.922 -0.0923  0.4513  0.3867
  740MOL0     O99800   6.302   8.046   7.961 -0.8442 -0.0099 -0.6429
  740MOL0     C99801   6.347   8.150   8.046 -0.4283 -0.4218 -0.4386
  740MOL0     C99802   6.492   8.121   8.084  0.3840  0.5384 -0.8173
  740MOL0     C99803   6.572   8.238   8.141  1.1065 -1.0273  0.0115
  740MOL0     C99804   6.717   8.207   8.154 -0.0886 -0.1609 -0.3959
  740MOL0     C99805   6.802   8.329   8.184 -0.1928 -0.2467  0.1607
  740MOL0     C99806   6.955   8.297   8.208  0.8479  0.8172 -0.5221
  740MOL0     C99807   7.029   8.423   8.253 -0.3047 -0.3604  0.6019
  740MOL0     C99808   7.176   8.419   8.229  0.0008  0.1583  0.1221
  740MOL0    Cl99809   7.273   8.391   8.378  0.4263  0.2498  0.2423
  740MOL0     C99810   6.086   8.169   7.920 -0.3635 -0.6448 -0.3952
  740MOL0     C99811   5.968   8.175   7.849  0.3427 -0.0916  0.2524
  740MOL0     O99812   5.691   8.247   7.774 -0.0510  0.6264 -0.3941
  740MOL0     C99813   5.464   8.143   7.657  0.5839  0.7867 -0.0718
  740MOL0     C99814   5.347   8.096   7.588 -0.0247 -0.4819 -0.6346
  740MOL0     N99815   4.583   7.765   7.436 -0.1286  0.5784  0.0837
  740MOL0     N99816   4.465   7.789   7.478 -0.0881  0.5586  0.3411
  740MOL0     C99817   5.003   7.802   8.310 -0.1406 -0.2138 -1.0447
  740MOL0     C99818   5.126   7.850   8.371 -0.8750  0.1699  0.6615
  740MOL0     C99819   5.413   7.824   8.696  0.4406 -0.4683 -0.3903
  740MOL0     C99820   5.396   7.911   8.811 -0.0938 -0.1913 -0.1537
  740MOL0     C99821   5.499   7.918   8.902  0.3615 -0.4366 -0.0931
  740MOL0     C99822   5.621   7.848   8.892 -0.0163 -0.6908 -0.1136
  740MOL0     O99823   5.713   7.870   8.994 -0.3970 -0.1020  0.4948
  740MOL0     C99824   5.843   7.822   8.982 -0.6123  0.9794 -0.5047
  740MOL0     C99825   5.907   7.877   9.108 -0.1159 -0.2629 -0.2138
  740MOL0     C99826   6.050   7.841   9.127  0.7085  0.2077 -0.3391
  740MOL0     C99827   6.107   7.888   9.269  0.8068 -0.6201 -0.6470
  740MOL0     C99828   6.124   8.036   9.271  0.1659  0.0391  0.0965
  740MOL0     C99829   6.134   8.155   9.277  0.0812  0.0060  0.3457
  740MOL0     C99830   5.637   7.778   8.768 -1.5536 -0.0737  0.4331
  740MOL0     C99831   5.541   7.761   8.677  0.5032  0.5515 -0.1892
  740MOL0     C99832   5.566   7.674   8.563  0.6868  0.2456  0.5342
  740MOL0     H99833   5.309   7.580   8.362  0.6668 -0.0908 -2.2652
  740MOL0     H99834   5.105   7.481   8.248 -0.6234  1.3653 -1.4311
  740MOL0     H99835   4.768   7.790   8.158 -0.4538  0.0596  0.0204
  740MOL0     H99836   4.823   7.694   8.024  2.3866  2.2830 -0.0407
  740MOL0     H99837   4.611   7.651   8.239  3.9414 -1.0519  3.3516
  740MOL0     H99838   4.691   7.507   8.162 -1.8190 -0.3327  1.1581
  740MOL0     H99839   4.601   7.549   7.949 -0.7024  0.3163 -0.0916
  740MOL0     H99840   4.568   7.716   7.972 -2.0174  0.1870  0.5710
  740MOL0     H99841   4.420   7.465   8.064 -1.8197  0.6005 -0.5712
  740MOL0     H99842   4.406   7.611   8.166  2.1424  1.4811 -0.4704
  740MOL0     H99843   4.230   7.643   7.983 -0.2130  0.7655  1.2627
  740MOL0     H99844   4.361   7.767   7.980 -2.5614 -0.5282  1.5266
  740MOL0     H99845   4.460   7.609   7.794  0.6151 -0.3401  1.6231
  740MOL0     H99846   4.310   7.524   7.811  1.1484 -0.2675 -0.3453
  740MOL0     H99847   4.187   7.736   7.775  1.6083 -2.3099  2.3310
  740MOL0     H99848   4.250   7.660   7.628  0.1860  2.7792 -2.4607
  740MOL0     H99849   4.278   7.898   7.625 -1.2623  0.1353  2.1166
  740MOL0     H99850   4.367   7.898   7.781 -1.7579  0.1510  0.9130
  740MOL0     H99851   4.658   7.852   7.740 -0.8062  3.9691  0.3628
  740MOL0     H99852   4.855   7.873   7.606 -3.5122  0.8164  0.8140
  740MOL0     H99853   4.859   7.700   7.567 -0.5887 -0.0905  0.5134
  740MOL0     H99854   4.853   7.778   7.312 -1.6211  2.9348 -1.0997
  740MOL0     H99855   4.857   7.939   7.369  0.5956  0.7969  1.3960
  740MOL0     H99856   5.076   7.817   7.295  0.9207  0.6341  0.3470
  740MOL0     H99857   5.055   7.733   7.458 -0.9217  2.2226  2.2023
  740MOL0     H99858   5.085   7.940   7.577  0.5437  1.2244 -0.8407
  740MOL0     H99859   5.088   8.040   7.436  1.0815  0.7443 -0.8252
  740MOL0     H99860   5.453   7.838   7.432 -3.2344  1.9676 -2.3907
  740MOL0     H99861   5.665   7.890   7.562 -0.1569 -0.0774 -3.5522
  740MOL0     H99862   5.959   7.860   7.736 -1.8527  0.2233  1.5396
  740MOL0     H99863   6.172   7.852   7.840 -1.7587 -0.4088 -0.1389
  740MOL0     H99864   6.333   8.247   7.998 -1.1253 -0.7401 -0.8920
  740MOL0     H99865   6.292   8.151   8.141  1.1872  1.4587  0.5525
  740MOL0     H99866   6.489   8.042   8.159 -1.0858  0.1755 -1.2125
  740MOL0     H99867   6.544   8.087   7.994  2.1992 -1.3306  0.8507
  740MOL0     H99868   6.570   8.331   8.084  2.0941 -0.0613  1.4597
  740MOL0     H99869   6.531   8.270   8.238 -2.4828  1.9468 -2.2225
  740MOL0     H99870   6.755   8.177   8.056 -1.1013  1.6023 -1.3886
  740MOL0     H99871   6.729   8.131   8.233  1.2632  1.0579  0.6176
  740MOL0     H99872   6.769   8.368   8.281  2.9269 -0.2569  1.3415
  740MOL0     H99873   6.801   8.408   8.108  0.1911  1.5991  1.9618
  740MOL0     H99874   6.973   8.214   8.278  0.8423 -0.5436 -2.0606
  740MOL0     H99875   6.995   8.270   8.110 -0.7462  1.7025 -1.4601
  740MOL0     H99876   7.013   8.443   8.360  0.2730  0.0034  0.6260
  740MOL0     H99877   6.987   8.506   8.195 -0.5126 -1.4956 -0.9082
  740MOL0     H99878   7.216   8.338   8.167  1.3012 -1.0276  2.4036
  740MOL0     H99879   7.197   8.514   8.179  1.4153  1.0424  2.2616
  740MOL0     H99880   6.124   8.261   7.964 -0.5362 -0.2364 -1.0811
  740MOL0     H99881   5.922   8.273   7.842  1.8159  0.6885  0.9899
  740MOL0     H99882   5.451   8.229   7.721  2.9327  0.4327  1.0126
  740MOL0     H99883   5.250   8.144   7.603  0.1457  0.6262 -2.7821
  740MOL0     H99884   4.915   7.864   8.304  0.9938  1.6511  0.5414
  740MOL0     H99885   5.126   7.949   8.416 -3.1165  1.5865 -2.0794
  740MOL0     H99886   5.305   7.958   8.845 -1.1573 -3.7263  2.3646
  740MOL0     H99887   5.483   7.984   8.987  1.9385  1.6528 -1.3114
  740MOL0     H99888   5.892   7.876   8.900 -0.8566  0.3970 -1.0407
  740MOL0     H99889   5.847   7.713   8.980  0.7648  1.0017 -0.0878
  740MOL0     H99890   5.844   7.826   9.180 -0.5046 -1.6968 -1.5193
  740MOL0     H99891   5.896   7.986   9.108 -0.3469 -0.2281 -2.4201
  740MOL0     H99892   6.107   7.875   9.040  3.0972 -0.5036  0.8648
  740MOL0     H99893   6.050   7.731   9.123 -3.5270  0.0755 -0.9267
  740MOL0     H99894   6.053   7.853   9.357  3.5057 -1.9664  0.6130
  740MOL0     H99895   6.204   7.836   9.271 -0.3853 -3.1010  2.8835
  740MOL0     H99896   6.133   8.262   9.278  1.1925  0.0497 -0.8579
  740MOL0     H99897   5.734   7.730   8.768 -0.2949  2.3516 -0.6705
  740MOL0     H99898   5.566   7.744   8.479 -0.0095  1.3604  1.4373
  740MOL0     H99899   5.663   7.624   8.549  0.3249 -0.6279  1.0618
  740MOL0     H99900   5.487   7.598   8.566  0.1617  0.7413 -0.4226
  741MOL0     O99901   4.186   3.907   8.013  0.2573  0.2766 -0.2632
  741MOL0     C99902   4.141   3.859   7.914  0.3925  0.2901  0.2757
  741MOL0     O99903   4.206   3.785   7.819  0.3164  0.0202 -0.3775
  741MOL0     C99904   4.335   3.740   7.855  0.6659 -0.3330  0.0929
  741MOL0     C99905   4.439   3.832   7.881  0.0694 -0.0909  0.2090
  741MOL0     C99906   4.572   3.784   7.888  0.3290  0.0658 -0.0352
  741MOL0     C99907   4.597   3.641   7.884  0.7663  0.1504  0.2646
  741MOL0     O99908   4.721   3.589   7.906  0.6461  0.5467 -0.1608
  741MOL0     C99909   4.825   3.654   7.831  0.3018  0.0338 -0.5816
  741MOL0     C99910   4.925   3.549   7.799 -0.9579  0.6693  0.2763
  741MOL0     C99911   5.024   3.600   7.692  0.5930 -0.9342  0.8085
  741MOL0     C99912   5.135   3.498   7.658  0.3944 -1.2686  0.0959
  741MOL0     C99913   5.203   3.524   7.526  0.6821 -0.3046  0.2774
  741MOL0     C99914   5.264   3.390   7.469 -0.7137 -0.5628  0.0656
  741MOL0     C99915   5.397   3.356   7.546  0.1243  0.4093  0.3764
  741MOL0     C99916   5.525   3.394   7.468 -0.8064 -0.4269 -0.6426
  741MOL0     N99917   5.654   3.371   7.545 -0.6212 -0.9329 -0.6509
  741MOL0     C99918   5.760   3.289   7.500  0.0256  0.4141 -1.1348
  741MOL0     C99919   5.863   3.318   7.582 -0.0086 -0.3199 -0.5696
  741MOL0     C99920   5.999   3.250   7.599  0.6760 -0.4965 -1.0882
  741MOL0     C99921   6.094   3.343   7.666  0.8777  0.6725  0.1470
  741MOL0     C99922   6.236   3.276   7.667  0.0067 -1.2019 -0.0101
  741MOL0     C99923   6.322   3.358   7.758  0.9718 -0.2837  0.0641
  741MOL0     O99924   6.451   3.297   7.773 -0.1776  0.2730 -1.0759
  741MOL0     C99925   6.557   3.375   7.748  0.7961  0.9426 -0.8635
  741MOL0     C99926   6.618   3.359   7.631  0.7097 -0.1030 -0.5181
  741MOL0     C99927   6.722   3.435   7.586  0.0340 -0.3953 -0.1120
  741MOL0     C99928   6.779   3.542   7.659  0.2435 -0.5756 -0.4180
  741MOL0     C99929   6.885   3.622   7.606 -0.4376 -1.3048 -0.8619
  741MOL0     O99930   6.931   3.599   7.476 -0.3178 -0.2266  0.7412
  741MOL0     C99931   7.041   3.678   7.439 -0.6846  0.7353 -0.1259
  741MOL0     C99932   7.167   3.641   7.482  0.4169  0.2399  0.0699
  741MOL0     C99933   7.279   3.715   7.446  0.1808 -0.5142  0.6091
  741MOL0     C99934   7.267   3.825   7.359 -0.8725 -0.0362  0.1491
  741MOL0     O99935   7.382   3.898   7.353 -0.2860  0.3145 -0.1508
  741MOL0     C99936   7.386   4.025   7.278  0.2112 -0.1122  0.5947
  741MOL0     C99937   7.530   4.093   7.298 -0.2379  0.4498 -0.2353
  741MOL0     C99938   7.602   4.075   7.435 -0.0162  0.2383  1.0518
  741MOL0     C99939   7.747   4.113   7.419 -0.0444 -0.8425  0.9925
  741MOL0     C99940   7.828   4.115   7.556 -0.7385  1.1624  0.0785
  741MOL0     C99941   7.856   3.973   7.620  0.4503  0.6211 -0.0151
  741MOL0     C99942   7.933   3.993   7.749 -0.0284  0.5034  0.6760
  741MOL0     C99943   7.951   3.859   7.822  0.2932 -0.1031  0.6852
  741MOL0    Cl99944   8.067   3.769   7.727  0.6239 -0.4176 -0.1607
  741MOL0     C99945   7.141   3.855   7.309  0.8197  0.1739  0.1177
  741MOL0     C99946   7.030   3.785   7.353  0.6603  0.0700 -0.5336
  741MOL0     O99947   6.922   3.717   7.682  0.3111 -0.2046 -0.0001
  741MOL0     C99948   6.709   3.570   7.782  0.5612 -0.1819 -0.6025
  741MOL0     C99949   6.602   3.488   7.825  0.2925 -0.6533 -0.5078
  741MOL0     N99950   5.816   3.402   7.683 -0.0061 -0.4107 -0.0620
  741MOL0     N99951   5.692   3.434   7.662 -0.1409 -0.4024  0.5765
  741MOL0     C99952   4.489   3.548   7.869 -0.0321 -0.2128  1.0361
  741MOL0     C99953   4.360   3.603   7.851  0.5624 -0.6383 -0.4235
  741MOL0     C99954   3.999   3.909   7.884 -0.0329 -0.3636 -0.2919
  741MOL0     C99955   3.965   3.909   7.750  0.2141 -0.6028  0.6422
  741MOL0     C99956   3.836   3.944   7.708  0.5621  0.4213  1.0052
  741MOL0     C99957   3.744   4.000   7.797  0.3391  0.5695 -0.3525
  741MOL0     O99958   3.623   4.041   7.761  0.3207  0.0770  0.1907
  741MOL0     C99959   3.530   3.934   7.766  0.5226 -1.2723 -0.4058
  741MOL0     C99960   3.405   3.953   7.674 -0.7889  0.5617 -0.8046
  741MOL0     C99961   3.280   4.020   7.748 -0.2579  0.1351 -0.1478
  741MOL0     C99962   3.168   4.021   7.650 -0.4323  0.1075 -0.2865
  741MOL0     C99963   3.083   4.139   7.653  0.2125  0.0831  0.5721
  741MOL0     C99964   3.017   4.238   7.680  0.1182  0.4491 -0.1774
  741MOL0     C99965   3.778   4.011   7.928  0.1681 -0.7526 -0.9738
  741MOL0     C99966   3.902   3.969   7.972 -0.2998 -0.1624 -0.1195
  741MOL0     C99967   3.919   3.968   8.119  0.0263 -0.0612 -1.0172
  741MOL0     H99968   4.418   3.938   7.875 -2.5119 -0.3738  2.4097
  741MOL0     H99969   4.649   3.859   7.899  0.6559 -0.2861  0.0738
  741MOL0     H99970   4.786   3.693   7.736 -1.8798  1.9895  0.9851
  741MOL0     H99971   4.867   3.735   7.890  0.6670  0.1809 -1.0372
  741MOL0     H99972   4.883   3.456   7.759  0.4714  0.9033 -1.9502
  741MOL0     H99973   4.984   3.531   7.889 -1.4835  0.6372  0.6231
  741MOL0     H99974   5.062   3.701   7.711 -0.0225 -0.4836 -0.2632
  741MOL0     H99975   4.968   3.611   7.598  0.0848  0.2647  1.2360
  741MOL0     H99976   5.219   3.495   7.729  0.0680  2.2756  0.8392
  741MOL0     H99977   5.087   3.400   7.649 -0.9331 -0.8771  2.2072
  741MOL0     H99978   5.129   3.553   7.451  0.8242 -1.4123 -0.3176
  741MOL0     H99979   5.284   3.598   7.527  0.3738  0.0337  0.1418
  741MOL0     H99980   5.192   3.307   7.478  0.2760 -1.2829  2.0736
  741MOL0     H99981   5.293   3.407   7.365  0.2427 -2.0390  0.0627
  741MOL0     H99982   5.398   3.248   7.566 -1.1379  0.5132  1.1041
  741MOL0     H99983   5.406   3.406   7.642 -0.6768  1.9526 -0.3155
  741MOL0     H99984   5.536   3.334   7.377 -1.8869 -0.5576 -0.7117
  741MOL0     H99985   5.515   3.497   7.435  3.7808  1.4104  2.6662
  741MOL0     H99986   5.772   3.232   7.408 -1.1697 -3.4917  0.9183
  741MOL0     H99987   5.984   3.165   7.666 -0.1524  0.7387  0.3701
  741MOL0     H99988   6.048   3.207   7.511  1.4630 -0.2022 -0.8071
  741MOL0     H99989   6.096   3.435   7.606  1.1376 -0.6101 -1.9308
  741MOL0     H99990   6.044   3.368   7.760 -1.2943 -2.0803 -0.1662
  741MOL0     H99991   6.267   3.267   7.562 -2.3185 -0.9947 -0.7724
  741MOL0     H99992   6.240   3.172   7.700 -5.4279 -1.7564 -0.2093
  741MOL0     H99993   6.269   3.365   7.854  1.5188  2.2386  0.2481
  741MOL0     H99994   6.330   3.460   7.718 -1.9901 -0.1648 -0.4263
  741MOL0     H99995   6.595   3.276   7.566  1.6217  0.1795 -1.2265
  741MOL0     H99996   6.770   3.413   7.491 -0.8996 -0.9929 -0.4619
  741MOL0     H99997   7.171   3.548   7.537  1.0999 -0.6115 -1.3680
  741MOL0     H99998   7.379   3.694   7.483  0.0357 -1.1450  0.6443
  741MOL0     H99999   7.365   3.997   7.174  0.0874  1.6947  0.1079
  741MOL0     H    0   7.308   4.095   7.308  0.7424  1.7765 -2.0944
  741MOL0     H    1   7.594   4.061   7.215 -2.1634 -0.5511 -1.3892
  741MOL0     H    2   7.530   4.201   7.279  4.2871  1.4763  3.5519
  741MOL0     H    3   7.552   4.125   7.518 -1.1367 -0.2581  0.7008
  741MOL0     H    4   7.607   3.968   7.457  0.9293 -0.2487 -1.2167
  741MOL0     H    5   7.750   4.206   7.361  2.5447 -1.2220  0.3843
  741MOL0     H    6   7.798   4.038   7.357 -2.3160 -1.8624  0.2383
  741MOL0     H    7   7.771   4.171   7.631  0.0285  0.9693  0.8094
  741MOL0     H    8   7.932   4.148   7.555  0.9724 -3.3412  2.3320
  741MOL0     H    9   7.772   3.903   7.630  3.0154 -2.8031 -0.4477
  741MOL0     H   10   7.920   3.914   7.553 -0.6586  0.5643 -1.0560
  741MOL0     H   11   7.870   4.058   7.811 -2.4548  1.1771 -2.2544
  741MOL0     H   12   8.027   4.050   7.746  1.2333 -0.8142  5.7363
  741MOL0     H   13   7.987   3.865   7.925  1.7536 -0.6799  0.2260
  741MOL0     H   14   7.852   3.814   7.818 -0.1101  0.8507 -1.4356
  741MOL0     H   15   7.136   3.937   7.238 -0.6978 -1.5472 -1.8780
  741MOL0     H   16   6.934   3.819   7.316  1.1598  1.3542 -0.7061
  741MOL0     H   17   6.734   3.654   7.846 -0.7985 -1.5892  1.9322
  741MOL0     H   18   6.547   3.520   7.912  1.1947 -0.3013 -0.0483
  741MOL0     H   19   4.519   3.443   7.873  0.8475 -0.0409 -0.4291
  741MOL0     H   20   4.276   3.540   7.825 -0.7767  0.4222  1.1567
  741MOL0     H   21   4.042   3.893   7.675  1.9165  1.8832  1.7178
  741MOL0     H   22   3.808   3.944   7.603  0.5466 -0.6147  0.9987
  741MOL0     H   23   3.490   3.933   7.868 -0.0949  2.2964 -0.4913
  741MOL0     H   24   3.583   3.841   7.744  0.4396 -1.1683 -1.0695
  741MOL0     H   25   3.381   3.856   7.630 -0.8750  0.2744 -0.1441
  741MOL0     H   26   3.434   4.022   7.595  0.9312  0.9474  0.1293
  741MOL0     H   27   3.316   4.121   7.772 -1.3319 -0.3023  3.9408
  741MOL0     H   28   3.246   3.963   7.834 -0.8070  0.5889 -0.0645
  741MOL0     H   29   3.202   3.997   7.549 -1.6008 -1.9317 -0.2477
  741MOL0     H   30   3.100   3.937   7.668  0.3712 -0.1551  1.8402
  741MOL0     H   31   2.975   4.330   7.715 -1.2409 -0.9098  2.0596
  741MOL0     H   32   3.704   4.043   8.000 -1.7774 -2.3193 -2.1405
  741MOL0     H   33   3.839   4.021   8.172  0.3501  1.9476 -2.4544
  741MOL0     H   34   3.938   3.866   8.154  2.8839  0.9266  0.6204
  741MOL0     H   35   4.012   4.014   8.151 -0.4836 -1.3266  2.9705
  742MOL0     O   36   6.684   8.234   8.591  0.8807  0.2615 -0.4800
  742MOL0     C   37   6.657   8.290   8.702  0.2388  0.4518  0.8270
  742MOL0     O   38   6.747   8.291   8.804  0.7891  0.1042  0.0579
  742MOL0     C   39   6.875   8.236   8.791  0.3608  0.5845 -0.1810
  742MOL0     C   40   6.938   8.204   8.908 -0.0449 -0.0625  0.6984
  742MOL0     C   41   7.072   8.168   8.906  0.2051  0.6785  0.2197
  742MOL0     C   42   7.133   8.138   8.779 -0.0736  0.2740 -0.7019
  742MOL0     O   43   7.246   8.059   8.762 -0.8319  0.2245 -0.9922
  742MOL0     C   44   7.326   8.041   8.883 -0.3725 -0.6281 -0.0266
  742MOL0     C   45   7.464   8.004   8.836  0.6211  0.2330  0.1839
  742MOL0     C   46   7.565   7.986   8.942 -0.4183  0.1618  0.2385
  742MOL0     C   47   7.700   7.940   8.880  0.4439  0.0675  0.2605
  742MOL0     C   48   7.805   7.914   8.987 -0.2734 -1.3221  0.8137
  742MOL0     C   49   7.756   7.789   9.087  0.4466 -0.3662  0.9298
  742MOL0     C   50   7.869   7.750   9.195 -0.6429 -0.4858 -0.5453
  742MOL0     C   51   7.823   7.623   9.260 -0.1625  0.4317  0.8042
  742MOL0     N   52   7.916   7.556   9.344 -0.2377  0.7587 -0.1814
  742MOL0     C   53   8.051   7.531   9.301  0.2759 -0.1971 -0.5721
  742MOL0     C   54   8.124   7.531   9.414  0.3025  0.3738  0.0665
  742MOL0     C   55   8.270   7.524   9.425  0.6536 -0.4417 -0.7423
  742MOL0     C   56   8.329   7.563   9.568 -0.6839 -0.1325 -0.2824
  742MOL0     C   57   8.476   7.548   9.594 -0.0415 -0.1214  0.9652
  742MOL0     C   58   8.559   7.624   9.487 -0.0460 -0.2095 -0.6590
  742MOL0     O   59   8.690   7.572   9.520  0.2209 -0.3486  0.0020
  742MOL0     C   60   8.785   7.555   9.415 -0.9461 -0.6865 -0.1802
  742MOL0     C   61   8.914   7.528   9.461  0.0927 -0.7493  1.1384
  742MOL0     C   62   9.024   7.493   9.376  0.4993 -0.5809  0.2641
  742MOL0     C   63   8.996   7.493   9.231  0.2043 -0.1287 -0.6904
  742MOL0     C   64   9.105   7.464   9.137  0.5428 -0.9800  0.2261
  742MOL0     O   65   9.226   7.447   9.197 -0.2092  0.3114 -0.4296
  742MOL0     C   66   9.345   7.420   9.120  0.7384  0.8811 -0.0600
  742MOL0     C   67   9.458   7.406   9.201  0.1021  0.3868 -0.4956
  742MOL0     C   68   9.592   7.403   9.153  0.4289  0.3438  0.9767
  742MOL0     C   69   9.610   7.396   9.013  0.7287  0.0029 -0.3951
  742MOL0     O   70   9.741   7.394   8.970  0.3332 -0.5925  1.0941
  742MOL0     C   71   9.763   7.310   8.854 -0.7058 -0.0788  0.4976
  742MOL0     C   72   9.912   7.286   8.822  0.6542  0.1129 -0.1077
  742MOL0     C   73  10.012   7.248   8.935 -0.2815 -0.0540  0.0209
  742MOL0     C   74   9.972   7.101   8.977 -0.9695  0.0319  0.1948
  742MOL0     C   75  10.061   7.034   9.090 -0.5443 -0.6839  0.0151
  742MOL0     C   76  10.082   7.117   9.219  0.1754 -0.1239 -0.3561
  742MOL0     C   77   9.948   7.153   9.295  0.3942 -0.3734  0.4445
  742MOL0     C   78   9.872   7.034   9.359 -0.7274 -0.7414 -1.0612
  742MOL0    Cl   79   9.989   6.920   9.424 -0.1233 -0.2522 -0.4021
  742MOL0     C   80   9.496   7.382   8.929 -0.8851 -0.6866 -1.0710
  742MOL0     C   81   9.369   7.408   8.984  0.2976  0.1176  0.3457
  742MOL0     O   82   9.084   7.473   9.017  0.8278  0.2075 -0.5575
  742MOL0     C   83   8.870   7.528   9.187  0.3058 -0.8803 -0.2945
  742MOL0     C   84   8.767   7.560   9.275  0.0911 -1.0588 -0.1711
  742MOL0     N   85   8.040   7.544   9.520  0.5223  0.3991  0.5842
  742MOL0     N   86   7.914   7.551   9.486 -0.2299  0.3981  0.0881
  742MOL0     C   87   7.072   8.171   8.667  0.5124 -0.6688  0.7965
  742MOL0     C   88   6.947   8.231   8.671  0.6583  0.4559 -0.7334
  742MOL0     C   89   6.529   8.354   8.718 -0.4549 -0.0887 -0.1165
  742MOL0     C   90   6.531   8.454   8.818 -0.1816 -0.5636  0.4716
  742MOL0     C   91   6.415   8.518   8.848  0.0900  0.3651  0.8302
  742MOL0     C   92   6.297   8.503   8.776 -0.9081  0.5526 -0.1409
  742MOL0     O   93   6.177   8.567   8.789 -0.5104 -0.9016  0.1975
  742MOL0     C   94   6.157   8.650   8.907 -1.1788  0.0909 -0.2024
  742MOL0     C   95   6.139   8.560   9.033  0.5570 -0.0943 -0.9617
  742MOL0     C   96   6.041   8.446   9.013 -0.2172  0.0341  0.2115
  742MOL0     C   97   5.922   8.464   8.928  0.1216  0.7633  0.2931
  742MOL0     C   98   5.831   8.353   8.925 -0.1178  1.0799  0.1109
  742MOL0     C   99   5.742   8.267   8.912  0.4049  0.5581  0.1560
  742MOL0     C  100   6.294   8.400   8.671 -0.0336  0.2126  0.2894
  742MOL0     C  101   6.405   8.327   8.646  0.0485  0.9427 -0.9191
  742MOL0     C  102   6.398   8.222   8.535 -0.9136 -0.3254  0.1371
  742MOL0     H  103   6.887   8.199   9.004 -0.8716  0.3361  0.2851
  742MOL0     H  104   7.121   8.147   9.001  2.9953  0.4870 -1.1642
  742MOL0     H  105   7.341   8.132   8.943  1.8571 -0.4900 -0.7074
  742MOL0     H  106   7.281   7.964   8.947 -2.8380  0.0226 -0.8735
  742MOL0     H  107   7.501   8.072   8.759  2.4611  0.5293  1.2773
  742MOL0     H  108   7.433   7.910   8.789 -2.9801  0.9895  0.7640
  742MOL0     H  109   7.525   7.929   9.026  0.6858 -0.7582  0.1623
  742MOL0     H  110   7.599   8.079   8.988  0.8786  0.7043 -1.6609
  742MOL0     H  111   7.680   7.851   8.819  0.9848 -0.3027  0.6098
  742MOL0     H  112   7.746   8.019   8.821 -1.7717  1.7307  0.6288
  742MOL0     H  113   7.895   7.888   8.930 -0.1559  2.1887 -0.8367
  742MOL0     H  114   7.817   8.008   9.040  0.3904 -0.0365 -1.4871
  742MOL0     H  115   7.669   7.820   9.146  1.0851 -0.9354  2.1926
  742MOL0     H  116   7.737   7.700   9.027  1.9971 -0.6718  0.8471
  742MOL0     H  117   7.876   7.828   9.271 -0.3647 -2.5716  1.6881
  742MOL0     H  118   7.964   7.724   9.148 -0.2632  1.3078 -0.8209
  742MOL0     H  119   7.734   7.639   9.322 -0.4915 -0.8344  0.6870
  742MOL0     H  120   7.790   7.556   9.179 -0.7410 -2.4689  3.2424
  742MOL0     H  121   8.086   7.545   9.200 -0.9631 -1.2649 -1.1789
  742MOL0     H  122   8.292   7.422   9.394 -0.3410 -0.8769 -0.0829
  742MOL0     H  123   8.321   7.596   9.360  0.5791 -0.9108 -1.3219
  742MOL0     H  124   8.302   7.668   9.582  1.3080  0.8228 -2.7867
  742MOL0     H  125   8.280   7.495   9.638  0.9260 -2.4573 -1.2756
  742MOL0     H  126   8.503   7.443   9.586  2.0187  0.4197  0.3862
  742MOL0     H  127   8.504   7.585   9.693  0.8936  1.5265  0.1296
  742MOL0     H  128   8.553   7.734   9.488  0.3514 -0.1896  0.1859
  742MOL0     H  129   8.532   7.591   9.386  0.2603 -1.8860 -0.2118
  742MOL0     H  130   8.932   7.533   9.568 -3.2409 -0.0994  1.7663
  742MOL0     H  131   9.127   7.473   9.403  0.8404 -2.3526 -2.0722
  742MOL0     H  132   9.469   7.405   9.309 -1.6172  1.5515 -0.2609
  742MOL0     H  133   9.672   7.398   9.226  2.2510  1.5993 -0.8095
  742MOL0     H  134   9.715   7.212   8.868 -0.8824  0.2573  2.5490
  742MOL0     H  135   9.712   7.351   8.767  1.5827  1.3630 -0.2491
  742MOL0     H  136   9.913   7.213   8.741 -2.4367 -2.9167  2.3012
  742MOL0     H  137   9.942   7.378   8.771 -2.2948  2.1842  1.5735
  742MOL0     H  138  10.113   7.256   8.892 -1.6672 -1.6747 -3.9894
  742MOL0     H  139  10.014   7.305   9.029  0.1864  0.1951 -0.1307
  742MOL0     H  140   9.976   7.037   8.888  0.3000 -2.4800  1.9232
  742MOL0     H  141   9.870   7.095   9.014 -1.0317  1.0979  0.2077
  742MOL0     H  142  10.161   7.019   9.049 -1.2129 -3.5427 -0.8059
  742MOL0     H  143  10.029   6.932   9.114  2.9142 -1.3460  2.5135
  742MOL0     H  144  10.147   7.065   9.290 -0.4192 -1.0743 -0.4966
  742MOL0     H  145  10.131   7.212   9.196 -0.4201  0.5507  1.0562
  742MOL0     H  146   9.881   7.209   9.230  0.0353 -0.5422  0.6710
  742MOL0     H  147   9.973   7.217   9.380 -4.1335  2.5939 -0.1449
  742MOL0     H  148   9.801   7.061   9.438 -0.4531 -0.6803 -0.8330
  742MOL0     H  149   9.829   6.980   9.274  1.4186  0.8458 -3.3055
  742MOL0     H  150   9.509   7.348   8.827 -1.6165 -0.3110 -1.2925
  742MOL0     H  151   9.285   7.418   8.916  0.2299 -0.1882  0.3816
  742MOL0     H  152   8.843   7.543   9.083  0.6073  1.3295 -0.1005
  742MOL0     H  153   8.672   7.588   9.231  0.2018 -0.8138 -0.2535
  742MOL0     H  154   7.116   8.138   8.573  4.6174  1.4790  1.7455
  742MOL0     H  155   6.914   8.288   8.585  0.8980  1.5639 -0.1225
  742MOL0     H  156   6.616   8.478   8.882 -1.6455  0.8696  1.9788
  742MOL0     H  157   6.415   8.602   8.917  1.9817 -0.4590  1.8920
  742MOL0     H  158   6.066   8.709   8.893 -1.4150  0.0562  1.0960
  742MOL0     H  159   6.232   8.730   8.910 -0.3958 -0.6641  1.1251
  742MOL0     H  160   6.114   8.631   9.112  1.1677 -0.1160 -0.7464
  742MOL0     H  161   6.235   8.516   9.064  0.9275  1.3077 -0.0574
  742MOL0     H  162   6.005   8.411   9.110 -1.5040  1.5794  0.3443
  742MOL0     H  163   6.089   8.364   8.959 -1.7448 -0.0551 -1.0989
  742MOL0     H  164   5.864   8.554   8.951 -0.9312  0.1183  0.2611
  742MOL0     H  165   5.950   8.473   8.822 -2.5724  0.9992 -0.4804
  742MOL0     H  166   5.661   8.197   8.905 -0.8695  1.5047  3.6668
  742MOL0     H  167   6.207   8.380   8.608  0.7359  0.9415 -1.0569
  742MOL0     H  168   6.293   8.195   8.519 -1.0174 -0.8662  1.5813
  742MOL0     H  169   6.434   8.253   8.437  1.0057 -2.7848 -0.0302
  742MOL0     H  170   6.453   8.131   8.560 -0.3559 -0.8676 -2.7314
  743MOL0     O  171   6.280   4.127   2.781 -0.3286 -0.3590 -0.2675
  743MOL0     C  172   6.292   4.236   2.837  0.2080  0.1799 -0.0296
  743MOL0     O  173   6.223   4.340   2.796  0.3540 -0.7182  0.6000
  743MOL0     C  174   6.131   4.327   2.701 -0.1807  0.2197 -0.5162
  743MOL0     C  175   6.164   4.293   2.572 -0.1393 -0.0028  0.1044
  743MOL0     C  176   6.067   4.295   2.474 -0.6789 -0.5969  0.4154
  743MOL0     C  177   5.947   4.361   2.495 -0.5215 -0.6872 -0.1367
  743MOL0     O  178   5.859   4.385   2.391 -0.0069  0.2545  0.2528
  743MOL0     C  179   5.895   4.399   2.251 -1.5654  0.4819 -0.4892
  743MOL0     C  180   5.779   4.465   2.173  0.8008  0.4573 -0.4674
  743MOL0     C  181   5.737   4.603   2.226 -0.4469  0.0861  0.1504
  743MOL0     C  182   5.820   4.721   2.184 -1.3512 -0.1821 -0.1747
  743MOL0     C  183   5.772   4.860   2.240  0.3755  0.1718 -1.2076
  743MOL0     C  184   5.703   4.865   2.377  0.1048 -0.5100 -0.0553
  743MOL0     C  185   5.659   5.004   2.422  0.9086 -0.2591  0.6018
  743MOL0     C  186   5.537   5.003   2.506 -0.5524 -0.1202 -0.5221
  743MOL0     N  187   5.503   5.144   2.543 -0.9752 -0.0475  0.2684
  743MOL0     C  188   5.569   5.224   2.639 -0.8817 -0.3087  1.0191
  743MOL0     C  189   5.508   5.345   2.620  0.3062  0.5929 -0.0919
  743MOL0     C  190   5.541   5.477   2.682 -0.8866 -0.2540 -0.2464
  743MOL0     C  191   5.474   5.489   2.820 -0.7864 -0.5382  0.6661
  743MOL0     C  192   5.472   5.632   2.867 -0.4249  0.7494  0.2321
  743MOL0     C  193   5.598   5.713   2.882 -0.4207 -0.2246 -0.2778
  743MOL0     O  194   5.697   5.634   2.948  0.3411 -0.0920  0.1478
  743MOL0     C  195   5.825   5.685   2.960  0.3743 -0.1110  0.1612
  743MOL0     C  196   5.896   5.663   3.075 -0.8343 -0.5365 -0.2533
  743MOL0     C  197   6.033   5.702   3.091  0.2152 -0.4966 -0.4130
  743MOL0     C  198   6.092   5.782   2.989 -0.5845  0.1123  0.3408
  743MOL0     C  199   6.221   5.850   3.023 -0.4556  0.1880  0.3242
  743MOL0     O  200   6.278   5.847   3.153 -0.2434  0.2072  0.3612
  743MOL0     C  201   6.395   5.909   3.179  0.7213  1.3022  0.0953
  743MOL0     C  202   6.483   5.826   3.244 -0.3505  0.0445  0.2272
  743MOL0     C  203   6.603   5.888   3.277 -0.4885 -0.1012 -0.0576
  743MOL0     C  204   6.632   6.028   3.266 -0.3182 -0.1785 -0.0294
  743MOL0     O  205   6.747   6.090   3.308  0.4247 -0.2672  0.7652
  743MOL0     C  206   6.859   6.018   3.360 -0.2085  0.1832 -0.5792
  743MOL0     C  207   6.982   6.114   3.371 -0.3247 -0.9472  0.3621
  743MOL0     C  208   7.038   6.183   3.243  0.3315  0.7785 -0.4112
  743MOL0     C  209   7.153   6.277   3.290 -0.2982 -0.1395 -0.0007
  743MOL0     C  210   7.222   6.318   3.154 -0.1207 -0.1638  0.9526
  743MOL0     C  211   7.347   6.408   3.185  0.6227  0.5469  1.0598
  743MOL0     C  212   7.459   6.363   3.274  0.1556  0.3955 -0.1240
  743MOL0     C  213   7.570   6.476   3.271 -0.4985  1.2704  0.3334
  743MOL0    Cl  214   7.693   6.471   3.141 -0.5412 -0.2159 -0.0486
  743MOL0     C  215   6.537   6.106   3.207  0.0205  0.3871  2.0474
  743MOL0     C  216   6.416   6.041   3.160 -0.6736 -0.6900  0.0717
  743MOL0     O  217   6.281   5.897   2.926  0.1445 -0.5644 -0.4513
  743MOL0     C  218   6.027   5.801   2.867  0.0862 -0.5052 -0.3779
  743MOL0     C  219   5.890   5.758   2.852  1.0134 -0.2076  0.0756
  743MOL0     N  220   5.414   5.344   2.518 -0.0018  0.6522 -0.3045
  743MOL0     N  221   5.414   5.218   2.472  0.3742 -0.0983 -0.3967
  743MOL0     C  222   5.913   4.397   2.625  0.5280  0.6363  0.3074
  743MOL0     C  223   6.002   4.370   2.734 -0.0015 -0.9756 -0.0864
  743MOL0     C  224   6.368   4.254   2.966  0.2122  0.6518  0.2882
  743MOL0     C  225   6.388   4.388   3.019 -0.8461  0.2848  0.9115
  743MOL0     C  226   6.481   4.410   3.119 -0.0451  0.1734  0.1520
  743MOL0     C  227   6.536   4.309   3.189  0.2316 -0.3976 -0.3225
  743MOL0     O  228   6.620   4.344   3.290  0.0876  0.5118 -0.1713
  743MOL0     C  229   6.759   4.357   3.244  0.4803 -0.1666 -0.3481
  743MOL0     C  230   6.849   4.312   3.368 -0.7433  0.7517  0.1835
  743MOL0     C  231   6.982   4.387   3.369 -0.8284  0.2188 -0.0544
  743MOL0     C  232   7.097   4.307   3.426 -0.3808 -0.1999 -0.3409
  743MOL0     C  233   7.065   4.253   3.558 -0.2017  0.1496 -0.5460
  743MOL0     C  234   7.027   4.201   3.663 -0.6593 -0.2040 -0.3523
  743MOL0     C  235   6.518   4.180   3.137 -0.5919  0.5858 -0.5669
  743MOL0     C  236   6.431   4.148   3.031 -0.4147  1.0269  0.1023
  743MOL0     C  237   6.417   4.002   2.990  0.5342  0.3732 -0.6271
  743MOL0     H  238   6.261   4.254   2.542  0.7079  2.7942 -1.1417
  743MOL0     H  239   6.097   4.263   2.375  1.3971  0.9209  0.4863
  743MOL0     H  240   5.979   4.469   2.259 -2.7998  2.1992 -1.6959
  743MOL0     H  241   5.935   4.312   2.199 -1.2344 -1.2815  2.5109
  743MOL0     H  242   5.697   4.393   2.181  1.2915 -0.3169 -2.0203
  743MOL0     H  243   5.802   4.467   2.066 -3.1299 -0.2709 -1.4722
  743MOL0     H  244   5.713   4.582   2.331 -1.3020 -1.8783 -0.3939
  743MOL0     H  245   5.634   4.631   2.202 -1.9087 -0.2108  4.9096
  743MOL0     H  246   5.925   4.700   2.206 -1.5345 -0.7855  0.1554
  743MOL0     H  247   5.820   4.735   2.075  0.8401  0.7740 -0.0855
  743MOL0     H  248   5.859   4.926   2.234  1.4678 -1.3035 -2.4319
  743MOL0     H  249   5.696   4.898   2.171 -2.4913 -0.5618  1.3471
  743MOL0     H  250   5.620   4.794   2.383  0.2254 -0.5863  0.7951
  743MOL0     H  251   5.772   4.830   2.455 -0.1773  1.2963  1.0359
  743MOL0     H  252   5.619   5.049   2.330 -1.7414 -1.9079  0.8697
  743MOL0     H  253   5.746   5.061   2.458 -0.4558  2.4245 -0.0795
  743MOL0     H  254   5.452   4.950   2.462 -1.9882  1.0007  0.8093
  743MOL0     H  255   5.572   4.955   2.598 -1.4919  0.3922  0.1181
  743MOL0     H  256   5.657   5.210   2.700  0.0266 -1.5825 -0.5068
  743MOL0     H  257   5.649   5.497   2.692 -1.2663  1.0337  2.0532
  743MOL0     H  258   5.501   5.552   2.614  0.8247  1.3265  0.3810
  743MOL0     H  259   5.370   5.455   2.820 -0.9882  0.0389  1.4961
  743MOL0     H  260   5.533   5.424   2.885  1.2184  0.8559  0.3302
  743MOL0     H  261   5.421   5.624   2.963 -1.2462 -0.4447 -0.2631
  743MOL0     H  262   5.398   5.672   2.797  0.1600  0.8996 -0.3085
  743MOL0     H  263   5.592   5.800   2.949  3.7655  1.8016 -2.1410
  743MOL0     H  264   5.631   5.750   2.784 -0.3188  0.0713 -0.1361
  743MOL0     H  265   5.853   5.616   3.163  0.9689 -1.6836  0.0670
  743MOL0     H  266   6.081   5.688   3.188 -1.0225 -2.4729 -0.0282
  743MOL0     H  267   6.469   5.718   3.251  2.5152 -0.6692 -2.5690
  743MOL0     H  268   6.675   5.820   3.323 -1.8209 -0.0162  2.2971
  743MOL0     H  269   6.845   5.977   3.461 -0.1968  2.6095  0.4956
  743MOL0     H  270   6.895   5.938   3.296 -2.5306 -0.9229 -0.6352
  743MOL0     H  271   6.941   6.197   3.430  0.9338 -2.6864  4.0203
  743MOL0     H  272   7.061   6.066   3.430 -0.0679 -1.0190 -0.0407
  743MOL0     H  273   7.068   6.103   3.175  3.5000 -0.0243  1.6970
  743MOL0     H  274   6.956   6.236   3.195  0.5577  0.9059 -0.6591
  743MOL0     H  275   7.214   6.228   3.366 -0.2470  0.7456  0.5412
  743MOL0     H  276   7.105   6.361   3.342 -1.7773 -0.0405 -1.4487
  743MOL0     H  277   7.160   6.376   3.084 -2.1871 -1.1266  1.8921
  743MOL0     H  278   7.257   6.229   3.102  3.3522  0.6264  1.6903
  743MOL0     H  279   7.384   6.440   3.088 -4.5095 -0.2053 -1.4817
  743MOL0     H  280   7.297   6.497   3.224 -0.5956  0.6567 -0.6381
  743MOL0     H  281   7.501   6.265   3.249 -0.5262  0.0371  0.1258
  743MOL0     H  282   7.416   6.346   3.373 -1.3176 -1.0714 -0.9791
  743MOL0     H  283   7.531   6.578   3.268  2.8783  2.7100 -2.7231
  743MOL0     H  284   7.626   6.461   3.364 -0.1878 -3.4452 -0.3657
  743MOL0     H  285   6.550   6.213   3.200 -1.1578  0.4488 -0.4474
  743MOL0     H  286   6.339   6.102   3.113  0.3394  0.3642 -0.2850
  743MOL0     H  287   6.076   5.864   2.793 -0.6560  2.8202  1.7318
  743MOL0     H  288   5.834   5.778   2.762  1.2077 -0.6409 -0.1448
  743MOL0     H  289   5.814   4.439   2.644  0.2294 -1.1559  3.3625
  743MOL0     H  290   5.977   4.404   2.834  1.0322 -0.6460  0.0744
  743MOL0     H  291   6.339   4.472   2.972  1.9189  1.6798  0.3616
  743MOL0     H  292   6.496   4.515   3.142 -3.6313  1.8310 -3.7178
  743MOL0     H  293   6.783   4.461   3.221  0.3568 -0.3431 -1.3235
  743MOL0     H  294   6.773   4.290   3.158 -0.2255 -3.6410  2.0069
  743MOL0     H  295   6.869   4.205   3.358  0.2252  0.9814 -0.5101
  743MOL0     H  296   6.802   4.328   3.465  2.4451  0.4698  1.8948
  743MOL0     H  297   6.971   4.477   3.429 -1.3639  0.5939 -0.7059
  743MOL0     H  298   7.015   4.417   3.269 -2.7513 -0.1390 -0.8392
  743MOL0     H  299   7.130   4.224   3.362  0.0691 -0.1225 -0.2118
  743MOL0     H  300   7.181   4.375   3.440 -2.9975  3.2299  0.1173
  743MOL0     H  301   6.981   4.152   3.746  0.1814 -2.9750 -1.4304
  743MOL0     H  302   6.567   4.108   3.202 -1.5027 -0.4279 -0.9712
  743MOL0     H  303   6.448   3.988   2.886 -1.2547  0.1496 -1.1619
  743MOL0     H  304   6.481   3.950   3.062 -2.0593 -1.3619  0.5732
  743MOL0     H  305   6.316   3.966   3.011  0.6673  1.0798  1.5533
  744MOL0     O  306   3.120   2.728   8.931  0.6194  0.5062  0.5678
  744MOL0     C  307   3.144   2.821   8.848 -0.4448  0.2540 -0.0973
  744MOL0     O  308   3.271   2.838   8.797  0.2277 -0.0208  0.1111
  744MOL0     C  309   3.381   2.805   8.868  0.2814  1.4626  0.0661
  744MOL0     C  310   3.477   2.760   8.781 -0.1024 -0.2809 -0.0939
  744MOL0     C  311   3.586   2.684   8.826  0.3294  0.1844  0.2733
  744MOL0     C  312   3.621   2.683   8.956  0.5977 -0.6949 -0.1842
  744MOL0     O  313   3.736   2.623   9.008  0.0219  0.1000  0.3492
  744MOL0     C  314   3.824   2.564   8.909 -0.9899  0.8057 -0.2398
  744MOL0     C  315   3.949   2.518   8.978  0.1483  0.9500  0.3630
  744MOL0     C  316   3.913   2.389   9.053  0.1602  0.0869  0.5026
  744MOL0     C  317   4.039   2.318   9.099  0.2067 -0.0896 -0.7401
  744MOL0     C  318   4.005   2.185   9.174 -0.0714  0.2952  1.1301
  744MOL0     C  319   3.984   2.061   9.091  0.0876  0.2418 -0.7909
  744MOL0     C  320   4.007   1.922   9.150  0.0166 -0.3638 -0.8274
  744MOL0     C  321   3.934   1.912   9.289  1.1136  0.3281  0.8944
  744MOL0     N  322   3.790   1.897   9.294 -1.1613 -0.2307  0.3534
  744MOL0     C  323   3.730   1.777   9.268  0.6466  0.2284  0.0145
  744MOL0     C  324   3.597   1.800   9.280 -0.7208 -0.1019 -1.1109
  744MOL0     C  325   3.478   1.701   9.251 -0.2070  0.2862  0.0040
  744MOL0     C  326   3.492   1.631   9.115  0.1705 -0.4855  0.1121
  744MOL0     C  327   3.409   1.508   9.093 -1.2178 -0.1100 -0.5609
  744MOL0     C  328   3.471   1.405   8.996 -0.1987  0.0921  0.1861
  744MOL0     O  329   3.375   1.304   8.962 -0.5788 -0.1648 -0.2015
  744MOL0     C  330   3.271   1.324   8.877 -0.4171  0.0498 -0.1354
  744MOL0     C  331   3.275   1.428   8.781 -0.8358  0.1671 -0.4255
  744MOL0     C  332   3.161   1.453   8.698  0.4614 -0.0711 -0.6830
  744MOL0     C  333   3.048   1.362   8.703 -0.0227  0.0536  0.0024
  744MOL0     C  334   2.945   1.358   8.601  0.1573  0.0719 -0.3526
  744MOL0     O  335   2.817   1.332   8.650 -0.2289  0.3113 -0.3898
  744MOL0     C  336   2.706   1.311   8.572  0.3047 -0.0224 -0.4504
  744MOL0     C  337   2.693   1.285   8.439  0.2353 -0.1087  0.4608
  744MOL0     C  338   2.565   1.285   8.383 -0.6264  0.3283  0.5799
  744MOL0     C  339   2.450   1.283   8.456  1.1931  0.2427 -0.0770
  744MOL0     O  340   2.332   1.252   8.399 -0.6531  0.5609 -0.1040
  744MOL0     C  341   2.302   1.285   8.268  0.0254 -0.1540  0.5031
  744MOL0     C  342   2.314   1.166   8.179  0.1016 -1.5710 -0.8427
  744MOL0     C  343   2.262   1.176   8.039  0.3375 -0.1523  0.8115
  744MOL0     C  344   2.311   1.057   7.964 -0.7556  0.2465  0.6623
  744MOL0     C  345   2.247   1.035   7.819 -0.0112 -0.0152  0.2254
  744MOL0     C  346   2.112   0.960   7.814  0.2107 -0.1821  0.3760
  744MOL0     C  347   2.096   0.867   7.693  0.6655  0.1000  0.4706
  744MOL0     C  348   2.218   0.804   7.637  0.1027 -0.5619  0.0610
  744MOL0    Cl  349   2.296   0.909   7.511 -0.2855  0.4683  0.5268
  744MOL0     C  350   2.466   1.294   8.600  0.1414  0.0072  0.8338
  744MOL0     C  351   2.592   1.321   8.649  0.1466  0.2525 -0.5447
  744MOL0     O  352   2.975   1.381   8.483  0.4372  0.3810  0.0899
  744MOL0     C  353   3.053   1.261   8.797 -0.2892 -0.7857  0.0808
  744MOL0     C  354   3.156   1.244   8.888  0.2717 -0.8949 -0.6623
  744MOL0     N  355   3.577   1.925   9.334 -0.5294  0.4468 -0.2672
  744MOL0     N  356   3.695   1.986   9.336 -0.1503  0.6663  0.1746
  744MOL0     C  357   3.534   2.738   9.048  0.2092  1.1342  0.3521
  744MOL0     C  358   3.406   2.787   9.012 -0.7706 -0.5841 -0.8294
  744MOL0     C  359   3.041   2.911   8.800 -0.1455  0.0483  0.0126
  744MOL0     C  360   3.072   2.992   8.691 -0.4273 -0.0335  0.6098
  744MOL0     C  361   2.967   3.059   8.617 -0.8928  0.6567  0.9493
  744MOL0     C  362   2.840   3.062   8.659  0.7831  0.7976 -0.6245
  744MOL0     O  363   2.742   3.120   8.595 -0.1758 -0.5264 -0.0817
  744MOL0     C  364   2.627   3.044   8.549  1.0950 -0.0152  0.1013
  744MOL0     C  365   2.635   3.000   8.403  0.0402 -0.1948  0.4477
  744MOL0     C  366   2.753   2.908   8.363 -0.2628  0.4699  0.9013
  744MOL0     C  367   2.737   2.854   8.221 -0.8082  0.4976  0.3559
  744MOL0     C  368   2.812   2.726   8.213 -0.2250 -0.1419 -0.0149
  744MOL0     C  369   2.873   2.622   8.214  0.2654 -0.4694  0.8710
  744MOL0     C  370   2.819   3.005   8.786 -0.5739  0.2157  0.5573
  744MOL0     C  371   2.916   2.939   8.864  0.0702  0.1713 -1.4891
  744MOL0     C  372   2.883   2.884   9.011  0.0840 -0.5218  0.7477
  744MOL0     H  373   3.450   2.778   8.677 -0.1391 -2.4249 -0.4988
  744MOL0     H  374   3.638   2.628   8.749  0.8039  1.3010 -0.2556
  744MOL0     H  375   3.771   2.476   8.871  0.3846 -0.7069  1.1503
  744MOL0     H  376   3.845   2.645   8.839  2.8163  1.7746  1.7514
  744MOL0     H  377   3.980   2.604   9.037 -1.0768  0.0984  2.3242
  744MOL0     H  378   4.024   2.505   8.899  0.1590 -0.1310  0.5347
  744MOL0     H  379   3.863   2.319   8.986  1.7952 -0.6396 -0.0086
  744MOL0     H  380   3.858   2.429   9.139 -1.4601  0.2733 -0.5727
  744MOL0     H  381   4.101   2.294   9.012  1.0083 -1.9373  0.2820
  744MOL0     H  382   4.096   2.380   9.169 -1.0348 -2.3333  2.5006
  744MOL0     H  383   4.086   2.150   9.240 -0.0115  1.3937  1.6617
  744MOL0     H  384   3.922   2.210   9.241 -1.2070  0.2387 -0.2327
  744MOL0     H  385   3.880   2.079   9.062  0.4215  1.7752 -1.1230
  744MOL0     H  386   4.039   2.062   8.997  0.1583 -2.5221 -0.8560
  744MOL0     H  387   4.113   1.907   9.172 -0.3262 -2.0242 -0.2046
  744MOL0     H  388   3.979   1.854   9.069  5.4452 -0.9715 -2.5842
  744MOL0     H  389   3.977   1.830   9.346  1.1667  1.1385  2.0701
  744MOL0     H  390   3.959   2.002   9.347 -2.4738  1.1156  1.4960
  744MOL0     H  391   3.782   1.689   9.232  0.6049  0.6565 -1.1266
  744MOL0     H  392   3.472   1.620   9.325 -3.2535  0.4170  0.0200
  744MOL0     H  393   3.380   1.751   9.253 -0.7959 -0.5744  4.6113
  744MOL0     H  394   3.460   1.695   9.033  1.2231 -2.4258 -1.9257
  744MOL0     H  395   3.600   1.618   9.108  0.4070  1.4440 -0.2128
  744MOL0     H  396   3.315   1.542   9.049  0.0023  2.3699 -1.4885
  744MOL0     H  397   3.396   1.454   9.187  1.1169 -0.1002 -0.1702
  744MOL0     H  398   3.559   1.367   9.048  0.8211  0.8134 -0.9476
  744MOL0     H  399   3.510   1.449   8.904  2.1927 -0.4251  0.8851
  744MOL0     H  400   3.356   1.500   8.773 -1.4099  0.7931 -0.6844
  744MOL0     H  401   3.161   1.530   8.622  1.5297 -1.7648 -2.4690
  744MOL0     H  402   2.772   1.272   8.366  1.0716  0.0826  1.3157
  744MOL0     H  403   2.576   1.277   8.275 -0.0649 -0.4337  0.6927
  744MOL0     H  404   2.199   1.323   8.264 -0.5855 -1.8252 -0.8686
  744MOL0     H  405   2.361   1.370   8.233 -0.8849  0.4845  0.4791
  744MOL0     H  406   2.421   1.149   8.187  0.3694  0.3493  0.4000
  744MOL0     H  407   2.261   1.086   8.231  0.0213 -0.9902 -0.0029
  744MOL0     H  408   2.152   1.178   8.044  0.3704 -0.3766  2.3821
  744MOL0     H  409   2.296   1.265   7.986 -1.5850 -0.1462 -0.5110
  744MOL0     H  410   2.317   0.968   8.027  2.1387  2.1958  3.4998
  744MOL0     H  411   2.415   1.081   7.942 -0.4476 -0.1978  1.5743
  744MOL0     H  412   2.329   1.000   7.756  1.5701  1.3255  1.4507
  744MOL0     H  413   2.241   1.130   7.765  0.2687 -1.5608 -2.6861
  744MOL0     H  414   2.102   0.903   7.906  0.4124  2.8864  2.4413
  744MOL0     H  415   2.033   1.036   7.820 -0.2084 -0.6871  1.4270
  744MOL0     H  416   2.036   0.904   7.609  0.2491 -2.0106 -0.2254
  744MOL0     H  417   2.030   0.786   7.726 -1.1667  1.2184 -0.2632
  744MOL0     H  418   2.291   0.796   7.718 -1.0330  0.3541  1.2115
  744MOL0     H  419   2.195   0.705   7.598 -3.0601  0.0942 -0.0095
  744MOL0     H  420   2.378   1.284   8.662 -1.3981 -2.1166 -1.5113
  744MOL0     H  421   2.611   1.331   8.755 -2.0388 -0.0706 -0.0678
  744MOL0     H  422   2.973   1.187   8.793  1.6611 -2.9552 -2.2990
  744MOL0     H  423   3.156   1.161   8.958  0.3428 -1.5684 -1.4406
  744MOL0     H  424   3.567   2.731   9.151 -0.7759 -2.5071  0.5594
  744MOL0     H  425   3.327   2.818   9.079  0.5629 -0.3443  0.6789
  744MOL0     H  426   3.165   2.986   8.636 -1.2542  0.4417 -0.9004
  744MOL0     H  427   2.967   3.115   8.524  2.0320 -2.0706 -0.9193
  744MOL0     H  428   2.537   3.104   8.563  1.0442 -0.2278  0.7106
  744MOL0     H  429   2.616   2.959   8.616 -1.4274  2.2338  2.8210
  744MOL0     H  430   2.648   3.087   8.339 -2.6419  1.0357  1.4504
  744MOL0     H  431   2.545   2.943   8.379 -2.3184  2.2313  2.8480
  744MOL0     H  432   2.747   2.824   8.433 -0.0499  0.8897  1.4369
  744MOL0     H  433   2.850   2.956   8.374  0.6324 -1.4038  1.6515
  744MOL0     H  434   2.634   2.834   8.193 -0.2108 -2.3377 -0.0541
  744MOL0     H  435   2.791   2.921   8.153 -1.4570  0.7224  0.0588
  744MOL0     H  436   2.935   2.535   8.206  1.1407  0.2970 -2.2447
  744MOL0     H  437   2.715   3.027   8.812 -0.4897  0.8116  0.4047
  744MOL0     H  438   2.854   2.780   8.992 -1.3057  0.2476 -1.9449
  744MOL0     H  439   2.964   2.903   9.081  0.2178 -1.4241  0.8409
  744MOL0     H  440   2.804   2.946   9.055 -0.9632 -2.2821  1.4315
  745MOL0     O  441   3.234  10.839   3.017  0.2552  0.3228  0.0502
  745MOL0     C  442   3.241  10.807   3.136  0.3975 -0.2815  0.0881
  745MOL0     O  443   3.356  10.789   3.203  0.2312  0.2732 -0.7404
  745MOL0     C  444   3.474  10.754   3.134 -0.0579  0.6832  0.1890
  745MOL0     C  445   3.475  10.651   3.045  0.7979  0.3175 -0.5418
  745MOL0     C  446   3.592  10.629   2.978 -0.9582  0.1454 -0.2102
  745MOL0     C  447   3.708  10.705   2.995 -0.2776 -0.8062 -0.8218
  745MOL0     O  448   3.823  10.672   2.922  0.8443  0.3696 -0.2363
  745MOL0     C  449   3.933  10.762   2.898 -0.4101 -1.1540 -0.8178
  745MOL0     C  450   4.049  10.678   2.849  0.3023 -0.4496  0.4086
  745MOL0     C  451   4.013  10.627   2.710  0.8787 -0.3411  1.0671
  745MOL0     C  452   4.107  10.512   2.669  0.1758  0.6166 -0.9944
  745MOL0     C  453   4.118  10.493   2.516 -0.0135  0.5735  0.9677
  745MOL0     C  454   4.191  10.596   2.434  0.4342 -0.3731  0.7424
  745MOL0     C  455   4.315  10.649   2.486 -0.6651 -0.1680 -0.1215
  745MOL0     C  456   4.391  10.757   2.395  0.5760  1.1132 -0.6252
  745MOL0     N  457   4.470  10.705   2.285 -0.4091  0.1478 -0.3481
  745MOL0     C  458   4.422  10.675   2.160 -0.0188  0.4855  0.2994
  745MOL0     C  459   4.521  10.607   2.096 -0.3272 -0.0107  0.1997
  745MOL0     C  460   4.539  10.582   1.952 -0.1052  0.5710 -0.1619
  745MOL0     C  461   4.476  10.690   1.862  0.9826  0.4935 -0.4916
  745MOL0     C  462   4.531  10.677   1.712  0.7605 -0.4549  0.1449
  745MOL0     C  463   4.503  10.550   1.631  0.0823 -0.2433  0.5834
  745MOL0     O  464   4.594  10.529   1.520  0.1133 -0.9292  0.4308
  745MOL0     C  465   4.725  10.496   1.549 -0.1993 -0.4914 -0.0979
  745MOL0     C  466   4.830  10.547   1.470 -0.7790  0.2950  0.0647
  745MOL0     C  467   4.957  10.525   1.489 -0.1613 -0.7407  0.2095
  745MOL0     C  468   4.998  10.444   1.596  1.1348  0.2878 -0.2374
  745MOL0     C  469   5.127  10.401   1.610 -0.1939  0.9273 -0.9397
  745MOL0     O  470   5.228  10.455   1.529  0.2176  1.2620 -0.8872
  745MOL0     C  471   5.360  10.405   1.531  1.2218  0.8218 -0.6344
  745MOL0     C  472   5.460  10.494   1.497  0.6623 -0.0563  0.0392
  745MOL0     C  473   5.591  10.448   1.480 -0.2732 -0.3423  0.4462
  745MOL0     C  474   5.620  10.308   1.482 -0.0999  0.4218 -0.5492
  745MOL0     O  475   5.741  10.250   1.461 -0.4162 -0.1862 -0.3017
  745MOL0     C  476   5.861  10.330   1.468  0.7450 -0.4326 -0.8219
  745MOL0     C  477   5.904  10.396   1.344 -0.2275 -0.3547  0.6544
  745MOL0     C  478   5.937  10.290   1.237  0.6239 -0.0743  0.1501
  745MOL0     C  479   6.032  10.351   1.136 -0.3541 -0.8595 -0.8235
  745MOL0     C  480   6.072  10.263   1.029  0.1831  0.4750 -0.5405
  745MOL0     C  481   6.184  10.316   0.946 -0.5046  0.4375  0.5664
  745MOL0     C  482   6.246  10.203   0.859 -0.3248 -0.5475 -0.6953
  745MOL0     C  483   6.363  10.263   0.785 -0.6903 -0.5451  0.5699
  745MOL0    Cl  484   6.486  10.318   0.919 -0.1353 -0.1539  0.2351
  745MOL0     C  485   5.519  10.221   1.512 -0.0219  0.6413 -0.8110
  745MOL0     C  486   5.392  10.264   1.541 -0.0965  0.4135 -0.8118
  745MOL0     O  487   5.149  10.322   1.700  0.0064 -0.2228  0.6000
  745MOL0     C  488   4.899  10.383   1.672  0.6303  0.1196 -0.6669
  745MOL0     C  489   4.764  10.404   1.649  0.6169 -0.6986  0.1677
  745MOL0     N  490   4.628  10.587   2.188  0.4793  0.6647  0.3485
  745MOL0     N  491   4.597  10.650   2.302 -0.0020  0.5283  0.1749
  745MOL0     C  492   3.714  10.812   3.098 -0.0842 -0.0824 -1.1453
  745MOL0     C  493   3.592  10.832   3.161 -0.8826  0.8012  0.7431
  745MOL0     C  494   3.116  10.812   3.215 -0.0754 -0.3918  0.2199
  745MOL0     C  495   3.140  10.842   3.354  0.2066 -1.4680 -0.0414
  745MOL0     C  496   3.020  10.853   3.431 -0.7741  0.1991 -0.0649
  745MOL0     C  497   2.891  10.838   3.383  0.2241 -0.1300 -0.4783
  745MOL0     O  498   2.773  10.847   3.460 -0.4393 -0.6374  0.1787
  745MOL0     C  499   2.783  10.924   3.582 -0.5782 -0.1779 -0.0177
  745MOL0     C  500   2.668  11.029   3.588 -0.2419  0.7546  0.3792
  745MOL0     C  501   2.531  10.993   3.522 -0.0906 -0.3914  1.0026
  745MOL0     C  502   2.430  11.108   3.532  0.2312 -0.9497  0.2472
  745MOL0     C  503   2.322  11.093   3.434 -0.0873 -0.2940 -0.3511
  745MOL0     C  504   2.228  11.088   3.350 -0.0666 -0.6365 -0.7528
  745MOL0     C  505   2.878  10.810   3.248 -0.1181  0.0380 -0.2405
  745MOL0     C  506   2.986  10.799   3.162  0.7777 -0.5097  0.3867
  745MOL0     C  507   2.953  10.771   3.018 -1.0152 -0.6080  0.5338
  745MOL0     H  508   3.387  10.589   3.034  2.6236 -2.8213  1.2379
  745MOL0     H  509   3.596  10.549   2.905  0.2539 -1.6734  1.7171
  745MOL0     H  510   3.910  10.847   2.833  0.3557  0.4253  0.8813
  745MOL0     H  511   3.967  10.799   2.995 -0.2096  0.6517 -1.5348
  745MOL0     H  512   4.065  10.583   2.900  2.3858 -0.3756 -0.0286
  745MOL0     H  513   4.140  10.738   2.840  1.2683 -1.7433  1.1492
  745MOL0     H  514   4.008  10.709   2.638  0.0699  0.5098  2.0568
  745MOL0     H  515   3.915  10.579   2.725  0.5105  0.5133  1.4250
  745MOL0     H  516   4.204  10.518   2.719 -0.6986 -1.8205  1.1870
  745MOL0     H  517   4.067  10.420   2.711 -0.3752  0.8864 -0.9141
  745MOL0     H  518   4.166  10.397   2.496 -2.2899 -0.5881  0.6990
  745MOL0     H  519   4.024  10.481   2.461  1.8479 -0.1705 -2.2835
  745MOL0     H  520   4.211  10.555   2.335 -1.4831  1.4925 -0.5114
  745MOL0     H  521   4.123  10.681   2.419  0.2359 -0.4198  1.3517
  745MOL0     H  522   4.392  10.576   2.513  1.5060  2.8739  2.6116
  745MOL0     H  523   4.297  10.707   2.577  0.1479  1.3592 -0.9081
  745MOL0     H  524   4.312  10.826   2.361 -1.1547  0.0751  1.0916
  745MOL0     H  525   4.460  10.809   2.462 -0.4872  0.1025  1.3363
  745MOL0     H  526   4.325  10.709   2.125 -0.6148  0.3686  1.7712
  745MOL0     H  527   4.646  10.579   1.934 -0.2505  0.8544 -1.0958
  745MOL0     H  528   4.508  10.479   1.933  5.4122 -1.6889  1.2531
  745MOL0     H  529   4.369  10.671   1.855  1.3486 -1.2958 -2.0241
  745MOL0     H  530   4.492  10.791   1.901 -1.5851  0.8597 -0.2049
  745MOL0     H  531   4.638  10.696   1.714  0.3751  2.0365  2.2219
  745MOL0     H  532   4.491  10.760   1.652  0.5939  0.5584  1.6250
  745MOL0     H  533   4.409  10.557   1.575  1.5596 -3.3236 -2.6544
  745MOL0     H  534   4.490  10.460   1.691 -0.5269  0.6395  1.8236
  745MOL0     H  535   4.807  10.612   1.386  3.5144  3.2695  0.8470
  745MOL0     H  536   5.033  10.572   1.428 -0.1525 -0.5333  0.3809
  745MOL0     H  537   5.422  10.594   1.484 -0.2091 -0.0869  2.0053
  745MOL0     H  538   5.664  10.522   1.449 -2.3153  2.7793  2.5674
  745MOL0     H  539   5.847  10.420   1.529  0.9099  1.0156 -2.7932
  745MOL0     H  540   5.946  10.278   1.514  0.6346  0.2392  0.1613
  745MOL0     H  541   5.831  10.465   1.301  0.1969 -1.8601 -2.8122
  745MOL0     H  542   5.989  10.459   1.372  1.1707 -1.9156  0.0009
  745MOL0     H  543   5.984  10.205   1.287 -1.0907  0.7918  3.5978
  745MOL0     H  544   5.844  10.266   1.186  0.4453  1.4259 -0.2668
  745MOL0     H  545   6.123  10.369   1.194  0.9654 -4.4697 -1.5395
  745MOL0     H  546   6.000  10.452   1.107  0.0937  0.3692  2.5282
  745MOL0     H  547   5.991  10.240   0.959  0.1895 -0.1884 -0.3356
  745MOL0     H  548   6.100  10.166   1.072  1.0008  0.1370 -1.7857
  745MOL0     H  549   6.150  10.400   0.885  0.2952  1.3093  1.2917
  745MOL0     H  550   6.253  10.369   1.011  0.5776 -1.4578  1.0292
  745MOL0     H  551   6.175  10.174   0.781 -0.3970  0.5059 -1.0344
  745MOL0     H  552   6.266  10.115   0.920  0.1340  0.5946  0.8666
  745MOL0     H  553   6.410  10.189   0.719 -0.0027  1.3458 -1.1502
  745MOL0     H  554   6.338  10.350   0.725  1.6842 -1.0405 -1.2950
  745MOL0     H  555   5.548  10.116   1.518  0.7105  0.8626 -0.3446
  745MOL0     H  556   5.308  10.200   1.565 -1.2014  2.1353  0.1885
  745MOL0     H  557   4.925  10.322   1.758  1.3951  0.6652 -0.4995
  745MOL0     H  558   4.686  10.360   1.710  0.2617 -0.0473  0.1841
  745MOL0     H  559   3.797  10.881   3.111  1.8528 -2.4181 -0.2890
  745MOL0     H  560   3.581  10.920   3.223 -1.7878  0.4741  1.0579
  745MOL0     H  561   3.238  10.871   3.391 -0.0379  1.8391 -1.5559
  745MOL0     H  562   3.041  10.869   3.537  0.0879 -2.8055  0.3351
  745MOL0     H  563   2.871  10.989   3.581  0.3939 -1.4462 -2.2551
  745MOL0     H  564   2.782  10.861   3.672  0.5418  2.0911  1.7078
  745MOL0     H  565   2.711  11.107   3.526  3.7770 -1.3690  0.1237
  745MOL0     H  566   2.658  11.060   3.693  2.9950  2.8882  0.1952
  745MOL0     H  567   2.492  10.899   3.562  0.1914 -1.4501 -1.0659
  745MOL0     H  568   2.551  10.973   3.417  0.4856  0.7231  0.8820
  745MOL0     H  569   2.389  11.114   3.634 -0.4664 -0.6497 -0.0479
  745MOL0     H  570   2.487  11.199   3.512 -0.9558 -0.1816  0.2367
  745MOL0     H  571   2.150  11.080   3.278 -0.1127 -0.0116 -0.7740
  745MOL0     H  572   2.777  10.792   3.213 -0.4252 -0.5714  0.8999
  745MOL0     H  573   2.849  10.740   3.004 -1.7122  2.3752 -1.7747
  745MOL0     H  574   2.981  10.862   2.964  1.2720 -2.4169 -1.5282
  745MOL0     H  575   3.008  10.687   2.976  0.7951  0.7259  0.0957
  746MOL0     O  576   0.042   0.608   0.503 -0.4699  0.7444  0.3287
  746MOL0     C  577   0.016   0.505   0.565 -0.4398  0.0607 -0.2580
  746MOL0     O  578   0.103   0.404   0.602  0.6375 -0.2134 -0.2261
  746MOL0     C  579   0.238   0.413   0.596  1.0566 -0.5413 -0.0253
  746MOL0     C  580   0.310   0.527   0.559 -0.1602 -0.9028 -0.1560
  746MOL0     C  581   0.448   0.535   0.559 -0.4340 -0.0464  0.2657
  746MOL0     C  582   0.518   0.417   0.588 -0.3671 -0.6793  0.1085
  746MOL0     O  583   0.648   0.406   0.583 -0.2269  0.5041  0.3394
  746MOL0     C  584   0.732   0.513   0.634 -0.2231  0.4005 -0.7138
  746MOL0     C  585   0.857   0.451   0.687 -0.1310 -0.0057 -0.3296
  746MOL0     C  586   0.969   0.561   0.712  0.3678 -0.5275  0.3300
  746MOL0     C  587   1.082   0.502   0.781 -0.2714  0.0650 -0.8168
  746MOL0     C  588   1.207   0.599   0.775 -0.8077  0.2069 -0.8771
  746MOL0     C  589   1.327   0.498   0.790 -0.4407 -0.2066 -0.4042
  746MOL0     C  590   1.464   0.560   0.752 -0.0330 -0.1873  0.2048
  746MOL0     C  591   1.591   0.459   0.762  1.0219  0.9496 -0.9417
  746MOL0     N  592   1.716   0.522   0.815 -0.8303 -0.1833  0.0554
  746MOL0     C  593   1.791   0.614   0.752 -0.3634 -0.0744 -0.1927
  746MOL0     C  594   1.865   0.671   0.846 -0.8373  0.6722 -0.1646
  746MOL0     C  595   1.940   0.791   0.828 -0.1346  0.3992 -0.0662
  746MOL0     C  596   2.039   0.791   0.714  0.6818 -0.6368 -0.4139
  746MOL0     C  597   2.124   0.903   0.725 -1.4618 -0.3300  0.7024
  746MOL0     C  598   2.246   0.899   0.628 -0.1070 -0.7778 -0.7881
  746MOL0     O  599   2.332   0.783   0.634  0.0820 -0.3879 -0.1028
  746MOL0     C  600   2.451   0.778   0.697 -0.4179  0.0058  0.1221
  746MOL0     C  601   2.520   0.656   0.670 -0.7134  0.2188 -0.1119
  746MOL0     C  602   2.647   0.634   0.730 -0.3811  0.1754  0.7971
  746MOL0     C  603   2.711   0.744   0.799 -0.5534  0.4279 -0.0183
  746MOL0     C  604   2.848   0.723   0.847  0.0524 -0.8231 -0.3343
  746MOL0     O  605   2.897   0.822   0.920 -0.2575  0.9678 -0.8220
  746MOL0     C  606   3.027   0.820   0.963  0.1312 -0.3371  0.0864
  746MOL0     C  607   3.096   0.705   1.000 -0.0786  0.1164 -0.5071
  746MOL0     C  608   3.232   0.730   1.039 -0.1282 -0.2953 -0.7342
  746MOL0     C  609   3.284   0.863   1.062 -0.2265  0.0276 -0.3636
  746MOL0     O  610   3.408   0.877   1.118  0.5827  0.1422 -0.0506
  746MOL0     C  611   3.404   0.947   1.242 -1.0945 -0.1977  0.0406
  746MOL0     C  612   3.517   0.889   1.328  0.1226 -0.4950  0.5346
  746MOL0     C  613   3.649   0.957   1.294 -0.0860  0.1760 -0.3747
  746MOL0     C  614   3.756   0.901   1.370 -0.1875  0.1405 -0.3221
  746MOL0     C  615   3.883   0.965   1.327 -0.5758 -0.3616  0.1338
  746MOL0     C  616   3.991   0.914   1.410 -0.3244  0.2415  0.4564
  746MOL0     C  617   4.122   0.969   1.351 -0.5426  1.3060 -0.0471
  746MOL0     C  618   4.235   0.969   1.454  0.9355  0.7898  0.9153
  746MOL0    Cl  619   4.390   1.051   1.400  0.7167  0.1615 -0.4001
  746MOL0     C  620   3.211   0.970   1.020  0.2263  0.1098  0.1901
  746MOL0     C  621   3.089   0.947   0.973 -0.1084  0.5547 -0.2226
  746MOL0     O  622   2.904   0.621   0.816  0.5308 -0.6128 -0.2074
  746MOL0     C  623   2.646   0.864   0.821  0.3054  0.1127  0.2707
  746MOL0     C  624   2.519   0.879   0.766  0.7692  0.0157  0.6728
  746MOL0     N  625   1.839   0.613   0.971  0.3404 -0.1964 -0.6345
  746MOL0     N  626   1.742   0.534   0.950  0.0641 -0.0609  0.1261
  746MOL0     C  627   0.457   0.306   0.617  1.2089  0.0545 -0.4421
  746MOL0     C  628   0.317   0.300   0.620 -0.1396  0.6130  0.4128
  746MOL0     C  629  -0.128   0.491   0.604  0.3016 -0.0889  0.7950
  746MOL0     C  630  -0.215   0.599   0.563  0.6046 -0.4637  0.0656
  746MOL0     C  631  -0.340   0.613   0.616  1.3924  0.1167 -0.8233
  746MOL0     C  632  -0.386   0.531   0.726  0.2445  0.4041 -0.1291
  746MOL0     O  633  -0.519   0.538   0.780  0.1751 -0.4457 -0.3732
  746MOL0     C  634  -0.617   0.619   0.712  0.0738 -0.7465 -0.3401
  746MOL0     C  635  -0.738   0.639   0.805  1.2056  0.3212 -0.2045
  746MOL0     C  636  -0.866   0.669   0.730  0.5038  0.0151 -0.4296
  746MOL0     C  637  -0.981   0.667   0.838  0.2009 -0.3659  0.5706
  746MOL0     C  638  -1.023   0.526   0.871 -0.2294  0.3137  0.1926
  746MOL0     C  639  -1.039   0.414   0.894 -0.0954 -0.1463 -0.0039
  746MOL0     C  640  -0.311   0.417   0.753  0.9216 -0.4768 -0.1643
  746MOL0     C  641  -0.184   0.394   0.698 -0.4436 -0.5689 -0.0863
  746MOL0     C  642  -0.113   0.270   0.735 -0.0688  0.5687 -1.3637
  746MOL0     H  643   0.259   0.622   0.550 -0.8293 -1.3954 -1.7551
  746MOL0     H  644   0.488   0.629   0.520  0.1711 -0.6711 -0.6549
  746MOL0     H  645   0.768   0.585   0.559 -0.2940 -0.9604 -2.0977
  746MOL0     H  646   0.683   0.570   0.713 -0.8277  1.0420 -1.5299
  746MOL0     H  647   0.896   0.385   0.610  0.3612 -0.4239  0.2716
  746MOL0     H  648   0.835   0.392   0.776  1.5769 -0.5991 -0.2592
  746MOL0     H  649   0.936   0.655   0.756 -1.4689 -1.0117  0.0543
  746MOL0     H  650   0.999   0.599   0.614 -1.1324  1.5812  0.6142
  746MOL0     H  651   1.051   0.474   0.882 -1.7420 -1.3861 -1.6317
  746MOL0     H  652   1.107   0.412   0.725  1.8761 -0.4852  0.8783
  746MOL0     H  653   1.201   0.647   0.677 -2.6657 -2.0334 -1.9694
  746MOL0     H  654   1.217   0.683   0.844  2.0036 -2.2940  2.0509
  746MOL0     H  655   1.325   0.452   0.889  0.2303 -2.7382 -1.4888
  746MOL0     H  656   1.318   0.413   0.720  0.3773 -0.7311  0.1114
  746MOL0     H  657   1.490   0.637   0.825  1.2069 -0.1978 -0.2008
  746MOL0     H  658   1.460   0.604   0.652  2.2018  3.8205  1.6624
  746MOL0     H  659   1.578   0.386   0.842  1.2186  3.5768  1.6376
  746MOL0     H  660   1.603   0.407   0.666 -0.2003  0.1908 -0.7016
  746MOL0     H  661   1.783   0.630   0.645 -0.2969 -2.1726 -0.5509
  746MOL0     H  662   1.869   0.874   0.820  0.5052  0.9565 -0.1072
  746MOL0     H  663   1.975   0.813   0.929 -1.4240  2.0391  0.0638
  746MOL0     H  664   2.102   0.701   0.707 -0.3317 -1.3079 -1.1919
  746MOL0     H  665   1.987   0.803   0.619  0.8484  1.1403 -0.3083
  746MOL0     H  666   2.162   0.909   0.827 -0.9269 -0.1184  0.4940
  746MOL0     H  667   2.069   0.998   0.715  0.5550  0.9938  1.6118
  746MOL0     H  668   2.294   0.994   0.653  1.0206 -1.1139 -1.5880
  746MOL0     H  669   2.208   0.906   0.526 -3.5523 -3.6486  0.0883
  746MOL0     H  670   2.477   0.573   0.615 -1.3021  0.5525 -0.1687
  746MOL0     H  671   2.701   0.541   0.717  0.8245  0.6333  2.2656
  746MOL0     H  672   3.071   0.604   0.969  1.6989 -0.6507  0.3755
  746MOL0     H  673   3.287   0.640   1.062 -1.9379 -1.4210 -0.6405
  746MOL0     H  674   3.419   1.054   1.233  1.5764 -0.3258  1.7074
  746MOL0     H  675   3.306   0.932   1.289 -1.9519 -2.4107 -2.2158
  746MOL0     H  676   3.489   0.906   1.432  1.0849  0.6009  0.6295
  746MOL0     H  677   3.517   0.783   1.300  1.5023 -0.3323 -0.1998
  746MOL0     H  678   3.673   0.935   1.190  0.5874  1.9483 -0.6322
  746MOL0     H  679   3.636   1.064   1.311 -2.0184  0.2191 -1.8206
  746MOL0     H  680   3.759   0.793   1.354 -1.1901  0.2531 -1.4746
  746MOL0     H  681   3.735   0.933   1.472  0.8349  2.0696 -0.6719
  746MOL0     H  682   3.875   1.074   1.331 -1.1276 -0.4462  1.7476
  746MOL0     H  683   3.907   0.928   1.226 -2.0480 -3.2556  0.7272
  746MOL0     H  684   3.976   0.962   1.507 -0.8161  1.4180 -0.1770
  746MOL0     H  685   3.991   0.805   1.423  1.1266 -0.0479 -1.6136
  746MOL0     H  686   4.114   1.072   1.314  1.8709  0.8729 -1.9779
  746MOL0     H  687   4.145   0.910   1.262  0.7562 -0.2930  1.2925
  746MOL0     H  688   4.199   1.012   1.549  0.7860  1.4537  0.5633
  746MOL0     H  689   4.258   0.870   1.495  1.2496 -0.6338 -2.4270
  746MOL0     H  690   3.251   1.071   1.016  0.5434  0.1592  2.9995
  746MOL0     H  691   3.043   1.040   0.942  1.1295 -0.2617 -5.4340
  746MOL0     H  692   2.683   0.945   0.883  0.0072 -0.8191  1.7141
  746MOL0     H  693   2.473   0.976   0.781 -0.6671  0.4890 -4.7275
  746MOL0     H  694   0.506   0.212   0.639  1.3748 -0.4501 -2.7913
  746MOL0     H  695   0.262   0.213   0.654  2.5203 -1.5795 -0.5042
  746MOL0     H  696  -0.195   0.670   0.483 -1.2815  1.5999  1.2960
  746MOL0     H  697  -0.408   0.689   0.580  1.3633 -0.5739 -2.2585
  746MOL0     H  698  -0.652   0.570   0.621 -0.0440  1.0803 -1.3415
  746MOL0     H  699  -0.576   0.715   0.678 -1.2472 -0.0111  0.0639
  746MOL0     H  700  -0.708   0.717   0.877  0.2932  1.3584 -0.9159
  746MOL0     H  701  -0.751   0.548   0.864  0.4815  0.5797  0.0480
  746MOL0     H  702  -0.894   0.605   0.646 -0.4795  3.5733 -3.0933
  746MOL0     H  703  -0.859   0.770   0.687 -0.8608  0.0682 -0.5824
  746MOL0     H  704  -0.939   0.715   0.926 -0.7428 -1.0126  1.3890
  746MOL0     H  705  -1.071   0.724   0.815 -0.7747 -1.5768  1.2955
  746MOL0     H  706  -1.055   0.311   0.918 -0.4171  0.2744  1.7611
  746MOL0     H  707  -0.364   0.347   0.816 -2.8471  0.6665 -1.7844
  746MOL0     H  708  -0.178   0.203   0.792  0.4595  1.3854  0.2501
  746MOL0     H  709  -0.072   0.215   0.649  1.1722  2.1578 -1.8306
  746MOL0     H  710  -0.032   0.303   0.801 -2.1827  0.6923  1.3506
  747MOL0     O  711   0.785   7.135   6.322  0.6592  0.4060  0.0404
  747MOL0     C  712   0.750   7.030   6.373 -0.4820  0.1215 -0.4355
  747MOL0     O  713   0.837   6.943   6.427  0.1084  0.1985 -0.4002
  747MOL0     C  714   0.963   6.985   6.459  0.0059 -0.1908 -0.6787
  747MOL0     C  715   1.006   7.115   6.501 -1.0992  0.8805  0.4083
  747MOL0     C  716   1.149   7.128   6.529  0.1906  0.3392 -0.1321
  747MOL0     C  717   1.237   7.018   6.502  0.2072 -1.1855  0.8830
  747MOL0     O  718   1.372   7.021   6.499 -0.1491  0.3626 -0.4574
  747MOL0     C  719   1.429   7.140   6.470  0.4202  0.2267 -1.4501
  747MOL0     C  720   1.574   7.123   6.458 -0.7173 -0.0984  0.1704
  747MOL0     C  721   1.608   7.048   6.321  0.3736 -0.2649 -1.1775
  747MOL0     C  722   1.764   7.054   6.291  0.0234  0.1381  0.2226
  747MOL0     C  723   1.799   6.983   6.161 -0.5006 -0.7998  0.3522
  747MOL0     C  724   1.945   7.022   6.123  0.6432  0.5665 -0.0510
  747MOL0     C  725   1.982   6.969   5.986  0.7656 -0.3101  0.6738
  747MOL0     C  726   2.126   7.005   5.961 -0.2856  0.8974 -0.0732
  747MOL0     N  727   2.170   6.964   5.827 -0.0942 -0.3453  0.7524
  747MOL0     C  728   2.225   7.043   5.731  0.2601  0.1673  0.1215
  747MOL0     C  729   2.286   6.960   5.640  0.2336  0.5104  0.5783
  747MOL0     C  730   2.365   7.003   5.512 -0.5785  0.8172 -0.8147
  747MOL0     C  731   2.493   7.076   5.543 -0.2414 -0.3776 -0.5115
  747MOL0     C  732   2.615   7.041   5.456 -0.5286 -0.1246  0.2147
  747MOL0     C  733   2.707   7.163   5.436  0.1473  0.5896  0.0081
  747MOL0     O  734   2.743   7.243   5.552 -0.3883 -0.4340  0.4507
  747MOL0     C  735   2.869   7.302   5.550 -0.6961 -0.2922 -0.4116
  747MOL0     C  736   2.915   7.358   5.669 -0.5166 -0.5733 -0.7321
  747MOL0     C  737   3.041   7.422   5.683  0.4377  0.3864 -0.4114
  747MOL0     C  738   3.115   7.437   5.570 -1.0690 -0.1440  0.7588
  747MOL0     C  739   3.250   7.504   5.584 -0.1891 -0.2170 -0.5525
  747MOL0     O  740   3.279   7.579   5.695  1.2701  0.5198  0.0015
  747MOL0     C  741   3.398   7.636   5.695  0.1361  0.3784  1.3907
  747MOL0     C  742   3.411   7.772   5.657  0.4608  0.4119  0.7299
  747MOL0     C  743   3.542   7.817   5.652  0.6831 -0.9045 -0.2815
  747MOL0     C  744   3.652   7.739   5.695 -0.4434 -0.3988  0.4344
  747MOL0     O  745   3.773   7.799   5.715 -0.3787 -0.3226  0.7492
  747MOL0     C  746   3.807   7.931   5.687  0.2069 -0.2630 -0.2864
  747MOL0     C  747   3.956   7.951   5.654 -0.0828 -0.2133 -0.0792
  747MOL0     C  748   4.041   7.942   5.774  0.6374 -0.4674  1.0100
  747MOL0     C  749   4.181   7.994   5.738 -0.1190  0.6003 -0.1864
  747MOL0     C  750   4.276   7.980   5.852  0.4574  0.7981 -0.1512
  747MOL0     C  751   4.290   7.842   5.917 -0.5750  0.4002 -0.1133
  747MOL0     C  752   4.398   7.838   6.033  0.2898 -0.3947 -0.2080
  747MOL0     C  753   4.518   7.925   6.019  0.1499 -0.2482 -0.6756
  747MOL0    Cl  754   4.622   7.923   6.175  0.1972 -0.1061  0.0443
  747MOL0     C  755   3.633   7.602   5.711 -0.2284 -0.6506  0.4453
  747MOL0     C  756   3.504   7.549   5.717  0.3058  0.2426  0.2267
  747MOL0     O  757   3.328   7.488   5.491 -0.5484 -0.0509 -0.1044
  747MOL0     C  758   3.062   7.402   5.449 -0.3093 -0.7798  1.0965
  747MOL0     C  759   2.949   7.321   5.435  0.3122  0.0226  0.4706
  747MOL0     N  760   2.277   6.835   5.688 -0.8126  1.4293  0.4745
  747MOL0     N  761   2.208   6.837   5.797  0.1201  0.2078  0.5430
  747MOL0     C  762   1.190   6.891   6.463 -0.3797 -0.7043 -0.8034
  747MOL0     C  763   1.051   6.879   6.445 -1.0237 -0.5080 -0.2699
  747MOL0     C  764   0.612   6.986   6.355  0.7537 -0.5916 -0.6803
  747MOL0     C  765   0.552   6.897   6.443  0.6496  0.5109 -0.0159
  747MOL0     C  766   0.430   6.840   6.425 -0.0745 -0.1167  0.1488
  747MOL0     C  767   0.351   6.877   6.316  0.5756 -0.6472  0.0501
  747MOL0     O  768   0.232   6.824   6.275  0.5545 -0.0803 -0.4403
  747MOL0     C  769   0.189   6.698   6.331  0.1739  0.0915 -0.5345
  747MOL0     C  770   0.120   6.614   6.231  1.3445 -0.4312  0.2750
  747MOL0     C  771   0.049   6.500   6.304 -0.0911  0.1432 -0.3323
  747MOL0     C  772  -0.079   6.453   6.217 -0.1811  0.3868 -0.5050
  747MOL0     C  773  -0.200   6.525   6.247  0.5586 -0.3988  0.1808
  747MOL0     C  774  -0.291   6.588   6.288 -0.1893 -0.0437 -0.1462
  747MOL0     C  775   0.404   6.974   6.232 -0.0845 -0.0457 -0.4352
  747MOL0     C  776   0.529   7.038   6.253  0.4162  0.5034  0.4864
  747MOL0     C  777   0.564   7.143   6.151  0.0057  0.2921 -0.4745
  747MOL0     H  778   0.940   7.200   6.514 -2.4560 -0.0636 -0.0709
  747MOL0     H  779   1.186   7.218   6.577  3.6565  0.5570 -2.8255
  747MOL0     H  780   1.387   7.181   6.378  1.0194  0.6281 -1.5522
  747MOL0     H  781   1.404   7.211   6.550  2.2319 -0.0074 -0.6161
  747MOL0     H  782   1.616   7.066   6.541  1.3526  1.9722  0.6472
  747MOL0     H  783   1.623   7.220   6.472  1.6607 -1.5300  2.6316
  747MOL0     H  784   1.557   7.096   6.236  0.0224  0.2446 -0.6831
  747MOL0     H  785   1.561   6.949   6.321  0.3550 -0.2860  1.0058
  747MOL0     H  786   1.799   7.158   6.289  0.3554  0.2056  3.5495
  747MOL0     H  787   1.822   7.006   6.371  0.1503  0.6231  0.4253
  747MOL0     H  788   1.794   6.873   6.162 -1.4435 -0.8576 -2.4011
  747MOL0     H  789   1.736   7.014   6.077 -1.8262 -0.4827  1.4286
  747MOL0     H  790   1.962   7.130   6.126  0.7897  0.6270 -2.0043
  747MOL0     H  791   2.002   6.970   6.201  1.0817  1.2436  0.0913
  747MOL0     H  792   1.916   7.028   5.921 -0.3437 -0.9754  1.1657
  747MOL0     H  793   1.967   6.864   5.961 -2.2239  0.5278 -1.6751
  747MOL0     H  794   2.159   7.107   5.983  3.1444 -0.0191 -0.3578
  747MOL0     H  795   2.178   6.952   6.041 -0.6012  2.1594  1.0005
  747MOL0     H  796   2.236   7.151   5.725  0.8932  0.1136  0.2014
  747MOL0     H  797   2.382   6.918   5.446 -0.0975  0.2311  0.0543
  747MOL0     H  798   2.302   7.075   5.458 -4.1057 -2.0431 -0.9034
  747MOL0     H  799   2.481   7.183   5.522 -0.3733 -0.7484 -2.5346
  747MOL0     H  800   2.524   7.067   5.648 -0.8748  0.7098 -0.2126
  747MOL0     H  801   2.571   7.028   5.357 -0.0866  3.4335 -0.6171
  747MOL0     H  802   2.670   6.956   5.497 -1.8503 -1.0679  0.0852
  747MOL0     H  803   2.667   7.242   5.373  0.4932  0.6241 -0.1740
  747MOL0     H  804   2.791   7.112   5.387 -0.6093 -0.3977 -0.2967
  747MOL0     H  805   2.848   7.348   5.754  1.1807 -2.3171  0.4779
  747MOL0     H  806   3.075   7.479   5.768  2.8924  0.6323 -1.4818
  747MOL0     H  807   3.328   7.839   5.636  1.9645  2.1743  0.2044
  747MOL0     H  808   3.561   7.919   5.621 -0.3031 -0.9819 -1.2092
  747MOL0     H  809   3.757   7.972   5.599  0.6899  2.6312  0.6735
  747MOL0     H  810   3.785   7.993   5.775  2.5209  0.8353 -0.3939
  747MOL0     H  811   4.010   7.881   5.591  4.2107  1.9384  0.8203
  747MOL0     H  812   3.963   8.049   5.606  0.0749 -0.8634 -1.3991
  747MOL0     H  813   3.997   8.005   5.852 -0.6108 -0.3498  0.2302
  747MOL0     H  814   4.032   7.840   5.810  2.3766 -1.5044 -1.2142
  747MOL0     H  815   4.171   8.095   5.697 -2.0582 -0.3673 -2.2693
  747MOL0     H  816   4.223   7.931   5.659 -1.4318 -1.9695  1.0289
  747MOL0     H  817   4.249   8.052   5.930 -1.9441  1.5120 -1.5625
  747MOL0     H  818   4.376   8.006   5.814  1.8255  1.0580  3.2285
  747MOL0     H  819   4.192   7.820   5.961  0.2779  0.0157  1.6415
  747MOL0     H  820   4.319   7.774   5.836  2.1977  0.5111  0.6824
  747MOL0     H  821   4.436   7.736   6.027  2.2160  0.3377 -1.0373
  747MOL0     H  822   4.353   7.857   6.131 -2.4830 -0.8507 -1.2998
  747MOL0     H  823   4.581   7.873   5.947  2.4163 -0.9718  1.6920
  747MOL0     H  824   4.507   8.030   5.989  0.6528  0.6677  2.0494
  747MOL0     H  825   3.724   7.545   5.728 -0.6967 -1.2039  1.1550
  747MOL0     H  826   3.495   7.441   5.721  0.7252  0.1454 -0.8709
  747MOL0     H  827   3.107   7.430   5.354 -3.8156 -3.2896 -1.5832
  747MOL0     H  828   2.911   7.300   5.336 -0.6568  2.2938  0.3159
  747MOL0     H  829   1.257   6.809   6.436 -1.8670 -2.2954  0.1194
  747MOL0     H  830   1.009   6.785   6.409 -1.2335  0.3638 -2.4941
  747MOL0     H  831   0.622   6.863   6.519 -1.1773 -1.3598  0.9099
  747MOL0     H  832   0.399   6.771   6.504  0.4038 -0.3527  0.1361
  747MOL0     H  833   0.128   6.719   6.420  1.5534 -2.2143  1.0754
  747MOL0     H  834   0.280   6.647   6.364  0.4374  0.8500 -0.0484
  747MOL0     H  835   0.185   6.578   6.151  2.5230  1.1459  0.4688
  747MOL0     H  836   0.048   6.686   6.192  1.7338 -0.7858 -1.1461
  747MOL0     H  837   0.014   6.527   6.404 -1.0953  1.1430 -0.9414
  747MOL0     H  838   0.124   6.420   6.301  1.8880  1.8968 -3.6037
  747MOL0     H  839  -0.051   6.475   6.114  4.1274  1.6137  0.6960
  747MOL0     H  840  -0.094   6.345   6.225  1.4437 -0.1314 -3.3423
  747MOL0     H  841  -0.350   6.672   6.320 -1.0347 -1.2517  1.6845
  747MOL0     H  842   0.334   7.003   6.154 -2.3870  0.3276  1.6400
  747MOL0     H  843   0.647   7.115   6.086  2.5272  2.3656  1.6214
  747MOL0     H  844   0.472   7.168   6.098 -0.8951  3.9831  2.4077
  747MOL0     H  845   0.596   7.236   6.200 -0.0127  1.3080 -2.3188
  748MOL0     O  846   9.229  10.823   7.171  0.5948  0.3294  0.3178
  748MOL0     C  847   9.209  10.811   7.051 -0.6040  0.1044 -0.6946
  748MOL0     O  848   9.301  10.765   6.963 -0.1563 -0.1823 -0.0607
  748MOL0     C  849   9.432  10.757   6.999 -0.2322 -0.5387  0.0472
  748MOL0     C  850   9.512  10.649   6.955  0.8520  0.6355 -0.5708
  748MOL0     C  851   9.641  10.631   7.008  0.1881  0.0895 -0.0359
  748MOL0     C  852   9.705  10.724   7.091 -0.6701  0.1618  0.7631
  748MOL0     O  853   9.835  10.702   7.119 -0.7410  0.1799  0.2658
  748MOL0     C  854   9.946  10.762   7.042 -1.0818 -0.5056  0.2016
  748MOL0     C  855   9.967  10.910   7.085  0.4148  0.5794  1.2294
  748MOL0     C  856  10.101  10.962   7.046  0.2251 -0.6866  0.0864
  748MOL0     C  857  10.137  11.097   7.109  0.6930 -0.2663 -0.7747
  748MOL0     C  858  10.274  11.146   7.054  0.1169  0.0161  0.1128
  748MOL0     C  859  10.382  11.045   7.086  0.0849  0.3253 -0.1733
  748MOL0     C  860  10.529  11.112   7.074  1.1042 -0.3025  0.6931
  748MOL0     C  861  10.632  11.021   7.139  0.5380 -0.2081  0.8145
  748MOL0     N  862  10.762  11.051   7.101  0.2260 -0.3011  0.4215
  748MOL0     C  863  10.829  11.169   7.126  0.5833 -0.2393 -0.0274
  748MOL0     C  864  10.952  11.162   7.073 -0.0088  0.3242  0.7052
  748MOL0     C  865  11.062  11.270   7.070 -0.6445  0.9691  0.2366
  748MOL0     C  866  11.058  11.373   6.952  0.0034 -0.1584 -0.6700
  748MOL0     C  867  11.195  11.455   6.964 -0.1744 -0.4434 -0.3593
  748MOL0     C  868  11.227  11.544   6.842 -0.2674 -0.4814 -0.6228
  748MOL0     O  869  11.236  11.685   6.857 -1.2727 -0.0740 -1.0630
  748MOL0     C  870  11.342  11.740   6.921  0.1076  0.3915 -0.7290
  748MOL0     C  871  11.438  11.673   6.991  0.5529  0.4059  0.3934
  748MOL0     C  872  11.523  11.746   7.065 -0.2140 -1.0407  0.1516
  748MOL0     C  873  11.529  11.885   7.075  0.6864 -0.0885  0.4172
  748MOL0     C  874  11.622  11.962   7.161  0.5027 -0.2005  0.1511
  748MOL0     O  875  11.608  12.095   7.163 -0.1789 -0.8588 -0.8040
  748MOL0     C  876  11.683  12.164   7.251 -0.2396  0.3117  1.2388
  748MOL0     C  877  11.807  12.207   7.210 -0.4626  0.0748  0.0839
  748MOL0     C  878  11.884  12.264   7.312  0.5062  0.4383  0.2362
  748MOL0     C  879  11.842  12.290   7.440  0.3828  0.0239 -0.4450
  748MOL0     O  880  11.911  12.346   7.540 -0.3078 -0.7991 -0.0092
  748MOL0     C  881  12.049  12.369   7.534  0.2593 -0.2697  0.6133
  748MOL0     C  882  12.097  12.295   7.659  0.5526 -0.5818 -0.0332
  748MOL0     C  883  12.252  12.310   7.677 -0.3814 -0.4333  0.6647
  748MOL0     C  884  12.290  12.249   7.812 -0.4357  0.2088 -0.4985
  748MOL0     C  885  12.433  12.222   7.812  0.1534 -0.2165 -0.4821
  748MOL0     C  886  12.513  12.350   7.863 -1.5181 -1.2141  0.7356
  748MOL0     C  887  12.660  12.324   7.902 -0.4489 -0.0874  1.2877
  748MOL0     C  888  12.732  12.434   7.980  0.4127  0.5199 -0.5615
  748MOL0    Cl  889  12.741  12.580   7.870 -0.1590 -0.4439 -0.1554
  748MOL0     C  890  11.712  12.251   7.481  0.4273  0.2561 -0.4313
  748MOL0     C  891  11.634  12.185   7.381  0.0154 -0.4950 -0.3293
  748MOL0     O  892  11.697  11.892   7.225 -0.3697 -0.3600 -0.0438
  748MOL0     C  893  11.430  11.948   6.998 -0.1734  0.8246  0.4291
  748MOL0     C  894  11.338  11.879   6.924 -0.3741 -0.3384  0.3613
  748MOL0     N  895  10.959  11.035   7.009 -0.0073  0.5188 -1.1879
  748MOL0     N  896  10.839  10.972   7.027  0.5448  0.6450 -0.1173
  748MOL0     C  897   9.626  10.835   7.135 -0.4465 -0.1871 -0.1859
  748MOL0     C  898   9.493  10.847   7.085  0.5582 -0.0708  0.5477
  748MOL0     C  899   9.065  10.828   7.008  0.1245 -0.5925  1.4768
  748MOL0     C  900   9.050  10.772   6.879  0.8013  0.3131 -0.0711
  748MOL0     C  901   8.925  10.774   6.814  0.3338 -0.8499 -0.9359
  748MOL0     C  902   8.808  10.823   6.885  0.4016 -0.0228  0.8837
  748MOL0     O  903   8.692  10.804   6.812 -0.2273  0.1143 -0.4402
  748MOL0     C  904   8.567  10.847   6.870  0.0807  0.1989  0.2340
  748MOL0     C  905   8.457  10.827   6.779 -0.7917 -0.7083  0.6865
  748MOL0     C  906   8.329  10.903   6.819  1.1995  0.1409 -0.5022
  748MOL0     C  907   8.201  10.877   6.739 -1.1534 -1.0766 -0.6592
  748MOL0     C  908   8.076  10.929   6.803 -0.6685 -0.2685  0.0866
  748MOL0     C  909   7.978  10.957   6.872  0.4940 -0.1434 -0.2082
  748MOL0     C  910   8.819  10.879   7.012 -0.4155 -0.3382  0.5211
  748MOL0     C  911   8.949  10.879   7.071 -0.8111 -0.5307 -0.2758
  748MOL0     C  912   8.975  10.931   7.201 -0.1821  0.2639  0.4094
  748MOL0     H  913   9.484  10.572   6.884  1.6928 -2.6629  2.3915
  748MOL0     H  914   9.701  10.551   6.965 -1.0335 -0.5390 -0.6160
  748MOL0     H  915  10.035  10.702   7.066 -0.8925  0.5127  2.2668
  748MOL0     H  916   9.923  10.744   6.937 -1.7430  0.0049  0.2590
  748MOL0     H  917   9.970  10.920   7.194 -0.0214  0.2457  1.2749
  748MOL0     H  918   9.882  10.967   7.048  0.0275 -0.9981 -0.4505
  748MOL0     H  919  10.112  10.969   6.938  0.2176  1.7008  0.1824
  748MOL0     H  920  10.167  10.882   7.079  1.5528  0.3660  0.0740
  748MOL0     H  921  10.057  11.165   7.076  0.9970  1.4833  1.8266
  748MOL0     H  922  10.132  11.083   7.217 -4.2806 -0.8600 -0.8299
  748MOL0     H  923  10.279  11.152   6.944 -2.0665 -1.5324 -0.1371
  748MOL0     H  924  10.294  11.246   7.094 -0.7847  0.2106  0.0939
  748MOL0     H  925  10.381  10.999   7.185 -2.9647 -0.8173 -0.6197
  748MOL0     H  926  10.377  10.976   7.001  1.6875 -1.2572  0.9353
  748MOL0     H  927  10.528  11.215   7.111 -0.4886  0.1737 -0.5567
  748MOL0     H  928  10.554  11.118   6.967 -1.3775 -1.9463 -0.0776
  748MOL0     H  929  10.625  11.036   7.247 -1.3954  0.2107  0.6664
  748MOL0     H  930  10.610  10.917   7.111 -0.4462  0.5847 -1.5806
  748MOL0     H  931  10.787  11.249   7.185 -0.5419 -2.6285  2.6518
  748MOL0     H  932  11.057  11.319   7.168  2.7842  1.3028  0.3435
  748MOL0     H  933  11.161  11.225   7.061  0.3205  2.2496  3.2089
  748MOL0     H  934  11.045  11.326   6.854 -1.5891 -0.1314 -0.4891
  748MOL0     H  935  10.977  11.443   6.974  0.0383 -0.7416  1.5469
  748MOL0     H  936  11.283  11.390   6.972  0.5032  0.1200 -2.6236
  748MOL0     H  937  11.187  11.512   7.057  1.8925  1.7431 -1.4063
  748MOL0     H  938  11.139  11.526   6.780  0.1626 -0.8733 -1.1421
  748MOL0     H  939  11.310  11.508   6.780 -1.4487  0.2847 -2.7526
  748MOL0     H  940  11.443  11.565   6.981  0.9030  0.4432  0.1803
  748MOL0     H  941  11.602  11.684   7.108  0.4445 -1.9096 -2.1581
  748MOL0     H  942  11.842  12.201   7.107  1.1924  0.0627  0.6275
  748MOL0     H  943  11.979  12.291   7.267 -0.8625 -2.1204 -5.0603
  748MOL0     H  944  12.089  12.328   7.440  0.3698  2.6740 -0.7476
  748MOL0     H  945  12.072  12.476   7.541 -1.1670  0.0502  0.6774
  748MOL0     H  946  12.047  12.334   7.747  2.1754 -0.0821  0.7097
  748MOL0     H  947  12.086  12.188   7.638  2.7533 -0.9085  0.2018
  748MOL0     H  948  12.297  12.259   7.592 -2.5561  0.1973 -0.9625
  748MOL0     H  949  12.278  12.416   7.663 -0.0851 -0.7311 -1.3898
  748MOL0     H  950  12.230  12.159   7.830  2.1451 -2.3738 -3.6767
  748MOL0     H  951  12.259  12.315   7.894  1.4842  0.5266  0.0226
  748MOL0     H  952  12.461  12.172   7.719 -1.6359 -4.6157  1.0771
  748MOL0     H  953  12.451  12.152   7.895  0.6633  1.1400  0.5912
  748MOL0     H  954  12.527  12.414   7.775  2.5180 -0.5790  1.6376
  748MOL0     H  955  12.461  12.386   7.951 -0.0269 -1.3119  1.6998
  748MOL0     H  956  12.710  12.308   7.806 -0.9397 -1.1529  1.1854
  748MOL0     H  957  12.667  12.233   7.962 -2.1432  0.5288  2.5022
  748MOL0     H  958  12.680  12.458   8.073  0.2798 -1.9344  0.0705
  748MOL0     H  959  12.831  12.408   8.020  0.7028 -2.5765 -2.9202
  748MOL0     H  960  11.672  12.265   7.580  0.8306  0.7874 -0.3357
  748MOL0     H  961  11.538  12.153   7.418  0.2965  1.2955  2.2732
  748MOL0     H  962  11.422  12.056   6.989  3.7730  1.1560 -0.9537
  748MOL0     H  963  11.260  11.942   6.882  0.2827  1.1781  1.3192
  748MOL0     H  964   9.674  10.898   7.209  1.2811 -2.9016  1.1641
  748MOL0     H  965   9.444  10.941   7.109  1.2259  0.4189  0.0147
  748MOL0     H  966   9.136  10.726   6.829  2.0769  2.2743  0.2134
  748MOL0     H  967   8.912  10.728   6.717 -4.1846 -1.7300 -0.1686
  748MOL0     H  968   8.576  10.955   6.890 -2.2596  0.6479 -0.8584
  748MOL0     H  969   8.553  10.785   6.958 -0.7269  0.9676  0.6659
  748MOL0     H  970   8.436  10.721   6.759 -2.2047 -0.4491  0.6400
  748MOL0     H  971   8.484  10.872   6.684 -0.2103  2.3653  2.2046
  748MOL0     H  972   8.343  11.011   6.828 -0.9171  1.1968 -6.0829
  748MOL0     H  973   8.299  10.867   6.918 -4.6048  2.6391 -0.9431
  748MOL0     H  974   8.214  10.916   6.638 -1.4829 -2.5977 -1.3228
  748MOL0     H  975   8.197  10.770   6.719 -2.3137 -0.8440 -1.8205
  748MOL0     H  976   7.892  10.988   6.928 -0.2615 -0.9448 -0.9034
  748MOL0     H  977   8.727  10.904   7.064 -1.6941 -2.1914 -0.7663
  748MOL0     H  978   8.899  11.005   7.228 -1.7393 -0.7340 -1.0672
  748MOL0     H  979   8.981  10.849   7.273  5.1379 -1.0383 -1.1103
  748MOL0     H  980   9.066  10.992   7.202 -0.3559  0.5409  1.6073
  749MOL0     O  981   5.952   8.196   8.331 -0.1740 -0.4429  0.4774
  749MOL0     C  982   5.846   8.146   8.374 -1.1298 -0.2970 -0.0119
  749MOL0     O  983   5.834   8.107   8.501  0.4727 -0.5743 -0.1658
  749MOL0     C  984   5.947   8.079   8.566  0.5059  0.0373 -0.0161
  749MOL0     C  985   5.982   7.946   8.565 -0.0966  0.0875  0.5428
  749MOL0     C  986   6.076   7.901   8.653 -0.4907  0.8116  0.5323
  749MOL0     C  987   6.136   7.989   8.752 -0.1458  0.5015  1.5023
  749MOL0     O  988   6.229   7.930   8.827  0.0521 -0.0146  0.5833
  749MOL0     C  989   6.324   8.011   8.886 -0.8997  0.7309 -0.1664
  749MOL0     C  990   6.408   7.934   8.980  0.6952 -0.1402  0.4032
  749MOL0     C  991   6.525   8.024   9.043 -0.1066  0.0311  0.5145
  749MOL0     C  992   6.459   8.154   9.089  0.0705  0.2804  0.3352
  749MOL0     C  993   6.558   8.236   9.176  0.2494 -0.6480  0.1408
  749MOL0     C  994   6.485   8.368   9.214  0.1770 -0.2628 -0.3602
  749MOL0     C  995   6.576   8.456   9.311  0.1371  0.1759  0.3634
  749MOL0     C  996   6.494   8.577   9.349  0.4706 -0.3658 -0.5352
  749MOL0     N  997   6.462   8.683   9.260 -0.0136 -0.4109  1.2655
  749MOL0     C  998   6.376   8.791   9.292 -0.1885 -0.4057  0.3604
  749MOL0     C  999   6.370   8.872   9.182 -0.0930 -0.2477 -0.5804
  749MOL0     C 1000   6.296   9.002   9.153 -0.4862 -0.2379 -0.1122
  749MOL0     C 1001   6.144   8.985   9.124 -0.4797 -0.6199  0.3171
  749MOL0     C 1002   6.073   9.113   9.071 -0.4709 -1.1641 -0.5486
  749MOL0     C 1003   5.931   9.068   9.032 -0.6446 -0.3477 -0.7468
  749MOL0     O 1004   5.945   8.983   8.912 -0.6846  0.7529 -0.4996
  749MOL0     C 1005   5.850   8.973   8.813  0.3913  0.5485  0.8247
  749MOL0     C 1006   5.714   9.008   8.842  0.5411  0.0887  0.1037
  749MOL0     C 1007   5.623   8.981   8.743 -1.0526 -0.9216 -0.0770
  749MOL0     C 1008   5.651   8.905   8.624  0.2745  0.7940  0.1053
  749MOL0     C 1009   5.543   8.884   8.535  0.6038 -0.4657 -0.0254
  749MOL0     O 1010   5.419   8.906   8.576 -0.4799 -0.6380 -0.7067
  749MOL0     C 1011   5.321   8.871   8.490 -0.0006 -0.1405  0.1538
  749MOL0     C 1012   5.260   8.754   8.506 -0.5383  0.0995  0.0090
  749MOL0     C 1013   5.172   8.704   8.410 -0.1220 -0.1651  0.4059
  749MOL0     C 1014   5.136   8.792   8.306  0.4034 -0.3920  0.4321
  749MOL0     O 1015   5.039   8.762   8.219  0.7804 -0.2363  0.5262
  749MOL0     C 1016   4.920   8.721   8.286 -0.5632  1.3851 -0.3111
  749MOL0     C 1017   4.809   8.803   8.218 -0.1795 -0.3846 -0.6513
  749MOL0     C 1018   4.680   8.804   8.292  0.6199 -0.3946 -0.2177
  749MOL0     C 1019   4.577   8.906   8.242  0.0497  0.2617  0.8840
  749MOL0     C 1020   4.550   8.905   8.093  0.4351 -0.0783 -0.1972
  749MOL0     C 1021   4.493   8.774   8.031 -0.5863  0.4475 -0.4631
  749MOL0     C 1022   4.349   8.739   8.089 -0.1491  0.6099 -0.1992
  749MOL0     C 1023   4.301   8.589   8.060 -0.6797  0.9346  0.4139
  749MOL0    Cl 1024   4.132   8.568   8.127 -0.1805 -0.2442  0.2477
  749MOL0     C 1025   5.200   8.912   8.289 -0.3382  1.0037  0.6347
  749MOL0     C 1026   5.301   8.955   8.381  0.1844  0.2475  0.0719
  749MOL0     O 1027   5.578   8.823   8.435 -0.0623  0.3283  0.8211
  749MOL0     C 1028   5.789   8.877   8.602  1.0167  0.0401 -0.1475
  749MOL0     C 1029   5.882   8.907   8.690 -0.8398  0.9000 -0.2773
  749MOL0     N 1030   6.449   8.814   9.090  0.5407 -0.3416 -0.3476
  749MOL0     N 1031   6.494   8.700   9.132  0.4320 -0.6714  0.5473
  749MOL0     C 1032   6.099   8.127   8.746  0.4561  0.3837 -0.0831
  749MOL0     C 1033   5.999   8.167   8.655  0.3357  0.3833  0.0170
  749MOL0     C 1034   5.726   8.140   8.283  0.4894  0.7457  0.5231
  749MOL0     C 1035   5.626   8.040   8.315 -0.5524  0.3862  0.9297
  749MOL0     C 1036   5.513   8.029   8.235  0.3530 -0.0540 -0.5897
  749MOL0     C 1037   5.508   8.092   8.109  0.3629 -0.1875 -0.1815
  749MOL0     O 1038   5.425   8.067   7.999 -0.1036 -0.2031  0.2043
  749MOL0     C 1039   5.311   8.000   8.038  0.2364 -0.3892  0.0166
  749MOL0     C 1040   5.206   8.012   7.930 -0.5141  0.0405  0.5732
  749MOL0     C 1041   5.085   7.948   7.994  0.1198 -0.4448  0.1303
  749MOL0     C 1042   4.958   7.939   7.904 -0.1345  0.2231 -0.0418
  749MOL0     C 1043   4.935   8.055   7.821  0.2415 -0.9490  0.6420
  749MOL0     C 1044   4.929   8.149   7.742  0.5003  0.3344  0.0211
  749MOL0     C 1045   5.602   8.189   8.086  0.2307  0.0358  0.1328
  749MOL0     C 1046   5.711   8.210   8.164 -0.6128  0.1121  0.7691
  749MOL0     C 1047   5.805   8.316   8.126  0.6273  0.2543 -0.5583
  749MOL0     H 1048   5.926   7.896   8.486  1.0379  0.2704 -0.4064
  749MOL0     H 1049   6.117   7.801   8.654 -3.8760 -0.7433 -0.2579
  749MOL0     H 1050   6.389   8.054   8.810  0.9724 -0.9737  0.3895
  749MOL0     H 1051   6.257   8.078   8.941  0.7208  1.0340  1.5265
  749MOL0     H 1052   6.457   7.852   8.928 -0.6302 -0.6875 -0.0170
  749MOL0     H 1053   6.335   7.895   9.051 -1.6707  0.6201 -1.4644
  749MOL0     H 1054   6.584   8.041   8.953 -0.3338  1.1068  0.5613
  749MOL0     H 1055   6.576   7.984   9.131 -0.6400  1.0568  1.3078
  749MOL0     H 1056   6.431   8.220   9.007  1.4541  0.3757 -0.0925
  749MOL0     H 1057   6.365   8.137   9.141 -0.0529 -0.7001 -0.1907
  749MOL0     H 1058   6.585   8.174   9.262  0.4775 -0.0669  0.4957
  749MOL0     H 1059   6.651   8.253   9.121  0.8924 -1.2314  1.0268
  749MOL0     H 1060   6.470   8.419   9.118  3.3492 -0.0538 -0.8572
  749MOL0     H 1061   6.390   8.347   9.264  0.1172  2.2945  0.7027
  749MOL0     H 1062   6.664   8.487   9.254 -0.2943  3.6012  1.3477
  749MOL0     H 1063   6.615   8.400   9.397  1.0762 -0.3332 -0.3727
  749MOL0     H 1064   6.401   8.543   9.397  0.7173 -1.0912 -0.5561
  749MOL0     H 1065   6.549   8.620   9.433 -1.2589  1.0198 -0.0351
  749MOL0     H 1066   6.335   8.814   9.390  0.2195 -2.8983  1.2012
  749MOL0     H 1067   6.297   9.056   9.248 -0.9474  0.9852 -0.7816
  749MOL0     H 1068   6.352   9.056   9.076  0.4862 -1.8484 -0.5845
  749MOL0     H 1069   6.127   8.897   9.060 -1.5622  1.0956 -1.8721
  749MOL0     H 1070   6.098   8.965   9.221  1.4980  1.6676  1.8503
  749MOL0     H 1071   6.111   9.148   8.974 -0.1199 -0.4366 -0.1556
  749MOL0     H 1072   6.067   9.198   9.140 -1.5189 -0.9947 -0.8226
  749MOL0     H 1073   5.872   9.157   9.006  0.7665  0.6178 -0.7611
  749MOL0     H 1074   5.883   9.014   9.113 -0.5379  1.5508  0.6565
  749MOL0     H 1075   5.679   9.059   8.931  0.0153 -1.1711  0.6373
  749MOL0     H 1076   5.532   9.036   8.763 -0.5258 -0.8946  2.5680
  749MOL0     H 1077   5.283   8.689   8.590 -2.8988 -2.1126 -0.9351
  749MOL0     H 1078   5.131   8.604   8.418  0.0617 -0.1842  1.2018
  749MOL0     H 1079   4.901   8.618   8.252 -0.4463  1.4561 -0.5958
  749MOL0     H 1080   4.931   8.731   8.394  2.7093  0.2751 -0.4070
  749MOL0     H 1081   4.841   8.907   8.218 -1.6778  0.1097  0.6803
  749MOL0     H 1082   4.791   8.772   8.114  3.6234  1.6386 -2.1170
  749MOL0     H 1083   4.633   8.705   8.285 -0.3210 -0.2912  3.1352
  749MOL0     H 1084   4.701   8.827   8.397 -1.9249  0.1196  0.2363
  749MOL0     H 1085   4.610   9.009   8.263  2.5832 -0.1688 -0.4790
  749MOL0     H 1086   4.489   8.892   8.304 -0.7078  0.5697 -0.0977
  749MOL0     H 1087   4.651   8.923   8.054 -0.1872  0.6356 -1.5748
  749MOL0     H 1088   4.497   8.997   8.066  0.0295 -0.8740 -2.3870
  749MOL0     H 1089   4.502   8.777   7.922  2.2038 -2.4576 -0.4833
  749MOL0     H 1090   4.559   8.690   8.057 -2.7450 -1.3959 -0.6139
  749MOL0     H 1091   4.274   8.816   8.068 -2.3918  0.3178  5.0291
  749MOL0     H 1092   4.340   8.749   8.198 -0.6535 -0.4934 -0.1255
  749MOL0     H 1093   4.306   8.563   7.954 -1.8959 -1.0574  0.7897
  749MOL0     H 1094   4.374   8.521   8.106 -0.1075  0.3593 -1.2420
  749MOL0     H 1095   5.178   8.974   8.202 -0.1749  0.1410 -0.0374
  749MOL0     H 1096   5.353   9.050   8.378  1.5294 -0.2540  3.2169
  749MOL0     H 1097   5.812   8.824   8.509 -0.7191 -1.1905  0.0629
  749MOL0     H 1098   5.986   8.881   8.671 -0.1010  1.6431  2.3866
  749MOL0     H 1099   6.135   8.198   8.820  1.1313 -0.3628  0.3138
  749MOL0     H 1100   5.974   8.272   8.664  0.9786  0.8122 -2.4531
  749MOL0     H 1101   5.642   7.982   8.405  1.0859  2.4608  2.0902
  749MOL0     H 1102   5.443   7.947   8.247 -0.2194  0.3991 -0.7483
  749MOL0     H 1103   5.268   8.020   8.137 -2.0731 -3.4320 -0.2128
  749MOL0     H 1104   5.325   7.891   8.038  0.3925 -0.4465 -3.0756
  749MOL0     H 1105   5.242   7.955   7.843  0.8895 -0.5989  1.5481
  749MOL0     H 1106   5.191   8.119   7.910 -2.6168 -0.6796 -2.5652
  749MOL0     H 1107   5.046   7.999   8.083  0.2993  2.5225 -1.3768
  749MOL0     H 1108   5.115   7.846   8.020  0.7681 -0.2309  0.2440
  749MOL0     H 1109   4.965   7.850   7.842 -0.6658  0.8488 -1.0429
  749MOL0     H 1110   4.869   7.928   7.967 -0.6843  1.2436 -0.5964
  749MOL0     H 1111   4.923   8.232   7.675 -3.3112  1.2869  1.3190
  749MOL0     H 1112   5.581   8.254   8.001  1.5762  0.0474 -0.2171
  749MOL0     H 1113   5.896   8.271   8.086 -1.4826 -2.6877 -2.3564
  749MOL0     H 1114   5.754   8.381   8.053  2.0095 -0.4004 -2.1597
  749MOL0     H 1115   5.821   8.376   8.217  1.5097 -2.2740  1.0733
  750MOL0     O 1116   5.035   3.717   1.981  0.0239  0.1761 -0.2885
  750MOL0     C 1117   4.935   3.696   2.051  0.3411 -0.9692 -0.4953
  750MOL0     O 1118   4.898   3.572   2.097 -0.6210 -0.3952  0.5476
  750MOL0     C 1119   4.971   3.463   2.080  0.4568  1.0289  0.2892
  750MOL0     C 1120   5.095   3.462   2.143  0.2558 -0.3011 -0.7990
  750MOL0     C 1121   5.173   3.349   2.118  0.2415  0.1109 -0.8651
  750MOL0     C 1122   5.130   3.231   2.055 -0.8584 -0.9347  0.3114
  750MOL0     O 1123   5.224   3.134   2.043 -0.2163  0.2165 -0.7964
  750MOL0     C 1124   5.217   3.056   1.925 -0.1379 -0.0769  0.7018
  750MOL0     C 1125   5.309   2.940   1.945 -0.3650 -0.3512  0.1592
  750MOL0     C 1126   5.468   2.963   1.951  0.6755 -1.4159  0.4694
  750MOL0     C 1127   5.540   2.830   1.948  0.2839  0.6918 -0.2790
  750MOL0     C 1128   5.689   2.846   1.976  0.4413  0.2159  0.7991
  750MOL0     C 1129   5.749   2.703   1.989 -0.4052 -0.7994  0.1927
  750MOL0     C 1130   5.896   2.697   2.036 -0.1748 -0.9634  0.2582
  750MOL0     C 1131   5.985   2.748   1.921  0.4098 -0.3819  0.0236
  750MOL0     N 1132   6.131   2.745   1.960 -0.0178 -0.5029 -0.5379
  750MOL0     C 1133   6.213   2.844   1.937  0.6904 -0.4270 -0.1349
  750MOL0     C 1134   6.334   2.786   1.963 -0.0015 -0.8608 -0.0395
  750MOL0     C 1135   6.452   2.877   1.922  0.2884 -0.5956 -0.7971
  750MOL0     C 1136   6.574   2.798   1.875  0.8789 -1.0517 -0.3103
  750MOL0     C 1137   6.683   2.883   1.807 -0.8949  1.0467 -0.0992
  750MOL0     C 1138   6.741   2.998   1.895  1.1048 -0.8846 -0.7512
  750MOL0     O 1139   6.833   3.082   1.829  0.0359 -0.2087  0.0739
  750MOL0     C 1140   6.923   3.150   1.910  0.5574  0.3109 -0.4298
  750MOL0     C 1141   6.902   3.183   2.044  0.0818  0.1111 -0.2651
  750MOL0     C 1142   7.001   3.245   2.122 -0.1139 -0.9052  0.0354
  750MOL0     C 1143   7.116   3.297   2.057 -0.7095  0.1585  0.0840
  750MOL0     C 1144   7.213   3.390   2.119  0.0471 -0.1423 -0.0035
  750MOL0     O 1145   7.218   3.399   2.263 -0.0423 -0.5485 -0.1117
  750MOL0     C 1146   7.315   3.486   2.308 -0.0341  0.1704  0.6986
  750MOL0     C 1147   7.454   3.448   2.292  0.7267 -0.2063 -0.2364
  750MOL0     C 1148   7.544   3.549   2.311 -0.3759 -0.5596  0.6994
  750MOL0     C 1149   7.509   3.681   2.346 -0.9663 -0.6736  0.1907
  750MOL0     O 1150   7.614   3.771   2.371 -0.3783  0.9287  0.4899
  750MOL0     C 1151   7.609   3.894   2.439  0.6560  1.1070  0.7713
  750MOL0     C 1152   7.728   3.977   2.397 -0.1084  0.4976  0.6476
  750MOL0     C 1153   7.856   3.904   2.435 -0.3525 -0.7378 -0.0459
  750MOL0     C 1154   7.980   3.995   2.405 -0.0648 -0.0537  0.0850
  750MOL0     C 1155   8.106   3.935   2.481 -0.0958  0.2355  0.6554
  750MOL0     C 1156   8.226   4.029   2.454  0.1600 -0.8156 -0.2031
  750MOL0     C 1157   8.346   3.997   2.541 -0.1819  1.1488 -0.1936
  750MOL0     C 1158   8.465   4.081   2.488 -0.0028  0.2264  0.0811
  750MOL0    Cl 1159   8.450   4.248   2.547 -0.1999  0.3381  0.5607
  750MOL0     C 1160   7.375   3.719   2.364 -0.1434  1.3837 -1.0300
  750MOL0     C 1161   7.279   3.621   2.336 -0.3039 -0.8516  0.3744
  750MOL0     O 1162   7.270   3.464   2.039 -0.4948 -0.7281  0.0098
  750MOL0     C 1163   7.127   3.277   1.920 -0.2044 -0.4736 -0.3992
  750MOL0     C 1164   7.031   3.209   1.855  0.1371 -0.2815  0.6302
  750MOL0     N 1165   6.322   2.646   1.984  0.3118  0.3289 -0.1675
  750MOL0     N 1166   6.195   2.632   2.000 -0.1748  0.4782  0.1429
  750MOL0     C 1167   5.002   3.236   2.001 -0.3793  0.4788  0.9257
  750MOL0     C 1168   4.926   3.356   2.001 -0.5005  1.0687 -0.4326
  750MOL0     C 1169   4.845   3.813   2.086  0.4628 -0.9744 -0.3997
  750MOL0     C 1170   4.717   3.804   2.126 -0.6255 -0.3824  0.1512
  750MOL0     C 1171   4.621   3.905   2.138  0.1857 -0.6075 -0.2767
  750MOL0     C 1172   4.661   4.040   2.113  1.0076 -0.7200  0.5262
  750MOL0     O 1173   4.582   4.156   2.134 -0.2985 -0.3116 -0.6318
  750MOL0     C 1174   4.467   4.133   2.220  0.0157  0.5916 -0.6560
  750MOL0     C 1175   4.411   4.274   2.233  0.2364  0.2119  0.4684
  750MOL0     C 1176   4.287   4.259   2.327 -0.2047 -0.0907  0.1876
  750MOL0     C 1177   4.206   4.385   2.341  0.3266  0.3358 -0.4038
  750MOL0     C 1178   4.278   4.501   2.398 -0.7797 -0.2897  0.5189
  750MOL0     C 1179   4.321   4.609   2.440 -0.6759  0.2394 -0.0438
  750MOL0     C 1180   4.794   4.063   2.090 -0.5144  0.9937 -0.6961
  750MOL0     C 1181   4.881   3.951   2.065 -0.2550  0.5085  0.3709
  750MOL0     C 1182   5.026   3.996   2.037 -0.0675  0.0310  0.3657
  750MOL0     H 1183   5.149   3.542   2.193 -1.5163  2.3364 -2.8410
  750MOL0     H 1184   5.272   3.366   2.157 -0.1228  0.0104  0.1484
  750MOL0     H 1185   5.115   3.022   1.905 -0.4298  1.8997 -1.6998
  750MOL0     H 1186   5.254   3.112   1.838  0.7949 -1.5969  0.0759
  750MOL0     H 1187   5.284   2.864   1.870 -1.4001  0.7034 -0.5865
  750MOL0     H 1188   5.285   2.895   2.042 -1.7079  0.0204  0.0061
  750MOL0     H 1189   5.489   3.011   2.047  3.1774  0.3659 -0.8274
  750MOL0     H 1190   5.499   3.029   1.868  2.9530 -0.6214  1.8409
  750MOL0     H 1191   5.497   2.763   2.023 -0.9022  1.6722 -0.0538
  750MOL0     H 1192   5.525   2.780   1.852 -0.2417  0.4439 -0.0702
  750MOL0     H 1193   5.719   2.893   1.882 -0.3928 -0.5764  0.1143
  750MOL0     H 1194   5.721   2.896   2.067 -0.4363 -2.2102  2.5650
  750MOL0     H 1195   5.685   2.652   2.061 -3.0652  1.2370 -0.6050
  750MOL0     H 1196   5.746   2.651   1.893 -1.0954  0.4116 -0.4675
  750MOL0     H 1197   5.920   2.595   2.069 -0.3609 -1.1835 -0.2891
  750MOL0     H 1198   5.904   2.758   2.127  0.1510 -1.1314  0.3460
  750MOL0     H 1199   5.965   2.689   1.831  1.2395 -1.3333  0.4427
  750MOL0     H 1200   5.957   2.849   1.890 -0.3830 -1.2444 -2.2552
  750MOL0     H 1201   6.190   2.946   1.906  1.1113 -0.7385 -1.5557
  750MOL0     H 1202   6.412   2.951   1.851 -3.0023  0.3566  1.7775
  750MOL0     H 1203   6.474   2.941   2.008  0.6623 -2.8526  0.8713
  750MOL0     H 1204   6.623   2.749   1.960  2.6410  1.0447 -0.0122
  750MOL0     H 1205   6.538   2.718   1.810  0.6302  0.2200 -1.8021
  750MOL0     H 1206   6.644   2.920   1.712 -1.5777  0.5506 -0.0231
  750MOL0     H 1207   6.768   2.823   1.775 -0.6385  1.4725 -0.2097
  750MOL0     H 1208   6.781   2.951   1.985 -0.9561 -0.3572  0.5127
  750MOL0     H 1209   6.656   3.059   1.927 -0.1083 -3.0678  0.3467
  750MOL0     H 1210   6.818   3.143   2.100  0.0319 -2.7140 -2.1239
  750MOL0     H 1211   6.992   3.256   2.230 -0.2746  1.2229 -0.1513
  750MOL0     H 1212   7.477   3.347   2.259  1.5792 -0.3447  0.7289
  750MOL0     H 1213   7.650   3.528   2.298  0.3833  3.3217 -0.7103
  750MOL0     H 1214   7.530   3.949   2.386  0.6746 -0.2169 -0.6982
  750MOL0     H 1215   7.590   3.875   2.545  0.4033 -0.7231  0.4382
  750MOL0     H 1216   7.715   4.003   2.292 -1.5912 -0.4230  0.5641
  750MOL0     H 1217   7.727   4.073   2.449  1.1272 -0.4963  2.6567
  750MOL0     H 1218   7.848   3.881   2.542  0.4734  0.5130  0.3077
  750MOL0     H 1219   7.880   3.807   2.390 -0.1315 -0.7885  0.1755
  750MOL0     H 1220   7.954   4.095   2.439  1.0954 -0.9411  4.1038
  750MOL0     H 1221   8.001   3.993   2.298  0.7108 -2.2989  0.2310
  750MOL0     H 1222   8.131   3.837   2.440  0.7850  0.4147  0.7478
  750MOL0     H 1223   8.089   3.925   2.589 -2.8880  2.9087  0.5984
  750MOL0     H 1224   8.255   4.012   2.350 -0.1441 -1.0288 -0.2539
  750MOL0     H 1225   8.187   4.130   2.470  0.0774 -0.6233 -1.4914
  750MOL0     H 1226   8.375   3.893   2.521  0.8714  0.8464  2.4650
  750MOL0     H 1227   8.336   3.997   2.650  0.3091 -1.5251 -0.0620
  750MOL0     H 1228   8.556   4.057   2.543 -0.0463  1.5098  0.7721
  750MOL0     H 1229   8.469   4.079   2.379 -2.7004  4.2100 -0.3270
  750MOL0     H 1230   7.346   3.813   2.411  1.1862  0.8998  0.9102
  750MOL0     H 1231   7.175   3.645   2.357  0.0756 -0.6749  2.3002
  750MOL0     H 1232   7.201   3.331   1.862 -0.2157 -1.4705 -1.3888
  750MOL0     H 1233   7.033   3.209   1.746  1.2184 -0.9073  0.6436
  750MOL0     H 1234   4.953   3.155   1.947 -1.0596  1.1166  0.5627
  750MOL0     H 1235   4.824   3.359   1.963 -0.4375  1.6307 -0.5580
  750MOL0     H 1236   4.685   3.700   2.128  0.7760 -0.8309  0.8573
  750MOL0     H 1237   4.520   3.888   2.173  0.3620  0.4877  0.8141
  750MOL0     H 1238   4.483   4.094   2.321  1.8657  0.4892 -0.9618
  750MOL0     H 1239   4.399   4.065   2.168  0.8196 -0.4056 -0.4261
  750MOL0     H 1240   4.393   4.321   2.137 -1.9292 -2.0304 -0.3239
  750MOL0     H 1241   4.484   4.344   2.275  0.2147 -0.3148  1.4231
  750MOL0     H 1242   4.317   4.228   2.428 -0.8679  3.1281  1.5231
  750MOL0     H 1243   4.222   4.189   2.274  2.7679 -1.9888 -1.2316
  750MOL0     H 1244   4.161   4.404   2.243  1.3745  0.8769 -0.8017
  750MOL0     H 1245   4.127   4.356   2.411  1.6256  2.3340  2.0619
  750MOL0     H 1246   4.333   4.711   2.470  0.3571 -0.1421  0.9362
  750MOL0     H 1247   4.825   4.167   2.091  0.7475  0.6494 -1.2074
  750MOL0     H 1248   5.042   3.967   1.933 -1.1757  1.9041 -0.3770
  750MOL0     H 1249   5.044   4.100   2.064  3.8778 -1.5087  5.3542
  750MOL0     H 1250   5.099   3.951   2.106 -1.0140  0.3267  1.6114
  751MOL0     O 1251   1.069   7.296   4.967  0.4838 -0.2918  0.8659
  751MOL0     C 1252   0.978   7.337   4.898 -0.0876 -0.9287 -0.6849
  751MOL0     O 1253   0.992   7.444   4.817 -0.2785 -0.1358 -0.5226
  751MOL0     C 1254   1.115   7.505   4.816 -0.2600  0.1804 -1.1662
  751MOL0     C 1255   1.215   7.435   4.747  0.1390 -1.0169 -0.0855
  751MOL0     C 1256   1.337   7.497   4.746 -0.5836 -0.0272 -0.1290
  751MOL0     C 1257   1.362   7.616   4.814 -0.2922  0.8672 -0.9082
  751MOL0     O 1258   1.487   7.668   4.793 -0.3431  1.0788  0.4015
  751MOL0     C 1259   1.494   7.806   4.793  0.3628 -0.3229 -0.3555
  751MOL0     C 1260   1.621   7.845   4.714 -0.5788 -0.3094  0.1073
  751MOL0     C 1261   1.661   7.997   4.743 -0.2643 -0.3911 -0.3229
  751MOL0     C 1262   1.804   8.029   4.692  0.4204  0.6012  0.1889
  751MOL0     C 1263   1.917   8.007   4.791  0.0060  0.1344 -0.4270
  751MOL0     C 1264   2.059   8.002   4.725  0.4650 -0.2792 -0.1871
  751MOL0     C 1265   2.123   8.140   4.749  0.0705  0.7446 -0.5354
  751MOL0     C 1266   2.266   8.124   4.692 -0.2432 -0.3304  0.8126
  751MOL0     N 1267   2.356   8.240   4.711 -0.4531  0.6164  0.6946
  751MOL0     C 1268   2.340   8.361   4.648 -0.4176  0.3848  0.6521
  751MOL0     C 1269   2.455   8.430   4.666  1.2791  0.6379 -0.0220
  751MOL0     C 1270   2.508   8.573   4.633  0.2961 -0.8075 -0.4096
  751MOL0     C 1271   2.525   8.592   4.481 -0.3220 -1.0478 -0.3754
  751MOL0     C 1272   2.590   8.730   4.457  0.6051  0.0639 -0.0907
  751MOL0     C 1273   2.587   8.733   4.307  0.5094 -0.4661 -1.2632
  751MOL0     O 1274   2.631   8.864   4.266  0.5664 -0.4145 -0.0763
  751MOL0     C 1275   2.764   8.880   4.222  0.0058 -0.2566 -0.4075
  751MOL0     C 1276   2.788   8.969   4.117 -0.2422  0.0599  0.3326
  751MOL0     C 1277   2.910   8.978   4.059  0.3811 -0.1897 -0.1866
  751MOL0     C 1278   3.024   8.900   4.114  0.1060  0.0523 -0.3478
  751MOL0     C 1279   3.161   8.910   4.057 -0.2642 -0.5660 -0.2092
  751MOL0     O 1280   3.166   8.997   3.949 -0.8323 -0.3291 -0.2259
  751MOL0     C 1281   3.272   8.995   3.864 -0.0146 -0.2528  1.0960
  751MOL0     C 1282   3.245   9.014   3.729  0.0760 -0.2014  0.5978
  751MOL0     C 1283   3.347   9.000   3.636 -0.3315 -0.3515  0.0274
  751MOL0     C 1284   3.482   8.981   3.671  0.9226  0.8031  0.6250
  751MOL0     O 1285   3.579   8.976   3.575 -0.3500 -0.1701 -0.2343
  751MOL0     C 1286   3.546   8.892   3.458  0.7171  0.0245 -0.1862
  751MOL0     C 1287   3.666   8.830   3.401 -0.7474  0.1110  0.0787
  751MOL0     C 1288   3.744   8.933   3.319  0.6653  0.3222 -0.2170
  751MOL0     C 1289   3.872   8.865   3.267 -0.9789 -0.3758  1.2770
  751MOL0     C 1290   3.947   8.955   3.166 -0.3792  0.9046 -0.4662
  751MOL0     C 1291   4.091   8.908   3.157  0.0442  0.3139 -0.2143
  751MOL0     C 1292   4.182   8.980   3.055 -0.0425 -0.2527 -0.1929
  751MOL0     C 1293   4.289   8.895   2.992 -0.4373 -0.3359 -0.1650
  751MOL0    Cl 1294   4.383   8.815   3.119 -0.1451  0.3410 -0.1040
  751MOL0     C 1295   3.509   8.978   3.804  0.1503  0.1092 -0.5727
  751MOL0     C 1296   3.405   8.982   3.900 -0.3038 -0.1106  0.5695
  751MOL0     O 1297   3.250   8.828   4.095  0.3970 -0.7522 -0.2393
  751MOL0     C 1298   2.997   8.836   4.237 -0.1004  0.6679  0.6750
  751MOL0     C 1299   2.869   8.816   4.287  0.5147 -0.0749  0.4549
  751MOL0     N 1300   2.533   8.351   4.756  0.2151 -0.3801  0.0257
  751MOL0     N 1301   2.485   8.227   4.773 -0.0270  0.2770  0.1679
  751MOL0     C 1302   1.265   7.676   4.895 -0.9793 -0.4450 -0.7641
  751MOL0     C 1303   1.144   7.614   4.900  0.3780  0.2134 -0.0833
  751MOL0     C 1304   0.860   7.259   4.909  1.6776  0.1109 -0.5130
  751MOL0     C 1305   0.765   7.269   4.801 -0.0110  0.0534 -0.4903
  751MOL0     C 1306   0.645   7.207   4.803 -0.4784  0.7379  0.4902
  751MOL0     C 1307   0.608   7.131   4.917 -0.3498 -0.4768  0.1212
  751MOL0     O 1308   0.486   7.073   4.923  0.1330 -0.0476 -0.0689
  751MOL0     C 1309   0.499   6.932   4.887  0.8348  0.3110 -0.0525
  751MOL0     C 1310   0.358   6.881   4.928  0.1579 -0.4883  0.2659
  751MOL0     C 1311   0.372   6.726   4.944 -0.4645 -0.1601  0.4293
  751MOL0     C 1312   0.228   6.671   4.952 -0.1548 -0.1678 -0.0957
  751MOL0     C 1313   0.242   6.527   4.932 -0.0006  0.2725  0.4028
  751MOL0     C 1314   0.240   6.406   4.900  0.7193  0.1844  0.5268
  751MOL0     C 1315   0.698   7.108   5.022  0.7703 -0.0749  0.2228
  751MOL0     C 1316   0.829   7.167   5.021  0.4222 -0.3567  0.9166
  751MOL0     C 1317   0.916   7.120   5.140 -1.0315  0.0602 -0.0639
  751MOL0     H 1318   1.203   7.343   4.690  0.5608 -3.0849  2.9057
  751MOL0     H 1319   1.419   7.469   4.681  1.5193  2.1825  1.4175
  751MOL0     H 1320   1.412   7.867   4.756  0.8150  1.8504  1.9650
  751MOL0     H 1321   1.502   7.825   4.900  0.8424 -0.9614 -0.2691
  751MOL0     H 1322   1.609   7.809   4.611  1.0456 -2.4616  0.6261
  751MOL0     H 1323   1.710   7.796   4.753  1.2322  0.4280 -2.7804
  751MOL0     H 1324   1.661   8.024   4.849  2.4245  3.5312 -1.0876
  751MOL0     H 1325   1.582   8.043   4.683 -0.9743 -1.3076 -0.1107
  751MOL0     H 1326   1.824   7.983   4.595 -1.7335 -2.5822  1.0911
  751MOL0     H 1327   1.805   8.138   4.680 -2.4362  0.8360  1.3330
  751MOL0     H 1328   1.909   8.062   4.886  1.5043 -1.7028  0.8384
  751MOL0     H 1329   1.897   7.905   4.825 -2.4826  0.9542  0.8101
  751MOL0     H 1330   2.109   7.934   4.795  0.5472 -0.6674 -0.6141
  751MOL0     H 1331   2.053   7.960   4.624  0.0111  3.1769 -1.7348
  751MOL0     H 1332   2.137   8.158   4.856  1.1669 -2.4419 -0.0383
  751MOL0     H 1333   2.067   8.217   4.696  0.7707  0.3517 -1.8919
  751MOL0     H 1334   2.312   8.047   4.755 -0.4852  1.4094  3.2780
  751MOL0     H 1335   2.258   8.096   4.587 -1.3358  0.4555  0.6698
  751MOL0     H 1336   2.246   8.394   4.604  0.0988  0.8011 -0.1559
  751MOL0     H 1337   2.436   8.649   4.666 -0.6764 -2.6818  2.0295
  751MOL0     H 1338   2.597   8.607   4.688  0.2536 -1.8599  0.3356
  751MOL0     H 1339   2.592   8.514   4.443  1.7257  0.8786 -0.9041
  751MOL0     H 1340   2.436   8.577   4.421 -0.0722  2.1239 -1.6961
  751MOL0     H 1341   2.686   8.739   4.510  0.6447 -1.7203  0.2116
  751MOL0     H 1342   2.523   8.809   4.493 -2.0371 -1.8121 -0.6071
  751MOL0     H 1343   2.487   8.719   4.264 -1.1326 -1.3829  2.4502
  751MOL0     H 1344   2.642   8.643   4.279 -1.5857 -2.3886  0.4074
  751MOL0     H 1345   2.700   9.022   4.082 -1.5498 -0.8668  2.0802
  751MOL0     H 1346   2.911   9.031   3.964 -0.9794  0.2543  0.0177
  751MOL0     H 1347   3.147   9.037   3.687  0.9343  5.5194  0.9288
  751MOL0     H 1348   3.316   9.018   3.534 -1.0025  1.5898  0.5340
  751MOL0     H 1349   3.477   8.812   3.487  0.4002  0.9060  1.6464
  751MOL0     H 1350   3.498   8.947   3.377 -1.0120 -1.5161 -0.2731
  751MOL0     H 1351   3.730   8.790   3.480 -0.3150  1.4195  0.4269
  751MOL0     H 1352   3.624   8.752   3.337 -2.5251  1.2846 -0.2531
  751MOL0     H 1353   3.681   8.968   3.237  2.6713  2.2505 -1.0512
  751MOL0     H 1354   3.774   9.023   3.375 -0.4747  1.4427 -1.3481
  751MOL0     H 1355   3.853   8.771   3.213 -1.2124  0.8364 -0.8557
  751MOL0     H 1356   3.942   8.853   3.350 -0.0236  1.6737  0.8209
  751MOL0     H 1357   3.955   9.058   3.204 -0.6492  0.8454 -0.2488
  751MOL0     H 1358   3.885   8.951   3.076 -2.3035 -3.6542  0.7683
  751MOL0     H 1359   4.143   8.904   3.253 -0.3518 -1.9672 -0.0383
  751MOL0     H 1360   4.101   8.803   3.127 -0.0062 -0.4266  2.1675
  751MOL0     H 1361   4.225   9.078   3.081  0.4260 -0.0251 -1.7436
  751MOL0     H 1362   4.120   9.019   2.975 -0.3990  0.1550  0.2745
  751MOL0     H 1363   4.251   8.819   2.923  3.1208 -0.0213 -2.7272
  751MOL0     H 1364   4.353   8.958   2.929 -1.4369  0.1670 -0.7083
  751MOL0     H 1365   3.608   8.952   3.840  0.0253 -2.4202 -1.8293
  751MOL0     H 1366   3.418   8.986   4.007  1.2643  0.5446  0.3800
  751MOL0     H 1367   3.085   8.782   4.271  0.6418 -1.5872 -4.1208
  751MOL0     H 1368   2.858   8.744   4.367 -0.6894 -1.2573 -0.7166
  751MOL0     H 1369   1.284   7.765   4.954 -2.1010 -0.9227  0.3724
  751MOL0     H 1370   1.053   7.650   4.948 -1.6355 -2.5677 -1.5140
  751MOL0     H 1371   0.784   7.329   4.713  0.5432  1.2330  0.3951
  751MOL0     H 1372   0.569   7.219   4.726 -0.2879  1.1462  0.3635
  751MOL0     H 1373   0.562   6.874   4.955 -1.4914  0.0658  2.0416
  751MOL0     H 1374   0.540   6.910   4.789  2.4412  0.1440  0.6274
  751MOL0     H 1375   0.272   6.904   4.864  0.4095 -1.0478 -0.2811
  751MOL0     H 1376   0.334   6.918   5.028 -2.2361 -1.5173  0.1350
  751MOL0     H 1377   0.427   6.700   5.035 -3.2141 -0.2911  2.1907
  751MOL0     H 1378   0.416   6.687   4.852 -1.5242 -2.0763  0.6811
  751MOL0     H 1379   0.188   6.687   5.052  0.1732 -2.6195  0.4914
  751MOL0     H 1380   0.155   6.712   4.881 -0.1887 -2.1340 -1.2772
  751MOL0     H 1381   0.251   6.303   4.871 -2.5975  0.1213 -1.1042
  751MOL0     H 1382   0.683   7.041   5.106  1.0378  0.3447  0.6101
  751MOL0     H 1383   1.012   7.077   5.111 -1.3165 -0.2686 -0.5369
  751MOL0     H 1384   0.947   7.208   5.196  3.1984  0.5833 -2.8002
  751MOL0     H 1385   0.877   7.042   5.206 -1.5682 -0.5957 -1.1119
  752MOL0     O 1386   8.634   6.743   4.843 -0.1150  0.4521  0.5366
  752MOL0     C 1387   8.592   6.828   4.767 -0.7923 -0.4762  0.4576
  752MOL0     O 1388   8.662   6.945   4.729  0.3415 -0.1245  0.1974
  752MOL0     C 1389   8.791   6.968   4.772  0.6149  0.0817 -0.0759
  752MOL0     C 1390   8.891   6.932   4.685 -0.2331  0.4260  0.0373
  752MOL0     C 1391   9.030   6.941   4.727  0.0491  0.0279  0.1471
  752MOL0     C 1392   9.065   6.982   4.856 -0.9780  0.1354  0.4921
  752MOL0     O 1393   9.198   6.991   4.886 -0.8083  0.1418  0.5068
  752MOL0     C 1394   9.248   6.993   5.021 -0.6672 -1.1310 -0.3235
  752MOL0     C 1395   9.405   7.004   5.023 -0.2758 -0.1093 -0.9724
  752MOL0     C 1396   9.473   7.134   4.975 -0.6294 -0.1977 -0.1145
  752MOL0     C 1397   9.630   7.130   4.961 -0.5661 -0.2562  0.0395
  752MOL0     C 1398   9.711   7.259   4.929 -0.6718 -0.1853 -0.1035
  752MOL0     C 1399   9.861   7.228   4.912  0.1496 -0.4575 -0.4438
  752MOL0     C 1400   9.948   7.342   4.964 -0.0709  0.0412 -0.5484
  752MOL0     C 1401   9.942   7.459   4.872 -0.6799 -1.0247 -1.0031
  752MOL0     N 1402  10.074   7.510   4.828 -0.1498 -1.3711  0.6013
  752MOL0     C 1403  10.176   7.557   4.913 -0.2529 -0.2231  0.2116
  752MOL0     C 1404  10.286   7.575   4.836  0.7820  0.1355  0.7793
  752MOL0     C 1405  10.427   7.628   4.880  0.8052  0.4589 -0.0425
  752MOL0     C 1406  10.507   7.655   4.751 -0.6307 -0.0056 -0.1713
  752MOL0     C 1407  10.636   7.731   4.790 -0.0100  1.3541 -0.6482
  752MOL0     C 1408  10.725   7.781   4.670  1.3386  0.4697  0.4749
  752MOL0     O 1409  10.847   7.838   4.722 -0.4432 -0.3923 -0.8171
  752MOL0     C 1410  10.930   7.895   4.630  0.0405 -0.0036  0.5504
  752MOL0     C 1411  11.056   7.923   4.678 -0.5551 -0.0253 -0.0182
  752MOL0     C 1412  11.145   7.978   4.593  0.1390 -0.1144  0.3309
  752MOL0     C 1413  11.123   8.000   4.458  0.5152  0.6045  0.0859
  752MOL0     C 1414  11.230   8.054   4.375 -0.5414 -1.1036 -0.9380
  752MOL0     O 1415  11.368   8.050   4.417  0.5386  0.8230 -0.0394
  752MOL0     C 1416  11.463   8.058   4.318 -0.4762  0.2511  0.7240
  752MOL0     C 1417  11.592   8.092   4.356  0.0765  1.7834 -0.0129
  752MOL0     C 1418  11.691   8.116   4.260  0.0582 -1.2555 -0.2137
  752MOL0     C 1419  11.663   8.112   4.125 -0.5114 -0.4164 -0.1470
  752MOL0     O 1420  11.764   8.138   4.028  0.2295 -0.1415 -0.3100
  752MOL0     C 1421  11.802   8.269   4.003 -0.0282 -0.0988 -0.0033
  752MOL0     C 1422  11.901   8.279   3.892 -0.1980 -0.3131  0.4466
  752MOL0     C 1423  11.954   8.418   3.874 -0.5561  0.1890  0.2486
  752MOL0     C 1424  12.098   8.432   3.821 -0.0647 -0.4373 -0.5310
  752MOL0     C 1425  12.112   8.573   3.765 -0.2696 -0.2328 -0.2169
  752MOL0     C 1426  12.252   8.586   3.703 -0.2501 -1.0028  0.2942
  752MOL0     C 1427  12.286   8.717   3.629  0.2307 -0.7905 -0.0637
  752MOL0     C 1428  12.427   8.745   3.584 -0.6476 -0.5532  0.4726
  752MOL0    Cl 1429  12.423   8.878   3.463  0.3014  0.3583  0.0451
  752MOL0     C 1430  11.536   8.076   4.088 -0.3039 -0.4399  0.0603
  752MOL0     C 1431  11.444   8.035   4.179 -0.1942 -0.9678  0.2270
  752MOL0     O 1432  11.192   8.120   4.284 -0.1498 -0.4294 -0.4112
  752MOL0     C 1433  10.999   7.957   4.406 -0.0897  0.5246  0.0974
  752MOL0     C 1434  10.900   7.907   4.493 -0.8689 -0.3022  0.2982
  752MOL0     N 1435  10.254   7.523   4.712 -0.7190  0.5280  0.0494
  752MOL0     N 1436  10.132   7.490   4.707  0.8919  0.2506  0.9765
  752MOL0     C 1437   8.964   7.022   4.946  0.1729 -0.2482  0.6385
  752MOL0     C 1438   8.826   7.012   4.899 -0.4114  0.1420  0.0344
  752MOL0     C 1439   8.456   6.806   4.731  0.4271 -0.0799  1.0266
  752MOL0     C 1440   8.348   6.896   4.765 -1.5213  0.2079 -0.5759
  752MOL0     C 1441   8.226   6.877   4.720 -1.0413  0.4583  0.4454
  752MOL0     C 1442   8.205   6.764   4.633 -0.0431  0.0798 -0.3418
  752MOL0     O 1443   8.086   6.744   4.565  0.2374  0.6461 -0.0783
  752MOL0     C 1444   7.972   6.843   4.569 -0.0322  0.0569 -0.6030
  752MOL0     C 1445   7.885   6.839   4.447 -0.3956 -0.1404 -0.8123
  752MOL0     C 1446   7.759   6.907   4.476  0.9609 -0.0411 -0.4284
  752MOL0     C 1447   7.664   6.914   4.349 -0.1855  0.4184  0.3188
  752MOL0     C 1448   7.523   6.924   4.386  0.5877  0.3885 -0.4346
  752MOL0     C 1449   7.410   6.945   4.413  1.6409 -0.6578 -0.2616
  752MOL0     C 1450   8.306   6.682   4.593 -0.3156 -0.7695  0.1237
  752MOL0     C 1451   8.427   6.690   4.652  0.0808 -0.3977 -1.1368
  752MOL0     C 1452   8.532   6.586   4.610 -0.5082  0.7225  0.6725
  752MOL0     H 1453   8.859   6.878   4.597 -0.3880 -1.8744  1.4173
  752MOL0     H 1454   9.112   6.893   4.675 -0.2177 -1.6124  1.1770
  752MOL0     H 1455   9.214   7.088   5.063 -1.9490 -0.5518 -2.4838
  752MOL0     H 1456   9.211   6.913   5.085  2.3054 -1.1890  1.5533
  752MOL0     H 1457   9.453   6.922   4.970  2.5998  2.9541 -3.6038
  752MOL0     H 1458   9.428   6.991   5.129 -1.7388 -0.3329 -0.6659
  752MOL0     H 1459   9.450   7.215   5.045  3.8942  1.6583 -0.4499
  752MOL0     H 1460   9.419   7.165   4.884 -2.2400 -1.5375  0.3505
  752MOL0     H 1461   9.672   7.078   5.048  0.2448 -1.4367 -1.0131
  752MOL0     H 1462   9.652   7.064   4.876  3.4511  3.0004 -1.7995
  752MOL0     H 1463   9.689   7.313   4.836  3.1157 -0.3220 -1.2492
  752MOL0     H 1464   9.698   7.318   5.020  1.5435 -1.0723  0.8328
  752MOL0     H 1465   9.888   7.134   4.961  0.5667 -1.2143 -2.0355
  752MOL0     H 1466   9.887   7.214   4.806 -1.1959  2.1261 -1.1969
  752MOL0     H 1467  10.046   7.294   4.966  0.2011  0.5863 -0.5027
  752MOL0     H 1468   9.935   7.368   5.069  1.0015 -2.0876  0.1665
  752MOL0     H 1469   9.881   7.438   4.783 -1.5268  1.2807 -1.0382
  752MOL0     H 1470   9.893   7.541   4.924 -0.9392 -0.2043 -2.4703
  752MOL0     H 1471  10.162   7.595   5.014  1.3811 -0.2682  0.4897
  752MOL0     H 1472  10.410   7.725   4.927 -0.9300  1.2275 -2.0834
  752MOL0     H 1473  10.479   7.556   4.943  2.8764  1.4207 -0.5784
  752MOL0     H 1474  10.535   7.562   4.701  0.6957  0.8788 -1.1502
  752MOL0     H 1475  10.451   7.729   4.694  1.1038 -0.4423 -2.5897
  752MOL0     H 1476  10.689   7.657   4.850 -0.5187  0.1497 -1.6126
  752MOL0     H 1477  10.615   7.824   4.843 -2.3239  2.1494 -2.7568
  752MOL0     H 1478  10.679   7.865   4.617 -0.1178 -0.9706 -0.6408
  752MOL0     H 1479  10.735   7.702   4.595 -1.6535 -0.3934  0.8577
  752MOL0     H 1480  11.073   7.927   4.785 -1.6625  1.1076  0.1391
  752MOL0     H 1481  11.231   8.016   4.647 -0.0607 -0.3633  0.8243
  752MOL0     H 1482  11.611   8.107   4.461 -1.2214  0.8188  0.3834
  752MOL0     H 1483  11.789   8.147   4.296  0.6694 -0.9879 -2.0081
  752MOL0     H 1484  11.712   8.325   3.974  0.8216  0.8286 -0.9482
  752MOL0     H 1485  11.848   8.314   4.091 -1.8355 -0.5310  1.2043
  752MOL0     H 1486  11.991   8.222   3.918 -0.5673 -1.3945 -0.5467
  752MOL0     H 1487  11.864   8.240   3.797 -0.6402 -1.1214  0.9370
  752MOL0     H 1488  11.881   8.472   3.812 -0.3291  0.8519  0.5480
  752MOL0     H 1489  11.951   8.469   3.971  2.2367 -1.8083  1.5100
  752MOL0     H 1490  12.119   8.368   3.734  1.7622 -1.6973  0.7696
  752MOL0     H 1491  12.171   8.411   3.900  0.5482 -2.1016 -1.4873
  752MOL0     H 1492  12.106   8.644   3.848  5.2005  0.1723  0.1942
  752MOL0     H 1493  12.034   8.603   3.694 -1.7502 -0.5607  1.1975
  752MOL0     H 1494  12.333   8.584   3.776 -0.8350  1.2986  1.0993
  752MOL0     H 1495  12.267   8.504   3.633  2.6573  0.5992 -1.1757
  752MOL0     H 1496  12.257   8.804   3.688 -0.0734  0.2118 -1.6411
  752MOL0     H 1497  12.226   8.714   3.537  0.1101  1.5553 -0.1094
  752MOL0     H 1498  12.477   8.768   3.679 -0.8847 -3.0405  1.2678
  752MOL0     H 1499  12.479   8.655   3.549  0.9185 -0.1630  1.6700
  752MOL0     H 1500  11.544   8.059   3.981  1.7939 -2.4498  0.4654
  752MOL0     H 1501  11.360   7.991   4.126  1.8124 -1.6119 -2.6474
  752MOL0     H 1502  10.983   7.976   4.300  0.0388 -2.6522 -0.6030
  752MOL0     H 1503  10.798   7.897   4.460 -1.4011 -1.1518  2.0474
  752MOL0     H 1504   8.984   7.026   5.053 -0.7745  1.6121  0.7791
  752MOL0     H 1505   8.752   7.036   4.975  1.4461 -0.7470  2.2250
  752MOL0     H 1506   8.376   6.975   4.833 -1.5534 -1.6091  1.6729
  752MOL0     H 1507   8.146   6.946   4.744 -0.8731  0.1751  1.9212
  752MOL0     H 1508   8.007   6.946   4.556 -1.8180  0.4946 -2.6495
  752MOL0     H 1509   7.923   6.824   4.665  2.1341 -3.4591 -0.0201
  752MOL0     H 1510   7.873   6.733   4.425  2.0868 -0.3104 -1.5822
  752MOL0     H 1511   7.933   6.890   4.363 -1.1954 -2.8418 -3.0537
  752MOL0     H 1512   7.776   7.005   4.522 -0.4223 -1.4242  3.4339
  752MOL0     H 1513   7.705   6.845   4.548  0.5751 -1.5995 -1.9953
  752MOL0     H 1514   7.698   7.003   4.296  0.8252 -0.1647 -0.0642
  752MOL0     H 1515   7.679   6.815   4.304  1.0747  0.0913  1.3939
  752MOL0     H 1516   7.303   6.957   4.413  1.5221 -1.5714 -1.0672
  752MOL0     H 1517   8.293   6.601   4.522 -2.1887 -1.7660  1.5118
  752MOL0     H 1518   8.597   6.626   4.533 -0.8314 -5.7743 -3.7890
  752MOL0     H 1519   8.595   6.554   4.694  0.2663 -0.2002 -0.2333
  752MOL0     H 1520   8.484   6.491   4.583 -1.1732  1.4658 -0.8381
  753MOL0     O 1521   0.003   0.765   5.145  0.1309  0.0420 -0.1422
  753MOL0     C 1522  -0.039   0.805   5.029  0.4503  0.2659 -0.5514
  753MOL0     O 1523   0.024   0.901   4.950 -0.1628  0.2946  0.6292
  753MOL0     C 1524   0.162   0.922   4.962 -0.6846  0.2903  0.0427
  753MOL0     C 1525   0.258   0.824   4.995 -0.5064  0.6246 -0.4125
  753MOL0     C 1526   0.391   0.859   5.017  0.4846  0.0164  0.0403
  753MOL0     C 1527   0.431   0.994   5.009 -0.3057  0.5490  0.3486
  753MOL0     O 1528   0.556   1.042   5.038 -0.6249  0.2423 -0.2654
  753MOL0     C 1529   0.665   0.972   4.979  0.1639  0.3926  0.8633
  753MOL0     C 1530   0.724   0.891   5.096  0.8934 -1.1275 -0.3865
  753MOL0     C 1531   0.832   0.794   5.047 -0.2514  0.2545  0.0726
  753MOL0     C 1532   0.947   0.869   4.971  0.2617  0.4481 -0.1365
  753MOL0     C 1533   1.052   0.754   4.924  0.0673  1.1049 -0.7845
  753MOL0     C 1534   1.160   0.791   4.815 -0.3856  0.2318  0.3534
  753MOL0     C 1535   1.240   0.674   4.774 -0.3020  0.5996 -0.8524
  753MOL0     C 1536   1.352   0.698   4.683  0.5621  0.0366  0.3960
  753MOL0     N 1537   1.466   0.783   4.734 -0.0945  0.6144 -0.3651
  753MOL0     C 1538   1.592   0.732   4.771 -0.7688 -0.2894  1.2983
  753MOL0     C 1539   1.678   0.842   4.757 -0.3461  0.4399  0.1030
  753MOL0     C 1540   1.818   0.852   4.812  0.8906  0.0858 -0.0786
  753MOL0     C 1541   1.912   0.761   4.743 -0.6339  0.7081  0.5117
  753MOL0     C 1542   2.056   0.806   4.765 -0.3910 -0.0956  0.7806
  753MOL0     C 1543   2.120   0.910   4.663 -0.2859 -0.0486  0.2118
  753MOL0     O 1544   2.245   0.965   4.713 -0.7844  0.1358 -0.3247
  753MOL0     C 1545   2.351   0.879   4.706  1.3061  0.5846  0.6795
  753MOL0     C 1546   2.465   0.919   4.769 -0.5084 -1.0202  0.3872
  753MOL0     C 1547   2.586   0.848   4.758  0.1018 -0.1807 -0.4734
  753MOL0     C 1548   2.591   0.726   4.682  0.7872  0.5936 -0.1280
  753MOL0     C 1549   2.713   0.657   4.666  0.4369 -1.0610 -0.1859
  753MOL0     O 1550   2.716   0.520   4.634 -0.2707 -0.5176  0.1810
  753MOL0     C 1551   2.827   0.451   4.677  0.2309  0.4156 -0.2283
  753MOL0     C 1552   2.841   0.425   4.814 -0.6779  0.6518  0.3153
  753MOL0     C 1553   2.940   0.336   4.856  0.4495 -1.1377  0.3254
  753MOL0     C 1554   3.022   0.271   4.764 -0.4815  0.2857 -0.4829
  753MOL0     O 1555   3.124   0.187   4.816  0.5906 -0.4368  0.4869
  753MOL0     C 1556   3.254   0.234   4.803 -0.0593 -0.0112 -0.7051
  753MOL0     C 1557   3.344   0.148   4.884  0.1838  1.1664 -0.4129
  753MOL0     C 1558   3.491   0.147   4.854  0.8292  0.4946  0.1026
  753MOL0     C 1559   3.576   0.057   4.954 -0.4860  0.0377  0.4845
  753MOL0     C 1560   3.719   0.087   4.946 -0.0439  0.4949  0.6503
  753MOL0     C 1561   3.816   0.027   5.060  0.7884 -0.1917  0.6340
  753MOL0     C 1562   3.788  -0.112   5.107  0.2290 -0.7306  0.1055
  753MOL0     C 1563   3.897  -0.156   5.211  0.3872 -0.7426  0.0520
  753MOL0    Cl 1564   3.852  -0.324   5.265  0.2434  0.1720 -0.2905
  753MOL0     C 1565   3.011   0.302   4.629 -0.3371 -0.1951 -0.1079
  753MOL0     C 1566   2.919   0.397   4.585 -0.5517  0.1052  0.4797
  753MOL0     O 1567   2.812   0.729   4.688 -0.6858 -0.6317 -0.2313
  753MOL0     C 1568   2.480   0.688   4.610  0.8779 -0.2546 -0.0648
  753MOL0     C 1569   2.355   0.753   4.620 -0.3955 -0.5537  0.5493
  753MOL0     N 1570   1.602   0.943   4.703 -0.0176 -0.0678  0.2272
  753MOL0     N 1571   1.478   0.912   4.698 -0.2043  0.8731 -0.8136
  753MOL0     C 1572   0.339   1.094   4.970 -0.4412 -0.5457 -0.4216
  753MOL0     C 1573   0.206   1.056   4.941  0.4541  0.6999  0.6796
  753MOL0     C 1574  -0.180   0.759   5.007  0.1846 -0.5756 -0.3555
  753MOL0     C 1575  -0.218   0.634   5.060 -0.4362  0.5846 -0.6252
  753MOL0     C 1576  -0.346   0.580   5.041 -0.2990 -0.4387  0.1595
  753MOL0     C 1577  -0.443   0.642   4.966 -0.3344 -0.4024  0.0641
  753MOL0     O 1578  -0.558   0.572   4.951 -0.8730  0.4238  0.7859
  753MOL0     C 1579  -0.666   0.642   4.890  0.3181  0.7983 -0.0445
  753MOL0     C 1580  -0.793   0.553   4.913  1.0104  0.2130  0.1297
  753MOL0     C 1581  -0.897   0.591   4.803  0.6355 -0.6407 -0.7695
  753MOL0     C 1582  -1.002   0.486   4.788 -0.1952  0.5607 -0.3393
  753MOL0     C 1583  -1.122   0.538   4.722  0.2081  0.2790  0.0308
  753MOL0     C 1584  -1.226   0.587   4.691 -0.0502  0.4964 -0.5587
  753MOL0     C 1585  -0.409   0.772   4.916  0.9804 -0.0028  0.0145
  753MOL0     C 1586  -0.280   0.827   4.928 -0.7369  0.1061 -0.0415
  753MOL0     C 1587  -0.261   0.959   4.863  0.1717 -0.8381 -0.1006
  753MOL0     H 1588   0.238   0.719   5.015  1.8807  0.4673  1.6590
  753MOL0     H 1589   0.458   0.784   5.058  2.3681  2.2591  1.3336
  753MOL0     H 1590   0.630   0.908   4.898  1.6762  0.1547  0.3649
  753MOL0     H 1591   0.738   1.048   4.949 -0.9611  1.1110 -0.1073
  753MOL0     H 1592   0.651   0.836   5.155  0.6656 -1.4738 -0.9796
  753MOL0     H 1593   0.768   0.965   5.163 -0.2309  0.0770 -0.9368
  753MOL0     H 1594   0.797   0.716   4.978  3.3770  0.1175 -1.8908
  753MOL0     H 1595   0.874   0.729   5.124  1.8429 -1.5246 -2.3561
  753MOL0     H 1596   0.906   0.912   4.879 -1.4224  3.4754  1.8453
  753MOL0     H 1597   0.991   0.953   5.025  1.5647 -1.4116  1.8562
  753MOL0     H 1598   1.106   0.721   5.013 -0.9513  2.8056  0.5374
  753MOL0     H 1599   0.997   0.665   4.892  1.3643 -0.1963  0.4606
  753MOL0     H 1600   1.104   0.822   4.726  2.8488  1.4420 -1.4676
  753MOL0     H 1601   1.228   0.871   4.847  0.2426  0.0295 -0.4363
  753MOL0     H 1602   1.175   0.593   4.739 -3.1072  2.4044 -0.1647
  753MOL0     H 1603   1.277   0.633   4.869 -0.7256  1.0081 -0.5014
  753MOL0     H 1604   1.395   0.601   4.656  0.7991  1.1201 -3.9221
  753MOL0     H 1605   1.323   0.738   4.585 -0.3793  2.0277  1.4181
  753MOL0     H 1606   1.606   0.638   4.823  0.2022 -1.4782 -0.9906
  753MOL0     H 1607   1.844   0.957   4.793 -0.9886  0.7093  0.5132
  753MOL0     H 1608   1.816   0.840   4.921 -1.2428  0.6041 -0.0133
  753MOL0     H 1609   1.895   0.659   4.777 -4.3019  0.0877 -2.4303
  753MOL0     H 1610   1.893   0.767   4.635 -2.4510 -0.7547  0.6929
  753MOL0     H 1611   2.119   0.718   4.750 -2.2056 -1.0694 -2.1316
  753MOL0     H 1612   2.058   0.841   4.868 -1.4862  1.2901  0.3705
  753MOL0     H 1613   2.055   0.995   4.637 -0.0213 -0.6505 -2.8711
  753MOL0     H 1614   2.123   0.865   4.563  3.7519  2.7325 -1.2012
  753MOL0     H 1615   2.480   1.013   4.821  2.6237  2.5920 -5.8494
  753MOL0     H 1616   2.676   0.879   4.810 -0.4563 -0.9499  0.9967
  753MOL0     H 1617   2.766   0.440   4.891 -2.3234 -0.5052 -0.9786
  753MOL0     H 1618   2.942   0.314   4.963  0.8076 -0.6877  0.4143
  753MOL0     H 1619   3.280   0.226   4.697  0.1990 -1.4915 -0.5522
  753MOL0     H 1620   3.279   0.336   4.833  2.7539 -0.0125 -2.6329
  753MOL0     H 1621   3.325   0.180   4.987  4.2851 -1.0069  1.2136
  753MOL0     H 1622   3.302   0.049   4.867  0.6951  0.9231 -0.2616
  753MOL0     H 1623   3.500   0.099   4.757 -2.3957  1.6198 -0.8753
  753MOL0     H 1624   3.527   0.250   4.864  0.1116  0.6985  0.6906
  753MOL0     H 1625   3.555  -0.045   4.921 -0.1024 -0.4095  1.5673
  753MOL0     H 1626   3.538   0.056   5.056 -0.2059 -1.2158  0.5953
  753MOL0     H 1627   3.733   0.195   4.953 -2.6331  0.9703 -0.4421
  753MOL0     H 1628   3.752   0.045   4.851 -2.8286 -0.0580 -0.1557
  753MOL0     H 1629   3.916   0.032   5.016  1.5985  1.0070  2.4698
  753MOL0     H 1630   3.796   0.097   5.142 -0.0640  1.3151 -0.7963
  753MOL0     H 1631   3.782  -0.185   5.025 -2.9503 -0.1487 -0.3310
  753MOL0     H 1632   3.688  -0.127   5.149 -0.5099  0.5923 -1.0863
  753MOL0     H 1633   4.001  -0.150   5.175 -0.2932  0.8626 -1.8324
  753MOL0     H 1634   3.890  -0.109   5.310 -1.5216  0.1111 -0.4546
  753MOL0     H 1635   3.086   0.249   4.571 -0.5308 -1.5438  0.8338
  753MOL0     H 1636   2.913   0.423   4.480  1.1080 -1.8480 -0.1708
  753MOL0     H 1637   2.481   0.599   4.546  0.1080 -0.3455  0.0489
  753MOL0     H 1638   2.275   0.724   4.553 -0.3354  1.8465 -0.6895
  753MOL0     H 1639   0.358   1.201   4.962 -1.0340 -0.4490 -0.5986
  753MOL0     H 1640   0.128   1.125   4.912  1.3412  1.3532 -0.2144
  753MOL0     H 1641  -0.151   0.569   5.115 -1.1106  1.1243  0.8929
  753MOL0     H 1642  -0.388   0.496   5.096 -1.7575  0.6557  0.7773
  753MOL0     H 1643  -0.628   0.651   4.788  4.3898 -2.2986  0.8962
  753MOL0     H 1644  -0.678   0.744   4.928  0.6832  2.0958 -3.0802
  753MOL0     H 1645  -0.850   0.582   5.001 -1.0217 -0.4501 -0.9068
  753MOL0     H 1646  -0.775   0.445   4.913  0.7671  0.1540 -1.2439
  753MOL0     H 1647  -0.838   0.594   4.710  3.3485 -5.2451  0.4616
  753MOL0     H 1648  -0.940   0.691   4.806 -2.2867 -1.5821 -4.0361
  753MOL0     H 1649  -0.962   0.397   4.740  2.1410 -1.1736  4.1951
  753MOL0     H 1650  -1.033   0.455   4.888 -2.7762 -0.9349 -1.4940
  753MOL0     H 1651  -1.318   0.623   4.651 -0.4426  1.0945  0.8213
  753MOL0     H 1652  -0.486   0.829   4.864  1.6781 -0.2128 -1.2973
  753MOL0     H 1653  -0.194   1.016   4.928  0.9243 -1.9050  0.0908
  753MOL0     H 1654  -0.215   0.939   4.765  1.1272 -1.8790  0.5310
  753MOL0     H 1655  -0.353   1.018   4.856  1.0434  0.6385  0.3752
  754MOL0     O 1656   5.005   1.270   1.585 -0.0063 -0.3674  0.1919
  754MOL0     C 1657   5.101   1.352   1.577 -0.0427  0.4897 -0.4845
  754MOL0     O 1658   5.112   1.471   1.649  0.5439  0.0225  0.7539
  754MOL0     C 1659   5.053   1.500   1.770  0.3720  0.8095  0.1707
  754MOL0     C 1660   5.099   1.613   1.837  0.4448 -0.2096 -0.1530
  754MOL0     C 1661   5.039   1.657   1.960  0.0699 -0.1637  0.9475
  754MOL0     C 1662   4.940   1.578   2.025 -0.5768  0.3857  0.2139
  754MOL0     O 1663   4.879   1.614   2.147  0.3287  0.9221  0.3209
  754MOL0     C 1664   4.892   1.749   2.192 -0.8545 -0.4582 -0.1841
  754MOL0     C 1665   4.799   1.769   2.305  0.2682  0.8661 -0.4351
  754MOL0     C 1666   4.834   1.674   2.430 -0.1245 -0.5556 -0.8382
  754MOL0     C 1667   4.969   1.724   2.490  0.6501 -0.3010  0.1726
  754MOL0     C 1668   4.981   1.683   2.633 -0.8338 -1.4852 -0.2869
  754MOL0     C 1669   5.123   1.704   2.690 -0.4572  0.3695 -0.6508
  754MOL0     C 1670   5.194   1.833   2.659  0.5261 -0.2063  0.4167
  754MOL0     C 1671   5.121   1.966   2.694 -0.2300  1.0373  0.3136
  754MOL0     N 1672   5.209   2.083   2.671 -0.0281 -0.0272  0.0775
  754MOL0     C 1673   5.329   2.123   2.723 -0.1063  0.5833 -0.0702
  754MOL0     C 1674   5.354   2.246   2.669  0.0287 -1.0480 -0.0643
  754MOL0     C 1675   5.476   2.324   2.699 -0.7041  0.0711 -1.2408
  754MOL0     C 1676   5.453   2.450   2.784  0.1638 -0.3981  0.0780
  754MOL0     C 1677   5.372   2.560   2.715  0.4995  1.1950 -0.3356
  754MOL0     C 1678   5.432   2.633   2.596 -0.4277  0.0177  1.1532
  754MOL0     O 1679   5.554   2.684   2.655  0.1329  0.7764 -0.0897
  754MOL0     C 1680   5.639   2.769   2.586 -0.5304 -0.3397  0.6971
  754MOL0     C 1681   5.670   2.765   2.451  0.3199  0.7883 -1.1157
  754MOL0     C 1682   5.756   2.850   2.397 -0.2733 -0.8986  0.3194
  754MOL0     C 1683   5.827   2.946   2.472  0.9912  0.2208 -0.6064
  754MOL0     C 1684   5.930   3.022   2.410  0.1963 -0.2692  0.0030
  754MOL0     O 1685   5.927   3.023   2.276 -0.2619 -0.4666  0.5981
  754MOL0     C 1686   6.033   3.077   2.199  0.5274 -0.6064 -0.1692
  754MOL0     C 1687   6.169   3.056   2.231  1.0347  0.6124 -1.2114
  754MOL0     C 1688   6.267   3.099   2.145  0.0756 -0.1264  1.3023
  754MOL0     C 1689   6.233   3.147   2.016  0.5231 -0.2975  0.2263
  754MOL0     O 1690   6.333   3.164   1.921  0.5360 -0.1621 -0.0437
  754MOL0     C 1691   6.293   3.213   1.790 -0.8353  0.1020 -0.0564
  754MOL0     C 1692   6.427   3.238   1.710  0.6145  0.3901  0.4641
  754MOL0     C 1693   6.489   3.366   1.764  0.4052  0.5588 -0.5524
  754MOL0     C 1694   6.624   3.394   1.699 -0.3903 -0.1759 -0.1544
  754MOL0     C 1695   6.700   3.511   1.767 -0.4402  0.1494 -0.2646
  754MOL0     C 1696   6.846   3.506   1.723  0.1425 -0.5993 -0.6688
  754MOL0     C 1697   6.929   3.629   1.757 -0.3889 -0.4154 -0.6946
  754MOL0     C 1698   7.043   3.647   1.665 -0.4220  1.2944 -0.5399
  754MOL0    Cl 1699   7.159   3.754   1.741 -0.4483  0.1879 -0.0550
  754MOL0     C 1700   6.097   3.161   1.985  0.0892 -0.3150  0.4295
  754MOL0     C 1701   6.000   3.120   2.074 -0.1803 -0.2202 -0.0173
  754MOL0     O 1702   6.011   3.078   2.481 -0.1789 -0.4438 -0.3630
  754MOL0     C 1703   5.792   2.968   2.605  0.5326 -0.2761 -0.1283
  754MOL0     C 1704   5.699   2.869   2.664 -0.6204 -0.0372 -0.8455
  754MOL0     N 1705   5.247   2.281   2.585 -0.1936 -0.0437 -0.0268
  754MOL0     N 1706   5.158   2.181   2.592 -0.0163  0.1305 -0.0854
  754MOL0     C 1707   4.899   1.468   1.958  0.4462 -0.2612 -0.5073
  754MOL0     C 1708   4.950   1.426   1.831  0.2713 -0.8494 -0.7694
  754MOL0     C 1709   5.219   1.325   1.495 -0.4129 -0.7653  1.1706
  754MOL0     C 1710   5.256   1.425   1.401 -0.5805  0.3251 -0.1132
  754MOL0     C 1711   5.357   1.396   1.313  0.0945  0.6052  0.0833
  754MOL0     C 1712   5.431   1.268   1.319  0.2653  0.1593 -0.4691
  754MOL0     O 1713   5.526   1.233   1.231 -0.0658 -0.4763  0.4159
  754MOL0     C 1714   5.484   1.174   1.111  0.0340 -0.5293  0.4776
  754MOL0     C 1715   5.612   1.163   1.027 -0.5565 -0.4386  0.2781
  754MOL0     C 1716   5.733   1.082   1.074  0.3976  0.4621 -0.6142
  754MOL0     C 1717   5.855   1.093   0.981  0.0546 -0.3105 -0.0234
  754MOL0     C 1718   5.898   1.235   0.956 -0.0062  0.5647  0.4184
  754MOL0     C 1719   5.938   1.349   0.946 -0.3482  0.5318  0.0608
  754MOL0     C 1720   5.404   1.178   1.421  0.6398  0.3464  0.6375
  754MOL0     C 1721   5.290   1.201   1.500 -0.2078  0.4903  0.4477
  754MOL0     C 1722   5.249   1.091   1.607 -0.6258  0.7512  0.6008
  754MOL0     H 1723   5.165   1.689   1.798 -0.0914 -0.8643 -2.5066
  754MOL0     H 1724   5.074   1.746   2.012  2.3004 -1.1431  1.2354
  754MOL0     H 1725   4.998   1.762   2.218 -0.8991  1.0878 -0.7324
  754MOL0     H 1726   4.870   1.819   2.112  1.8780 -0.7790 -1.3503
  754MOL0     H 1727   4.699   1.742   2.269  1.2739  1.2846 -3.9149
  754MOL0     H 1728   4.792   1.874   2.338  0.6627 -0.1517  3.3939
  754MOL0     H 1729   4.845   1.567   2.410 -1.9412 -1.5947  2.8024
  754MOL0     H 1730   4.757   1.694   2.505  0.3558  2.4713 -1.0057
  754MOL0     H 1731   5.052   1.690   2.428  3.4098  3.3745  1.5063
  754MOL0     H 1732   4.969   1.832   2.475 -1.4650 -0.2631  0.0332
  754MOL0     H 1733   4.913   1.751   2.685 -0.7779 -2.2611  0.8313
  754MOL0     H 1734   4.953   1.578   2.650  0.6121 -2.2190 -1.9998
  754MOL0     H 1735   5.112   1.701   2.799 -2.7616  1.6358 -0.7978
  754MOL0     H 1736   5.183   1.625   2.645  0.5308  0.0370  1.1413
  754MOL0     H 1737   5.207   1.839   2.550 -0.9594  2.3895  0.2997
  754MOL0     H 1738   5.292   1.832   2.707  0.7764 -1.3408 -0.0843
  754MOL0     H 1739   5.028   1.977   2.639  0.0728 -0.5947 -0.5954
  754MOL0     H 1740   5.096   1.963   2.801 -0.3100 -0.2801  0.2782
  754MOL0     H 1741   5.371   2.066   2.805 -4.2083  0.4900  2.2171
  754MOL0     H 1742   5.546   2.261   2.754  2.4037  2.8366 -1.7247
  754MOL0     H 1743   5.525   2.346   2.604 -0.5629 -2.2761 -1.7764
  754MOL0     H 1744   5.412   2.418   2.880  0.8878  1.8958  1.2144
  754MOL0     H 1745   5.546   2.502   2.809  0.1904 -0.0062 -0.7856
  754MOL0     H 1746   5.335   2.635   2.785 -1.3576 -1.4361  1.7035
  754MOL0     H 1747   5.279   2.508   2.688 -0.6917  2.9706  0.1301
  754MOL0     H 1748   5.367   2.713   2.558  0.7708  0.7123  0.5083
  754MOL0     H 1749   5.447   2.563   2.513 -0.7431  2.6203 -1.2696
  754MOL0     H 1750   5.615   2.691   2.394 -1.0711  1.2799 -0.4522
  754MOL0     H 1751   5.789   2.821   2.298 -0.8891 -1.1707  0.1940
  754MOL0     H 1752   6.195   3.013   2.327 -0.7080  0.1634 -0.9157
  754MOL0     H 1753   6.373   3.091   2.165  0.0683 -1.1511  0.9934
  754MOL0     H 1754   6.233   3.135   1.743 -1.0571  1.6585 -2.5240
  754MOL0     H 1755   6.236   3.306   1.803  0.3934  0.9934 -0.8470
  754MOL0     H 1756   6.496   3.155   1.729  1.1918  1.3266  2.8316
  754MOL0     H 1757   6.410   3.247   1.602 -1.9294 -2.1963  0.5173
  754MOL0     H 1758   6.419   3.447   1.738  0.1203  0.4763 -0.0624
  754MOL0     H 1759   6.512   3.369   1.871 -0.9948 -1.3854 -0.1252
  754MOL0     H 1760   6.610   3.427   1.596 -0.8646  1.6496  0.4495
  754MOL0     H 1761   6.683   3.303   1.705  0.3532  0.3619  1.5463
  754MOL0     H 1762   6.695   3.503   1.876  2.0442 -0.6062 -0.1393
  754MOL0     H 1763   6.658   3.608   1.739 -0.5598 -0.2192 -1.4330
  754MOL0     H 1764   6.890   3.422   1.778  2.4227 -1.4129 -3.5110
  754MOL0     H 1765   6.851   3.478   1.617 -1.7979 -1.6358 -0.5400
  754MOL0     H 1766   6.958   3.619   1.862  2.4135 -2.7819 -1.5389
  754MOL0     H 1767   6.866   3.718   1.749  0.8182  0.6080  0.5274
  754MOL0     H 1768   7.092   3.549   1.661 -0.0372  1.4823 -0.4619
  754MOL0     H 1769   7.019   3.680   1.563 -1.8741  0.8681 -0.3498
  754MOL0     H 1770   6.060   3.202   1.892  1.3653  0.9729  0.4565
  754MOL0     H 1771   5.896   3.108   2.046 -0.8614 -2.5692  2.9527
  754MOL0     H 1772   5.822   3.057   2.658  1.5917  0.6057 -2.1002
  754MOL0     H 1773   5.688   2.856   2.771  1.7171  1.9258 -0.2673
  754MOL0     H 1774   4.809   1.415   1.989  0.9002 -3.9199 -4.4271
  754MOL0     H 1775   4.907   1.342   1.779 -0.8179 -1.0437  0.3740
  754MOL0     H 1776   5.197   1.515   1.390 -0.5457  0.0534 -4.1420
  754MOL0     H 1777   5.354   1.453   1.222 -0.4648 -0.3569 -0.5200
  754MOL0     H 1778   5.406   1.233   1.060  1.0080  0.8101  0.4949
  754MOL0     H 1779   5.439   1.078   1.139  2.5072 -1.1941  2.4758
  754MOL0     H 1780   5.637   1.269   1.019  0.3061 -0.4798  2.0898
  754MOL0     H 1781   5.594   1.130   0.924 -0.4356 -0.5988  0.3068
  754MOL0     H 1782   5.702   0.979   1.089  1.0039  0.2490 -0.7697
  754MOL0     H 1783   5.763   1.127   1.169  0.9670 -2.3025  0.5957
  754MOL0     H 1784   5.941   1.037   1.019  2.9023  3.2287 -0.6706
  754MOL0     H 1785   5.826   1.051   0.885  0.4805  0.5261 -0.5308
  754MOL0     H 1786   5.970   1.451   0.953 -0.8983  1.0366 -3.3481
  754MOL0     H 1787   5.453   1.082   1.429  0.1580 -0.1625 -1.7970
  754MOL0     H 1788   5.146   1.055   1.614  0.5632 -3.0665  0.4973
  754MOL0     H 1789   5.293   0.991   1.598 -0.9277  0.3930  2.5144
  754MOL0     H 1790   5.274   1.137   1.704 -3.2361  0.6353  1.4054
  755MOL0     O 1791   5.442   5.036   6.863  0.1089 -0.6899  0.4556
  755MOL0     C 1792   5.397   5.101   6.760 -0.5443  0.0346  0.0193
  755MOL0     O 1793   5.468   5.192   6.698 -0.8583 -0.1661 -0.2909
  755MOL0     C 1794   5.599   5.190   6.739 -1.3404  0.2044 -0.4107
  755MOL0     C 1795   5.694   5.133   6.655 -0.2307  0.8560 -0.8097
  755MOL0     C 1796   5.835   5.132   6.689  1.1133  0.4211  0.6773
  755MOL0     C 1797   5.877   5.202   6.801  0.7923 -0.2356  0.2297
  755MOL0     O 1798   6.009   5.220   6.838  0.0758 -0.5417  0.3179
  755MOL0     C 1799   6.112   5.180   6.743  0.6379 -0.8730 -0.3674
  755MOL0     C 1800   6.254   5.211   6.789 -0.3100  0.0913 -0.2968
  755MOL0     C 1801   6.334   5.090   6.840  0.6210  0.2480  0.4335
  755MOL0     C 1802   6.270   5.028   6.975  0.1339  0.4482 -0.3111
  755MOL0     C 1803   6.334   4.896   7.024 -0.5956 -0.0733 -0.1672
  755MOL0     C 1804   6.470   4.859   6.975 -0.2929  0.6155  0.1375
  755MOL0     C 1805   6.583   4.938   7.032 -0.1994  0.1070  0.6637
  755MOL0     C 1806   6.706   4.907   6.952 -0.2527  0.3967  0.2239
  755MOL0     N 1807   6.819   4.974   7.015 -0.1533  0.1981 -0.7465
  755MOL0     C 1808   6.844   5.003   7.147 -0.3873  0.1220 -0.1135
  755MOL0     C 1809   6.950   5.092   7.143  0.2273 -0.0530 -0.2846
  755MOL0     C 1810   7.013   5.166   7.252  0.2454 -0.1286  0.6057
  755MOL0     C 1811   7.133   5.087   7.304  0.1297  0.5201 -0.2125
  755MOL0     C 1812   7.252   5.100   7.207 -0.1188 -0.5557 -0.4396
  755MOL0     C 1813   7.375   5.039   7.258 -0.6049 -0.1620  0.4773
  755MOL0     O 1814   7.476   5.088   7.171  0.2021  0.8456 -1.0081
  755MOL0     C 1815   7.601   5.038   7.181 -0.4189 -0.3362 -0.7767
  755MOL0     C 1816   7.695   5.087   7.102 -0.3319  0.2878  0.4118
  755MOL0     C 1817   7.829   5.045   7.097 -0.3456  0.3059 -0.0755
  755MOL0     C 1818   7.864   4.945   7.181  0.1701  0.0370 -0.3847
  755MOL0     C 1819   8.000   4.885   7.169  0.1061 -0.2379 -0.5064
  755MOL0     O 1820   8.014   4.778   7.249  0.0247 -0.3150 -0.3780
  755MOL0     C 1821   8.136   4.734   7.282 -0.5717 -0.6636  1.0970
  755MOL0     C 1822   8.187   4.755   7.409 -0.3112 -0.9071  0.5012
  755MOL0     C 1823   8.308   4.694   7.447 -0.7650 -0.3249 -0.1289
  755MOL0     C 1824   8.384   4.621   7.360 -0.0535  0.0791  0.5766
  755MOL0     O 1825   8.489   4.563   7.415 -0.6328 -0.3153 -0.1092
  755MOL0     C 1826   8.622   4.599   7.371 -0.2797  0.1777 -0.8643
  755MOL0     C 1827   8.665   4.733   7.448  0.1431 -0.0104  0.2902
  755MOL0     C 1828   8.669   4.709   7.603  0.1965  0.0335 -0.5193
  755MOL0     C 1829   8.773   4.805   7.657 -1.0616 -0.0498  1.3249
  755MOL0     C 1830   8.811   4.769   7.801  0.2144  0.5175  0.3888
  755MOL0     C 1831   8.830   4.900   7.883 -1.2493 -0.4300 -1.0175
  755MOL0     C 1832   8.904   4.861   8.014 -0.1394 -0.7809 -1.1552
  755MOL0     C 1833   8.919   4.973   8.118 -0.0328  0.4070  0.1608
  755MOL0    Cl 1834   8.997   5.124   8.035  0.3307 -0.0819  0.0290
  755MOL0     C 1835   8.336   4.599   7.227 -0.5249  0.0914 -0.2527
  755MOL0     C 1836   8.212   4.655   7.190 -0.3165 -0.2475  0.2223
  755MOL0     O 1837   8.081   4.933   7.092  0.2518  0.1931 -1.1164
  755MOL0     C 1838   7.767   4.895   7.266 -0.2876  0.3049  0.0128
  755MOL0     C 1839   7.644   4.944   7.275  0.9764 -0.4374  0.0254
  755MOL0     N 1840   6.993   5.106   7.014 -0.0369 -0.1734 -0.6436
  755MOL0     N 1841   6.909   5.037   6.935 -0.0293 -0.1490  0.2339
  755MOL0     C 1842   5.781   5.270   6.882  0.1248  0.1463 -0.0522
  755MOL0     C 1843   5.645   5.253   6.853  0.8599 -0.7551  0.8703
  755MOL0     C 1844   5.264   5.081   6.728 -0.1434  0.7660  0.3570
  755MOL0     C 1845   5.183   5.189   6.672 -0.4262  0.1296 -0.9901
  755MOL0     C 1846   5.055   5.168   6.636  0.5525 -0.7967 -0.2282
  755MOL0     C 1847   4.997   5.041   6.642 -0.5664 -0.0173 -0.8584
  755MOL0     O 1848   4.862   5.032   6.607  0.0449 -0.1412  0.2122
  755MOL0     C 1849   4.786   4.953   6.694  0.0056  0.3902  0.0715
  755MOL0     C 1850   4.645   4.951   6.645 -0.6290  0.4096 -0.4482
  755MOL0     C 1851   4.548   4.869   6.731 -0.5855 -0.9894  0.4519
  755MOL0     C 1852   4.404   4.860   6.674  0.6277 -0.6462  0.9071
  755MOL0     C 1853   4.403   4.807   6.540 -0.0948  0.1792 -1.0385
  755MOL0     C 1854   4.404   4.765   6.426 -0.6401  1.3688 -0.2391
  755MOL0     C 1855   5.086   4.932   6.674  1.4822 -0.3125 -0.4166
  755MOL0     C 1856   5.214   4.945   6.722 -0.0562 -0.7200  0.0750
  755MOL0     C 1857   5.295   4.822   6.756  0.7941 -0.0127  0.0042
  755MOL0     H 1858   5.651   5.078   6.572  0.9049  1.4818 -1.8398
  755MOL0     H 1859   5.899   5.080   6.619  0.6398  1.7759 -0.8540
  755MOL0     H 1860   6.110   5.072   6.726 -0.2281 -0.9415  0.1122
  755MOL0     H 1861   6.092   5.234   6.650  2.9584 -0.4973 -0.6952
  755MOL0     H 1862   6.241   5.282   6.872 -2.1758 -0.8760  0.2930
  755MOL0     H 1863   6.308   5.256   6.705 -3.4244  1.3941 -1.7660
  755MOL0     H 1864   6.436   5.120   6.865  1.0726 -1.4640  0.8369
  755MOL0     H 1865   6.333   5.018   6.757 -2.3226 -0.1546  0.7260
  755MOL0     H 1866   6.275   5.105   7.053  1.2581  1.6142 -1.4969
  755MOL0     H 1867   6.164   5.006   6.957  0.9559 -1.2694 -3.8660
  755MOL0     H 1868   6.328   4.890   7.133  2.0002  1.0456  0.0945
  755MOL0     H 1869   6.268   4.818   6.986  0.0238 -0.5792 -0.2322
  755MOL0     H 1870   6.482   4.753   6.998  2.4157  0.2090 -2.4137
  755MOL0     H 1871   6.476   4.859   6.865 -0.2274 -0.6619  0.1276
  755MOL0     H 1872   6.600   4.899   7.133  0.0597  1.1454  1.0354
  755MOL0     H 1873   6.570   5.047   7.039 -0.2753  0.0755  1.0422
  755MOL0     H 1874   6.730   4.801   6.962 -0.4284  0.3908  0.6227
  755MOL0     H 1875   6.696   4.942   6.849 -1.6664 -1.1397 -0.1897
  755MOL0     H 1876   6.793   4.959   7.232 -0.4763  1.6174  0.6487
  755MOL0     H 1877   7.041   5.271   7.241 -1.0648  0.3385  1.4479
  755MOL0     H 1878   6.938   5.163   7.332  0.6241  0.3538  0.9835
  755MOL0     H 1879   7.157   5.126   7.403 -1.4447 -0.5107  0.6204
  755MOL0     H 1880   7.104   4.982   7.318  0.5667  0.2490 -1.2583
  755MOL0     H 1881   7.268   5.207   7.190 -1.3231 -0.5974 -2.0353
  755MOL0     H 1882   7.231   5.068   7.105  1.0074 -2.4791 -0.1272
  755MOL0     H 1883   7.358   4.931   7.264 -0.5847 -0.3650 -2.1470
  755MOL0     H 1884   7.390   5.080   7.358 -1.1202  0.1047  0.4499
  755MOL0     H 1885   7.660   5.165   7.036 -2.5096  1.8166  3.1747
  755MOL0     H 1886   7.904   5.081   7.028 -0.1698 -2.1952 -1.2823
  755MOL0     H 1887   8.123   4.822   7.466  0.3251  0.3673 -0.2265
  755MOL0     H 1888   8.344   4.692   7.549 -1.2613 -1.0223  0.0361
  755MOL0     H 1889   8.677   4.509   7.399 -2.3669 -0.7341  0.5062
  755MOL0     H 1890   8.639   4.606   7.263  2.5597  2.7269 -0.4037
  755MOL0     H 1891   8.761   4.780   7.420 -0.0119 -1.1548 -2.4386
  755MOL0     H 1892   8.587   4.807   7.430  1.6399  1.8452  1.0375
  755MOL0     H 1893   8.570   4.725   7.646 -1.6667 -4.1535 -2.6890
  755MOL0     H 1894   8.701   4.605   7.613 -2.1388 -0.6689  0.1794
  755MOL0     H 1895   8.736   4.907   7.639 -2.6092 -0.6259  1.0927
  755MOL0     H 1896   8.870   4.794   7.607 -1.0493  1.5844  0.9016
  755MOL0     H 1897   8.903   4.710   7.793 -1.8205 -3.1526  1.7478
  755MOL0     H 1898   8.733   4.705   7.842 -0.6787  3.3564  3.5285
  755MOL0     H 1899   8.888   4.978   7.833 -0.9284 -0.1802 -0.2615
  755MOL0     H 1900   8.730   4.943   7.892 -0.3857  1.2177  3.3618
  755MOL0     H 1901   9.004   4.828   7.985  1.0885  0.8087  0.9549
  755MOL0     H 1902   8.854   4.781   8.068 -0.3671  0.1990  0.1462
  755MOL0     H 1903   8.822   5.001   8.160  0.1784  1.0542  0.2315
  755MOL0     H 1904   8.976   4.930   8.201 -2.1225 -0.5470  1.1925
  755MOL0     H 1905   8.391   4.532   7.161 -0.7055 -0.0738 -0.2369
  755MOL0     H 1906   8.175   4.631   7.091 -2.5384 -0.2962  0.9999
  755MOL0     H 1907   7.789   4.807   7.326  0.3894  0.0967 -0.5274
  755MOL0     H 1908   7.582   4.894   7.349 -2.4148  2.0991 -0.9132
  755MOL0     H 1909   5.813   5.332   6.965 -3.3917  2.6897 -0.3673
  755MOL0     H 1910   5.568   5.302   6.912 -1.4640  0.9786 -3.1506
  755MOL0     H 1911   5.226   5.288   6.665  0.0339  0.3419  2.7819
  755MOL0     H 1912   4.998   5.256   6.609 -1.0441 -1.4966  0.7344
  755MOL0     H 1913   4.784   4.995   6.795 -0.4019  1.4789 -0.3661
  755MOL0     H 1914   4.827   4.852   6.693  2.3140  1.2430  1.6195
  755MOL0     H 1915   4.652   4.915   6.542 -0.3989  1.5857 -0.8637
  755MOL0     H 1916   4.617   5.056   6.636 -2.1157  0.0528 -0.2409
  755MOL0     H 1917   4.539   4.920   6.827 -1.8578 -0.0574 -0.1267
  755MOL0     H 1918   4.600   4.773   6.739  4.2014  1.1889 -1.0847
  755MOL0     H 1919   4.343   4.796   6.738 -0.1127 -0.8903 -0.0237
  755MOL0     H 1920   4.363   4.961   6.683  1.6773 -0.2655  1.5748
  755MOL0     H 1921   4.401   4.740   6.322 -2.2143  0.9281 -0.1097
  755MOL0     H 1922   5.050   4.831   6.695 -2.7837  1.3663  1.4892
  755MOL0     H 1923   5.254   4.725   6.727  1.2228  1.0152 -4.7601
  755MOL0     H 1924   5.394   4.826   6.710  1.2646 -3.4759  0.4331
  755MOL0     H 1925   5.300   4.826   6.866  0.5647  2.6770 -0.0321
  756MOL0     O 1926   4.901   6.859  10.445  0.0537  0.0786 -0.1986
  756MOL0     C 1927   4.969   6.762  10.409 -0.3443  0.6819  1.2626
  756MOL0     O 1928   5.078   6.776  10.334  0.3015  1.1073  0.0221
  756MOL0     C 1929   5.139   6.889  10.279 -0.3152  0.6913 -0.1095
  756MOL0     C 1930   5.271   6.878  10.262 -0.5614  0.4303 -0.9055
  756MOL0     C 1931   5.347   6.987  10.239  0.0872 -0.8206 -0.1903
  756MOL0     C 1932   5.286   7.113  10.204  0.2108 -0.5618  0.1062
  756MOL0     O 1933   5.362   7.232  10.173  0.3202  0.6243  0.2781
  756MOL0     C 1934   5.497   7.220  10.203 -0.0401  0.9704 -0.2785
  756MOL0     C 1935   5.555   7.372  10.196 -0.1709  0.6780 -0.4181
  756MOL0     C 1936   5.471   7.465  10.281  1.1185 -0.6335  0.8374
  756MOL0     C 1937   5.488   7.461  10.428  0.4023  0.2815 -0.9996
  756MOL0     C 1938   5.370   7.539  10.498 -0.4606 -0.2058 -0.7937
  756MOL0     C 1939   5.406   7.556  10.647  0.2023  0.2443  0.0936
  756MOL0     C 1940   5.316   7.647  10.736 -0.4217  0.2120 -0.2554
  756MOL0     C 1941   5.344   7.790  10.712  1.0157 -0.2628 -0.2694
  756MOL0     N 1942   5.480   7.839  10.753 -0.3089  0.6529 -0.4314
  756MOL0     C 1943   5.526   7.902  10.870  0.6005  0.4562  0.9198
  756MOL0     C 1944   5.656   7.943  10.854  0.6313 -0.3901  0.9976
  756MOL0     C 1945   5.739   8.020  10.945  0.2478 -0.2521 -0.2350
  756MOL0     C 1946   5.784   8.146  10.882 -0.3281 -0.8659  0.0879
  756MOL0     C 1947   5.858   8.237  10.975 -0.0156  0.6584 -0.9495
  756MOL0     C 1948   5.920   8.358  10.903  0.3360  0.6845 -0.3849
  756MOL0     O 1949   5.970   8.444  11.001  0.1060  0.2691  0.5639
  756MOL0     C 1950   6.081   8.403  11.056 -0.2653  0.5008 -0.5477
  756MOL0     C 1951   6.199   8.427  10.983 -0.4955 -0.0844  0.3152
  756MOL0     C 1952   6.320   8.387  11.037 -0.7678 -0.6798  0.0797
  756MOL0     C 1953   6.329   8.325  11.162  0.4990  0.4952  0.6064
  756MOL0     C 1954   6.459   8.281  11.214  0.1040 -0.0968 -0.6784
  756MOL0     O 1955   6.571   8.337  11.165  0.3729 -0.3742  0.8340
  756MOL0     C 1956   6.688   8.302  11.204 -1.3147 -0.5944 -0.2677
  756MOL0     C 1957   6.726   8.170  11.234 -0.5830 -0.4845 -0.0549
  756MOL0     C 1958   6.853   8.140  11.279 -0.4857 -0.2577  0.3277
  756MOL0     C 1959   6.953   8.234  11.282 -0.4620 -0.7996 -0.0582
  756MOL0     O 1960   7.081   8.196  11.310  0.2065 -0.5668 -0.2044
  756MOL0     C 1961   7.180   8.294  11.282 -0.5203 -0.8140 -0.2737
  756MOL0     C 1962   7.328   8.255  11.321  0.5588  0.3492  1.1906
  756MOL0     C 1963   7.372   8.114  11.277 -1.7208  0.1037 -1.0646
  756MOL0     C 1964   7.524   8.099  11.307 -0.0279  0.3108  0.0402
  756MOL0     C 1965   7.552   8.040  11.445 -0.1273 -0.2093  1.2248
  756MOL0     C 1966   7.510   7.893  11.471  0.1122 -0.2955  0.7201
  756MOL0     C 1967   7.508   7.879  11.622  1.0435 -0.1909  0.0351
  756MOL0     C 1968   7.516   7.741  11.690 -0.8002 -0.1082 -0.6180
  756MOL0    Cl 1969   7.421   7.618  11.589  0.0790 -0.0758  0.0561
  756MOL0     C 1970   6.915   8.371  11.255 -0.3532  0.0155  0.6290
  756MOL0     C 1971   6.787   8.400  11.208 -0.0324  0.0742  0.2418
  756MOL0     O 1972   6.455   8.212  11.317  0.2788 -0.1295 -0.5349
  756MOL0     C 1973   6.207   8.314  11.239 -0.5077 -0.8444  0.9184
  756MOL0     C 1974   6.086   8.345  11.180  0.1124 -0.0248 -0.1096
  756MOL0     N 1975   5.686   7.918  10.722 -1.0654 -0.2822 -0.0171
  756MOL0     N 1976   5.583   7.861  10.667  0.6167  0.1024  1.7174
  756MOL0     C 1977   5.149   7.116  10.202  0.5403  1.2174  0.6436
  756MOL0     C 1978   5.079   7.004  10.241  0.0917  0.4226 -0.1752
  756MOL0     C 1979   4.934   6.613  10.428  0.5751 -0.0375  0.4043
  756MOL0     C 1980   5.037   6.513  10.413 -0.1641  0.4322 -0.2447
  756MOL0     C 1981   5.004   6.384  10.422  1.3742  0.3354  0.3134
  756MOL0     C 1982   4.875   6.336  10.447  0.7222  0.7431 -0.4087
  756MOL0     O 1983   4.860   6.198  10.452  0.6455  0.1783  0.3065
  756MOL0     C 1984   4.740   6.143  10.501 -0.0836  0.2492 -0.7263
  756MOL0     C 1985   4.749   6.146  10.653 -0.5252 -0.0792 -0.5574
  756MOL0     C 1986   4.624   6.130  10.741  0.3754  0.3114  0.2967
  756MOL0     C 1987   4.558   5.987  10.729 -0.0264  0.3129 -0.3401
  756MOL0     C 1988   4.477   5.984  10.603  0.1008  0.4699 -0.0604
  756MOL0     C 1989   4.398   5.981  10.513  0.2598  0.0456  0.9419
  756MOL0     C 1990   4.771   6.429  10.469 -0.7156 -0.1761  0.3755
  756MOL0     C 1991   4.804   6.567  10.456  0.1432 -0.0735  0.0645
  756MOL0     C 1992   4.691   6.666  10.478 -0.2576  0.0868 -0.0229
  756MOL0     H 1993   5.318   6.781  10.275 -1.5751 -0.1673 -1.5839
  756MOL0     H 1994   5.450   6.960  10.257  0.0381 -0.5143  0.5861
  756MOL0     H 1995   5.522   7.185  10.304 -0.2472  1.2194 -0.1402
  756MOL0     H 1996   5.539   7.158  10.124 -1.8446 -0.9107  0.1479
  756MOL0     H 1997   5.542   7.409  10.094 -1.7655  0.4397 -0.3132
  756MOL0     H 1998   5.661   7.370  10.226 -0.3093  0.8119  0.0857
  756MOL0     H 1999   5.364   7.454  10.265  0.7291  0.0838  2.6827
  756MOL0     H 2000   5.497   7.564  10.243  1.9986 -1.4011 -0.6573
  756MOL0     H 2001   5.489   7.355  10.454 -0.7040  0.3830 -0.4884
  756MOL0     H 2002   5.579   7.509  10.466 -0.7542  1.8490 -0.0635
  756MOL0     H 2003   5.358   7.637  10.453  3.2129 -0.0555 -1.7190
  756MOL0     H 2004   5.273   7.489  10.485 -0.0225 -1.5187  0.6332
  756MOL0     H 2005   5.406   7.453  10.685  1.1010 -1.2252 -3.4180
  756MOL0     H 2006   5.509   7.592  10.651  0.2216  1.0868 -3.9292
  756MOL0     H 2007   5.344   7.637  10.841  4.0746  1.8186 -1.0771
  756MOL0     H 2008   5.214   7.614  10.714 -1.3671  1.1204  2.4088
  756MOL0     H 2009   5.319   7.808  10.607  0.4363 -0.3463 -0.1493
  756MOL0     H 2010   5.264   7.840  10.767 -1.9135 -0.2800 -4.1143
  756MOL0     H 2011   5.464   7.918  10.958 -3.4720 -0.5312 -1.5143
  756MOL0     H 2012   5.686   8.055  11.034  2.7071  2.0517  0.4789
  756MOL0     H 2013   5.834   7.967  10.962  2.2369  2.6909 -1.3825
  756MOL0     H 2014   5.843   8.120  10.794 -1.0426  1.2176 -1.0647
  756MOL0     H 2015   5.701   8.201  10.837  0.4560 -2.0695 -3.0704
  756MOL0     H 2016   5.933   8.178  11.030  2.0096  1.1673 -3.0181
  756MOL0     H 2017   5.781   8.277  11.042 -0.9383 -0.9199 -1.0248
  756MOL0     H 2018   5.837   8.411  10.855 -1.3533 -2.5359 -1.2648
  756MOL0     H 2019   5.997   8.322  10.835  1.2047 -1.2342  1.5104
  756MOL0     H 2020   6.206   8.489  10.895  1.9618  2.2746  2.0275
  756MOL0     H 2021   6.410   8.418  10.985 -3.0871  3.1635 -2.0374
  756MOL0     H 2022   6.649   8.094  11.227  0.5676 -2.0080  2.4618
  756MOL0     H 2023   6.873   8.035  11.297 -0.4402 -0.3030  0.0221
  756MOL0     H 2024   7.181   8.319  11.175  0.5483 -0.5776 -0.2167
  756MOL0     H 2025   7.168   8.385  11.340  1.7588  0.3598 -1.5109
  756MOL0     H 2026   7.401   8.330  11.288  2.1042 -0.3313  2.8565
  756MOL0     H 2027   7.334   8.257  11.431  0.7482  2.0516  1.1799
  756MOL0     H 2028   7.304   8.041  11.321 -1.0525 -0.7522 -1.4318
  756MOL0     H 2029   7.364   8.108  11.168 -0.4959 -2.5449 -1.0849
  756MOL0     H 2030   7.575   8.194  11.322  1.2748 -0.4796  0.9315
  756MOL0     H 2031   7.579   8.046  11.228 -0.1373  1.7506 -1.0270
  756MOL0     H 2032   7.508   8.109  11.518 -0.3262 -0.5356  1.4160
  756MOL0     H 2033   7.657   8.038  11.475 -0.0665  0.2650  1.0436
  756MOL0     H 2034   7.411   7.874  11.429 -0.1163 -2.4502  2.0676
  756MOL0     H 2035   7.580   7.816  11.439 -0.6894 -0.5532 -0.4746
  756MOL0     H 2036   7.413   7.926  11.651  1.0448 -0.6929  0.8747
  756MOL0     H 2037   7.590   7.936  11.667  1.0279  0.2991 -0.5426
  756MOL0     H 2038   7.618   7.701  11.682 -1.4575 -1.4432 -3.7304
  756MOL0     H 2039   7.501   7.748  11.798  4.2499 -0.1407  0.3291
  756MOL0     H 2040   6.988   8.451  11.257 -0.9215  0.7060 -2.1376
  756MOL0     H 2041   6.766   8.500  11.172  1.5904  0.7957  1.1788
  756MOL0     H 2042   6.209   8.272  11.338  0.8788 -3.8669 -0.2715
  756MOL0     H 2043   5.994   8.318  11.233 -1.4296  0.3518 -2.4508
  756MOL0     H 2044   5.088   7.200  10.169 -0.3707  0.8707  1.4283
  756MOL0     H 2045   4.973   7.008  10.261  0.4007 -2.1668  2.6246
  756MOL0     H 2046   5.141   6.537  10.394 -0.5380  1.7180 -0.8133
  756MOL0     H 2047   5.076   6.304  10.405 -1.2982 -1.6929 -2.8630
  756MOL0     H 2048   4.711   6.042  10.472 -1.4718 -0.0783  1.5579
  756MOL0     H 2049   4.650   6.195  10.466  0.2146 -0.3111 -2.4094
  756MOL0     H 2050   4.793   6.240  10.688  1.7068 -1.0236 -0.6716
  756MOL0     H 2051   4.820   6.066  10.678  0.5017  1.5947  2.3916
  756MOL0     H 2052   4.547   6.205  10.718 -1.5407 -1.6616 -0.0152
  756MOL0     H 2053   4.651   6.149  10.846  3.1219 -1.9773  0.1050
  756MOL0     H 2054   4.634   5.909  10.721  1.7406  2.0223 -1.2978
  756MOL0     H 2055   4.489   5.965  10.811 -0.6758  3.6508  0.1880
  756MOL0     H 2056   4.318   5.976  10.442 -1.7873  2.6179  2.8699
  756MOL0     H 2057   4.665   6.414  10.486 -1.5306  3.3135 -0.8828
  756MOL0     H 2058   4.598   6.618  10.510 -0.3937  0.7761  0.6366
  756MOL0     H 2059   4.719   6.733  10.560 -1.7558 -2.2335  2.5846
  756MOL0     H 2060   4.678   6.713  10.381 -0.1672 -0.8053 -0.4800
  757MOL0     O 2061   4.911   9.290   1.266 -0.5887 -0.1777  0.1027
  757MOL0     C 2062   4.907   9.377   1.348  1.1410  0.7021 -0.4584
  757MOL0     O 2063   5.010   9.455   1.376 -0.0197 -0.3077  0.0504
  757MOL0     C 2064   5.135   9.430   1.333  0.1207  0.1191  0.2597
  757MOL0     C 2065   5.216   9.545   1.311 -0.0504  0.5494 -0.6938
  757MOL0     C 2066   5.352   9.536   1.273 -0.6138  0.0890 -0.4002
  757MOL0     C 2067   5.411   9.409   1.245  0.9437 -0.3351  0.3882
  757MOL0     O 2068   5.537   9.392   1.200 -0.0508  0.2479  0.3145
  757MOL0     C 2069   5.640   9.474   1.247  0.6481  1.1521  0.2617
  757MOL0     C 2070   5.735   9.517   1.135  0.3797  0.0601 -0.5433
  757MOL0     C 2071   5.803   9.392   1.073 -0.0323  0.8714 -0.0634
  757MOL0     C 2072   5.930   9.440   0.997 -0.1999  0.7853  0.5494
  757MOL0     C 2073   6.010   9.317   0.940  0.1349  0.9002  0.4015
  757MOL0     C 2074   6.132   9.353   0.842  0.7846  0.4598 -0.7123
  757MOL0     C 2075   6.091   9.344   0.695 -0.1836  0.7274  0.4876
  757MOL0     C 2076   6.196   9.414   0.604 -1.1585 -0.5872 -0.1135
  757MOL0     N 2077   6.344   9.374   0.621  0.4096 -0.6825 -0.5524
  757MOL0     C 2078   6.456   9.453   0.649 -0.2315 -0.2624  0.8559
  757MOL0     C 2079   6.554   9.369   0.649 -0.1701  0.5850 -0.3144
  757MOL0     C 2080   6.702   9.400   0.662 -0.1771  0.1596  0.5180
  757MOL0     C 2081   6.755   9.452   0.529  0.6044 -0.5952  0.4478
  757MOL0     C 2082   6.734   9.354   0.410  1.0085 -0.4193  0.1935
  757MOL0     C 2083   6.809   9.384   0.283 -0.2486  0.9834 -0.6637
  757MOL0     O 2084   6.787   9.513   0.243 -0.0997 -0.1103 -0.3669
  757MOL0     C 2085   6.891   9.570   0.174  0.2194  0.4132 -0.4369
  757MOL0     C 2086   6.999   9.502   0.110 -0.3190  0.1183  0.1485
  757MOL0     C 2087   7.093   9.575   0.035  0.1747  0.5921 -1.0002
  757MOL0     C 2088   7.080   9.713   0.020  1.1080 -0.6731  1.0559
  757MOL0     C 2089   7.177   9.796  -0.057 -0.1888  0.1134 -0.1089
  757MOL0     O 2090   7.291   9.730  -0.094  0.6047 -0.1779 -0.2263
  757MOL0     C 2091   7.393   9.819  -0.121 -0.4729 -0.1632 -0.6502
  757MOL0     C 2092   7.461   9.871  -0.009 -0.5872  0.3324  0.0259
  757MOL0     C 2093   7.578   9.947  -0.029  1.1478 -1.2173  0.4823
  757MOL0     C 2094   7.618   9.969  -0.158  0.2827  0.1909 -0.0182
  757MOL0     O 2095   7.726  10.046  -0.162 -0.3430 -0.5040  0.0736
  757MOL0     C 2096   7.837  10.014  -0.249 -0.3598  0.3247  0.0324
  757MOL0     C 2097   7.964  10.078  -0.199 -0.2857 -0.0471  0.0843
  757MOL0     C 2098   8.094  10.038  -0.284  0.6672 -0.5545  0.4038
  757MOL0     C 2099   8.218  10.106  -0.223  0.1832  0.1812 -0.4157
  757MOL0     C 2100   8.350  10.064  -0.293  0.7174  0.4135  0.1001
  757MOL0     C 2101   8.375  10.139  -0.421 -0.5668  0.5675  0.4761
  757MOL0     C 2102   8.491  10.083  -0.505 -0.2737 -0.7705 -0.0723
  757MOL0     C 2103   8.569  10.202  -0.575 -0.9396 -0.5240 -0.2804
  757MOL0    Cl 2104   8.656  10.301  -0.447 -0.2635 -0.0499  0.2415
  757MOL0     C 2105   7.556   9.915  -0.272  0.4728  0.8428  0.7521
  757MOL0     C 2106   7.443   9.838  -0.253  0.5118  0.2445 -0.5783
  757MOL0     O 2107   7.147   9.909  -0.091 -0.5649 -0.5152  0.3717
  757MOL0     C 2108   6.967   9.775   0.074 -1.4348  0.5183  0.7884
  757MOL0     C 2109   6.884   9.708   0.153  0.4304 -0.2071  0.7471
  757MOL0     N 2110   6.506   9.246   0.622 -0.5008  0.6692 -0.1117
  757MOL0     N 2111   6.382   9.248   0.603  0.3431 -0.8385 -0.5011
  757MOL0     C 2112   5.331   9.294   1.263 -0.7912  0.2130 -0.0945
  757MOL0     C 2113   5.197   9.305   1.306  0.7706 -0.1867  0.0514
  757MOL0     C 2114   4.795   9.378   1.447  0.2887  0.3644 -0.6466
  757MOL0     C 2115   4.734   9.254   1.466 -0.3442  0.2904 -0.5195
  757MOL0     C 2116   4.619   9.237   1.543 -0.4992 -0.0731  0.1560
  757MOL0     C 2117   4.574   9.343   1.623  0.5579 -0.4588 -0.6820
  757MOL0     O 2118   4.475   9.318   1.722  0.9553 -0.3334  0.2065
  757MOL0     C 2119   4.358   9.246   1.680  0.3575  0.0468 -0.0426
  757MOL0     C 2120   4.218   9.314   1.708  0.2533 -0.7978 -0.2235
  757MOL0     C 2121   4.101   9.218   1.665 -0.3844  0.4565 -0.1073
  757MOL0     C 2122   3.979   9.294   1.625  0.0799 -0.4470 -0.5109
  757MOL0     C 2123   3.920   9.362   1.744  0.4248 -0.1297 -0.6384
  757MOL0     C 2124   3.886   9.435   1.829  0.0863 -0.0234  0.3560
  757MOL0     C 2125   4.643   9.467   1.618 -0.3499 -0.2927 -0.1853
  757MOL0     C 2126   4.752   9.488   1.535 -0.3061  0.2136 -0.6429
  757MOL0     C 2127   4.814   9.617   1.544 -0.5213 -0.7524  0.1844
  757MOL0     H 2128   5.174   9.643   1.328 -1.7948 -0.2463 -0.1814
  757MOL0     H 2129   5.412   9.625   1.255 -0.3301 -0.0898 -0.3399
  757MOL0     H 2130   5.606   9.567   1.293  1.4190  1.9167 -0.6662
  757MOL0     H 2131   5.691   9.409   1.319 -0.7220 -0.8433 -0.4901
  757MOL0     H 2132   5.810   9.585   1.175 -2.5042  1.3136  3.3982
  757MOL0     H 2133   5.676   9.571   1.060 -1.8111 -2.1630 -0.5454
  757MOL0     H 2134   5.740   9.329   1.011 -0.0198  2.8099 -2.1558
  757MOL0     H 2135   5.828   9.322   1.154  0.2802  2.3089  1.1241
  757MOL0     H 2136   5.895   9.501   0.913 -3.1478 -0.4793  0.7347
  757MOL0     H 2137   5.989   9.500   1.067  1.0749 -1.8269  1.8620
  757MOL0     H 2138   6.053   9.254   1.018  0.8885  0.0771 -0.6525
  757MOL0     H 2139   5.947   9.244   0.890 -2.9181  2.0588  2.2522
  757MOL0     H 2140   6.146   9.459   0.865 -0.9457  0.8149 -1.1238
  757MOL0     H 2141   6.218   9.291   0.868  0.6465  0.5679  0.0055
  757MOL0     H 2142   5.996   9.392   0.670  0.5624  0.9682 -2.1130
  757MOL0     H 2143   6.081   9.240   0.662  0.3733  1.4155 -2.0495
  757MOL0     H 2144   6.159   9.395   0.503 -1.6972  1.9986 -0.4862
  757MOL0     H 2145   6.185   9.521   0.628 -0.5862 -0.9998  2.3014
  757MOL0     H 2146   6.466   9.560   0.661  0.5770 -0.3140  0.7121
  757MOL0     H 2147   6.719   9.481   0.732  2.0380  0.2120 -0.0070
  757MOL0     H 2148   6.759   9.310   0.687  0.6787 -0.2042 -2.3777
  757MOL0     H 2149   6.705   9.547   0.504  1.5772  0.0007  0.7377
  757MOL0     H 2150   6.859   9.469   0.558  0.2102  1.6202  0.7185
  757MOL0     H 2151   6.630   9.350   0.377  0.9339 -0.0539  0.3905
  757MOL0     H 2152   6.748   9.248   0.436  3.5682  0.2179  1.7581
  757MOL0     H 2153   6.785   9.314   0.203 -0.0577  1.1809 -0.8953
  757MOL0     H 2154   6.914   9.363   0.307  0.2593  2.3552 -1.5738
  757MOL0     H 2155   7.006   9.394   0.115 -0.2255  0.1782  3.1848
  757MOL0     H 2156   7.171   9.513  -0.007  0.7372 -0.2416  1.1098
  757MOL0     H 2157   7.419   9.851   0.089 -1.4573 -0.7732 -0.5584
  757MOL0     H 2158   7.630   9.999   0.052  1.3632 -1.5368  0.5533
  757MOL0     H 2159   7.854   9.907  -0.255 -0.3980  0.3664 -1.0434
  757MOL0     H 2160   7.815  10.035  -0.354 -0.5707 -1.1289 -0.2238
  757MOL0     H 2161   7.946  10.186  -0.204 -1.7679 -0.3012 -1.0951
  757MOL0     H 2162   7.972  10.033  -0.100 -1.0199 -1.4634 -0.4606
  757MOL0     H 2163   8.102   9.929  -0.298 -2.9738 -0.9406  0.1430
  757MOL0     H 2164   8.087  10.077  -0.386  2.8987  0.6932  0.6650
  757MOL0     H 2165   8.229  10.061  -0.124  2.2466 -1.0802 -1.1552
  757MOL0     H 2166   8.205  10.214  -0.214 -3.3414 -0.1064 -0.8308
  757MOL0     H 2167   8.350   9.955  -0.296 -0.0847  0.4323 -1.3322
  757MOL0     H 2168   8.429  10.085  -0.220  0.2415  0.2093  0.6784
  757MOL0     H 2169   8.289  10.125  -0.487  0.6592 -1.1642 -0.8586
  757MOL0     H 2170   8.378  10.245  -0.396  0.5694  0.5624  0.4321
  757MOL0     H 2171   8.457  10.004  -0.573 -0.5723  1.0649 -2.1801
  757MOL0     H 2172   8.554  10.037  -0.428 -0.7103  0.5952  1.1354
  757MOL0     H 2173   8.640  10.154  -0.643 -0.5905  0.3455 -0.5407
  757MOL0     H 2174   8.498  10.266  -0.627 -0.2151  2.4461  2.0896
  757MOL0     H 2175   7.587   9.928  -0.376 -4.9577 -0.7599 -1.4123
  757MOL0     H 2176   7.387   9.790  -0.332  1.0910 -1.8669  0.2008
  757MOL0     H 2177   6.957   9.881   0.053  0.9976  1.0000  1.7766
  757MOL0     H 2178   6.802   9.762   0.200 -1.0086 -0.7263 -1.0764
  757MOL0     H 2179   5.361   9.192   1.241 -2.0922 -0.7332  2.2024
  757MOL0     H 2180   5.130   9.220   1.314  0.5843 -0.4461 -3.0787
  757MOL0     H 2181   4.757   9.163   1.412 -0.3248 -0.4166  0.6345
  757MOL0     H 2182   4.574   9.139   1.557 -0.5664 -0.1692 -0.7036
  757MOL0     H 2183   4.363   9.150   1.732  1.8118  1.9737  3.8016
  757MOL0     H 2184   4.346   9.232   1.572 -1.7368 -1.0019  0.2791
  757MOL0     H 2185   4.225   9.398   1.638  2.5948 -1.9798 -1.5394
  757MOL0     H 2186   4.213   9.360   1.808 -1.6934 -0.0837 -0.6061
  757MOL0     H 2187   4.079   9.151   1.748  0.6876  1.9719  1.4625
  757MOL0     H 2188   4.137   9.165   1.576  2.3579 -0.2325  1.2923
  757MOL0     H 2189   4.011   9.369   1.552 -0.3408  1.4453  1.1715
  757MOL0     H 2190   3.908   9.232   1.570  0.7488 -0.5268 -1.3224
  757MOL0     H 2191   3.860   9.504   1.906 -2.3518 -0.9935  0.4776
  757MOL0     H 2192   4.604   9.543   1.685  2.6736  0.4035  0.9605
  757MOL0     H 2193   4.793   9.659   1.445 -0.9603  1.0289  0.9875
  757MOL0     H 2194   4.774   9.676   1.627  0.5386  1.5574 -0.8590
  757MOL0     H 2195   4.922   9.618   1.559 -0.7193  0.0321  1.7996
  758MOL0     O 2196   3.767   8.268   1.373 -0.2216  0.5825  0.2607
  758MOL0     C 2197   3.790   8.186   1.467  0.7407 -0.0830 -0.5991
  758MOL0     O 2198   3.691   8.135   1.550 -0.2794  0.1287  0.0384
  758MOL0     C 2199   3.563   8.120   1.508  0.7673 -0.3056 -0.2798
  758MOL0     C 2200   3.466   8.132   1.618 -0.2248  0.1328  0.7261
  758MOL0     C 2201   3.331   8.106   1.601  0.4089  0.0422 -0.2960
  758MOL0     C 2202   3.290   8.078   1.471  0.1971 -1.0099  0.0635
  758MOL0     O 2203   3.157   8.044   1.454 -0.1319 -0.8572 -0.1902
  758MOL0     C 2204   3.059   8.148   1.503  0.7033  0.2771  0.7474
  758MOL0     C 2205   2.922   8.104   1.502 -0.3842  0.1115  0.7339
  758MOL0     C 2206   2.818   8.214   1.533 -0.6684 -0.3242  0.1901
  758MOL0     C 2207   2.674   8.149   1.552 -0.1620  0.2294 -0.6601
  758MOL0     C 2208   2.570   8.248   1.589 -0.7336  0.4462 -0.1995
  758MOL0     C 2209   2.436   8.176   1.645 -0.6550 -0.3830  0.0731
  758MOL0     C 2210   2.427   8.172   1.795 -0.0848  0.4280 -0.7508
  758MOL0     C 2211   2.312   8.081   1.844  0.7990 -0.4815 -0.5124
  758MOL0     N 2212   2.357   7.947   1.830  0.6155 -0.0044 -0.3701
  758MOL0     C 2213   2.460   7.884   1.895 -0.0995 -0.5000  0.4105
  758MOL0     C 2214   2.480   7.769   1.834  0.8062  0.2277 -0.1262
  758MOL0     C 2215   2.572   7.653   1.866 -0.7067 -0.0349 -0.2247
  758MOL0     C 2216   2.720   7.693   1.838 -0.3180  1.0015  0.0542
  758MOL0     C 2217   2.742   7.718   1.684  0.6182 -0.0776 -0.8086
  758MOL0     C 2218   2.878   7.757   1.655 -1.0042 -0.9448  0.3782
  758MOL0     O 2219   2.971   7.658   1.692 -0.6081 -0.1553  0.4208
  758MOL0     C 2220   3.096   7.689   1.733 -0.1887 -0.4966 -0.3707
  758MOL0     C 2221   3.189   7.586   1.755 -0.2499  0.0785 -0.4120
  758MOL0     C 2222   3.314   7.596   1.807 -0.7120 -0.9286  0.6312
  758MOL0     C 2223   3.360   7.726   1.828  0.2849 -0.1835 -0.2820
  758MOL0     C 2224   3.506   7.743   1.867  0.3181 -0.4297  0.4294
  758MOL0     O 2225   3.556   7.869   1.872 -0.3048 -0.5505 -0.3392
  758MOL0     C 2226   3.691   7.895   1.897 -0.0987  0.9469 -0.7628
  758MOL0     C 2227   3.737   8.010   1.955 -0.1751 -0.9078 -0.1414
  758MOL0     C 2228   3.872   8.040   1.971  0.7634 -0.8163  0.1967
  758MOL0     C 2229   3.970   7.946   1.950  0.3177  0.1632  1.5420
  758MOL0     O 2230   4.099   7.962   1.985 -1.0197  0.4108  0.4998
  758MOL0     C 2231   4.152   8.072   2.060  0.2353 -0.5994 -0.0256
  758MOL0     C 2232   4.301   8.070   2.075  0.3472 -0.5068  0.3960
  758MOL0     C 2233   4.357   8.100   2.215  0.2885 -0.2685 -0.9544
  758MOL0     C 2234   4.505   8.091   2.227 -0.0280 -0.3336 -0.2730
  758MOL0     C 2235   4.557   8.112   2.374  0.5456  0.4597  0.4230
  758MOL0     C 2236   4.692   8.173   2.371  0.5858  0.3325 -0.8311
  758MOL0     C 2237   4.764   8.178   2.511  0.1116  0.4572 -0.0007
  758MOL0     C 2238   4.912   8.178   2.503  0.2963  0.2607 -0.5754
  758MOL0    Cl 2239   4.988   8.194   2.656  0.0095 -0.2862 -0.1142
  758MOL0     C 2240   3.928   7.826   1.894  0.5655  0.2948  0.7997
  758MOL0     C 2241   3.797   7.810   1.859  0.6277 -0.4832 -0.1255
  758MOL0     O 2242   3.553   7.648   1.924 -0.3115  0.4179 -0.1665
  758MOL0     C 2243   3.280   7.839   1.791 -0.1268 -0.4026  0.4471
  758MOL0     C 2244   3.152   7.821   1.740 -0.6444  0.5362  0.1532
  758MOL0     N 2245   2.377   7.759   1.737  0.3862 -0.2587 -1.3083
  758MOL0     N 2246   2.309   7.867   1.734 -0.4973 -0.0808  0.1452
  758MOL0     C 2247   3.379   8.073   1.360  0.4469 -0.4378 -0.6544
  758MOL0     C 2248   3.513   8.089   1.381 -0.1834 -0.0214  0.1460
  758MOL0     C 2249   3.924   8.145   1.495 -0.2390  0.9603 -0.0587
  758MOL0     C 2250   3.983   8.173   1.623 -0.1949  0.5826 -0.0966
  758MOL0     C 2251   4.116   8.142   1.643 -0.2999 -0.1743 -0.3307
  758MOL0     C 2252   4.204   8.068   1.555  0.2495 -0.1237  0.2122
  758MOL0     O 2253   4.334   8.022   1.584  0.1409  0.7900 -0.0060
  758MOL0     C 2254   4.371   8.002   1.725  0.8815  0.3769  0.1008
  758MOL0     C 2255   4.505   7.942   1.742 -0.2485 -0.0147 -0.0094
  758MOL0     C 2256   4.609   8.038   1.673  0.1661  0.0037 -0.4205
  758MOL0     C 2257   4.745   7.959   1.632 -0.0027  0.2240 -0.0832
  758MOL0     C 2258   4.853   8.058   1.613  0.7290  0.3902  0.2754
  758MOL0     C 2259   4.935   8.140   1.579  0.0905  0.7587  0.0335
  758MOL0     C 2260   4.151   8.052   1.427  1.0193 -0.1764 -0.1457
  758MOL0     C 2261   4.011   8.083   1.400 -0.1925 -0.6822  0.2380
  758MOL0     C 2262   3.958   8.054   1.262  0.1635 -0.1311 -0.7099
  758MOL0     H 2263   3.502   8.162   1.716 -0.2462  1.2415  0.4062
  758MOL0     H 2264   3.256   8.116   1.679 -0.7187  0.3380 -1.3800
  758MOL0     H 2265   3.082   8.181   1.605  3.2439 -2.1726  1.1120
  758MOL0     H 2266   3.063   8.231   1.433  1.0560  0.2707  0.7563
  758MOL0     H 2267   2.919   8.019   1.571  0.0441  0.2205  0.8933
  758MOL0     H 2268   2.901   8.061   1.404 -4.3264  2.0222  0.5770
  758MOL0     H 2269   2.829   8.277   1.445 -2.2825 -1.9990 -1.3081
  758MOL0     H 2270   2.851   8.274   1.618 -1.1508 -2.9586  2.3959
  758MOL0     H 2271   2.648   8.095   1.461  3.7959 -2.0980 -0.6205
  758MOL0     H 2272   2.682   8.072   1.629  2.9489  1.0518 -0.0194
  758MOL0     H 2273   2.608   8.318   1.665  1.9417 -1.7955  0.7105
  758MOL0     H 2274   2.557   8.294   1.491  1.5132 -1.0351 -1.2777
  758MOL0     H 2275   2.351   8.237   1.612  1.3389  1.6311 -1.6871
  758MOL0     H 2276   2.432   8.073   1.609 -0.3079 -1.0861  1.9156
  758MOL0     H 2277   2.412   8.274   1.830  2.3628  0.8960 -0.8436
  758MOL0     H 2278   2.517   8.128   1.839  0.5527  1.5894 -0.8442
  758MOL0     H 2279   2.285   8.099   1.948  1.2891 -1.9930 -0.0999
  758MOL0     H 2280   2.221   8.086   1.783  0.0112 -2.1080  0.4604
  758MOL0     H 2281   2.524   7.930   1.969  0.8971  1.2669 -1.4309
  758MOL0     H 2282   2.580   7.636   1.974 -0.0745  0.6376 -0.1573
  758MOL0     H 2283   2.541   7.558   1.820 -0.2180  1.2912 -3.5585
  758MOL0     H 2284   2.746   7.776   1.905  0.9862 -0.7976  1.8946
  758MOL0     H 2285   2.786   7.606   1.851 -1.8291  0.0080  1.3648
  758MOL0     H 2286   2.672   7.797   1.656  1.6606  0.9531 -0.5517
  758MOL0     H 2287   2.718   7.630   1.623 -0.0467 -1.0494  0.7819
  758MOL0     H 2288   2.889   7.852   1.709 -2.0008 -1.0849  0.8463
  758MOL0     H 2289   2.882   7.777   1.548  0.1636 -2.4189  0.1226
  758MOL0     H 2290   3.151   7.485   1.747 -1.5628  0.3393  1.7250
  758MOL0     H 2291   3.380   7.515   1.838  2.5506  2.0867  2.2934
  758MOL0     H 2292   3.662   8.083   1.986  2.0243  1.4967 -0.0990
  758MOL0     H 2293   3.903   8.135   2.013 -3.1402  1.4440 -1.5349
  758MOL0     H 2294   4.124   8.171   2.024  3.1586  0.7160  1.0315
  758MOL0     H 2295   4.117   8.062   2.163  0.5375  0.1759  0.1576
  758MOL0     H 2296   4.352   7.983   2.033  2.0846  0.3032  0.7621
  758MOL0     H 2297   4.329   8.144   1.999  3.6144 -3.1560 -1.2306
  758MOL0     H 2298   4.328   8.201   2.242  1.1886  0.2343 -1.8011
  758MOL0     H 2299   4.304   8.042   2.291  1.3805  0.5217  0.4698
  758MOL0     H 2300   4.542   8.173   2.164 -1.2737  0.1162 -0.4357
  758MOL0     H 2301   4.539   7.993   2.193  1.0412 -1.5784  3.7711
  758MOL0     H 2302   4.558   8.020   2.434  1.6359  0.8881  1.0953
  758MOL0     H 2303   4.499   8.184   2.434  0.3809  1.4557 -0.8962
  758MOL0     H 2304   4.749   8.121   2.294  2.1673  2.6855 -1.3532
  758MOL0     H 2305   4.679   8.276   2.337 -2.6133 -0.1418 -1.4439
  758MOL0     H 2306   4.731   8.093   2.571 -0.1432 -1.2633 -2.4752
  758MOL0     H 2307   4.733   8.270   2.562  0.0680  0.3428  0.1816
  758MOL0     H 2308   4.953   8.088   2.456 -2.9961 -2.0843  0.6085
  758MOL0     H 2309   4.940   8.263   2.441  0.1916  0.9565  0.3225
  758MOL0     H 2310   3.994   7.747   1.858  1.7187  0.9983  1.3167
  758MOL0     H 2311   3.770   7.724   1.799  0.5681 -0.6564  0.1452
  758MOL0     H 2312   3.326   7.936   1.808 -0.1913 -0.0825 -1.0565
  758MOL0     H 2313   3.106   7.908   1.696  1.5121  1.1744 -0.9875
  758MOL0     H 2314   3.340   8.044   1.263  1.1121  0.8722 -1.3485
  758MOL0     H 2315   3.580   8.088   1.295 -0.4223  0.8362 -0.0626
  758MOL0     H 2316   3.930   8.230   1.698 -2.3570 -0.3715 -0.8189
  758MOL0     H 2317   4.154   8.166   1.742 -2.7753 -0.1045  0.6809
  758MOL0     H 2318   4.290   7.949   1.776  0.5740  0.9443  0.2085
  758MOL0     H 2319   4.381   8.101   1.770 -0.0687  0.9092 -0.8254
  758MOL0     H 2320   4.507   7.838   1.709  0.6015  0.3346 -1.1410
  758MOL0     H 2321   4.521   7.945   1.850 -1.5825 -0.3962  0.2199
  758MOL0     H 2322   4.624   8.127   1.734  3.4117  0.1093 -1.1733
  758MOL0     H 2323   4.567   8.063   1.576 -2.2744 -1.0513  0.2912
  758MOL0     H 2324   4.773   7.891   1.713 -2.5113  0.4762  1.1085
  758MOL0     H 2325   4.729   7.890   1.548 -0.5124  0.5488 -0.2614
  758MOL0     H 2326   5.002   8.221   1.557 -0.1655  0.5211 -1.8507
  758MOL0     H 2327   4.206   8.011   1.343  1.0042 -0.0356 -0.2261
  758MOL0     H 2328   3.857   8.012   1.265 -0.0909  0.4069 -1.3651
  758MOL0     H 2329   3.949   8.147   1.205  1.1513  0.1497 -0.4198
  758MOL0     H 2330   4.023   7.979   1.217 -0.7677 -2.2539  1.2861
  759MOL0     O 2331   2.935   5.537   8.466  0.1403 -0.4025 -0.1466
  759MOL0     C 2332   2.852   5.546   8.557 -0.4175  0.7837 -0.6471
  759MOL0     O 2333   2.879   5.589   8.682  0.0341 -0.1046  0.8070
  759MOL0     C 2334   3.003   5.638   8.714 -0.0056  0.0518  0.9474
  759MOL0     C 2335   3.112   5.551   8.712 -0.1401 -0.6457  0.7320
  759MOL0     C 2336   3.240   5.585   8.756  0.4474  0.3932  1.0132
  759MOL0     C 2337   3.268   5.718   8.794 -0.2059 -0.8863  0.6660
  759MOL0     O 2338   3.395   5.754   8.831 -0.8030 -0.4256  0.0746
  759MOL0     C 2339   3.414   5.893   8.874  0.1903 -0.0095  0.5842
  759MOL0     C 2340   3.560   5.919   8.919 -0.4235  0.6086 -0.8903
  759MOL0     C 2341   3.676   5.953   8.821 -0.4978 -0.6977  0.3358
  759MOL0     C 2342   3.815   5.916   8.876  0.5072 -0.3172  0.4106
  759MOL0     C 2343   3.924   5.935   8.774 -0.1542 -0.0422 -0.6911
  759MOL0     C 2344   4.053   5.885   8.844 -0.2717 -0.6086  0.0165
  759MOL0     C 2345   4.173   5.938   8.759  0.5820 -0.1698 -0.3639
  759MOL0     C 2346   4.293   5.848   8.790 -0.0665 -0.1743  0.0847
  759MOL0     N 2347   4.421   5.870   8.710 -0.4464  0.7607 -1.6025
  759MOL0     C 2348   4.488   5.986   8.700  0.3491  0.1304 -0.4041
  759MOL0     C 2349   4.597   5.950   8.617  0.2814 -0.6715 -0.1890
  759MOL0     C 2350   4.702   6.047   8.588 -0.2054 -0.3639  0.4000
  759MOL0     C 2351   4.836   6.017   8.664 -0.0497  0.4416 -0.9906
  759MOL0     C 2352   4.935   6.132   8.621 -0.1434  1.5215 -0.6618
  759MOL0     C 2353   5.068   6.113   8.702  0.5776 -0.1400 -0.4501
  759MOL0     O 2354   5.166   6.206   8.656  0.3078  0.3280 -0.3751
  759MOL0     C 2355   5.258   6.246   8.753 -0.6915  0.7026 -0.3969
  759MOL0     C 2356   5.293   6.191   8.881  0.1364 -0.4196  0.1049
  759MOL0     C 2357   5.377   6.262   8.971  0.4117 -0.9998  0.8957
  759MOL0     C 2358   5.432   6.387   8.928  0.0905 -1.2174  0.2816
  759MOL0     C 2359   5.534   6.470   9.004  0.3382  0.5251  0.3034
  759MOL0     O 2360   5.587   6.421   9.120 -0.1123  0.1143 -0.2806
  759MOL0     C 2361   5.671   6.506   9.194 -0.5064 -0.0271  0.2775
  759MOL0     C 2362   5.810   6.510   9.177 -0.0400  0.8095 -0.2810
  759MOL0     C 2363   5.892   6.600   9.254 -0.0790  0.3900 -0.4570
  759MOL0     C 2364   5.836   6.690   9.347  0.5941 -0.2379  1.5354
  759MOL0     O 2365   5.919   6.769   9.408  0.3273 -0.2071  0.4543
  759MOL0     C 2366   5.922   6.785   9.544  0.5371  0.2591 -0.5122
  759MOL0     C 2367   6.056   6.834   9.599 -0.3054 -0.0181  0.4535
  759MOL0     C 2368   6.137   6.715   9.660 -0.1168 -0.1262  0.6767
  759MOL0     C 2369   6.241   6.772   9.755  0.5039 -0.2244  0.5225
  759MOL0     C 2370   6.341   6.673   9.798 -0.0077  0.2110  0.3746
  759MOL0     C 2371   6.290   6.543   9.868  0.2570 -0.2141 -1.7366
  759MOL0     C 2372   6.203   6.574   9.993 -0.1724  0.6673  0.1731
  759MOL0     C 2373   6.118   6.453  10.030  0.3427 -0.0260  0.0540
  759MOL0    Cl 2374   5.993   6.434   9.906  0.1596  0.1215 -0.1334
  759MOL0     C 2375   5.697   6.691   9.350  0.6733 -1.5430  0.6269
  759MOL0     C 2376   5.618   6.597   9.278  0.1968 -0.3287  0.3229
  759MOL0     O 2377   5.562   6.586   8.958  0.5351  0.3561  0.1021
  759MOL0     C 2378   5.409   6.432   8.795 -0.4127 -0.4703 -0.9591
  759MOL0     C 2379   5.318   6.368   8.717  0.3352  0.2478 -0.3075
  759MOL0     N 2380   4.579   5.826   8.563  0.4348  0.2869 -0.6373
  759MOL0     N 2381   4.472   5.775   8.629 -0.6480 -0.3704  0.5433
  759MOL0     C 2382   3.154   5.799   8.809 -0.8997 -0.4580  0.1935
  759MOL0     C 2383   3.023   5.768   8.765  0.4324  0.2889  0.4486
  759MOL0     C 2384   2.714   5.492   8.542  0.0991 -0.1835 -0.4236
  759MOL0     C 2385   2.687   5.422   8.423 -0.5869 -0.0349  0.3364
  759MOL0     C 2386   2.561   5.357   8.407  0.7833 -0.2899  0.6274
  759MOL0     C 2387   2.457   5.371   8.502  0.3862  0.1118  0.5332
  759MOL0     O 2388   2.348   5.296   8.490  0.7636  0.1986  0.2038
  759MOL0     C 2389   2.233   5.369   8.440  0.4624  0.8231 -0.7572
  759MOL0     C 2390   2.164   5.477   8.528  0.3718 -0.5239  0.1371
  759MOL0     C 2391   2.040   5.545   8.460 -0.0609  1.0976 -0.4035
  759MOL0     C 2392   1.924   5.457   8.406  0.4286  0.6939 -0.1148
  759MOL0     C 2393   1.825   5.536   8.341  0.0890 -0.3828 -0.4084
  759MOL0     C 2394   1.745   5.612   8.282 -0.4315 -0.0077 -0.1241
  759MOL0     C 2395   2.485   5.444   8.619 -0.2085 -0.1150  0.0485
  759MOL0     C 2396   2.612   5.508   8.642 -0.5001  0.4513  0.4861
  759MOL0     C 2397   2.623   5.598   8.768 -1.0064  0.5288 -0.6222
  759MOL0     H 2398   3.088   5.446   8.699 -1.3137 -0.3105  0.0364
  759MOL0     H 2399   3.312   5.505   8.759  1.2326  1.1003  1.3580
  759MOL0     H 2400   3.395   5.953   8.785  2.4637 -0.2827 -0.1472
  759MOL0     H 2401   3.345   5.906   8.958 -0.2873 -2.3445  0.6135
  759MOL0     H 2402   3.604   5.832   8.969  1.1353  2.1133  0.4732
  759MOL0     H 2403   3.560   6.001   8.991 -0.5692 -0.4658  0.3631
  759MOL0     H 2404   3.676   6.061   8.804 -0.9444 -0.9338 -1.4299
  759MOL0     H 2405   3.655   5.905   8.725 -1.2350  0.4430 -0.0956
  759MOL0     H 2406   3.831   5.980   8.963  0.0358 -0.4640  0.6084
  759MOL0     H 2407   3.813   5.816   8.921 -2.8405  0.4438  2.2957
  759MOL0     H 2408   3.903   5.876   8.684 -1.2417 -1.4354  0.4211
  759MOL0     H 2409   3.935   6.040   8.746  1.6375  0.6228  2.0833
  759MOL0     H 2410   4.062   5.911   8.950 -0.3913 -1.0539  0.1383
  759MOL0     H 2411   4.049   5.777   8.859 -0.0224 -0.4384  1.4388
  759MOL0     H 2412   4.197   6.040   8.792 -1.0171  0.9463 -2.4211
  759MOL0     H 2413   4.153   5.941   8.652  1.4132 -1.4690 -0.5670
  759MOL0     H 2414   4.317   5.854   8.897 -0.2734  5.4427  0.1056
  759MOL0     H 2415   4.268   5.750   8.750  0.4766  0.0382 -0.7951
  759MOL0     H 2416   4.474   6.078   8.756  3.1171 -0.3309  1.1940
  759MOL0     H 2417   4.708   6.053   8.479  0.2413 -2.2757  0.2857
  759MOL0     H 2418   4.676   6.147   8.624 -2.3610 -0.9940  0.7511
  759MOL0     H 2419   4.819   6.018   8.772 -1.7256 -2.8092 -1.1183
  759MOL0     H 2420   4.882   5.926   8.626  5.0447  2.6900 -1.1317
  759MOL0     H 2421   4.888   6.225   8.653 -2.2558  0.4235 -0.3950
  759MOL0     H 2422   4.959   6.134   8.515 -0.7622 -1.4220 -0.9405
  759MOL0     H 2423   5.101   6.017   8.661 -3.1391 -1.2220 -1.3848
  759MOL0     H 2424   5.054   6.112   8.810  0.0575  1.4877 -0.4819
  759MOL0     H 2425   5.253   6.096   8.916  1.5152 -1.9769 -2.1965
  759MOL0     H 2426   5.393   6.220   9.070 -2.8249 -0.1882  1.8917
  759MOL0     H 2427   5.851   6.444   9.103  1.7025  1.7741 -0.2333
  759MOL0     H 2428   6.000   6.601   9.241 -0.2798  2.2198 -2.5908
  759MOL0     H 2429   5.842   6.849   9.582 -0.5817 -2.9991  3.3565
  759MOL0     H 2430   5.907   6.684   9.584 -0.4523  0.7836  0.4621
  759MOL0     H 2431   6.104   6.884   9.515 -1.1143  0.9704  0.5653
  759MOL0     H 2432   6.036   6.905   9.680 -1.1627  0.6990 -0.3666
  759MOL0     H 2433   6.070   6.653   9.721  2.0712 -0.5172  2.8256
  759MOL0     H 2434   6.181   6.658   9.577  2.3726  0.3168  1.6268
  759MOL0     H 2435   6.183   6.806   9.841  0.4132 -2.0902  1.2580
  759MOL0     H 2436   6.285   6.866   9.722  0.8693  0.0732  1.8133
  759MOL0     H 2437   6.409   6.724   9.868  0.3417  0.6182 -0.2490
  759MOL0     H 2438   6.406   6.658   9.711  1.7557  2.1759  1.2520
  759MOL0     H 2439   6.239   6.476   9.798  0.4896 -0.4053 -1.7215
  759MOL0     H 2440   6.376   6.486   9.903 -0.3283  0.2435  0.6300
  759MOL0     H 2441   6.132   6.654   9.970 -1.9167 -0.9349 -0.2423
  759MOL0     H 2442   6.266   6.593  10.080  1.1626 -1.6167 -0.1996
  759MOL0     H 2443   6.180   6.363  10.035  0.8245  0.3547  1.5997
  759MOL0     H 2444   6.080   6.476  10.131  0.3178  3.7350 -0.6723
  759MOL0     H 2445   5.651   6.775   9.402 -0.0006 -1.3397 -0.2588
  759MOL0     H 2446   5.511   6.618   9.280  0.3869  0.6577  0.4007
  759MOL0     H 2447   5.461   6.516   8.751 -0.8370 -0.5285 -1.5924
  759MOL0     H 2448   5.294   6.401   8.616  0.7047 -0.5467 -0.6715
  759MOL0     H 2449   3.157   5.905   8.836  0.7564  0.8264 -4.1519
  759MOL0     H 2450   2.937   5.835   8.772  0.9896  0.9420  1.2705
  759MOL0     H 2451   2.758   5.421   8.341  1.2695  1.6540  1.8384
  759MOL0     H 2452   2.550   5.285   8.327  1.5045 -1.1562  1.2841
  759MOL0     H 2453   2.152   5.295   8.437 -0.4978  1.8226 -0.1659
  759MOL0     H 2454   2.248   5.405   8.338 -1.2450  2.5913 -0.4496
  759MOL0     H 2455   2.239   5.556   8.537  1.4305 -1.4968  0.0809
  759MOL0     H 2456   2.138   5.437   8.626  2.5940 -3.3893 -0.3158
  759MOL0     H 2457   2.071   5.609   8.377 -0.1147  0.9237 -0.5584
  759MOL0     H 2458   2.000   5.596   8.548  0.5722 -0.2441  0.7064
  759MOL0     H 2459   1.967   5.392   8.329 -1.6442 -0.5353 -0.2892
  759MOL0     H 2460   1.889   5.392   8.487  0.4185 -0.0102 -0.6752
  759MOL0     H 2461   1.668   5.670   8.237  0.9903  2.3977  0.4020
  759MOL0     H 2462   2.407   5.458   8.693 -1.1867 -0.0355 -0.9608
  759MOL0     H 2463   2.531   5.609   8.826  1.6696  0.8511  4.1010
  759MOL0     H 2464   2.687   5.563   8.849  1.0761 -0.5643 -2.6099
  759MOL0     H 2465   2.677   5.689   8.739 -2.6824  1.2585 -1.6258
  760MOL0     O 2466   0.777   8.747   4.097  0.1242 -0.1337  0.3227
  760MOL0     C 2467   0.748   8.868   4.123  0.7781 -0.2927 -0.6882
  760MOL0     O 2468   0.840   8.975   4.108 -0.3516 -0.0158 -0.9261
  760MOL0     C 2469   0.965   8.939   4.053 -0.6690  0.2467  0.1086
  760MOL0     C 2470   0.992   8.992   3.927  0.4682  0.1294  0.2530
  760MOL0     C 2471   1.113   8.961   3.866 -0.2204 -0.0406  0.0548
  760MOL0     C 2472   1.210   8.886   3.924 -0.1646  0.5992  0.0517
  760MOL0     O 2473   1.336   8.877   3.862  0.2107 -0.0754  1.5788
  760MOL0     C 2474   1.417   8.769   3.907 -1.0553 -0.0634 -0.0239
  760MOL0     C 2475   1.534   8.751   3.811 -0.1608  0.4496 -0.0623
  760MOL0     C 2476   1.499   8.765   3.669 -0.3167  0.4630  0.7620
  760MOL0     C 2477   1.574   8.661   3.589  0.1465  0.9611  0.1808
  760MOL0     C 2478   1.545   8.666   3.437 -0.5335 -0.7423  0.0786
  760MOL0     C 2479   1.587   8.544   3.346 -0.4061 -0.0382 -0.6101
  760MOL0     C 2480   1.587   8.575   3.193 -0.5336 -1.3897  0.5251
  760MOL0     C 2481   1.717   8.646   3.152  0.1289  1.1336 -0.4831
  760MOL0     N 2482   1.824   8.542   3.124  0.8865 -0.5593 -0.0691
  760MOL0     C 2483   1.846   8.486   2.998  0.3612 -0.7361 -0.6768
  760MOL0     C 2484   1.971   8.435   3.000 -0.4517 -0.4068  0.5208
  760MOL0     C 2485   2.058   8.365   2.902  0.2211  0.1140 -0.0077
  760MOL0     C 2486   2.199   8.438   2.892 -0.4359 -1.2256 -0.8918
  760MOL0     C 2487   2.283   8.366   2.796  0.1595  0.6674  0.2126
  760MOL0     C 2488   2.430   8.414   2.808  0.5120 -0.0401  0.3347
  760MOL0     O 2489   2.505   8.343   2.706  0.8109 -1.0351 -0.2430
  760MOL0     C 2490   2.600   8.417   2.636  0.4970  1.3524  0.1118
  760MOL0     C 2491   2.631   8.379   2.504 -0.2262  0.2912  0.3832
  760MOL0     C 2492   2.740   8.440   2.432 -0.4126  0.7108 -0.0204
  760MOL0     C 2493   2.799   8.554   2.485  0.4559  0.2913  0.0708
  760MOL0     C 2494   2.893   8.629   2.407 -0.0672  0.4034  0.8026
  760MOL0     O 2495   2.967   8.727   2.463  0.2518  0.0631  0.7282
  760MOL0     C 2496   3.087   8.764   2.410  0.1161 -0.0223  0.3321
  760MOL0     C 2497   3.165   8.688   2.320  0.6564 -0.7994  0.5097
  760MOL0     C 2498   3.297   8.728   2.280  0.1805 -0.3802 -0.0033
  760MOL0     C 2499   3.343   8.860   2.312  1.1534  0.2345 -0.5711
  760MOL0     O 2500   3.454   8.910   2.258  0.2067  0.2200 -0.1364
  760MOL0     C 2501   3.455   9.049   2.220 -0.9526  0.4269 -0.7423
  760MOL0     C 2502   3.587   9.090   2.159  0.4626 -0.0289 -0.1971
  760MOL0     C 2503   3.691   9.075   2.272 -0.2415 -1.0253  0.1975
  760MOL0     C 2504   3.819   9.143   2.212  0.5043  0.5921  0.6678
  760MOL0     C 2505   3.944   9.122   2.288  0.0902 -0.1219  1.2066
  760MOL0     C 2506   4.061   9.200   2.231  0.2987 -0.0029  0.1586
  760MOL0     C 2507   4.093   9.162   2.084  0.4262 -0.3329  0.0652
  760MOL0     C 2508   4.245   9.181   2.064  0.2080  0.3434 -0.2645
  760MOL0    Cl 2509   4.312   9.349   2.099  0.3215 -0.0928 -0.2601
  760MOL0     C 2510   3.264   8.931   2.404  0.1986  0.5385  0.2743
  760MOL0     C 2511   3.143   8.889   2.454 -0.8739 -0.1660 -0.7321
  760MOL0     O 2512   2.899   8.600   2.288 -0.1091  0.2350 -0.6980
  760MOL0     C 2513   2.760   8.608   2.606 -0.4833  0.2892 -1.1236
  760MOL0     C 2514   2.663   8.529   2.682 -0.3627  0.5383  0.0019
  760MOL0     N 2515   2.024   8.465   3.128 -0.9531 -0.5282  0.1135
  760MOL0     N 2516   1.937   8.533   3.201 -0.3146 -0.7585  0.1265
  760MOL0     C 2517   1.177   8.826   4.046 -1.1453 -0.3719  0.4051
  760MOL0     C 2518   1.055   8.859   4.115 -0.5014  0.2514  0.4454
  760MOL0     C 2519   0.622   8.913   4.185  1.5088  0.2443  0.4044
  760MOL0     C 2520   0.622   9.037   4.241 -0.3150 -0.8689 -0.2811
  760MOL0     C 2521   0.511   9.084   4.308  0.0462  0.7060 -0.8080
  760MOL0     C 2522   0.391   9.010   4.319  0.2599 -0.7528 -0.2164
  760MOL0     O 2523   0.278   9.067   4.380  0.2171 -0.6447 -0.1859
  760MOL0     C 2524   0.140   9.021   4.374 -0.2256 -0.0439 -0.1837
  760MOL0     C 2525   0.053   9.138   4.351 -0.3383  0.8091 -0.1140
  760MOL0     C 2526  -0.090   9.083   4.351 -0.2909 -1.5926 -0.2669
  760MOL0     C 2527  -0.190   9.203   4.331 -0.0157  0.4701 -0.0039
  760MOL0     C 2528  -0.324   9.149   4.355 -0.3215 -0.4483 -0.6902
  760MOL0     C 2529  -0.436   9.119   4.386 -0.3413 -0.3738 -0.8557
  760MOL0     C 2530   0.391   8.887   4.266  0.1007  0.4058  0.4011
  760MOL0     C 2531   0.502   8.832   4.191 -0.1250 -0.2557 -0.8259
  760MOL0     C 2532   0.501   8.694   4.136  0.0771 -0.0337  0.7741
  760MOL0     H 2533   0.921   9.059   3.880 -0.5486 -1.2513 -0.2348
  760MOL0     H 2534   1.143   8.990   3.766  1.5929 -2.4930 -0.1898
  760MOL0     H 2535   1.452   8.783   4.009  0.2699  3.1393 -0.8018
  760MOL0     H 2536   1.349   8.684   3.892 -3.8261  2.0461 -0.0022
  760MOL0     H 2537   1.582   8.656   3.838 -2.7299 -0.1886  2.8080
  760MOL0     H 2538   1.615   8.819   3.840  1.9260 -2.0700  0.3844
  760MOL0     H 2539   1.513   8.865   3.628  1.1261 -0.6714 -1.7414
  760MOL0     H 2540   1.393   8.745   3.652 -0.4014  0.3107  1.4454
  760MOL0     H 2541   1.683   8.665   3.598  0.2398 -1.6575  0.9197
  760MOL0     H 2542   1.553   8.558   3.617  0.4259  1.2662  1.6146
  760MOL0     H 2543   1.437   8.683   3.442 -0.7770 -2.3165  0.4716
  760MOL0     H 2544   1.591   8.757   3.397 -0.0114 -0.6977  0.7573
  760MOL0     H 2545   1.685   8.514   3.384 -0.4134 -1.0294 -1.3463
  760MOL0     H 2546   1.518   8.460   3.364  1.1396 -1.0768  0.7578
  760MOL0     H 2547   1.497   8.630   3.164  1.3964  0.1886 -3.2901
  760MOL0     H 2548   1.572   8.477   3.146 -0.2976 -2.6866  3.0052
  760MOL0     H 2549   1.684   8.696   3.060 -1.3932  1.2783  0.1073
  760MOL0     H 2550   1.744   8.732   3.214  4.1941 -0.6480  0.5446
  760MOL0     H 2551   1.768   8.494   2.924 -4.2082 -2.4525  3.4052
  760MOL0     H 2552   2.064   8.256   2.913  1.7825 -0.1097 -2.2603
  760MOL0     H 2553   2.006   8.380   2.807 -0.0620  1.5177  0.3453
  760MOL0     H 2554   2.186   8.543   2.866 -0.6873 -1.0748 -0.1686
  760MOL0     H 2555   2.245   8.410   2.987  1.5361  0.8587 -1.1492
  760MOL0     H 2556   2.258   8.400   2.695 -0.2458 -0.7829 -0.2008
  760MOL0     H 2557   2.279   8.257   2.797  0.2704  0.5360 -3.4157
  760MOL0     H 2558   2.471   8.384   2.905 -1.7923  0.9973  1.7239
  760MOL0     H 2559   2.438   8.522   2.800  0.3606 -0.1247 -1.2912
  760MOL0     H 2560   2.580   8.294   2.461  3.2125 -1.3893 -0.8146
  760MOL0     H 2561   2.782   8.401   2.340 -0.6142  1.4056 -0.4202
  760MOL0     H 2562   3.130   8.591   2.288 -0.3313 -1.3195  2.9445
  760MOL0     H 2563   3.352   8.671   2.206  2.4647  0.7702  0.7005
  760MOL0     H 2564   3.378   9.069   2.144 -1.1576 -2.1163 -1.3017
  760MOL0     H 2565   3.437   9.112   2.307 -1.7679 -1.6425  0.6640
  760MOL0     H 2566   3.607   9.030   2.070 -2.2534 -0.5966 -0.5134
  760MOL0     H 2567   3.578   9.195   2.131  0.3426 -0.0370 -0.1920
  760MOL0     H 2568   3.661   9.118   2.369  2.4461 -2.3940  1.7677
  760MOL0     H 2569   3.713   8.969   2.288  2.5173 -0.6887 -0.7671
  760MOL0     H 2570   3.795   9.250   2.216  2.1778  0.9863  0.6836
  760MOL0     H 2571   3.837   9.108   2.110  0.4963 -0.5881  1.0541
  760MOL0     H 2572   3.977   9.018   2.290  3.0700  0.6661 -0.4046
  760MOL0     H 2573   3.931   9.162   2.389 -0.1545  0.7490  0.8358
  760MOL0     H 2574   4.045   9.308   2.244 -1.8096 -0.6244  3.8487
  760MOL0     H 2575   4.144   9.171   2.296  1.0342 -0.9029 -1.1398
  760MOL0     H 2576   4.041   9.226   2.012  0.5979  1.1166  1.1931
  760MOL0     H 2577   4.077   9.055   2.064 -2.8883 -0.1674  1.2102
  760MOL0     H 2578   4.284   9.110   2.138  3.2416 -0.6313 -2.5999
  760MOL0     H 2579   4.286   9.128   1.978  0.5107 -0.5911  0.4402
  760MOL0     H 2580   3.296   9.028   2.440 -1.7413  0.0175  3.9140
  760MOL0     H 2581   3.089   8.951   2.524  0.5391 -0.9802  1.1401
  760MOL0     H 2582   2.810   8.696   2.645 -0.3095  0.2065 -1.1589
  760MOL0     H 2583   2.638   8.561   2.783  2.1587 -0.0451  0.8964
  760MOL0     H 2584   1.254   8.775   4.103 -1.6208 -0.1962  1.2140
  760MOL0     H 2585   1.033   8.821   4.214  0.1456 -1.5475 -0.0613
  760MOL0     H 2586   0.701   9.111   4.237 -1.9674  1.0718  1.0837
  760MOL0     H 2587   0.504   9.183   4.352  1.8951  0.5438 -0.0857
  760MOL0     H 2588   0.113   8.981   4.472 -3.9746  0.3568 -0.8880
  760MOL0     H 2589   0.132   8.948   4.293  2.8245 -1.7023  0.8490
  760MOL0     H 2590   0.078   9.178   4.252 -0.6084  1.2737  0.0001
  760MOL0     H 2591   0.063   9.214   4.429 -1.2823 -0.3617  1.1949
  760MOL0     H 2592  -0.105   9.036   4.448 -0.3228 -1.5791 -0.2660
  760MOL0     H 2593  -0.092   9.010   4.269  0.8762 -1.2577 -0.6190
  760MOL0     H 2594  -0.170   9.282   4.404  0.1019  1.9972 -1.6173
  760MOL0     H 2595  -0.175   9.253   4.235  0.1850  1.1051  0.3501
  760MOL0     H 2596  -0.524   9.083   4.436  1.3277 -2.7149  0.5773
  760MOL0     H 2597   0.302   8.825   4.272  1.1346 -1.5178 -2.1635
  760MOL0     H 2598   0.522   8.707   4.030 -0.4879  2.3834  0.9118
  760MOL0     H 2599   0.570   8.619   4.176  2.2803  0.8951 -1.0601
  760MOL0     H 2600   0.400   8.656   4.153  0.4676 -1.2273  0.5353
  761MOL0     O 2601   6.336   0.342   9.151  0.0654  0.6570  0.5643
  761MOL0     C 2602   6.327   0.349   9.027  0.9878 -0.3403  0.4156
  761MOL0     O 2603   6.416   0.294   8.942  0.1947  0.6192  0.2454
  761MOL0     C 2604   6.512   0.222   9.003  0.0072 -0.8401  0.4621
  761MOL0     C 2605   6.484   0.095   9.045 -0.5509  0.4624  0.2464
  761MOL0     C 2606   6.578   0.001   9.086  0.5892 -1.1851  0.3085
  761MOL0     C 2607   6.705   0.045   9.116 -0.6286 -0.0418 -0.5076
  761MOL0     O 2608   6.810  -0.027   9.171  0.2951  0.3258 -0.5531
  761MOL0     C 2609   6.797  -0.168   9.198 -0.1946 -0.3801  0.4488
  761MOL0     C 2610   6.722  -0.204   9.324 -0.2698  0.7653 -0.2289
  761MOL0     C 2611   6.792  -0.155   9.452  0.3027 -0.2054 -0.2222
  761MOL0     C 2612   6.714  -0.211   9.576 -0.2805 -0.6007  0.2874
  761MOL0     C 2613   6.805  -0.316   9.632  0.2911 -0.0177  0.0743
  761MOL0     C 2614   6.746  -0.378   9.758 -0.0824  0.5498  0.4997
  761MOL0     C 2615   6.620  -0.462   9.718 -0.0623 -0.4331 -0.0064
  761MOL0     C 2616   6.581  -0.556   9.839 -0.4244 -0.4329  0.4053
  761MOL0     N 2617   6.658  -0.675   9.852 -0.6237 -0.0803  0.5093
  761MOL0     C 2618   6.678  -0.763   9.749  0.8243  0.5918  0.2090
  761MOL0     C 2619   6.747  -0.864   9.803  0.0783 -0.0655  0.3399
  761MOL0     C 2620   6.780  -0.989   9.733  0.1373  0.5372 -0.2744
  761MOL0     C 2621   6.692  -1.106   9.770  0.5405  0.7537  0.2719
  761MOL0     C 2622   6.730  -1.237   9.699  0.0749  0.2700  0.1081
  761MOL0     C 2623   6.604  -1.317   9.645  0.6527  0.3749  0.2755
  761MOL0     O 2624   6.556  -1.400   9.750 -0.1394 -0.0629  0.6555
  761MOL0     C 2625   6.435  -1.463   9.737  0.5099 -0.1833  0.2206
  761MOL0     C 2626   6.413  -1.565   9.827  0.0517  0.5366 -0.5270
  761MOL0     C 2627   6.293  -1.634   9.823  0.4672 -0.0236  0.1130
  761MOL0     C 2628   6.198  -1.602   9.716 -0.0046  0.5270  0.2163
  761MOL0     C 2629   6.066  -1.681   9.716  0.8016  0.3709  0.0970
  761MOL0     O 2630   6.032  -1.770   9.812 -0.4233 -0.5254  0.6074
  761MOL0     C 2631   5.925  -1.857   9.792 -0.2729  0.3210  0.1136
  761MOL0     C 2632   5.917  -1.967   9.883 -0.3813 -0.1067  0.4757
  761MOL0     C 2633   5.845  -2.077   9.858  0.6594  0.1249 -0.3210
  761MOL0     C 2634   5.751  -2.089   9.759  0.0034  0.1096  0.9029
  761MOL0     O 2635   5.659  -2.185   9.736 -0.2111  0.8182 -0.0642
  761MOL0     C 2636   5.608  -2.253   9.858 -0.0211 -0.3269 -0.0715
  761MOL0     C 2637   5.522  -2.375   9.833 -0.2232  0.1300 -0.3383
  761MOL0     C 2638   5.583  -2.493   9.750 -0.3997  0.6377  0.2287
  761MOL0     C 2639   5.717  -2.529   9.808  0.2746  0.0671  0.6760
  761MOL0     C 2640   5.789  -2.636   9.735  0.0909  0.4452 -0.0251
  761MOL0     C 2641   5.752  -2.782   9.760 -0.2408 -0.3318  0.7442
  761MOL0     C 2642   5.806  -2.837   9.899  0.7562  0.2724  0.0036
  761MOL0     C 2643   5.943  -2.898   9.877 -0.9158 -0.2325 -0.0014
  761MOL0    Cl 2644   6.008  -3.000  10.018  0.3125 -0.2265  0.0724
  761MOL0     C 2645   5.747  -1.974   9.668  0.3190 -0.3181 -1.1189
  761MOL0     C 2646   5.832  -1.867   9.678 -0.5872  0.7407  0.9097
  761MOL0     O 2647   5.999  -1.662   9.612  0.4419 -0.1453 -0.4456
  761MOL0     C 2648   6.221  -1.495   9.627 -0.0393  0.0550  0.1405
  761MOL0     C 2649   6.342  -1.434   9.634 -0.1745  0.0216  0.2237
  761MOL0     N 2650   6.778  -0.840   9.938 -0.2340 -0.3717  0.3675
  761MOL0     N 2651   6.720  -0.725   9.967 -0.4139 -0.4580  0.3977
  761MOL0     C 2652   6.744   0.178   9.075 -0.1467 -0.8178 -0.4372
  761MOL0     C 2653   6.643   0.263   9.018 -0.4325  0.2590  0.0262
  761MOL0     C 2654   6.221   0.438   8.979  0.0537  1.0673  0.0673
  761MOL0     C 2655   6.233   0.469   8.838 -0.0612  0.5777 -0.4654
  761MOL0     C 2656   6.148   0.556   8.767 -0.1196  1.1349 -0.2111
  761MOL0     C 2657   6.036   0.603   8.834 -0.9834  1.0287 -0.8370
  761MOL0     O 2658   5.934   0.676   8.778 -0.2679  0.3639 -0.4131
  761MOL0     C 2659   5.973   0.750   8.666  0.6545  0.4486  0.8250
  761MOL0     C 2660   5.889   0.870   8.652 -0.0068 -0.4162 -0.1489
  761MOL0     C 2661   5.935   0.982   8.742 -0.3192 -0.0658 -0.6817
  761MOL0     C 2662   5.911   0.959   8.891 -0.9981 -0.6065  0.0697
  761MOL0     C 2663   5.964   1.073   8.970  0.6977  0.6228  0.1205
  761MOL0     C 2664   6.025   1.156   9.042 -0.6283  0.4043 -0.3127
  761MOL0     C 2665   6.022   0.572   8.971  0.4184  0.1184 -0.0289
  761MOL0     C 2666   6.113   0.499   9.047  0.4250 -0.7704 -0.1747
  761MOL0     C 2667   6.090   0.477   9.195  0.3898 -0.0327  0.2241
  761MOL0     H 2668   6.383   0.055   9.040 -0.3181 -0.7576  3.4355
  761MOL0     H 2669   6.546  -0.102   9.098  0.9841 -1.4309 -0.6795
  761MOL0     H 2670   6.759  -0.232   9.118 -0.0269 -4.9541  3.6332
  761MOL0     H 2671   6.893  -0.211   9.227 -1.3051 -3.3011  0.1460
  761MOL0     H 2672   6.695  -0.310   9.322  1.9912  0.1394 -0.7568
  761MOL0     H 2673   6.629  -0.148   9.320  0.6645  2.3716 -0.6314
  761MOL0     H 2674   6.780  -0.047   9.450  0.9861 -0.1211  0.0298
  761MOL0     H 2675   6.899  -0.177   9.462  0.5379  0.6704 -0.6915
  761MOL0     H 2676   6.701  -0.141   9.659 -2.4993 -2.9603  2.1117
  761MOL0     H 2677   6.613  -0.248   9.555 -1.5106  2.7722 -0.3191
  761MOL0     H 2678   6.841  -0.388   9.558  0.2242 -0.4185  0.4319
  761MOL0     H 2679   6.890  -0.258   9.669  0.9697 -1.6080  1.1081
  761MOL0     H 2680   6.821  -0.434   9.815  2.2086  2.0387 -0.8804
  761MOL0     H 2681   6.704  -0.303   9.827 -0.2044 -1.2537  2.4819
  761MOL0     H 2682   6.641  -0.517   9.626 -0.4697  1.4028 -1.2670
  761MOL0     H 2683   6.535  -0.394   9.706  0.7680  0.2638 -2.4889
  761MOL0     H 2684   6.570  -0.506   9.936  0.4533 -2.4862  1.6121
  761MOL0     H 2685   6.480  -0.592   9.818 -0.7028  0.0577  0.8647
  761MOL0     H 2686   6.627  -0.751   9.653  0.5448 -2.2036 -0.0728
  761MOL0     H 2687   6.772  -0.970   9.625 -1.8664  1.8164  0.0456
  761MOL0     H 2688   6.880  -1.012   9.772 -0.3116 -1.8163 -0.3341
  761MOL0     H 2689   6.694  -1.116   9.879  1.4734 -0.4211  0.1743
  761MOL0     H 2690   6.590  -1.078   9.745 -0.4497 -2.2880  0.4292
  761MOL0     H 2691   6.781  -1.304   9.769 -0.8504  0.9939  1.5148
  761MOL0     H 2692   6.805  -1.227   9.620  1.3434  0.2032  1.2815
  761MOL0     H 2693   6.628  -1.380   9.558 -1.8323 -0.9228  0.4326
  761MOL0     H 2694   6.535  -1.236   9.620  2.5296  2.7461  2.2841
  761MOL0     H 2695   6.496  -1.590   9.893 -1.2298 -0.9050  0.5962
  761MOL0     H 2696   6.267  -1.717   9.888  1.3396 -0.8828 -0.6225
  761MOL0     H 2697   5.975  -1.947   9.972  1.2938  0.8176 -0.7596
  761MOL0     H 2698   5.836  -2.159   9.930  0.0887  0.6144  0.1742
  761MOL0     H 2699   5.689  -2.286   9.924 -0.2525 -1.1420 -0.1955
  761MOL0     H 2700   5.538  -2.191   9.915 -1.5837 -2.4761  0.4628
  761MOL0     H 2701   5.488  -2.416   9.928 -2.9960 -0.6118 -1.5468
  761MOL0     H 2702   5.438  -2.338   9.773  0.5896  0.7950 -1.1041
  761MOL0     H 2703   5.524  -2.584   9.765  2.1225 -0.5759  4.6756
  761MOL0     H 2704   5.585  -2.470   9.643 -0.8772  2.7681  0.6531
  761MOL0     H 2705   5.700  -2.569   9.909 -1.0514  0.7319  0.7324
  761MOL0     H 2706   5.783  -2.441   9.818  0.4505 -0.1004  1.0279
  761MOL0     H 2707   5.890  -2.627   9.775 -0.2579  0.4913  0.8658
  761MOL0     H 2708   5.805  -2.622   9.627  0.8330  1.3029  0.1825
  761MOL0     H 2709   5.644  -2.789   9.750 -0.0963 -1.6633 -0.0975
  761MOL0     H 2710   5.791  -2.847   9.681 -0.9924  0.0683  0.0279
  761MOL0     H 2711   5.734  -2.917   9.922  0.8110 -0.0462 -0.9030
  761MOL0     H 2712   5.808  -2.756   9.973 -1.1006  2.7614 -2.4497
  761MOL0     H 2713   5.935  -2.973   9.797  0.0486 -0.8362  0.4530
  761MOL0     H 2714   6.004  -2.810   9.856 -2.8347  1.3601  0.7612
  761MOL0     H 2715   5.688  -1.973   9.577  1.2247 -0.2395 -1.7207
  761MOL0     H 2716   5.836  -1.816   9.583 -2.4728 -1.4860 -0.4654
  761MOL0     H 2717   6.139  -1.474   9.559 -0.1798  1.2537  0.6579
  761MOL0     H 2718   6.349  -1.350   9.565 -2.2008  1.7954  2.0412
  761MOL0     H 2719   6.843   0.219   9.087 -0.0037 -1.0901 -0.6848
  761MOL0     H 2720   6.652   0.367   8.990  0.1983 -0.5979 -3.3217
  761MOL0     H 2721   6.326   0.444   8.788 -0.7083  0.0442 -1.4511
  761MOL0     H 2722   6.157   0.570   8.660 -0.2898  0.2430 -0.3574
  761MOL0     H 2723   5.951   0.695   8.575 -0.2302 -0.6958  1.7029
  761MOL0     H 2724   6.079   0.778   8.664  1.2001 -1.3843 -2.0369
  761MOL0     H 2725   5.790   0.829   8.672 -0.8664  0.5192 -2.2303
  761MOL0     H 2726   5.880   0.906   8.549 -2.1033  1.3168  0.5568
  761MOL0     H 2727   5.874   1.070   8.721 -1.6194 -1.0692 -1.2357
  761MOL0     H 2728   6.040   1.007   8.723  0.0936 -1.7495 -0.7355
  761MOL0     H 2729   5.806   0.942   8.919 -0.9847 -1.3862 -0.3125
  761MOL0     H 2730   5.962   0.871   8.931  0.3211  1.0786  2.3592
  761MOL0     H 2731   6.081   1.225   9.101 -1.4979 -0.2843  1.3608
  761MOL0     H 2732   5.940   0.620   9.025  0.5868 -0.2150  0.5356
  761MOL0     H 2733   5.985   0.493   9.220  0.7002 -0.0898  1.6655
  761MOL0     H 2734   6.100   0.370   9.217  0.9569 -0.0199  0.0544
  761MOL0     H 2735   6.164   0.529   9.257  1.4313 -1.2416  0.0468
  762MOL0     O 2736   2.240   1.321   0.031 -0.1757 -0.3800  0.1815
  762MOL0     C 2737   2.309   1.423   0.005  0.4643 -0.3539  0.2104
  762MOL0     O 2738   2.444   1.420   0.004 -0.4738  0.1010  0.6722
  762MOL0     C 2739   2.524   1.313   0.041 -0.2663 -0.4090  0.5658
  762MOL0     C 2740   2.495   1.228   0.147  0.0619  0.5079  0.9129
  762MOL0     C 2741   2.584   1.127   0.179  0.6764  0.4964  1.4933
  762MOL0     C 2742   2.699   1.100   0.097  0.6423  0.6554  0.2689
  762MOL0     O 2743   2.776   0.994   0.132 -0.5428  0.5282  0.2001
  762MOL0     C 2744   2.883   0.961   0.036  0.0910  0.3658  1.1257
  762MOL0     C 2745   2.896   0.808   0.032 -0.5547 -0.5741 -0.3685
  762MOL0     C 2746   3.034   0.784  -0.031 -0.1354 -0.4982 -0.8878
  762MOL0     C 2747   3.074   0.632  -0.043  0.0616 -0.6786  0.0625
  762MOL0     C 2748   3.220   0.594  -0.062  0.7639 -0.5000  0.2919
  762MOL0     C 2749   3.245   0.443  -0.066 -1.0796 -0.3647  0.2512
  762MOL0     C 2750   3.400   0.436  -0.063  0.1642 -0.2450  0.2236
  762MOL0     C 2751   3.450   0.291  -0.098  0.9345 -0.2219 -1.2174
  762MOL0     N 2752   3.590   0.286  -0.132  0.4055  0.5765  0.3346
  762MOL0     C 2753   3.695   0.226  -0.061 -0.4014  0.2431  0.2924
  762MOL0     C 2754   3.806   0.261  -0.133  0.1025 -0.2203 -0.0516
  762MOL0     C 2755   3.945   0.225  -0.099  0.4970 -0.0064  0.2146
  762MOL0     C 2756   3.974   0.072  -0.100 -1.5877 -0.2092  0.0357
  762MOL0     C 2757   4.124   0.028  -0.063 -0.6522 -1.4182 -1.0044
  762MOL0     C 2758   4.154  -0.118  -0.094  0.0304  0.1292 -0.0199
  762MOL0     O 2759   4.271  -0.129  -0.166 -1.0370 -0.1193 -0.1456
  762MOL0     C 2760   4.399  -0.140  -0.099 -0.2642 -0.3841 -0.8478
  762MOL0     C 2761   4.419  -0.110   0.038 -0.5085  0.3297 -0.0699
  762MOL0     C 2762   4.541  -0.108   0.096 -0.0290 -0.3588  0.6619
  762MOL0     C 2763   4.655  -0.153   0.027  0.1215 -1.2532 -0.3929
  762MOL0     C 2764   4.787  -0.165   0.086 -0.2980  0.1228 -0.7579
  762MOL0     O 2765   4.891  -0.177  -0.004  0.5093  0.7501  0.8444
  762MOL0     C 2766   5.020  -0.171   0.031 -0.4413  0.3967  0.1501
  762MOL0     C 2767   5.075  -0.044   0.018 -0.0299 -0.2607 -0.1413
  762MOL0     C 2768   5.213  -0.024   0.054 -0.1080 -1.2931  0.0062
  762MOL0     C 2769   5.297  -0.137   0.096 -0.4709 -0.0463  0.0621
  762MOL0     O 2770   5.428  -0.145   0.131 -0.1012 -0.4447  0.0970
  762MOL0     C 2771   5.502  -0.020   0.124  0.5166 -0.1795 -0.1434
  762MOL0     C 2772   5.644  -0.048   0.167  0.2885  0.8150 -0.7014
  762MOL0     C 2773   5.729   0.079   0.195  0.2523  0.5395  0.3252
  762MOL0     C 2774   5.863   0.029   0.215 -0.3238 -0.1236 -0.3419
  762MOL0     C 2775   5.970   0.133   0.230  0.0879  0.2451  1.3653
  762MOL0     C 2776   6.107   0.057   0.216  0.1177  0.5431 -0.0794
  762MOL0     C 2777   6.226   0.153   0.226  0.5778 -0.0566  1.2020
  762MOL0     C 2778   6.359   0.095   0.179 -0.1540  0.2598  0.5358
  762MOL0    Cl 2779   6.495   0.198   0.225  0.3932  0.0737  0.0419
  762MOL0     C 2780   5.234  -0.258   0.100  0.2755 -0.3188  0.0090
  762MOL0     C 2781   5.093  -0.274   0.078 -0.4239 -0.1906  0.6740
  762MOL0     O 2782   4.796  -0.186   0.209  0.0243  0.2936  0.0225
  762MOL0     C 2783   4.642  -0.178  -0.109  0.8234  0.0844 -0.1054
  762MOL0     C 2784   4.513  -0.171  -0.177  0.4065 -0.0854 -0.7639
  762MOL0     N 2785   3.770   0.337  -0.245  0.2998  0.3579 -0.2379
  762MOL0     N 2786   3.637   0.345  -0.240  0.0181  0.5689 -0.0538
  762MOL0     C 2787   2.728   1.194  -0.005  0.2335  0.2210  0.2955
  762MOL0     C 2788   2.646   1.304  -0.027  0.0459 -0.0657 -0.1709
  762MOL0     C 2789   2.247   1.556  -0.020 -1.2023  1.1318  0.8653
  762MOL0     C 2790   2.339   1.667  -0.019  0.6127 -0.2990  0.3666
  762MOL0     C 2791   2.294   1.797  -0.025 -0.1473 -0.3488  0.0653
  762MOL0     C 2792   2.169   1.832  -0.044  0.0221 -0.0582 -0.7393
  762MOL0     O 2793   2.141   1.969  -0.043 -0.8555 -0.5456 -0.3695
  762MOL0     C 2794   2.008   2.011  -0.026  0.8272  0.1434  0.6895
  762MOL0     C 2795   1.989   2.156   0.027 -0.3619  0.3099 -0.3565
  762MOL0     C 2796   1.843   2.204  -0.003 -0.4591 -0.2504  0.4313
  762MOL0     C 2797   1.807   2.341   0.069 -0.7132 -0.5234 -0.1952
  762MOL0     C 2798   1.899   2.449   0.034 -0.6198 -0.4082  0.2265
  762MOL0     C 2799   1.976   2.548   0.012  0.0346  0.0780 -0.0671
  762MOL0     C 2800   2.069   1.728  -0.055 -1.1082  0.1867 -0.1451
  762MOL0     C 2801   2.110   1.588  -0.038  0.4527  0.4694 -0.7163
  762MOL0     C 2802   2.004   1.477  -0.043  1.3009 -0.9817 -0.1788
  762MOL0     H 2803   2.397   1.219   0.193 -0.7421 -2.3582 -1.1096
  762MOL0     H 2804   2.544   1.045   0.238 -1.1203 -0.4112 -0.8151
  762MOL0     H 2805   2.848   0.970  -0.067 -3.6935  0.4924  2.2444
  762MOL0     H 2806   2.978   1.014   0.045  0.6469 -0.2055 -0.9699
  762MOL0     H 2807   2.822   0.763  -0.035  0.1693 -2.5379  0.1002
  762MOL0     H 2808   2.891   0.767   0.133  0.6152 -0.4542 -0.2425
  762MOL0     H 2809   3.107   0.829   0.037  1.7320 -3.2144 -0.9375
  762MOL0     H 2810   3.059   0.839  -0.122  1.0489  0.9550  0.2562
  762MOL0     H 2811   3.054   0.590   0.057  1.5443 -0.3392  0.5258
  762MOL0     H 2812   3.006   0.587  -0.116  2.5434  0.5938 -3.2350
  762MOL0     H 2813   3.265   0.646  -0.147 -3.0810  0.7206 -1.2355
  762MOL0     H 2814   3.266   0.639   0.027 -0.1820 -1.4090  1.2726
  762MOL0     H 2815   3.191   0.402   0.020  0.1904  2.9294  2.8468
  762MOL0     H 2816   3.208   0.401  -0.160 -1.1575  0.8447 -0.2708
  762MOL0     H 2817   3.436   0.472   0.034 -1.3067 -2.0389  1.5230
  762MOL0     H 2818   3.435   0.503  -0.141 -0.8710  0.9736  0.7656
  762MOL0     H 2819   3.435   0.235  -0.005  0.5267  2.3218  0.3362
  762MOL0     H 2820   3.388   0.254  -0.180 -0.5388  1.1531 -0.7752
  762MOL0     H 2821   3.688   0.171   0.032 -1.2452  0.5871  0.4421
  762MOL0     H 2822   4.018   0.262  -0.171  1.2612 -2.1367 -0.1947
  762MOL0     H 2823   3.966   0.255   0.004  3.3048  0.2907 -0.3769
  762MOL0     H 2824   3.913   0.021  -0.025  0.0383 -0.9920  0.8891
  762MOL0     H 2825   3.941   0.037  -0.198  2.0004 -0.9377 -1.0833
  762MOL0     H 2826   4.130   0.044   0.045  2.0156 -1.9972 -0.9923
  762MOL0     H 2827   4.194   0.096  -0.112 -1.8473  0.5933 -0.0675
  762MOL0     H 2828   4.065  -0.150  -0.150 -2.0199  0.5309  2.7899
  762MOL0     H 2829   4.158  -0.173  -0.000 -0.8200  1.3795  0.7750
  762MOL0     H 2830   4.338  -0.082   0.105 -0.7198 -0.5107  0.0438
  762MOL0     H 2831   4.552  -0.056   0.191 -1.6013  2.8840 -0.7877
  762MOL0     H 2832   5.026   0.046  -0.018  4.3754  2.1119 -0.8764
  762MOL0     H 2833   5.261   0.071   0.038 -3.0446  0.1897 -0.7348
  762MOL0     H 2834   5.502   0.019   0.022 -0.2780 -1.2700 -0.5808
  762MOL0     H 2835   5.461   0.061   0.185  2.1251  1.9304 -1.7169
  762MOL0     H 2836   5.639  -0.097   0.265 -1.4687  1.4208 -0.4490
  762MOL0     H 2837   5.696  -0.120   0.104  0.1797  0.5712 -0.5151
  762MOL0     H 2838   5.734   0.151   0.113  1.9654  0.1406  0.0288
  762MOL0     H 2839   5.712   0.138   0.285  0.8532  0.7131  0.3278
  762MOL0     H 2840   5.888  -0.035   0.130  0.4466  0.8385 -0.8597
  762MOL0     H 2841   5.869  -0.020   0.313 -0.4470  0.0569 -0.2434
  762MOL0     H 2842   5.962   0.174   0.331  0.0259  2.8339  0.3860
  762MOL0     H 2843   5.952   0.213   0.158 -0.9359  0.0377  1.3707
  762MOL0     H 2844   6.117  -0.030   0.281 -1.7853 -1.9931 -2.8967
  762MOL0     H 2845   6.118   0.021   0.113  1.7054  1.2580 -0.1973
  762MOL0     H 2846   6.239   0.176   0.332 -0.3009  0.7618  1.1451
  762MOL0     H 2847   6.213   0.248   0.172  2.1350 -2.0291 -3.0834
  762MOL0     H 2848   6.364  -0.003   0.227  2.2102  0.5897  1.0697
  762MOL0     H 2849   6.375   0.076   0.072  0.8996 -0.6489  0.8397
  762MOL0     H 2850   5.285  -0.350   0.125  0.8514 -0.7949 -2.6724
  762MOL0     H 2851   5.049  -0.372   0.061 -2.7221  1.1477 -1.8222
  762MOL0     H 2852   4.727  -0.199  -0.173 -0.1212 -2.5972 -0.6008
  762MOL0     H 2853   4.495  -0.194  -0.282 -1.5113  1.2455 -0.7823
  762MOL0     H 2854   2.818   1.195  -0.065  0.8219  1.9679  1.1286
  762MOL0     H 2855   2.669   1.382  -0.099 -1.9611  0.1131 -0.6705
  762MOL0     H 2856   2.444   1.659   0.008 -0.1175 -1.6787  3.1530
  762MOL0     H 2857   2.376   1.868  -0.021 -0.7694  0.5019 -1.4836
  762MOL0     H 2858   1.950   1.935   0.027 -1.8998  0.2694 -1.8387
  762MOL0     H 2859   1.969   2.011  -0.128  2.0041 -1.5380  0.2001
  762MOL0     H 2860   2.067   2.213  -0.025 -1.2350  0.0634 -2.0091
  762MOL0     H 2861   2.016   2.146   0.132  2.3707  0.5649 -0.9443
  762MOL0     H 2862   1.770   2.126   0.023 -2.7159  0.1562 -3.7967
  762MOL0     H 2863   1.830   2.221  -0.110  0.8006 -3.8212 -0.4466
  762MOL0     H 2864   1.709   2.372   0.032  0.8328  1.9874 -2.5898
  762MOL0     H 2865   1.801   2.329   0.178  2.2205 -2.2931 -0.1371
  762MOL0     H 2866   2.050   2.622  -0.011  1.3188 -0.6098  1.6744
  762MOL0     H 2867   1.971   1.760  -0.088 -0.7652  0.9228 -0.4842
  762MOL0     H 2868   2.030   1.389  -0.102 -2.3110 -1.8697 -0.6573
  762MOL0     H 2869   1.977   1.451   0.060  0.5470 -0.5444 -0.2578
  762MOL0     H 2870   1.912   1.511  -0.090  0.6309 -1.6403  0.6231
  763MOL0     O 2871   2.486  10.831   9.076  0.0838 -0.1606  0.3550
  763MOL0     C 2872   2.435  10.772   9.166  0.3890  0.4504  0.2506
  763MOL0     O 2873   2.504  10.698   9.261 -0.4183 -0.8180  0.5256
  763MOL0     C 2874   2.630  10.650   9.235 -0.5576  0.4615  0.7013
  763MOL0     C 2875   2.661  10.581   9.104  0.5373 -0.1782  0.1683
  763MOL0     C 2876   2.790  10.521   9.088  0.0876  0.5782  0.1367
  763MOL0     C 2877   2.884  10.528   9.195  0.5418  0.4371 -0.1687
  763MOL0     O 2878   2.997  10.457   9.179 -0.3202  0.1446 -0.1590
  763MOL0     C 2879   3.127  10.519   9.235  1.2893  0.9538  0.2034
  763MOL0     C 2880   3.245  10.425   9.226  0.0783  0.1180  0.0702
  763MOL0     C 2881   3.376  10.485   9.252 -0.4937  0.1906 -0.1426
  763MOL0     C 2882   3.490  10.395   9.192 -0.3622 -0.6187 -0.2709
  763MOL0     C 2883   3.624  10.450   9.218  0.1239  0.1543  0.2786
  763MOL0     C 2884   3.747  10.375   9.151 -0.4740 -0.1377 -0.4256
  763MOL0     C 2885   3.748  10.393   8.996  0.0522 -0.3240  0.2451
  763MOL0     C 2886   3.857  10.312   8.933 -0.6904  1.5954  0.9147
  763MOL0     N 2887   3.994  10.344   8.973  0.7827 -0.6901  0.4953
  763MOL0     C 2888   4.049  10.341   9.095 -0.5094 -0.6539 -0.7911
  763MOL0     C 2889   4.181  10.373   9.080 -0.2272 -0.0271  0.2169
  763MOL0     C 2890   4.299  10.394   9.176  0.8478  0.1018 -0.3337
  763MOL0     C 2891   4.255  10.485   9.297  0.1210  0.2591  0.2630
  763MOL0     C 2892   4.217  10.627   9.267  0.4847 -0.8780 -0.5860
  763MOL0     C 2893   4.338  10.712   9.220 -1.1222  0.2828  0.3160
  763MOL0     O 2894   4.455  10.702   9.300  0.6500  0.4938  0.2797
  763MOL0     C 2895   4.573  10.734   9.247  0.5934  0.6862  0.5554
  763MOL0     C 2896   4.680  10.674   9.306  0.0851  0.0314 -0.7010
  763MOL0     C 2897   4.807  10.673   9.257  0.4354  0.3382 -0.7591
  763MOL0     C 2898   4.828  10.739   9.132  0.3463 -0.3557  0.2004
  763MOL0     C 2899   4.961  10.732   9.053 -0.1755 -0.6699 -0.1716
  763MOL0     O 2900   5.069  10.710   9.137 -0.2721  0.3571 -0.7075
  763MOL0     C 2901   5.190  10.688   9.088  0.1209  0.5805 -0.5132
  763MOL0     C 2902   5.199  10.594   8.992 -0.6862  1.1161  0.2193
  763MOL0     C 2903   5.326  10.542   8.953 -0.5804  0.1861  0.1885
  763MOL0     C 2904   5.445  10.602   9.002  0.2363  0.0795 -0.2842
  763MOL0     O 2905   5.570  10.568   8.957  0.6008 -0.2477 -0.5122
  763MOL0     C 2906   5.592  10.613   8.823  0.3453 -0.1623  0.5319
  763MOL0     C 2907   5.728  10.555   8.768 -0.3710 -0.8053  0.3159
  763MOL0     C 2908   5.841  10.585   8.859 -0.1178 -0.3400 -0.5909
  763MOL0     C 2909   5.884  10.732   8.838  0.2058 -0.1531 -0.4691
  763MOL0     C 2910   6.003  10.758   8.934 -0.3619  0.8499 -0.1284
  763MOL0     C 2911   5.994  10.891   9.009 -0.3914 -0.9912 -0.5115
  763MOL0     C 2912   6.125  10.909   9.089 -0.8456 -0.8614 -0.0169
  763MOL0     C 2913   6.142  11.048   9.146 -0.6829  0.6770  0.1742
  763MOL0    Cl 2914   6.313  11.079   9.192  0.5019 -0.4596 -0.1184
  763MOL0     C 2915   5.434  10.703   9.108 -0.0484  0.4717  0.8589
  763MOL0     C 2916   5.306  10.747   9.147 -0.1174 -0.1409  0.6107
  763MOL0     O 2917   4.970  10.749   8.930 -0.5191  0.1936  0.4973
  763MOL0     C 2918   4.725  10.815   9.079 -0.3552 -0.8488  0.1219
  763MOL0     C 2919   4.600  10.818   9.138 -0.4975 -0.7520  0.0744
  763MOL0     N 2920   4.199  10.397   8.946 -1.0906 -0.6102  0.3317
  763MOL0     N 2921   4.091  10.382   8.886 -0.7767  0.6474 -0.3642
  763MOL0     C 2922   2.841  10.575   9.317 -0.6647  0.2298  0.1926
  763MOL0     C 2923   2.720  10.640   9.339 -0.2662  0.0069 -0.0852
  763MOL0     C 2924   2.286  10.778   9.198  1.0359 -0.9243 -0.1909
  763MOL0     C 2925   2.225  10.722   9.309  0.0563 -0.0020  0.3705
  763MOL0     C 2926   2.087  10.735   9.345 -0.2754  0.4029 -1.2602
  763MOL0     C 2927   1.997  10.801   9.264 -0.3851 -0.4058  0.3185
  763MOL0     O 2928   1.867  10.809   9.302  0.3288 -0.1235  0.6151
  763MOL0     C 2929   1.791  10.921   9.270 -0.5380  0.1780 -0.4485
  763MOL0     C 2930   1.651  10.931   9.329 -0.3309 -0.6434 -0.5231
  763MOL0     C 2931   1.591  11.068   9.337 -0.5707 -0.7758  1.1561
  763MOL0     C 2932   1.458  11.055   9.423  0.5133  0.4570  0.1197
  763MOL0     C 2933   1.357  11.026   9.334 -0.7934  0.8579  0.2813
  763MOL0     C 2934   1.275  11.004   9.250 -0.6724 -0.4861  0.2712
  763MOL0     C 2935   2.057  10.862   9.146  1.1425 -0.3094  0.5004
  763MOL0     C 2936   2.193  10.852   9.109  0.1967 -0.3411  1.1120
  763MOL0     C 2937   2.231  10.907   8.975  0.0111 -0.6215 -0.4240
  763MOL0     H 2938   2.577  10.580   9.036  0.3806 -2.2620  0.3120
  763MOL0     H 2939   2.821  10.459   9.005 -0.4622 -3.3695  2.5922
  763MOL0     H 2940   3.142  10.605   9.170 -0.4805  0.7850 -0.4799
  763MOL0     H 2941   3.116  10.545   9.341 -0.6461 -2.5617  1.0350
  763MOL0     H 2942   3.236  10.372   9.130 -4.3293 -0.1457  0.3955
  763MOL0     H 2943   3.228  10.345   9.298 -0.3180  0.5358  0.4497
  763MOL0     H 2944   3.410  10.492   9.356  2.7686  3.0305 -1.2053
  763MOL0     H 2945   3.379  10.580   9.198 -1.4655  1.0730  1.3163
  763MOL0     H 2946   3.485  10.297   9.241 -1.4306 -1.1173 -1.3314
  763MOL0     H 2947   3.483  10.382   9.084  0.4313 -1.0365 -0.2813
  763MOL0     H 2948   3.627  10.553   9.182 -2.6853 -0.3687 -1.8293
  763MOL0     H 2949   3.639  10.431   9.325 -2.3730 -0.8418  0.5259
  763MOL0     H 2950   3.835  10.416   9.203  0.2955  1.7981 -3.0513
  763MOL0     H 2951   3.756  10.266   9.161 -0.2529 -0.1367 -0.6035
  763MOL0     H 2952   3.771  10.495   8.964 -0.2989  0.0158  1.0502
  763MOL0     H 2953   3.654  10.353   8.958 -0.4505  1.3923 -0.3763
  763MOL0     H 2954   3.836  10.207   8.954  1.3460  1.3281  1.9126
  763MOL0     H 2955   3.850  10.329   8.825  3.0903 -0.9835  0.0658
  763MOL0     H 2956   4.001  10.307   9.187 -0.0112  2.4054  0.7605
  763MOL0     H 2957   4.330  10.291   9.194 -1.2376 -0.6602 -0.8146
  763MOL0     H 2958   4.380  10.447   9.124  0.8630 -0.7697 -1.2262
  763MOL0     H 2959   4.170  10.436   9.346 -0.9770  1.8358  0.0019
  763MOL0     H 2960   4.332  10.492   9.374 -2.4979 -0.1814  3.1373
  763MOL0     H 2961   4.182  10.677   9.358 -0.3454  0.6128 -1.6875
  763MOL0     H 2962   4.135  10.627   9.195 -1.0549 -4.9766  0.8462
  763MOL0     H 2963   4.319  10.820   9.222  1.1872  0.7134  1.8283
  763MOL0     H 2964   4.359  10.692   9.114  0.0807  0.7093  0.4623
  763MOL0     H 2965   4.659  10.620   9.398  0.1906 -1.4471 -1.5199
  763MOL0     H 2966   4.882  10.618   9.313  0.4795  1.5385  0.4021
  763MOL0     H 2967   5.114  10.545   8.948  1.6921 -3.7004  0.3062
  763MOL0     H 2968   5.322  10.459   8.883  2.4382 -0.7898  1.0238
  763MOL0     H 2969   5.510  10.565   8.769  0.2902 -2.1430  2.2556
  763MOL0     H 2970   5.604  10.721   8.816  3.8294 -0.3950  1.0400
  763MOL0     H 2971   5.721  10.446   8.767  0.0113 -0.8428 -1.4487
  763MOL0     H 2972   5.763  10.596   8.673  1.7492 -0.3761  1.2251
  763MOL0     H 2973   5.824  10.550   8.961  1.6292 -0.7477 -0.4063
  763MOL0     H 2974   5.929  10.526   8.835  0.1037  0.3589 -1.5564
  763MOL0     H 2975   5.805  10.806   8.855  0.3143 -0.0963 -0.2027
  763MOL0     H 2976   5.915  10.754   8.736  0.6972  4.8125  0.4633
  763MOL0     H 2977   6.089  10.743   8.868 -1.2013  0.6363 -1.1977
  763MOL0     H 2978   5.998  10.679   9.010  1.3997  1.3798  0.5954
  763MOL0     H 2979   5.983  10.972   8.936  4.4328  0.3857 -0.0923
  763MOL0     H 2980   5.902  10.873   9.065 -2.4318 -2.8858 -4.0696
  763MOL0     H 2981   6.216  10.882   9.034  0.1608  0.6944  0.8272
  763MOL0     H 2982   6.129  10.835   9.170  2.1411  0.4138  1.1509
  763MOL0     H 2983   6.128  11.117   9.062  0.7407 -0.9602 -1.5310
  763MOL0     H 2984   6.075  11.073   9.228 -1.0820 -0.0146  0.0656
  763MOL0     H 2985   5.522  10.748   9.152 -0.2891  1.8518 -0.0050
  763MOL0     H 2986   5.299  10.822   9.225 -2.0215  1.2313 -0.7898
  763MOL0     H 2987   4.741  10.856   8.980  1.6627 -4.0136 -1.0026
  763MOL0     H 2988   4.525  10.883   9.094 -0.9836 -1.6651 -0.4768
  763MOL0     H 2989   2.919  10.568   9.392  0.7523  2.5011 -0.9214
  763MOL0     H 2990   2.693  10.693   9.431  0.7465  1.3400 -0.5332
  763MOL0     H 2991   2.286  10.672   9.384 -1.2827 -0.8859  0.9128
  763MOL0     H 2992   2.050  10.714   9.445  4.1334  1.1465  0.7784
  763MOL0     H 2993   1.783  10.924   9.161  0.7937  1.5081 -0.5466
  763MOL0     H 2994   1.843  11.014   9.294  0.9285 -0.6941 -0.1611
  763MOL0     H 2995   1.647  10.885   9.428 -0.4106 -4.9085 -2.2727
  763MOL0     H 2996   1.577  10.879   9.268 -0.4331 -2.0886  0.7850
  763MOL0     H 2997   1.574  11.113   9.239 -0.9619  0.7457  1.8909
  763MOL0     H 2998   1.669  11.128   9.386  0.2430  0.0086 -1.0035
  763MOL0     H 2999   1.455  10.976   9.499 -1.5991 -0.2425 -0.6206
  763MOL0     H 3000   1.435  11.148   9.476  0.7163  1.2307 -1.0966
  763MOL0     H 3001   1.199  10.983   9.177 -0.2187 -0.6557 -0.1611
  763MOL0     H 3002   1.987  10.915   9.083  1.7621  0.8950  0.7853
  763MOL0     H 3003   2.312  10.980   8.985  1.9945 -2.7204 -0.3117
  763MOL0     H 3004   2.265  10.822   8.914 -1.7322 -1.3690 -0.4004
  763MOL0     H 3005   2.147  10.957   8.926  0.9523  3.2511  1.4924
  764MOL0     O 3006   9.385   5.861  10.417 -0.0075 -0.7254 -0.6745
  764MOL0     C 3007   9.289   5.938  10.441 -0.8922  0.6341 -0.4002
  764MOL0     O 3008   9.282   6.056  10.383 -0.1053  0.0155  0.2222
  764MOL0     C 3009   9.370   6.127  10.301  0.4814  0.6206  0.0140
  764MOL0     C 3010   9.312   6.213  10.209 -0.8977  0.4347 -0.5930
  764MOL0     C 3011   9.391   6.266  10.108 -0.9883  0.1455  0.2810
  764MOL0     C 3012   9.529   6.246  10.112 -0.0818  0.6089 -0.0829
  764MOL0     O 3013   9.626   6.296  10.029 -0.1783  0.0400 -0.0430
  764MOL0     C 3014   9.604   6.428   9.989  0.4690 -0.3577 -0.3364
  764MOL0     C 3015   9.721   6.510   9.944  1.2750  1.0352  0.2730
  764MOL0     C 3016   9.676   6.654   9.895  0.8300 -0.0981  0.4805
  764MOL0     C 3017   9.800   6.750   9.888 -0.6096  0.6225 -0.9683
  764MOL0     C 3018   9.772   6.855   9.777  0.0582  0.4124  0.6257
  764MOL0     C 3019   9.902   6.943   9.783 -0.2247  0.0343  0.1823
  764MOL0     C 3020   9.895   7.050   9.894 -1.1222  0.4230 -0.7497
  764MOL0     C 3021   9.773   7.152   9.885 -0.1629 -0.8179 -0.1768
  764MOL0     N 3022   9.790   7.243   9.771  0.7851 -0.4045 -0.1874
  764MOL0     C 3023   9.878   7.344   9.755  0.3333 -0.4070  0.6720
  764MOL0     C 3024   9.858   7.396   9.632 -0.1868 -0.9046  0.4154
  764MOL0     C 3025   9.938   7.507   9.566 -0.1109  0.0276 -0.3020
  764MOL0     C 3026   9.871   7.645   9.576 -0.2213  0.2070 -0.4022
  764MOL0     C 3027   9.921   7.763   9.498 -0.1049  0.6332  0.2374
  764MOL0     C 3028  10.065   7.779   9.500 -0.3505  0.1731  1.5402
  764MOL0     O 3029  10.109   7.898   9.433  0.7649  0.1729  0.6453
  764MOL0     C 3030  10.246   7.920   9.421  0.6196  0.4637  0.2418
  764MOL0     C 3031  10.290   8.039   9.365 -0.0887  0.3574  0.2067
  764MOL0     C 3032  10.430   8.065   9.352 -0.2199  0.3596  0.3929
  764MOL0     C 3033  10.527   7.962   9.383  0.2064  0.8620 -0.2723
  764MOL0     C 3034  10.669   7.998   9.382 -0.2179  0.4121 -0.6704
  764MOL0     O 3035  10.766   7.893   9.412 -0.0041 -0.0759  0.1797
  764MOL0     C 3036  10.897   7.924   9.429 -0.2003 -0.1377  0.4868
  764MOL0     C 3037  10.991   7.828   9.398 -0.4757  1.0048  0.0301
  764MOL0     C 3038  11.131   7.857   9.411 -1.1884  0.0568 -0.2428
  764MOL0     C 3039  11.180   7.979   9.457  0.7071 -0.7983 -0.3581
  764MOL0     O 3040  11.316   7.987   9.472  0.3985 -0.0035 -0.2881
  764MOL0     C 3041  11.353   8.038   9.593  0.5287 -0.1968 -0.6275
  764MOL0     C 3042  11.503   8.037   9.582  0.8981  0.7437 -0.0011
  764MOL0     C 3043  11.566   8.087   9.707 -0.4182 -1.0097  0.6608
  764MOL0     C 3044  11.708   8.131   9.683  0.9824  0.2963 -0.2124
  764MOL0     C 3045  11.773   8.180   9.814 -0.6216  0.2184 -0.1967
  764MOL0     C 3046  11.930   8.204   9.797 -0.0711 -0.0135 -0.1164
  764MOL0     C 3047  11.965   8.321   9.705  0.3170 -0.4679  0.5440
  764MOL0     C 3048  12.115   8.343   9.684  0.0648  1.1881  0.0564
  764MOL0    Cl 3049  12.182   8.224   9.565 -0.2005  0.1531 -0.7274
  764MOL0     C 3050  11.080   8.074   9.493  0.0549  0.7937  0.3225
  764MOL0     C 3051  10.946   8.044   9.477  0.1103  0.3561 -0.8258
  764MOL0     O 3052  10.696   8.109   9.343  0.2988  0.5561 -0.7375
  764MOL0     C 3053  10.476   7.831   9.419 -0.5038 -0.1693  0.2460
  764MOL0     C 3054  10.336   7.814   9.445 -0.0721 -0.8992 -0.5408
  764MOL0     N 3055   9.758   7.320   9.567 -0.0069 -0.9657 -0.1546
  764MOL0     N 3056   9.712   7.228   9.652 -0.0934 -0.4154  0.6196
  764MOL0     C 3057   9.582   6.154  10.200 -0.0307  0.0170  0.0455
  764MOL0     C 3058   9.503   6.105  10.303 -0.3023 -0.4987 -0.1511
  764MOL0     C 3059   9.176   5.882  10.529  0.0698 -0.6163  0.3565
  764MOL0     C 3060   9.090   5.988  10.576  0.0171  0.2865 -0.7294
  764MOL0     C 3061   8.974   5.957  10.653 -0.2952 -0.1783  0.1497
  764MOL0     C 3062   8.946   5.821  10.690  0.5368 -0.4503  0.5067
  764MOL0     O 3063   8.831   5.778  10.760 -0.1838 -0.0066  0.8821
  764MOL0     C 3064   8.732   5.868  10.814 -0.3749  1.0406 -0.7419
  764MOL0     C 3065   8.627   5.796  10.881  0.8084  0.9840 -0.4609
  764MOL0     C 3066   8.548   5.703  10.783  0.0755  0.3022  0.5596
  764MOL0     C 3067   8.452   5.611  10.858  0.0962  0.3573 -0.9277
  764MOL0     C 3068   8.375   5.525  10.761 -0.3396  0.4202 -0.4351
  764MOL0     C 3069   8.313   5.455  10.681  0.0545 -0.5271 -0.4342
  764MOL0     C 3070   9.035   5.729  10.642 -0.8129  0.6473  0.1326
  764MOL0     C 3071   9.150   5.750  10.562 -0.4267  0.2966  0.3442
  764MOL0     C 3072   9.226   5.638  10.505  0.4995  0.1340 -0.4575
  764MOL0     H 3073   9.205   6.228  10.207 -0.8230  1.0621 -0.0104
  764MOL0     H 3074   9.354   6.335  10.033 -0.2987 -1.1135 -1.2813
  764MOL0     H 3075   9.546   6.418   9.897 -3.3125 -0.3126  1.8582
  764MOL0     H 3076   9.532   6.484  10.049 -2.1302 -1.1440 -2.5381
  764MOL0     H 3077   9.779   6.463   9.865  2.1747  2.5841 -0.0240
  764MOL0     H 3078   9.794   6.532  10.022  1.4818  0.2122  0.3201
  764MOL0     H 3079   9.602   6.701   9.960 -1.6883 -0.7419 -1.7461
  764MOL0     H 3080   9.629   6.628   9.799 -0.2766 -1.4259  1.3405
  764MOL0     H 3081   9.834   6.782   9.987 -0.9205 -0.4658 -0.5052
  764MOL0     H 3082   9.885   6.689   9.857 -0.4201 -0.1170  0.9091
  764MOL0     H 3083   9.763   6.803   9.681  1.0535  2.0992 -0.4231
  764MOL0     H 3084   9.684   6.918   9.791  0.7091  2.1928 -2.3023
  764MOL0     H 3085   9.990   6.879   9.795 -0.4692 -0.3552 -0.1093
  764MOL0     H 3086   9.926   6.996   9.690  1.8040  1.6710  1.5459
  764MOL0     H 3087   9.993   7.097   9.884 -0.7259 -0.2265 -0.0037
  764MOL0     H 3088   9.901   7.011   9.996  0.0925 -0.6887 -1.2217
  764MOL0     H 3089   9.677   7.100   9.876  0.0904 -1.2549 -0.3716
  764MOL0     H 3090   9.766   7.209   9.979 -2.8114 -2.6232  0.8417
  764MOL0     H 3091   9.952   7.383   9.825  1.0964  0.0999 -0.3808
  764MOL0     H 3092  10.035   7.515   9.616  0.9743 -1.8157 -1.9453
  764MOL0     H 3093   9.948   7.483   9.459 -3.3708 -1.2698 -0.4299
  764MOL0     H 3094   9.763   7.644   9.566 -0.5372 -0.6279  2.2512
  764MOL0     H 3095   9.879   7.682   9.679 -1.3488  3.7810 -1.4447
  764MOL0     H 3096   9.864   7.854   9.521  0.2239  0.0526  3.9347
  764MOL0     H 3097   9.892   7.750   9.394 -1.1570 -1.0839  0.7171
  764MOL0     H 3098  10.105   7.690   9.449  0.3199  0.7390  1.0551
  764MOL0     H 3099  10.108   7.781   9.600  1.5567  0.9349  0.7527
  764MOL0     H 3100  10.212   8.109   9.336  1.0402  0.5741 -2.6411
  764MOL0     H 3101  10.463   8.163   9.317  0.7404  0.2784  1.0238
  764MOL0     H 3102  10.951   7.736   9.358  0.3844  0.5756  0.1380
  764MOL0     H 3103  11.207   7.784   9.383  1.3577  1.9012  1.3851
  764MOL0     H 3104  11.328   8.144   9.598 -1.0612 -0.5385 -0.6197
  764MOL0     H 3105  11.333   7.988   9.688  0.0223  1.2945  0.0845
  764MOL0     H 3106  11.535   7.932   9.575  0.8491  0.5862  1.6993
  764MOL0     H 3107  11.544   8.084   9.492  0.6529 -2.3534 -1.8763
  764MOL0     H 3108  11.511   8.166   9.760 -0.3761 -2.4124  2.9021
  764MOL0     H 3109  11.573   8.014   9.787  0.4322 -1.3089  0.3264
  764MOL0     H 3110  11.700   8.216   9.614  0.2205 -0.2248 -0.7877
  764MOL0     H 3111  11.761   8.043   9.646  2.6418  1.7399 -1.4814
  764MOL0     H 3112  11.759   8.095   9.881  2.3839 -2.0047 -2.1706
  764MOL0     H 3113  11.723   8.269   9.854  0.3295 -0.1765  2.0331
  764MOL0     H 3114  11.970   8.217   9.898 -0.3224 -2.6713  0.4224
  764MOL0     H 3115  11.973   8.111   9.758 -0.0173 -0.3769  0.7841
  764MOL0     H 3116  11.930   8.419   9.738 -0.1877  0.0813 -1.5132
  764MOL0     H 3117  11.934   8.304   9.602  1.3938  0.4396  0.0526
  764MOL0     H 3118  12.146   8.443   9.651  0.1913  1.0253 -0.3246
  764MOL0     H 3119  12.166   8.313   9.776  1.5484 -2.0859 -1.6709
  764MOL0     H 3120  11.118   8.163   9.542  0.1347  1.8537 -1.5717
  764MOL0     H 3121  10.878   8.119   9.516  0.1928  0.4734 -0.9107
  764MOL0     H 3122  10.533   7.748   9.460 -0.0975  0.4993  1.0576
  764MOL0     H 3123  10.317   7.717   9.488  0.0498  0.3244  2.5267
  764MOL0     H 3124   9.682   6.120  10.175 -0.1605  1.9834 -3.8152
  764MOL0     H 3125   9.547   6.032  10.371 -1.4211 -0.4193  0.6958
  764MOL0     H 3126   9.125   6.090  10.565  3.2281 -0.6829 -0.4666
  764MOL0     H 3127   8.909   6.040  10.680  0.9882  1.3243 -1.2444
  764MOL0     H 3128   8.690   5.924  10.730  0.4889  2.4159 -0.3032
  764MOL0     H 3129   8.783   5.938  10.881 -0.5072  0.0322  0.4327
  764MOL0     H 3130   8.561   5.864  10.935  1.4670 -0.3151  2.1758
  764MOL0     H 3131   8.683   5.738  10.955  1.4272  1.1865 -0.7658
  764MOL0     H 3132   8.609   5.637  10.721 -0.4989 -0.5692  0.9132
  764MOL0     H 3133   8.490   5.775  10.724  3.4233  0.2713 -3.2685
  764MOL0     H 3134   8.511   5.550  10.927 -2.0922 -0.8444  0.0055
  764MOL0     H 3135   8.382   5.671  10.917  0.5027 -2.8524  3.2567
  764MOL0     H 3136   8.252   5.399  10.613 -2.3734  2.9407 -1.3650
  764MOL0     H 3137   8.994   5.637  10.682  0.0362  0.6498  1.0434
  764MOL0     H 3138   9.194   5.547  10.558 -1.1550  0.7613 -0.3027
  764MOL0     H 3139   9.223   5.624  10.397  0.0788 -2.1795 -0.1958
  764MOL0     H 3140   9.325   5.647  10.549 -0.7963 -0.9348  3.0463
  765MOL0     O 3141   9.097   1.788   5.378 -0.0022  0.0869 -0.2114
  765MOL0     C 3142   9.081   1.758   5.495 -0.6734 -0.4901  0.3378
  765MOL0     O 3143   9.181   1.712   5.575 -0.2529 -0.4265 -0.1148
  765MOL0     C 3144   9.310   1.741   5.530  0.6729  0.6886  0.2007
  765MOL0     C 3145   9.361   1.661   5.425  0.2092  0.2471  0.3276
  765MOL0     C 3146   9.492   1.679   5.393 -0.0836  0.1397  0.6199
  765MOL0     C 3147   9.584   1.764   5.465  0.1573 -0.9913  0.4165
  765MOL0     O 3148   9.726   1.778   5.443  0.6153  0.3610  0.9709
  765MOL0     C 3149   9.760   1.751   5.301  0.5369  1.5441  0.2300
  765MOL0     C 3150   9.872   1.841   5.254 -0.3879  0.1027 -0.1704
  765MOL0     C 3151   9.996   1.802   5.327 -0.7424 -0.5746  0.1746
  765MOL0     C 3152  10.097   1.719   5.242  0.5097 -0.4197  0.1455
  765MOL0     C 3153  10.239   1.709   5.307 -0.2804  0.2693 -0.1901
  765MOL0     C 3154  10.334   1.623   5.227 -0.4438  0.8937  0.8459
  765MOL0     C 3155  10.479   1.641   5.262 -0.1185  0.5850  0.3948
  765MOL0     C 3156  10.564   1.523   5.207 -0.3100 -0.2345 -0.3929
  765MOL0     N 3157  10.711   1.529   5.236 -0.2800 -0.6705 -1.0680
  765MOL0     C 3158  10.785   1.636   5.258 -0.4657 -0.6194  0.4418
  765MOL0     C 3159  10.906   1.599   5.297  0.4241 -0.3782 -0.0074
  765MOL0     C 3160  11.020   1.676   5.341 -0.2505 -0.1829  0.1415
  765MOL0     C 3161  11.042   1.705   5.491  0.1509 -0.0933  0.0637
  765MOL0     C 3162  11.140   1.616   5.572  1.3041  0.3872  0.0203
  765MOL0     C 3163  11.276   1.605   5.506  1.1291  0.1385 -0.0632
  765MOL0     O 3164  11.337   1.725   5.480  1.4309 -0.0878  0.2395
  765MOL0     C 3165  11.425   1.781   5.563  0.0606 -0.3059 -0.6149
  765MOL0     C 3166  11.490   1.888   5.511 -0.5832 -0.1323  1.0304
  765MOL0     C 3167  11.602   1.945   5.578  0.8392 -0.2362 -0.9757
  765MOL0     C 3168  11.641   1.899   5.706  0.7024 -0.3283  0.2156
  765MOL0     C 3169  11.757   1.951   5.773  0.1646  0.2955 -0.2045
  765MOL0     O 3170  11.785   1.913   5.899  0.3264  0.0212  0.2713
  765MOL0     C 3171  11.899   1.973   5.954 -0.0553 -1.3386  0.9619
  765MOL0     C 3172  11.890   2.090   6.025  0.2303  0.2156  0.3322
  765MOL0     C 3173  12.008   2.139   6.079  1.0357 -0.1828  0.0100
  765MOL0     C 3174  12.134   2.076   6.061 -0.2253  0.2906  0.2350
  765MOL0     O 3175  12.245   2.133   6.119 -0.9671 -0.3458 -0.4763
  765MOL0     C 3176  12.372   2.137   6.036  0.7620 -0.2961  0.6275
  765MOL0     C 3177  12.483   2.091   6.129  0.0052  0.7466 -0.2735
  765MOL0     C 3178  12.614   2.097   6.048 -0.1474 -0.1789 -0.5094
  765MOL0     C 3179  12.728   2.110   6.140  0.4470 -0.4497  0.6619
  765MOL0     C 3180  12.870   2.117   6.072  0.5703 -0.0633 -0.0484
  765MOL0     C 3181  12.973   2.150   6.187 -0.3625  0.9805 -0.3253
  765MOL0     C 3182  12.963   2.289   6.251  0.3924 -0.2897 -0.3246
  765MOL0     C 3183  13.095   2.307   6.336  1.1454 -0.4209  0.6532
  765MOL0    Cl 3184  13.229   2.354   6.222  0.0210 -0.0961 -0.1876
  765MOL0     C 3185  12.138   1.959   5.984 -0.1682  0.8638 -0.8595
  765MOL0     C 3186  12.020   1.909   5.936  0.1451  0.4662 -0.5838
  765MOL0     O 3187  11.821   2.034   5.711  0.3318 -0.0304  0.1199
  765MOL0     C 3188  11.570   1.788   5.762 -0.2057  0.0380  0.1716
  765MOL0     C 3189  11.463   1.735   5.689 -0.2937 -0.1881  0.7388
  765MOL0     N 3190  10.908   1.460   5.306 -0.2604  0.0313 -0.3807
  765MOL0     N 3191  10.780   1.422   5.287 -0.7722 -0.1638 -0.2513
  765MOL0     C 3192   9.528   1.829   5.580 -0.6235 -0.1555  0.1853
  765MOL0     C 3193   9.389   1.823   5.597 -0.6141  0.0100 -0.0235
  765MOL0     C 3194   8.944   1.779   5.559 -0.6213  0.5214  0.0422
  765MOL0     C 3195   8.943   1.778   5.700  0.5302  0.1166  0.2574
  765MOL0     C 3196   8.822   1.795   5.781 -0.3414 -0.3553 -0.2574
  765MOL0     C 3197   8.697   1.824   5.711 -0.1336  0.4393 -0.3912
  765MOL0     O 3198   8.582   1.833   5.778  0.3136  0.0169 -0.4156
  765MOL0     C 3199   8.602   1.848   5.924  0.2152 -0.7811  0.2976
  765MOL0     C 3200   8.465   1.875   5.991  0.2012 -0.9243  0.0125
  765MOL0     C 3201   8.398   2.005   5.930  0.7933 -0.2086  0.7037
  765MOL0     C 3202   8.259   2.031   6.004  0.9012  0.0105  0.1558
  765MOL0     C 3203   8.179   2.134   5.928 -0.2732  0.2007 -0.5470
  765MOL0     C 3204   8.126   2.224   5.866 -0.2583  0.4544  0.2988
  765MOL0     C 3205   8.701   1.819   5.573 -0.7054 -0.7587  0.9214
  765MOL0     C 3206   8.818   1.793   5.497 -0.2070  0.8483  0.1550
  765MOL0     C 3207   8.798   1.793   5.348  0.1547  0.0542  0.0194
  765MOL0     H 3208   9.287   1.599   5.375  1.4784 -0.2109 -1.0413
  765MOL0     H 3209   9.526   1.618   5.309  1.2163 -0.5142  1.5936
  765MOL0     H 3210   9.791   1.648   5.284  1.1058  1.8656 -0.7686
  765MOL0     H 3211   9.684   1.784   5.230  0.4366  1.9054  0.5040
  765MOL0     H 3212   9.854   1.948   5.268  1.6793  0.4764 -0.0535
  765MOL0     H 3213   9.893   1.827   5.147 -1.3110  0.6561 -0.4343
  765MOL0     H 3214   9.964   1.749   5.417 -0.8200 -2.2681 -0.8125
  765MOL0     H 3215  10.049   1.892   5.359  0.8434 -0.5179 -2.3037
  765MOL0     H 3216  10.062   1.617   5.258 -1.4595  0.4060  1.5062
  765MOL0     H 3217  10.089   1.746   5.136 -2.3406  1.6013  0.7662
  765MOL0     H 3218  10.282   1.810   5.308  0.2370  0.0510  0.8970
  765MOL0     H 3219  10.224   1.667   5.407 -0.4116 -2.5417 -1.3001
  765MOL0     H 3220  10.309   1.517   5.224  0.8794  0.4954 -3.6857
  765MOL0     H 3221  10.319   1.647   5.122 -0.8944 -1.0668  0.4343
  765MOL0     H 3222  10.488   1.645   5.371 -0.8270  1.4637  0.4349
  765MOL0     H 3223  10.515   1.738   5.224 -0.2895  0.3598 -0.3619
  765MOL0     H 3224  10.522   1.430   5.248 -1.1182  0.4936  0.4672
  765MOL0     H 3225  10.555   1.522   5.098 -0.3649  3.4151 -0.5416
  765MOL0     H 3226  10.748   1.738   5.248  0.0434 -0.5641 -1.0925
  765MOL0     H 3227  11.109   1.632   5.294  0.5902  0.7716  0.7987
  765MOL0     H 3228  11.008   1.771   5.288  0.2816 -0.7139 -0.9689
  765MOL0     H 3229  11.069   1.809   5.510  0.2420  0.1729 -1.3999
  765MOL0     H 3230  10.942   1.688   5.532 -2.9119  1.5847 -5.5605
  765MOL0     H 3231  11.094   1.517   5.575  0.1993  0.8496 -0.9869
  765MOL0     H 3232  11.142   1.649   5.676  0.8278  1.7084 -0.3640
  765MOL0     H 3233  11.264   1.545   5.415 -1.2410 -0.2023  0.4233
  765MOL0     H 3234  11.333   1.546   5.578 -0.2755 -1.5508 -0.2697
  765MOL0     H 3235  11.461   1.914   5.410 -0.7393 -1.4727  0.7004
  765MOL0     H 3236  11.639   2.039   5.538 -2.6562  2.1932  0.9305
  765MOL0     H 3237  11.791   2.134   6.033 -0.4204 -1.2250  0.4640
  765MOL0     H 3238  12.004   2.233   6.133 -2.0636 -0.4601  0.4389
  765MOL0     H 3239  12.359   2.079   5.944 -0.6410 -0.7915  1.1157
  765MOL0     H 3240  12.404   2.238   6.010  1.6758 -0.6323  0.4076
  765MOL0     H 3241  12.495   2.161   6.212  0.1169 -0.0045  0.3557
  765MOL0     H 3242  12.461   1.991   6.169  0.4966  0.3931 -0.8501
  765MOL0     H 3243  12.626   2.007   5.987  0.4687  1.0179 -2.2333
  765MOL0     H 3244  12.637   2.173   5.973  2.6708 -1.0927 -0.7008
  765MOL0     H 3245  12.729   2.041   6.225  0.8615 -0.7476  0.4212
  765MOL0     H 3246  12.708   2.198   6.203 -2.0735 -0.7876  0.4408
  765MOL0     H 3247  12.869   2.199   6.000 -1.7140  0.0546  0.0425
  765MOL0     H 3248  12.895   2.020   6.027  2.7277 -1.2344  3.2733
  765MOL0     H 3249  12.967   2.068   6.260 -0.7879  0.3590 -1.0414
  765MOL0     H 3250  13.074   2.130   6.148 -0.2456 -0.6770  0.7400
  765MOL0     H 3251  12.878   2.290   6.319  1.1400  1.2133  0.6599
  765MOL0     H 3252  12.964   2.372   6.178  3.0013  0.3898  0.3834
  765MOL0     H 3253  13.079   2.397   6.396  0.4523 -1.7015  2.4764
  765MOL0     H 3254  13.121   2.222   6.399 -1.8559 -0.7580  1.6065
  765MOL0     H 3255  12.235   1.913   5.968  0.5878  1.5690  1.2884
  765MOL0     H 3256  12.016   1.815   5.881  1.7206  0.2788 -0.4272
  765MOL0     H 3257  11.593   1.758   5.864 -1.9529 -2.7688 -0.1681
  765MOL0     H 3258  11.404   1.663   5.743 -1.5125  0.7783  0.7531
  765MOL0     H 3259   9.594   1.889   5.642  1.9267 -0.3730 -2.1907
  765MOL0     H 3260   9.342   1.862   5.687  2.1907 -0.4307  1.7363
  765MOL0     H 3261   9.038   1.752   5.746  0.8585  1.1110  0.1615
  765MOL0     H 3262   8.836   1.793   5.888  1.3354  2.0655 -0.3450
  765MOL0     H 3263   8.666   1.934   5.943 -3.6892  1.9103  2.6611
  765MOL0     H 3264   8.650   1.755   5.959 -1.1713 -1.5689  0.1632
  765MOL0     H 3265   8.467   1.888   6.099  0.1505 -0.2094 -0.0682
  765MOL0     H 3266   8.403   1.787   5.970 -1.5986 -0.1409  1.7729
  765MOL0     H 3267   8.380   1.980   5.825  2.2918  0.1117  0.3403
  765MOL0     H 3268   8.462   2.093   5.935 -0.9509  1.2050 -0.7262
  765MOL0     H 3269   8.205   1.937   6.001  0.8516  0.0498 -0.2033
  765MOL0     H 3270   8.276   2.064   6.108  4.1950  1.1412 -0.5935
  765MOL0     H 3271   8.063   2.297   5.820  0.9890 -0.3238 -2.9776
  765MOL0     H 3272   8.603   1.823   5.526 -2.0445  0.7369  3.5813
  765MOL0     H 3273   8.871   1.723   5.307  0.4685  0.9651 -1.0590
  765MOL0     H 3274   8.696   1.758   5.330 -0.4440  2.4565 -1.9387
  765MOL0     H 3275   8.815   1.886   5.293 -2.1640  0.4569 -0.1434
  766MOL0     O 3276   8.784   5.230   9.022  0.0569 -0.4193 -0.2370
  766MOL0     C 3277   8.900   5.261   8.996 -0.0319  0.7143  0.5032
  766MOL0     O 3278   9.021   5.199   9.051  0.8730  0.9186 -0.1085
  766MOL0     C 3279   9.004   5.093   9.135  0.5050  0.2793  0.5565
  766MOL0     C 3280   9.014   4.960   9.083  0.5065 -0.5101 -0.0118
  766MOL0     C 3281   8.978   4.854   9.170 -0.3334 -0.6398  0.0969
  766MOL0     C 3282   8.963   4.876   9.307 -0.4191  0.4298 -0.5236
  766MOL0     O 3283   8.936   4.775   9.398  0.7562 -0.4300  0.6137
  766MOL0     C 3284   8.855   4.670   9.350 -0.3472  0.5495 -0.5194
  766MOL0     C 3285   8.878   4.550   9.445 -0.8714  0.4321 -0.6248
  766MOL0     C 3286   9.026   4.498   9.440  0.2408 -0.5650  1.0490
  766MOL0     C 3287   9.050   4.382   9.521  0.0516  0.6027 -1.5876
  766MOL0     C 3288   9.018   4.418   9.665 -0.5014 -0.4495 -0.2621
  766MOL0     C 3289   9.090   4.337   9.774 -0.0680  0.3414 -0.2987
  766MOL0     C 3290   9.096   4.185   9.759  0.1388 -1.0927  0.2188
  766MOL0     C 3291   9.188   4.108   9.859  0.4007 -1.0381 -0.2920
  766MOL0     N 3292   9.333   4.134   9.826  0.3215  0.5922  0.5322
  766MOL0     C 3293   9.376   4.101   9.698  0.7613  0.1482 -1.0313
  766MOL0     C 3294   9.494   4.168   9.681 -0.6697  0.0124 -0.3888
  766MOL0     C 3295   9.575   4.192   9.553  0.4139  0.6263 -0.8243
  766MOL0     C 3296   9.516   4.290   9.455 -0.8818 -0.7554 -0.1610
  766MOL0     C 3297   9.608   4.291   9.336 -0.1495 -0.2423 -0.1263
  766MOL0     C 3298   9.586   4.421   9.258 -1.1117  0.7458 -0.1051
  766MOL0     O 3299   9.672   4.518   9.314 -0.5904  0.7484 -0.2233
  766MOL0     C 3300   9.798   4.545   9.270 -0.2020 -0.2105  0.0092
  766MOL0     C 3301   9.831   4.528   9.132 -0.2417 -0.0530 -0.2015
  766MOL0     C 3302   9.965   4.564   9.090 -0.2002  0.2963 -0.4927
  766MOL0     C 3303  10.066   4.602   9.183  0.4784 -0.6311 -0.8594
  766MOL0     C 3304  10.204   4.613   9.145  0.2932  0.7795  0.2399
  766MOL0     O 3305  10.236   4.595   9.015 -1.0469 -0.6911  0.0155
  766MOL0     C 3306  10.365   4.599   8.966 -0.4249  0.2162  0.5626
  766MOL0     C 3307  10.379   4.519   8.853 -0.1973 -0.2000  0.1150
  766MOL0     C 3308  10.505   4.500   8.792  1.1449  0.1560 -0.4214
  766MOL0     C 3309  10.611   4.579   8.842  0.2036 -0.3535  0.5812
  766MOL0     O 3310  10.735   4.577   8.783 -0.7569  0.1914 -0.5431
  766MOL0     C 3311  10.768   4.449   8.727  0.1045 -0.6328 -0.5846
  766MOL0     C 3312  10.919   4.443   8.728 -0.2374 -0.3912 -0.0548
  766MOL0     C 3313  10.956   4.389   8.858  0.0216 -0.2435  0.4507
  766MOL0     C 3314  11.086   4.441   8.907  0.0018  0.7316 -0.3452
  766MOL0     C 3315  11.130   4.389   9.046  0.4699 -1.3948  0.0976
  766MOL0     C 3316  11.166   4.239   9.032  0.1794 -0.6464  0.0796
  766MOL0     C 3317  11.241   4.193   9.154  0.1311  0.1854  0.1344
  766MOL0     C 3318  11.233   4.046   9.173 -0.0455  0.1740  0.6543
  766MOL0    Cl 3319  11.305   3.975   9.025  0.8808  0.6426 -0.2672
  766MOL0     C 3320  10.599   4.664   8.951  0.2395 -0.0388  0.6867
  766MOL0     C 3321  10.479   4.673   9.014  0.9378 -0.5656 -0.1921
  766MOL0     O 3322  10.281   4.632   9.232  0.1195  0.0049  0.6676
  766MOL0     C 3323  10.029   4.619   9.320  0.2798 -0.5589 -0.4161
  766MOL0     C 3324   9.899   4.585   9.364 -0.7807 -0.7481 -0.4684
  766MOL0     N 3325   9.516   4.242   9.797 -0.3353  0.4555  0.4730
  766MOL0     N 3326   9.419   4.224   9.881 -0.4144 -0.5565 -0.2467
  766MOL0     C 3327   8.976   5.004   9.360  0.5420  0.3563 -0.5111
  766MOL0     C 3328   8.980   5.114   9.268 -0.0986  0.7970 -0.4210
  766MOL0     C 3329   8.937   5.374   8.906 -0.1543 -0.5849 -0.1926
  766MOL0     C 3330   9.064   5.375   8.842  0.4023 -0.6055  1.2709
  766MOL0     C 3331   9.101   5.480   8.757  0.7151 -0.1479 -0.4632
  766MOL0     C 3332   9.019   5.586   8.742 -1.3491 -0.7661 -0.1658
  766MOL0     O 3333   9.068   5.705   8.682  0.3796 -0.0893  0.6047
  766MOL0     C 3334   9.149   5.690   8.562 -0.1943 -0.1079 -0.7417
  766MOL0     C 3335   9.142   5.818   8.488  0.4750  0.8322 -0.0096
  766MOL0     C 3336   9.004   5.874   8.473  0.0177  0.3711 -0.4971
  766MOL0     C 3337   9.006   6.005   8.394 -0.3532  0.3568 -0.7313
  766MOL0     C 3338   9.061   6.112   8.477 -0.1133 -0.1586  0.5425
  766MOL0     C 3339   9.129   6.180   8.549  0.8113  1.0506 -0.2096
  766MOL0     C 3340   8.905   5.591   8.813 -0.2343 -0.0276 -1.1647
  766MOL0     C 3341   8.857   5.489   8.890  0.3640  1.0705 -0.0072
  766MOL0     C 3342   8.733   5.516   8.957  0.9526  0.2527 -0.1704
  766MOL0     H 3343   9.030   4.951   8.976 -1.8977 -1.4890 -0.3674
  766MOL0     H 3344   8.969   4.758   9.122 -1.3397 -0.6300  0.2446
  766MOL0     H 3345   8.750   4.700   9.344 -0.2653  0.5987 -2.1558
  766MOL0     H 3346   8.887   4.640   9.249  0.0462 -0.6298 -0.0701
  766MOL0     H 3347   8.811   4.463   9.438 -0.1278 -0.4483  2.1323
  766MOL0     H 3348   8.858   4.570   9.550 -1.0625 -3.3381  0.2188
  766MOL0     H 3349   9.085   4.586   9.468 -2.4021  0.9134  2.4481
  766MOL0     H 3350   9.044   4.467   9.337 -0.7202  2.7109 -0.2313
  766MOL0     H 3351   8.990   4.296   9.489  0.7076 -0.7730  0.6415
  766MOL0     H 3352   9.155   4.354   9.517  0.1248 -0.5992  3.0842
  766MOL0     H 3353   9.041   4.523   9.684 -1.0676 -0.6092  1.5268
  766MOL0     H 3354   8.910   4.418   9.683 -0.3590  2.5002  1.2730
  766MOL0     H 3355   9.189   4.381   9.790 -1.0564  2.3731  0.6353
  766MOL0     H 3356   9.035   4.359   9.866 -1.4190  1.6449 -1.3647
  766MOL0     H 3357   9.131   4.166   9.657  2.1941  1.4443  0.3443
  766MOL0     H 3358   8.994   4.146   9.764 -0.8755  1.5318  1.7974
  766MOL0     H 3359   9.162   4.142   9.960  0.2189  1.1974 -1.0302
  766MOL0     H 3360   9.168   4.001   9.851  2.8027 -1.4623 -1.4179
  766MOL0     H 3361   9.316   4.054   9.620  2.9240 -1.6290 -1.7117
  766MOL0     H 3362   9.676   4.218   9.585  0.0586 -2.2842  3.7220
  766MOL0     H 3363   9.572   4.094   9.504 -1.1888 -1.5218  3.0668
  766MOL0     H 3364   9.417   4.256   9.423 -2.5691  0.0697  3.6418
  766MOL0     H 3365   9.514   4.388   9.504  1.3991 -0.6445 -0.1770
  766MOL0     H 3366   9.573   4.204   9.280 -0.4541  0.5591 -1.2356
  766MOL0     H 3367   9.712   4.288   9.367 -0.8463 -0.9739  2.3711
  766MOL0     H 3368   9.481   4.452   9.260 -1.9787 -1.8927  0.5789
  766MOL0     H 3369   9.611   4.414   9.152 -1.7169  0.9836 -0.2694
  766MOL0     H 3370   9.768   4.505   9.047 -2.0546  1.2739  0.7185
  766MOL0     H 3371   9.991   4.565   8.985  0.7647  1.8548 -0.2683
  766MOL0     H 3372  10.298   4.456   8.817  0.5435  0.8705 -3.8187
  766MOL0     H 3373  10.518   4.447   8.699 -1.1808  0.5822 -1.0711
  766MOL0     H 3374  10.731   4.363   8.785  0.3311  1.4010  2.8338
  766MOL0     H 3375  10.726   4.457   8.627  0.2394  0.4570 -0.5563
  766MOL0     H 3376  10.953   4.374   8.650 -1.9289 -0.0067 -1.1783
  766MOL0     H 3377  10.967   4.537   8.700  0.3805 -1.1857 -1.8583
  766MOL0     H 3378  10.882   4.415   8.934 -1.4428 -0.9100 -0.7038
  766MOL0     H 3379  10.954   4.280   8.859  1.2945 -0.2802  1.3949
  766MOL0     H 3380  11.076   4.550   8.912 -1.4437  0.5976  0.0656
  766MOL0     H 3381  11.171   4.423   8.841  0.1988  2.1375 -0.5120
  766MOL0     H 3382  11.061   4.407   9.129  0.3155 -0.9728 -0.1198
  766MOL0     H 3383  11.222   4.442   9.073  0.9739 -2.1131 -0.1804
  766MOL0     H 3384  11.073   4.184   9.016 -0.1231  0.3666 -2.1381
  766MOL0     H 3385  11.214   4.224   8.934 -0.5356  2.0819 -0.7773
  766MOL0     H 3386  11.198   4.240   9.243 -1.9975 -0.2834 -0.5942
  766MOL0     H 3387  11.347   4.219   9.142 -0.2743  1.6978 -0.3466
  766MOL0     H 3388  11.283   4.013   9.265  2.5055  1.0129 -0.3519
  766MOL0     H 3389  11.127   4.022   9.189 -0.0821 -0.6723 -0.6825
  766MOL0     H 3390  10.681   4.730   8.979 -1.2190  1.2258  2.1750
  766MOL0     H 3391  10.471   4.729   9.107  1.1116 -0.7804 -0.0469
  766MOL0     H 3392  10.108   4.649   9.388  1.2088 -1.7995 -0.8888
  766MOL0     H 3393   9.878   4.596   9.470 -1.1681 -1.8035 -0.4215
  766MOL0     H 3394   8.964   5.027   9.466  3.0867  1.6656 -0.4310
  766MOL0     H 3395   8.978   5.204   9.329 -2.4382 -1.1039  2.5715
  766MOL0     H 3396   9.136   5.294   8.852  1.6484  0.2985 -0.0148
  766MOL0     H 3397   9.199   5.481   8.710 -0.2290  1.4652 -2.5417
  766MOL0     H 3398   9.101   5.618   8.495  0.2903 -2.5988  1.4501
  766MOL0     H 3399   9.250   5.658   8.587 -0.6098 -0.2745  0.8100
  766MOL0     H 3400   9.182   5.813   8.386 -0.6552 -0.6548 -0.4162
  766MOL0     H 3401   9.205   5.892   8.538 -0.4039  0.6512  1.4066
  766MOL0     H 3402   8.968   5.903   8.572 -1.2265  0.8968 -1.0803
  766MOL0     H 3403   8.935   5.801   8.433 -1.8251  0.9100  1.5020
  766MOL0     H 3404   9.068   5.989   8.305 -0.5193  0.4266 -0.8601
  766MOL0     H 3405   8.902   6.026   8.369 -0.8216  1.4579  1.7751
  766MOL0     H 3406   9.174   6.261   8.603  0.1801  2.5637 -1.8486
  766MOL0     H 3407   8.855   5.687   8.811  3.7517  2.5036  2.3189
  766MOL0     H 3408   8.746   5.530   9.064 -1.4149  2.5981 -0.0813
  766MOL0     H 3409   8.694   5.611   8.920 -0.1943 -1.3208 -3.4101
  766MOL0     H 3410   8.655   5.441   8.944 -0.7161  2.0493 -0.9692
  767MOL0     O 3411   2.061   2.155   4.681 -0.6974  0.0340 -0.2318
  767MOL0     C 3412   2.054   2.275   4.710 -0.5575 -1.1957  0.7705
  767MOL0     O 3413   2.154   2.360   4.718 -0.9331  0.2910  0.1357
  767MOL0     C 3414   2.285   2.321   4.671  0.0692  0.2689 -0.6558
  767MOL0     C 3415   2.360   2.243   4.758  1.0145 -0.1103 -0.1851
  767MOL0     C 3416   2.495   2.223   4.737  0.2866  0.1236 -0.3206
  767MOL0     C 3417   2.549   2.264   4.615 -0.0491 -0.4922 -0.0891
  767MOL0     O 3418   2.688   2.244   4.603 -0.2875 -0.9287  0.3029
  767MOL0     C 3419   2.769   2.343   4.530 -0.0065  0.3122 -0.0737
  767MOL0     C 3420   2.913   2.302   4.504 -1.0170 -0.4058 -0.6426
  767MOL0     C 3421   2.960   2.209   4.616  0.2019  0.1154  0.9727
  767MOL0     C 3422   3.110   2.166   4.580  0.2539  0.1653  0.2020
  767MOL0     C 3423   3.179   2.118   4.704 -0.0111  0.2712  0.3738
  767MOL0     C 3424   3.321   2.052   4.667  0.3492 -0.0608  0.3796
  767MOL0     C 3425   3.396   2.011   4.793  0.1051 -0.7563 -1.7893
  767MOL0     C 3426   3.489   1.901   4.762 -0.4279  0.5500 -0.1369
  767MOL0     N 3427   3.584   1.856   4.860  0.5501 -0.4138 -0.4057
  767MOL0     C 3428   3.563   1.757   4.948 -0.7530 -0.4709  0.3452
  767MOL0     C 3429   3.683   1.737   5.005 -0.2169  0.4120 -0.3236
  767MOL0     C 3430   3.697   1.648   5.124  0.2604  0.7264  0.1138
  767MOL0     C 3431   3.834   1.572   5.123  0.2603 -0.6978 -0.1891
  767MOL0     C 3432   3.871   1.503   4.993  0.3842  1.2523 -0.6745
  767MOL0     C 3433   4.027   1.493   4.990  1.0204  0.2718  1.0860
  767MOL0     O 3434   4.076   1.415   5.097 -0.6597  0.5648  0.1752
  767MOL0     C 3435   4.205   1.380   5.078 -0.3864 -0.0519 -0.8434
  767MOL0     C 3436   4.240   1.290   5.177  0.1369  0.5468  0.1188
  767MOL0     C 3437   4.374   1.243   5.184  0.4939  0.3193 -0.7258
  767MOL0     C 3438   4.472   1.287   5.106  0.5284 -0.5875  0.5420
  767MOL0     C 3439   4.620   1.261   5.136 -0.2614 -0.1147  0.5274
  767MOL0     O 3440   4.650   1.203   5.255  0.3240  0.5137 -0.4728
  767MOL0     C 3441   4.766   1.150   5.277  0.3138  1.1091 -0.0657
  767MOL0     C 3442   4.842   1.085   5.177 -0.3278  0.2295  0.5687
  767MOL0     C 3443   4.961   1.017   5.210  0.3975  1.0230 -0.7139
  767MOL0     C 3444   5.003   1.022   5.348 -0.4035 -0.1067 -0.5962
  767MOL0     O 3445   5.125   0.972   5.387  0.1212 -0.0307  0.3218
  767MOL0     C 3446   5.178   0.847   5.339 -0.6344  0.2563 -0.9722
  767MOL0     C 3447   5.320   0.818   5.404 -0.4703 -0.0935 -1.2183
  767MOL0     C 3448   5.359   0.665   5.409 -0.1410 -0.3689 -0.7270
  767MOL0     C 3449   5.393   0.603   5.270 -0.9038  0.6530  0.2094
  767MOL0     C 3450   5.550   0.606   5.254  0.5651 -0.5665 -1.2137
  767MOL0     C 3451   5.590   0.508   5.146  0.0393 -0.1348 -0.4638
  767MOL0     C 3452   5.716   0.544   5.080  0.1671 -0.2615 -0.5503
  767MOL0     C 3453   5.745   0.467   4.956 -0.6070  0.1051 -0.1446
  767MOL0    Cl 3454   5.678   0.565   4.815  0.3757 -0.4699 -0.2451
  767MOL0     C 3455   4.925   1.084   5.449  0.1747  0.4895 -0.1314
  767MOL0     C 3456   4.796   1.140   5.410  0.0839 -0.2738 -0.3696
  767MOL0     O 3457   4.705   1.296   5.046  0.5541 -0.2410  0.0851
  767MOL0     C 3458   4.433   1.366   4.991  0.2223 -0.2895  0.5303
  767MOL0     C 3459   4.297   1.413   4.979 -1.3170  0.4796  0.8983
  767MOL0     N 3460   3.778   1.827   4.957  0.0527 -0.1791  0.0246
  767MOL0     N 3461   3.715   1.893   4.864  0.2815  0.2488 -0.5481
  767MOL0     C 3462   2.473   2.332   4.519  0.4235 -0.0821  0.4084
  767MOL0     C 3463   2.332   2.359   4.546 -1.0566  0.4833  0.1327
  767MOL0     C 3464   1.923   2.328   4.725 -0.0071 -0.6061  0.7009
  767MOL0     C 3465   1.822   2.234   4.765 -0.2458 -0.7363 -0.6946
  767MOL0     C 3466   1.688   2.267   4.775 -0.0330 -0.0082 -0.5010
  767MOL0     C 3467   1.646   2.399   4.739 -0.1350 -0.1162 -0.0956
  767MOL0     O 3468   1.518   2.443   4.731  0.0710  0.3799  0.3507
  767MOL0     C 3469   1.406   2.357   4.735 -0.5335 -0.7159  0.1050
  767MOL0     C 3470   1.339   2.314   4.599  0.4108 -0.3914 -0.0382
  767MOL0     C 3471   1.193   2.254   4.623  0.0597 -0.7575  0.2203
  767MOL0     C 3472   1.083   2.349   4.586  0.3388  0.4039  0.1426
  767MOL0     C 3473   1.089   2.379   4.444  0.0781  0.1068  0.0148
  767MOL0     C 3474   1.109   2.415   4.331  0.0712  0.1918  0.0886
  767MOL0     C 3475   1.743   2.496   4.703 -0.1627  0.9135 -0.4411
  767MOL0     C 3476   1.879   2.460   4.700  0.0965  0.2385  0.3285
  767MOL0     C 3477   1.975   2.577   4.663 -0.6191 -0.0819  0.0017
  767MOL0     H 3478   2.303   2.194   4.835  1.1220  1.2904  0.8315
  767MOL0     H 3479   2.558   2.175   4.811 -1.5223 -0.4416  0.9142
  767MOL0     H 3480   2.729   2.354   4.428  0.6988  0.1706 -0.3702
  767MOL0     H 3481   2.749   2.442   4.572 -2.3875 -0.8008  1.6872
  767MOL0     H 3482   2.962   2.399   4.499 -3.3209  0.8192 -0.9014
  767MOL0     H 3483   2.942   2.251   4.411  0.9633 -2.4437  0.9499
  767MOL0     H 3484   2.901   2.120   4.639  0.1974  0.3627  1.9723
  767MOL0     H 3485   2.957   2.277   4.701 -0.6044 -1.3602  2.1582
  767MOL0     H 3486   3.089   2.088   4.506 -0.1803 -0.8486  1.3662
  767MOL0     H 3487   3.168   2.252   4.543  0.9585 -1.3587 -2.5435
  767MOL0     H 3488   3.190   2.196   4.780  0.0374  2.3940 -1.6946
  767MOL0     H 3489   3.115   2.039   4.744  0.6573 -0.1344  0.6711
  767MOL0     H 3490   3.318   1.969   4.596  1.9567 -0.2586  0.5010
  767MOL0     H 3491   3.371   2.131   4.609 -0.9760  1.4539  1.2289
  767MOL0     H 3492   3.325   1.986   4.872 -0.6995 -1.3229 -2.6736
  767MOL0     H 3493   3.457   2.096   4.824  1.0891 -1.3963 -1.9271
  767MOL0     H 3494   3.432   1.813   4.731 -2.7331  1.1736  1.9640
  767MOL0     H 3495   3.549   1.934   4.677 -1.1010  0.2629 -0.7233
  767MOL0     H 3496   3.464   1.715   4.967 -1.7105  2.0015  1.1265
  767MOL0     H 3497   3.684   1.707   5.215  0.1019 -0.9091  1.2055
  767MOL0     H 3498   3.622   1.568   5.129  0.9619  0.1241  2.4555
  767MOL0     H 3499   3.914   1.643   5.143 -0.4956 -0.5185  2.5627
  767MOL0     H 3500   3.834   1.498   5.204  1.9654 -1.1835 -0.5819
  767MOL0     H 3501   3.834   1.567   4.913 -0.9803  1.2695 -0.0591
  767MOL0     H 3502   3.835   1.400   4.983  2.4638  0.2462  1.2051
  767MOL0     H 3503   4.074   1.591   4.988  2.8234 -0.5374 -1.7006
  767MOL0     H 3504   4.058   1.456   4.892 -2.3952  3.9041 -1.6746
  767MOL0     H 3505   4.165   1.264   5.252 -1.0989  2.2326 -0.4725
  767MOL0     H 3506   4.386   1.176   5.268  0.1977 -0.8793 -1.6079
  767MOL0     H 3507   4.808   1.101   5.075 -0.3496 -0.0808  0.5281
  767MOL0     H 3508   5.021   0.969   5.133 -0.0202 -0.6995 -0.0279
  767MOL0     H 3509   5.114   0.766   5.373  1.3041 -0.8145  0.2967
  767MOL0     H 3510   5.196   0.860   5.232 -0.4722  1.9966 -0.7618
  767MOL0     H 3511   5.391   0.879   5.348 -1.0016 -0.4868 -2.3626
  767MOL0     H 3512   5.323   0.853   5.507 -3.7537 -2.4319 -0.1352
  767MOL0     H 3513   5.443   0.654   5.479  0.0087  1.3698 -0.5776
  767MOL0     H 3514   5.268   0.620   5.449 -1.6037  2.7681 -0.1998
  767MOL0     H 3515   5.353   0.659   5.186  2.0742 -1.3565 -2.8150
  767MOL0     H 3516   5.373   0.496   5.259  0.5686  0.0597  2.5316
  767MOL0     H 3517   5.605   0.568   5.341 -0.9399  0.6030  0.3113
  767MOL0     H 3518   5.577   0.711   5.238  2.0663 -0.6565  0.3275
  767MOL0     H 3519   5.591   0.410   5.195  1.0739  1.4420  2.9992
  767MOL0     H 3520   5.520   0.509   5.061  1.4599 -0.5708 -1.6719
  767MOL0     H 3521   5.803   0.541   5.145 -1.2548 -2.7586  1.4368
  767MOL0     H 3522   5.705   0.647   5.045 -1.0299 -1.0985 -2.8739
  767MOL0     H 3523   5.852   0.460   4.938 -0.3584  1.0281  0.8934
  767MOL0     H 3524   5.708   0.364   4.955 -0.4736  0.0495  0.4159
  767MOL0     H 3525   4.948   1.089   5.555 -2.0663 -3.2353  0.7250
  767MOL0     H 3526   4.736   1.188   5.487  0.8902  0.3301 -0.0941
  767MOL0     H 3527   4.502   1.407   4.917 -3.3636  0.1305 -2.9277
  767MOL0     H 3528   4.269   1.498   4.918 -0.9772 -0.1479 -0.1695
  767MOL0     H 3529   2.512   2.366   4.423 -1.8241 -3.5929 -2.0137
  767MOL0     H 3530   2.271   2.426   4.487 -3.0229 -0.5612  0.8810
  767MOL0     H 3531   1.855   2.141   4.812 -2.4624 -0.1147  2.3450
  767MOL0     H 3532   1.621   2.184   4.794  2.4794 -1.8465  0.7891
  767MOL0     H 3533   1.329   2.418   4.784 -0.2957 -1.9890  2.2071
  767MOL0     H 3534   1.414   2.270   4.801 -0.3889 -0.2777  0.6795
  767MOL0     H 3535   1.407   2.245   4.549 -1.9459 -2.7097 -0.2131
  767MOL0     H 3536   1.331   2.402   4.535  0.0743 -1.5520 -1.6318
  767MOL0     H 3537   1.185   2.235   4.731  0.8675  0.9895  0.6291
  767MOL0     H 3538   1.173   2.157   4.576 -2.6109  0.8443 -2.3084
  767MOL0     H 3539   0.988   2.297   4.601  0.0586  0.5525 -0.9858
  767MOL0     H 3540   1.084   2.438   4.649 -0.5514  0.0027  0.7499
  767MOL0     H 3541   1.120   2.451   4.230 -0.9278 -0.2212 -0.1821
  767MOL0     H 3542   1.716   2.597   4.676  2.6602  1.4171 -1.8002
  767MOL0     H 3543   2.027   2.557   4.569 -2.9580  0.8711 -1.6248
  767MOL0     H 3544   1.929   2.671   4.630  1.6913  1.1695  0.1664
  767MOL0     H 3545   2.041   2.609   4.744 -0.7228 -3.4799  1.5852
  768MOL0     O 3546   4.029   6.357   7.178  0.1065 -0.2941  0.1212
  768MOL0     C 3547   3.942   6.295   7.233  0.1984  0.3288 -0.1441
  768MOL0     O 3548   3.929   6.291   7.370 -0.2372  0.8037  0.0616
  768MOL0     C 3549   4.036   6.330   7.436 -0.8853 -0.3536  0.0595
  768MOL0     C 3550   4.035   6.459   7.486 -0.8625 -0.8301 -0.7488
  768MOL0     C 3551   4.147   6.507   7.551 -0.4326 -0.0763 -0.9363
  768MOL0     C 3552   4.262   6.428   7.571  0.0823 -0.3373 -1.0932
  768MOL0     O 3553   4.371   6.476   7.637 -0.4229  0.6236 -0.3216
  768MOL0     C 3554   4.437   6.604   7.610  0.5126 -0.0744  0.2080
  768MOL0     C 3555   4.473   6.635   7.464 -0.7263 -0.0105 -0.1560
  768MOL0     C 3556   4.572   6.753   7.455  0.0144  0.5169 -0.2390
  768MOL0     C 3557   4.528   6.889   7.480 -0.3427 -0.3473 -0.6389
  768MOL0     C 3558   4.638   6.993   7.477  1.4733 -0.0681  0.5541
  768MOL0     C 3559   4.730   6.974   7.595  0.4634 -1.3452 -0.3222
  768MOL0     C 3560   4.800   7.115   7.617 -0.8501  0.2060 -1.1737
  768MOL0     C 3561   4.886   7.092   7.749 -0.3007  0.6790 -0.4163
  768MOL0     N 3562   4.984   7.196   7.780 -0.2379 -0.4742 -0.5924
  768MOL0     C 3563   4.940   7.323   7.814  0.0466  0.2130  0.5791
  768MOL0     C 3564   5.049   7.395   7.796  0.1492  1.3544 -0.0374
  768MOL0     C 3565   5.064   7.543   7.816  0.2712  0.3121 -0.3013
  768MOL0     C 3566   5.210   7.603   7.838  0.3607 -0.0128 -0.2302
  768MOL0     C 3567   5.282   7.619   7.701  1.0418 -0.0506 -0.1767
  768MOL0     C 3568   5.419   7.679   7.732 -0.5947 -0.1155 -0.8359
  768MOL0     O 3569   5.498   7.586   7.795  0.2131  0.2728 -0.5567
  768MOL0     C 3570   5.569   7.631   7.898 -0.2946 -0.4317 -0.3991
  768MOL0     C 3571   5.676   7.725   7.878 -0.1827  0.0152 -0.0377
  768MOL0     C 3572   5.754   7.767   7.986  0.6672 -0.4223 -0.2162
  768MOL0     C 3573   5.729   7.715   8.111 -0.1543 -0.1335  0.1492
  768MOL0     C 3574   5.842   7.741   8.210  1.1380  0.3493 -0.3235
  768MOL0     O 3575   5.961   7.791   8.166 -0.2004  0.3407  0.2389
  768MOL0     C 3576   6.066   7.800   8.249 -0.4075 -0.1252 -0.1581
  768MOL0     C 3577   6.125   7.705   8.335 -0.0994  0.1909  0.3056
  768MOL0     C 3578   6.249   7.716   8.399 -0.1740 -0.3416  0.3583
  768MOL0     C 3579   6.310   7.852   8.397  0.3306  0.6304 -0.9873
  768MOL0     O 3580   6.429   7.872   8.459 -0.5124 -0.6143  0.1976
  768MOL0     C 3581   6.472   7.778   8.555 -0.1423 -0.0895  0.1407
  768MOL0     C 3582   6.602   7.831   8.610 -0.3554  1.3527  0.4879
  768MOL0     C 3583   6.646   7.740   8.725  0.8258  0.2308 -0.5778
  768MOL0     C 3584   6.772   7.807   8.775 -0.2696 -0.6494 -0.5713
  768MOL0     C 3585   6.810   7.758   8.918  0.0941  0.1179  0.7943
  768MOL0     C 3586   6.905   7.865   8.982 -0.8597  0.0113 -0.1961
  768MOL0     C 3587   6.932   7.831   9.132 -0.8622  0.9061 -1.0040
  768MOL0     C 3588   6.988   7.947   9.210  0.5377 -0.2417  0.3761
  768MOL0    Cl 3589   6.852   8.052   9.239  0.7609  0.4285  0.3142
  768MOL0     C 3590   6.250   7.947   8.322 -0.1994  0.4229 -0.4641
  768MOL0     C 3591   6.137   7.921   8.245 -0.0664  0.3049  0.1322
  768MOL0     O 3592   5.827   7.702   8.327  0.6658  0.2480 -0.2562
  768MOL0     C 3593   5.628   7.622   8.135  0.2760 -0.3490 -0.1695
  768MOL0     C 3594   5.545   7.579   8.028  0.5103  0.5959  0.0487
  768MOL0     N 3595   5.160   7.322   7.754  0.1525  0.5048 -0.6894
  768MOL0     N 3596   5.116   7.196   7.752 -0.0373  0.3792  0.1371
  768MOL0     C 3597   4.252   6.293   7.543  0.3660  0.4658  0.1425
  768MOL0     C 3598   4.140   6.243   7.475  0.4924  0.2280 -0.5988
  768MOL0     C 3599   3.854   6.203   7.156  0.0913 -0.2954  0.6221
  768MOL0     C 3600   3.762   6.118   7.224  0.7234 -0.2447 -0.7504
  768MOL0     C 3601   3.670   6.029   7.159 -0.2252 -0.3752 -0.8707
  768MOL0     C 3602   3.666   6.039   7.022 -0.3862  0.1862 -0.5360
  768MOL0     O 3603   3.575   5.947   6.968  0.1872 -0.1414  0.8287
  768MOL0     C 3604   3.490   6.007   6.864  0.1292 -0.2868  0.4357
  768MOL0     C 3605   3.345   5.994   6.895 -0.3742  0.9234 -0.3442
  768MOL0     C 3606   3.296   5.854   6.874  0.3392  0.1321  0.2230
  768MOL0     C 3607   3.145   5.836   6.896 -0.4717 -0.1624  0.3804
  768MOL0     C 3608   3.070   5.901   6.785 -0.3219 -0.6372  0.5736
  768MOL0     C 3609   3.010   5.958   6.698 -0.5260  1.0207 -0.5749
  768MOL0     C 3610   3.759   6.106   6.951  0.1282 -0.0275  0.0053
  768MOL0     C 3611   3.851   6.182   7.013 -0.7498  0.0743 -0.0216
  768MOL0     C 3612   3.925   6.270   6.916 -0.5439 -0.7692  1.5296
  768MOL0     H 3613   3.962   6.532   7.453  1.1843  2.4589  1.3302
  768MOL0     H 3614   4.151   6.613   7.577  2.4815 -0.4692  0.5343
  768MOL0     H 3615   4.373   6.678   7.659 -0.4387  1.0343 -2.5324
  768MOL0     H 3616   4.529   6.589   7.668 -0.0012 -3.8240  0.2457
  768MOL0     H 3617   4.386   6.663   7.403  1.5282 -0.0908 -3.7191
  768MOL0     H 3618   4.517   6.551   7.410  3.1613  3.5071 -3.1587
  768MOL0     H 3619   4.608   6.742   7.352  2.9631 -0.7902  0.8147
  768MOL0     H 3620   4.661   6.727   7.513 -1.4686 -4.0633  0.4228
  768MOL0     H 3621   4.444   6.917   7.416  0.1702 -0.1536 -1.2300
  768MOL0     H 3622   4.493   6.894   7.584  0.0996 -1.3601 -0.4232
  768MOL0     H 3623   4.694   6.990   7.383 -0.1547 -1.5598 -0.4103
  768MOL0     H 3624   4.587   7.089   7.485  1.8946  0.0866  1.5746
  768MOL0     H 3625   4.676   6.959   7.689  2.6043 -0.8117  1.0727
  768MOL0     H 3626   4.809   6.899   7.586  2.3918  0.4551  0.7208
  768MOL0     H 3627   4.731   7.199   7.623  0.7917  1.4885  1.7706
  768MOL0     H 3628   4.871   7.124   7.534  1.2490 -0.0560  0.4967
  768MOL0     H 3629   4.820   7.060   7.831  1.5892  0.4067  1.0554
  768MOL0     H 3630   4.950   7.006   7.728  0.9227  1.2647  0.7817
  768MOL0     H 3631   4.838   7.360   7.819  0.3872  2.0795 -3.0432
  768MOL0     H 3632   5.011   7.587   7.731  0.6149  0.5398 -0.4027
  768MOL0     H 3633   5.005   7.566   7.906 -1.4120  1.5334 -1.6437
  768MOL0     H 3634   5.215   7.699   7.890  0.4469 -0.3383  0.3840
  768MOL0     H 3635   5.272   7.542   7.905  0.0123 -1.6058 -1.3073
  768MOL0     H 3636   5.223   7.681   7.632  1.1655 -2.5364 -2.7222
  768MOL0     H 3637   5.291   7.522   7.650  2.2081 -1.3222  2.2962
  768MOL0     H 3638   5.407   7.767   7.796  1.4674  1.3025 -2.2495
  768MOL0     H 3639   5.477   7.727   7.652 -3.2109  3.4884 -0.8622
  768MOL0     H 3640   5.693   7.766   7.779  2.6540 -2.5499 -0.7533
  768MOL0     H 3641   5.829   7.844   7.966 -0.4182  0.3212 -1.5903
  768MOL0     H 3642   6.081   7.608   8.355  0.5107  0.2935  2.4286
  768MOL0     H 3643   6.291   7.633   8.455 -0.3508 -2.6500 -2.6749
  768MOL0     H 3644   6.405   7.765   8.640  0.9575 -1.5066  0.8305
  768MOL0     H 3645   6.490   7.681   8.507 -0.9604 -0.3337  0.3239
  768MOL0     H 3646   6.679   7.847   8.534  2.2694 -2.0947  2.0941
  768MOL0     H 3647   6.576   7.926   8.658  1.1193  1.3673  1.3565
  768MOL0     H 3648   6.572   7.716   8.802  1.5060 -0.7970 -0.2274
  768MOL0     H 3649   6.665   7.639   8.688  5.9587  0.9131 -0.5498
  768MOL0     H 3650   6.757   7.915   8.777  0.7054 -0.5121  0.2620
  768MOL0     H 3651   6.856   7.784   8.708  2.8838 -0.8282  3.0749
  768MOL0     H 3652   6.848   7.656   8.922 -0.8156 -0.2720 -0.2164
  768MOL0     H 3653   6.718   7.751   8.976 -0.4482  0.2638 -0.0418
  768MOL0     H 3654   7.002   7.880   8.933  0.2597 -0.3660  1.7931
  768MOL0     H 3655   6.858   7.963   8.971  0.5284  0.4922 -2.7808
  768MOL0     H 3656   7.017   7.761   9.130  0.8783  2.8298  0.8678
  768MOL0     H 3657   6.832   7.799   9.165 -1.2259 -0.0704 -2.9406
  768MOL0     H 3658   7.023   7.917   9.309 -3.8998  0.3365  2.3949
  768MOL0     H 3659   7.067   7.999   9.155  0.4678 -0.0642  0.4401
  768MOL0     H 3660   6.295   8.046   8.329  0.3536  0.1049  0.6610
  768MOL0     H 3661   6.085   8.002   8.195 -2.6430  0.5742  2.9251
  768MOL0     H 3662   5.622   7.566   8.228 -1.2011  1.1582  0.7054
  768MOL0     H 3663   5.461   7.514   8.049  0.0891  1.8394  2.5083
  768MOL0     H 3664   4.335   6.231   7.575  0.6283  0.7658  0.0465
  768MOL0     H 3665   4.127   6.143   7.436  2.5928 -0.2367 -0.2205
  768MOL0     H 3666   3.759   6.114   7.332 -1.7123  1.0015 -0.7230
  768MOL0     H 3667   3.597   5.968   7.211  0.9219 -0.3291  0.8756
  768MOL0     H 3668   3.514   5.964   6.766 -1.4403 -1.6503  0.5860
  768MOL0     H 3669   3.518   6.113   6.857 -0.9061 -0.1128 -2.4372
  768MOL0     H 3670   3.278   6.059   6.837 -1.7890 -0.5532 -0.4214
  768MOL0     H 3671   3.339   6.008   7.003  1.6697  3.6589 -0.4633
  768MOL0     H 3672   3.341   5.787   6.947 -2.6298 -2.6992 -0.2777
  768MOL0     H 3673   3.318   5.817   6.773 -1.2620 -0.7160  0.1455
  768MOL0     H 3674   3.122   5.729   6.886  0.2886 -0.1975 -1.2878
  768MOL0     H 3675   3.114   5.860   6.998  0.2144 -0.0379  0.5599
  768MOL0     H 3676   2.964   5.998   6.610 -2.6084 -1.7773 -0.8952
  768MOL0     H 3677   3.757   6.086   6.844  1.9249 -3.1930  0.4594
  768MOL0     H 3678   4.031   6.286   6.941 -0.3715 -1.1905  1.0887
  768MOL0     H 3679   3.929   6.229   6.815 -1.5168 -0.7319  1.4726
  768MOL0     H 3680   3.882   6.368   6.896 -0.7017 -1.4311 -2.0001
  769MOL0     O 3681   0.609   3.861   2.711 -0.1440  1.0975  0.1903
  769MOL0     C 3682   0.585   3.967   2.758  0.2650 -0.9542  0.5330
  769MOL0     O 3683   0.644   4.019   2.864  0.0712  0.8053 -0.7086
  769MOL0     C 3684   0.662   3.941   2.976  0.3468 -0.7068 -0.3237
  769MOL0     C 3685   0.610   3.809   3.001 -0.1081  0.5418 -0.4112
  769MOL0     C 3686   0.652   3.737   3.119  1.1312  0.1902  0.3205
  769MOL0     C 3687   0.715   3.799   3.224 -0.3009 -1.5750  0.3413
  769MOL0     O 3688   0.764   3.735   3.337 -0.5436 -0.5408  0.2382
  769MOL0     C 3689   0.912   3.742   3.335  0.1380 -0.3537 -0.6483
  769MOL0     C 3690   0.957   3.643   3.442 -0.0089 -0.2102 -1.1707
  769MOL0     C 3691   1.022   3.520   3.376 -0.1220  0.0511 -0.6248
  769MOL0     C 3692   1.078   3.432   3.491 -0.1875 -0.1586 -0.1444
  769MOL0     C 3693   1.153   3.301   3.433 -0.4005  0.9709  0.0920
  769MOL0     C 3694   1.264   3.244   3.517  0.5213  0.0291 -0.1532
  769MOL0     C 3695   1.383   3.190   3.427 -0.3912  0.3497  0.0228
  769MOL0     C 3696   1.362   3.049   3.375 -0.2099  0.3438 -0.1490
  769MOL0     N 3697   1.242   3.024   3.291 -0.3266 -0.3507 -1.3379
  769MOL0     C 3698   1.217   3.087   3.173 -1.0296 -1.3109 -0.5280
  769MOL0     C 3699   1.096   3.053   3.139  0.5630 -0.4259 -0.0138
  769MOL0     C 3700   1.045   3.102   3.011  0.5297 -0.2347  0.4744
  769MOL0     C 3701   0.927   3.205   3.036  0.8020  0.7048  0.7067
  769MOL0     C 3702   0.916   3.310   2.930  0.7659  0.2552  0.8590
  769MOL0     C 3703   0.817   3.418   2.950  0.4567  1.1398 -0.4378
  769MOL0     O 3704   0.688   3.351   2.918 -0.3655 -0.3760  0.2166
  769MOL0     C 3705   0.626   3.379   2.796  0.6023 -0.3168  0.0027
  769MOL0     C 3706   0.491   3.428   2.794 -0.0863 -0.8116 -0.7728
  769MOL0     C 3707   0.421   3.485   2.682 -0.5886 -0.2154 -0.3794
  769MOL0     C 3708   0.491   3.503   2.565  0.4901 -0.2956 -0.2450
  769MOL0     C 3709   0.428   3.551   2.443  0.6949 -0.1460  0.2041
  769MOL0     O 3710   0.302   3.595   2.453 -0.1518  0.1123  0.1120
  769MOL0     C 3711   0.237   3.636   2.340 -0.1656  0.5071  0.2689
  769MOL0     C 3712   0.214   3.539   2.241  0.0249 -0.0955 -0.7567
  769MOL0     C 3713   0.160   3.588   2.122  1.0265 -0.1629  0.5346
  769MOL0     C 3714   0.104   3.720   2.106  0.0805 -0.8553  0.3855
  769MOL0     O 3715   0.024   3.780   2.009 -0.1578 -0.6567  0.9020
  769MOL0     C 3716  -0.048   3.684   1.932  0.7487 -0.3522  0.2908
  769MOL0     C 3717  -0.176   3.750   1.891 -0.5306  0.2039 -0.5562
  769MOL0     C 3718  -0.254   3.817   2.007  0.2465  0.3220  0.9841
  769MOL0     C 3719  -0.381   3.877   1.928 -0.3853  0.2800 -0.6141
  769MOL0     C 3720  -0.509   3.905   2.014 -0.3776  0.1720 -0.6339
  769MOL0     C 3721  -0.621   3.908   1.914  0.8248 -0.1105 -0.2923
  769MOL0     C 3722  -0.741   3.982   1.976 -0.1971 -0.4865 -0.0551
  769MOL0     C 3723  -0.828   3.903   2.075 -0.2899 -0.1214  0.4304
  769MOL0    Cl 3724  -0.758   3.874   2.239  0.4753 -0.1045  0.0072
  769MOL0     C 3725   0.129   3.805   2.213  0.5599 -0.0329  0.2142
  769MOL0     C 3726   0.197   3.768   2.329 -0.1769 -0.1521 -0.0210
  769MOL0     O 3727   0.504   3.569   2.347 -0.4320 -0.1415  0.7046
  769MOL0     C 3728   0.631   3.468   2.567  0.5950 -0.3121  0.0976
  769MOL0     C 3729   0.690   3.406   2.679 -1.0896 -0.4505  0.4149
  769MOL0     N 3730   1.033   2.976   3.236  0.1725 -0.4739 -0.3907
  769MOL0     N 3731   1.121   2.963   3.324  0.2155 -0.8036 -0.5202
  769MOL0     C 3732   0.732   3.941   3.212 -0.2455  0.4811  0.0129
  769MOL0     C 3733   0.719   4.004   3.083  0.8495  0.0286 -0.7025
  769MOL0     C 3734   0.472   4.046   2.689 -0.7445 -0.1489 -0.7190
  769MOL0     C 3735   0.386   4.122   2.775  0.3083  0.5477  0.1045
  769MOL0     C 3736   0.277   4.179   2.719  1.0555 -0.5169 -0.2580
  769MOL0     C 3737   0.243   4.162   2.582 -1.1559  0.6765  1.2671
  769MOL0     O 3738   0.120   4.199   2.544 -0.4172  0.3563 -0.3199
  769MOL0     C 3739   0.043   4.095   2.484  0.1651  0.3907  1.1144
  769MOL0     C 3740  -0.098   4.153   2.478 -0.6269 -0.7368  0.6704
  769MOL0     C 3741  -0.195   4.044   2.428  0.3460  0.3075 -0.3160
  769MOL0     C 3742  -0.245   4.090   2.289  0.8880 -0.2596 -0.4340
  769MOL0     C 3743  -0.361   4.174   2.307  0.7847  0.2169  0.2313
  769MOL0     C 3744  -0.458   4.232   2.322  1.0648  0.3969 -0.1864
  769MOL0     C 3745   0.332   4.091   2.502  0.2226  0.2388  0.2092
  769MOL0     C 3746   0.441   4.030   2.552 -0.3881 -0.3576 -0.0704
  769MOL0     C 3747   0.542   3.963   2.459 -0.1763 -0.1769  0.2102
  769MOL0     H 3748   0.557   3.763   2.919 -0.0001 -2.1149  0.8935
  769MOL0     H 3749   0.638   3.631   3.136 -0.6446  0.4712  0.8575
  769MOL0     H 3750   0.958   3.701   3.245  0.4185 -5.8526  1.5969
  769MOL0     H 3751   0.942   3.845   3.355  0.8470 -0.3605 -1.6259
  769MOL0     H 3752   0.877   3.611   3.509 -1.3351  0.6541 -2.2727
  769MOL0     H 3753   1.037   3.699   3.491 -1.7311  0.3557  1.1278
  769MOL0     H 3754   1.102   3.546   3.307 -1.8767  2.4868 -1.8993
  769MOL0     H 3755   0.954   3.471   3.305  0.4703 -0.1229 -1.0857
  769MOL0     H 3756   1.151   3.490   3.549 -0.3882  0.3408 -0.3834
  769MOL0     H 3757   0.991   3.409   3.553 -0.9510  1.9064 -0.3731
  769MOL0     H 3758   1.075   3.233   3.399 -0.9457  1.2689  0.7312
  769MOL0     H 3759   1.207   3.320   3.340  2.2597 -2.1492  0.8169
  769MOL0     H 3760   1.296   3.329   3.579  0.0235 -0.7705  1.2352
  769MOL0     H 3761   1.229   3.165   3.584 -0.8403  0.5447 -0.2305
  769MOL0     H 3762   1.472   3.189   3.489 -2.0898 -2.5119  2.7087
  769MOL0     H 3763   1.392   3.261   3.344 -1.4572  1.1589  0.5681
  769MOL0     H 3764   1.445   3.021   3.309 -0.8128 -1.7755 -0.0761
  769MOL0     H 3765   1.363   2.979   3.459 -0.4581  0.4916 -0.0229
  769MOL0     H 3766   1.290   3.151   3.125 -0.0099 -1.1991  1.0884
  769MOL0     H 3767   1.120   3.149   2.947  1.9188 -3.1697 -0.2484
  769MOL0     H 3768   1.019   3.028   2.934  2.8530  0.9451 -1.6032
  769MOL0     H 3769   0.833   3.150   3.031 -1.5561  4.4468 -3.0016
  769MOL0     H 3770   0.944   3.236   3.140  1.2439 -0.9948  1.1625
  769MOL0     H 3771   0.899   3.260   2.834  2.2130  0.3283  0.5459
  769MOL0     H 3772   1.016   3.349   2.913  1.8696 -2.9732 -0.9641
  769MOL0     H 3773   0.856   3.493   2.880  2.7882 -1.6072 -2.3016
  769MOL0     H 3774   0.818   3.452   3.054 -2.9741 -2.3892  1.0413
  769MOL0     H 3775   0.444   3.415   2.891 -1.5744 -0.5299 -1.4357
  769MOL0     H 3776   0.315   3.500   2.695 -0.3712  0.9674  0.1565
  769MOL0     H 3777   0.250   3.437   2.238  1.1966  0.0072  3.3175
  769MOL0     H 3778   0.139   3.524   2.036  0.2014  2.5120 -1.4192
  769MOL0     H 3779   0.006   3.646   1.845  2.8683 -1.9030  2.1759
  769MOL0     H 3780  -0.082   3.606   2.001  1.9658 -0.4948  0.7446
  769MOL0     H 3781  -0.144   3.825   1.818  0.6346  1.0757  0.7905
  769MOL0     H 3782  -0.237   3.677   1.837 -0.6576  0.8618 -1.3321
  769MOL0     H 3783  -0.293   3.734   2.067 -0.1163 -1.7354 -1.8976
  769MOL0     H 3784  -0.195   3.889   2.064  0.0501 -0.3565  2.0858
  769MOL0     H 3785  -0.391   3.821   1.834  2.4183  0.6639 -1.2318
  769MOL0     H 3786  -0.350   3.979   1.906 -0.2078 -0.2400 -3.0921
  769MOL0     H 3787  -0.488   3.993   2.075 -3.6048  0.1946  0.6543
  769MOL0     H 3788  -0.520   3.814   2.074  2.6930 -1.1905 -1.8876
  769MOL0     H 3789  -0.584   3.962   1.827  0.9094  0.9627  0.3936
  769MOL0     H 3790  -0.651   3.808   1.879 -1.6537  0.5848 -0.3758
  769MOL0     H 3791  -0.808   4.011   1.895 -3.7992 -0.3060  2.7231
  769MOL0     H 3792  -0.708   4.077   2.019  0.4683 -0.7829  0.0938
  769MOL0     H 3793  -0.910   3.974   2.090 -0.0972 -0.2997  2.5196
  769MOL0     H 3794  -0.862   3.810   2.029  0.9218 -0.3610 -0.0092
  769MOL0     H 3795   0.091   3.906   2.225 -0.6323 -0.2526 -1.3342
  769MOL0     H 3796   0.221   3.839   2.407 -0.4506 -1.3981  1.2299
  769MOL0     H 3797   0.695   3.490   2.482  3.1136 -1.1961  1.6428
  769MOL0     H 3798   0.798   3.412   2.669 -1.3168  2.7342 -1.8026
  769MOL0     H 3799   0.774   3.993   3.298 -1.2153 -0.4323  1.0754
  769MOL0     H 3800   0.749   4.108   3.075 -2.3773  1.4910  2.7306
  769MOL0     H 3801   0.401   4.127   2.882  0.2324  0.2953  0.1270
  769MOL0     H 3802   0.201   4.221   2.785 -1.0439 -3.2652 -0.7522
  769MOL0     H 3803   0.051   3.999   2.537 -3.3188 -1.0101 -0.5559
  769MOL0     H 3804   0.076   4.072   2.382  2.1848 -1.7495  2.1366
  769MOL0     H 3805  -0.085   4.233   2.405  1.3035 -0.5909  1.1093
  769MOL0     H 3806  -0.135   4.182   2.576 -0.4323 -0.7602  0.7512
  769MOL0     H 3807  -0.274   4.021   2.500 -0.8389  0.5279 -1.4983
  769MOL0     H 3808  -0.149   3.945   2.421  1.1484  0.3647  2.8616
  769MOL0     H 3809  -0.161   4.145   2.244 -0.3741  1.5286 -0.7085
  769MOL0     H 3810  -0.275   4.004   2.229  2.0897  0.0587 -1.5236
  769MOL0     H 3811  -0.555   4.275   2.342  1.2180  0.6837 -0.0496
  769MOL0     H 3812   0.309   4.081   2.397 -0.6299  0.3518  0.3773
  769MOL0     H 3813   0.510   3.859   2.447  3.4564 -1.3216 -0.8920
  769MOL0     H 3814   0.527   4.000   2.357  3.1653 -0.5912 -0.5442
  769MOL0     H 3815   0.649   3.974   2.479 -0.2289  1.1095 -0.1089
  770MOL0     O 3816   0.102   5.617   6.833  0.5309 -0.2557  0.3205
  770MOL0     C 3817   0.078   5.724   6.780  0.4509  1.2756  0.1345
  770MOL0     O 3818   0.160   5.823   6.773 -0.2927 -0.1452  0.3699
  770MOL0     C 3819   0.290   5.805   6.806  0.8469 -0.3993  0.0718
  770MOL0     C 3820   0.369   5.738   6.713  0.4020  0.5151 -0.5553
  770MOL0     C 3821   0.498   5.705   6.733 -0.1163  0.2565  0.0659
  770MOL0     C 3822   0.561   5.749   6.849  0.5144 -0.4414 -0.3727
  770MOL0     O 3823   0.690   5.728   6.856 -0.2278  0.2160 -0.1804
  770MOL0     C 3824   0.727   5.589   6.857 -0.6318  0.4554 -0.1521
  770MOL0     C 3825   0.850   5.575   6.762 -0.1962 -0.0047  0.3576
  770MOL0     C 3826   0.982   5.624   6.811  0.0286  0.2492  0.5593
  770MOL0     C 3827   1.059   5.682   6.687  0.3238 -0.0307 -0.1169
  770MOL0     C 3828   1.198   5.753   6.728  0.4572  0.6217  0.1373
  770MOL0     C 3829   1.281   5.657   6.822 -0.0171  0.5361  0.6879
  770MOL0     C 3830   1.414   5.718   6.874  0.0018 -0.9200  0.3225
  770MOL0     C 3831   1.506   5.775   6.771  0.5434  0.5843 -0.7224
  770MOL0     N 3832   1.552   5.669   6.674 -0.1224 -0.6287 -0.3618
  770MOL0     C 3833   1.650   5.578   6.692  0.5476  0.0204  0.2888
  770MOL0     C 3834   1.659   5.507   6.578  0.7004 -0.4742 -0.1323
  770MOL0     C 3835   1.742   5.387   6.544 -0.2652 -0.4932 -0.4423
  770MOL0     C 3836   1.886   5.430   6.528 -0.2990  0.8259 -0.6331
  770MOL0     C 3837   1.902   5.503   6.399  0.2168 -0.2286 -1.2514
  770MOL0     C 3838   2.046   5.576   6.398 -0.4492  0.1064  0.1012
  770MOL0     O 3839   2.159   5.489   6.388 -0.0314  0.6621 -0.1142
  770MOL0     C 3840   2.280   5.541   6.354 -0.0959 -0.3219 -0.1148
  770MOL0     C 3841   2.393   5.474   6.402  0.3319 -0.6260  0.5514
  770MOL0     C 3842   2.523   5.516   6.369 -0.8580  0.8032  0.7676
  770MOL0     C 3843   2.546   5.632   6.296 -0.7242  0.4605  0.1707
  770MOL0     C 3844   2.678   5.687   6.265  0.0066 -0.2207  0.6659
  770MOL0     O 3845   2.786   5.597   6.294 -0.5614  0.4516  0.4316
  770MOL0     C 3846   2.921   5.644   6.277  0.2826  0.6437 -0.5074
  770MOL0     C 3847   2.964   5.770   6.330 -0.0134  0.4720  0.8298
  770MOL0     C 3848   3.097   5.803   6.317  0.6572  1.0626 -0.3437
  770MOL0     C 3849   3.189   5.720   6.260  0.8230 -0.6637  0.0171
  770MOL0     O 3850   3.315   5.768   6.270  0.6787  0.8976 -0.0286
  770MOL0     C 3851   3.421   5.707   6.193  0.1034  0.0740 -0.9647
  770MOL0     C 3852   3.529   5.805   6.169 -0.8346 -0.1645 -0.3157
  770MOL0     C 3853   3.597   5.857   6.300 -0.3858  0.3745 -0.4634
  770MOL0     C 3854   3.700   5.759   6.362 -0.1908 -0.6024 -1.5604
  770MOL0     C 3855   3.757   5.816   6.494  0.9100  0.4099 -0.9428
  770MOL0     C 3856   3.846   5.705   6.559  0.5391  0.1658  0.6277
  770MOL0     C 3857   3.979   5.688   6.500  0.3463 -0.4883 -0.2199
  770MOL0     C 3858   4.070   5.615   6.601 -0.0912  0.6128 -0.4870
  770MOL0    Cl 3859   4.016   5.435   6.613 -0.5188  0.2077 -0.0273
  770MOL0     C 3860   3.142   5.607   6.196  0.5171  0.0218  0.2259
  770MOL0     C 3861   3.013   5.566   6.219 -0.8970  0.2953  0.5945
  770MOL0     O 3862   2.686   5.797   6.216  0.1611  0.0970  0.1062
  770MOL0     C 3863   2.435   5.699   6.250  0.4741 -0.0856 -0.2924
  770MOL0     C 3864   2.303   5.656   6.283  0.2296  0.2073 -0.1639
  770MOL0     N 3865   1.570   5.566   6.491  0.7753 -0.2576 -0.8789
  770MOL0     N 3866   1.511   5.661   6.546 -0.4614 -0.0668  0.1895
  770MOL0     C 3867   0.486   5.831   6.936 -0.6261  0.2766  0.8931
  770MOL0     C 3868   0.351   5.858   6.918 -0.4029  0.2835 -0.3446
  770MOL0     C 3869  -0.062   5.750   6.729 -0.5911  0.9561 -0.3540
  770MOL0     C 3870  -0.074   5.839   6.623 -0.8368  0.0126 -0.3348
  770MOL0     C 3871  -0.197   5.869   6.564  0.0423  0.4220  0.5589
  770MOL0     C 3872  -0.307   5.791   6.604  0.3327  0.4624  0.0622
  770MOL0     O 3873  -0.417   5.783   6.530 -0.4451  0.5596  0.5807
  770MOL0     C 3874  -0.423   5.835   6.399  0.3614 -1.1568  0.3184
  770MOL0     C 3875  -0.542   5.800   6.312  0.0088  0.0798 -0.2614
  770MOL0     C 3876  -0.536   5.658   6.260 -0.3242 -1.0352  0.5782
  770MOL0     C 3877  -0.452   5.648   6.127  0.2812  0.1337 -0.7417
  770MOL0     C 3878  -0.501   5.729   6.012 -0.1912 -0.6161 -0.8712
  770MOL0     C 3879  -0.515   5.794   5.917  0.1212  0.2662  0.2543
  770MOL0     C 3880  -0.305   5.713   6.719 -0.3204 -0.5231 -0.6342
  770MOL0     C 3881  -0.183   5.687   6.781 -0.7152  0.1058 -0.0405
  770MOL0     C 3882  -0.186   5.588   6.895 -0.1116  0.4302  0.5488
  770MOL0     H 3883   0.318   5.678   6.638  1.2724 -3.6663  1.8802
  770MOL0     H 3884   0.540   5.636   6.660  0.6451 -1.1133  1.7156
  770MOL0     H 3885   0.761   5.562   6.958  1.7599  0.2182 -0.9560
  770MOL0     H 3886   0.645   5.522   6.831 -2.4749  1.3597  2.7929
  770MOL0     H 3887   0.832   5.636   6.673  3.8884  2.8538  1.2130
  770MOL0     H 3888   0.859   5.471   6.732  0.2710  0.0035  0.4734
  770MOL0     H 3889   1.030   5.533   6.850 -2.7416 -1.3629  0.5075
  770MOL0     H 3890   0.971   5.708   6.881 -0.2148  1.4832 -0.9177
  770MOL0     H 3891   1.078   5.598   6.620 -1.7979 -2.0005  1.5905
  770MOL0     H 3892   0.988   5.758   6.651 -0.4546  0.0562  1.4871
  770MOL0     H 3893   1.255   5.782   6.639 -2.1126  2.2566 -1.1194
  770MOL0     H 3894   1.183   5.848   6.780 -0.6748  0.0901  0.8308
  770MOL0     H 3895   1.216   5.649   6.909 -0.2125  0.1337  0.5088
  770MOL0     H 3896   1.291   5.563   6.767 -0.4398  0.7783  0.1799
  770MOL0     H 3897   1.478   5.643   6.922  1.8946 -0.8163 -1.9092
  770MOL0     H 3898   1.396   5.799   6.945  3.7858  0.4964 -0.1436
  770MOL0     H 3899   1.461   5.855   6.710  1.9817  0.9487 -1.3403
  770MOL0     H 3900   1.594   5.814   6.822  1.0917  0.3368 -1.4687
  770MOL0     H 3901   1.694   5.550   6.787  1.1157 -3.2332 -0.8119
  770MOL0     H 3902   1.741   5.306   6.619 -0.8524 -0.7540 -0.7306
  770MOL0     H 3903   1.716   5.335   6.452  2.3186  0.6813 -1.9478
  770MOL0     H 3904   1.913   5.482   6.620  1.1761 -2.3091  0.8249
  770MOL0     H 3905   1.933   5.332   6.527 -0.8900  0.5243 -2.2505
  770MOL0     H 3906   1.827   5.583   6.402 -1.6848 -1.9324 -1.1697
  770MOL0     H 3907   1.878   5.452   6.305  0.3668  1.0558 -2.0156
  770MOL0     H 3908   2.053   5.639   6.488 -0.3374 -0.5976  0.5916
  770MOL0     H 3909   2.052   5.635   6.306  1.4522 -0.1560  0.0015
  770MOL0     H 3910   2.383   5.390   6.471 -0.4033  2.3008  4.3486
  770MOL0     H 3911   2.608   5.457   6.403  0.6342  3.0839  1.2446
  770MOL0     H 3912   2.900   5.841   6.381 -1.1052  0.8378 -0.9633
  770MOL0     H 3913   3.129   5.893   6.368 -0.6799  0.4701  1.6973
  770MOL0     H 3914   3.458   5.620   6.248 -1.6398  2.0128  3.8433
  770MOL0     H 3915   3.378   5.674   6.098  0.0645  1.7537 -1.5661
  770MOL0     H 3916   3.602   5.750   6.109 -2.2365  0.8067 -3.0500
  770MOL0     H 3917   3.487   5.897   6.128 -0.8165  0.4183  0.9099
  770MOL0     H 3918   3.650   5.950   6.279  0.2598  0.5688  1.7470
  770MOL0     H 3919   3.516   5.878   6.370 -1.2890 -2.3481 -0.5737
  770MOL0     H 3920   3.783   5.738   6.295  2.3134 -2.7138  1.8844
  770MOL0     H 3921   3.645   5.666   6.380  1.9224 -1.5843  0.2258
  770MOL0     H 3922   3.676   5.819   6.567  2.2959 -0.8976  0.7551
  770MOL0     H 3923   3.816   5.908   6.487  2.7704 -0.5598  0.9126
  770MOL0     H 3924   3.853   5.737   6.664  4.2006  0.2903  0.4883
  770MOL0     H 3925   3.788   5.614   6.541 -1.0775  1.1905  0.5034
  770MOL0     H 3926   4.015   5.784   6.462  0.0706 -1.2366 -2.5051
  770MOL0     H 3927   3.966   5.631   6.408  1.8271  0.9518 -1.3868
  770MOL0     H 3928   4.172   5.616   6.561  0.3706 -0.1005  0.6315
  770MOL0     H 3929   4.055   5.658   6.700  2.3716 -0.7026  0.5325
  770MOL0     H 3930   3.210   5.545   6.140  2.0424  2.9426 -1.4170
  770MOL0     H 3931   2.975   5.468   6.189 -5.8821  1.2598  2.8455
  770MOL0     H 3932   2.448   5.790   6.192 -4.0230  0.0615 -1.4079
  770MOL0     H 3933   2.233   5.718   6.228  1.8955  1.2861 -1.1737
  770MOL0     H 3934   0.539   5.872   7.021 -1.1079  3.8409 -0.3530
  770MOL0     H 3935   0.291   5.915   6.987  0.7457  1.8067 -0.5605
  770MOL0     H 3936   0.021   5.876   6.586 -1.0406  2.6017  1.4657
  770MOL0     H 3937  -0.197   5.925   6.471 -1.2940 -0.4409  0.0067
  770MOL0     H 3938  -0.344   5.806   6.329 -0.3983  0.5518 -1.3444
  770MOL0     H 3939  -0.426   5.943   6.415  0.6320 -0.7259 -2.1254
  770MOL0     H 3940  -0.556   5.881   6.240 -0.5735  2.5016  2.3598
  770MOL0     H 3941  -0.626   5.805   6.383  2.8081 -0.1908  3.3982
  770MOL0     H 3942  -0.637   5.630   6.228 -0.1274  0.1494 -1.2794
  770MOL0     H 3943  -0.499   5.584   6.332  3.0343  0.3042  0.4038
  770MOL0     H 3944  -0.345   5.667   6.135  0.6251 -2.0626  0.7406
  770MOL0     H 3945  -0.461   5.546   6.089 -1.2073  0.6302 -1.8495
  770MOL0     H 3946  -0.531   5.845   5.824 -3.1717  0.5979  0.9158
  770MOL0     H 3947  -0.394   5.658   6.748 -0.4659  1.0542  2.3357
  770MOL0     H 3948  -0.165   5.493   6.846 -1.2658  0.8209 -0.7796
  770MOL0     H 3949  -0.127   5.611   6.984  1.1950 -0.6289 -0.0084
  770MOL0     H 3950  -0.289   5.589   6.933 -1.1706  2.0274 -2.0568
  771MOL0     O 3951   2.529   8.554  11.234 -0.1447 -0.7865  0.0835
  771MOL0     C 3952   2.446   8.621  11.301 -0.6645  0.0455 -0.2525
  771MOL0     O 3953   2.407   8.606  11.441  0.4891 -0.9550  0.6949
  771MOL0     C 3954   2.453   8.487  11.494  0.0242 -0.1465  0.2878
  771MOL0     C 3955   2.584   8.455  11.499  0.0377 -0.2333 -0.5588
  771MOL0     C 3956   2.625   8.341  11.569  0.6574  0.4138 -0.0136
  771MOL0     C 3957   2.523   8.258  11.634  0.0974  0.5177  0.1037
  771MOL0     O 3958   2.553   8.148  11.708 -0.0560 -0.8411  0.1454
  771MOL0     C 3959   2.678   8.137  11.775 -0.3601 -0.5928  0.1259
  771MOL0     C 3960   2.722   7.993  11.824 -0.1800  1.1975  0.1612
  771MOL0     C 3961   2.778   7.900  11.715  0.0762  0.2440  0.5355
  771MOL0     C 3962   2.832   7.775  11.787  0.1201 -0.1966  0.2696
  771MOL0     C 3963   2.899   7.669  11.696  0.0803 -0.5221 -0.4067
  771MOL0     C 3964   2.987   7.576  11.774 -0.2498 -1.0747  0.1875
  771MOL0     C 3965   2.902   7.466  11.845  0.2123 -0.7805 -0.0342
  771MOL0     C 3966   2.955   7.385  11.968  1.3852 -0.0391 -0.2812
  771MOL0     N 3967   3.100   7.375  11.979 -0.5749 -0.5305  0.3868
  771MOL0     C 3968   3.180   7.266  11.958  0.0685  0.1269 -0.8622
  771MOL0     C 3969   3.306   7.304  11.999  0.0712  0.4726 -0.0902
  771MOL0     C 3970   3.423   7.214  11.985  0.3639  0.2402  1.7439
  771MOL0     C 3971   3.552   7.284  11.953  0.4014 -0.4723 -0.0397
  771MOL0     C 3972   3.659   7.168  11.953 -0.2187  0.8421  0.6080
  771MOL0     C 3973   3.796   7.238  11.970  0.0104 -0.0699  0.5521
  771MOL0     O 3974   3.907   7.139  11.975 -0.6823  0.7598  0.8744
  771MOL0     C 3975   4.032   7.179  12.022 -0.7306  0.2478 -0.7071
  771MOL0     C 3976   4.070   7.308  12.045  0.2541 -0.0432  0.2515
  771MOL0     C 3977   4.199   7.345  12.067 -0.7848 -0.5048 -0.2510
  771MOL0     C 3978   4.295   7.244  12.079  0.2775  0.6948  0.6942
  771MOL0     C 3979   4.426   7.285  12.132 -0.4944 -0.2314  0.3096
  771MOL0     O 3980   4.447   7.414  12.184  0.2600  0.5025 -0.0110
  771MOL0     C 3981   4.551   7.432  12.264 -0.4290  0.0274  0.9529
  771MOL0     C 3982   4.600   7.351  12.368  0.9634 -0.2675 -0.3636
  771MOL0     C 3983   4.695   7.395  12.457 -0.5730  0.0307  0.5507
  771MOL0     C 3984   4.742   7.526  12.454 -0.3977 -0.3895 -0.2819
  771MOL0     O 3985   4.827   7.577  12.550  0.5745 -0.2274  0.1409
  771MOL0     C 3986   4.829   7.513  12.688 -0.2619 -0.2779  0.1391
  771MOL0     C 3987   4.914   7.600  12.776 -0.3618  0.5636  0.8443
  771MOL0     C 3988   4.907   7.581  12.930 -0.2070 -0.5838 -0.0243
  771MOL0     C 3989   4.997   7.682  13.008 -0.9728 -0.1524 -0.0418
  771MOL0     C 3990   5.148   7.646  12.967  1.4439 -0.3796  0.8326
  771MOL0     C 3991   5.241   7.734  13.049 -0.2290  0.1038 -0.2995
  771MOL0     C 3992   5.254   7.870  12.974  0.3556  0.1771 -0.0449
  771MOL0     C 3993   5.296   7.985  13.056  0.0437  0.4155 -0.5508
  771MOL0    Cl 3994   5.355   8.132  12.970 -0.1191  0.0952  0.0609
  771MOL0     C 3995   4.693   7.610  12.354  0.4047 -0.2127 -0.4357
  771MOL0     C 3996   4.602   7.568  12.253 -1.0208  0.0411 -0.1323
  771MOL0     O 3997   4.513   7.202  12.124  0.2495  0.4063 -0.4809
  771MOL0     C 3998   4.260   7.112  12.056  0.6638  0.6674 -0.4822
  771MOL0     C 3999   4.128   7.082  12.037  0.7765 -0.0697  1.2861
  771MOL0     N 4000   3.308   7.431  12.041 -1.0700 -0.3973 -0.1149
  771MOL0     N 4001   3.181   7.477  12.031  0.2652  0.6886  0.2401
  771MOL0     C 4002   2.387   8.295  11.617 -0.0834  0.0027  0.2269
  771MOL0     C 4003   2.350   8.411  11.556 -0.8170 -0.3207  0.1282
  771MOL0     C 4004   2.363   8.726  11.230 -0.1757 -0.8089 -0.7140
  771MOL0     C 4005   2.229   8.739  11.265 -0.1146  0.6115 -0.0206
  771MOL0     C 4006   2.143   8.844  11.219  0.0497 -0.3451 -0.3198
  771MOL0     C 4007   2.195   8.918  11.106 -0.2341  0.0112  0.0910
  771MOL0     O 4008   2.126   9.013  11.035  0.0749  0.7705  0.3010
  771MOL0     C 4009   2.014   9.075  11.114 -0.7963 -0.2436 -1.0737
  771MOL0     C 4010   1.936   9.178  11.032 -0.5109 -0.4173 -0.4005
  771MOL0     C 4011   2.012   9.302  11.010 -0.4812 -0.5059  0.0091
  771MOL0     C 4012   1.943   9.400  10.923 -0.0434 -0.3377 -0.1072
  771MOL0     C 4013   1.815   9.463  10.970 -0.4885  0.7309 -0.4522
  771MOL0     C 4014   1.724   9.523  11.014 -0.1593  0.6866  0.7862
  771MOL0     C 4015   2.328   8.900  11.066 -0.1101  0.5439 -0.2471
  771MOL0     C 4016   2.411   8.804  11.130 -0.0977  0.3075 -0.3215
  771MOL0     C 4017   2.566   8.821  11.092  0.9777 -0.5951 -0.4739
  771MOL0     H 4018   2.660   8.510  11.443 -0.9369  2.9469  0.9883
  771MOL0     H 4019   2.732   8.322  11.567  1.4385  3.4469  3.5850
  771MOL0     H 4020   2.758   8.174  11.710 -2.0937 -0.5944 -2.1480
  771MOL0     H 4021   2.670   8.210  11.856 -2.3703 -1.7190  1.0231
  771MOL0     H 4022   2.634   7.954  11.876 -0.1450  0.8556 -0.0263
  771MOL0     H 4023   2.799   8.008  11.900  1.2380  3.2311 -1.5515
  771MOL0     H 4024   2.860   7.956  11.669  1.9490 -1.2279  1.9039
  771MOL0     H 4025   2.705   7.869  11.640  1.9862 -4.1434  0.1588
  771MOL0     H 4026   2.911   7.816  11.852 -0.6356 -2.3552  2.7190
  771MOL0     H 4027   2.752   7.737  11.851  0.1632 -1.7017 -0.5331
  771MOL0     H 4028   2.822   7.614  11.642 -1.8677 -0.7912  2.4085
  771MOL0     H 4029   2.968   7.727  11.634 -0.3430  1.2899  0.7306
  771MOL0     H 4030   3.060   7.526  11.711 -0.2359 -1.8093  0.7685
  771MOL0     H 4031   3.043   7.639  11.844  1.0123 -1.7481 -0.1797
  771MOL0     H 4032   2.886   7.393  11.765 -0.6845  1.4721 -2.0299
  771MOL0     H 4033   2.809   7.517  11.873 -0.1600 -0.8861 -1.0654
  771MOL0     H 4034   2.917   7.429  12.061  0.7288 -2.4958  0.6967
  771MOL0     H 4035   2.898   7.292  11.971  0.1692  0.6776  2.7102
  771MOL0     H 4036   3.158   7.175  11.904 -3.3504  0.1243  0.3229
  771MOL0     H 4037   3.433   7.145  12.070 -2.8184 -0.4576  1.6562
  771MOL0     H 4038   3.404   7.140  11.907  0.0320  1.2604  0.8389
  771MOL0     H 4039   3.539   7.330  11.855 -0.8383  1.9796  1.1876
  771MOL0     H 4040   3.565   7.361  12.029  0.6195 -0.0508 -0.4979
  771MOL0     H 4041   3.666   7.121  11.854  0.9191  0.2587  0.9502
  771MOL0     H 4042   3.657   7.087  12.026 -0.7609  2.2834  2.2693
  771MOL0     H 4043   3.789   7.309  12.053 -1.8447  3.4167 -2.3131
  771MOL0     H 4044   3.814   7.308  11.889 -0.3438  0.2948  0.7851
  771MOL0     H 4045   4.007   7.396  12.044  1.2483  0.7191 -1.9573
  771MOL0     H 4046   4.220   7.450  12.082  0.6167 -0.8364  0.2586
  771MOL0     H 4047   4.549   7.259  12.398 -0.6430  0.0768 -1.8435
  771MOL0     H 4048   4.738   7.321  12.524  1.1123 -2.2283 -2.7090
  771MOL0     H 4049   4.732   7.512  12.739  0.3429  2.9571  1.6440
  771MOL0     H 4050   4.871   7.413  12.698 -1.6391 -1.3349 -3.4308
  771MOL0     H 4051   5.017   7.579  12.746 -0.3502 -0.4557  1.5505
  771MOL0     H 4052   4.895   7.705  12.752 -1.4980 -0.2347 -2.2792
  771MOL0     H 4053   4.804   7.602  12.961  0.4151  1.2474  1.0146
  771MOL0     H 4054   4.930   7.477  12.954 -1.3316 -1.0461 -0.8664
  771MOL0     H 4055   4.986   7.673  13.117  3.5558 -4.7093  0.4144
  771MOL0     H 4056   4.989   7.788  12.980  2.2043 -0.1375 -1.2698
  771MOL0     H 4057   5.168   7.666  12.861  0.4909 -1.1108  0.4973
  771MOL0     H 4058   5.167   7.540  12.983  1.7562 -0.2249  1.4901
  771MOL0     H 4059   5.192   7.751  13.145  0.5168 -0.2988  0.1577
  771MOL0     H 4060   5.331   7.672  13.055 -0.4536 -0.3730 -1.4634
  771MOL0     H 4061   5.162   7.894  12.922  0.0934  1.0279  0.7931
  771MOL0     H 4062   5.333   7.858  12.899  0.6130  2.6504 -0.2433
  771MOL0     H 4063   5.212   8.017  13.117 -0.3839  0.3191 -1.0771
  771MOL0     H 4064   5.376   7.952  13.123 -1.4738 -1.3078  0.5079
  771MOL0     H 4065   4.721   7.714  12.344 -1.9210  0.4467 -0.8195
  771MOL0     H 4066   4.571   7.640  12.177  0.8632  0.5733 -0.4370
  771MOL0     H 4067   4.317   7.019  12.061 -1.9537 -1.0772 -0.8831
  771MOL0     H 4068   4.095   6.979  12.025 -2.2825  1.0547 -1.5576
  771MOL0     H 4069   2.307   8.233  11.657 -4.5549  4.6077 -0.5048
  771MOL0     H 4070   2.249   8.451  11.549 -1.7349 -2.5684 -0.3564
  771MOL0     H 4071   2.192   8.667  11.338 -2.1502 -0.2839 -1.8274
  771MOL0     H 4072   2.045   8.851  11.265 -0.4875  0.5858 -1.5337
  771MOL0     H 4073   2.043   9.111  11.213  0.7802  0.2020 -1.6670
  771MOL0     H 4074   1.941   8.995  11.131  1.9653 -2.8348 -0.6683
  771MOL0     H 4075   1.849   9.213  11.090  1.5086  2.5916  1.1005
  771MOL0     H 4076   1.906   9.138  10.935 -2.9595  2.2092 -0.8738
  771MOL0     H 4077   2.100   9.269  10.954 -2.3613 -4.4191 -0.9870
  771MOL0     H 4078   2.038   9.348  11.106  0.3241  0.0755 -0.4728
  771MOL0     H 4079   2.013   9.482  10.902  1.3602 -1.7978 -1.3725
  771MOL0     H 4080   1.922   9.356  10.825  1.0985 -1.5020  0.1451
  771MOL0     H 4081   1.636   9.577  11.044 -1.2564 -1.1422  1.0598
  771MOL0     H 4082   2.373   8.952  10.983  4.0894 -1.8190  0.2962
  771MOL0     H 4083   2.583   8.926  11.069  1.2821 -0.8254 -1.3287
  771MOL0     H 4084   2.629   8.802  11.180  0.6934 -3.0171 -0.7191
  771MOL0     H 4085   2.591   8.771  10.999  2.3065 -1.3617  0.2656
  772MOL0     O 4086   9.197   4.201   9.170 -0.1450 -0.0442  0.3752
  772MOL0     C 4087   9.126   4.273   9.100  0.0578  1.1550 -0.2920
  772MOL0     O 4088   9.175   4.359   9.003 -0.5338  0.6775 -0.4792
  772MOL0     C 4089   9.307   4.366   8.964  0.4060  0.3147  0.4937
  772MOL0     C 4090   9.399   4.262   8.968  0.3054 -0.2641 -0.1991
  772MOL0     C 4091   9.522   4.276   8.905  0.7607  0.0008  0.0881
  772MOL0     C 4092   9.556   4.395   8.836 -0.1008  0.0687  0.5002
  772MOL0     O 4093   9.673   4.397   8.768 -0.4942  0.2987 -0.2185
  772MOL0     C 4094   9.689   4.458   8.641 -0.6644 -0.7105  0.7369
  772MOL0     C 4095   9.830   4.521   8.635 -0.7345  1.0042 -0.4088
  772MOL0     C 4096   9.937   4.412   8.661 -0.3651 -1.2644  1.0426
  772MOL0     C 4097  10.080   4.455   8.618 -0.3708  0.7144 -0.7284
  772MOL0     C 4098  10.096   4.455   8.467  0.4019 -0.2275  0.4049
  772MOL0     C 4099  10.235   4.498   8.429 -1.5945  0.6930  0.7894
  772MOL0     C 4100  10.250   4.480   8.275  0.5260  0.6433  0.1077
  772MOL0     C 4101  10.182   4.594   8.190 -0.4082 -0.0871 -0.3628
  772MOL0     N 4102  10.173   4.555   8.053 -0.4591 -0.0088  0.3878
  772MOL0     C 4103  10.285   4.543   7.974 -0.0583 -0.5167  0.1363
  772MOL0     C 4104  10.230   4.530   7.848  0.0107  0.0959  0.0237
  772MOL0     C 4105  10.305   4.499   7.725  0.4039  0.0688  0.5854
  772MOL0     C 4106  10.433   4.585   7.692  1.1136 -0.8080 -0.0197
  772MOL0     C 4107  10.480   4.584   7.543  0.9309  0.7250 -0.6571
  772MOL0     C 4108  10.616   4.650   7.523 -0.1090 -0.6309 -0.7691
  772MOL0     O 4109  10.707   4.554   7.568  0.3350 -0.0076  0.4846
  772MOL0     C 4110  10.843   4.568   7.563  1.3847 -0.5926  0.8145
  772MOL0     C 4111  10.920   4.676   7.528  0.2759 -0.4633 -1.2362
  772MOL0     C 4112  11.059   4.683   7.535 -0.3226  0.6355 -0.0609
  772MOL0     C 4113  11.132   4.574   7.588  0.2522 -1.1538 -0.2770
  772MOL0     C 4114  11.273   4.573   7.617 -0.3768 -0.6784 -0.1548
  772MOL0     O 4115  11.342   4.456   7.639 -0.4867 -0.5171  0.1280
  772MOL0     C 4116  11.480   4.481   7.657  1.0838  0.7333  0.1612
  772MOL0     C 4117  11.534   4.451   7.785  0.4516 -0.0476  0.2874
  772MOL0     C 4118  11.669   4.454   7.817 -0.3385 -0.2338 -0.1478
  772MOL0     C 4119  11.760   4.484   7.713 -0.1664  0.1891 -1.0960
  772MOL0     O 4120  11.892   4.495   7.732  0.3755  0.2611 -0.3334
  772MOL0     C 4121  11.977   4.417   7.658 -0.0712 -0.2001  0.9300
  772MOL0     C 4122  12.110   4.485   7.667  1.1244 -0.7574 -0.2331
  772MOL0     C 4123  12.202   4.422   7.772 -0.5407 -0.3128  0.5792
  772MOL0     C 4124  12.320   4.509   7.817  0.0157  0.6380 -0.1137
  772MOL0     C 4125  12.437   4.412   7.852  0.7824 -0.0571 -0.3223
  772MOL0     C 4126  12.562   4.436   7.776 -0.3344 -0.1664 -0.8278
  772MOL0     C 4127  12.635   4.572   7.805 -1.1375 -0.7054  0.3505
  772MOL0     C 4128  12.735   4.597   7.686 -0.1814  0.0073  0.8236
  772MOL0    Cl 4129  12.779   4.775   7.699 -0.4392  0.7390  0.4080
  772MOL0     C 4130  11.711   4.518   7.591  0.4209  0.0656 -0.0829
  772MOL0     C 4131  11.577   4.514   7.560  0.2335  0.1226 -0.4364
  772MOL0     O 4132  11.324   4.688   7.615 -0.4051  0.1716 -0.3023
  772MOL0     C 4133  11.057   4.465   7.630 -0.2481 -0.5318  0.7206
  772MOL0     C 4134  10.920   4.459   7.610  0.5383  0.5657 -0.7255
  772MOL0     N 4135  10.094   4.549   7.855 -0.9516  0.1115  0.4317
  772MOL0     N 4136  10.061   4.567   7.975  0.3119 -0.2668 -0.0083
  772MOL0     C 4137   9.469   4.504   8.839 -0.3333  0.4734  0.1541
  772MOL0     C 4138   9.352   4.483   8.906  0.3432  0.1565 -0.0499
  772MOL0     C 4139   8.980   4.283   9.124 -0.7625  1.0322 -0.0314
  772MOL0     C 4140   8.915   4.389   9.065 -0.0581 -0.6340  0.2315
  772MOL0     C 4141   8.776   4.405   9.064 -0.7518  0.6123 -0.1563
  772MOL0     C 4142   8.698   4.312   9.134  0.1118  0.2349 -0.0875
  772MOL0     O 4143   8.564   4.317   9.150 -0.1165 -0.1394 -0.2453
  772MOL0     C 4144   8.496   4.417   9.074  1.6081 -0.8236  0.4665
  772MOL0     C 4145   8.355   4.446   9.146  0.8421 -0.4980  0.0446
  772MOL0     C 4146   8.350   4.509   9.289  0.5858  1.2899  0.2607
  772MOL0     C 4147   8.441   4.635   9.299  0.8518 -0.6440  0.1845
  772MOL0     C 4148   8.405   4.732   9.190  0.2863 -0.0254  0.1231
  772MOL0     C 4149   8.366   4.811   9.104 -0.4168  0.1789 -0.4902
  772MOL0     C 4150   8.762   4.199   9.198 -0.9964 -0.2525 -0.0461
  772MOL0     C 4151   8.902   4.189   9.191 -1.2164 -0.6080  0.5260
  772MOL0     C 4152   8.961   4.057   9.239  0.7639  0.2797 -0.3193
  772MOL0     H 4153   9.376   4.165   9.010  0.9545 -0.2817  0.1289
  772MOL0     H 4154   9.589   4.191   8.896  1.2968  0.4012  0.2303
  772MOL0     H 4155   9.681   4.380   8.564 -1.2466  0.8212 -0.8196
  772MOL0     H 4156   9.612   4.534   8.628 -1.9389 -1.9996  0.5083
  772MOL0     H 4157   9.844   4.592   8.716  3.4585 -1.2805  1.1867
  772MOL0     H 4158   9.847   4.570   8.539 -0.2937 -1.3687 -1.6377
  772MOL0     H 4159   9.898   4.331   8.598 -0.7871  0.4596 -1.0269
  772MOL0     H 4160   9.931   4.374   8.763 -0.5961 -2.6515  0.5485
  772MOL0     H 4161  10.117   4.550   8.658  1.7761 -1.1173  2.1130
  772MOL0     H 4162  10.149   4.373   8.642  0.5319  1.5324 -0.5111
  772MOL0     H 4163  10.079   4.353   8.431 -2.3244 -1.5231  4.6068
  772MOL0     H 4164  10.024   4.515   8.412 -0.7143  0.5056  2.5377
  772MOL0     H 4165  10.264   4.599   8.461  1.5191  0.3562 -0.5272
  772MOL0     H 4166  10.313   4.435   8.473  1.9611  4.1315 -0.0323
  772MOL0     H 4167  10.210   4.383   8.245  0.1510 -0.0861  2.7284
  772MOL0     H 4168  10.357   4.471   8.251  0.2608  3.5246 -3.0569
  772MOL0     H 4169  10.078   4.603   8.224  0.0298 -2.5636  1.9699
  772MOL0     H 4170  10.233   4.691   8.198  0.5139 -0.6654  1.1152
  772MOL0     H 4171  10.386   4.543   8.013  0.5833  0.5944 -1.4604
  772MOL0     H 4172  10.326   4.392   7.722 -1.2139 -0.2557 -1.8280
  772MOL0     H 4173  10.226   4.512   7.651 -0.7558 -0.1781  1.7492
  772MOL0     H 4174  10.414   4.688   7.723 -0.5920 -1.4242  1.1190
  772MOL0     H 4175  10.502   4.535   7.762  0.4069 -1.5541  0.1616
  772MOL0     H 4176  10.410   4.646   7.486  1.1479  2.6225  1.0423
  772MOL0     H 4177  10.497   4.480   7.512  2.4527  0.9119 -0.5193
  772MOL0     H 4178  10.636   4.743   7.578 -2.1717  1.3505 -3.1779
  772MOL0     H 4179  10.630   4.664   7.416 -0.7447  0.1189 -0.7666
  772MOL0     H 4180  10.864   4.767   7.511  0.1704 -0.1038  0.7601
  772MOL0     H 4181  11.113   4.771   7.501  1.4340 -1.3102 -2.7039
  772MOL0     H 4182  11.459   4.418   7.856 -1.7289  3.7228  0.0237
  772MOL0     H 4183  11.694   4.430   7.920 -2.0426 -2.7747 -0.2466
  772MOL0     H 4184  11.981   4.314   7.697 -1.7969 -1.4791 -1.9244
  772MOL0     H 4185  11.954   4.411   7.551 -1.5937 -1.6710  1.2900
  772MOL0     H 4186  12.157   4.465   7.570  0.3661 -1.3224 -0.4911
  772MOL0     H 4187  12.096   4.591   7.690 -0.5344 -0.4417 -2.3935
  772MOL0     H 4188  12.144   4.389   7.858 -0.5187  1.6650  1.4145
  772MOL0     H 4189  12.242   4.334   7.721 -0.0691 -1.2555  2.4775
  772MOL0     H 4190  12.297   4.588   7.890  1.8974  3.0420 -1.9428
  772MOL0     H 4191  12.360   4.556   7.727 -0.1736 -1.1539 -1.1649
  772MOL0     H 4192  12.408   4.307   7.840  1.0675 -0.0353 -1.2998
  772MOL0     H 4193  12.450   4.414   7.960 -3.0922  2.0158  0.2796
  772MOL0     H 4194  12.632   4.359   7.810 -1.0437  0.3420  2.0206
  772MOL0     H 4195  12.551   4.429   7.667 -0.5007 -0.6215 -0.7851
  772MOL0     H 4196  12.687   4.583   7.901 -2.3318  0.2554  0.9197
  772MOL0     H 4197  12.571   4.661   7.799  2.4554  2.0726 -0.2171
  772MOL0     H 4198  12.824   4.538   7.709  0.1694  0.5323  0.8560
  772MOL0     H 4199  12.708   4.577   7.582  0.6837  0.6369  0.4612
  772MOL0     H 4200  11.787   4.555   7.522  0.4822  0.1317  0.0208
  772MOL0     H 4201  11.555   4.550   7.460  1.6880  0.8299 -0.5210
  772MOL0     H 4202  11.114   4.389   7.683  0.4473  0.7456  1.8562
  772MOL0     H 4203  10.859   4.375   7.641 -0.6034  1.5599 -0.2053
  772MOL0     H 4204   9.488   4.603   8.799 -3.1225  1.2205  0.4576
  772MOL0     H 4205   9.287   4.569   8.898  1.8434  1.2448 -1.0532
  772MOL0     H 4206   8.970   4.469   9.017 -0.6275  0.7342  1.7711
  772MOL0     H 4207   8.747   4.492   9.008 -1.1971  0.6483  0.1225
  772MOL0     H 4208   8.497   4.378   8.972 -0.6199 -1.2195  0.5463
  772MOL0     H 4209   8.551   4.511   9.069  2.0447 -1.1386 -2.0505
  772MOL0     H 4210   8.295   4.355   9.137  3.0982 -2.2580  1.4447
  772MOL0     H 4211   8.310   4.520   9.080  0.9670 -1.3393 -1.0172
  772MOL0     H 4212   8.371   4.432   9.363  1.1398  1.6681  0.5021
  772MOL0     H 4213   8.246   4.534   9.314 -0.1107  1.7019 -2.6759
  772MOL0     H 4214   8.426   4.676   9.399 -0.1529  1.3591 -0.7211
  772MOL0     H 4215   8.545   4.602   9.295  1.2581  0.6361 -0.3903
  772MOL0     H 4216   8.331   4.880   9.030 -0.3294 -1.2217 -1.8939
  772MOL0     H 4217   8.713   4.117   9.248  3.3179 -1.9900  1.8461
  772MOL0     H 4218   8.990   3.999   9.152  1.0503 -0.7819  0.4618
  772MOL0     H 4219   9.047   4.087   9.300 -0.3278 -1.9207  2.5386
  772MOL0     H 4220   8.890   4.009   9.307  0.1632  0.5875 -0.7178
  773MOL0     O 4221   3.844   7.578   9.941  0.4416  0.5331 -0.5091
  773MOL0     C 4222   3.737   7.634   9.938  0.3307  0.1976 -0.1196
  773MOL0     O 4223   3.730   7.768   9.928 -0.5829 -0.4461 -0.1099
  773MOL0     C 4224   3.844   7.838   9.941  0.8008 -0.3564  0.2529
  773MOL0     C 4225   3.885   7.926   9.834  0.1293 -0.6301  0.3438
  773MOL0     C 4226   3.980   8.018   9.860 -0.2604 -0.2964  0.0801
  773MOL0     C 4227   4.054   8.011   9.975 -0.3233 -0.0720 -0.6756
  773MOL0     O 4228   4.165   8.086  10.001 -0.2883  0.3336  0.4043
  773MOL0     C 4229   4.224   8.149   9.888  0.3898 -0.8174  0.4622
  773MOL0     C 4230   4.346   8.220   9.941  0.2824 -0.3236  0.0601
  773MOL0     C 4231   4.406   8.292   9.815  0.6473 -0.1287 -0.1005
  773MOL0     C 4232   4.540   8.358   9.854 -0.2489  0.6318 -0.2050
  773MOL0     C 4233   4.600   8.431   9.740 -0.2810 -0.1197  1.4048
  773MOL0     C 4234   4.512   8.555   9.698  0.3568  0.3526 -0.5380
  773MOL0     C 4235   4.580   8.615   9.572  0.3831  0.0666  0.1967
  773MOL0     C 4236   4.497   8.732   9.516 -0.1413  0.2443 -0.4538
  773MOL0     N 4237   4.517   8.859   9.585  0.0792 -0.2869  0.3911
  773MOL0     C 4238   4.469   8.894   9.708 -0.6139  0.3444  0.1882
  773MOL0     C 4239   4.515   9.025   9.730 -0.2500  0.2147  0.5286
  773MOL0     C 4240   4.497   9.093   9.858  0.8017 -0.2702 -0.7641
  773MOL0     C 4241   4.616   9.049   9.953  0.3633 -0.6331 -0.2627
  773MOL0     C 4242   4.580   9.092  10.100  0.9914  0.1168 -1.0949
  773MOL0     C 4243   4.571   9.244  10.123 -0.2118  0.9546  0.0237
  773MOL0     O 4244   4.680   9.311  10.054  1.0699  0.1897 -0.3130
  773MOL0     C 4245   4.732   9.425  10.098 -0.0977  0.1714 -0.1867
  773MOL0     C 4246   4.847   9.469  10.040  0.2164 -0.0227  0.3914
  773MOL0     C 4247   4.900   9.591  10.084  0.4316  0.3926  0.2450
  773MOL0     C 4248   4.817   9.684  10.153  0.8943  0.5852 -0.4945
  773MOL0     C 4249   4.859   9.823  10.161  0.2796 -0.1969  0.4058
  773MOL0     O 4250   4.972   9.858  10.097 -1.1164 -0.5705  0.0451
  773MOL0     C 4251   5.032   9.969  10.150 -0.9043 -0.1465 -0.2693
  773MOL0     C 4252   5.164   9.962  10.150 -0.6611 -0.7615 -0.4117
  773MOL0     C 4253   5.245  10.077  10.189  0.2099 -0.0119  0.1348
  773MOL0     C 4254   5.190  10.200  10.228 -0.0896  0.2131 -0.1762
  773MOL0     O 4255   5.270  10.306  10.270  0.6118  0.9253  0.5226
  773MOL0     C 4256   5.372  10.274  10.369 -0.8019  0.5753 -0.8744
  773MOL0     C 4257   5.496  10.349  10.323 -0.3060  0.8173 -0.2137
  773MOL0     C 4258   5.633  10.332  10.400 -0.1146  0.8555 -0.2750
  773MOL0     C 4259   5.630  10.345  10.553  0.4380  0.1806 -0.5167
  773MOL0     C 4260   5.614  10.489  10.597 -0.3976 -0.4957 -0.1141
  773MOL0     C 4261   5.549  10.511  10.732 -0.2524  0.1362  0.2211
  773MOL0     C 4262   5.637  10.449  10.846 -0.6216  0.3503  0.8856
  773MOL0     C 4263   5.576  10.480  10.985 -0.1902  0.2622  0.9362
  773MOL0    Cl 4264   5.473  10.347  11.031  0.3873  0.5191 -0.6225
  773MOL0     C 4265   5.052  10.205  10.224 -0.2916 -0.0752  0.1766
  773MOL0     C 4266   4.975  10.093  10.191  0.0400  0.0257 -0.3081
  773MOL0     O 4267   4.795   9.890  10.237  0.0194 -0.1010  0.2688
  773MOL0     C 4268   4.689   9.643  10.190  0.8661  0.3594  0.9150
  773MOL0     C 4269   4.651   9.510  10.169  0.1934  0.5116 -0.4464
  773MOL0     N 4270   4.572   9.067   9.618 -0.3350  0.1990  0.4882
  773MOL0     N 4271   4.578   8.966   9.533  0.0165  0.3337 -0.7207
  773MOL0     C 4272   4.032   7.919  10.079 -0.7567  0.1761  0.2922
  773MOL0     C 4273   3.919   7.837  10.060 -0.4760 -0.0932  0.3169
  773MOL0     C 4274   3.604   7.569   9.922 -0.7237 -0.9450  0.6128
  773MOL0     C 4275   3.487   7.660   9.914 -0.8029  0.6020 -0.3372
  773MOL0     C 4276   3.354   7.604   9.903  0.5838 -0.4449 -0.0710
  773MOL0     C 4277   3.335   7.466   9.891  1.6606 -0.4975 -0.0260
  773MOL0     O 4278   3.195   7.425   9.888 -0.5477  0.2324 -0.2572
  773MOL0     C 4279   3.178   7.277   9.877  0.8480  0.1833 -1.1043
  773MOL0     C 4280   3.043   7.260   9.812 -0.3816  0.1258  0.4693
  773MOL0     C 4281   2.913   7.337   9.871  0.6337  1.4745  0.6057
  773MOL0     C 4282   2.871   7.445   9.777 -0.1628 -0.1406  0.3879
  773MOL0     C 4283   2.760   7.531   9.818  0.2425  0.4640  0.8340
  773MOL0     C 4284   2.659   7.602   9.837  0.9112 -0.0262 -0.7675
  773MOL0     C 4285   3.445   7.384   9.898 -0.5671  0.7206 -0.3631
  773MOL0     C 4286   3.574   7.430   9.925  0.1260 -0.5728 -0.1906
  773MOL0     C 4287   3.686   7.324   9.942  0.0504 -0.9035 -0.3932
  773MOL0     H 4288   3.828   7.939   9.742 -0.3746 -3.5130  0.1453
  773MOL0     H 4289   3.992   8.100   9.790  1.1577  0.0833  0.7286
  773MOL0     H 4290   4.247   8.086   9.801  0.1263 -2.8556  1.8166
  773MOL0     H 4291   4.146   8.219   9.856 -1.5826 -0.7055  4.8347
  773MOL0     H 4292   4.419   8.151   9.985  2.3364  2.9810  2.2811
  773MOL0     H 4293   4.323   8.295  10.017 -2.2005 -0.3489 -0.5919
  773MOL0     H 4294   4.338   8.365   9.770 -0.0170 -0.2151  0.7435
  773MOL0     H 4295   4.430   8.213   9.743  1.3876  0.9968 -1.1239
  773MOL0     H 4296   4.518   8.430   9.934  0.3358  0.4756  0.1002
  773MOL0     H 4297   4.613   8.289   9.896 -1.4146  0.5746  1.8509
  773MOL0     H 4298   4.702   8.463   9.760  0.3889  0.0679 -1.9053
  773MOL0     H 4299   4.607   8.357   9.661  1.3824 -1.7598  2.9819
  773MOL0     H 4300   4.411   8.534   9.661  0.5521  0.3673 -1.0854
  773MOL0     H 4301   4.507   8.628   9.780  0.1712 -0.4921  0.2175
  773MOL0     H 4302   4.594   8.539   9.494 -1.4795 -0.5869  0.4395
  773MOL0     H 4303   4.678   8.649   9.604  0.9378 -1.6194  0.4103
  773MOL0     H 4304   4.522   8.738   9.410 -1.6092  0.3152 -0.8167
  773MOL0     H 4305   4.392   8.701   9.524  0.8658 -3.2286  1.7932
  773MOL0     H 4306   4.405   8.839   9.777 -0.8197 -0.3598 -0.5437
  773MOL0     H 4307   4.514   9.200   9.850 -0.8185  0.0704 -0.1079
  773MOL0     H 4308   4.396   9.067   9.892  1.7070 -0.9892  1.6274
  773MOL0     H 4309   4.609   8.940   9.959 -1.4754 -0.5873 -0.9027
  773MOL0     H 4310   4.716   9.077   9.919  2.5945 -2.4920  3.9841
  773MOL0     H 4311   4.656   9.057  10.171 -1.7160 -2.7580  0.6336
  773MOL0     H 4312   4.485   9.059  10.142  0.2614  2.5526 -0.6717
  773MOL0     H 4313   4.577   9.262  10.230 -1.2407  1.2479  0.0473
  773MOL0     H 4314   4.475   9.285  10.089 -0.1735  0.1399 -1.1394
  773MOL0     H 4315   4.892   9.405   9.966  5.2602  3.8016 -0.3503
  773MOL0     H 4316   4.997   9.623  10.048  0.6475  2.1546  2.1873
  773MOL0     H 4317   5.200   9.862  10.130 -0.8582 -1.1115  0.8789
  773MOL0     H 4318   5.350  10.069  10.165 -0.4087  1.8081 -4.0653
  773MOL0     H 4319   5.335  10.301  10.468 -1.1578 -0.1090 -0.8192
  773MOL0     H 4320   5.394  10.167  10.372  3.5314  1.2460 -1.4172
  773MOL0     H 4321   5.517  10.323  10.219  0.4810  0.7839 -0.0535
  773MOL0     H 4322   5.476  10.457  10.330  2.4402  1.3307  1.1511
  773MOL0     H 4323   5.660  10.228  10.379  1.6242  1.3854 -0.8200
  773MOL0     H 4324   5.716  10.388  10.356 -1.3233  1.3103 -2.0562
  773MOL0     H 4325   5.713  10.296  10.604  1.4261  0.3802 -1.8793
  773MOL0     H 4326   5.542  10.288  10.584 -1.4988  1.5010 -3.1194
  773MOL0     H 4327   5.559  10.541  10.518  0.3717 -1.0902 -1.0765
  773MOL0     H 4328   5.716  10.528  10.603 -0.2387 -0.9920  0.4758
  773MOL0     H 4329   5.543  10.618  10.755  1.3927  0.1952  0.5565
  773MOL0     H 4330   5.455  10.456  10.731  0.5694 -1.3474 -0.9702
  773MOL0     H 4331   5.730  10.507  10.838 -0.9338  0.6909 -0.6742
  773MOL0     H 4332   5.652  10.342  10.829  2.3363  0.2663  3.1424
  773MOL0     H 4333   5.659  10.493  11.054  0.5410  3.2891 -0.3427
  773MOL0     H 4334   5.523  10.575  10.970  0.7738  0.4324 -2.1362
  773MOL0     H 4335   4.983  10.282  10.257  1.5085  1.2399  1.0345
  773MOL0     H 4336   4.867  10.100  10.199 -0.0970 -1.6830 -0.1710
  773MOL0     H 4337   4.611   9.709  10.229  0.9687  0.2845  1.2486
  773MOL0     H 4338   4.550   9.484  10.196  1.2915 -2.9323  0.8258
  773MOL0     H 4339   4.096   7.925  10.166  0.1871  1.5837 -0.4738
  773MOL0     H 4340   3.882   7.769  10.136 -0.3425 -1.6622 -0.9709
  773MOL0     H 4341   3.490   7.768   9.906 -2.2881  0.5166 -3.4817
  773MOL0     H 4342   3.274   7.675   9.887  2.4534  0.9561 -4.7972
  773MOL0     H 4343   3.167   7.234   9.976  0.0089  1.2116 -0.7329
  773MOL0     H 4344   3.259   7.233   9.817  1.7473  2.2497 -1.5272
  773MOL0     H 4345   3.021   7.154   9.823  2.1881 -0.4011  1.4744
  773MOL0     H 4346   3.044   7.280   9.704 -0.5330 -2.0478  0.0270
  773MOL0     H 4347   2.940   7.371   9.971 -0.5717 -1.7662  2.1766
  773MOL0     H 4348   2.831   7.264   9.874  0.4974  1.3257 -2.5724
  773MOL0     H 4349   2.956   7.511   9.758  1.2809 -1.9202  0.3780
  773MOL0     H 4350   2.840   7.401   9.682 -0.4427  0.9632 -0.0422
  773MOL0     H 4351   2.568   7.657   9.857  0.4252 -1.5375  1.5424
  773MOL0     H 4352   3.433   7.276   9.900  1.9192  0.4021 -0.2078
  773MOL0     H 4353   3.741   7.341  10.035 -1.1568 -0.1003  0.2084
  773MOL0     H 4354   3.636   7.227   9.941  1.7473 -1.8287  0.2577
  773MOL0     H 4355   3.758   7.325   9.860 -0.3022  2.5908 -0.8360
  774MOL0     O 4356  10.241   3.943   4.412  0.1724  0.1340  0.6584
  774MOL0     C 4357  10.126   3.936   4.450 -0.2495 -0.2122  0.5519
  774MOL0     O 4358  10.088   3.968   4.577  0.1724  0.5574 -0.9258
  774MOL0     C 4359  10.182   3.992   4.672 -0.8632  0.5958 -0.3053
  774MOL0     C 4360  10.189   4.125   4.723 -0.2047  0.3571 -0.4799
  774MOL0     C 4361  10.267   4.150   4.829 -0.7471 -0.5235  0.6095
  774MOL0     C 4362  10.359   4.064   4.885 -0.0327 -0.0852  0.6751
  774MOL0     O 4363  10.441   4.074   4.988 -0.6283 -0.4803  0.3732
  774MOL0     C 4364  10.509   4.201   5.003 -0.4428  1.2360 -0.3471
  774MOL0     C 4365  10.633   4.193   5.094 -0.0161  0.5680  0.9579
  774MOL0     C 4366  10.679   4.330   5.130  0.5537 -1.2458  0.0253
  774MOL0     C 4367  10.814   4.332   5.198  1.0366 -0.3642  0.6619
  774MOL0     C 4368  10.856   4.477   5.248  0.1686 -0.0767  0.0906
  774MOL0     C 4369  10.896   4.563   5.129 -0.1162 -0.9262  0.2863
  774MOL0     C 4370  10.977   4.693   5.165 -0.0816 -0.3034 -0.4030
  774MOL0     C 4371  11.026   4.772   5.052 -0.7217  0.7557  0.5974
  774MOL0     N 4372  11.088   4.898   5.095 -0.2192  0.1154  0.6713
  774MOL0     C 4373  11.229   4.909   5.101  0.0607 -0.3637  0.4191
  774MOL0     C 4374  11.245   5.024   5.164  0.5338 -0.3128  0.2009
  774MOL0     C 4375  11.369   5.098   5.184  0.5234 -0.5259  0.3255
  774MOL0     C 4376  11.415   5.169   5.051 -0.5416  0.1256 -0.1855
  774MOL0     C 4377  11.331   5.298   5.033  0.0273  0.8941  0.4371
  774MOL0     C 4378  11.388   5.375   4.907  0.0956  0.2407 -0.3577
  774MOL0     O 4379  11.384   5.279   4.796 -1.1190  0.2006 -0.2143
  774MOL0     C 4380  11.289   5.306   4.701 -0.0479  0.3353 -0.3861
  774MOL0     C 4381  11.330   5.294   4.570  0.2383 -0.7663  0.3524
  774MOL0     C 4382  11.236   5.313   4.467  0.9749  0.2976 -0.1968
  774MOL0     C 4383  11.092   5.335   4.498 -0.3871  0.7139 -0.0569
  774MOL0     C 4384  10.991   5.367   4.395 -0.6915 -0.5008 -0.1410
  774MOL0     O 4385  10.862   5.359   4.433  0.6558 -0.1672  0.7500
  774MOL0     C 4386  10.762   5.389   4.351  0.5773  0.6728 -0.2216
  774MOL0     C 4387  10.769   5.501   4.262 -0.0113  0.2509 -0.0661
  774MOL0     C 4388  10.655   5.516   4.187  0.1414 -0.2329  0.3721
  774MOL0     C 4389  10.540   5.427   4.185  0.1703 -0.8863  0.4076
  774MOL0     O 4390  10.439   5.436   4.085 -1.0206  0.9354 -0.0685
  774MOL0     C 4391  10.480   5.394   3.958  0.7938  0.4950 -0.3852
  774MOL0     C 4392  10.406   5.465   3.842 -0.4366  0.2498  0.8208
  774MOL0     C 4393  10.476   5.416   3.714  0.1680  0.4435  0.2656
  774MOL0     C 4394  10.402   5.433   3.575  0.3252  0.1557 -0.2324
  774MOL0     C 4395  10.488   5.359   3.468  0.1605 -0.2325 -0.1261
  774MOL0     C 4396  10.453   5.403   3.324  0.6469 -0.0073  1.1519
  774MOL0     C 4397  10.492   5.540   3.270 -0.9923  0.9420  0.0013
  774MOL0     C 4398  10.647   5.553   3.252  0.4174  1.0287 -0.6135
  774MOL0    Cl 4399  10.680   5.721   3.219  0.1982 -0.6468 -0.1346
  774MOL0     C 4400  10.542   5.318   4.276 -0.5210 -0.1506 -0.2138
  774MOL0     C 4401  10.652   5.306   4.365  0.3558  0.1062  0.1655
  774MOL0     O 4402  11.029   5.394   4.289 -0.1313 -0.1077 -0.0352
  774MOL0     C 4403  11.066   5.354   4.633 -0.3894  0.1721  0.7342
  774MOL0     C 4404  11.158   5.333   4.737  1.3965 -0.5980 -0.0674
  774MOL0     N 4405  11.119   5.069   5.196 -0.5524 -0.0300 -0.0549
  774MOL0     N 4406  11.029   4.992   5.168  0.9698  0.7026 -0.7956
  774MOL0     C 4407  10.342   3.925   4.847  0.0520  0.9234 -0.9059
  774MOL0     C 4408  10.257   3.893   4.737 -0.4574 -0.0817 -0.0844
  774MOL0     C 4409  10.023   3.900   4.352 -0.4207  0.3570 -0.6463
  774MOL0     C 4410   9.889   3.912   4.393 -0.0918 -0.4105 -0.8625
  774MOL0     C 4411   9.781   3.859   4.316 -0.5291 -0.3702  0.1041
  774MOL0     C 4412   9.814   3.812   4.185  0.0803 -0.4852  0.0316
  774MOL0     O 4413   9.723   3.779   4.087  0.6627  0.3385  0.0850
  774MOL0     C 4414   9.577   3.791   4.106 -0.7590  0.3957 -1.1684
  774MOL0     C 4415   9.505   3.783   3.969 -0.0581  0.2769  0.1912
  774MOL0     C 4416   9.510   3.909   3.885  0.1842 -0.0784  0.9050
  774MOL0     C 4417   9.388   3.985   3.921 -0.1887 -0.0266 -0.2693
  774MOL0     C 4418   9.417   4.137   3.906  0.0225  0.6397  0.0077
  774MOL0     C 4419   9.456   4.252   3.878  0.3098  0.7103  0.2098
  774MOL0     C 4420   9.943   3.785   4.150 -0.2714  0.4977 -0.2675
  774MOL0     C 4421  10.048   3.832   4.224  0.4988  0.0441 -0.0466
  774MOL0     C 4422  10.184   3.790   4.176 -0.1006  0.3108 -0.0419
  774MOL0     H 4423  10.134   4.210   4.686 -1.8896 -0.2139  0.5984
  774MOL0     H 4424  10.268   4.255   4.856  0.2860  0.2492 -2.0860
  774MOL0     H 4425  10.551   4.229   4.906 -0.2595 -0.0942 -0.6725
  774MOL0     H 4426  10.442   4.281   5.037 -2.0256 -0.8562  1.8204
  774MOL0     H 4427  10.710   4.127   5.052 -0.9389  0.0711 -0.0209
  774MOL0     H 4428  10.599   4.151   5.189  1.1484  0.3791  1.3097
  774MOL0     H 4429  10.603   4.377   5.193  1.4800  0.2242  0.0929
  774MOL0     H 4430  10.686   4.376   5.031  1.0709 -2.9632 -0.7854
  774MOL0     H 4431  10.802   4.266   5.285 -1.4539 -2.5445 -1.1500
  774MOL0     H 4432  10.889   4.293   5.129  1.0093 -0.2660  0.5769
  774MOL0     H 4433  10.788   4.525   5.319  0.3634  0.9997 -0.4323
  774MOL0     H 4434  10.947   4.454   5.304  0.6875  0.9136 -0.3237
  774MOL0     H 4435  10.969   4.506   5.072  1.7027  1.2886  0.2435
  774MOL0     H 4436  10.808   4.584   5.068  0.2988  0.0149 -0.0096
  774MOL0     H 4437  11.070   4.656   5.210 -0.7322 -1.1851  0.2495
  774MOL0     H 4438  10.920   4.755   5.235 -0.1956 -0.8967  0.0420
  774MOL0     H 4439  11.097   4.717   4.989 -0.3688  0.0852  1.5634
  774MOL0     H 4440  10.936   4.794   4.994 -1.7766 -0.5755  1.6841
  774MOL0     H 4441  11.294   4.838   5.051 -0.6059 -1.0405  0.4969
  774MOL0     H 4442  11.360   5.176   5.260  1.0420  0.5799 -0.7230
  774MOL0     H 4443  11.441   5.025   5.224  1.1132 -1.1721 -1.8070
  774MOL0     H 4444  11.519   5.194   5.076 -0.1028 -1.9745  0.3044
  774MOL0     H 4445  11.412   5.100   4.966  1.2750  0.3907 -0.5198
  774MOL0     H 4446  11.329   5.365   5.120 -1.7820 -0.8866  1.8520
  774MOL0     H 4447  11.229   5.267   5.012  1.0846 -2.4312 -0.2708
  774MOL0     H 4448  11.486   5.414   4.936 -0.7328  2.0106  0.2077
  774MOL0     H 4449  11.330   5.467   4.891  1.2758  1.4737  2.0026
  774MOL0     H 4450  11.433   5.284   4.538  0.7573 -1.9326  2.2287
  774MOL0     H 4451  11.272   5.307   4.365 -0.2135 -0.3412 -0.5921
  774MOL0     H 4452  10.855   5.565   4.246  1.0592 -1.1374 -0.0298
  774MOL0     H 4453  10.654   5.595   4.112  1.3601  0.5985  1.1853
  774MOL0     H 4454  10.588   5.394   3.940  0.5231 -1.8497 -2.6673
  774MOL0     H 4455  10.442   5.291   3.953 -1.3978  1.0650  2.1460
  774MOL0     H 4456  10.302   5.431   3.836  0.3376 -2.0182 -0.7568
  774MOL0     H 4457  10.414   5.574   3.846  1.2018  0.1289  1.5839
  774MOL0     H 4458  10.576   5.460   3.710  1.3521 -2.0343  0.6086
  774MOL0     H 4459  10.486   5.308   3.729  0.9145  0.4358 -0.2657
  774MOL0     H 4460  10.374   5.538   3.566  0.3725  0.0352 -2.2160
  774MOL0     H 4461  10.307   5.380   3.586  0.7464 -0.6754 -0.4821
  774MOL0     H 4462  10.466   5.252   3.478  1.9482 -0.5934  0.3713
  774MOL0     H 4463  10.594   5.365   3.494 -0.2398  1.5606  1.2596
  774MOL0     H 4464  10.492   5.324   3.259 -0.0152  0.6495 -0.0721
  774MOL0     H 4465  10.344   5.408   3.315  0.7307 -0.7968 -0.5222
  774MOL0     H 4466  10.463   5.618   3.341  2.2000  1.6997  0.5942
  774MOL0     H 4467  10.440   5.559   3.175 -0.4330 -1.2487 -0.8021
  774MOL0     H 4468  10.701   5.507   3.335  0.1343 -2.3304 -2.1336
  774MOL0     H 4469  10.676   5.490   3.168 -1.2674 -3.5084  1.8874
  774MOL0     H 4470  10.463   5.244   4.284  0.7504 -1.6477 -1.0356
  774MOL0     H 4471  10.660   5.223   4.434  1.5635  1.1109  1.3008
  774MOL0     H 4472  10.965   5.381   4.661  0.1980  2.5320  0.7519
  774MOL0     H 4473  11.127   5.331   4.841  0.4900  1.7368 -0.2247
  774MOL0     H 4474  10.404   3.853   4.900 -1.0386  1.3177  1.0125
  774MOL0     H 4475  10.234   3.798   4.690  1.1517 -0.2353 -0.6292
  774MOL0     H 4476   9.872   3.956   4.491 -1.1338  1.7289 -1.9448
  774MOL0     H 4477   9.681   3.883   4.349 -1.1504  1.4732 -2.7539
  774MOL0     H 4478   9.558   3.882   4.164 -0.3065  0.1578 -0.6318
  774MOL0     H 4479   9.541   3.715   4.176 -1.4164  0.3337 -1.5668
  774MOL0     H 4480   9.403   3.743   3.970 -0.7341  1.9240 -0.4121
  774MOL0     H 4481   9.564   3.713   3.908 -1.9761  0.0720 -1.5570
  774MOL0     H 4482   9.503   3.898   3.776 -1.0943 -1.3836  1.0905
  774MOL0     H 4483   9.606   3.954   3.913 -0.6047  0.9899  1.9476
  774MOL0     H 4484   9.308   3.961   3.851 -0.0080 -0.8536 -0.1985
  774MOL0     H 4485   9.348   3.969   4.022 -0.1665  0.7356 -0.1346
  774MOL0     H 4486   9.499   4.347   3.852  1.2898  0.4709  0.8834
  774MOL0     H 4487   9.955   3.711   4.071 -0.8413 -1.5430  1.4586
  774MOL0     H 4488  10.232   3.703   4.223  0.2385  0.7888  0.5168
  774MOL0     H 4489  10.165   3.756   4.074 -3.1250  1.4468  0.0567
  774MOL0     H 4490  10.243   3.882   4.173 -1.1639  0.9875 -1.5591
  775MOL0     O 4491   6.863  11.061   6.348 -0.0555 -0.1083 -0.6106
  775MOL0     C 4492   6.777  11.002   6.292  0.1427 -0.1751 -0.4219
  775MOL0     O 4493   6.790  10.890   6.205  0.9064  0.3871 -0.7622
  775MOL0     C 4494   6.919  10.846   6.169  0.3084  0.5611  0.1516
  775MOL0     C 4495   7.012  10.935   6.116  0.2774  0.5516  0.1283
  775MOL0     C 4496   7.113  10.881   6.046  0.3721 -1.1983  0.0036
  775MOL0     C 4497   7.139  10.749   6.037  0.4596 -0.1983 -0.5298
  775MOL0     O 4498   7.254  10.709   5.979 -0.2536 -0.0426  0.3897
  775MOL0     C 4499   7.371  10.754   6.045 -0.4036  0.7280 -0.8546
  775MOL0     C 4500   7.463  10.837   5.954  0.7034 -0.6323  0.0935
  775MOL0     C 4501   7.608  10.859   6.009 -0.1696 -0.0280 -0.3827
  775MOL0     C 4502   7.682  10.976   5.958 -0.4869  0.3837  0.7375
  775MOL0     C 4503   7.836  10.963   5.991 -0.6264 -0.4914 -0.3358
  775MOL0     C 4504   7.894  10.831   5.941  0.0760 -0.1711 -0.3353
  775MOL0     C 4505   8.047  10.816   5.938 -0.4589 -0.0366 -0.2627
  775MOL0     C 4506   8.087  10.666   5.920 -0.5337  0.0453  0.2116
  775MOL0     N 4507   8.070  10.602   6.052 -0.1486 -0.4417  0.4691
  775MOL0     C 4508   8.143  10.639   6.160 -0.0080  0.5923  0.0616
  775MOL0     C 4509   8.101  10.562   6.264  0.1874  0.7272  0.9931
  775MOL0     C 4510   8.176  10.563   6.396  0.3939 -0.0672  0.0754
  775MOL0     C 4511   8.302  10.467   6.396  0.2293  1.2083  0.2189
  775MOL0     C 4512   8.280  10.316   6.383 -0.0160  0.1424  0.0596
  775MOL0     C 4513   8.401  10.236   6.385  0.0226 -0.3815  0.8343
  775MOL0     O 4514   8.425  10.183   6.514  0.1166  0.2741  0.1236
  775MOL0     C 4515   8.553  10.156   6.550 -0.3361  0.1384  0.3880
  775MOL0     C 4516   8.597  10.152   6.684 -0.2503  0.0883  0.9870
  775MOL0     C 4517   8.719  10.097   6.730 -0.2464  0.2406  1.0134
  775MOL0     C 4518   8.818  10.065   6.634 -0.0314 -0.4368  0.3925
  775MOL0     C 4519   8.958  10.027   6.671  0.2934  0.4405 -1.2351
  775MOL0     O 4520   8.987  10.030   6.801  0.0646  0.5134 -0.3924
  775MOL0     C 4521   9.116   9.991   6.829 -0.0169 -0.0377 -0.0207
  775MOL0     C 4522   9.170   9.859   6.834  0.1277 -0.1365 -0.5614
  775MOL0     C 4523   9.309   9.838   6.865  0.1925  1.0809  0.2848
  775MOL0     C 4524   9.391   9.944   6.898  0.5757  0.5354  0.9748
  775MOL0     O 4525   9.521   9.899   6.923  0.5990  0.1163 -0.0617
  775MOL0     C 4526   9.611  10.003   6.959 -0.0925  0.2341  0.0110
  775MOL0     C 4527   9.747   9.936   6.964 -0.9078  0.0190 -0.2569
  775MOL0     C 4528   9.868  10.028   6.988  0.6735  0.3814  0.7885
  775MOL0     C 4529   9.990   9.937   6.981 -0.1353 -0.1106  0.2178
  775MOL0     C 4530  10.117  10.014   6.994 -1.2215 -0.4979 -0.5177
  775MOL0     C 4531  10.128  10.092   7.129 -0.2002  0.2899  0.3010
  775MOL0     C 4532  10.261  10.165   7.137 -1.1390 -0.0503 -0.1366
  775MOL0     C 4533  10.265  10.274   7.253 -0.1891  0.8658  0.4109
  775MOL0    Cl 4534  10.216  10.438   7.222 -0.1717  0.0501 -0.0281
  775MOL0     C 4535   9.335  10.075   6.892  0.5176 -0.2901  0.0669
  775MOL0     C 4536   9.203  10.095   6.859 -0.0632  0.4323 -1.0725
  775MOL0     O 4537   9.044  10.000   6.585 -0.2386 -0.4808  0.2464
  775MOL0     C 4538   8.783  10.079   6.496  0.5070 -0.1495  0.1000
  775MOL0     C 4539   8.655  10.123   6.455  0.3939 -0.0397  0.4569
  775MOL0     N 4540   7.996  10.484   6.224  0.3257 -0.3533  0.1739
  775MOL0     N 4541   7.976  10.506   6.094  0.0829 -0.0192 -0.3989
  775MOL0     C 4542   7.066  10.658   6.105  0.3619 -0.4309 -0.2009
  775MOL0     C 4543   6.948  10.704   6.168 -0.6404  0.4049 -0.0807
  775MOL0     C 4544   6.643  11.039   6.315  0.3171 -0.7540  0.6649
  775MOL0     C 4545   6.554  10.940   6.350 -0.3555 -0.6992 -0.4800
  775MOL0     C 4546   6.424  10.975   6.382  0.2188 -0.1459 -0.2383
  775MOL0     C 4547   6.373  11.107   6.387 -0.4832  0.1378 -0.2001
  775MOL0     O 4548   6.236  11.137   6.401 -0.2644  0.5292  0.1386
  775MOL0     C 4549   6.136  11.033   6.390  0.5872  0.2188 -0.0330
  775MOL0     C 4550   6.082  11.009   6.533  0.3048 -0.2049  0.3301
  775MOL0     C 4551   6.003  11.138   6.570 -0.5310  0.7076 -0.3041
  775MOL0     C 4552   5.953  11.125   6.717  0.1654  0.7339 -0.0251
  775MOL0     C 4553   5.895  11.245   6.782  0.1235 -0.3809  0.2771
  775MOL0     C 4554   5.836  11.342   6.833  0.6866 -0.2703  1.2770
  775MOL0     C 4555   6.465  11.205   6.360  0.7156 -0.1778 -0.0356
  775MOL0     C 4556   6.600  11.177   6.335  0.2754  0.1336  0.0902
  775MOL0     C 4557   6.693  11.294   6.315 -0.0197  0.7837  0.1416
  775MOL0     H 4558   6.992  11.041   6.115  2.9107  1.1282 -1.6900
  775MOL0     H 4559   7.175  10.943   5.982  1.6803 -0.6650  1.7069
  775MOL0     H 4560   7.362  10.820   6.132  0.4768  0.4996 -0.5768
  775MOL0     H 4561   7.419  10.662   6.079 -4.3230 -1.7473 -1.3502
  775MOL0     H 4562   7.427  10.940   5.968  0.6705 -0.8105  1.5025
  775MOL0     H 4563   7.460  10.805   5.850  2.7167  1.9865 -0.8731
  775MOL0     H 4564   7.654  10.765   5.979  1.5522  0.7688 -0.3772
  775MOL0     H 4565   7.602  10.864   6.118 -0.9474  0.6848 -0.4487
  775MOL0     H 4566   7.675  10.974   5.849  2.0506 -3.4720  0.4196
  775MOL0     H 4567   7.625  11.064   5.991 -1.4831  0.0632 -0.0744
  775MOL0     H 4568   7.884  11.047   5.940 -3.7378  0.0405 -2.6913
  775MOL0     H 4569   7.869  10.975   6.095  1.7627  0.4468 -1.1308
  775MOL0     H 4570   7.852  10.752   6.004 -1.7207  0.2025 -1.0143
  775MOL0     H 4571   7.859  10.809   5.840 -1.2073  1.1001 -0.1981
  775MOL0     H 4572   8.094  10.859   6.027 -2.0609  0.3713  0.4345
  775MOL0     H 4573   8.081  10.876   5.853  0.3013  0.0307  0.0807
  775MOL0     H 4574   8.024  10.620   5.842  1.4131 -1.7335 -0.4046
  775MOL0     H 4575   8.189  10.658   5.882  0.9422  0.4373  3.7985
  775MOL0     H 4576   8.218  10.717   6.166  0.7191  0.1310 -2.1950
  775MOL0     H 4577   8.199  10.667   6.420 -0.8271 -0.0202  1.1185
  775MOL0     H 4578   8.106  10.538   6.476  2.1499 -0.0299  1.7202
  775MOL0     H 4579   8.372  10.500   6.320  2.4017 -1.4649  0.8919
  775MOL0     H 4580   8.353  10.468   6.493 -0.7927 -3.5606  1.0874
  775MOL0     H 4581   8.240  10.301   6.283  0.4954  0.0746 -0.1351
  775MOL0     H 4582   8.218  10.277   6.465 -1.5589 -0.6350 -1.4188
  775MOL0     H 4583   8.486  10.288   6.338 -0.2717 -1.8576 -1.4712
  775MOL0     H 4584   8.391  10.153   6.315  0.5192  0.6036 -0.4589
  775MOL0     H 4585   8.520  10.160   6.760 -1.4253  0.2036 -0.1754
  775MOL0     H 4586   8.739  10.078   6.835 -0.7782  1.2392  1.3138
  775MOL0     H 4587   9.112   9.771   6.807  1.7474 -1.8222  1.1232
  775MOL0     H 4588   9.361   9.743   6.867  1.4267  1.7148 -0.0526
  775MOL0     H 4589   9.620  10.079   6.881  1.0026 -2.7077 -2.9787
  775MOL0     H 4590   9.579  10.045   7.055 -1.1788 -0.0017 -0.2427
  775MOL0     H 4591   9.737   9.864   7.046  1.1179 -0.0591 -0.0273
  775MOL0     H 4592   9.779   9.876   6.879  1.6708  1.2762 -0.3014
  775MOL0     H 4593   9.872  10.102   6.907 -3.4847  1.0563  0.9478
  775MOL0     H 4594   9.847  10.091   7.076  1.2713  3.4892 -1.1385
  775MOL0     H 4595  10.004   9.881   6.889  0.3157 -1.5206  1.1076
  775MOL0     H 4596   9.981   9.866   7.064  1.9046 -0.0403  0.5476
  775MOL0     H 4597  10.128  10.091   6.917  3.4448 -0.6565 -0.2955
  775MOL0     H 4598  10.205   9.950   6.992  0.7034  1.7954  2.0597
  775MOL0     H 4599  10.046  10.165   7.119 -2.4162 -1.9753  0.9039
  775MOL0     H 4600  10.115  10.030   7.218  0.8245 -0.6692 -0.2024
  775MOL0     H 4601  10.291  10.216   7.045 -1.1559 -2.2165 -1.3920
  775MOL0     H 4602  10.330  10.083   7.159 -2.2799 -1.8117 -2.5870
  775MOL0     H 4603  10.195  10.245   7.333 -0.2261  2.2604  0.9071
  775MOL0     H 4604  10.365  10.279   7.296 -0.0409  2.5096 -0.0594
  775MOL0     H 4605   9.402  10.160   6.903  4.5904 -2.7116 -3.1642
  775MOL0     H 4606   9.170  10.197   6.843  0.5321  0.8636  0.2836
  775MOL0     H 4607   8.855  10.057   6.417  2.3308  2.0661  1.0471
  775MOL0     H 4608   8.631  10.115   6.350 -2.0650 -1.4552  1.0391
  775MOL0     H 4609   7.088  10.552   6.114  0.5778 -0.3368  0.4073
  775MOL0     H 4610   6.874  10.628   6.189 -1.5539  1.1410 -0.5879
  775MOL0     H 4611   6.574  10.835   6.369 -2.7118 -0.9095  1.3973
  775MOL0     H 4612   6.362  10.899   6.428  1.8751 -1.2818  0.1862
  775MOL0     H 4613   6.169  10.937   6.349 -1.8564 -0.8271  0.2957
  775MOL0     H 4614   6.059  11.063   6.319 -2.1820 -0.5404  2.4567
  775MOL0     H 4615   6.170  11.002   6.598  0.4404 -2.5512  0.0039
  775MOL0     H 4616   6.019  10.920   6.529  0.7964 -0.5271 -0.6195
  775MOL0     H 4617   5.921  11.143   6.497 -1.4653  1.0209  0.7432
  775MOL0     H 4618   6.059  11.232   6.566 -1.2654  1.1532 -0.3235
  775MOL0     H 4619   5.883  11.040   6.716  3.5752 -2.3162 -0.6578
  775MOL0     H 4620   6.037  11.103   6.784  1.0391 -0.2633 -1.4140
  775MOL0     H 4621   5.791  11.428   6.877  2.7683  0.9580  1.1665
  775MOL0     H 4622   6.427  11.305   6.341  2.2730  0.3555 -0.4503
  775MOL0     H 4623   6.651  11.394   6.302 -0.7442  0.3458 -1.1335
  775MOL0     H 4624   6.763  11.294   6.399  0.6586 -0.2847 -0.3938
  775MOL0     H 4625   6.756  11.269   6.229  0.5781 -1.5265  1.1686
  776MOL0     O 4626   4.349   6.476   9.628 -0.4770 -0.1159  0.4220
  776MOL0     C 4627   4.430   6.388   9.609 -0.0330  0.9336  0.1274
  776MOL0     O 4628   4.406   6.253   9.626 -0.0403  0.8671  0.1903
  776MOL0     C 4629   4.271   6.221   9.658 -0.0566 -0.1889 -0.6746
  776MOL0     C 4630   4.170   6.218   9.567 -0.7622  0.1344  1.1571
  776MOL0     C 4631   4.037   6.197   9.606  0.6402  0.5137 -0.2458
  776MOL0     C 4632   4.019   6.157   9.744  0.4963 -0.1331  0.8635
  776MOL0     O 4633   3.896   6.138   9.800 -0.8686 -0.9557  0.2195
  776MOL0     C 4634   3.797   6.077   9.706 -0.6729  0.4900 -0.2599
  776MOL0     C 4635   3.705   5.981   9.784  0.1901 -0.2057  0.3241
  776MOL0     C 4636   3.617   6.048   9.893 -0.1690  0.0482  0.4680
  776MOL0     C 4637   3.536   5.944   9.961  0.3042  0.2836 -0.2474
  776MOL0     C 4638   3.479   5.985  10.091  0.0608  1.3571 -0.0435
  776MOL0     C 4639   3.372   6.089  10.080  0.8360  0.1161  0.5964
  776MOL0     C 4640   3.235   6.059  10.127  0.1163  0.7997  1.1142
  776MOL0     C 4641   3.169   5.966  10.026 -0.4285  0.0816 -0.0058
  776MOL0     N 4642   3.032   5.953  10.073 -0.5463 -0.5460 -0.0219
  776MOL0     C 4643   2.926   5.992   9.989 -0.0186 -0.6430  0.1803
  776MOL0     C 4644   2.814   5.962  10.059 -0.0527 -0.9144  1.0783
  776MOL0     C 4645   2.675   5.972  10.000  1.1167 -0.0388  0.3381
  776MOL0     C 4646   2.630   6.081   9.903 -0.9477 -0.0181  0.9337
  776MOL0     C 4647   2.656   6.223   9.953  0.8863 -1.1157 -0.4366
  776MOL0     C 4648   2.789   6.284   9.966 -0.5516  1.0837  0.2345
  776MOL0     O 4649   2.842   6.289   9.835 -0.3127 -0.3380  0.0524
  776MOL0     C 4650   2.975   6.325   9.826  0.4514 -1.0944  0.0030
  776MOL0     C 4651   3.065   6.365   9.930  0.5339 -0.3370  0.3995
  776MOL0     C 4652   3.201   6.400   9.893 -0.2190  0.8390  0.4756
  776MOL0     C 4653   3.246   6.389   9.765  0.2424  0.6243  0.7692
  776MOL0     C 4654   3.386   6.426   9.734  0.0099  0.0628  0.3054
  776MOL0     O 4655   3.431   6.419   9.602  0.2078  0.5193 -0.1420
  776MOL0     C 4656   3.564   6.434   9.569  0.1656 -0.2521  0.2907
  776MOL0     C 4657   3.588   6.461   9.430 -0.1001  0.8380 -0.5080
  776MOL0     C 4658   3.723   6.496   9.391  0.1365 -0.8722  0.5961
  776MOL0     C 4659   3.832   6.478   9.472 -0.5688 -0.7555 -0.1729
  776MOL0     O 4660   3.965   6.485   9.438  0.0898  0.0018  0.1009
  776MOL0     C 4661   3.995   6.606   9.375 -0.4010  0.5484  0.6632
  776MOL0     C 4662   4.126   6.573   9.292 -0.0328 -0.3346 -0.9612
  776MOL0     C 4663   4.183   6.703   9.233 -0.2601 -0.2066  0.5957
  776MOL0     C 4664   4.290   6.663   9.131 -0.3830 -0.6800 -1.0134
  776MOL0     C 4665   4.244   6.693   8.983  0.2197 -0.8203  0.2192
  776MOL0     C 4666   4.245   6.844   8.946  0.7581 -0.3182 -0.7740
  776MOL0     C 4667   4.373   6.877   8.887 -0.7768  0.4619 -0.1464
  776MOL0     C 4668   4.393   7.005   8.824 -0.1671 -1.6721 -0.1966
  776MOL0    Cl 4669   4.319   7.032   8.664  0.0626 -0.4039 -0.2555
  776MOL0     C 4670   3.801   6.444   9.606 -0.6308 -0.8056  0.5344
  776MOL0     C 4671   3.667   6.419   9.653 -0.3104 -0.2884  0.0764
  776MOL0     O 4672   3.451   6.478   9.829 -0.0600  0.2278 -0.0831
  776MOL0     C 4673   3.164   6.342   9.663 -0.3626 -0.4954  0.5062
  776MOL0     C 4674   3.034   6.319   9.698 -0.1185  0.4434  0.9014
  776MOL0     N 4675   2.856   5.911  10.181 -0.1201  0.1937  0.1150
  776MOL0     N 4676   2.988   5.897  10.190  0.5609  0.4856 -0.1549
  776MOL0     C 4677   4.116   6.175   9.841  0.2480 -0.2698  0.9427
  776MOL0     C 4678   4.246   6.192   9.795 -0.3524  0.4213 -0.5735
  776MOL0     C 4679   4.570   6.432   9.591 -1.1117 -0.0231 -0.6359
  776MOL0     C 4680   4.668   6.361   9.661 -0.5649  0.1130  0.9414
  776MOL0     C 4681   4.798   6.402   9.640  0.0597  0.4148  0.5290
  776MOL0     C 4682   4.840   6.515   9.557  1.0161  0.1986 -0.4827
  776MOL0     O 4683   4.969   6.563   9.548  0.5619 -0.1033  0.1141
  776MOL0     C 4684   5.076   6.473   9.599  0.1921  0.0228  0.1214
  776MOL0     C 4685   5.198   6.559   9.601  0.3638  1.0828 -0.7087
  776MOL0     C 4686   5.332   6.503   9.654 -0.4310  0.4654 -0.4984
  776MOL0     C 4687   5.451   6.590   9.624 -0.2211 -0.5079  0.7385
  776MOL0     C 4688   5.575   6.511   9.650 -0.8390 -0.5853  0.4912
  776MOL0     C 4689   5.670   6.430   9.652 -0.4905  0.2872 -0.4555
  776MOL0     C 4690   4.737   6.588   9.495 -0.3557  0.4167  0.0626
  776MOL0     C 4691   4.603   6.542   9.510 -0.5742 -0.4428  0.1960
  776MOL0     C 4692   4.486   6.618   9.451 -0.0540  1.2538  0.4260
  776MOL0     H 4693   4.184   6.240   9.461 -2.7049 -4.5178 -0.3252
  776MOL0     H 4694   3.965   6.195   9.525  0.1990 -2.8150  0.0885
  776MOL0     H 4695   3.736   6.155   9.661  1.8304  4.4916  2.6523
  776MOL0     H 4696   3.859   6.018   9.638 -0.7379 -1.5640  1.3398
  776MOL0     H 4697   3.764   5.900   9.827 -1.2723 -1.4857  0.0067
  776MOL0     H 4698   3.638   5.937   9.709 -0.5190  2.2613 -0.5990
  776MOL0     H 4699   3.549   6.116   9.841  0.6633  0.9811  0.5836
  776MOL0     H 4700   3.672   6.109   9.965 -0.0230 -2.5222  2.6962
  776MOL0     H 4701   3.454   5.927   9.890  1.0325  1.7286 -1.4893
  776MOL0     H 4702   3.602   5.857   9.966 -0.4106 -0.3096 -0.8520
  776MOL0     H 4703   3.433   5.894  10.131  1.6937  0.1781 -0.7437
  776MOL0     H 4704   3.560   6.026  10.152 -0.1330  1.1008  0.3858
  776MOL0     H 4705   3.407   6.179  10.131 -0.9513  1.4530 -0.4245
  776MOL0     H 4706   3.358   6.122   9.977  1.2509 -0.8800  0.2027
  776MOL0     H 4707   3.184   6.156  10.122  1.3907  1.4570 -3.3933
  776MOL0     H 4708   3.230   6.015  10.227 -2.1365 -1.7099  0.0189
  776MOL0     H 4709   3.182   6.010   9.927  1.5373 -0.7866 -0.1756
  776MOL0     H 4710   3.226   5.873  10.024  3.8769  2.3754  1.7884
  776MOL0     H 4711   2.942   6.012   9.884  1.5448 -2.6535 -0.0262
  776MOL0     H 4712   2.654   5.877   9.950 -3.1208  0.9217 -0.0704
  776MOL0     H 4713   2.603   5.980  10.082  2.2914 -0.1739  1.4275
  776MOL0     H 4714   2.696   6.068   9.816 -0.8789  0.9896  0.8182
  776MOL0     H 4715   2.527   6.063   9.871 -0.4476 -1.1656 -0.1253
  776MOL0     H 4716   2.613   6.238  10.053  1.4148  2.7276 -0.6350
  776MOL0     H 4717   2.604   6.299   9.893  1.9019  1.2403  1.4982
  776MOL0     H 4718   2.846   6.226  10.040  0.6257 -1.3905 -2.4301
  776MOL0     H 4719   2.780   6.384  10.010  1.8058  0.7014  1.7937
  776MOL0     H 4720   3.024   6.383  10.029 -3.9212  1.3288 -1.4616
  776MOL0     H 4721   3.265   6.433   9.974  0.0356  0.5254  0.4017
  776MOL0     H 4722   3.498   6.469   9.370  0.1401  0.8240 -0.8699
  776MOL0     H 4723   3.729   6.536   9.290 -0.0432  0.9194  1.2608
  776MOL0     H 4724   3.913   6.652   9.319 -0.1247  3.6266  2.5935
  776MOL0     H 4725   4.009   6.683   9.451  0.4335  0.8954  0.1723
  776MOL0     H 4726   4.198   6.531   9.362 -0.5688  3.0235  1.8953
  776MOL0     H 4727   4.090   6.501   9.218  1.1515 -1.2381 -0.6750
  776MOL0     H 4728   4.101   6.764   9.194 -0.7805  0.5035  2.6334
  776MOL0     H 4729   4.230   6.762   9.312 -1.3998 -0.7807  1.7441
  776MOL0     H 4730   4.310   6.556   9.138  2.6418 -0.3985 -3.1291
  776MOL0     H 4731   4.390   6.707   9.143 -0.3212 -1.1059  0.2871
  776MOL0     H 4732   4.144   6.650   8.982  0.2952 -1.0212  0.7348
  776MOL0     H 4733   4.314   6.644   8.915 -1.4305 -4.0402  0.6721
  776MOL0     H 4734   4.169   6.865   8.871  0.5036  0.6349 -0.2609
  776MOL0     H 4735   4.218   6.895   9.039 -2.0283 -0.1154 -1.6248
  776MOL0     H 4736   4.397   6.814   8.801  0.5645  2.0383 -0.9879
  776MOL0     H 4737   4.441   6.849   8.969 -1.4405  0.0414  0.2712
  776MOL0     H 4738   4.348   7.081   8.889  1.5473 -1.1534  0.4452
  776MOL0     H 4739   4.498   7.033   8.829  0.0871 -2.6649  0.3980
  776MOL0     H 4740   3.879   6.410   9.673 -1.4281 -2.8870  0.4884
  776MOL0     H 4741   3.654   6.400   9.759 -1.1708 -0.6981 -0.0922
  776MOL0     H 4742   3.191   6.346   9.558  0.6990 -0.0120  0.7826
  776MOL0     H 4743   2.966   6.286   9.620  0.2409 -0.9402  1.1449
  776MOL0     H 4744   4.100   6.169   9.948 -1.2425  0.9996  0.8261
  776MOL0     H 4745   4.328   6.211   9.863  0.8897  0.7688 -2.1067
  776MOL0     H 4746   4.645   6.283   9.733  0.3037  0.9682  2.1716
  776MOL0     H 4747   4.872   6.346   9.696  1.7241  0.6459 -1.3464
  776MOL0     H 4748   5.104   6.397   9.526  0.4469  0.6654 -0.4565
  776MOL0     H 4749   5.065   6.420   9.695  0.1363  0.8679  0.5907
  776MOL0     H 4750   5.171   6.645   9.663 -0.5808  1.0603 -1.0766
  776MOL0     H 4751   5.211   6.605   9.503  1.2156  1.3371 -0.4943
  776MOL0     H 4752   5.355   6.403   9.616  0.9841  0.9144 -0.8842
  776MOL0     H 4753   5.324   6.488   9.762 -2.2309 -1.0091 -0.7869
  776MOL0     H 4754   5.452   6.635   9.524  0.1235 -2.3265 -0.1048
  776MOL0     H 4755   5.453   6.676   9.691  0.3921 -0.0762  0.1881
  776MOL0     H 4756   5.755   6.368   9.637 -1.1736 -0.9876  0.7406
  776MOL0     H 4757   4.761   6.679   9.442  0.7524 -0.6264 -1.3388
  776MOL0     H 4758   4.520   6.687   9.373  1.1814  0.0414 -0.1648
  776MOL0     H 4759   4.407   6.550   9.419 -1.7443  2.5629  1.6830
  776MOL0     H 4760   4.438   6.679   9.528  1.8958 -0.4727  3.2185
  777MOL0     O 4761   4.270   4.016   1.771  0.0523 -0.0865 -0.8950
  777MOL0     C 4762   4.264   4.128   1.827 -0.5150  0.3988  0.3676
  777MOL0     O 4763   4.357   4.230   1.811 -0.8095 -0.1615  0.5165
  777MOL0     C 4764   4.479   4.193   1.752 -0.0361 -0.8000  0.2128
  777MOL0     C 4765   4.504   4.262   1.632 -0.1240  0.0663  0.2425
  777MOL0     C 4766   4.633   4.256   1.573 -0.0486 -0.3122  0.2094
  777MOL0     C 4767   4.730   4.176   1.639  0.3660  0.5652  0.0292
  777MOL0     O 4768   4.856   4.189   1.580 -0.3481  0.8005 -1.0861
  777MOL0     C 4769   4.963   4.106   1.643 -0.7142 -0.2080  0.6935
  777MOL0     C 4770   5.111   4.122   1.596  0.0861 -0.2169 -0.4108
  777MOL0     C 4771   5.134   4.050   1.466 -0.0808 -0.1876 -0.9459
  777MOL0     C 4772   5.280   4.060   1.428  0.2958  0.7206 -0.3081
  777MOL0     C 4773   5.288   3.993   1.287  0.5398 -0.1531 -0.9985
  777MOL0     C 4774   5.405   4.050   1.202  0.1150 -0.7223  1.2046
  777MOL0     C 4775   5.546   4.048   1.263 -0.4527 -0.2586  0.6071
  777MOL0     C 4776   5.653   4.113   1.167 -0.0381  0.3236 -0.0730
  777MOL0     N 4777   5.637   4.258   1.161 -0.5627 -0.1363  0.3928
  777MOL0     C 4778   5.580   4.341   1.063  0.5589  0.5500  0.3332
  777MOL0     C 4779   5.571   4.467   1.114 -0.6603  0.5526  0.7529
  777MOL0     C 4780   5.537   4.598   1.054 -1.7103 -0.1798 -0.1119
  777MOL0     C 4781   5.640   4.639   0.953  0.1161 -0.9759  0.0941
  777MOL0     C 4782   5.612   4.587   0.807  0.3740 -0.0146 -0.3571
  777MOL0     C 4783   5.466   4.586   0.760  1.3464  0.4395  0.5979
  777MOL0     O 4784   5.404   4.468   0.816  0.7383 -0.6012 -0.6503
  777MOL0     C 4785   5.268   4.454   0.810  0.2554  0.2624  0.1634
  777MOL0     C 4786   5.185   4.548   0.735 -0.2569  0.4180 -0.7448
  777MOL0     C 4787   5.049   4.507   0.700  0.8097  0.4551 -0.3816
  777MOL0     C 4788   5.000   4.370   0.733 -0.1261  0.7728 -1.1160
  777MOL0     C 4789   4.866   4.317   0.706  1.2738 -0.1244 -0.5939
  777MOL0     O 4790   4.780   4.404   0.653 -0.0351 -0.1860  0.2468
  777MOL0     C 4791   4.641   4.374   0.641 -0.3358  0.5833 -0.5107
  777MOL0     C 4792   4.556   4.442   0.723 -0.3494  0.4401  0.2066
  777MOL0     C 4793   4.420   4.422   0.723  0.2033 -0.0308  0.5696
  777MOL0     C 4794   4.361   4.334   0.635  0.1005  0.4238  0.1700
  777MOL0     O 4795   4.230   4.307   0.664 -0.3420  0.3317  0.1202
  777MOL0     C 4796   4.194   4.175   0.696  0.3568  0.0880  0.1020
  777MOL0     C 4797   4.041   4.184   0.712  0.1723 -0.5916 -0.3714
  777MOL0     C 4798   3.977   4.047   0.747 -0.1803  0.0719 -0.1355
  777MOL0     C 4799   3.833   4.043   0.700 -0.4419  0.7248  1.4503
  777MOL0     C 4800   3.788   3.895   0.704 -0.0411 -0.0245 -0.5373
  777MOL0     C 4801   3.852   3.807   0.588 -0.7676 -0.2146 -0.0874
  777MOL0     C 4802   3.761   3.699   0.542  1.3197 -0.1508  0.5464
  777MOL0     C 4803   3.829   3.647   0.414  0.1600 -0.3202 -0.0010
  777MOL0    Cl 4804   3.770   3.727   0.265 -0.0936 -0.0980 -0.2864
  777MOL0     C 4805   4.442   4.256   0.552 -0.1137 -0.1739  0.9174
  777MOL0     C 4806   4.588   4.285   0.549 -0.1556  0.1699  0.8642
  777MOL0     O 4807   4.835   4.200   0.731 -0.1168  0.1387 -0.0127
  777MOL0     C 4808   5.081   4.302   0.816 -0.2313 -0.0688  0.9117
  777MOL0     C 4809   5.209   4.337   0.864  0.2482 -0.2955  0.0196
  777MOL0     N 4810   5.626   4.466   1.242 -0.0001 -0.2302 -0.0531
  777MOL0     N 4811   5.662   4.343   1.269 -0.2450 -0.7948 -0.2605
  777MOL0     C 4812   4.695   4.099   1.750 -0.1462 -0.2796 -0.2332
  777MOL0     C 4813   4.574   4.113   1.812 -0.7460  1.2666 -0.1878
  777MOL0     C 4814   4.146   4.147   1.911 -0.2720  1.1685 -0.0498
  777MOL0     C 4815   4.088   4.036   1.980 -0.0759 -0.1174 -0.2336
  777MOL0     C 4816   3.970   4.044   2.050  0.2672 -0.1629  0.0596
  777MOL0     C 4817   3.904   4.167   2.054 -0.7657  0.1127  0.0430
  777MOL0     O 4818   3.783   4.161   2.120  0.2376 -0.1388  0.2996
  777MOL0     C 4819   3.688   4.262   2.082 -0.2037 -0.0763 -0.1503
  777MOL0     C 4820   3.547   4.194   2.037 -1.2405 -0.4366 -0.1575
  777MOL0     C 4821   3.553   4.036   2.053  1.0801  0.3291 -0.6466
  777MOL0     C 4822   3.411   3.979   2.029 -0.3513  0.4815  0.6468
  777MOL0     C 4823   3.313   4.011   2.134  0.1248  0.6452  0.1874
  777MOL0     C 4824   3.221   4.024   2.212 -0.6615  0.5580 -0.1265
  777MOL0     C 4825   3.973   4.281   2.015 -1.1474 -0.1800 -0.4986
  777MOL0     C 4826   4.082   4.276   1.925 -0.8619  0.3330 -0.2300
  777MOL0     C 4827   4.111   4.397   1.861  0.4225  0.4503 -0.2328
  777MOL0     H 4828   4.424   4.327   1.597 -1.6187 -1.4281  0.7427
  777MOL0     H 4829   4.663   4.326   1.496  0.6925 -2.6883 -1.7983
  777MOL0     H 4830   4.973   4.136   1.748  0.5231 -0.3859  0.6451
  777MOL0     H 4831   4.933   4.001   1.634  1.8255 -0.8566 -2.1429
  777MOL0     H 4832   5.175   4.071   1.668  0.3809  1.2763  0.4335
  777MOL0     H 4833   5.127   4.230   1.594  0.1170  0.4704  6.9545
  777MOL0     H 4834   5.068   4.097   1.393  0.4268  1.7151 -0.2237
  777MOL0     H 4835   5.105   3.946   1.487  1.0154  0.2841  4.3224
  777MOL0     H 4836   5.305   4.166   1.417 -0.1985  0.7745 -0.9539
  777MOL0     H 4837   5.351   4.020   1.501 -0.4183  3.3046  1.9766
  777MOL0     H 4838   5.314   3.890   1.313  1.6432  0.6772  1.5078
  777MOL0     H 4839   5.193   3.995   1.233  0.0427 -1.0086 -0.1864
  777MOL0     H 4840   5.418   3.986   1.114  2.2892  0.3959  0.6542
  777MOL0     H 4841   5.385   4.152   1.167  0.4664 -1.0464  0.0056
  777MOL0     H 4842   5.575   3.946   1.291  5.1297  0.0822 -2.4610
  777MOL0     H 4843   5.550   4.099   1.360  0.6077  1.6197 -0.3843
  777MOL0     H 4844   5.754   4.087   1.202  0.3193  2.1791  0.3732
  777MOL0     H 4845   5.636   4.077   1.065  0.1185 -0.3139  0.1186
  777MOL0     H 4846   5.552   4.300   0.966  3.1843 -0.3027 -0.1421
  777MOL0     H 4847   5.434   4.620   1.023 -1.7964 -0.4079  0.0123
  777MOL0     H 4848   5.554   4.665   1.139 -0.1154  0.1550 -0.6760
  777MOL0     H 4849   5.652   4.748   0.950 -0.7228 -0.8813 -0.0381
  777MOL0     H 4850   5.737   4.599   0.985  1.5025  2.1172  0.1223
  777MOL0     H 4851   5.649   4.485   0.805  3.5935  0.9771  1.4104
  777MOL0     H 4852   5.677   4.650   0.746  1.1002  0.3066  0.7235
  777MOL0     H 4853   5.467   4.575   0.651 -1.2079  0.6973  0.4762
  777MOL0     H 4854   5.422   4.681   0.791  2.5514  0.5984  1.8853
  777MOL0     H 4855   5.234   4.641   0.710  2.4775 -0.7314 -0.0868
  777MOL0     H 4856   4.983   4.574   0.645  0.9905  1.0521  0.1083
  777MOL0     H 4857   4.609   4.515   0.784  1.6336  1.0338 -2.0568
  777MOL0     H 4858   4.355   4.471   0.794 -3.4992 -3.9099  0.3113
  777MOL0     H 4859   4.220   4.111   0.611 -2.2879  1.0215 -1.5410
  777MOL0     H 4860   4.246   4.140   0.785 -2.7262 -0.9235  1.6711
  777MOL0     H 4861   4.015   4.246   0.798  0.4945 -1.6911  0.5458
  777MOL0     H 4862   3.995   4.225   0.622 -1.8222 -2.6689 -0.3810
  777MOL0     H 4863   4.045   3.977   0.699  0.9675  2.3612 -2.0467
  777MOL0     H 4864   3.987   4.027   0.854 -0.6932 -0.8853 -0.2549
  777MOL0     H 4865   3.814   4.072   0.596  1.0650 -3.1273 -0.0669
  777MOL0     H 4866   3.766   4.112   0.753 -0.3717  2.3413 -0.4505
  777MOL0     H 4867   3.680   3.890   0.690 -0.0646  0.4207 -0.5168
  777MOL0     H 4868   3.808   3.846   0.800  0.3536  0.4658 -0.3632
  777MOL0     H 4869   3.875   3.876   0.506 -2.2673 -2.4812 -2.5823
  777MOL0     H 4870   3.942   3.760   0.628 -0.9461  1.8685  3.2541
  777MOL0     H 4871   3.661   3.735   0.517  1.7274 -0.2821 -1.5030
  777MOL0     H 4872   3.746   3.620   0.616  0.0659  1.3419  1.9857
  777MOL0     H 4873   3.938   3.649   0.412  0.1736  0.8767 -2.9180
  777MOL0     H 4874   3.803   3.541   0.425 -0.4697 -0.0540  1.3318
  777MOL0     H 4875   4.392   4.181   0.492  1.6979 -1.4877  0.9649
  777MOL0     H 4876   4.644   4.236   0.471 -0.6578 -0.3635  0.8256
  777MOL0     H 4877   5.041   4.209   0.856 -1.6555  1.1411  2.4557
  777MOL0     H 4878   5.263   4.273   0.934  1.2944  0.6652  0.1251
  777MOL0     H 4879   4.770   4.037   1.798  2.2189  0.9043 -2.1969
  777MOL0     H 4880   4.550   4.067   1.907  1.4775  1.4497  0.5131
  777MOL0     H 4881   4.138   3.939   1.972 -1.3699 -1.4393  4.4686
  777MOL0     H 4882   3.925   3.957   2.096 -1.0750  0.6710  0.3910
  777MOL0     H 4883   3.730   4.319   1.998 -0.6758  1.7537  0.8051
  777MOL0     H 4884   3.659   4.330   2.162 -0.8404 -0.2548 -0.2257
  777MOL0     H 4885   3.523   4.219   1.933  2.4856 -0.1839 -1.0904
  777MOL0     H 4886   3.459   4.232   2.090 -1.5703 -1.3052 -0.0640
  777MOL0     H 4887   3.587   4.007   2.153  0.6180  2.3731  0.1485
  777MOL0     H 4888   3.620   3.999   1.975 -0.6638  1.0010 -2.5178
  777MOL0     H 4889   3.363   4.014   1.937 -2.9967  0.4003  1.9100
  777MOL0     H 4890   3.423   3.871   2.017  5.5719  0.8904 -0.2211
  777MOL0     H 4891   3.145   4.029   2.287 -2.3111  0.1639 -1.7301
  777MOL0     H 4892   3.919   4.373   2.035 -1.0363 -0.4207  1.0741
  777MOL0     H 4893   4.199   4.432   1.916 -1.4776  2.0978  1.9693
  777MOL0     H 4894   4.146   4.377   1.760 -0.6176  0.8749 -0.6896
  777MOL0     H 4895   4.030   4.470   1.859  2.1600  2.7542  2.8402
  778MOL0     O 4896   6.910   6.214   4.339  0.3697  0.3316  0.3310
  778MOL0     C 4897   6.809   6.270   4.296 -0.0509  0.4244 -0.2737
  778MOL0     O 4898   6.811   6.369   4.206 -0.5741  0.0307  0.1447
  778MOL0     C 4899   6.934   6.424   4.172  0.2646 -0.7710 -0.0188
  778MOL0     C 4900   7.028   6.350   4.103  0.0235 -0.1322  0.0133
  778MOL0     C 4901   7.144   6.407   4.051 -0.1642  0.6672  0.5647
  778MOL0     C 4902   7.164   6.546   4.074  0.8823  0.1593  0.0075
  778MOL0     O 4903   7.258   6.625   4.017 -0.0490 -0.5797  0.9029
  778MOL0     C 4904   7.377   6.570   3.983  0.2229  0.3374  0.2088
  778MOL0     C 4905   7.456   6.687   3.927 -0.8578 -0.1532  0.3116
  778MOL0     C 4906   7.597   6.647   3.888 -0.0243  0.6745 -0.4478
  778MOL0     C 4907   7.698   6.649   3.999 -0.1572  0.1056 -0.0029
  778MOL0     C 4908   7.709   6.523   4.087 -0.1210  0.0608 -0.2508
  778MOL0     C 4909   7.835   6.521   4.176  0.4634  0.6555 -0.8309
  778MOL0     C 4910   7.861   6.385   4.245  0.1474 -0.4835  0.2706
  778MOL0     C 4911   7.981   6.369   4.328 -1.2817  0.6499  0.0981
  778MOL0     N 4912   8.105   6.399   4.258  0.1247 -0.5594 -0.0814
  778MOL0     C 4913   8.144   6.353   4.131 -0.1771  0.5087 -0.8623
  778MOL0     C 4914   8.230   6.448   4.089 -0.4253  0.2308  0.9051
  778MOL0     C 4915   8.297   6.448   3.957  0.5129 -0.5807 -0.3471
  778MOL0     C 4916   8.437   6.492   3.978  0.2087 -0.2230 -0.1212
  778MOL0     C 4917   8.525   6.407   4.072 -0.2642 -0.6851  0.2682
  778MOL0     C 4918   8.669   6.437   4.033  0.0105 -0.9126 -0.1837
  778MOL0     O 4919   8.745   6.351   4.121 -0.9324  0.1017  0.0235
  778MOL0     C 4920   8.862   6.310   4.059 -0.2216  0.2070  0.0268
  778MOL0     C 4921   8.973   6.385   4.081 -0.2425  0.3166 -0.3153
  778MOL0     C 4922   9.102   6.342   4.032  0.6290 -0.2898 -1.0030
  778MOL0     C 4923   9.116   6.219   3.962 -0.9007 -0.1657 -1.2323
  778MOL0     C 4924   9.252   6.183   3.921  0.4761 -0.5752  0.9111
  778MOL0     O 4925   9.349   6.281   3.906 -0.8397  0.0017 -0.0051
  778MOL0     C 4926   9.467   6.246   3.840 -0.5611 -0.3072 -0.0457
  778MOL0     C 4927   9.496   6.308   3.722  0.6308 -0.2777 -0.5747
  778MOL0     C 4928   9.628   6.309   3.671 -1.6248  1.0876 -0.8717
  778MOL0     C 4929   9.738   6.261   3.740  0.1109 -0.6350 -0.4913
  778MOL0     O 4930   9.864   6.274   3.683 -0.1324  0.3564 -0.1835
  778MOL0     C 4931   9.979   6.273   3.776 -0.3511  0.1655  0.1500
  778MOL0     C 4932  10.104   6.291   3.701 -0.2215  0.1328 -0.2965
  778MOL0     C 4933  10.232   6.304   3.791 -0.1803 -0.1030  0.4016
  778MOL0     C 4934  10.349   6.340   3.698 -0.4382 -0.5208  0.4450
  778MOL0     C 4935  10.482   6.376   3.774 -0.3019  0.8818  0.2337
  778MOL0     C 4936  10.607   6.344   3.692  0.1858 -0.2089 -0.2467
  778MOL0     C 4937  10.734   6.379   3.763 -0.2846 -0.3892  0.2777
  778MOL0     C 4938  10.770   6.290   3.882  0.2422  0.1238 -0.9980
  778MOL0    Cl 4939  10.938   6.309   3.939  0.1362  0.4964 -0.0098
  778MOL0     C 4940   9.709   6.195   3.863 -0.2413  0.8340  1.1236
  778MOL0     C 4941   9.576   6.197   3.912  0.0245 -0.1444  0.6619
  778MOL0     O 4942   9.260   6.070   3.880  0.9625 -0.1837 -0.6151
  778MOL0     C 4943   9.000   6.149   3.949 -0.4716  0.1944 -0.4140
  778MOL0     C 4944   8.868   6.190   3.993 -0.0791 -0.2631  0.3698
  778MOL0     N 4945   8.236   6.548   4.187 -0.2662 -0.2374  0.1291
  778MOL0     N 4946   8.165   6.517   4.287 -0.8436 -0.0490  0.1713
  778MOL0     C 4947   7.071   6.619   4.147 -0.9525 -0.4891  0.1055
  778MOL0     C 4948   6.952   6.561   4.201  0.8749  0.8690 -0.0288
  778MOL0     C 4949   6.681   6.215   4.334  0.4451 -0.2494 -0.8075
  778MOL0     C 4950   6.660   6.160   4.457 -0.1780 -0.1333  0.6657
  778MOL0     C 4951   6.534   6.110   4.495  0.3556  0.1724  0.4589
  778MOL0     C 4952   6.427   6.112   4.405  0.0746  1.1026  0.5365
  778MOL0     O 4953   6.304   6.045   4.432  0.0532 -0.3330 -0.0921
  778MOL0     C 4954   6.292   5.973   4.548  0.1672 -0.5683 -0.2707
  778MOL0     C 4955   6.162   5.904   4.546  0.1401 -0.9507  0.3883
  778MOL0     C 4956   6.141   5.810   4.430  0.0410  0.4080 -0.7243
  778MOL0     C 4957   6.230   5.680   4.431  0.1841 -0.1173 -0.0311
  778MOL0     C 4958   6.228   5.599   4.555 -0.7169  0.7280 -0.2862
  778MOL0     C 4959   6.218   5.513   4.643 -0.3041 -0.8317  0.4690
  778MOL0     C 4960   6.444   6.169   4.279 -0.1598 -0.5857  0.5345
  778MOL0     C 4961   6.569   6.226   4.245 -0.0778  0.4803 -0.0542
  778MOL0     C 4962   6.588   6.248   4.097 -0.5740 -0.6909 -0.3788
  778MOL0     H 4963   7.007   6.244   4.099  0.1049 -0.1328 -0.6516
  778MOL0     H 4964   7.202   6.334   3.996 -3.5423 -2.2064  0.4244
  778MOL0     H 4965   7.430   6.521   4.066  0.6321 -0.2229 -0.3759
  778MOL0     H 4966   7.376   6.496   3.903  1.4376 -1.1749  1.5203
  778MOL0     H 4967   7.450   6.766   4.003  2.1759 -0.2767  0.8048
  778MOL0     H 4968   7.402   6.720   3.838 -1.5000  0.0296  0.7568
  778MOL0     H 4969   7.636   6.724   3.821  1.7062  0.2510  0.0123
  778MOL0     H 4970   7.595   6.549   3.839 -0.7759  0.5889 -0.2515
  778MOL0     H 4971   7.791   6.676   3.949 -0.2377  0.9852  0.3135
  778MOL0     H 4972   7.675   6.733   4.064  2.0264 -0.9260  2.2440
  778MOL0     H 4973   7.621   6.525   4.152  0.4263 -0.7495  0.5228
  778MOL0     H 4974   7.715   6.429   4.031 -0.3490  0.7854 -1.5517
  778MOL0     H 4975   7.915   6.529   4.101 -2.4326 -0.8496 -4.4113
  778MOL0     H 4976   7.838   6.603   4.248 -0.2730 -0.2367  0.2488
  778MOL0     H 4977   7.861   6.301   4.175  1.2856  0.8941 -1.5045
  778MOL0     H 4978   7.777   6.384   4.315 -2.5338  0.4928 -2.6638
  778MOL0     H 4979   7.973   6.440   4.410  2.3331  4.5231 -2.4806
  778MOL0     H 4980   7.989   6.272   4.378  1.1038  1.4884  1.4783
  778MOL0     H 4981   8.109   6.266   4.077  0.1414 -0.4313  0.3947
  778MOL0     H 4982   8.311   6.351   3.911  0.5142 -1.0550  0.6226
  778MOL0     H 4983   8.253   6.527   3.894  1.1847  1.4895  1.6206
  778MOL0     H 4984   8.483   6.494   3.879 -0.6099  1.8625 -0.4996
  778MOL0     H 4985   8.432   6.593   4.020 -2.7757 -1.9554  4.4863
  778MOL0     H 4986   8.507   6.306   4.035 -0.1237 -0.3752 -0.6751
  778MOL0     H 4987   8.510   6.412   4.180  0.3018 -3.8971  0.5757
  778MOL0     H 4988   8.688   6.544   4.041 -1.3632 -0.6031 -0.7859
  778MOL0     H 4989   8.680   6.411   3.927 -3.0121 -2.5093 -0.2106
  778MOL0     H 4990   8.975   6.471   4.147  0.4801 -0.1232  0.2510
  778MOL0     H 4991   9.187   6.402   4.063 -0.8033  0.1051  2.5987
  778MOL0     H 4992   9.413   6.356   3.670  0.4336 -0.5318 -0.4979
  778MOL0     H 4993   9.656   6.367   3.584  1.1767  0.3614 -0.5590
  778MOL0     H 4994   9.965   6.350   3.852  2.4265 -1.0498  2.0470
  778MOL0     H 4995   9.989   6.177   3.827 -0.3652 -0.9727 -1.8718
  778MOL0     H 4996  10.117   6.215   3.624  0.5751  1.5254 -1.5884
  778MOL0     H 4997  10.095   6.387   3.650  2.9046  1.6798  1.7652
  778MOL0     H 4998  10.221   6.385   3.864 -4.2996 -1.1935  1.2748
  778MOL0     H 4999  10.256   6.215   3.849 -1.8536  0.1855  1.5923
  778MOL0     H 5000  10.326   6.423   3.631 -0.3405 -0.5605  0.3599
  778MOL0     H 5001  10.358   6.254   3.632 -0.9245 -0.2644  0.0393
  778MOL0     H 5002  10.477   6.322   3.869  1.1934 -0.1442 -0.2334
  778MOL0     H 5003  10.479   6.476   3.817  2.2811  0.7607  0.8337
  778MOL0     H 5004  10.602   6.244   3.648  0.5681 -0.5157  0.3935
  778MOL0     H 5005  10.596   6.413   3.609  1.4329  0.8761  0.4635
  778MOL0     H 5006  10.720   6.478   3.807 -0.9125 -0.4106  0.1500
  778MOL0     H 5007  10.811   6.378   3.685  0.9489 -0.5517  1.4817
  778MOL0     H 5008  10.700   6.304   3.965  1.3677  0.3064 -0.0600
  778MOL0     H 5009  10.743   6.185   3.872 -1.2384  0.3477  0.1125
  778MOL0     H 5010   9.788   6.154   3.926  0.0280 -1.6913 -0.6820
  778MOL0     H 5011   9.563   6.162   4.014 -1.8922  0.7248  0.7489
  778MOL0     H 5012   9.012   6.057   3.894  0.1968 -0.1034  0.2093
  778MOL0     H 5013   8.773   6.140   3.981 -1.1862  2.0533 -1.5920
  778MOL0     H 5014   7.095   6.723   4.169 -4.6090  0.3215  0.7884
  778MOL0     H 5015   6.874   6.605   4.262  0.7121  0.4191  0.0854
  778MOL0     H 5016   6.738   6.155   4.533  0.4142  4.5338  0.6892
  778MOL0     H 5017   6.527   6.065   4.594  2.8040 -0.5055  0.3954
  778MOL0     H 5018   6.297   6.032   4.640  2.1910 -0.2605 -0.5376
  778MOL0     H 5019   6.370   5.899   4.567  0.4870  0.7228  5.0975
  778MOL0     H 5020   6.082   5.977   4.529 -0.7141 -2.2626 -1.6234
  778MOL0     H 5021   6.137   5.854   4.640  0.0358 -1.4526  0.0920
  778MOL0     H 5022   6.138   5.863   4.334  0.7216  3.2671  0.7263
  778MOL0     H 5023   6.042   5.772   4.459 -0.0194  1.7628  1.0295
  778MOL0     H 5024   6.216   5.616   4.344 -0.3163 -0.9159  0.6218
  778MOL0     H 5025   6.334   5.712   4.419  0.6426 -1.6873 -0.5470
  778MOL0     H 5026   6.212   5.442   4.722  2.0984  0.2292  1.6960
  778MOL0     H 5027   6.357   6.173   4.215  1.4941  0.6929 -1.7694
  778MOL0     H 5028   6.692   6.231   4.067 -0.1498  2.4926 -1.0479
  778MOL0     H 5029   6.523   6.178   4.043  2.0164 -1.2932 -2.9957
  778MOL0     H 5030   6.565   6.352   4.073 -2.9009 -1.0552  0.0262
  779MOL0     O 5031   1.795   8.447   3.838 -0.5754  0.8871  0.2490
  779MOL0     C 5032   1.779   8.440   3.955  0.5125  0.5118 -0.3661
  779MOL0     O 5033   1.867   8.464   4.050 -0.1355  0.3397 -1.3078
  779MOL0     C 5034   1.996   8.504   4.031  0.1948  0.4941 -0.1699
  779MOL0     C 5035   2.069   8.446   3.932  0.3170  0.8073  0.7554
  779MOL0     C 5036   2.209   8.473   3.926  1.3180 -0.1637  1.1303
  779MOL0     C 5037   2.262   8.560   4.010 -0.6929  0.2190 -0.5559
  779MOL0     O 5038   2.394   8.600   4.011 -0.7619 -0.1441 -0.3010
  779MOL0     C 5039   2.490   8.553   3.911  1.3278 -0.2742 -0.1735
  779MOL0     C 5040   2.606   8.648   3.904 -0.0826  0.0412  0.7094
  779MOL0     C 5041   2.718   8.586   3.827 -0.0690  0.3674 -0.4895
  779MOL0     C 5042   2.844   8.671   3.834  0.8565 -0.0604  0.2499
  779MOL0     C 5043   2.942   8.594   3.756 -0.6595 -0.0530  0.2366
  779MOL0     C 5044   3.072   8.684   3.722 -0.0342 -0.0754 -0.0111
  779MOL0     C 5045   3.159   8.641   3.598  0.2147 -0.9976 -0.0391
  779MOL0     C 5046   3.115   8.683   3.464 -0.0102  0.2189 -0.0708
  779MOL0     N 5047   3.193   8.609   3.371  0.1583 -0.0457  0.5056
  779MOL0     C 5048   3.189   8.477   3.326 -0.8945 -0.5556  0.1225
  779MOL0     C 5049   3.293   8.461   3.246  0.0262  0.4780  0.4240
  779MOL0     C 5050   3.300   8.351   3.148  0.8730  0.0600  0.3221
  779MOL0     C 5051   3.437   8.294   3.101 -0.8703 -0.6216 -0.2150
  779MOL0     C 5052   3.520   8.236   3.218  0.3053 -1.3548  0.1808
  779MOL0     C 5053   3.647   8.151   3.173 -0.5506 -0.5469 -0.2434
  779MOL0     O 5054   3.744   8.234   3.100 -0.1901  0.9214 -1.0902
  779MOL0     C 5055   3.870   8.185   3.089 -0.9016 -0.4088 -0.4762
  779MOL0     C 5056   3.976   8.278   3.090 -1.3856 -0.6542 -0.3319
  779MOL0     C 5057   4.109   8.229   3.070 -0.4842 -0.0535 -0.6366
  779MOL0     C 5058   4.126   8.093   3.043  0.3615 -0.0019 -0.7701
  779MOL0     C 5059   4.266   8.043   3.030 -0.8137 -0.6431  0.0193
  779MOL0     O 5060   4.367   8.132   3.010  0.0577  0.2361 -0.4469
  779MOL0     C 5061   4.500   8.097   3.021  1.1218 -1.1267 -0.0516
  779MOL0     C 5062   4.585   8.152   2.921 -0.0201  0.5899 -1.1345
  779MOL0     C 5063   4.729   8.126   2.922  0.0146 -0.4630  0.4168
  779MOL0     C 5064   4.775   8.024   3.012  0.4278 -0.2446  0.0108
  779MOL0     O 5065   4.901   7.969   2.989  0.6724  0.1432  0.2734
  779MOL0     C 5066   5.018   8.047   3.013  0.8179  0.2050 -0.0090
  779MOL0     C 5067   5.052   8.044   3.158 -0.5354  0.2126  0.1886
  779MOL0     C 5068   5.145   8.159   3.202  1.1923 -0.3105  0.1819
  779MOL0     C 5069   5.298   8.136   3.172  0.8239 -0.2316 -0.9676
  779MOL0     C 5070   5.371   8.271   3.166 -0.1316 -0.0279  0.5531
  779MOL0     C 5071   5.529   8.240   3.169 -0.3451 -0.2720 -0.6081
  779MOL0     C 5072   5.616   8.368   3.170 -0.5104  0.0928 -0.4841
  779MOL0     C 5073   5.763   8.329   3.188  0.0663 -0.0375  0.6605
  779MOL0    Cl 5074   5.863   8.459   3.129 -0.0932  0.3539 -0.0994
  779MOL0     C 5075   4.680   7.961   3.102 -0.1867  0.0607  0.3378
  779MOL0     C 5076   4.548   7.999   3.104 -0.0401  0.1077  0.0023
  779MOL0     O 5077   4.289   7.922   3.040  0.1721  0.4952 -0.2562
  779MOL0     C 5078   4.020   8.005   3.055 -1.1996 -0.1212 -0.1809
  779MOL0     C 5079   3.889   8.049   3.067  0.0161 -0.3933  0.5135
  779MOL0     N 5080   3.371   8.572   3.248  0.4785 -0.1059  0.2444
  779MOL0     N 5081   3.311   8.658   3.323  0.0699 -0.1202  0.7806
  779MOL0     C 5082   2.189   8.604   4.116 -0.0508  0.3038 -0.6698
  779MOL0     C 5083   2.055   8.579   4.130  0.1280  1.1055 -0.0644
  779MOL0     C 5084   1.639   8.427   4.004 -0.2824 -0.7613 -0.7843
  779MOL0     C 5085   1.546   8.363   3.914  0.7990 -0.4422 -0.6998
  779MOL0     C 5086   1.413   8.350   3.954 -0.9789 -0.5975 -0.0559
  779MOL0     C 5087   1.368   8.394   4.072 -0.2596  0.3274 -0.1692
  779MOL0     O 5088   1.242   8.381   4.107  0.1407  0.1336 -0.3318
  779MOL0     C 5089   1.150   8.464   4.040  0.7767  0.4387 -0.3072
  779MOL0     C 5090   1.029   8.489   4.133 -0.6151  0.2234 -0.0759
  779MOL0     C 5091   0.950   8.357   4.164 -0.1230 -0.2264  0.0470
  779MOL0     C 5092   0.811   8.389   4.228 -0.3567 -1.0584  0.3914
  779MOL0     C 5093   0.750   8.261   4.257  0.3077  0.5332  0.3951
  779MOL0     C 5094   0.725   8.143   4.285  0.2083  0.5401  0.7012
  779MOL0     C 5095   1.458   8.439   4.167  0.4620 -0.4146  0.5281
  779MOL0     C 5096   1.592   8.454   4.133  0.2198  0.4105 -0.5885
  779MOL0     C 5097   1.672   8.514   4.242  0.0696 -0.5824 -1.0666
  779MOL0     H 5098   2.032   8.375   3.858  1.8053  1.7642 -0.9875
  779MOL0     H 5099   2.258   8.429   3.840 -1.1801  2.4890 -1.9057
  779MOL0     H 5100   2.523   8.457   3.951 -2.1655  0.1908  4.5849
  779MOL0     H 5101   2.450   8.533   3.811  0.3583  0.8911 -0.0418
  779MOL0     H 5102   2.635   8.681   4.005 -3.0411  0.8760  1.4079
  779MOL0     H 5103   2.577   8.737   3.847  2.8745  0.3373 -0.4882
  779MOL0     H 5104   2.696   8.570   3.721  0.9742 -0.5329 -0.5955
  779MOL0     H 5105   2.744   8.490   3.874  0.4843  1.5034  1.6690
  779MOL0     H 5106   2.825   8.762   3.777  0.7013 -1.1198 -1.4817
  779MOL0     H 5107   2.881   8.691   3.935  0.3739 -0.8213  0.5889
  779MOL0     H 5108   2.972   8.502   3.806  0.6524 -0.8592 -1.8701
  779MOL0     H 5109   2.910   8.558   3.658 -0.2377 -0.2367  0.1615
  779MOL0     H 5110   3.049   8.791   3.720  3.4579  0.8597  1.3061
  779MOL0     H 5111   3.139   8.690   3.809 -0.7486 -0.9609  0.6091
  779MOL0     H 5112   3.154   8.532   3.592 -1.5040 -0.8827 -1.4376
  779MOL0     H 5113   3.262   8.673   3.618  0.1255 -1.2642  0.9350
  779MOL0     H 5114   3.012   8.647   3.459  0.5887 -2.0668  1.7872
  779MOL0     H 5115   3.126   8.792   3.462 -2.2178  0.4944  0.0178
  779MOL0     H 5116   3.103   8.411   3.329  0.5578 -2.6008 -0.8729
  779MOL0     H 5117   3.246   8.265   3.186 -1.5205  1.3482  0.0160
  779MOL0     H 5118   3.257   8.390   3.055  3.3272  0.4356 -0.7586
  779MOL0     H 5119   3.414   8.213   3.031 -0.6255 -2.2862  1.5583
  779MOL0     H 5120   3.496   8.376   3.060 -1.6351  2.4705  4.1538
  779MOL0     H 5121   3.447   8.185   3.280 -2.3640  0.8005 -0.9737
  779MOL0     H 5122   3.556   8.317   3.282 -0.1818  1.8749 -3.2250
  779MOL0     H 5123   3.615   8.071   3.106  2.1232 -2.9224  1.1194
  779MOL0     H 5124   3.683   8.107   3.266 -1.8049  1.4738  1.3000
  779MOL0     H 5125   3.949   8.383   3.096 -3.0725 -1.0495 -0.5094
  779MOL0     H 5126   4.192   8.298   3.081  0.8681 -1.7318  0.1626
  779MOL0     H 5127   4.547   8.219   2.845  1.2093  2.6292 -0.0578
  779MOL0     H 5128   4.799   8.159   2.847 -0.8737 -3.3746 -1.8923
  779MOL0     H 5129   5.095   7.997   2.952 -0.3706 -1.5083 -0.1656
  779MOL0     H 5130   5.004   8.147   2.970  0.0642 -0.1905 -0.7131
  779MOL0     H 5131   4.960   8.052   3.217 -0.3908 -2.2370  0.8489
  779MOL0     H 5132   5.092   7.946   3.186 -0.5959  0.7765  2.4733
  779MOL0     H 5133   5.114   8.255   3.159  0.5430 -0.0836  1.1201
  779MOL0     H 5134   5.139   8.166   3.311  2.4226  0.3829  0.2268
  779MOL0     H 5135   5.305   8.084   3.076  1.0286  0.6438 -1.4375
  779MOL0     H 5136   5.333   8.058   3.241  1.6631  0.3810 -0.6954
  779MOL0     H 5137   5.348   8.335   3.251 -4.2598  2.5610 -2.1633
  779MOL0     H 5138   5.363   8.333   3.076  0.6082  1.6388  1.5830
  779MOL0     H 5139   5.564   8.178   3.252  0.5948 -0.3662 -1.0515
  779MOL0     H 5140   5.544   8.175   3.082  0.4200  0.8877 -1.3742
  779MOL0     H 5141   5.584   8.424   3.258  0.9796  0.1151  0.0725
  779MOL0     H 5142   5.615   8.419   3.073 -1.3427  3.2627  1.0676
  779MOL0     H 5143   5.800   8.299   3.287  2.0006 -1.0887 -0.3064
  779MOL0     H 5144   5.783   8.239   3.129  1.4490 -0.5920  1.8857
  779MOL0     H 5145   4.704   7.865   3.146 -1.3900 -0.3958  0.0333
  779MOL0     H 5146   4.488   7.944   3.176  1.0171 -0.8562  0.1583
  779MOL0     H 5147   4.028   7.897   3.049 -1.6715 -0.0958 -1.6655
  779MOL0     H 5148   3.803   7.983   3.059 -1.4754  1.5625 -0.5374
  779MOL0     H 5149   2.247   8.647   4.198 -2.7749 -0.2487  1.6727
  779MOL0     H 5150   2.004   8.609   4.221 -1.7071 -1.8309  0.0282
  779MOL0     H 5151   1.564   8.328   3.813 -1.8009  0.3894 -1.5415
  779MOL0     H 5152   1.352   8.283   3.894 -0.9687 -0.8295  0.1860
  779MOL0     H 5153   1.120   8.413   3.948 -0.6453  2.3811 -0.9833
  779MOL0     H 5154   1.196   8.561   4.020 -1.1020  2.0067  2.2828
  779MOL0     H 5155   0.972   8.556   4.068 -1.9853 -2.1732 -1.4994
  779MOL0     H 5156   1.068   8.546   4.218  3.0872  0.7944 -1.9280
  779MOL0     H 5157   1.009   8.289   4.226  1.2732  0.0760 -0.9030
  779MOL0     H 5158   0.923   8.321   4.064 -1.4939  2.3435 -0.6134
  779MOL0     H 5159   0.813   8.443   4.323 -1.4391  0.9534 -0.6709
  779MOL0     H 5160   0.751   8.459   4.168 -1.7530 -1.3622  1.3880
  779MOL0     H 5161   0.692   8.044   4.308  0.8476  0.4314  1.1730
  779MOL0     H 5162   1.416   8.472   4.261 -0.1351  1.4029 -0.3236
  779MOL0     H 5163   1.607   8.562   4.316 -0.8071 -1.8116 -0.9960
  779MOL0     H 5164   1.721   8.430   4.292 -0.3311 -1.8820 -2.7567
  779MOL0     H 5165   1.748   8.584   4.208  1.7585 -2.2889 -0.9421
  780MOL0     O 5166   4.275   4.573   7.552 -0.3101 -0.3483 -0.0991
  780MOL0     C 5167   4.275   4.549   7.674 -0.8199  0.2898  0.5748
  780MOL0     O 5168   4.385   4.535   7.756  0.1566  0.2116  0.4098
  780MOL0     C 5169   4.501   4.593   7.717  0.9148 -0.6258 -0.2597
  780MOL0     C 5170   4.529   4.731   7.693 -0.2574  0.3956 -0.3018
  780MOL0     C 5171   4.656   4.760   7.656 -0.5322 -0.4373  0.1867
  780MOL0     C 5172   4.767   4.664   7.662  0.0914  0.6837  0.4763
  780MOL0     O 5173   4.882   4.713   7.616 -0.1294  1.0010 -0.0215
  780MOL0     C 5174   4.999   4.652   7.675 -1.1550 -0.2747 -0.1913
  780MOL0     C 5175   5.127   4.739   7.651 -0.4850  0.0774  0.6830
  780MOL0     C 5176   5.257   4.679   7.715 -0.4937 -0.0562 -0.1825
  780MOL0     C 5177   5.374   4.776   7.673  0.3722 -0.0528  0.1366
  780MOL0     C 5178   5.511   4.715   7.649 -0.4740  0.7682 -0.7669
  780MOL0     C 5179   5.597   4.809   7.563 -0.3651  0.1046 -0.9295
  780MOL0     C 5180   5.741   4.746   7.542  0.5427  0.6675  0.8236
  780MOL0     C 5181   5.822   4.698   7.664  0.4236  0.0270  0.2982
  780MOL0     N 5182   5.966   4.687   7.653 -0.4879  0.0786 -1.0428
  780MOL0     C 5183   6.051   4.795   7.682 -0.1422  0.3306  0.2439
  780MOL0     C 5184   6.175   4.741   7.655  0.0696 -0.7501  0.7765
  780MOL0     C 5185   6.293   4.815   7.717 -0.1386 -0.5431 -0.5513
  780MOL0     C 5186   6.414   4.805   7.623  1.0743 -0.6680  0.2395
  780MOL0     C 5187   6.531   4.878   7.681 -0.0535  0.4095  0.8971
  780MOL0     C 5188   6.653   4.850   7.595  0.2746  0.8764 -0.9001
  780MOL0     O 5189   6.779   4.849   7.671 -0.1150  0.9743  0.7853
  780MOL0     C 5190   6.874   4.769   7.609  0.5994  0.1853 -0.0643
  780MOL0     C 5191   6.988   4.833   7.560 -0.1764  0.1981 -0.7026
  780MOL0     C 5192   7.081   4.756   7.499  0.4860 -0.4337  0.3134
  780MOL0     C 5193   7.067   4.618   7.486  0.0540  0.1803 -0.2364
  780MOL0     C 5194   7.182   4.547   7.427  0.6620 -0.9245 -0.4767
  780MOL0     O 5195   7.302   4.617   7.411 -0.0355  0.1278 -0.4645
  780MOL0     C 5196   7.412   4.573   7.349  1.0887  0.3178 -0.3349
  780MOL0     C 5197   7.414   4.491   7.238 -0.4545  0.3794 -0.2827
  780MOL0     C 5198   7.529   4.449   7.175  0.0902 -0.0928  0.3570
  780MOL0     C 5199   7.656   4.494   7.215 -0.4486  1.1354 -0.1434
  780MOL0     O 5200   7.777   4.458   7.154  0.7745  0.0712 -0.6522
  780MOL0     C 5201   7.783   4.341   7.076  0.4179 -0.9176 -0.8866
  780MOL0     C 5202   7.928   4.314   7.044  0.4503 -0.0963 -0.0500
  780MOL0     C 5203   7.979   4.222   7.154 -0.0136 -0.2042  0.5406
  780MOL0     C 5204   8.118   4.168   7.126 -0.5595  1.2247 -0.7279
  780MOL0     C 5205   8.182   4.097   7.251  0.3301  0.4711  0.5350
  780MOL0     C 5206   8.222   4.192   7.363  0.4672  0.4337 -0.3597
  780MOL0     C 5207   8.276   4.113   7.482  0.2839  0.3642  0.6620
  780MOL0     C 5208   8.423   4.077   7.482 -0.5971  1.1137  0.2408
  780MOL0    Cl 5209   8.459   3.933   7.596  0.0592  0.4209  0.4227
  780MOL0     C 5210   7.656   4.561   7.339  0.6971 -0.8178  0.1197
  780MOL0     C 5211   7.542   4.606   7.399  0.2193  0.0777 -0.0547
  780MOL0     O 5212   7.160   4.436   7.384 -0.6050 -0.6137  0.4728
  780MOL0     C 5213   6.958   4.553   7.533  0.0043 -0.3139  0.2599
  780MOL0     C 5214   6.854   4.629   7.597 -0.7445 -0.6834  0.0738
  780MOL0     N 5215   6.166   4.616   7.608  0.2428 -0.1682  0.0258
  780MOL0     N 5216   6.036   4.585   7.609 -0.0557  0.1020  0.6657
  780MOL0     C 5217   4.738   4.534   7.702 -0.2312  0.1886 -0.1474
  780MOL0     C 5218   4.607   4.501   7.719 -0.4332  0.4526 -0.9074
  780MOL0     C 5219   4.148   4.529   7.731 -0.2321  0.2804 -0.4232
  780MOL0     C 5220   4.055   4.634   7.710  0.2286 -0.3011 -0.2762
  780MOL0     C 5221   3.917   4.609   7.737  0.6379  0.5481 -0.1807
  780MOL0     C 5222   3.874   4.492   7.794  0.2253 -0.3274 -0.3298
  780MOL0     O 5223   3.739   4.476   7.803  1.3369  0.6628  0.0446
  780MOL0     C 5224   3.673   4.350   7.796  0.8333 -0.5256 -0.2872
  780MOL0     C 5225   3.523   4.372   7.774  0.3745 -0.0224  0.3865
  780MOL0     C 5226   3.486   4.413   7.634 -0.3631 -0.5230 -0.7804
  780MOL0     C 5227   3.354   4.492   7.652  0.4731 -0.0543 -1.1902
  780MOL0     C 5228   3.282   4.520   7.527 -0.8990 -0.4769 -0.0131
  780MOL0     C 5229   3.229   4.539   7.422  1.1993 -0.5785 -0.2211
  780MOL0     C 5230   3.973   4.393   7.831 -0.1167 -0.5150 -0.3100
  780MOL0     C 5231   4.112   4.413   7.803 -0.8003  0.6468  1.0296
  780MOL0     C 5232   4.202   4.296   7.829  0.7374 -0.0611 -0.2836
  780MOL0     H 5233   4.449   4.805   7.699 -1.5579 -1.0364  0.9237
  780MOL0     H 5234   4.684   4.861   7.630  1.6076 -0.7547  1.0298
  780MOL0     H 5235   4.984   4.631   7.782 -0.5367  0.2813  0.0113
  780MOL0     H 5236   5.022   4.559   7.622  1.1415  0.5355 -0.7607
  780MOL0     H 5237   5.096   4.839   7.685  0.0852  0.4343  0.1734
  780MOL0     H 5238   5.141   4.742   7.543  4.4541 -2.0172  1.0045
  780MOL0     H 5239   5.280   4.576   7.685 -0.3757  0.1301 -0.7290
  780MOL0     H 5240   5.246   4.674   7.824 -1.7100 -0.9702 -0.3249
  780MOL0     H 5241   5.350   4.818   7.575  0.8740 -0.1956 -0.0525
  780MOL0     H 5242   5.384   4.859   7.743 -0.4911  0.0870  0.1010
  780MOL0     H 5243   5.552   4.702   7.749 -2.7037  2.3072  0.4314
  780MOL0     H 5244   5.500   4.614   7.608  0.3885  0.4378 -0.1962
  780MOL0     H 5245   5.546   4.819   7.466 -3.3831  0.4771  0.5833
  780MOL0     H 5246   5.594   4.902   7.621  1.4107  0.7129 -1.7358
  780MOL0     H 5247   5.811   4.814   7.492  0.8089 -0.6885 -0.7360
  780MOL0     H 5248   5.729   4.659   7.478  1.8752  0.0952  1.3223
  780MOL0     H 5249   5.794   4.760   7.750 -0.5305 -3.1258  2.4158
  780MOL0     H 5250   5.777   4.601   7.684  1.2234 -0.1303  1.4202
  780MOL0     H 5251   6.034   4.890   7.731 -0.6996 -0.3230  1.3548
  780MOL0     H 5252   6.278   4.921   7.743  1.8214 -0.0261 -1.2981
  780MOL0     H 5253   6.316   4.763   7.810 -0.3175  1.7466  0.8515
  780MOL0     H 5254   6.438   4.701   7.598  1.5078 -0.1148 -1.8659
  780MOL0     H 5255   6.386   4.854   7.529 -0.6368 -1.7331  0.1488
  780MOL0     H 5256   6.539   4.838   7.783  0.1529  4.1725  2.5271
  780MOL0     H 5257   6.513   4.985   7.691 -1.1345  0.4143 -0.7420
  780MOL0     H 5258   6.667   4.925   7.516 -1.2417  0.5320 -1.5348
  780MOL0     H 5259   6.644   4.755   7.541  3.6049  0.9128 -1.7674
  780MOL0     H 5260   7.006   4.940   7.573  3.4207 -0.1928 -1.3305
  780MOL0     H 5261   7.170   4.804   7.460  1.2711 -1.9312  0.2349
  780MOL0     H 5262   7.326   4.449   7.190  0.3056 -1.2771 -0.3181
  780MOL0     H 5263   7.525   4.376   7.095  2.1448  2.0767 -1.9252
  780MOL0     H 5264   7.737   4.252   7.119  0.5465 -2.2330 -3.3354
  780MOL0     H 5265   7.734   4.383   6.988  0.5142  3.6084  0.9294
  780MOL0     H 5266   7.931   4.258   6.950 -1.5666  1.7251 -1.2920
  780MOL0     H 5267   7.990   4.404   7.031 -1.9137  1.6090 -0.2542
  780MOL0     H 5268   7.984   4.286   7.243  1.2509  1.9741 -1.0241
  780MOL0     H 5269   7.915   4.137   7.181  2.2618 -1.9576  0.7712
  780MOL0     H 5270   8.189   4.248   7.105 -0.0409  0.8810 -0.3282
  780MOL0     H 5271   8.107   4.107   7.036 -1.2246  0.7390 -0.3255
  780MOL0     H 5272   8.260   4.029   7.216 -1.8692 -1.7608 -0.3272
  780MOL0     H 5273   8.110   4.028   7.297 -0.1204  1.1768  0.9134
  780MOL0     H 5274   8.294   4.271   7.337 -0.8198  1.5532 -0.6481
  780MOL0     H 5275   8.136   4.245   7.404  1.6366  0.7948  1.7358
  780MOL0     H 5276   8.219   4.019   7.489  1.7496 -0.5026  1.3869
  780MOL0     H 5277   8.258   4.159   7.580 -0.0002 -0.5609  1.0540
  780MOL0     H 5278   8.469   4.069   7.383 -1.0430  0.5720  0.0683
  780MOL0     H 5279   8.467   4.169   7.520 -3.4230  1.1688  3.9844
  780MOL0     H 5280   7.754   4.582   7.382  1.4776 -1.5270 -1.2543
  780MOL0     H 5281   7.561   4.676   7.480  1.2592  0.8675 -0.9569
  780MOL0     H 5282   6.955   4.445   7.536 -1.8443 -0.3429 -0.7354
  780MOL0     H 5283   6.769   4.569   7.627 -0.1875 -2.2405 -1.2853
  780MOL0     H 5284   4.809   4.453   7.714  0.6968  1.1469  1.0194
  780MOL0     H 5285   4.590   4.395   7.738 -1.0134  0.4676 -1.3020
  780MOL0     H 5286   4.083   4.719   7.650  0.4021 -0.0913  0.1020
  780MOL0     H 5287   3.829   4.669   7.711  0.0616 -0.2089 -0.0228
  780MOL0     H 5288   3.675   4.290   7.887 -0.0438 -1.1146 -0.6462
  780MOL0     H 5289   3.706   4.306   7.701 -1.1413  1.1805 -1.8769
  780MOL0     H 5290   3.492   4.439   7.856 -0.0062 -0.4205  0.5718
  780MOL0     H 5291   3.476   4.275   7.788 -1.0763  0.2514 -2.1032
  780MOL0     H 5292   3.468   4.323   7.574 -1.7296 -0.9789  0.2585
  780MOL0     H 5293   3.561   4.483   7.597 -0.9445 -0.5365 -2.0223
  780MOL0     H 5294   3.292   4.431   7.718  1.2361 -2.5067 -2.5861
  780MOL0     H 5295   3.370   4.590   7.698 -2.4816 -0.3567  0.7376
  780MOL0     H 5296   3.176   4.567   7.333 -1.7985 -0.3631  1.5219
  780MOL0     H 5297   3.950   4.299   7.881 -1.2922  0.0903  0.3186
  780MOL0     H 5298   4.152   4.198   7.825 -0.6552  0.6048  0.2970
  780MOL0     H 5299   4.291   4.300   7.767  1.4526 -3.3138  0.3363
  780MOL0     H 5300   4.242   4.295   7.931 -0.4267  2.0812  0.2465
  781MOL0     O 5301   9.942   3.698   0.075  0.0391 -0.5046 -0.0007
  781MOL0     C 5302   9.972   3.816   0.054  0.9219  0.0890  0.2508
  781MOL0     O 5303  10.092   3.860   0.037  0.2591 -0.3565  0.5367
  781MOL0     C 5304  10.192   3.768   0.039  0.6883  0.9823 -0.9685
  781MOL0     C 5305  10.251   3.733   0.163  0.7436  0.6699 -0.0685
  781MOL0     C 5306  10.351   3.634   0.166  0.1229 -0.1563 -0.1107
  781MOL0     C 5307  10.384   3.564   0.050  0.6783  0.0457  0.5164
  781MOL0     O 5308  10.451   3.442   0.048 -0.1215 -1.1720 -0.4082
  781MOL0     C 5309  10.578   3.444  -0.019  0.2716  0.7761 -0.1073
  781MOL0     C 5310  10.686   3.526   0.060  0.5525 -0.8985 -0.0207
  781MOL0     C 5311  10.827   3.534  -0.009 -0.0238  0.9879  0.2702
  781MOL0     C 5312  10.945   3.530   0.091  0.1352  0.4472 -0.1465
  781MOL0     C 5313  11.087   3.532   0.023  1.1894  0.6109 -0.2818
  781MOL0     C 5314  11.115   3.420  -0.078 -0.4607 -0.4149 -0.1200
  781MOL0     C 5315  11.197   3.311   0.002  0.2717  0.8644 -0.6158
  781MOL0     C 5316  11.224   3.169  -0.072 -0.0749 -0.3149  0.2015
  781MOL0     N 5317  11.307   3.075  -0.001 -0.2820  0.7475  0.0139
  781MOL0     C 5318  11.266   2.990   0.099 -0.3490 -0.3420  0.4205
  781MOL0     C 5319  11.376   2.917   0.132  0.2583  0.2548 -0.6856
  781MOL0     C 5320  11.362   2.832   0.257 -0.1953 -0.0813 -0.4344
  781MOL0     C 5321  11.493   2.757   0.287 -0.2181  0.2036 -0.3414
  781MOL0     C 5322  11.524   2.635   0.194 -0.0639 -0.9145  0.1541
  781MOL0     C 5323  11.645   2.557   0.260 -0.9317  0.3781 -0.7500
  781MOL0     O 5324  11.713   2.467   0.175 -0.8314  0.0652  0.5184
  781MOL0     C 5325  11.844   2.409   0.217 -0.4439  0.2664  0.3863
  781MOL0     C 5326  11.908   2.324   0.121 -0.1384 -0.0961 -0.2474
  781MOL0     C 5327  12.035   2.264   0.149  0.1734  0.0485  0.0875
  781MOL0     C 5328  12.091   2.295   0.276 -0.0575  0.5248 -0.7191
  781MOL0     C 5329  12.216   2.229   0.328 -0.5697 -0.7438  0.2625
  781MOL0     O 5330  12.272   2.291   0.436  0.1162  0.7135 -0.2038
  781MOL0     C 5331  12.381   2.223   0.480 -0.0233  0.3068  0.1116
  781MOL0     C 5332  12.368   2.132   0.574  0.6769  0.4958  0.1317
  781MOL0     C 5333  12.477   2.076   0.632 -0.0225 -0.6917 -0.1135
  781MOL0     C 5334  12.605   2.109   0.600  0.3659 -0.4918 -0.2431
  781MOL0     O 5335  12.700   2.035   0.668  0.6132 -0.2003  0.1190
  781MOL0     C 5336  12.826   2.088   0.672  0.1043  0.2184 -0.6373
  781MOL0     C 5337  12.921   2.004   0.763  0.4739 -0.0327  0.6911
  781MOL0     C 5338  13.066   2.037   0.739 -0.0461  0.9121  0.5143
  781MOL0     C 5339  13.163   1.967   0.838 -0.7503 -0.5916 -0.2239
  781MOL0     C 5340  13.299   2.040   0.839  0.3135 -0.1634 -1.0696
  781MOL0     C 5341  13.381   1.996   0.721 -0.5901 -1.1683  0.4988
  781MOL0     C 5342  13.510   2.066   0.721  0.4273 -0.7078  0.2476
  781MOL0     C 5343  13.576   2.057   0.583  0.5124 -0.5856 -0.0564
  781MOL0    Cl 5344  13.473   2.124   0.448  0.1958 -0.0911  0.0864
  781MOL0     C 5345  12.628   2.211   0.500  0.1770  0.3855 -0.1431
  781MOL0     C 5346  12.511   2.268   0.442 -1.1600  0.1123 -0.1922
  781MOL0     O 5347  12.270   2.138   0.263 -0.0127  0.0268 -0.4786
  781MOL0     C 5348  12.033   2.389   0.364 -0.2611  0.5256 -0.7750
  781MOL0     C 5349  11.907   2.444   0.343 -0.4667  0.2748 -0.3989
  781MOL0     N 5350  11.472   2.939   0.033  0.8337 -0.0834  0.0840
  781MOL0     N 5351  11.430   3.026  -0.047  0.2729 -0.0492 -0.0439
  781MOL0     C 5352  10.325   3.611  -0.077 -0.1498  0.6570  0.1806
  781MOL0     C 5353  10.227   3.705  -0.079 -0.2842  0.2046 -0.7928
  781MOL0     C 5354   9.845   3.906   0.037 -0.3602  0.0619  0.1595
  781MOL0     C 5355   9.872   4.044   0.004 -0.5404  0.2272 -0.0533
  781MOL0     C 5356   9.769   4.136  -0.002  0.4827 -0.0536  0.9402
  781MOL0     C 5357   9.640   4.099   0.007 -0.7681  0.3214  0.2589
  781MOL0     O 5358   9.528   4.183  -0.002 -0.3783 -0.2207  0.4041
  781MOL0     C 5359   9.530   4.279  -0.111 -0.1292  0.8655 -1.1442
  781MOL0     C 5360   9.467   4.417  -0.066 -0.5417  0.1290  0.3917
  781MOL0     C 5361   9.313   4.415  -0.053  0.0280 -0.4787 -0.5638
  781MOL0     C 5362   9.248   4.553  -0.067  0.8303  0.6613 -0.0472
  781MOL0     C 5363   9.102   4.535  -0.038  0.0735  0.1003  0.2011
  781MOL0     C 5364   8.983   4.562  -0.017 -0.0934  0.8195 -1.9321
  781MOL0     C 5365   9.606   3.970   0.042 -0.3468 -0.5638  0.3140
  781MOL0     C 5366   9.709   3.869   0.064  0.2282  0.3246  0.2107
  781MOL0     C 5367   9.653   3.731   0.096  0.4933 -0.5015 -0.4940
  781MOL0     H 5368  10.226   3.779   0.258  2.5478  1.6788 -0.0453
  781MOL0     H 5369  10.400   3.604   0.258  2.8665  1.2664 -0.9997
  781MOL0     H 5370  10.607   3.339  -0.021  0.9948  0.9793 -0.8152
  781MOL0     H 5371  10.577   3.485  -0.121  1.4870  0.1594 -0.3869
  781MOL0     H 5372  10.704   3.480   0.158  2.3265 -2.2657 -0.9207
  781MOL0     H 5373  10.651   3.628   0.080  2.2186 -0.0962 -0.9298
  781MOL0     H 5374  10.834   3.619  -0.078 -0.6782  0.5241 -0.3835
  781MOL0     H 5375  10.839   3.444  -0.070 -4.5260 -1.0055  1.9464
  781MOL0     H 5376  10.940   3.624   0.146  2.5819  0.1336  0.7398
  781MOL0     H 5377  10.934   3.445   0.160  1.3515  1.7205  1.7161
  781MOL0     H 5378  11.091   3.629  -0.027 -0.4865  0.9896  0.2440
  781MOL0     H 5379  11.168   3.539   0.097 -0.2098 -0.6565  1.4663
  781MOL0     H 5380  11.024   3.382  -0.125  0.1826  1.3326 -3.0299
  781MOL0     H 5381  11.172   3.461  -0.162  1.0342 -1.7121  0.2189
  781MOL0     H 5382  11.134   3.291   0.090  1.8285  0.4775  0.4498
  781MOL0     H 5383  11.297   3.340   0.035  0.7814 -0.9213 -0.4610
  781MOL0     H 5384  11.133   3.112  -0.089  1.1804 -2.0685 -0.9981
  781MOL0     H 5385  11.275   3.197  -0.165 -0.8890  0.7372  0.0583
  781MOL0     H 5386  11.181   3.004   0.166  1.2563 -2.1172  3.0193
  781MOL0     H 5387  11.349   2.900   0.342  0.6638  1.0363 -1.1781
  781MOL0     H 5388  11.282   2.757   0.254  1.5408 -2.1275 -4.7975
  781MOL0     H 5389  11.570   2.834   0.281  0.5184 -0.3959  0.9987
  781MOL0     H 5390  11.497   2.724   0.391 -2.4925  1.7763  0.3384
  781MOL0     H 5391  11.540   2.662   0.089 -2.2206  0.3035  0.0887
  781MOL0     H 5392  11.433   2.574   0.196 -1.3888  0.8785 -1.4297
  781MOL0     H 5393  11.607   2.503   0.347 -0.6753  0.5024 -0.5579
  781MOL0     H 5394  11.722   2.628   0.292  0.5684  0.1645 -3.5361
  781MOL0     H 5395  11.858   2.318   0.025  1.2638 -2.7245 -0.9249
  781MOL0     H 5396  12.073   2.194   0.076 -3.2251  1.1425 -2.9964
  781MOL0     H 5397  12.267   2.115   0.611  1.2636 -0.1895  1.4990
  781MOL0     H 5398  12.446   1.993   0.695 -1.2042 -1.6921 -1.9277
  781MOL0     H 5399  12.868   2.092   0.571  1.6215 -0.1748 -0.0633
  781MOL0     H 5400  12.819   2.194   0.697 -2.9727  0.3173 -1.5874
  781MOL0     H 5401  12.891   2.021   0.867  2.7500  1.2415  1.1990
  781MOL0     H 5402  12.900   1.899   0.739 -4.6277  0.2802  2.5837
  781MOL0     H 5403  13.086   1.999   0.638  0.2206  1.0242  0.5255
  781MOL0     H 5404  13.076   2.146   0.742 -0.6001  1.0397 -1.1992
  781MOL0     H 5405  13.178   1.862   0.809  2.3930 -0.8633  1.9107
  781MOL0     H 5406  13.119   1.971   0.938 -0.7308 -2.0022 -0.1291
  781MOL0     H 5407  13.339   2.007   0.935 -0.7553  1.5743  0.0422
  781MOL0     H 5408  13.285   2.149   0.840 -3.6561 -0.4388  2.5086
  781MOL0     H 5409  13.395   1.888   0.723 -1.2484 -1.2958 -0.6612
  781MOL0     H 5410  13.316   2.011   0.633 -0.2505  0.1344  0.4482
  781MOL0     H 5411  13.579   2.029   0.797  2.5655  0.5341 -0.9638
  781MOL0     H 5412  13.493   2.172   0.742  0.9386 -0.2022 -1.6703
  781MOL0     H 5413  13.672   2.109   0.583 -0.4827  1.3917 -1.0293
  781MOL0     H 5414  13.594   1.950   0.572 -1.4571 -1.0214  0.6179
  781MOL0     H 5415  12.728   2.242   0.472  0.7693  0.1037  1.5139
  781MOL0     H 5416  12.532   2.342   0.365  0.9388 -2.4615 -2.2852
  781MOL0     H 5417  12.073   2.408   0.464 -0.8139 -2.4497  0.1160
  781MOL0     H 5418  11.864   2.515   0.412 -0.4128 -0.3716  0.3201
  781MOL0     H 5419  10.344   3.553  -0.167 -1.6765 -2.3699  1.6451
  781MOL0     H 5420  10.176   3.731  -0.171  2.3140  0.3145 -2.2842
  781MOL0     H 5421   9.974   4.081   0.003 -0.3039 -0.2670  1.5271
  781MOL0     H 5422   9.784   4.239  -0.034 -1.7001 -0.0706 -0.3964
  781MOL0     H 5423   9.481   4.240  -0.200 -0.2860  1.7623 -1.4626
  781MOL0     H 5424   9.633   4.297  -0.142  1.0045 -2.0338  0.4640
  781MOL0     H 5425   9.490   4.496  -0.137  2.0720 -0.5373  0.3836
  781MOL0     H 5426   9.513   4.441   0.030  2.0533  0.7319 -0.9287
  781MOL0     H 5427   9.276   4.361   0.035 -0.7563 -2.1177 -1.8561
  781MOL0     H 5428   9.277   4.354  -0.135 -0.0500 -2.0391  0.5852
  781MOL0     H 5429   9.285   4.624   0.007 -1.4362  2.1070 -0.2023
  781MOL0     H 5430   9.242   4.594  -0.168  2.4536  1.9568  0.3404
  781MOL0     H 5431   8.880   4.583   0.003 -0.0711  0.1845 -1.1208
  781MOL0     H 5432   9.501   3.942   0.045 -0.0538 -1.9037 -1.0387
  781MOL0     H 5433   9.682   3.705   0.199  1.8148  0.7505 -0.5163
  781MOL0     H 5434   9.544   3.734   0.093  0.3530 -1.2966  1.8189
  781MOL0     H 5435   9.679   3.654   0.023 -2.0534 -0.8082 -1.1544
  782MOL0     O 5436  10.768   2.605   5.368 -0.6876  0.0763  0.3515
  782MOL0     C 5437  10.775   2.701   5.288 -0.4199 -0.6144  1.2161
  782MOL0     O 5438  10.890   2.777   5.265 -0.7710  0.0789 -0.4146
  782MOL0     C 5439  11.006   2.726   5.317  0.1036 -0.4299 -0.7251
  782MOL0     C 5440  11.051   2.748   5.446 -0.0967  0.0284 -0.3271
  782MOL0     C 5441  11.159   2.674   5.492  0.4490 -0.1610  0.1537
  782MOL0     C 5442  11.238   2.592   5.415  0.0210 -0.0046 -0.0571
  782MOL0     O 5443  11.349   2.537   5.476 -0.1121 -0.1088 -0.4634
  782MOL0     C 5444  11.406   2.424   5.407 -1.5402  0.6207  0.3833
  782MOL0     C 5445  11.526   2.357   5.493  0.1974 -0.3164  1.1774
  782MOL0     C 5446  11.658   2.418   5.481  0.0560  0.2414 -0.1050
  782MOL0     C 5447  11.750   2.345   5.574  0.2540  0.6305  0.7150
  782MOL0     C 5448  11.890   2.404   5.595 -0.5951 -0.0375 -0.1742
  782MOL0     C 5449  11.945   2.449   5.458  0.1663 -0.7658  0.0105
  782MOL0     C 5450  12.094   2.473   5.462  0.4036 -0.4607 -0.0330
  782MOL0     C 5451  12.177   2.353   5.482 -0.3731  0.0235  0.5775
  782MOL0     N 5452  12.319   2.376   5.439  0.2379 -0.4309 -0.5172
  782MOL0     C 5453  12.409   2.465   5.500  0.9701  0.5713  0.7366
  782MOL0     C 5454  12.520   2.455   5.428 -0.2709  0.3728  0.1619
  782MOL0     C 5455  12.651   2.526   5.463 -0.0029  0.0494 -0.2507
  782MOL0     C 5456  12.685   2.646   5.383 -0.0441  0.6425  0.9315
  782MOL0     C 5457  12.594   2.767   5.407 -0.0665  0.5211  0.1209
  782MOL0     C 5458  12.453   2.763   5.347 -0.6351  0.4625 -0.1955
  782MOL0     O 5459  12.370   2.816   5.445 -0.3052  0.5567 -0.9540
  782MOL0     C 5460  12.244   2.835   5.411  0.6110  0.6311 -1.3043
  782MOL0     C 5461  12.157   2.854   5.513 -0.1600 -1.1351 -0.6792
  782MOL0     C 5462  12.022   2.880   5.504 -0.1735  0.3618  0.6338
  782MOL0     C 5463  11.961   2.880   5.375 -0.3420 -0.5091 -0.1477
  782MOL0     C 5464  11.819   2.929   5.359  0.6243  0.2743 -0.4463
  782MOL0     O 5465  11.752   2.953   5.482 -0.4059  0.3407  0.8140
  782MOL0     C 5466  11.632   3.004   5.484  0.0150 -0.2955 -0.4585
  782MOL0     C 5467  11.514   2.930   5.459  0.2392  0.8072 -0.2245
  782MOL0     C 5468  11.392   2.979   5.467 -0.3606 -0.4161  0.4400
  782MOL0     C 5469  11.366   3.115   5.488 -0.3664  1.2243 -0.4601
  782MOL0     O 5470  11.238   3.157   5.486 -0.2737 -1.2107 -0.3707
  782MOL0     C 5471  11.161   3.104   5.383  1.4832 -0.3951 -0.3963
  782MOL0     C 5472  11.066   3.198   5.318 -0.0306  0.3988 -0.0316
  782MOL0     C 5473  10.969   3.248   5.423 -1.2707  0.5127  0.4954
  782MOL0     C 5474  10.856   3.351   5.366  0.1048  0.1493 -0.8652
  782MOL0     C 5475  10.787   3.409   5.487  0.1355 -0.2881  0.4034
  782MOL0     C 5476  10.638   3.455   5.460  1.4599  0.4431 -0.1459
  782MOL0     C 5477  10.533   3.343   5.466 -0.0480 -0.6522 -0.3993
  782MOL0     C 5478  10.400   3.389   5.418 -0.5028  0.0343  0.7358
  782MOL0    Cl 5479  10.392   3.425   5.240 -0.0154 -0.2978  0.3582
  782MOL0     C 5480  11.482   3.187   5.526  0.8112 -0.2033  0.0257
  782MOL0     C 5481  11.611   3.137   5.521 -0.0996  0.3118 -0.3643
  782MOL0     O 5482  11.763   2.936   5.245  0.3259 -0.1317 -0.3049
  782MOL0     C 5483  12.048   2.839   5.271  0.1776  0.4051 -0.1475
  782MOL0     C 5484  12.186   2.822   5.284  0.3867  0.2510  0.1530
  782MOL0     N 5485  12.498   2.352   5.332  0.1294  0.1200 -0.5690
  782MOL0     N 5486  12.379   2.314   5.336 -0.0505 -0.0676 -0.0308
  782MOL0     C 5487  11.192   2.578   5.291 -0.4815 -0.7106  1.0802
  782MOL0     C 5488  11.080   2.640   5.245  0.1445 -0.0027  0.7219
  782MOL0     C 5489  10.656   2.738   5.216  0.5576 -0.2628 -0.3941
  782MOL0     C 5490  10.533   2.691   5.266  0.3028  0.0474  0.2079
  782MOL0     C 5491  10.410   2.727   5.208  0.8541  0.3750 -0.1541
  782MOL0     C 5492  10.406   2.801   5.086 -0.2155  0.4068  0.0799
  782MOL0     O 5493  10.282   2.827   5.032  0.3257  0.5109  0.2400
  782MOL0     C 5494  10.266   2.965   5.000 -0.2497  0.3645 -0.2393
  782MOL0     C 5495  10.130   3.014   5.035 -0.7707  0.0198  0.0246
  782MOL0     C 5496  10.138   3.171   5.039  0.1777 -0.0731  0.4085
  782MOL0     C 5497  10.004   3.213   5.089  1.1936 -0.6989  0.6743
  782MOL0     C 5498  10.018   3.363   5.112 -0.7470 -0.8450  0.3578
  782MOL0     C 5499  10.037   3.474   5.159 -0.3666  0.1725  0.0086
  782MOL0     C 5500  10.532   2.836   5.029  0.1215  0.5393 -0.0511
  782MOL0     C 5501  10.656   2.799   5.086  0.0196 -0.5595 -0.1076
  782MOL0     C 5502  10.788   2.847   5.027  0.8564  0.0198 -0.2146
  782MOL0     H 5503  11.009   2.815   5.520 -0.1017  1.2637 -1.4195
  782MOL0     H 5504  11.200   2.689   5.591  2.2214 -3.1954  0.0153
  782MOL0     H 5505  11.333   2.349   5.375 -1.2006  1.5613 -3.0222
  782MOL0     H 5506  11.447   2.450   5.309 -1.6991  0.8053  0.3670
  782MOL0     H 5507  11.535   2.262   5.440 -0.2379  1.0039 -1.4252
  782MOL0     H 5508  11.496   2.357   5.598 -0.7679 -0.5543  0.9085
  782MOL0     H 5509  11.647   2.522   5.512 -1.6265  0.5316 -1.5011
  782MOL0     H 5510  11.693   2.414   5.378 -2.8486  0.1520 -1.1839
  782MOL0     H 5511  11.709   2.343   5.675  2.4187  0.3969  1.6431
  782MOL0     H 5512  11.759   2.243   5.537 -0.9926 -0.0585  2.2302
  782MOL0     H 5513  11.894   2.489   5.664  0.1452  1.4087 -1.9134
  782MOL0     H 5514  11.945   2.326   5.649  0.9381  0.5500 -0.8242
  782MOL0     H 5515  11.922   2.369   5.387 -2.8294 -0.9914  1.0910
  782MOL0     H 5516  11.899   2.543   5.428  0.0512 -0.0318  2.3099
  782MOL0     H 5517  12.101   2.547   5.542 -0.6949  0.9676 -1.2007
  782MOL0     H 5518  12.132   2.525   5.374 -1.0772  0.2578 -0.2760
  782MOL0     H 5519  12.174   2.328   5.588  3.1479  1.7389  1.2259
  782MOL0     H 5520  12.130   2.267   5.434  2.8404 -0.4791 -2.0512
  782MOL0     H 5521  12.392   2.531   5.585  0.6919  0.3076  0.8846
  782MOL0     H 5522  12.651   2.549   5.570 -0.5924 -3.2027  0.5425
  782MOL0     H 5523  12.728   2.448   5.463 -1.7131 -1.7136  0.4265
  782MOL0     H 5524  12.789   2.676   5.398  0.1598  0.5977 -0.3590
  782MOL0     H 5525  12.680   2.618   5.278  0.5218 -0.8579  1.2859
  782MOL0     H 5526  12.641   2.861   5.378 -0.5097  0.6172 -0.2936
  782MOL0     H 5527  12.588   2.777   5.516 -2.8018 -1.9403  0.3218
  782MOL0     H 5528  12.424   2.659   5.330  0.6669  0.0157  0.1741
  782MOL0     H 5529  12.452   2.815   5.251  4.8064 -0.2597 -0.9467
  782MOL0     H 5530  12.209   2.848   5.608  1.7619  1.0283 -1.5168
  782MOL0     H 5531  11.965   2.902   5.595 -1.9821 -1.3696 -0.0062
  782MOL0     H 5532  11.541   2.826   5.443  2.0754  0.9038  1.7121
  782MOL0     H 5533  11.312   2.907   5.452  0.4455 -1.5382  1.3486
  782MOL0     H 5534  11.231   3.070   5.306  2.5672  4.2651 -1.8081
  782MOL0     H 5535  11.101   3.018   5.413  0.9896 -0.4213 -1.4035
  782MOL0     H 5536  11.121   3.279   5.269 -1.9396  0.0313 -3.0172
  782MOL0     H 5537  11.029   3.140   5.233  4.0044  0.9949 -2.4492
  782MOL0     H 5538  10.922   3.169   5.482  1.4778 -0.7612  1.1500
  782MOL0     H 5539  11.028   3.295   5.502  1.5374 -1.0499 -0.5118
  782MOL0     H 5540  10.786   3.294   5.303 -0.6420  0.7427 -0.5796
  782MOL0     H 5541  10.903   3.429   5.305 -1.6167  1.2605 -0.8400
  782MOL0     H 5542  10.842   3.500   5.509  3.1270 -1.4419 -1.5855
  782MOL0     H 5543  10.790   3.341   5.573  4.0997  1.7890  2.1335
  782MOL0     H 5544  10.610   3.525   5.538 -2.1548 -0.5750 -0.3540
  782MOL0     H 5545  10.628   3.507   5.364 -0.2895  2.4210  1.0109
  782MOL0     H 5546  10.535   3.305   5.568 -0.8517 -1.4766 -0.6718
  782MOL0     H 5547  10.564   3.264   5.397  1.4406 -0.4624  0.0194
  782MOL0     H 5548  10.324   3.310   5.427  1.4871 -1.9485  1.0180
  782MOL0     H 5549  10.377   3.479   5.475 -1.6407 -1.6379  3.0941
  782MOL0     H 5550  11.458   3.293   5.534  1.5275 -0.1303  1.6985
  782MOL0     H 5551  11.683   3.207   5.564 -0.4788 -0.1089  1.0051
  782MOL0     H 5552  12.009   2.821   5.171 -0.9698 -2.4254  0.7093
  782MOL0     H 5553  12.233   2.781   5.196 -0.2116 -1.7016  0.6884
  782MOL0     H 5554  11.254   2.522   5.221 -1.7065  0.2136 -0.8492
  782MOL0     H 5555  11.043   2.625   5.144  0.2230 -0.1280  0.7121
  782MOL0     H 5556  10.520   2.645   5.363 -2.1837  0.0210 -0.0738
  782MOL0     H 5557  10.319   2.708   5.264  0.1265 -1.4673 -1.8241
  782MOL0     H 5558  10.300   2.988   4.898  0.8717 -1.4007 -0.3097
  782MOL0     H 5559  10.342   3.011   5.064  2.3796 -1.0739 -2.1087
  782MOL0     H 5560  10.100   2.967   5.129 -0.4430 -1.4222 -0.5683
  782MOL0     H 5561  10.061   2.982   4.957 -1.6800 -2.4230  1.6963
  782MOL0     H 5562  10.162   3.210   4.940 -0.8321  0.8199  0.4951
  782MOL0     H 5563  10.218   3.207   5.104  3.7499 -0.8068 -3.1846
  782MOL0     H 5564   9.941   3.189   5.002  2.7373  1.2396 -1.1049
  782MOL0     H 5565   9.960   3.167   5.177 -1.2151  0.3416  0.1050
  782MOL0     H 5566  10.049   3.575   5.193 -1.1640  1.3089 -2.8172
  782MOL0     H 5567  10.526   2.895   4.938  1.3275 -1.4120 -1.4538
  782MOL0     H 5568  10.818   2.933   5.088 -0.9869 -0.0679  0.8803
  782MOL0     H 5569  10.862   2.768   5.014  1.6453  0.3690  1.7215
  782MOL0     H 5570  10.759   2.885   4.929 -0.6669  2.0212  0.9430
  783MOL0     O 5571   7.897   2.767   2.303  0.0362  0.2137  0.7302
  783MOL0     C 5572   7.816   2.793   2.395 -0.1040  0.3138 -1.4593
  783MOL0     O 5573   7.854   2.823   2.520  0.5831 -0.2412  0.5377
  783MOL0     C 5574   7.989   2.841   2.546 -0.0738 -0.0618  0.9908
  783MOL0     C 5575   8.063   2.941   2.481 -0.2446  0.1443  0.6523
  783MOL0     C 5576   8.196   2.966   2.511 -0.0170  0.3208 -0.4956
  783MOL0     C 5577   8.257   2.887   2.613 -1.1066  0.2457 -1.1327
  783MOL0     O 5578   8.389   2.921   2.643  1.1205  0.1974 -0.2359
  783MOL0     C 5579   8.448   2.842   2.746 -0.0574 -0.7941  0.4487
  783MOL0     C 5580   8.585   2.890   2.776 -0.4985 -0.3545  0.3574
  783MOL0     C 5581   8.639   2.806   2.891 -0.6135 -1.0713 -0.1917
  783MOL0     C 5582   8.786   2.855   2.925 -0.5438 -0.0722  1.4261
  783MOL0     C 5583   8.848   2.786   3.042  0.2754  0.4573  0.2033
  783MOL0     C 5584   9.003   2.766   3.032 -0.0551 -0.5112  0.5641
  783MOL0     C 5585   9.080   2.896   3.044  0.2180  0.5749  0.0817
  783MOL0     C 5586   9.150   2.912   3.170 -0.7518  0.3723 -0.3770
  783MOL0     N 5587   9.290   2.856   3.180 -0.6980  0.1264 -0.6563
  783MOL0     C 5588   9.320   2.724   3.188 -0.4457 -0.1523 -1.0855
  783MOL0     C 5589   9.458   2.725   3.203 -0.2708  0.2217 -0.3080
  783MOL0     C 5590   9.541   2.594   3.224 -0.5045 -0.8882  0.3946
  783MOL0     C 5591   9.697   2.616   3.243  0.0425  0.6543  0.1452
  783MOL0     C 5592   9.759   2.479   3.251  0.0416  0.1674  0.1101
  783MOL0     C 5593   9.887   2.487   3.335  0.0151 -0.3107 -0.8976
  783MOL0     O 5594   9.992   2.535   3.245 -0.3316  0.1863 -0.7378
  783MOL0     C 5595  10.128   2.500   3.270 -1.1825 -0.0559 -0.5732
  783MOL0     C 5596  10.224   2.554   3.185 -0.5599 -0.9848 -0.4243
  783MOL0     C 5597  10.364   2.536   3.207  0.0728 -1.0163  0.0051
  783MOL0     C 5598  10.413   2.482   3.330  0.1767 -0.0444  1.4537
  783MOL0     C 5599  10.553   2.473   3.362  0.0455 -0.0664 -0.1995
  783MOL0     O 5600  10.636   2.541   3.284  0.4538 -0.2667 -0.3027
  783MOL0     C 5601  10.773   2.522   3.294  0.0294  0.7333  0.1408
  783MOL0     C 5602  10.846   2.600   3.384  0.0667 -0.0966  0.3081
  783MOL0     C 5603  10.976   2.566   3.415  0.0453  0.5926 -0.0930
  783MOL0     C 5604  11.047   2.464   3.336 -1.3458 -0.2311 -0.5983
  783MOL0     O 5605  11.179   2.431   3.375  0.1269 -0.6370  0.2322
  783MOL0     C 5606  11.270   2.355   3.297  0.0625 -0.5729  0.1069
  783MOL0     C 5607  11.393   2.323   3.380  0.8439 -0.4047  0.3242
  783MOL0     C 5608  11.474   2.214   3.314 -0.3234 -0.0613 -0.2383
  783MOL0     C 5609  11.404   2.072   3.327  0.1488 -0.5187  0.1849
  783MOL0     C 5610  11.501   1.952   3.314 -0.0998 -0.5604  0.0722
  783MOL0     C 5611  11.583   1.949   3.178 -0.3934 -0.3117 -0.6499
  783MOL0     C 5612  11.647   1.814   3.168 -0.7555  0.1257 -0.3049
  783MOL0     C 5613  11.787   1.808   3.229  0.0260  0.6797 -0.3968
  783MOL0    Cl 5614  11.918   1.863   3.120  0.9346  0.2475 -0.0615
  783MOL0     C 5615  10.976   2.412   3.230 -0.3993  0.0978  1.0486
  783MOL0     C 5616  10.841   2.429   3.213  0.1886 -0.4661 -1.3542
  783MOL0     O 5617  10.593   2.391   3.449  0.5328 -0.3048  0.3041
  783MOL0     C 5618  10.320   2.436   3.412 -0.8319 -0.3893 -1.3294
  783MOL0     C 5619  10.179   2.446   3.387 -0.0013 -0.0450 -0.3128
  783MOL0     N 5620   9.507   2.853   3.198 -0.0285  0.5263 -0.7286
  783MOL0     N 5621   9.409   2.931   3.193 -0.2999  0.5305 -0.7386
  783MOL0     C 5622   8.184   2.786   2.671 -0.0553  0.2204  0.8336
  783MOL0     C 5623   8.057   2.758   2.634 -0.6107  0.5051 -0.3845
  783MOL0     C 5624   7.678   2.787   2.354 -0.0818 -0.3162  0.0548
  783MOL0     C 5625   7.638   2.683   2.275 -0.4254  0.4718  0.1921
  783MOL0     C 5626   7.508   2.674   2.233 -1.1061 -0.2863  0.1874
  783MOL0     C 5627   7.414   2.768   2.276 -0.7542  0.8674  0.2566
  783MOL0     O 5628   7.278   2.771   2.244  0.7803  0.0630 -0.2562
  783MOL0     C 5629   7.256   2.702   2.118 -0.5830 -0.8823 -0.0730
  783MOL0     C 5630   7.108   2.731   2.088 -0.1632  1.0635 -0.1696
  783MOL0     C 5631   7.011   2.649   2.179  0.7188  0.2153  0.5601
  783MOL0     C 5632   6.869   2.679   2.125 -0.6637  0.3277  0.8417
  783MOL0     C 5633   6.811   2.780   2.211 -0.3946  0.4120 -0.7254
  783MOL0     C 5634   6.757   2.864   2.290  0.3880  0.8695 -0.2284
  783MOL0     C 5635   7.458   2.880   2.349 -0.2643 -0.1975 -0.0008
  783MOL0     C 5636   7.591   2.898   2.386  0.1647  0.4743 -0.2871
  783MOL0     C 5637   7.643   3.008   2.460  0.4239 -0.5300 -0.0775
  783MOL0     H 5638   8.031   2.990   2.390  1.0065 -1.0216 -0.4586
  783MOL0     H 5639   8.258   3.045   2.469  3.0295 -1.4137  0.3497
  783MOL0     H 5640   8.382   2.843   2.833 -0.5453  1.2876  0.1050
  783MOL0     H 5641   8.462   2.740   2.708 -2.7230 -0.4980 -1.6312
  783MOL0     H 5642   8.589   2.998   2.788  1.6035 -0.2269 -1.0031
  783MOL0     H 5643   8.642   2.854   2.689  0.5577 -2.1120  1.6965
  783MOL0     H 5644   8.634   2.701   2.861 -1.0580 -1.0907 -0.0665
  783MOL0     H 5645   8.571   2.834   2.972  0.8373 -1.3620  1.1749
  783MOL0     H 5646   8.857   2.842   2.843  2.9425 -0.0618  4.2388
  783MOL0     H 5647   8.785   2.964   2.931  2.7157 -0.0040  2.3295
  783MOL0     H 5648   8.837   2.854   3.127  1.1770  0.0678  0.6384
  783MOL0     H 5649   8.791   2.696   3.068  0.0780  0.7926  0.9400
  783MOL0     H 5650   9.044   2.690   3.100 -1.1985 -0.7210  1.0415
  783MOL0     H 5651   9.017   2.735   2.928 -3.7657  0.7934 -0.4864
  783MOL0     H 5652   9.018   2.983   3.018  0.9381  1.2451  0.5424
  783MOL0     H 5653   9.158   2.901   2.967  0.8036  1.2391  0.6960
  783MOL0     H 5654   9.146   3.020   3.187 -1.3718  0.3486 -0.3787
  783MOL0     H 5655   9.093   2.883   3.258 -1.5883  0.0622 -1.0081
  783MOL0     H 5656   9.252   2.640   3.176  0.0352 -0.5477 -1.0622
  783MOL0     H 5657   9.500   2.539   3.309 -1.7878  0.4685  0.6798
  783MOL0     H 5658   9.521   2.534   3.135 -1.5327 -1.5773  1.0680
  783MOL0     H 5659   9.746   2.665   3.158 -0.1642 -1.3286 -1.1937
  783MOL0     H 5660   9.718   2.678   3.330 -0.7921  0.3928  0.5441
  783MOL0     H 5661   9.781   2.440   3.151 -3.9991 -2.9232  0.1818
  783MOL0     H 5662   9.692   2.406   3.298  0.4475  0.3763  1.0442
  783MOL0     H 5663   9.914   2.384   3.359  0.8195 -1.3973 -5.5357
  783MOL0     H 5664   9.881   2.548   3.426  0.3747  0.5521 -1.4352
  783MOL0     H 5665  10.195   2.594   3.088  2.1991  1.7143 -0.3246
  783MOL0     H 5666  10.433   2.569   3.130 -3.8510 -0.4882 -3.6502
  783MOL0     H 5667  10.807   2.683   3.442 -0.5053  0.3987 -0.7600
  783MOL0     H 5668  11.019   2.630   3.491  1.0771  2.1297 -1.8941
  783MOL0     H 5669  11.219   2.263   3.267 -3.8318  1.4969 -0.2553
  783MOL0     H 5670  11.285   2.420   3.211 -1.9825  0.8659  0.7596
  783MOL0     H 5671  11.455   2.413   3.381 -0.4108  0.4900  0.3331
  783MOL0     H 5672  11.368   2.289   3.482 -3.5972  0.8719 -0.1309
  783MOL0     H 5673  11.503   2.244   3.213 -1.7798 -1.2770 -1.0686
  783MOL0     H 5674  11.567   2.197   3.370 -1.0599 -0.0098  1.0378
  783MOL0     H 5675  11.335   2.055   3.244 -0.1203  0.3843  0.2159
  783MOL0     H 5676  11.355   2.072   3.425 -1.2414 -0.3842 -0.4894
  783MOL0     H 5677  11.447   1.857   3.322  0.0342 -0.6981 -0.6479
  783MOL0     H 5678  11.571   1.967   3.397 -3.0615 -1.1373  2.8892
  783MOL0     H 5679  11.511   1.952   3.095 -0.4389 -4.2713 -0.9496
  783MOL0     H 5680  11.660   2.026   3.181 -0.2252 -0.5005  1.7654
  783MOL0     H 5681  11.660   1.788   3.063 -1.3478  0.2093 -0.4012
  783MOL0     H 5682  11.593   1.732   3.216  2.2187 -2.1239 -0.5473
  783MOL0     H 5683  11.797   1.872   3.318 -1.8346  0.2349  0.1727
  783MOL0     H 5684  11.802   1.704   3.260 -0.7219  0.6579 -0.0803
  783MOL0     H 5685  11.030   2.343   3.165  1.2559  0.2910  2.1567
  783MOL0     H 5686  10.782   2.377   3.138 -0.2099 -2.8673  0.4744
  783MOL0     H 5687  10.359   2.403   3.508  6.0985  2.9823 -2.3622
  783MOL0     H 5688  10.113   2.401   3.461  1.4671 -1.0219  0.4599
  783MOL0     H 5689   8.231   2.715   2.738 -5.0214 -3.6748  0.7932
  783MOL0     H 5690   7.998   2.687   2.690 -1.0773  1.6804  0.6767
  783MOL0     H 5691   7.715   2.616   2.237 -0.1997  0.8731 -0.0676
  783MOL0     H 5692   7.492   2.589   2.167  1.0691  0.2933 -1.2175
  783MOL0     H 5693   7.274   2.594   2.130  3.7909 -0.1368  2.0148
  783MOL0     H 5694   7.311   2.746   2.035  1.4247  0.1750  1.7534
  783MOL0     H 5695   7.081   2.704   1.985  2.8121 -1.1318 -0.4843
  783MOL0     H 5696   7.078   2.836   2.091 -0.4941  0.9623  0.0208
  783MOL0     H 5697   7.022   2.685   2.281 -2.5363  0.4531  0.9314
  783MOL0     H 5698   7.035   2.543   2.165 -2.0958 -0.1861 -2.7423
  783MOL0     H 5699   6.872   2.718   2.024 -1.3730  0.7008  0.9579
  783MOL0     H 5700   6.810   2.587   2.123  5.2275 -4.0246 -0.4784
  783MOL0     H 5701   6.698   2.935   2.345 -2.8812 -0.2376 -2.0430
  783MOL0     H 5702   7.379   2.954   2.360 -1.1726  0.0295 -5.3653
  783MOL0     H 5703   7.731   3.043   2.404  0.3776 -0.8702 -0.3686
  783MOL0     H 5704   7.567   3.086   2.469  0.5051 -0.4135 -0.3689
  783MOL0     H 5705   7.677   2.980   2.560  0.4644  0.5293  0.2120
  784MOL0     O 5706   3.943   1.510   1.545  0.5549 -0.4169  0.2099
  784MOL0     C 5707   3.910   1.392   1.544 -0.8917  0.4258 -0.1333
  784MOL0     O 5708   3.995   1.285   1.578 -0.3134  0.0870 -0.0110
  784MOL0     C 5709   4.126   1.323   1.593 -0.6817  0.7770 -0.1337
  784MOL0     C 5710   4.199   1.337   1.481  0.4583  0.0229 -0.3632
  784MOL0     C 5711   4.326   1.405   1.495 -0.0394 -0.7183 -0.2389
  784MOL0     C 5712   4.367   1.460   1.616  0.6114 -0.2977 -0.3329
  784MOL0     O 5713   4.484   1.521   1.627  0.0608  1.1446  0.2249
  784MOL0     C 5714   4.592   1.438   1.650  0.2294  0.3922 -0.8010
  784MOL0     C 5715   4.681   1.449   1.541 -0.1674 -0.4699  1.1458
  784MOL0     C 5716   4.767   1.586   1.544  0.1313  0.4345 -0.7822
  784MOL0     C 5717   4.841   1.595   1.411 -0.5100 -0.3015 -0.2952
  784MOL0     C 5718   4.912   1.726   1.376  0.3042 -1.0671  0.7299
  784MOL0     C 5719   4.848   1.862   1.414  0.1217  0.4244  0.0584
  784MOL0     C 5720   4.901   1.981   1.330 -0.0678 -0.4918 -0.6503
  784MOL0     C 5721   4.816   2.108   1.354 -0.0203 -0.6239  1.1660
  784MOL0     N 5722   4.875   2.232   1.306  0.2330 -0.0029  0.1547
  784MOL0     C 5723   4.985   2.288   1.375  0.4291  0.1461  0.2230
  784MOL0     C 5724   5.033   2.385   1.291  0.7729  0.0925 -0.5017
  784MOL0     C 5725   5.150   2.473   1.315  0.0397 -0.3289 -0.3158
  784MOL0     C 5726   5.254   2.483   1.200  0.1395  0.1995  0.2388
  784MOL0     C 5727   5.327   2.343   1.177 -0.3582 -0.4089 -0.4551
  784MOL0     C 5728   5.451   2.348   1.089  0.5797  0.0987  0.2238
  784MOL0     O 5729   5.420   2.405   0.964  0.1266  0.3350 -0.0092
  784MOL0     C 5730   5.531   2.456   0.887 -0.3643 -0.2404 -0.4132
  784MOL0     C 5731   5.508   2.523   0.765 -0.2535 -0.3861  0.1021
  784MOL0     C 5732   5.607   2.593   0.698  0.1749 -0.7622 -0.1886
  784MOL0     C 5733   5.732   2.604   0.749  0.0781  0.5804 -0.4321
  784MOL0     C 5734   5.834   2.690   0.690  0.4852 -0.4982  0.3086
  784MOL0     O 5735   5.969   2.665   0.702  0.3387 -0.5455 -0.4666
  784MOL0     C 5736   6.064   2.760   0.676 -0.7974  0.7564  0.5673
  784MOL0     C 5737   6.058   2.893   0.623  0.9886 -0.7633 -0.2255
  784MOL0     C 5738   6.174   2.965   0.607 -0.5513 -0.7503 -0.1071
  784MOL0     C 5739   6.307   2.922   0.644 -0.2326  0.4105  0.1792
  784MOL0     O 5740   6.430   2.993   0.626 -0.2566  0.0635  0.2527
  784MOL0     C 5741   6.434   3.117   0.561 -0.3014  0.2350 -1.0340
  784MOL0     C 5742   6.577   3.185   0.559  0.3370 -0.5052  0.5458
  784MOL0     C 5743   6.656   3.187   0.696  1.0064 -0.6681 -0.2351
  784MOL0     C 5744   6.799   3.258   0.687  0.1500  1.4338  0.6532
  784MOL0     C 5745   6.899   3.195   0.586 -0.1822  0.2708 -0.5058
  784MOL0     C 5746   6.969   3.302   0.496  0.2006 -1.1046  0.0200
  784MOL0     C 5747   7.062   3.252   0.386 -0.8716  0.0559 -0.5622
  784MOL0     C 5748   7.207   3.273   0.425 -0.1884  0.1366  0.1185
  784MOL0    Cl 5749   7.280   3.430   0.420  0.3192  0.5278 -0.4584
  784MOL0     C 5750   6.311   2.802   0.709  0.4816  0.0667 -0.3698
  784MOL0     C 5751   6.200   2.724   0.721 -0.3104 -0.1816  0.6172
  784MOL0     O 5752   5.791   2.795   0.638  0.4593  0.2743  0.6354
  784MOL0     C 5753   5.765   2.532   0.866 -0.5097  0.2792 -0.3547
  784MOL0     C 5754   5.668   2.460   0.937  0.7163 -0.4322  0.3797
  784MOL0     N 5755   4.954   2.382   1.180 -0.8029 -0.3870 -1.2499
  784MOL0     N 5756   4.861   2.291   1.178 -0.5779  0.1932 -0.2808
  784MOL0     C 5757   4.286   1.437   1.729 -0.5219 -0.4835  0.0701
  784MOL0     C 5758   4.172   1.369   1.718 -0.4247 -0.5850  0.0305
  784MOL0     C 5759   3.769   1.351   1.522 -0.7987 -0.0214  0.5515
  784MOL0     C 5760   3.728   1.220   1.558 -0.0116  0.2079 -0.3363
  784MOL0     C 5761   3.599   1.172   1.549 -0.6602  0.1442  0.0493
  784MOL0     C 5762   3.495   1.248   1.495  1.4289  1.1126  0.8472
  784MOL0     O 5763   3.368   1.198   1.467 -0.6026  1.0586  0.2051
  784MOL0     C 5764   3.246   1.263   1.511  0.3915  0.7757 -0.0718
  784MOL0     C 5765   3.120   1.170   1.480  0.5864 -0.1093  0.1989
  784MOL0     C 5766   3.132   1.038   1.543  0.5702 -0.0422 -0.2122
  784MOL0     C 5767   3.049   0.929   1.477  0.7257 -0.0741  0.3086
  784MOL0     C 5768   2.913   0.953   1.501  0.8244 -0.5111  0.7625
  784MOL0     C 5769   2.794   0.989   1.514  0.2559  0.6368 -0.1151
  784MOL0     C 5770   3.534   1.376   1.456  0.4225  0.2283  0.4175
  784MOL0     C 5771   3.665   1.435   1.467  0.2821  0.2971  0.6705
  784MOL0     C 5772   3.690   1.576   1.401  0.0341 -0.2747 -0.0634
  784MOL0     H 5773   4.171   1.279   1.393  1.6355 -1.2256  0.0439
  784MOL0     H 5774   4.378   1.432   1.403  0.7710 -1.3823  0.0123
  784MOL0     H 5775   4.644   1.480   1.737  0.6989  3.2769 -2.3367
  784MOL0     H 5776   4.545   1.340   1.658 -3.3835  2.0120 -0.2635
  784MOL0     H 5777   4.618   1.453   1.451  0.0541 -0.5563  0.9862
  784MOL0     H 5778   4.747   1.362   1.530  3.4502  2.0412  1.1640
  784MOL0     H 5779   4.839   1.595   1.625 -0.4735 -1.3426  0.0029
  784MOL0     H 5780   4.709   1.679   1.555  2.9633  2.1275  1.1238
  784MOL0     H 5781   4.928   1.530   1.413 -0.5339 -0.3509  1.8886
  784MOL0     H 5782   4.769   1.560   1.337 -0.3020 -0.1731 -0.5606
  784MOL0     H 5783   5.017   1.724   1.408 -0.0355  1.4060  2.3197
  784MOL0     H 5784   4.912   1.732   1.267  3.2893  0.5723  0.7142
  784MOL0     H 5785   4.742   1.845   1.394 -0.0515  0.5640  0.8051
  784MOL0     H 5786   4.875   1.877   1.519  1.3668 -2.4808  0.2400
  784MOL0     H 5787   4.899   1.950   1.225  1.3385 -0.4582 -0.7031
  784MOL0     H 5788   5.003   2.012   1.357  1.3665 -1.9814 -3.8287
  784MOL0     H 5789   4.720   2.079   1.310 -1.1141 -2.1312  4.1782
  784MOL0     H 5790   4.790   2.118   1.460 -1.5817  0.9795  0.6714
  784MOL0     H 5791   5.008   2.256   1.477  0.1564 -1.5351 -0.2051
  784MOL0     H 5792   5.108   2.569   1.343  1.6630  0.6979 -1.2351
  784MOL0     H 5793   5.200   2.429   1.402 -0.1744  3.4587  1.8918
  784MOL0     H 5794   5.198   2.517   1.113  1.6736  0.7632 -0.5792
  784MOL0     H 5795   5.330   2.561   1.215 -0.4036  0.6006  1.0010
  784MOL0     H 5796   5.250   2.275   1.139 -0.3908 -0.4909 -0.2430
  784MOL0     H 5797   5.356   2.315   1.278  1.0197 -0.4644 -0.8445
  784MOL0     H 5798   5.489   2.247   1.075  0.8681  0.2474 -0.0651
  784MOL0     H 5799   5.529   2.399   1.146  1.0643 -0.1151 -0.2429
  784MOL0     H 5800   5.405   2.523   0.729 -0.5631  1.6824  0.8312
  784MOL0     H 5801   5.575   2.649   0.611  1.0879  4.5928  2.5082
  784MOL0     H 5802   5.977   2.952   0.582  2.2416  0.9591 -0.3447
  784MOL0     H 5803   6.165   3.071   0.585 -0.0630 -0.4545  1.0441
  784MOL0     H 5804   6.407   3.104   0.456  1.1616 -0.0094 -1.3943
  784MOL0     H 5805   6.371   3.195   0.604  2.0070  2.0332 -0.7121
  784MOL0     H 5806   6.642   3.141   0.483  1.9676  0.3339  1.4088
  784MOL0     H 5807   6.555   3.285   0.519  0.0962 -1.5245 -2.1006
  784MOL0     H 5808   6.603   3.243   0.774  1.7434  0.7836 -0.7240
  784MOL0     H 5809   6.664   3.081   0.721 -0.1235 -0.5465  0.7109
  784MOL0     H 5810   6.842   3.247   0.787 -0.7817 -0.5144  0.8780
  784MOL0     H 5811   6.793   3.366   0.669  0.5600  1.2235 -0.9731
  784MOL0     H 5812   6.846   3.122   0.523 -1.4377 -1.1648  2.0377
  784MOL0     H 5813   6.980   3.135   0.630  2.5033  3.4915 -0.6578
  784MOL0     H 5814   6.896   3.369   0.451  0.4766  0.6113  1.9560
  784MOL0     H 5815   7.029   3.359   0.568  0.1638  0.4842 -1.1505
  784MOL0     H 5816   7.040   3.300   0.290 -0.4139 -1.0926 -1.2584
  784MOL0     H 5817   7.039   3.146   0.373 -1.6186  0.0779  0.4314
  784MOL0     H 5818   7.232   3.219   0.517 -1.0334 -1.5396 -0.5774
  784MOL0     H 5819   7.270   3.215   0.356  1.6194  1.0446  0.9443
  784MOL0     H 5820   6.398   2.755   0.754 -0.7751 -0.8149  1.2734
  784MOL0     H 5821   6.198   2.632   0.778 -1.9932  1.1347  2.8490
  784MOL0     H 5822   5.862   2.556   0.909 -0.0163  3.9798 -3.1114
  784MOL0     H 5823   5.702   2.409   1.027 -2.2685 -0.2030  1.7575
  784MOL0     H 5824   4.315   1.469   1.829 -1.4416 -0.7601  0.4398
  784MOL0     H 5825   4.095   1.369   1.795 -2.3783 -0.6960 -1.8307
  784MOL0     H 5826   3.799   1.147   1.595  1.2160  0.5620 -1.9054
  784MOL0     H 5827   3.588   1.071   1.586  1.6144  0.7259  2.5945
  784MOL0     H 5828   3.244   1.362   1.465  0.7680  0.7761 -0.0909
  784MOL0     H 5829   3.238   1.279   1.619 -2.8749 -1.3883  0.1656
  784MOL0     H 5830   3.126   1.153   1.372 -0.4014 -1.4031  0.3228
  784MOL0     H 5831   3.028   1.224   1.506 -1.1831 -3.6167  1.8481
  784MOL0     H 5832   3.112   1.057   1.649  0.5574  0.6294 -0.3300
  784MOL0     H 5833   3.235   1.003   1.531  1.0204  1.2270 -0.2861
  784MOL0     H 5834   3.078   0.935   1.372  2.2398 -2.3091  0.5256
  784MOL0     H 5835   3.066   0.825   1.508 -0.6575 -0.3855  0.0702
  784MOL0     H 5836   2.691   1.016   1.529  0.5669  2.0056 -0.3228
  784MOL0     H 5837   3.457   1.440   1.415 -0.5239  0.7092  2.7866
  784MOL0     H 5838   3.795   1.579   1.370 -0.1689  3.5443 -0.8390
  784MOL0     H 5839   3.615   1.594   1.324 -1.0120  0.1739  1.0283
  784MOL0     H 5840   3.670   1.659   1.470 -1.2310  0.6526 -1.4914
  785MOL0     O 5841   1.857   0.388   0.548 -0.2090  0.0871  0.0157
  785MOL0     C 5842   1.801   0.367   0.438  0.5493  0.1808  0.1872
  785MOL0     O 5843   1.733   0.255   0.392 -0.4087  0.0116 -1.3047
  785MOL0     C 5844   1.710   0.148   0.471 -0.7260  0.6843  0.5625
  785MOL0     C 5845   1.668   0.041   0.393  0.4673  0.6890 -0.9829
  785MOL0     C 5846   1.636  -0.082   0.455  0.1283 -0.5287 -0.5189
  785MOL0     C 5847   1.664  -0.104   0.595  0.3028 -0.5970 -0.3806
  785MOL0     O 5848   1.642  -0.226   0.667  0.0054 -0.6037  0.3156
  785MOL0     C 5849   1.725  -0.265   0.778 -0.2615 -0.0386  0.5901
  785MOL0     C 5850   1.660  -0.346   0.894  0.0306 -0.3994 -0.1358
  785MOL0     C 5851   1.639  -0.493   0.869  0.0369 -0.6350  0.5931
  785MOL0     C 5852   1.520  -0.516   0.776 -0.2112  0.0483 -0.0612
  785MOL0     C 5853   1.467  -0.665   0.745 -0.7166  0.4607  0.9455
  785MOL0     C 5854   1.329  -0.645   0.685 -0.7616  0.3271  0.7025
  785MOL0     C 5855   1.260  -0.774   0.644 -0.1231  0.1024 -0.0070
  785MOL0     C 5856   1.119  -0.736   0.583 -0.1269  0.2250  0.7159
  785MOL0     N 5857   1.019  -0.846   0.576 -0.0552 -0.1443 -0.1734
  785MOL0     C 5858   1.038  -0.969   0.515 -0.5609 -0.3436 -0.3091
  785MOL0     C 5859   0.921  -1.032   0.530  1.1339  0.1382 -0.1983
  785MOL0     C 5860   0.899  -1.172   0.475 -0.7285  0.0304 -0.0705
  785MOL0     C 5861   0.794  -1.176   0.369 -0.1236 -0.1419  0.5159
  785MOL0     C 5862   0.649  -1.157   0.418  0.1892  0.2363  1.0030
  785MOL0     C 5863   0.620  -1.240   0.545 -0.6087 -0.6982  0.2160
  785MOL0     O 5864   0.481  -1.251   0.546 -0.3586  0.0017 -0.7290
  785MOL0     C 5865   0.401  -1.183   0.631 -0.1839  0.3679 -0.4269
  785MOL0     C 5866   0.439  -1.068   0.703  0.5624  0.2818  0.2108
  785MOL0     C 5867   0.336  -1.000   0.777  0.2322 -0.1567 -0.6569
  785MOL0     C 5868   0.205  -1.046   0.794 -0.0653  0.6251  0.0062
  785MOL0     C 5869   0.108  -0.988   0.886 -0.5783  0.2470  0.0527
  785MOL0     O 5870   0.147  -0.888   0.962  0.4402 -0.2443  0.2085
  785MOL0     C 5871   0.082  -0.833   1.068  0.9582  0.2463  0.8843
  785MOL0     C 5872   0.107  -0.699   1.087  0.1411 -0.6749  0.0107
  785MOL0     C 5873   0.039  -0.625   1.184 -0.0556 -0.4047  0.3328
  785MOL0     C 5874  -0.061  -0.679   1.256 -0.2199  0.3778  0.0743
  785MOL0     O 5875  -0.116  -0.606   1.352  0.0741 -0.1163  0.2412
  785MOL0     C 5876  -0.092  -0.661   1.482 -0.1097 -0.4190 -1.0387
  785MOL0     C 5877  -0.130  -0.563   1.588 -0.6854 -0.6290 -0.1467
  785MOL0     C 5878  -0.090  -0.612   1.730  0.2445  0.1987  0.0014
  785MOL0     C 5879  -0.179  -0.729   1.777  0.2793 -0.2155  0.2047
  785MOL0     C 5880  -0.116  -0.790   1.901  0.1982 -0.2241 -0.2444
  785MOL0     C 5881  -0.113  -0.693   2.019  0.8651  0.8092 -0.9294
  785MOL0     C 5882  -0.252  -0.635   2.068  0.4401  0.0782  0.0114
  785MOL0     C 5883  -0.336  -0.747   2.128  0.7834  0.2234 -1.2864
  785MOL0    Cl 5884  -0.492  -0.674   2.193 -0.0485 -0.2128  0.1787
  785MOL0     C 5885  -0.089  -0.810   1.229  0.2169  0.5223 -0.1850
  785MOL0     C 5886  -0.025  -0.891   1.136  0.4431  0.3194  0.8479
  785MOL0     O 5887   0.002  -1.041   0.890 -0.1886 -0.6885 -0.1516
  785MOL0     C 5888   0.179  -1.173   0.736  0.5653  0.1696  0.0129
  785MOL0     C 5889   0.274  -1.234   0.653 -0.0987  0.1387  0.0126
  785MOL0     N 5890   0.830  -0.953   0.601 -0.2555 -0.3012  0.8188
  785MOL0     N 5891   0.894  -0.838   0.622  0.5401 -0.0605  0.2988
  785MOL0     C 5892   1.722   0.011   0.661  0.5050 -0.5489 -0.3885
  785MOL0     C 5893   1.744   0.134   0.599 -0.0320  0.0578 -0.7974
  785MOL0     C 5894   1.828   0.480   0.344  0.6502  0.5225 -0.7814
  785MOL0     C 5895   1.713   0.515   0.273 -0.7555  0.3036 -0.2801
  785MOL0     C 5896   1.720   0.623   0.184 -0.7727 -0.4229 -0.1874
  785MOL0     C 5897   1.843   0.685   0.160 -0.2003  0.6649 -0.6977
  785MOL0     O 5898   1.851   0.780   0.059 -0.0357  0.1423 -0.4295
  785MOL0     C 5899   1.964   0.864   0.050  0.2259 -0.1324 -0.6497
  785MOL0     C 5900   1.921   0.985  -0.037 -0.1597 -0.3576  0.0217
  785MOL0     C 5901   1.799   1.059   0.021 -0.4988 -0.1015  0.2511
  785MOL0     C 5902   1.743   1.154  -0.081 -0.6103  0.1982  0.5044
  785MOL0     C 5903   1.648   1.244  -0.019  0.4127 -0.1288 -0.2984
  785MOL0     C 5904   1.582   1.333   0.038  0.4937 -0.0902  0.3826
  785MOL0     C 5905   1.960   0.637   0.231 -0.0134 -0.4017  0.0939
  785MOL0     C 5906   1.948   0.552   0.331 -0.1110  0.7208 -0.0439
  785MOL0     C 5907   2.066   0.515   0.413 -0.6562 -1.3921  0.6099
  785MOL0     H 5908   1.649   0.056   0.288  1.4291  1.2242 -1.0927
  785MOL0     H 5909   1.595  -0.162   0.395  0.5301 -0.0451 -1.4572
  785MOL0     H 5910   1.784  -0.329   0.712 -2.0448  0.8300 -2.0254
  785MOL0     H 5911   1.784  -0.182   0.817 -1.2492  1.0178 -0.0804
  785MOL0     H 5912   1.560  -0.304   0.904 -0.0511 -1.0314  2.1290
  785MOL0     H 5913   1.717  -0.324   0.985 -0.8771 -0.9847  0.5915
  785MOL0     H 5914   1.616  -0.534   0.967  0.2050 -0.3573  0.7523
  785MOL0     H 5915   1.731  -0.535   0.827  1.8495  1.1172  2.5910
  785MOL0     H 5916   1.437  -0.468   0.829 -1.6627  0.6993 -2.7313
  785MOL0     H 5917   1.536  -0.461   0.682  1.4130 -0.8392 -0.3600
  785MOL0     H 5918   1.531  -0.712   0.670  0.1136 -0.0981  1.9747
  785MOL0     H 5919   1.470  -0.730   0.833  2.0690  1.2019  1.5053
  785MOL0     H 5920   1.268  -0.589   0.757  0.0441  0.2594  1.4467
  785MOL0     H 5921   1.336  -0.579   0.598  0.2529  1.1074  1.3604
  785MOL0     H 5922   1.248  -0.835   0.734  1.5769 -1.9431 -1.0646
  785MOL0     H 5923   1.321  -0.818   0.564  1.5409  1.0545  0.6788
  785MOL0     H 5924   1.065  -0.661   0.640 -0.0327  0.6392  0.2683
  785MOL0     H 5925   1.139  -0.706   0.479  2.1983  1.3199  1.4125
  785MOL0     H 5926   1.115  -1.007   0.448 -1.3582  1.6288 -2.4761
  785MOL0     H 5927   0.998  -1.196   0.435  0.6474  2.4350  1.5632
  785MOL0     H 5928   0.875  -1.254   0.543  3.6661 -1.5551 -0.0803
  785MOL0     H 5929   0.819  -1.095   0.301  3.4614  0.2715  2.1094
  785MOL0     H 5930   0.804  -1.272   0.316  0.4151  0.5618 -0.6904
  785MOL0     H 5931   0.579  -1.171   0.335  1.5895 -1.3974  0.0409
  785MOL0     H 5932   0.637  -1.052   0.446 -0.8250  1.1598 -2.4506
  785MOL0     H 5933   0.677  -1.194   0.627  2.0539 -0.7483 -1.4873
  785MOL0     H 5934   0.647  -1.344   0.526 -4.9228 -1.3480 -4.4378
  785MOL0     H 5935   0.543  -1.038   0.705  0.8827 -0.7828  0.5299
  785MOL0     H 5936   0.357  -0.913   0.837  2.1613 -1.5847  0.8884
  785MOL0     H 5937   0.182  -0.651   1.025  0.1961 -0.1635  0.4697
  785MOL0     H 5938   0.056  -0.518   1.192 -3.3784  0.2338  0.3053
  785MOL0     H 5939  -0.152  -0.748   1.510 -2.6313  1.9949  1.6656
  785MOL0     H 5940   0.014  -0.691   1.480  0.0316  0.0241 -0.5642
  785MOL0     H 5941  -0.070  -0.473   1.575  1.3601 -2.0251 -0.7766
  785MOL0     H 5942  -0.238  -0.545   1.585 -1.2790 -2.0499  4.3261
  785MOL0     H 5943   0.010  -0.656   1.726  0.7308  1.1823  0.8796
  785MOL0     H 5944  -0.090  -0.524   1.795  0.3656 -0.6730  1.2193
  785MOL0     H 5945  -0.179  -0.802   1.695  0.9140 -0.8020  0.7089
  785MOL0     H 5946  -0.283  -0.696   1.778  0.0434 -0.7392 -1.9960
  785MOL0     H 5947  -0.017  -0.831   1.879  0.8613  0.7948  0.7563
  785MOL0     H 5948  -0.169  -0.882   1.930  4.3330 -2.8718 -0.2618
  785MOL0     H 5949  -0.071  -0.736   2.110 -3.8066 -2.3111  0.1240
  785MOL0     H 5950  -0.055  -0.607   1.985  0.3289 -0.0172 -4.3274
  785MOL0     H 5951  -0.311  -0.601   1.982 -0.3133 -0.8847  0.1351
  785MOL0     H 5952  -0.231  -0.555   2.140  0.6489  0.5356 -0.5550
  785MOL0     H 5953  -0.356  -0.816   2.045 -2.2579  2.0892 -2.2565
  785MOL0     H 5954  -0.285  -0.807   2.204  0.1633  0.0560 -0.9965
  785MOL0     H 5955  -0.166  -0.862   1.286 -0.3008  0.4504 -0.9252
  785MOL0     H 5956  -0.068  -0.990   1.123 -1.2678  1.0039  1.0938
  785MOL0     H 5957   0.090  -1.229   0.764  0.1833  1.6443  1.9921
  785MOL0     H 5958   0.251  -1.336   0.624 -0.6832  0.3020 -0.1250
  785MOL0     H 5959   1.747   0.006   0.767  0.8243 -0.0818 -0.4392
  785MOL0     H 5960   1.799   0.202   0.663  0.0502 -3.1383  2.8813
  785MOL0     H 5961   1.629   0.446   0.277  0.9809 -1.9984 -1.1708
  785MOL0     H 5962   1.641   0.665   0.123 -1.6760  0.1859  1.3342
  785MOL0     H 5963   2.037   0.808  -0.008  0.7192 -0.5891  0.3806
  785MOL0     H 5964   2.009   0.871   0.150  0.7243 -3.1528 -0.5691
  785MOL0     H 5965   1.898   0.939  -0.134  2.2518 -1.0833 -0.2966
  785MOL0     H 5966   2.002   1.056  -0.057 -1.2992  0.4775 -1.9825
  785MOL0     H 5967   1.842   1.119   0.102  1.1900 -0.4086 -0.3900
  785MOL0     H 5968   1.721   0.989   0.052  0.4763 -1.2782  0.0938
  785MOL0     H 5969   1.810   1.224  -0.131 -1.9135  0.7222 -0.5582
  785MOL0     H 5970   1.696   1.098  -0.163  0.6607  0.7701 -0.6668
  785MOL0     H 5971   1.542   1.414   0.096 -0.9144  0.1856 -0.8990
  785MOL0     H 5972   2.050   0.684   0.192 -0.2763 -0.9432 -1.2398
  785MOL0     H 5973   2.153   0.572   0.377 -1.7008 -0.6862 -0.9002
  785MOL0     H 5974   2.048   0.529   0.520  2.8874 -2.3816  1.4981
  785MOL0     H 5975   2.080   0.407   0.403 -0.8161 -1.3444 -0.1994
  786MOL0     O 5976   7.205   7.344   8.125  0.2332 -1.0655 -0.3489
  786MOL0     C 5977   7.167   7.443   8.191  0.0693  0.3691 -0.3920
  786MOL0     O 5978   7.239   7.553   8.220 -0.0411  0.1109 -0.6022
  786MOL0     C 5979   7.344   7.590   8.140 -0.6827  0.4691  0.0995
  786MOL0     C 5980   7.335   7.614   8.000 -0.5338 -0.5100 -0.0988
  786MOL0     C 5981   7.452   7.635   7.933 -0.6256 -0.7401  0.4964
  786MOL0     C 5982   7.580   7.622   7.996  0.7506  0.0286 -0.8908
  786MOL0     O 5983   7.683   7.636   7.924 -0.1278 -0.3347  0.0970
  786MOL0     C 5984   7.786   7.539   7.932  0.3966  0.0487 -0.2440
  786MOL0     C 5985   7.865   7.558   7.795  0.8096 -0.8786  0.9096
  786MOL0     C 5986   7.982   7.467   7.784  0.1696  0.5620  0.2180
  786MOL0     C 5987   7.991   7.418   7.641  0.1444 -0.4373 -0.2243
  786MOL0     C 5988   8.135   7.372   7.603 -0.1217  0.0804 -0.4397
  786MOL0     C 5989   8.147   7.342   7.454 -0.5723  0.3082  0.4280
  786MOL0     C 5990   8.149   7.188   7.428  0.2139  0.6372  0.3483
  786MOL0     C 5991   8.169   7.162   7.281  0.3990  0.6981 -0.0722
  786MOL0     N 5992   8.296   7.212   7.233 -0.3395  0.0197  0.0110
  786MOL0     C 5993   8.421   7.177   7.270  0.0721  0.8695  0.3444
  786MOL0     C 5994   8.501   7.266   7.214  0.7303 -0.4776 -0.3151
  786MOL0     C 5995   8.650   7.271   7.209  0.0996  0.2423 -0.0037
  786MOL0     C 5996   8.679   7.370   7.318  0.3421 -1.2164  0.0942
  786MOL0     C 5997   8.662   7.330   7.470 -1.5822  0.1730  0.6925
  786MOL0     C 5998   8.721   7.196   7.514  0.0224  0.5474 -0.1160
  786MOL0     O 5999   8.719   7.174   7.656 -0.0476 -0.2151  0.1096
  786MOL0     C 6000   8.832   7.166   7.725 -0.6550  0.3415 -0.5663
  786MOL0     C 6001   8.841   7.262   7.828  0.7423  0.2302  0.2559
  786MOL0     C 6002   8.959   7.255   7.909  0.6353 -0.5094 -0.9543
  786MOL0     C 6003   9.065   7.170   7.885 -0.6487 -0.1080 -0.2815
  786MOL0     C 6004   9.195   7.183   7.960  0.5401 -0.1236  0.8322
  786MOL0     O 6005   9.294   7.103   7.918 -0.8279  0.4463  0.6742
  786MOL0     C 6006   9.395   7.078   8.005 -0.4628 -0.2278  0.5823
  786MOL0     C 6007   9.472   7.193   8.043 -0.7180  0.3898 -0.5613
  786MOL0     C 6008   9.578   7.171   8.131 -0.0721 -0.4273  0.0968
  786MOL0     C 6009   9.605   7.049   8.184  0.0864  1.0548 -0.4247
  786MOL0     O 6010   9.698   7.029   8.286  0.6697 -0.4599 -0.1220
  786MOL0     C 6011   9.649   6.980   8.411  0.5317 -0.6079  0.2585
  786MOL0     C 6012   9.769   6.919   8.493  0.3678 -0.4513 -0.7522
  786MOL0     C 6013   9.894   7.006   8.489 -0.9382  0.1919  0.1446
  786MOL0     C 6014  10.006   6.912   8.545  0.3628  0.5110  1.4731
  786MOL0     C 6015  10.129   6.989   8.589 -0.2002 -0.0344  0.2705
  786MOL0     C 6016  10.256   6.908   8.590 -0.0855 -0.2032 -1.1667
  786MOL0     C 6017  10.377   7.006   8.633 -0.4827 -0.2300  0.8213
  786MOL0     C 6018  10.404   6.992   8.788 -0.4750 -1.1224  0.5284
  786MOL0    Cl 6019  10.482   6.830   8.836  0.3153 -0.1772 -0.3579
  786MOL0     C 6020   9.526   6.941   8.145 -0.6171  0.7251 -0.2557
  786MOL0     C 6021   9.423   6.948   8.047 -0.6575 -0.0198 -0.4858
  786MOL0     O 6022   9.189   7.249   8.068 -0.2607 -0.8095 -0.0536
  786MOL0     C 6023   9.050   7.078   7.787 -0.6365  0.4116  0.5877
  786MOL0     C 6024   8.939   7.082   7.705 -0.2669  0.3030 -0.4594
  786MOL0     N 6025   8.423   7.358   7.150 -0.5679 -0.0991  0.2103
  786MOL0     N 6026   8.304   7.324   7.158 -0.1111 -0.2601  0.0760
  786MOL0     C 6027   7.587   7.601   8.134  0.5247  0.1491  0.0910
  786MOL0     C 6028   7.469   7.585   8.201 -0.6463  0.6250 -0.0438
  786MOL0     C 6029   7.028   7.433   8.235  1.1058 -0.1491  0.1208
  786MOL0     C 6030   6.938   7.339   8.164  0.0644 -0.4604  0.8759
  786MOL0     C 6031   6.802   7.320   8.208 -0.6911 -0.1754  0.0256
  786MOL0     C 6032   6.750   7.398   8.310  0.3673 -0.8004 -0.6019
  786MOL0     O 6033   6.625   7.376   8.361  0.5411 -0.3021  0.1146
  786MOL0     C 6034   6.530   7.324   8.274  0.1544  0.2337 -0.4072
  786MOL0     C 6035   6.390   7.323   8.335 -0.2483  0.6164  0.3132
  786MOL0     C 6036   6.287   7.252   8.240  0.1583 -0.1953 -0.0970
  786MOL0     C 6037   6.140   7.286   8.267 -0.4458 -0.4180 -0.3804
  786MOL0     C 6038   6.104   7.252   8.402 -0.1014  0.6542 -1.3160
  786MOL0     C 6039   6.097   7.227   8.519  0.4494 -0.1782  0.2707
  786MOL0     C 6040   6.835   7.487   8.374 -0.0597 -0.6014  0.0638
  786MOL0     C 6041   6.969   7.506   8.340  0.2896  0.2818  0.1870
  786MOL0     C 6042   7.052   7.601   8.419 -0.6060 -0.0415 -1.1779
  786MOL0     H 6043   7.243   7.613   7.943 -0.5993 -2.2499  0.0003
  786MOL0     H 6044   7.454   7.678   7.833  3.4611  0.8420  1.0855
  786MOL0     H 6045   7.848   7.554   8.021  0.8239 -1.2898 -0.2887
  786MOL0     H 6046   7.754   7.435   7.924  1.5266 -0.4274  1.1595
  786MOL0     H 6047   7.897   7.662   7.790  1.7284 -1.2243 -1.2256
  786MOL0     H 6048   7.793   7.546   7.714 -0.4659 -0.7316  1.9748
  786MOL0     H 6049   7.963   7.377   7.843  1.2955 -1.4072 -2.2743
  786MOL0     H 6050   8.075   7.519   7.811  0.3168  0.3252  0.1695
  786MOL0     H 6051   7.913   7.348   7.609 -1.5924  1.4251 -0.2703
  786MOL0     H 6052   7.979   7.512   7.586  0.7151  0.2667  0.8324
  786MOL0     H 6053   8.202   7.451   7.636 -2.2251  2.1105 -0.7233
  786MOL0     H 6054   8.158   7.284   7.663 -0.1098  0.7127  0.4961
  786MOL0     H 6055   8.073   7.405   7.403  0.5663  0.4803 -1.1310
  786MOL0     H 6056   8.248   7.380   7.432  0.3836 -0.2218  3.5132
  786MOL0     H 6057   8.061   7.128   7.454  1.4536 -1.4311 -0.0057
  786MOL0     H 6058   8.233   7.155   7.491  0.0840  0.7440  0.5765
  786MOL0     H 6059   8.161   7.053   7.268  1.5337  0.3002  2.1098
  786MOL0     H 6060   8.085   7.207   7.227 -1.0931 -3.0926 -1.2488
  786MOL0     H 6061   8.461   7.092   7.323  1.2741  1.8192  1.0167
  786MOL0     H 6062   8.702   7.177   7.230  1.3132  0.9281  0.1172
  786MOL0     H 6063   8.684   7.313   7.114  0.8413  1.4492  0.7710
  786MOL0     H 6064   8.782   7.398   7.296  0.4232 -1.3467  0.3122
  786MOL0     H 6065   8.621   7.461   7.297  1.2110 -0.5013  0.7140
  786MOL0     H 6066   8.560   7.318   7.510 -0.8107 -1.2385  2.3793
  786MOL0     H 6067   8.705   7.412   7.527  0.3914 -0.4410  0.1688
  786MOL0     H 6068   8.825   7.178   7.483  0.4143  1.2119  0.7570
  786MOL0     H 6069   8.663   7.114   7.470 -2.3767 -0.1362  3.8962
  786MOL0     H 6070   8.761   7.333   7.847 -0.1226 -0.6642  0.0312
  786MOL0     H 6071   8.956   7.326   7.990 -1.3269 -0.8600 -0.6879
  786MOL0     H 6072   9.451   7.293   8.007  1.6511  1.6482  1.2113
  786MOL0     H 6073   9.629   7.258   8.172  0.0105 -0.3740 -0.1195
  786MOL0     H 6074   9.617   7.058   8.481  0.3356 -0.6429  0.2088
  786MOL0     H 6075   9.563   6.915   8.391 -0.1783  0.5447 -0.5161
  786MOL0     H 6076   9.745   6.925   8.600  0.2500  0.5859 -0.8307
  786MOL0     H 6077   9.783   6.813   8.468 -0.4779 -0.8384  0.3064
  786MOL0     H 6078   9.921   7.034   8.387  0.7936 -0.6524  0.3388
  786MOL0     H 6079   9.894   7.101   8.544  4.3781  0.4891  0.1256
  786MOL0     H 6080  10.035   6.841   8.467  0.0271  0.9386  0.9441
  786MOL0     H 6081   9.970   6.848   8.626  1.2939 -1.6239  0.2733
  786MOL0     H 6082  10.116   7.048   8.680  1.5973  0.6943  0.0863
  786MOL0     H 6083  10.148   7.058   8.506  3.7896 -0.4567  0.6637
  786MOL0     H 6084  10.248   6.817   8.651  0.1141  1.0299  0.7686
  786MOL0     H 6085  10.276   6.876   8.487 -1.5844 -2.9630 -0.6894
  786MOL0     H 6086  10.359   7.108   8.598  1.8827  1.0685  3.0732
  786MOL0     H 6087  10.474   6.972   8.597 -0.0148 -0.8631  2.5541
  786MOL0     H 6088  10.470   7.077   8.807 -0.1983 -1.3816  0.7207
  786MOL0     H 6089  10.301   7.005   8.823 -1.3001 -0.2266 -2.0142
  786MOL0     H 6090   9.542   6.839   8.180 -0.2666  0.3741 -1.3909
  786MOL0     H 6091   9.363   6.860   8.025 -0.6706 -0.6049  1.6711
  786MOL0     H 6092   9.132   7.012   7.759 -2.1943 -1.0180 -0.8381
  786MOL0     H 6093   8.924   7.002   7.632  3.1142 -0.5330 -0.4032
  786MOL0     H 6094   7.683   7.592   8.182  1.2213  0.3776 -1.1951
  786MOL0     H 6095   7.473   7.564   8.308  0.7303  0.8357 -0.0362
  786MOL0     H 6096   6.963   7.289   8.071  1.3774 -0.3238  1.1367
  786MOL0     H 6097   6.749   7.239   8.159  2.2002 -2.1083 -0.1518
  786MOL0     H 6098   6.551   7.225   8.232 -0.5335 -0.1147  0.0591
  786MOL0     H 6099   6.526   7.393   8.189  1.1611 -0.3684 -0.9725
  786MOL0     H 6100   6.361   7.425   8.364  1.4887  2.1878 -2.9265
  786MOL0     H 6101   6.391   7.260   8.425 -1.1724 -0.4777 -0.4287
  786MOL0     H 6102   6.313   7.146   8.243  3.3399  0.2266 -3.8671
  786MOL0     H 6103   6.306   7.284   8.137  0.0279 -1.6162 -0.5776
  786MOL0     H 6104   6.109   7.387   8.237  0.1876  0.0671  0.5046
  786MOL0     H 6105   6.088   7.212   8.206  0.2022 -2.4012  1.3369
  786MOL0     H 6106   6.083   7.218   8.625  0.7141 -0.3131  0.2941
  786MOL0     H 6107   6.788   7.541   8.456  1.8446  0.7834  0.3096
  786MOL0     H 6108   7.106   7.684   8.371  1.0674 -0.3799  0.0344
  786MOL0     H 6109   7.001   7.650   8.503 -0.1578 -0.8217 -0.4287
  786MOL0     H 6110   7.132   7.542   8.463 -1.1569 -1.1604 -1.6533
  787MOL0     O 6111   9.062   2.609   4.078 -0.0154 -1.0109  0.2965
  787MOL0     C 6112   9.086   2.730   4.065 -0.1588  0.2262  0.2102
  787MOL0     O 6113   9.213   2.791   4.054  1.1418 -0.2965  0.1717
  787MOL0     C 6114   9.327   2.707   4.054  0.4101 -0.0201  0.0484
  787MOL0     C 6115   9.352   2.605   4.154 -1.0879 -0.0719 -0.2942
  787MOL0     C 6116   9.467   2.523   4.140  0.5487 -1.0643  0.7077
  787MOL0     C 6117   9.568   2.567   4.052  0.0061  1.2601  1.0717
  787MOL0     O 6118   9.688   2.500   4.029  0.6103  0.6473  0.7339
  787MOL0     C 6119   9.720   2.379   4.091 -0.5908 -0.3612 -0.0434
  787MOL0     C 6120   9.843   2.319   4.032 -0.4234  0.8164 -0.8684
  787MOL0     C 6121   9.974   2.347   4.116 -0.5472 -0.4387  0.9995
  787MOL0     C 6122  10.101   2.321   4.023  0.3355 -0.7834  0.4079
  787MOL0     C 6123  10.239   2.334   4.095 -0.3541 -0.3415  0.3913
  787MOL0     C 6124  10.248   2.466   4.172  0.1112 -0.3245  0.3794
  787MOL0     C 6125  10.384   2.494   4.216 -0.2376  0.6929 -0.1629
  787MOL0     C 6126  10.419   2.446   4.356 -0.6548  1.0734 -0.1473
  787MOL0     N 6127  10.569   2.445   4.375  0.2260 -0.6697  0.5160
  787MOL0     C 6128  10.661   2.552   4.390  0.8651 -0.1661 -0.0652
  787MOL0     C 6129  10.785   2.507   4.386 -0.3453  0.3263 -0.2425
  787MOL0     C 6130  10.905   2.590   4.404 -0.2721  0.0091  0.1005
  787MOL0     C 6131  11.039   2.511   4.386  0.3925  0.6842 -0.7058
  787MOL0     C 6132  11.155   2.602   4.391 -0.5249  0.0435 -0.0236
  787MOL0     C 6133  11.285   2.535   4.361  0.6265 -0.3448  0.4887
  787MOL0     O 6134  11.389   2.640   4.339  0.3951 -0.0730  0.0817
  787MOL0     C 6135  11.510   2.600   4.296  0.0055 -0.1684 -0.1753
  787MOL0     C 6136  11.557   2.470   4.285 -0.0957  0.0543  0.2445
  787MOL0     C 6137  11.693   2.441   4.247  0.0835  0.3260  0.2820
  787MOL0     C 6138  11.786   2.549   4.231  0.3907 -0.0610  0.7321
  787MOL0     C 6139  11.920   2.524   4.173 -0.6165 -0.6501 -0.0310
  787MOL0     O 6140  12.002   2.627   4.160  0.0052 -0.5086 -0.1319
  787MOL0     C 6141  12.129   2.614   4.115 -0.3581 -0.0466 -0.4136
  787MOL0     C 6142  12.204   2.712   4.174 -0.2962  0.1481  0.4126
  787MOL0     C 6143  12.334   2.721   4.116  0.1307  0.5258 -0.1334
  787MOL0     C 6144  12.386   2.641   4.023  1.1970  0.6782  0.3431
  787MOL0     O 6145  12.517   2.671   3.982  1.1346  0.3400 -0.4462
  787MOL0     C 6146  12.538   2.779   3.890 -0.6012  0.0969  0.4201
  787MOL0     C 6147  12.689   2.818   3.889  0.2860 -0.8704 -0.4894
  787MOL0     C 6148  12.746   2.847   4.030  0.6193  0.4190 -0.2647
  787MOL0     C 6149  12.890   2.874   4.032 -0.6025  0.0947  0.4518
  787MOL0     C 6150  12.938   2.976   3.924  0.5991  0.7336 -0.6478
  787MOL0     C 6151  12.856   3.108   3.930 -0.8964 -0.0538 -0.1628
  787MOL0     C 6152  12.900   3.210   3.829 -0.4299  0.3151 -0.7219
  787MOL0     C 6153  12.835   3.347   3.870 -0.7580  0.2202 -0.1123
  787MOL0    Cl 6154  12.661   3.337   3.893  0.3504 -0.2824 -0.1442
  787MOL0     C 6155  12.317   2.526   3.982  0.4408  0.6783 -0.0716
  787MOL0     C 6156  12.182   2.513   4.029 -0.2686 -0.5205  0.7753
  787MOL0     O 6157  11.960   2.405   4.169  0.1652 -0.1648  0.3032
  787MOL0     C 6158  11.738   2.677   4.244 -0.2436 -0.2494  0.3489
  787MOL0     C 6159  11.602   2.699   4.272  0.3379  0.1477 -0.2751
  787MOL0     N 6160  10.776   2.371   4.356  0.1976  0.2589 -1.5269
  787MOL0     N 6161  10.655   2.342   4.355  0.0832  0.3513  0.6552
  787MOL0     C 6162   9.544   2.668   3.964 -0.7071 -0.3340  0.0449
  787MOL0     C 6163   9.429   2.742   3.969 -1.7082  0.4324 -0.4787
  787MOL0     C 6164   8.965   2.825   4.048 -0.5800 -0.1165 -0.3638
  787MOL0     C 6165   8.989   2.954   4.000 -0.7154 -0.8047  0.4751
  787MOL0     C 6166   8.894   3.049   3.991  0.3462  0.1453  0.2502
  787MOL0     C 6167   8.767   3.022   4.041 -0.6515 -0.3969 -0.1983
  787MOL0     O 6168   8.677   3.128   4.035 -0.5099  0.0273 -0.0226
  787MOL0     C 6169   8.543   3.112   4.084  0.6158 -0.2621 -0.2724
  787MOL0     C 6170   8.454   3.066   3.975 -0.5743 -0.7180 -0.5952
  787MOL0     C 6171   8.335   3.001   4.029  0.0623  0.0982  0.0468
  787MOL0     C 6172   8.237   2.986   3.909 -0.2139 -0.0894 -1.0763
  787MOL0     C 6173   8.134   2.897   3.968 -0.0871  0.2909  0.7739
  787MOL0     C 6174   8.055   2.827   4.022 -0.4646 -0.8557 -0.3468
  787MOL0     C 6175   8.739   2.895   4.091 -0.4787 -0.1765 -0.0800
  787MOL0     C 6176   8.834   2.795   4.086  0.5166  0.6179  0.4270
  787MOL0     C 6177   8.795   2.666   4.155  1.2400 -0.2542 -0.3612
  787MOL0     H 6178   9.272   2.585   4.224 -0.2707 -1.8493  0.1874
  787MOL0     H 6179   9.482   2.436   4.203  0.6764 -0.3803  1.6560
  787MOL0     H 6180   9.727   2.394   4.199 -1.2998  0.6936 -0.1312
  787MOL0     H 6181   9.641   2.311   4.057 -1.4752  1.7623 -2.6081
  787MOL0     H 6182   9.853   2.361   3.932  2.6240 -0.6913 -1.3041
  787MOL0     H 6183   9.831   2.212   4.015  0.3602  0.5898 -0.0925
  787MOL0     H 6184   9.978   2.291   4.209  2.0543 -1.3833  0.3958
  787MOL0     H 6185   9.972   2.456   4.130  1.2350 -0.0995 -0.9198
  787MOL0     H 6186  10.093   2.219   3.987 -0.3920 -0.0692 -1.5790
  787MOL0     H 6187  10.104   2.387   3.936 -0.3148  0.6478  1.4191
  787MOL0     H 6188  10.252   2.251   4.165  2.6794 -2.5988 -2.5240
  787MOL0     H 6189  10.316   2.323   4.019  0.7409  0.2145  1.3770
  787MOL0     H 6190  10.225   2.539   4.094 -1.7514  1.0028  2.0951
  787MOL0     H 6191  10.178   2.475   4.255  1.9876 -0.2642  2.0231
  787MOL0     H 6192  10.389   2.603   4.224  0.9998  0.5450  1.3828
  787MOL0     H 6193  10.462   2.455   4.150 -3.9038 -1.8641 -3.4609
  787MOL0     H 6194  10.374   2.510   4.433 -1.3567  1.1231 -0.5926
  787MOL0     H 6195  10.388   2.346   4.387 -0.8531  1.2116  0.1017
  787MOL0     H 6196  10.652   2.659   4.407 -3.6839 -0.3726  0.0079
  787MOL0     H 6197  10.899   2.665   4.325 -1.4339 -1.7358 -1.5464
  787MOL0     H 6198  10.900   2.651   4.495 -3.1070 -1.5354  1.1188
  787MOL0     H 6199  11.040   2.427   4.456 -0.4519 -1.5689 -3.2076
  787MOL0     H 6200  11.036   2.457   4.290  2.6346  0.6703 -0.8230
  787MOL0     H 6201  11.163   2.648   4.490 -0.0026 -0.8260  0.3474
  787MOL0     H 6202  11.133   2.690   4.329  0.1090  0.3391  0.1606
  787MOL0     H 6203  11.273   2.468   4.275  1.0638 -0.6881  0.6910
  787MOL0     H 6204  11.297   2.473   4.451  1.0849  0.7494  1.2008
  787MOL0     H 6205  11.489   2.389   4.309  1.0787 -0.0279  4.1432
  787MOL0     H 6206  11.723   2.338   4.236  0.5344  0.0366  3.4149
  787MOL0     H 6207  12.173   2.790   4.243  1.6070 -0.5849  2.1834
  787MOL0     H 6208  12.382   2.811   4.155  1.4863  0.0271 -0.6084
  787MOL0     H 6209  12.516   2.744   3.788  0.9768 -2.7374  0.9448
  787MOL0     H 6210  12.473   2.864   3.914 -0.0871  1.5118 -2.6226
  787MOL0     H 6211  12.737   2.737   3.835 -0.2436 -1.3378 -0.2746
  787MOL0     H 6212  12.690   2.905   3.823  1.1508  1.7387  2.7115
  787MOL0     H 6213  12.691   2.931   4.072 -0.5094 -0.9074  0.9992
  787MOL0     H 6214  12.720   2.765   4.097 -0.7827  0.9112 -0.1764
  787MOL0     H 6215  12.936   2.775   4.021  0.1045  0.3580  1.0083
  787MOL0     H 6216  12.922   2.926   4.123 -1.2172 -0.7675  1.1906
  787MOL0     H 6217  12.916   2.941   3.822 -4.0780  1.4895 -0.1388
  787MOL0     H 6218  13.044   3.002   3.936  0.1044  3.8424 -1.8349
  787MOL0     H 6219  12.750   3.093   3.907 -0.5860 -0.0790 -1.6952
  787MOL0     H 6220  12.865   3.147   4.031  0.9884 -0.3923 -0.1670
  787MOL0     H 6221  12.861   3.187   3.730 -0.8241  0.7128 -0.6630
  787MOL0     H 6222  13.009   3.214   3.827 -0.4683  1.3598 -1.4179
  787MOL0     H 6223  12.889   3.391   3.954  1.6132  0.7021 -1.7865
  787MOL0     H 6224  12.859   3.408   3.782  0.9726 -1.3244 -0.7520
  787MOL0     H 6225  12.375   2.463   3.914  3.3593 -0.1798  2.9232
  787MOL0     H 6226  12.115   2.431   4.007  1.3430 -1.7665  0.3442
  787MOL0     H 6227  11.807   2.760   4.236 -1.4564  0.8513  0.8620
  787MOL0     H 6228  11.563   2.801   4.274  1.2521  0.5261 -0.8919
  787MOL0     H 6229   9.619   2.694   3.890 -2.8474  2.9252 -1.2223
  787MOL0     H 6230   9.408   2.826   3.904 -3.8930  1.4254  1.3563
  787MOL0     H 6231   9.090   2.986   3.978 -1.1447  1.6895  1.7507
  787MOL0     H 6232   8.925   3.141   3.944  1.2900 -1.1940 -1.9104
  787MOL0     H 6233   8.507   3.211   4.114  2.0436  0.3527 -0.4949
  787MOL0     H 6234   8.535   3.050   4.175 -1.2388  1.7080  1.0057
  787MOL0     H 6235   8.509   2.983   3.931  1.4225 -1.0930  2.3361
  787MOL0     H 6236   8.430   3.143   3.901 -1.2366  0.7001  1.0213
  787MOL0     H 6237   8.278   3.052   4.107 -0.6290 -1.1632  0.4046
  787MOL0     H 6238   8.360   2.904   4.073  1.7473  0.4810 -0.0245
  787MOL0     H 6239   8.202   3.085   3.878  4.8240  3.4272  2.6888
  787MOL0     H 6240   8.295   2.934   3.833  0.4453 -2.3499  0.8448
  787MOL0     H 6241   7.987   2.763   4.075 -2.1333  0.3744 -0.9514
  787MOL0     H 6242   8.640   2.871   4.130  0.6601 -0.6266  2.7602
  787MOL0     H 6243   8.691   2.678   4.188  1.4132  1.5989 -0.4058
  787MOL0     H 6244   8.788   2.579   4.087 -0.8354 -0.0835 -0.4502
  787MOL0     H 6245   8.850   2.643   4.246  1.9632 -3.0117 -1.3855
  788MOL0     O 6246   7.606   5.888   4.783 -0.0501 -0.2973  0.0717
  788MOL0     C 6247   7.566   5.774   4.803 -0.2586  1.0364 -0.1565
  788MOL0     O 6248   7.640   5.673   4.850 -0.2695 -0.2461  0.7830
  788MOL0     C 6249   7.772   5.662   4.821 -0.3729 -0.0092 -0.5131
  788MOL0     C 6250   7.851   5.607   4.926 -1.2156  0.1306 -0.5545
  788MOL0     C 6251   7.994   5.622   4.913  0.0118 -0.4386 -0.3558
  788MOL0     C 6252   8.048   5.660   4.785  0.3667 -0.1163 -1.0627
  788MOL0     O 6253   8.182   5.664   4.771 -0.2229 -0.5315 -0.4027
  788MOL0     C 6254   8.266   5.707   4.874 -0.1150  0.4555 -0.6936
  788MOL0     C 6255   8.409   5.746   4.843 -0.3256  0.5775  0.3991
  788MOL0     C 6256   8.495   5.623   4.796  0.8147 -0.3382 -0.6598
  788MOL0     C 6257   8.626   5.670   4.751  0.4285  0.4431  0.2469
  788MOL0     C 6258   8.706   5.561   4.670  0.4660 -0.4584  0.0297
  788MOL0     C 6259   8.830   5.619   4.619 -0.6737 -0.5516 -0.9242
  788MOL0     C 6260   8.933   5.520   4.568 -0.7308  0.2421 -0.3592
  788MOL0     C 6261   9.002   5.442   4.685 -0.1249  0.4536  1.1164
  788MOL0     N 6262   9.040   5.526   4.803 -0.5476  0.5877  0.0320
  788MOL0     C 6263   8.962   5.540   4.922  0.1123  1.0951 -0.8898
  788MOL0     C 6264   9.040   5.598   5.011 -0.5859 -0.5309 -0.4360
  788MOL0     C 6265   9.021   5.616   5.161  0.0069 -0.3471  0.3326
  788MOL0     C 6266   9.011   5.766   5.195  0.5926  0.1735  0.2131
  788MOL0     C 6267   8.884   5.823   5.140 -0.4291 -0.2779  0.6740
  788MOL0     C 6268   8.752   5.776   5.209 -0.4110  0.1029  0.0447
  788MOL0     O 6269   8.694   5.663   5.154  0.0018  0.4551  0.1278
  788MOL0     C 6270   8.569   5.627   5.192 -0.5173 -0.5007 -0.0193
  788MOL0     C 6271   8.479   5.706   5.275  0.2514  0.1215  0.0708
  788MOL0     C 6272   8.346   5.666   5.296  0.4008  0.0445  0.5426
  788MOL0     C 6273   8.290   5.546   5.244 -0.6875  0.3349  0.7398
  788MOL0     C 6274   8.152   5.525   5.250  0.0296  0.7405 -1.0172
  788MOL0     O 6275   8.075   5.632   5.278 -0.0627 -0.1947  0.7275
  788MOL0     C 6276   7.942   5.606   5.322 -1.0388  0.1028  0.0310
  788MOL0     C 6277   7.895   5.505   5.405 -1.7071 -0.4469  0.8861
  788MOL0     C 6278   7.763   5.478   5.416 -0.2779  0.0802 -0.0873
  788MOL0     C 6279   7.670   5.573   5.375  0.0439  0.1759  0.5909
  788MOL0     O 6280   7.534   5.541   5.388  0.6884  0.1655 -0.0171
  788MOL0     C 6281   7.436   5.613   5.311 -0.3554 -0.5887 -0.2607
  788MOL0     C 6282   7.310   5.525   5.292 -0.1708 -0.4404  0.2543
  788MOL0     C 6283   7.200   5.618   5.270  1.1279  0.0864  0.1133
  788MOL0     C 6284   7.063   5.543   5.260 -0.3049 -0.0167  0.0507
  788MOL0     C 6285   6.959   5.633   5.188  0.3012  0.1313 -0.1080
  788MOL0     C 6286   6.821   5.570   5.199  0.5144  0.3679 -0.5448
  788MOL0     C 6287   6.719   5.654   5.126  0.8682  0.5855 -0.1647
  788MOL0     C 6288   6.574   5.622   5.182  0.4878  1.0651 -0.1318
  788MOL0    Cl 6289   6.497   5.474   5.117  0.2357  0.0691 -0.3595
  788MOL0     C 6290   7.713   5.685   5.302 -0.1351 -0.2893  0.7758
  788MOL0     C 6291   7.844   5.701   5.284 -0.4396  0.8895  0.4438
  788MOL0     O 6292   8.105   5.410   5.237  0.4013 -0.6085  0.4854
  788MOL0     C 6293   8.382   5.469   5.162  0.5452 -0.7475  0.7271
  788MOL0     C 6294   8.520   5.507   5.148  0.2852 -0.8550 -0.0046
  788MOL0     N 6295   9.162   5.629   4.944 -1.5627  0.0101  0.4617
  788MOL0     N 6296   9.165   5.577   4.829 -0.6498  0.1484  0.0598
  788MOL0     C 6297   7.969   5.701   4.684  0.5046 -0.9276  0.4035
  788MOL0     C 6298   7.828   5.705   4.703  0.8820  0.5507 -0.3178
  788MOL0     C 6299   7.413   5.757   4.801  0.4933  0.4879 -0.3540
  788MOL0     C 6300   7.358   5.639   4.865 -0.2291  0.3296 -0.2696
  788MOL0     C 6301   7.223   5.624   4.875 -0.0645  0.5700  0.0223
  788MOL0     C 6302   7.131   5.724   4.812 -0.3293  0.1542  0.2995
  788MOL0     O 6303   7.001   5.701   4.815  0.2054  0.3329  0.3074
  788MOL0     C 6304   6.916   5.741   4.705 -0.4056 -0.6264 -0.0597
  788MOL0     C 6305   6.771   5.718   4.746 -0.0512  0.8083 -0.2990
  788MOL0     C 6306   6.737   5.572   4.742  0.3476  0.0581  0.1567
  788MOL0     C 6307   6.584   5.557   4.732 -0.2957  0.3239  0.0345
  788MOL0     C 6308   6.545   5.428   4.782  0.9389 -0.8777 -0.4370
  788MOL0     C 6309   6.505   5.315   4.827 -0.7263  0.7171 -0.1262
  788MOL0     C 6310   7.190   5.825   4.748 -0.1640 -0.2231 -0.7033
  788MOL0     C 6311   7.326   5.845   4.737  0.3561  0.1198  0.0866
  788MOL0     C 6312   7.366   5.970   4.666  0.1655  0.8086  1.6911
  788MOL0     H 6313   7.809   5.566   5.017  0.4323 -0.5911 -0.0831
  788MOL0     H 6314   8.059   5.593   4.994 -0.7917  0.6054  0.6984
  788MOL0     H 6315   8.223   5.794   4.924 -1.5224  0.4900 -1.8926
  788MOL0     H 6316   8.261   5.623   4.943  1.4407 -0.2526 -1.3763
  788MOL0     H 6317   8.460   5.797   4.925 -0.4240 -2.2352  2.3168
  788MOL0     H 6318   8.391   5.815   4.760 -1.6848  2.7840  2.3922
  788MOL0     H 6319   8.432   5.597   4.710 -0.4383 -2.7083  0.8534
  788MOL0     H 6320   8.491   5.548   4.875  1.5646  0.6100  0.3004
  788MOL0     H 6321   8.611   5.747   4.675  2.4707  0.8960  0.2241
  788MOL0     H 6322   8.691   5.710   4.829  1.0867 -1.0429  0.4978
  788MOL0     H 6323   8.727   5.482   4.743 -0.5340 -0.3047  0.4962
  788MOL0     H 6324   8.648   5.521   4.586  0.0016  1.0037 -0.3727
  788MOL0     H 6325   8.802   5.692   4.543 -1.5233  0.1925  0.0840
  788MOL0     H 6326   8.880   5.683   4.692 -0.0018 -0.0843 -1.7713
  788MOL0     H 6327   9.011   5.568   4.509 -0.5161  1.4344  0.8565
  788MOL0     H 6328   8.888   5.450   4.497 -0.8458  1.6195 -1.6905
  788MOL0     H 6329   8.932   5.361   4.709 -1.8140  1.7825  0.8841
  788MOL0     H 6330   9.093   5.386   4.662  0.2349  1.1889  0.7299
  788MOL0     H 6331   8.860   5.505   4.928 -0.4261  2.5733 -0.9539
  788MOL0     H 6332   8.933   5.560   5.195  0.0733 -0.5892  0.1138
  788MOL0     H 6333   9.108   5.575   5.213  0.5260  1.7941  1.2647
  788MOL0     H 6334   9.003   5.782   5.303  0.3216  1.5768 -0.0023
  788MOL0     H 6335   9.098   5.820   5.156  0.9099  1.2947  2.3432
  788MOL0     H 6336   8.869   5.821   5.031 -1.4326  2.4571  0.6800
  788MOL0     H 6337   8.893   5.932   5.148  0.6718 -0.2569 -0.4958
  788MOL0     H 6338   8.685   5.862   5.196  0.9194  1.2983  0.8243
  788MOL0     H 6339   8.777   5.746   5.311 -0.4816 -0.7533 -0.1831
  788MOL0     H 6340   8.508   5.800   5.321  3.1019 -1.0673  0.9652
  788MOL0     H 6341   8.286   5.728   5.363 -2.6401 -3.1763  1.0792
  788MOL0     H 6342   7.961   5.429   5.447 -3.5591 -0.9877  3.0159
  788MOL0     H 6343   7.744   5.388   5.472  3.8696 -1.2099 -0.4290
  788MOL0     H 6344   7.424   5.712   5.357  3.7485  1.2347 -2.5483
  788MOL0     H 6345   7.471   5.630   5.209  0.1583  0.0722  0.0135
  788MOL0     H 6346   7.323   5.446   5.217 -0.9389 -2.1568  1.8282
  788MOL0     H 6347   7.299   5.473   5.388 -1.3441  1.9546  1.5214
  788MOL0     H 6348   7.194   5.692   5.351  2.5281  2.6642 -1.9630
  788MOL0     H 6349   7.224   5.665   5.174  0.8340 -1.4952 -0.7697
  788MOL0     H 6350   7.030   5.507   5.358 -0.5981  0.2714  0.0573
  788MOL0     H 6351   7.072   5.450   5.203 -1.7375  0.1755 -0.5335
  788MOL0     H 6352   6.994   5.652   5.087 -2.8927 -0.1231 -1.3957
  788MOL0     H 6353   6.947   5.731   5.236 -2.8085  0.7002 -1.7282
  788MOL0     H 6354   6.832   5.471   5.155  1.1316  0.7757 -1.3274
  788MOL0     H 6355   6.793   5.556   5.304  0.7640 -0.9301 -0.6417
  788MOL0     H 6356   6.735   5.635   5.019  0.8867  1.2753 -0.2907
  788MOL0     H 6357   6.744   5.759   5.147  0.3850  1.0456 -1.7229
  788MOL0     H 6358   6.554   5.613   5.290  1.6493 -0.5822 -0.0207
  788MOL0     H 6359   6.518   5.706   5.140  2.6441  1.3560 -2.6622
  788MOL0     H 6360   7.649   5.763   5.261 -0.3892 -0.7620  0.2628
  788MOL0     H 6361   7.870   5.789   5.226  0.7113 -0.2361 -0.7989
  788MOL0     H 6362   8.343   5.373   5.131  1.1684 -1.5868  2.4263
  788MOL0     H 6363   8.578   5.450   5.076  1.8413 -0.0313  0.5471
  788MOL0     H 6364   7.999   5.726   4.582 -0.3552  0.2849  0.4181
  788MOL0     H 6365   7.758   5.722   4.621 -1.4292 -0.8497  1.2372
  788MOL0     H 6366   7.420   5.559   4.903  2.1262  1.6232 -1.1645
  788MOL0     H 6367   7.186   5.535   4.925  0.5261 -0.2529 -0.9833
  788MOL0     H 6368   6.937   5.697   4.607 -3.0854  0.2945 -1.1305
  788MOL0     H 6369   6.922   5.850   4.694 -0.3105 -0.3709  2.0963
  788MOL0     H 6370   6.699   5.782   4.695 -2.1350 -0.3397  1.0435
  788MOL0     H 6371   6.758   5.743   4.851  2.3608 -2.1637  0.8777
  788MOL0     H 6372   6.773   5.531   4.837 -1.0054 -0.4172  0.4879
  788MOL0     H 6373   6.786   5.524   4.657 -0.3591  0.5935 -0.5750
  788MOL0     H 6374   6.531   5.630   4.794  2.7309 -0.1155  3.4911
  788MOL0     H 6375   6.551   5.564   4.628 -1.0589  0.1758  0.2532
  788MOL0     H 6376   6.464   5.229   4.875 -2.1662  1.7850  0.6319
  788MOL0     H 6377   7.134   5.904   4.698  3.6662  2.5148 -1.0583
  788MOL0     H 6378   7.421   6.043   4.726 -0.4735  1.5748  1.3622
  788MOL0     H 6379   7.396   5.948   4.563  2.6177  1.0397  2.2934
  788MOL0     H 6380   7.283   6.040   4.650 -2.3787 -1.4918  3.7081
  789MOL0     O 6381   2.053   2.674   9.089  0.2417 -0.8297 -0.0284
  789MOL0     C 6382   1.935   2.645   9.075  0.4715 -0.0861 -0.2606
  789MOL0     O 6383   1.886   2.544   8.992 -0.0373  0.5833 -0.0882
  789MOL0     C 6384   1.981   2.455   8.960 -0.7773  0.1489 -0.3605
  789MOL0     C 6385   2.028   2.462   8.828  0.0490 -0.0017  0.7022
  789MOL0     C 6386   2.113   2.366   8.775 -0.3410  0.0101  0.0870
  789MOL0     C 6387   2.167   2.270   8.865 -0.3908 -0.4537 -0.6486
  789MOL0     O 6388   2.270   2.186   8.830 -0.4780  0.0103 -0.1547
  789MOL0     C 6389   2.349   2.209   8.708 -0.5116  1.0557  0.4919
  789MOL0     C 6390   2.438   2.085   8.692  0.3901 -0.6043 -0.2020
  789MOL0     C 6391   2.536   2.115   8.574  0.4756 -0.3439 -0.0689
  789MOL0     C 6392   2.644   2.012   8.548  0.4005 -0.0483 -0.3649
  789MOL0     C 6393   2.595   1.876   8.497  1.2704 -0.7567  0.6472
  789MOL0     C 6394   2.707   1.795   8.431  0.1582  0.6528  0.4237
  789MOL0     C 6395   2.667   1.641   8.421  0.2466 -0.4266  0.1147
  789MOL0     C 6396   2.540   1.619   8.332  0.1474 -0.4500 -0.0529
  789MOL0     N 6397   2.586   1.642   8.188 -1.3620  0.0964  0.4273
  789MOL0     C 6398   2.554   1.744   8.101 -0.1465 -0.5568 -0.4313
  789MOL0     C 6399   2.595   1.701   7.976 -0.3644  0.1320  0.1258
  789MOL0     C 6400   2.600   1.776   7.838 -0.0632 -0.0390 -0.2148
  789MOL0     C 6401   2.493   1.887   7.816  0.1343 -0.0934 -0.1667
  789MOL0     C 6402   2.549   2.016   7.875 -0.7058  0.1506 -0.2064
  789MOL0     C 6403   2.462   2.133   7.844 -0.3208 -0.9748 -0.3496
  789MOL0     O 6404   2.435   2.177   7.708 -0.3797  0.0155 -0.3929
  789MOL0     C 6405   2.536   2.238   7.638  0.0265 -0.1679  0.2635
  789MOL0     C 6406   2.667   2.243   7.677 -0.6340  0.1597  0.0228
  789MOL0     C 6407   2.764   2.298   7.598 -0.6086  0.1704  0.3030
  789MOL0     C 6408   2.730   2.334   7.461  0.7295 -0.7419 -0.6539
  789MOL0     C 6409   2.826   2.393   7.368 -0.3960  0.6174  0.2352
  789MOL0     O 6410   2.959   2.376   7.405  0.8546  0.2145  0.7003
  789MOL0     C 6411   3.058   2.453   7.344  0.6987  0.4914 -0.2560
  789MOL0     C 6412   3.106   2.421   7.213  0.5730 -0.4084 -0.2007
  789MOL0     C 6413   3.216   2.493   7.165 -0.1585 -0.0041  0.7287
  789MOL0     C 6414   3.277   2.603   7.226  0.1200 -0.3571 -0.1803
  789MOL0     O 6415   3.360   2.693   7.177  0.0381  0.2937  1.0998
  789MOL0     C 6416   3.422   2.654   7.054 -0.6288  0.5329 -0.1277
  789MOL0     C 6417   3.514   2.772   7.019  0.2097 -0.2941  0.0789
  789MOL0     C 6418   3.626   2.785   7.132  0.5384  0.4525  0.8581
  789MOL0     C 6419   3.750   2.873   7.088  0.0994 -0.5481 -0.3421
  789MOL0     C 6420   3.721   3.024   7.081  0.3821  0.3979 -0.6122
  789MOL0     C 6421   3.860   3.100   7.071  0.0561 -0.3634 -0.1595
  789MOL0     C 6422   3.833   3.247   7.028 -0.2693  0.6799 -0.3048
  789MOL0     C 6423   3.949   3.338   7.054 -0.0170 -0.5218  0.2603
  789MOL0    Cl 6424   4.088   3.286   6.954  0.3688  0.0488 -0.5367
  789MOL0     C 6425   3.215   2.636   7.348 -0.1595  0.0194  0.9077
  789MOL0     C 6426   3.117   2.561   7.409  1.5442 -0.0718 -0.1430
  789MOL0     O 6427   2.789   2.448   7.262  0.6150  0.1070 -0.1916
  789MOL0     C 6428   2.597   2.330   7.420 -0.8881  0.2593  0.2656
  789MOL0     C 6429   2.506   2.277   7.511  0.2211 -0.8702  0.5011
  789MOL0     N 6430   2.663   1.582   7.994 -0.3333  0.1390  0.2083
  789MOL0     N 6431   2.643   1.545   8.118  0.2210 -0.3151  0.1427
  789MOL0     C 6432   2.122   2.266   9.001  0.1705  0.0606 -0.5816
  789MOL0     C 6433   2.029   2.358   9.046  0.5711 -0.1050 -0.5177
  789MOL0     C 6434   1.838   2.712   9.160  0.3677  0.6289  0.5523
  789MOL0     C 6435   1.693   2.677   9.150 -0.1677  0.2775 -0.2933
  789MOL0     C 6436   1.596   2.737   9.231  0.6472  0.0667  0.2312
  789MOL0     C 6437   1.636   2.820   9.337  0.5363 -0.0742 -0.7483
  789MOL0     O 6438   1.543   2.879   9.431 -0.1054  0.0588 -0.0428
  789MOL0     C 6439   1.404   2.837   9.405  0.7569  0.1811 -0.7268
  789MOL0     C 6440   1.324   2.892   9.531  0.5671 -0.0364  0.2999
  789MOL0     C 6441   1.186   2.921   9.478 -0.0940 -0.0619 -0.0204
  789MOL0     C 6442   1.109   2.972   9.606  0.6081  0.0146 -0.1035
  789MOL0     C 6443   1.081   2.882   9.718 -0.5388  0.7671  0.1881
  789MOL0     C 6444   1.089   2.810   9.816  0.5378  0.0024 -0.0411
  789MOL0     C 6445   1.775   2.844   9.356 -0.6262  0.9041 -0.4530
  789MOL0     C 6446   1.875   2.800   9.267  0.4801  0.0957  0.0489
  789MOL0     C 6447   2.014   2.852   9.291 -0.2803 -0.5317  0.3976
  789MOL0     H 6448   1.989   2.539   8.763  0.2986  1.1553  1.8974
  789MOL0     H 6449   2.158   2.379   8.677 -1.9318 -0.6900 -0.7851
  789MOL0     H 6450   2.287   2.219   8.618  1.6323 -3.5080 -1.8622
  789MOL0     H 6451   2.410   2.298   8.722 -0.6216  1.5990 -2.0501
  789MOL0     H 6452   2.381   1.995   8.666 -1.5644 -0.6106  3.3420
  789MOL0     H 6453   2.487   2.064   8.788  1.2857  1.2943 -0.1983
  789MOL0     H 6454   2.589   2.209   8.587 -1.4669  1.2626 -2.7792
  789MOL0     H 6455   2.473   2.121   8.485  1.5982 -0.0760 -0.8568
  789MOL0     H 6456   2.695   2.061   8.464  1.7256  2.3979  1.7191
  789MOL0     H 6457   2.704   2.000   8.638 -3.2159  2.1414  2.6713
  789MOL0     H 6458   2.553   1.815   8.578 -2.0443 -2.2103 -1.9405
  789MOL0     H 6459   2.505   1.888   8.436 -0.4036 -3.8098  2.2707
  789MOL0     H 6460   2.736   1.833   8.332  1.9384  0.6641  0.9171
  789MOL0     H 6461   2.799   1.802   8.490  0.8597 -0.2713 -0.5125
  789MOL0     H 6462   2.644   1.601   8.521  1.4496 -3.4807 -0.7345
  789MOL0     H 6463   2.745   1.576   8.380  0.5135  0.8019 -1.4060
  789MOL0     H 6464   2.497   1.519   8.342  0.3633 -0.4743  0.6685
  789MOL0     H 6465   2.455   1.685   8.348 -1.0768 -1.6122 -1.5230
  789MOL0     H 6466   2.506   1.838   8.128 -1.7418 -1.2213 -0.8486
  789MOL0     H 6467   2.699   1.820   7.823 -0.8674  1.6580 -0.7775
  789MOL0     H 6468   2.587   1.706   7.756 -0.6923  0.1426 -0.2728
  789MOL0     H 6469   2.491   1.893   7.707  3.7229 -0.5575 -0.3814
  789MOL0     H 6470   2.399   1.860   7.867  1.1395 -0.2115  1.7047
  789MOL0     H 6471   2.650   2.028   7.835  0.1554  0.2066  1.8962
  789MOL0     H 6472   2.555   2.003   7.983  1.8162 -3.1063 -0.5774
  789MOL0     H 6473   2.493   2.218   7.904 -2.2810  0.7136 -1.5949
  789MOL0     H 6474   2.368   2.116   7.898  1.2038  4.3826  5.1346
  789MOL0     H 6475   2.693   2.216   7.779  0.3020  0.2159 -0.1892
  789MOL0     H 6476   2.859   2.294   7.649 -1.2484  1.3605  1.6547
  789MOL0     H 6477   3.061   2.347   7.148  1.7981 -0.0732 -1.4834
  789MOL0     H 6478   3.249   2.446   7.073  1.0862 -3.4874  2.7697
  789MOL0     H 6479   3.488   2.567   7.052  1.6445  2.1804 -0.8520
  789MOL0     H 6480   3.347   2.633   6.978 -1.0647 -2.0706  0.9002
  789MOL0     H 6481   3.557   2.764   6.919 -0.3512  0.0871 -0.2015
  789MOL0     H 6482   3.448   2.858   7.005  1.1134  0.5421  0.8291
  789MOL0     H 6483   3.586   2.823   7.227 -0.0360 -0.1470  0.8652
  789MOL0     H 6484   3.660   2.685   7.160  1.0848 -0.0819 -1.5084
  789MOL0     H 6485   3.801   2.836   6.999  2.2488  0.0823  0.5597
  789MOL0     H 6486   3.823   2.864   7.169  0.1176 -2.5345 -0.5155
  789MOL0     H 6487   3.657   3.051   7.166  0.6725 -0.6854 -0.0381
  789MOL0     H 6488   3.663   3.042   6.989 -2.7311  1.1799  1.3392
  789MOL0     H 6489   3.909   3.106   7.168  0.8160 -1.4282 -0.4692
  789MOL0     H 6490   3.924   3.048   7.000 -1.1221 -1.5616 -0.3791
  789MOL0     H 6491   3.744   3.282   7.080 -0.6417  0.3255 -0.6970
  789MOL0     H 6492   3.805   3.252   6.922  1.9561  2.5407 -0.8870
  789MOL0     H 6493   3.916   3.439   7.027  1.9943  0.1783  0.2481
  789MOL0     H 6494   3.988   3.343   7.156 -0.4459  1.1004  0.3808
  789MOL0     H 6495   3.237   2.728   7.401  2.5733 -0.4759  0.8042
  789MOL0     H 6496   3.083   2.601   7.504  1.2002  2.5535 -1.2980
  789MOL0     H 6497   2.572   2.355   7.317  1.4931  0.7907 -0.2390
  789MOL0     H 6498   2.404   2.264   7.475  0.7389 -0.8117 -1.0645
  789MOL0     H 6499   2.169   2.193   9.067  0.7872  0.4065 -0.6296
  789MOL0     H 6500   1.994   2.352   9.149 -3.8399  0.5187 -1.7617
  789MOL0     H 6501   1.662   2.609   9.071  2.0990  0.7022 -1.6236
  789MOL0     H 6502   1.494   2.707   9.210  1.0524 -1.5039  0.4128
  789MOL0     H 6503   1.387   2.729   9.400 -1.4049  0.4062  0.2145
  789MOL0     H 6504   1.375   2.888   9.313  2.2072  0.3906 -1.0763
  789MOL0     H 6505   1.365   2.985   9.573 -0.4142  1.3454 -1.6111
  789MOL0     H 6506   1.328   2.820   9.613  2.0063  0.1584  0.4386
  789MOL0     H 6507   1.149   2.830   9.430 -0.7500 -0.2099  0.7484
  789MOL0     H 6508   1.188   2.998   9.400  0.7201  1.8081  1.7255
  789MOL0     H 6509   1.166   3.056   9.647 -1.6892  2.3399 -1.3309
  789MOL0     H 6510   1.012   3.015   9.578  0.6668 -0.7045 -1.5429
  789MOL0     H 6511   1.075   2.749   9.903 -2.8946  0.0416 -0.4204
  789MOL0     H 6512   1.806   2.915   9.431  1.4923  2.2233 -2.4505
  789MOL0     H 6513   2.019   2.944   9.350 -0.3796  1.0811 -1.9470
  789MOL0     H 6514   2.063   2.771   9.345 -0.4098 -1.8899 -1.4128
  789MOL0     H 6515   2.070   2.877   9.200  0.6724  0.5155  1.2471
  790MOL0     O 6516   6.258  10.330   1.464 -0.4751 -0.1729  0.0495
  790MOL0     C 6517   6.344  10.393   1.533 -0.5416  0.1474  0.2024
  790MOL0     O 6518   6.327  10.436   1.661  0.3786  0.4930 -0.0146
  790MOL0     C 6519   6.197  10.427   1.708 -0.7276 -0.4805 -0.4451
  790MOL0     C 6520   6.100  10.531   1.676 -1.3523  0.4364  0.2145
  790MOL0     C 6521   5.980  10.535   1.744 -0.8705 -0.2607  0.4324
  790MOL0     C 6522   5.941  10.437   1.833  0.2049  0.1444  0.4978
  790MOL0     O 6523   5.804  10.448   1.864  0.6367 -0.3457  0.7855
  790MOL0     C 6524   5.723  10.342   1.820 -0.0729  0.3372  0.0726
  790MOL0     C 6525   5.576  10.387   1.836  0.0607  0.7389 -0.2172
  790MOL0     C 6526   5.533  10.368   1.984  0.0870 -0.0444  0.2714
  790MOL0     C 6527   5.374  10.373   2.010 -0.8583  0.0297  0.4143
  790MOL0     C 6528   5.334  10.310   2.147  0.8859 -0.4290  0.6190
  790MOL0     C 6529   5.423  10.356   2.267 -0.1501 -0.0643  0.1003
  790MOL0     C 6530   5.399  10.273   2.385 -0.2199 -0.2237 -0.4945
  790MOL0     C 6531   5.465  10.132   2.375 -0.2972  0.0186 -0.8117
  790MOL0     N 6532   5.605  10.110   2.318  0.0052 -0.4388  0.5351
  790MOL0     C 6533   5.723  10.141   2.383 -0.2253  0.2080  0.3836
  790MOL0     C 6534   5.819  10.128   2.289  0.1979 -0.4024  0.6677
  790MOL0     C 6535   5.958  10.165   2.307  0.1750  0.1310 -0.2761
  790MOL0     C 6536   6.018  10.282   2.220 -0.3874 -0.3116  1.1070
  790MOL0     C 6537   5.943  10.415   2.220 -0.6439  0.8484 -1.3296
  790MOL0     C 6538   6.012  10.502   2.322  0.4204  0.3340 -0.8354
  790MOL0     O 6539   5.997  10.454   2.461 -0.3283  0.3367 -0.3391
  790MOL0     C 6540   5.880  10.461   2.531 -0.2982 -0.5732 -0.2187
  790MOL0     C 6541   5.780  10.546   2.487  0.5169  0.2884  0.2043
  790MOL0     C 6542   5.664  10.571   2.557  0.3380 -0.8640 -0.1723
  790MOL0     C 6543   5.637  10.514   2.676  0.3104  0.2368  0.4450
  790MOL0     C 6544   5.515  10.544   2.754  0.6429 -0.0793  0.0506
  790MOL0     O 6545   5.413  10.603   2.680 -1.1451 -0.1460  0.2277
  790MOL0     C 6546   5.293  10.618   2.735 -0.1757 -0.8801 -0.6854
  790MOL0     C 6547   5.271  10.716   2.834  0.0255 -0.2028 -0.6096
  790MOL0     C 6548   5.148  10.720   2.898  0.9562 -0.0701 -0.2101
  790MOL0     C 6549   5.045  10.625   2.873  0.0204 -0.5008 -0.4350
  790MOL0     O 6550   4.928  10.630   2.949 -0.1075 -0.1857 -0.7244
  790MOL0     C 6551   4.897  10.502   3.002 -0.0487 -0.0812  0.5230
  790MOL0     C 6552   4.826  10.516   3.131 -0.2254 -0.0710  0.1395
  790MOL0     C 6553   4.749  10.390   3.164 -0.4428 -0.5271 -0.7600
  790MOL0     C 6554   4.661  10.429   3.296 -0.1492  0.8768  0.2409
  790MOL0     C 6555   4.664  10.311   3.391 -0.0773  0.2329  0.4369
  790MOL0     C 6556   4.625  10.355   3.537 -0.0089 -0.8395 -0.0022
  790MOL0     C 6557   4.588  10.241   3.632  0.6747  0.0146  0.1397
  790MOL0     C 6558   4.697  10.203   3.731  0.4561 -0.7973  1.9546
  790MOL0    Cl 6559   4.844  10.167   3.633  0.0561 -0.0279 -0.0132
  790MOL0     C 6560   5.067  10.536   2.763  0.3411 -0.5344 -0.9214
  790MOL0     C 6561   5.191  10.537   2.699  0.6456  0.1627 -0.8293
  790MOL0     O 6562   5.505  10.497   2.871  0.3685  0.5152  0.4632
  790MOL0     C 6563   5.745  10.431   2.726  0.9984  0.5938 -0.9125
  790MOL0     C 6564   5.862  10.394   2.655  0.7080 -0.5962 -0.1888
  790MOL0     N 6565   5.757  10.068   2.176  0.2450 -0.5576  0.3617
  790MOL0     N 6566   5.631  10.049   2.201 -0.3930  0.4273 -0.3354
  790MOL0     C 6567   6.015  10.316   1.836  0.8328  0.9940  0.2771
  790MOL0     C 6568   6.147  10.316   1.780 -0.8488 -0.1006  0.1291
  790MOL0     C 6569   6.477  10.435   1.465  0.1465  0.5021  0.1425
  790MOL0     C 6570   6.553  10.509   1.549 -0.8463 -0.0964 -0.3201
  790MOL0     C 6571   6.663  10.573   1.503 -0.6632  0.2043  0.1410
  790MOL0     C 6572   6.690  10.559   1.363  0.2069 -0.0080  0.3543
  790MOL0     O 6573   6.800  10.612   1.297 -0.9087 -0.8129 -0.0179
  790MOL0     C 6574   6.904  10.682   1.376 -0.9345  0.0713 -0.7271
  790MOL0     C 6575   6.990  10.762   1.284 -0.4529 -0.3772  0.4237
  790MOL0     C 6576   7.068  10.674   1.185  0.0261  0.0106  0.2720
  790MOL0     C 6577   7.127  10.768   1.082  0.4166 -0.6478 -0.2197
  790MOL0     C 6578   7.211  10.881   1.130  0.2695  0.0727  0.5346
  790MOL0     C 6579   7.278  10.979   1.170 -0.8870  0.1900  0.0414
  790MOL0     C 6580   6.634  10.457   1.283  0.5293  0.3486  0.2247
  790MOL0     C 6581   6.521  10.390   1.333  0.1093  0.1900 -0.9821
  790MOL0     C 6582   6.468  10.275   1.255  0.0033 -0.4392  1.0512
  790MOL0     H 6583   6.124  10.603   1.598 -0.4581  1.5306  1.4562
  790MOL0     H 6584   5.917  10.619   1.715  0.3522  0.3509 -0.5440
  790MOL0     H 6585   5.750  10.317   1.717 -0.1508  1.9386 -0.3703
  790MOL0     H 6586   5.724  10.254   1.885  1.0155  0.0228 -0.3459
  790MOL0     H 6587   5.527  10.310   1.777  2.8741 -1.9559  0.6769
  790MOL0     H 6588   5.572  10.486   1.789  0.2288  0.6941 -0.3252
  790MOL0     H 6589   5.590  10.447   2.034  0.9216  0.4147 -1.3241
  790MOL0     H 6590   5.550  10.268   2.024 -0.5590 -0.4710 -0.4846
  790MOL0     H 6591   5.349  10.479   2.005  0.4659  0.4320  1.8060
  790MOL0     H 6592   5.335  10.313   1.927  1.1742 -0.6871 -0.0616
  790MOL0     H 6593   5.229  10.330   2.171  1.2930  1.6352  0.8407
  790MOL0     H 6594   5.329  10.202   2.132  0.7822 -0.1989 -1.2186
  790MOL0     H 6595   5.531  10.345   2.252 -0.0067  2.2694 -0.9209
  790MOL0     H 6596   5.407  10.463   2.283 -0.7143 -0.0781 -0.3476
  790MOL0     H 6597   5.293  10.278   2.410 -0.0425  2.2923  0.0081
  790MOL0     H 6598   5.443  10.322   2.472 -0.9260 -0.3083 -0.0812
  790MOL0     H 6599   5.458  10.094   2.478 -0.8262 -0.2384 -0.9370
  790MOL0     H 6600   5.394  10.075   2.314 -0.8613 -0.9126  0.6624
  790MOL0     H 6601   5.736  10.178   2.484  5.1273  0.1200  0.0346
  790MOL0     H 6602   5.963  10.200   2.411 -2.5953  1.4812 -0.5035
  790MOL0     H 6603   6.020  10.077   2.290  1.8672  1.2993 -0.3503
  790MOL0     H 6604   6.121  10.303   2.250  0.3517 -1.1393 -0.7521
  790MOL0     H 6605   6.020  10.258   2.114 -0.8967  3.2119  0.1572
  790MOL0     H 6606   5.844  10.413   2.265  0.5535 -2.7363  1.6995
  790MOL0     H 6607   5.941  10.455   2.119 -0.2412 -0.4025 -1.8521
  790MOL0     H 6608   5.969  10.602   2.316 -0.9920 -0.1518  0.3651
  790MOL0     H 6609   6.120  10.509   2.309  0.5189  0.0145 -0.2542
  790MOL0     H 6610   5.786  10.609   2.398  4.7260  0.0726  0.1766
  790MOL0     H 6611   5.608  10.655   2.517  3.7845  0.1661 -3.3519
  790MOL0     H 6612   5.346  10.788   2.865  0.6166 -0.3166 -1.7378
  790MOL0     H 6613   5.113  10.792   2.971 -0.9415 -2.2111  1.1561
  790MOL0     H 6614   4.832  10.446   2.933 -1.0891  1.1944  0.4255
  790MOL0     H 6615   4.989  10.444   3.016 -0.5699 -0.8066  1.0563
  790MOL0     H 6616   4.901  10.548   3.205  1.5666  0.1386 -1.6725
  790MOL0     H 6617   4.749  10.590   3.110  0.3676 -0.2306 -3.1441
  790MOL0     H 6618   4.671  10.369   3.091 -2.2021 -2.3293  1.4679
  790MOL0     H 6619   4.820  10.309   3.177  2.3688  2.0005  0.9558
  790MOL0     H 6620   4.560  10.441   3.258 -0.3256  1.3486  0.8464
  790MOL0     H 6621   4.686  10.526   3.340 -4.8853  2.6417 -0.3788
  790MOL0     H 6622   4.768  10.283   3.406 -0.2182 -2.6572 -2.7629
  790MOL0     H 6623   4.610  10.223   3.356 -1.5934 -0.0910  3.3195
  790MOL0     H 6624   4.701  10.418   3.583  0.4578 -0.9302 -0.6312
  790MOL0     H 6625   4.528  10.404   3.524 -0.1279 -0.4616  1.9898
  790MOL0     H 6626   4.566  10.151   3.573 -0.4978  1.2502 -1.4158
  790MOL0     H 6627   4.493  10.273   3.676 -2.2258 -2.7367 -3.3904
  790MOL0     H 6628   4.719  10.293   3.790 -0.7990 -0.4856  1.9732
  790MOL0     H 6629   4.670  10.119   3.795 -3.2469  0.1398  1.8852
  790MOL0     H 6630   4.987  10.475   2.723 -0.4696 -0.9843  1.2438
  790MOL0     H 6631   5.204  10.463   2.620  1.9753 -1.3279  0.6967
  790MOL0     H 6632   5.720  10.381   2.819  1.7267  1.5073 -0.2049
  790MOL0     H 6633   5.945  10.329   2.677  1.5207  0.8501  1.2544
  790MOL0     H 6634   5.969  10.234   1.891  1.4152 -1.0276 -2.0899
  790MOL0     H 6635   6.210  10.228   1.784 -2.1934 -1.0783  0.7949
  790MOL0     H 6636   6.540  10.521   1.656 -0.9624  0.5832 -0.4032
  790MOL0     H 6637   6.727  10.626   1.572 -0.7772 -0.4172  0.7344
  790MOL0     H 6638   6.963  10.612   1.436  4.4523  3.5284 -1.2764
  790MOL0     H 6639   6.866  10.753   1.450 -2.0390  0.2757 -1.4666
  790MOL0     H 6640   7.060  10.811   1.352 -2.4529  2.0339  0.9072
  790MOL0     H 6641   6.940  10.835   1.219  0.6702 -2.1221 -2.5803
  790MOL0     H 6642   7.014  10.593   1.135 -1.2068  1.6633 -1.2025
  790MOL0     H 6643   7.154  10.636   1.241  2.1891  3.1435 -0.6433
  790MOL0     H 6644   7.191  10.705   1.020  1.6269  0.4606 -0.1413
  790MOL0     H 6645   7.045  10.804   1.019  3.5331  1.5393 -3.4006
  790MOL0     H 6646   7.343  11.054   1.211 -0.7900 -1.1932  2.6352
  790MOL0     H 6647   6.674  10.437   1.184  1.0888  0.6230  0.3886
  790MOL0     H 6648   6.414  10.202   1.316  0.0947  0.5192  2.3112
  790MOL0     H 6649   6.400  10.328   1.188  1.3770 -1.0805 -0.9458
  790MOL0     H 6650   6.541  10.236   1.184 -0.4554  2.3631 -1.1060
  791MOL0     O 6651   7.544   1.420   6.484 -0.9428  0.1009 -0.4469
  791MOL0     C 6652   7.512   1.393   6.370 -0.2694  0.0199 -0.1547
  791MOL0     O 6653   7.523   1.473   6.259 -0.3624 -0.6429 -0.4444
  791MOL0     C 6654   7.504   1.604   6.271 -0.3651  0.3142 -0.8397
  791MOL0     C 6655   7.380   1.657   6.228  0.3273  0.2446  0.9241
  791MOL0     C 6656   7.352   1.790   6.239  0.1239 -0.0665 -0.9727
  791MOL0     C 6657   7.447   1.881   6.284 -0.6681 -0.1209 -0.4357
  791MOL0     O 6658   7.418   2.014   6.284 -0.2466  0.0405  0.2868
  791MOL0     C 6659   7.494   2.108   6.360  0.3268  0.6336  0.4111
  791MOL0     C 6660   7.407   2.236   6.345 -0.5803  0.9828 -0.6598
  791MOL0     C 6661   7.390   2.286   6.186 -0.1602 -0.1049 -0.8871
  791MOL0     C 6662   7.516   2.350   6.134  0.1922  0.4637  0.2339
  791MOL0     C 6663   7.519   2.387   5.980  0.5644 -0.5429 -0.6594
  791MOL0     C 6664   7.644   2.476   5.955 -0.2104 -0.5124 -0.7041
  791MOL0     C 6665   7.661   2.507   5.805  0.1920  0.0258  0.4437
  791MOL0     C 6666   7.802   2.514   5.754  0.2179 -0.6233 -0.6606
  791MOL0     N 6667   7.875   2.605   5.829  0.1287 -0.3077 -0.3021
  791MOL0     C 6668   7.865   2.747   5.823  0.5604  0.2336  0.5913
  791MOL0     C 6669   7.927   2.798   5.934 -0.2472  0.5445  0.7790
  791MOL0     C 6670   7.947   2.936   5.969 -0.6832 -0.2435  0.6146
  791MOL0     C 6671   8.091   2.982   5.970 -0.2071 -0.8365 -0.2125
  791MOL0     C 6672   8.154   3.028   5.843  0.0798 -0.0498 -0.3842
  791MOL0     C 6673   8.294   3.082   5.877  0.3604 -0.3724 -1.1472
  791MOL0     O 6674   8.361   3.151   5.775  0.6488 -0.0213  0.4486
  791MOL0     C 6675   8.486   3.204   5.804  1.0399  0.4914  0.0924
  791MOL0     C 6676   8.486   3.337   5.851  0.4222  0.1182  0.5778
  791MOL0     C 6677   8.608   3.401   5.870 -0.1422  0.7418  1.7108
  791MOL0     C 6678   8.727   3.336   5.843  0.2116  0.6564  0.4687
  791MOL0     C 6679   8.859   3.396   5.861  0.0459  0.6048 -0.7677
  791MOL0     O 6680   8.968   3.360   5.781 -0.2764  0.0991  0.0468
  791MOL0     C 6681   9.081   3.429   5.817  0.0059  1.2148  0.0334
  791MOL0     C 6682   9.170   3.368   5.897 -1.0489 -0.2966 -0.7009
  791MOL0     C 6683   9.284   3.438   5.939 -0.2784 -0.5764 -1.1337
  791MOL0     C 6684   9.314   3.568   5.892  0.4672  0.2716 -0.7051
  791MOL0     O 6685   9.424   3.620   5.937  0.3263 -0.0885  0.2858
  791MOL0     C 6686   9.510   3.667   5.830  0.6210 -0.9248 -0.2107
  791MOL0     C 6687   9.638   3.722   5.884 -0.1705 -0.4912  0.5403
  791MOL0     C 6688   9.716   3.593   5.932  0.1229 -0.3831  0.0720
  791MOL0     C 6689   9.853   3.639   5.980  1.0704  0.3014  0.1618
  791MOL0     C 6690   9.942   3.530   6.040 -0.8802  0.5957  0.1741
  791MOL0     C 6691  10.083   3.585   6.080  0.6130 -0.2000  0.4934
  791MOL0     C 6692  10.154   3.493   6.187 -0.4650 -0.1172  0.8837
  791MOL0     C 6693  10.287   3.543   6.254 -0.5913  0.2524  0.4301
  791MOL0    Cl 6694  10.400   3.603   6.120  0.0629  0.3847  0.1712
  791MOL0     C 6695   9.230   3.627   5.795 -0.6485 -0.0073 -0.0868
  791MOL0     C 6696   9.117   3.556   5.757 -0.1035 -0.3878 -0.9979
  791MOL0     O 6697   8.859   3.492   5.941 -0.3963  0.0570  0.4697
  791MOL0     C 6698   8.734   3.201   5.807  0.2596 -0.2031 -0.0816
  791MOL0     C 6699   8.610   3.139   5.776 -0.2503 -0.7237  0.0632
  791MOL0     N 6700   7.987   2.682   5.993 -0.2442 -0.8832 -0.3806
  791MOL0     N 6701   7.958   2.578   5.930 -0.2287 -0.4956  0.0488
  791MOL0     C 6702   7.569   1.830   6.333 -0.0178  0.4940 -0.7662
  791MOL0     C 6703   7.606   1.697   6.325  0.2044  0.2045  0.4116
  791MOL0     C 6704   7.491   1.248   6.351  0.0960 -0.3689  0.0817
  791MOL0     C 6705   7.525   1.166   6.457 -0.7328  0.7593 -0.0240
  791MOL0     C 6706   7.494   1.034   6.452 -0.0484 -0.2216 -0.7794
  791MOL0     C 6707   7.430   0.981   6.340 -0.0508  0.0437 -0.9136
  791MOL0     O 6708   7.405   0.846   6.332  0.4274 -0.1075  0.1228
  791MOL0     C 6709   7.478   0.783   6.230  0.1742  0.6141 -0.8003
  791MOL0     C 6710   7.515   0.640   6.272 -0.6532  0.3812  0.0873
  791MOL0     C 6711   7.595   0.558   6.162 -0.5946 -0.7110 -0.3839
  791MOL0     C 6712   7.622   0.407   6.185  0.9165 -0.3177  0.3591
  791MOL0     C 6713   7.503   0.323   6.157 -0.2046 -0.3688 -0.9603
  791MOL0     C 6714   7.397   0.271   6.142  0.7739 -0.0827  0.3024
  791MOL0     C 6715   7.385   1.060   6.237 -0.3351  0.2111  0.1884
  791MOL0     C 6716   7.426   1.191   6.238 -0.2569 -0.2492 -0.7309
  791MOL0     C 6717   7.364   1.272   6.128 -0.6027 -0.2037  0.3352
  791MOL0     H 6718   7.302   1.604   6.174  2.1369 -0.0503 -1.5583
  791MOL0     H 6719   7.255   1.826   6.204 -0.1915 -1.5840 -1.7851
  791MOL0     H 6720   7.509   2.076   6.463  0.9436  3.2070  1.2046
  791MOL0     H 6721   7.590   2.136   6.315 -0.9804  3.3612 -0.9351
  791MOL0     H 6722   7.454   2.316   6.403  1.3063 -0.8385  0.4626
  791MOL0     H 6723   7.306   2.220   6.381 -1.2757  1.3115 -2.3722
  791MOL0     H 6724   7.310   2.360   6.188  0.0727  0.1360 -0.2633
  791MOL0     H 6725   7.353   2.214   6.112 -1.4982  0.3991 -0.7337
  791MOL0     H 6726   7.530   2.436   6.200  1.3608  1.6291 -1.4429
  791MOL0     H 6727   7.594   2.275   6.147 -1.3047 -1.3643 -0.9004
  791MOL0     H 6728   7.525   2.292   5.925  1.6410 -2.1705  2.0714
  791MOL0     H 6729   7.432   2.445   5.947 -0.1834 -1.6380 -0.6548
  791MOL0     H 6730   7.646   2.567   6.016  0.8900 -1.2953  0.4920
  791MOL0     H 6731   7.730   2.423   5.998  0.1781  1.0979  0.6251
  791MOL0     H 6732   7.612   2.602   5.782  0.7791  0.2430  0.0848
  791MOL0     H 6733   7.612   2.423   5.754 -1.1215  2.1190 -1.9463
  791MOL0     H 6734   7.849   2.417   5.769  2.1883  0.4389  0.4531
  791MOL0     H 6735   7.797   2.536   5.647  1.5930 -0.2351 -0.6712
  791MOL0     H 6736   7.811   2.804   5.748  0.8664  0.4983  0.5680
  791MOL0     H 6737   7.897   3.008   5.903  0.9026  0.9788  0.7148
  791MOL0     H 6738   7.911   2.944   6.072 -0.8268 -0.4088  0.5785
  791MOL0     H 6739   8.086   3.075   6.028  1.1775 -0.1487 -1.1344
  791MOL0     H 6740   8.152   2.907   6.020  1.8879 -0.3128 -1.8252
  791MOL0     H 6741   8.104   3.114   5.799 -0.0325  0.9428  1.5501
  791MOL0     H 6742   8.161   2.941   5.776  0.3247  1.1830 -2.0023
  791MOL0     H 6743   8.354   2.994   5.903 -1.1616 -1.3900 -0.9338
  791MOL0     H 6744   8.287   3.134   5.973 -0.9645 -1.8277 -0.4034
  791MOL0     H 6745   8.392   3.391   5.857  0.4097  0.5415 -2.0988
  791MOL0     H 6746   8.615   3.503   5.907  4.6685  1.4702 -0.4708
  791MOL0     H 6747   9.162   3.270   5.945 -1.7796 -0.3191 -0.8526
  791MOL0     H 6748   9.345   3.401   6.020 -3.3205  2.0300  2.6995
  791MOL0     H 6749   9.537   3.591   5.755  0.8443  1.1032 -2.3100
  791MOL0     H 6750   9.464   3.756   5.786 -2.4271 -1.4874  1.6101
  791MOL0     H 6751   9.703   3.772   5.811 -2.2392 -0.0568 -1.1067
  791MOL0     H 6752   9.614   3.783   5.971 -2.0638 -0.4594  0.0480
  791MOL0     H 6753   9.658   3.554   6.016 -2.8057  4.0942  0.4851
  791MOL0     H 6754   9.729   3.527   5.847 -1.3886  1.3408 -1.5956
  791MOL0     H 6755   9.823   3.713   6.056  0.3334  0.8658 -0.6564
  791MOL0     H 6756   9.904   3.692   5.899  2.4093 -0.4104  0.5124
  791MOL0     H 6757   9.945   3.446   5.970 -1.1605 -0.0855  0.9633
  791MOL0     H 6758   9.902   3.490   6.133  0.9272  2.0936  1.6742
  791MOL0     H 6759  10.152   3.570   5.996  1.4150 -2.2567  1.4343
  791MOL0     H 6760  10.067   3.690   6.105  0.2852 -0.2653  0.5624
  791MOL0     H 6761  10.189   3.403   6.136  0.0414  0.6915 -0.2255
  791MOL0     H 6762  10.080   3.469   6.264 -0.2019 -0.1587  1.1229
  791MOL0     H 6763  10.271   3.621   6.328 -0.8545  1.2937 -0.6930
  791MOL0     H 6764  10.333   3.455   6.299  0.5141  1.5183  1.8661
  791MOL0     H 6765   9.257   3.728   5.766  2.0031  0.3141  2.9594
  791MOL0     H 6766   9.058   3.611   5.685  1.4090 -0.5047 -2.4019
  791MOL0     H 6767   8.827   3.145   5.796  2.1790  2.6508  0.7312
  791MOL0     H 6768   8.599   3.042   5.729 -2.8841 -0.3839 -0.1613
  791MOL0     H 6769   7.648   1.902   6.355  0.4736  0.3114 -1.8193
  791MOL0     H 6770   7.708   1.666   6.345 -0.7567 -1.6401  2.8467
  791MOL0     H 6771   7.573   1.205   6.547  0.8865  1.2432 -1.0635
  791MOL0     H 6772   7.516   0.967   6.535  2.3241 -0.1170 -1.2373
  791MOL0     H 6773   7.567   0.837   6.197  1.3649 -0.7217  0.1015
  791MOL0     H 6774   7.417   0.791   6.140 -1.2984 -0.3220  0.0697
  791MOL0     H 6775   7.425   0.584   6.298  1.7355 -3.3406  1.0481
  791MOL0     H 6776   7.585   0.649   6.355 -0.3470  1.2837 -0.2533
  791MOL0     H 6777   7.690   0.612   6.153 -1.5535  1.0248 -0.4292
  791MOL0     H 6778   7.544   0.568   6.066 -0.2757 -2.4183 -0.7620
  791MOL0     H 6779   7.703   0.381   6.116  1.4383  0.0967  0.8080
  791MOL0     H 6780   7.655   0.396   6.288  1.2771 -0.7318  0.2032
  791MOL0     H 6781   7.304   0.220   6.125  0.2466  0.7700  0.5094
  791MOL0     H 6782   7.336   1.016   6.151 -0.7788  2.7014 -0.9207
  791MOL0     H 6783   7.303   1.349   6.176 -1.8902 -0.8851 -0.1488
  791MOL0     H 6784   7.442   1.322   6.070 -1.9322  1.1607 -0.3446
  791MOL0     H 6785   7.303   1.222   6.052  3.4000 -1.8856 -2.1080
  792MOL0     O 6786   7.995   5.185   4.366 -0.6818 -1.2884  0.4589
  792MOL0     C 6787   8.007   5.230   4.479 -0.6053 -0.5307 -0.3889
  792MOL0     O 6788   8.104   5.324   4.523 -0.2670  0.0682 -0.4197
  792MOL0     C 6789   8.203   5.363   4.440 -0.9973 -0.5216 -0.0179
  792MOL0     C 6790   8.276   5.288   4.344  0.2048  0.4598 -0.1312
  792MOL0     C 6791   8.374   5.350   4.259  0.6651 -0.4225 -0.9483
  792MOL0     C 6792   8.408   5.490   4.290  0.0178  0.5404  0.4777
  792MOL0     O 6793   8.506   5.560   4.218  0.2322 -0.0728 -0.6158
  792MOL0     C 6794   8.602   5.486   4.134  0.6989 -0.5149 -0.3944
  792MOL0     C 6795   8.720   5.580   4.100 -0.7752  0.0587 -0.1774
  792MOL0     C 6796   8.798   5.644   4.213 -0.2402 -0.3658 -0.8336
  792MOL0     C 6797   8.949   5.617   4.190 -0.0654 -0.3167  0.0570
  792MOL0     C 6798   9.005   5.700   4.069  0.4271  0.5703  0.3684
  792MOL0     C 6799   9.136   5.637   4.021 -1.0031  1.1025  0.0169
  792MOL0     C 6800   9.215   5.727   3.921  0.4402 -0.6794  0.4698
  792MOL0     C 6801   9.354   5.665   3.886  0.1831 -0.8813  0.0365
  792MOL0     N 6802   9.404   5.711   3.753 -0.0034  0.3357  0.4339
  792MOL0     C 6803   9.449   5.840   3.725  0.7534  0.1543  0.4734
  792MOL0     C 6804   9.516   5.820   3.608 -0.1732  1.0566 -0.3022
  792MOL0     C 6805   9.604   5.920   3.546 -0.5309  0.0399 -0.2299
  792MOL0     C 6806   9.751   5.897   3.584 -0.2713 -1.0052 -0.3958
  792MOL0     C 6807   9.842   5.931   3.469  0.4481 -0.3578  0.1052
  792MOL0     C 6808   9.977   5.944   3.531  0.2710  0.6552 -0.0481
  792MOL0     O 6809  10.072   5.977   3.433 -0.8613 -0.3684 -0.6930
  792MOL0     C 6810  10.202   5.949   3.465 -0.3959  0.0419  0.4353
  792MOL0     C 6811  10.248   5.949   3.595  0.2439 -0.3494 -0.1611
  792MOL0     C 6812  10.380   5.928   3.629 -0.3263 -0.1714  0.4984
  792MOL0     C 6813  10.481   5.917   3.525  0.0192  0.0531 -0.4926
  792MOL0     C 6814  10.626   5.901   3.559  0.4877 -0.4781 -0.6569
  792MOL0     O 6815  10.713   5.951   3.462 -0.2786 -0.1825  0.1034
  792MOL0     C 6816  10.843   5.960   3.507 -0.2647 -0.3682 -0.6603
  792MOL0     C 6817  10.938   5.870   3.462 -0.2111  0.2141  0.5498
  792MOL0     C 6818  11.073   5.870   3.497 -0.3811  0.4667 -0.1214
  792MOL0     C 6819  11.120   5.964   3.588 -0.2397 -0.8348 -0.4001
  792MOL0     O 6820  11.252   5.976   3.629  0.4564  0.5227 -0.2109
  792MOL0     C 6821  11.339   5.866   3.595 -1.8138  0.9089  0.5294
  792MOL0     C 6822  11.474   5.885   3.653 -0.0938 -0.5905  0.8407
  792MOL0     C 6823  11.576   5.792   3.610 -0.3044 -0.8681  0.5466
  792MOL0     C 6824  11.683   5.772   3.717 -0.5176  0.2582  0.4707
  792MOL0     C 6825  11.810   5.745   3.644  0.1792  0.5189  0.2166
  792MOL0     C 6826  11.927   5.713   3.741 -0.7684 -0.6693 -0.1358
  792MOL0     C 6827  12.050   5.704   3.650  0.1146 -0.6816  0.7066
  792MOL0     C 6828  12.159   5.617   3.715  0.1369  0.0552 -0.7599
  792MOL0    Cl 6829  12.308   5.645   3.611 -0.0630  0.2439 -0.2905
  792MOL0     C 6830  11.026   6.056   3.640 -0.3774 -0.1943 -0.1882
  792MOL0     C 6831  10.891   6.050   3.600  0.4805  0.1840 -1.1027
  792MOL0     O 6832  10.652   5.850   3.670  0.0793 -0.4381 -0.1359
  792MOL0     C 6833  10.432   5.928   3.393  0.5847 -0.6611 -0.1712
  792MOL0     C 6834  10.296   5.945   3.363  1.0161  0.1124  1.3744
  792MOL0     N 6835   9.495   5.692   3.566 -0.4922  0.0994 -0.5722
  792MOL0     N 6836   9.423   5.626   3.648 -0.1740  0.0043  1.0552
  792MOL0     C 6837   8.335   5.559   4.379  0.8798  0.0150  0.4041
  792MOL0     C 6838   8.231   5.500   4.456 -0.5992 -0.9312  0.2700
  792MOL0     C 6839   7.892   5.191   4.572 -0.5249 -0.0491  0.4158
  792MOL0     C 6840   7.859   5.274   4.668  0.0914 -0.4522 -0.2789
  792MOL0     C 6841   7.761   5.247   4.761  0.1541 -0.4234 -0.5072
  792MOL0     C 6842   7.681   5.140   4.757  0.0126 -0.3188  0.8575
  792MOL0     O 6843   7.594   5.126   4.861 -0.8696 -0.1952 -0.0727
  792MOL0     C 6844   7.492   5.028   4.846  0.1022  0.5493  0.4794
  792MOL0     C 6845   7.413   5.005   4.971  0.7732 -0.5575 -1.0246
  792MOL0     C 6846   7.320   5.118   5.000 -0.0800 -0.0682  0.4112
  792MOL0     C 6847   7.213   5.084   5.108 -0.2205 -0.3655  0.3125
  792MOL0     C 6848   7.149   4.956   5.073  0.1389 -0.0851 -0.1455
  792MOL0     C 6849   7.091   4.856   5.036  0.7052 -0.5790 -0.3453
  792MOL0     C 6850   7.712   5.048   4.655 -0.2899  0.6995  0.4988
  792MOL0     C 6851   7.816   5.067   4.559 -0.3055  0.6214  1.1605
  792MOL0     C 6852   7.846   4.951   4.461  0.4556 -0.1807 -0.0763
  792MOL0     H 6853   8.263   5.180   4.349  0.1119  0.4544 -0.5043
  792MOL0     H 6854   8.434   5.312   4.177  0.0264  0.2549 -1.7449
  792MOL0     H 6855   8.631   5.394   4.186 -0.9581 -0.5292  0.5590
  792MOL0     H 6856   8.551   5.445   4.046  0.1940  2.0952 -1.4023
  792MOL0     H 6857   8.701   5.665   4.034  0.2813 -0.1013 -0.7140
  792MOL0     H 6858   8.781   5.510   4.043 -2.0842 -2.0856  0.9471
  792MOL0     H 6859   8.762   5.603   4.307  1.8516 -2.0036 -0.6626
  792MOL0     H 6860   8.783   5.752   4.213 -0.5993 -0.3399  2.0751
  792MOL0     H 6861   9.017   5.643   4.272  0.2998  1.6716 -0.8148
  792MOL0     H 6862   8.950   5.511   4.163 -0.0781 -0.1161 -0.7546
  792MOL0     H 6863   8.924   5.707   3.995 -0.6654  0.9419  1.5524
  792MOL0     H 6864   9.022   5.802   4.106  3.2813  0.4261 -0.3200
  792MOL0     H 6865   9.193   5.630   4.115 -2.6464 -0.2754  0.9755
  792MOL0     H 6866   9.124   5.538   3.978  0.2945  1.7418 -1.9360
  792MOL0     H 6867   9.233   5.826   3.965 -2.5340 -0.1343  0.7422
  792MOL0     H 6868   9.161   5.746   3.827  2.7682  1.3623 -0.5549
  792MOL0     H 6869   9.435   5.685   3.957  0.8276 -3.2719  0.0444
  792MOL0     H 6870   9.334   5.558   3.894 -0.5468 -0.6758  1.1867
  792MOL0     H 6871   9.463   5.930   3.783 -1.0950 -0.2349  1.5790
  792MOL0     H 6872   9.579   5.916   3.440  1.9764 -1.5612 -0.8642
  792MOL0     H 6873   9.572   6.018   3.584 -1.3692 -1.2867  2.8297
  792MOL0     H 6874   9.776   5.952   3.675 -2.0352 -2.9905  1.3735
  792MOL0     H 6875   9.769   5.795   3.617 -0.2228 -0.3201  1.8636
  792MOL0     H 6876   9.813   6.029   3.430  3.9964  1.1124  0.6941
  792MOL0     H 6877   9.826   5.854   3.393 -2.1652 -0.8777  1.1077
  792MOL0     H 6878  10.007   5.847   3.574  0.0510  0.3120 -0.6539
  792MOL0     H 6879   9.978   6.009   3.619  2.3656 -0.8879  1.1684
  792MOL0     H 6880  10.180   5.952   3.680 -0.0807  2.0121 -0.4385
  792MOL0     H 6881  10.396   5.915   3.736 -0.2097 -0.4771  0.4461
  792MOL0     H 6882  10.896   5.796   3.394 -2.9143  0.1743  2.1385
  792MOL0     H 6883  11.136   5.794   3.451 -2.2496 -0.1965 -1.7488
  792MOL0     H 6884  11.311   5.769   3.636  1.0832  0.6243  2.0880
  792MOL0     H 6885  11.347   5.865   3.486  0.7884  1.9861  0.6396
  792MOL0     H 6886  11.520   5.983   3.638  0.5850 -1.0301  0.0022
  792MOL0     H 6887  11.472   5.877   3.762 -0.6307  0.1677  0.8900
  792MOL0     H 6888  11.546   5.694   3.571  2.5981 -2.0793  1.0504
  792MOL0     H 6889  11.616   5.842   3.521 -0.8118 -0.2385  0.6654
  792MOL0     H 6890  11.651   5.689   3.782  0.6659 -0.7715 -0.2206
  792MOL0     H 6891  11.698   5.857   3.784 -1.1950  0.7566 -0.0012
  792MOL0     H 6892  11.835   5.837   3.589 -1.2578 -0.0218 -1.4473
  792MOL0     H 6893  11.795   5.668   3.568  0.2677 -0.2387  0.9611
  792MOL0     H 6894  11.940   5.786   3.821  0.3544  1.2394 -1.9506
  792MOL0     H 6895  11.906   5.619   3.792 -1.0991 -0.7602 -0.4362
  792MOL0     H 6896  12.087   5.806   3.640  0.6436 -1.0679 -2.0880
  792MOL0     H 6897  12.021   5.661   3.553 -0.3488 -1.0399  0.9983
  792MOL0     H 6898  12.186   5.636   3.819  3.8729 -1.2460 -1.3420
  792MOL0     H 6899  12.127   5.512   3.704  0.4518  0.0030 -1.2309
  792MOL0     H 6900  11.054   6.137   3.707  1.2224 -1.4667  0.7635
  792MOL0     H 6901  10.820   6.125   3.637 -0.7772  0.0873 -3.1670
  792MOL0     H 6902  10.502   5.913   3.312  2.4798 -2.0942  1.6238
  792MOL0     H 6903  10.258   5.930   3.262 -0.1748 -3.3762  2.1981
  792MOL0     H 6904   8.374   5.660   4.391 -1.5860  1.4784 -2.4963
  792MOL0     H 6905   8.173   5.559   4.527 -0.1673  0.3754 -0.4308
  792MOL0     H 6906   7.916   5.364   4.686  1.9924 -1.6893  0.2132
  792MOL0     H 6907   7.753   5.315   4.846  0.9291 -0.7597 -0.1592
  792MOL0     H 6908   7.527   4.926   4.825 -0.0816  0.4365  0.7170
  792MOL0     H 6909   7.424   5.043   4.762 -0.4024  1.7064  1.0718
  792MOL0     H 6910   7.491   4.989   5.046 -1.2019 -0.6853  1.1013
  792MOL0     H 6911   7.360   4.909   4.961 -4.2561  1.5373  1.8006
  792MOL0     H 6912   7.257   5.143   4.914 -0.0160  2.7345  1.0752
  792MOL0     H 6913   7.367   5.211   5.034 -2.1789  0.6819  1.4533
  792MOL0     H 6914   7.254   5.067   5.208  0.9373 -0.2281 -0.1216
  792MOL0     H 6915   7.138   5.163   5.116 -1.5624 -1.7130  1.5508
  792MOL0     H 6916   7.045   4.771   4.989  3.4373 -1.2884 -1.9753
  792MOL0     H 6917   7.650   4.959   4.648  0.2309  0.2985  0.9205
  792MOL0     H 6918   7.791   4.973   4.369  0.1665  1.8053  0.5285
  792MOL0     H 6919   7.954   4.941   4.445  0.8905  0.1017  2.2178
  792MOL0     H 6920   7.817   4.857   4.510 -0.0897 -1.0699 -2.0094
  793MOL0     O 6921   5.393   3.652   0.372 -0.4465  0.0830 -0.2564
  793MOL0     C 6922   5.457   3.634   0.474  0.5976  0.5451 -0.5825
  793MOL0     O 6923   5.593   3.651   0.489  0.1109 -0.6882  0.1821
  793MOL0     C 6924   5.659   3.712   0.380 -0.2627  0.2485 -0.4287
  793MOL0     C 6925   5.723   3.633   0.283 -0.6375 -1.2797 -0.4744
  793MOL0     C 6926   5.804   3.700   0.184  0.0202 -0.3911 -0.0553
  793MOL0     C 6927   5.826   3.842   0.184  0.6199  0.3572 -0.3012
  793MOL0     O 6928   5.911   3.895   0.085 -0.3274 -0.0246  0.0974
  793MOL0     C 6929   6.039   3.950   0.138  0.3980  0.3398  0.3199
  793MOL0     C 6930   6.149   3.838   0.152  0.4233  0.5889  0.5060
  793MOL0     C 6931   6.284   3.909   0.212  0.1087  0.3746 -0.6336
  793MOL0     C 6932   6.380   3.937   0.101 -0.4062  0.3807  0.2511
  793MOL0     C 6933   6.510   4.009   0.134 -0.2953  0.1279 -0.1836
  793MOL0     C 6934   6.610   4.010   0.009  0.8163 -0.4543  0.6081
  793MOL0     C 6935   6.737   4.103   0.023  0.0801 -0.9874  0.1178
  793MOL0     C 6936   6.824   4.047   0.128 -0.0880 -0.8236  0.1466
  793MOL0     N 6937   6.953   4.131   0.143  0.3443 -0.1852 -0.3853
  793MOL0     C 6938   7.081   4.086   0.133 -0.2925  0.3277 -0.2532
  793MOL0     C 6939   7.165   4.192   0.153  0.2165  0.5511  0.7684
  793MOL0     C 6940   7.315   4.210   0.140  0.1870  0.7040  0.6182
  793MOL0     C 6941   7.394   4.111   0.223 -0.0347  0.1736  0.3800
  793MOL0     C 6942   7.382   4.136   0.377 -0.4071 -0.2191  0.5745
  793MOL0     C 6943   7.478   4.052   0.455  0.6831  0.0583 -0.1660
  793MOL0     O 6944   7.616   4.071   0.432 -0.4210  0.9200  0.5267
  793MOL0     C 6945   7.699   4.009   0.520  0.8059  0.9038 -0.0052
  793MOL0     C 6946   7.663   3.918   0.624  0.0522 -1.4617 -0.1861
  793MOL0     C 6947   7.763   3.877   0.714 -0.2590  0.1826  0.3954
  793MOL0     C 6948   7.895   3.910   0.694  0.0086 -0.6952 -0.4085
  793MOL0     C 6949   8.010   3.853   0.769  0.0239  0.1660 -0.0894
  793MOL0     O 6950   8.138   3.887   0.739  0.2244 -0.5930 -0.1062
  793MOL0     C 6951   8.245   3.797   0.771  0.8615 -0.5097  0.7566
  793MOL0     C 6952   8.352   3.847   0.847 -0.9156  0.3884 -0.8785
  793MOL0     C 6953   8.459   3.758   0.874 -1.0196  0.0597 -0.4223
  793MOL0     C 6954   8.472   3.638   0.814  0.1971 -0.0169  0.0809
  793MOL0     O 6955   8.572   3.549   0.812 -0.4040  0.2612  0.2950
  793MOL0     C 6956   8.702   3.589   0.865  1.0260  0.2914 -0.2786
  793MOL0     C 6957   8.795   3.458   0.856  0.2884 -0.7431  0.1117
  793MOL0     C 6958   8.947   3.480   0.873  0.4738 -1.0058 -0.4227
  793MOL0     C 6959   8.997   3.546   1.002  0.2516 -0.3087  0.6136
  793MOL0     C 6960   9.144   3.503   1.010 -0.0908 -0.0978 -0.5407
  793MOL0     C 6961   9.206   3.564   1.143  0.1192 -0.2320  0.2817
  793MOL0     C 6962   9.349   3.512   1.161 -0.2434  0.6446  0.0451
  793MOL0     C 6963   9.360   3.367   1.209  1.0408  0.3156  0.0429
  793MOL0    Cl 6964   9.521   3.312   1.267  0.2420  0.1026 -0.6640
  793MOL0     C 6965   8.368   3.596   0.731  0.1140  0.0284 -0.0473
  793MOL0     C 6966   8.258   3.669   0.702  0.1758  0.3736 -0.4742
  793MOL0     O 6967   7.982   3.776   0.866 -0.2823  0.7983  0.1047
  793MOL0     C 6968   7.930   3.989   0.586  0.4219 -0.2920  0.6897
  793MOL0     C 6969   7.831   4.033   0.500  0.0396 -0.3846  0.7340
  793MOL0     N 6970   7.084   4.298   0.187 -0.4745  0.1328 -0.7542
  793MOL0     N 6971   6.960   4.264   0.172 -0.3828  0.1619 -0.4315
  793MOL0     C 6972   5.761   3.912   0.282  0.5521  0.4477 -0.3017
  793MOL0     C 6973   5.676   3.850   0.380 -0.8418  0.2971  0.6628
  793MOL0     C 6974   5.393   3.582   0.600 -0.4986  0.1853 -0.6308
  793MOL0     C 6975   5.452   3.611   0.722  0.7287  0.6612 -0.2374
  793MOL0     C 6976   5.399   3.564   0.847  1.0243 -0.1959 -0.0284
  793MOL0     C 6977   5.278   3.487   0.842  0.0379  0.1973 -0.6877
  793MOL0     O 6978   5.222   3.420   0.955  0.1575 -0.2710  0.2298
  793MOL0     C 6979   5.246   3.456   1.088  0.1215  0.4185  0.9686
  793MOL0     C 6980   5.202   3.601   1.128 -0.4311 -0.0557 -0.5192
  793MOL0     C 6981   5.184   3.623   1.281 -0.6138  0.2440  0.1253
  793MOL0     C 6982   5.310   3.594   1.355 -0.9816  1.1405  0.4490
  793MOL0     C 6983   5.270   3.590   1.504 -0.5843 -0.1064 -0.2430
  793MOL0     C 6984   5.234   3.581   1.622  0.1117  0.0852 -0.4004
  793MOL0     C 6985   5.223   3.451   0.725 -0.0765 -0.2799  0.7180
  793MOL0     C 6986   5.274   3.505   0.607  0.0617 -0.3733 -0.4309
  793MOL0     C 6987   5.182   3.464   0.493 -0.1308  0.0149  0.7861
  793MOL0     H 6988   5.715   3.525   0.277 -0.2370 -1.3230 -0.2737
  793MOL0     H 6989   5.844   3.641   0.102 -0.7525 -1.0338  0.0195
  793MOL0     H 6990   6.072   4.030   0.072  0.2280  0.2883  0.1713
  793MOL0     H 6991   6.009   3.992   0.235 -1.6643  0.4132 -0.2913
  793MOL0     H 6992   6.172   3.781   0.061 -1.0556 -1.6529  1.4560
  793MOL0     H 6993   6.113   3.762   0.223  1.3753 -2.4056 -1.9715
  793MOL0     H 6994   6.330   3.851   0.292 -2.5065 -0.9782 -0.0035
  793MOL0     H 6995   6.251   3.998   0.266  0.4573  0.2599 -0.2264
  793MOL0     H 6996   6.407   3.837   0.067  1.3401  0.6211  0.7831
  793MOL0     H 6997   6.328   3.985   0.018 -1.6718  0.4055  1.0277
  793MOL0     H 6998   6.502   4.114   0.163  1.3881  0.9136 -2.2606
  793MOL0     H 6999   6.556   3.956   0.217 -0.7640  1.4592  0.9666
  793MOL0     H 7000   6.648   3.910  -0.012  1.3535 -0.1668  0.1934
  793MOL0     H 7001   6.568   4.047  -0.085  0.4669 -3.2724 -0.4199
  793MOL0     H 7002   6.717   4.203   0.063 -0.2507 -0.5793 -1.0316
  793MOL0     H 7003   6.783   4.127  -0.073 -1.2222  1.8558  0.0782
  793MOL0     H 7004   6.780   4.050   0.228  1.5573  1.4315  0.8790
  793MOL0     H 7005   6.865   3.948   0.104  0.0528  0.0643 -4.0347
  793MOL0     H 7006   7.119   3.987   0.111 -0.7276  0.3733 -1.2610
  793MOL0     H 7007   7.336   4.193   0.034 -2.5939  0.1498  0.0607
  793MOL0     H 7008   7.347   4.312   0.162 -0.8978  1.4096 -0.8571
  793MOL0     H 7009   7.365   4.009   0.195 -1.1256  0.8047 -0.8678
  793MOL0     H 7010   7.501   4.123   0.204  0.9732  1.0289  5.1661
  793MOL0     H 7011   7.281   4.098   0.397  0.6153 -1.7961  3.3378
  793MOL0     H 7012   7.383   4.241   0.406  1.3689  0.2703 -1.0825
  793MOL0     H 7013   7.454   3.948   0.430  1.0971  0.3015 -1.6850
  793MOL0     H 7014   7.446   4.069   0.559 -3.1665  1.1552 -1.3778
  793MOL0     H 7015   7.559   3.901   0.654  0.2277  1.9887  3.1485
  793MOL0     H 7016   7.738   3.817   0.802 -2.8176 -1.2332 -1.1717
  793MOL0     H 7017   8.339   3.948   0.885 -0.6919  0.0700  0.0790
  793MOL0     H 7018   8.538   3.782   0.945 -1.5285  0.3548  0.0557
  793MOL0     H 7019   8.735   3.674   0.805 -0.1113  1.0915  0.1767
  793MOL0     H 7020   8.699   3.626   0.968 -0.8963 -0.3081 -0.0730
  793MOL0     H 7021   8.754   3.379   0.920 -2.2484 -0.2970 -0.8298
  793MOL0     H 7022   8.779   3.397   0.766 -0.2544 -0.8474  0.2709
  793MOL0     H 7023   8.994   3.384   0.853  0.2411 -0.9905 -1.0843
  793MOL0     H 7024   8.982   3.542   0.790 -1.8667  0.2572 -0.5541
  793MOL0     H 7025   8.938   3.506   1.085 -2.9889 -1.4721 -2.0013
  793MOL0     H 7026   8.983   3.653   0.986  1.6610  0.1937  2.4299
  793MOL0     H 7027   9.201   3.543   0.926  0.1506 -0.7862 -0.7154
  793MOL0     H 7028   9.155   3.394   1.012  3.3015  0.1433  0.5214
  793MOL0     H 7029   9.199   3.673   1.139  1.3169 -0.1629 -0.3816
  793MOL0     H 7030   9.147   3.520   1.224 -1.6024  3.1322  1.0085
  793MOL0     H 7031   9.405   3.570   1.234 -1.0808 -0.5460  1.6833
  793MOL0     H 7032   9.405   3.526   1.068  1.8011 -0.1009  1.1061
  793MOL0     H 7033   9.297   3.349   1.297  2.3141 -0.4692  0.8240
  793MOL0     H 7034   9.334   3.298   1.129  0.1608 -3.8325  3.4956
  793MOL0     H 7035   8.362   3.497   0.687  1.2237 -1.1342  2.2173
  793MOL0     H 7036   8.176   3.652   0.632 -0.7921  1.9394  0.2309
  793MOL0     H 7037   8.034   4.004   0.558  1.1321 -1.4941  2.4729
  793MOL0     H 7038   7.860   4.087   0.410  0.0474 -1.8527 -0.1710
  793MOL0     H 7039   5.781   4.019   0.281  3.4886  0.0109  0.8106
  793MOL0     H 7040   5.624   3.897   0.462 -1.6460 -0.2557  0.4783
  793MOL0     H 7041   5.551   3.655   0.715  0.0806  2.1301 -0.4416
  793MOL0     H 7042   5.453   3.589   0.938  0.3336 -2.1900  0.9835
  793MOL0     H 7043   5.352   3.449   1.116 -0.4588 -0.4446  3.1242
  793MOL0     H 7044   5.193   3.375   1.138  0.8241 -0.9404 -0.4313
  793MOL0     H 7045   5.110   3.632   1.077  0.0442 -2.0408 -2.7664
  793MOL0     H 7046   5.273   3.675   1.089 -1.3679 -0.1922 -2.6422
  793MOL0     H 7047   5.105   3.553   1.312 -1.0363  1.7509  2.7803
  793MOL0     H 7048   5.140   3.720   1.306 -2.1582 -0.2603 -0.4910
  793MOL0     H 7049   5.351   3.495   1.332 -0.3288  0.6281  3.3087
  793MOL0     H 7050   5.383   3.672   1.332 -1.1890  1.1474 -0.1848
  793MOL0     H 7051   5.208   3.573   1.726  2.9079  0.0988  0.3893
  793MOL0     H 7052   5.131   3.394   0.727 -0.1302 -0.1819  1.0127
  793MOL0     H 7053   5.227   3.372   0.456 -0.2939  0.5404 -0.7781
  793MOL0     H 7054   5.086   3.428   0.530 -0.7254 -0.7402 -1.3656
  793MOL0     H 7055   5.178   3.530   0.406 -0.9149 -0.0347  0.7733
  794MOL0     O 7056   5.419   4.709   0.039 -0.3299  0.1581 -0.4447
  794MOL0     C 7057   5.412   4.639   0.144 -0.0588  0.2098  0.4738
  794MOL0     O 7058   5.499   4.651   0.249  0.7307  0.7807 -0.2064
  794MOL0     C 7059   5.622   4.687   0.218  0.6402  0.5990  0.2424
  794MOL0     C 7060   5.660   4.817   0.261 -1.0528  1.1265  0.8428
  794MOL0     C 7061   5.781   4.867   0.216 -0.2165  0.4100 -0.4970
  794MOL0     C 7062   5.860   4.800   0.119 -1.2389 -0.7796  0.3163
  794MOL0     O 7063   5.989   4.858   0.097 -0.1734 -0.1516  0.9058
  794MOL0     C 7064   6.050   4.826  -0.027 -1.1231 -0.6654  0.3137
  794MOL0     C 7065   6.169   4.924  -0.054 -0.1201 -0.0735 -0.3031
  794MOL0     C 7066   6.256   4.936   0.070  0.5568 -0.8218  0.3297
  794MOL0     C 7067   6.410   4.955   0.035 -0.7547 -0.2204 -0.0243
  794MOL0     C 7068   6.452   5.078  -0.052  0.5686  0.4440 -1.0232
  794MOL0     C 7069   6.607   5.086  -0.063  0.9944  0.3200  0.7552
  794MOL0     C 7070   6.651   5.227  -0.091  0.4758 -0.0943 -0.4902
  794MOL0     C 7071   6.807   5.230  -0.099  0.5971  0.0217  0.1274
  794MOL0     N 7072   6.857   5.361  -0.081  0.5252 -0.1585  0.4191
  794MOL0     C 7073   6.970   5.402  -0.019  0.9567 -0.5485 -0.4270
  794MOL0     C 7074   6.998   5.525  -0.069 -0.5619  0.8548 -0.3758
  794MOL0     C 7075   7.128   5.604  -0.034 -0.6687 -0.6291 -0.1011
  794MOL0     C 7076   7.130   5.742  -0.108 -0.0788  0.1593 -0.1553
  794MOL0     C 7077   7.257   5.811  -0.067 -1.1735 -0.6247 -0.7029
  794MOL0     C 7078   7.318   5.913  -0.165  0.1548  0.0134  0.9967
  794MOL0     O 7079   7.390   6.029  -0.117 -0.0937 -0.8440  0.2354
  794MOL0     C 7080   7.512   6.018  -0.058  0.3649  1.3439 -0.1857
  794MOL0     C 7081   7.594   5.908  -0.043  0.9171 -0.0514 -0.7319
  794MOL0     C 7082   7.709   5.910   0.029  0.7123  0.3114  0.0659
  794MOL0     C 7083   7.753   6.031   0.083  0.7425 -0.8389  0.3854
  794MOL0     C 7084   7.884   6.048   0.151  0.4108  0.7764 -0.2555
  794MOL0     O 7085   7.937   6.171   0.154  0.6166 -0.6683  0.0111
  794MOL0     C 7086   8.066   6.177   0.202 -0.3818 -0.2597 -0.2243
  794MOL0     C 7087   8.099   6.204   0.339 -0.0342  1.0480 -0.7176
  794MOL0     C 7088   8.224   6.204   0.390  0.1235 -0.1916 -1.4677
  794MOL0     C 7089   8.333   6.191   0.308 -1.0112 -0.0181  0.2407
  794MOL0     O 7090   8.463   6.185   0.368  0.5356  0.3633  0.4307
  794MOL0     C 7091   8.567   6.111   0.307 -0.3089 -0.7979  0.1661
  794MOL0     C 7092   8.680   6.104   0.419 -1.1315  0.0883 -0.6606
  794MOL0     C 7093   8.767   6.224   0.457  0.4390 -0.1979  0.9161
  794MOL0     C 7094   8.913   6.170   0.484 -0.2454 -0.2163  0.3939
  794MOL0     C 7095   8.994   6.274   0.564 -0.1840  0.2873  1.0099
  794MOL0     C 7096   9.143   6.235   0.591 -0.3477 -0.7668 -0.1037
  794MOL0     C 7097   9.226   6.229   0.467  0.0542  0.8607  0.3489
  794MOL0     C 7098   9.370   6.236   0.497 -0.5117  0.1028  0.0737
  794MOL0    Cl 7099   9.419   6.413   0.525  0.2786 -0.0402 -0.0093
  794MOL0     C 7100   8.315   6.170   0.173 -0.4086 -0.2538 -0.4196
  794MOL0     C 7101   8.184   6.162   0.125  0.2053 -0.5270  0.5623
  794MOL0     O 7102   7.928   5.949   0.201 -0.0903  0.0194  1.2572
  794MOL0     C 7103   7.671   6.142   0.077  0.3632  0.0342 -0.5278
  794MOL0     C 7104   7.548   6.131   0.002  0.0063 -0.2061 -0.0217
  794MOL0     N 7105   6.899   5.560  -0.165 -0.1332  0.6836  0.2088
  794MOL0     N 7106   6.813   5.460  -0.171 -0.2247  0.4074  0.3818
  794MOL0     C 7107   5.821   4.673   0.080 -0.1372 -0.1800 -0.3157
  794MOL0     C 7108   5.709   4.609   0.134  0.0493  1.3458  0.6356
  794MOL0     C 7109   5.283   4.552   0.167 -0.5480 -0.2982  0.5600
  794MOL0     C 7110   5.283   4.479   0.286 -0.3523  0.2386 -0.8763
  794MOL0     C 7111   5.181   4.389   0.316  0.2571  0.5898 -0.0837
  794MOL0     C 7112   5.070   4.381   0.235  0.4912 -0.2431 -0.6316
  794MOL0     O 7113   4.966   4.315   0.295 -1.0229 -1.1063  0.0108
  794MOL0     C 7114   4.888   4.236   0.212  1.1679  0.2061 -0.6540
  794MOL0     C 7115   4.933   4.094   0.183 -0.4060  1.1692  0.7709
  794MOL0     C 7116   4.842   3.973   0.147 -0.5378  0.8399 -0.8691
  794MOL0     C 7117   4.800   3.890   0.271 -0.5608  0.2062  0.2969
  794MOL0     C 7118   4.918   3.818   0.307 -0.3305 -0.0498 -0.1654
  794MOL0     C 7119   5.018   3.766   0.356 -0.4931  0.2143 -0.2919
  794MOL0     C 7120   5.072   4.461   0.116  0.1249 -0.7067 -0.1566
  794MOL0     C 7121   5.179   4.530   0.073 -0.0119 -0.4370  0.4907
  794MOL0     C 7122   5.179   4.596  -0.067  0.1072 -0.2713  0.0955
  794MOL0     H 7123   5.604   4.873   0.335  1.0651  0.8533  2.7729
  794MOL0     H 7124   5.824   4.958   0.257  2.3431 -1.0748  0.3841
  794MOL0     H 7125   6.090   4.725  -0.013  1.2560  0.2494  0.7575
  794MOL0     H 7126   5.978   4.823  -0.109  1.3327 -0.3397 -1.9967
  794MOL0     H 7127   6.125   5.020  -0.082  1.1799  0.2722 -1.2466
  794MOL0     H 7128   6.223   4.884  -0.141 -1.5956  0.1302 -1.3593
  794MOL0     H 7129   6.255   4.842   0.126 -2.2436 -0.2619  1.3581
  794MOL0     H 7130   6.225   5.019   0.134  1.2397  0.5795 -1.0839
  794MOL0     H 7131   6.467   4.959   0.129  2.0244 -1.1885 -1.5568
  794MOL0     H 7132   6.443   4.859  -0.005 -0.8322 -0.0334 -0.5372
  794MOL0     H 7133   6.390   5.083  -0.142 -1.7389  0.4811  0.4780
  794MOL0     H 7134   6.415   5.162   0.008  0.3756 -2.1731  2.8473
  794MOL0     H 7135   6.668   5.044   0.019 -2.2655 -3.6729  1.4594
  794MOL0     H 7136   6.629   5.021  -0.148  0.7418  1.9089 -0.5668
  794MOL0     H 7137   6.623   5.295  -0.011  3.4357  0.2896  0.3079
  794MOL0     H 7138   6.602   5.260  -0.183  1.2340 -1.2225 -1.3244
  794MOL0     H 7139   6.848   5.161  -0.025 -1.8784 -1.7147  0.0166
  794MOL0     H 7140   6.831   5.193  -0.199  1.0097 -1.0793  0.6172
  794MOL0     H 7141   7.019   5.349   0.062  3.1841  3.2515  0.9506
  794MOL0     H 7142   7.161   5.624   0.069  0.5185  1.2217 -0.8008
  794MOL0     H 7143   7.205   5.545  -0.083  0.6478  2.0899 -1.5055
  794MOL0     H 7144   7.130   5.730  -0.216  0.0798  1.8063 -0.3741
  794MOL0     H 7145   7.046   5.805  -0.076  1.5618  2.8024 -0.7014
  794MOL0     H 7146   7.329   5.732  -0.044 -1.5520 -0.2789  1.9913
  794MOL0     H 7147   7.250   5.861   0.030 -3.4686 -1.9543 -0.1132
  794MOL0     H 7148   7.239   5.970  -0.214  2.1837  0.8192 -1.5363
  794MOL0     H 7149   7.367   5.854  -0.242 -0.2014  1.9946 -0.8252
  794MOL0     H 7150   7.558   5.814  -0.082 -0.2877  0.3111 -0.5300
  794MOL0     H 7151   7.759   5.815   0.047  0.9934  0.6903  1.4438
  794MOL0     H 7152   8.019   6.221   0.410  0.1628 -0.8064  0.0004
  794MOL0     H 7153   8.238   6.216   0.497  1.4509 -0.4706 -1.5944
  794MOL0     H 7154   8.523   6.012   0.291  0.6759 -0.7184 -4.3039
  794MOL0     H 7155   8.599   6.168   0.219 -2.5578 -2.1907 -1.7104
  794MOL0     H 7156   8.637   6.062   0.511  0.1032 -0.5808 -0.3592
  794MOL0     H 7157   8.747   6.025   0.382 -3.4798 -1.4039 -1.9544
  794MOL0     H 7158   8.762   6.291   0.370  3.3719 -3.4811 -2.1390
  794MOL0     H 7159   8.743   6.284   0.545 -2.6544  1.9651 -1.1793
  794MOL0     H 7160   8.958   6.155   0.386  0.0493  1.8413  0.1627
  794MOL0     H 7161   8.916   6.084   0.552  0.3204  1.7054  2.9658
  794MOL0     H 7162   8.947   6.277   0.663  0.0450 -0.2502  1.1424
  794MOL0     H 7163   8.986   6.376   0.526 -2.9465 -0.4503 -0.6332
  794MOL0     H 7164   9.177   6.322   0.648  0.0113 -1.6199  1.0405
  794MOL0     H 7165   9.147   6.148   0.657 -0.7224 -1.6537 -1.2231
  794MOL0     H 7166   9.196   6.294   0.385 -1.1937 -0.0971  0.0187
  794MOL0     H 7167   9.213   6.132   0.418  0.0256  1.1174 -0.1656
  794MOL0     H 7168   9.397   6.180   0.587 -1.5000 -0.4567  0.0377
  794MOL0     H 7169   9.434   6.197   0.417 -0.0809 -0.6312  0.7562
  794MOL0     H 7170   8.400   6.169   0.105 -1.2112 -2.5576 -1.4798
  794MOL0     H 7171   8.181   6.136   0.019 -0.4595  3.4262 -0.5462
  794MOL0     H 7172   7.699   6.240   0.113 -1.1653  0.2891  0.0470
  794MOL0     H 7173   7.495   6.226  -0.010 -0.0181 -0.2707 -0.4617
  794MOL0     H 7174   5.879   4.614   0.009 -0.4783 -2.0109  0.8468
  794MOL0     H 7175   5.666   4.517   0.095  2.2819  0.6595 -0.3264
  794MOL0     H 7176   5.367   4.484   0.354 -1.4112  0.6970  0.4313
  794MOL0     H 7177   5.170   4.340   0.412 -0.2454  0.2867 -0.2951
  794MOL0     H 7178   4.861   4.279   0.115 -0.0604 -2.0152 -1.3648
  794MOL0     H 7179   4.797   4.236   0.273  0.8475 -0.4271 -1.1203
  794MOL0     H 7180   4.986   4.067   0.275  1.0530  0.3361 -0.2765
  794MOL0     H 7181   4.999   4.098   0.096 -0.8693 -0.9531  0.2806
  794MOL0     H 7182   4.904   3.904   0.087  1.1799  2.0492 -0.5588
  794MOL0     H 7183   4.750   4.003   0.097 -1.2255 -0.1527 -0.2511
  794MOL0     H 7184   4.765   3.941   0.362  3.4663 -0.8089  2.6678
  794MOL0     H 7185   4.719   3.819   0.248 -2.5813  2.0322  1.3692
  794MOL0     H 7186   5.103   3.741   0.416 -2.0162 -0.7705  1.5673
  794MOL0     H 7187   4.989   4.452   0.046 -0.4023 -3.0299  0.6859
  794MOL0     H 7188   5.276   4.588  -0.117  0.4647 -0.7322  0.8380
  794MOL0     H 7189   5.098   4.552  -0.125 -1.8905  0.7167  2.0005
  794MOL0     H 7190   5.163   4.703  -0.055  2.5283  0.4148 -1.9461
  795MOL0     O 7191   2.772   6.351   8.869 -0.8151  0.1663  0.1529
  795MOL0     C 7192   2.714   6.299   8.960 -0.0394  0.4564  0.0337
  795MOL0     O 7193   2.775   6.244   9.070 -0.0048  0.0370 -0.0506
  795MOL0     C 7194   2.915   6.242   9.063  1.2409 -0.3037  0.9307
  795MOL0     C 7195   2.988   6.362   9.087 -0.6728  0.4521 -0.3160
  795MOL0     C 7196   3.124   6.360   9.098  0.0371 -0.6144 -0.1680
  795MOL0     C 7197   3.190   6.237   9.088 -0.5214 -0.0737 -0.2152
  795MOL0     O 7198   3.320   6.230   9.114 -0.3672  0.4705  0.5744
  795MOL0     C 7199   3.408   6.342   9.087 -0.3691 -0.7049  0.3280
  795MOL0     C 7200   3.428   6.374   8.936  0.3489  0.1470 -0.1814
  795MOL0     C 7201   3.579   6.393   8.889  0.7912 -0.1964 -0.2601
  795MOL0     C 7202   3.666   6.483   8.978 -1.1471 -0.5651 -0.6498
  795MOL0     C 7203   3.798   6.504   8.903  0.0631 -0.6052 -0.1687
  795MOL0     C 7204   3.884   6.384   8.890 -0.0418 -0.0275 -0.1120
  795MOL0     C 7205   4.033   6.426   8.872 -0.6316 -0.0749  0.8912
  795MOL0     C 7206   4.116   6.309   8.823 -0.7735  0.8033  0.1730
  795MOL0     N 7207   4.262   6.332   8.814 -0.0962 -0.7895 -0.3823
  795MOL0     C 7208   4.348   6.374   8.910 -0.3848 -0.0039 -0.9120
  795MOL0     C 7209   4.464   6.381   8.851  0.4175 -0.3322  0.1567
  795MOL0     C 7210   4.591   6.419   8.917  0.7315 -0.5936 -0.8117
  795MOL0     C 7211   4.621   6.567   8.928  0.6636 -1.1275  0.2596
  795MOL0     C 7212   4.750   6.600   9.008  0.8848 -0.2130  0.3546
  795MOL0     C 7213   4.771   6.753   9.014 -0.0732  0.6643  0.0678
  795MOL0     O 7214   4.692   6.817   9.115  0.0689  0.7654 -0.2038
  795MOL0     C 7215   4.724   6.939   9.166  0.2498  0.0035 -0.3552
  795MOL0     C 7216   4.722   6.971   9.295  0.3928 -0.0209 -0.0172
  795MOL0     C 7217   4.783   7.086   9.354 -0.4298  0.6854  0.8961
  795MOL0     C 7218   4.840   7.184   9.265 -0.1003 -0.9629 -0.4930
  795MOL0     C 7219   4.890   7.323   9.311  0.4067 -0.5925  0.9474
  795MOL0     O 7220   4.915   7.334   9.446 -0.3146 -0.2790 -0.0805
  795MOL0     C 7221   4.937   7.457   9.502  0.2163 -0.6810 -0.3804
  795MOL0     C 7222   4.883   7.575   9.456  0.3585 -0.0929  0.1371
  795MOL0     C 7223   4.927   7.690   9.516  0.6518 -0.2040 -0.1645
  795MOL0     C 7224   5.010   7.693   9.626  0.2444 -0.6350  0.0027
  795MOL0     O 7225   5.027   7.816   9.699 -0.1914  0.1741  0.4678
  795MOL0     C 7226   5.087   7.813   9.823  0.6000  0.2075 -0.1822
  795MOL0     C 7227   5.124   7.953   9.853 -0.6759  0.8436 -0.3443
  795MOL0     C 7228   5.261   7.978   9.930  0.0967  0.8849  0.8756
  795MOL0     C 7229   5.275   8.129   9.957 -0.5073  0.6263 -0.4958
  795MOL0     C 7230   5.407   8.151  10.022 -1.0780 -0.7764  0.1117
  795MOL0     C 7231   5.457   8.297  10.035  0.0018  0.2556  0.2691
  795MOL0     C 7232   5.588   8.294  10.105 -0.5863 -1.1514  0.5303
  795MOL0     C 7233   5.608   8.435  10.173  0.4267  0.2277 -0.5373
  795MOL0    Cl 7234   5.760   8.443  10.252  0.0184  0.6578  0.0974
  795MOL0     C 7235   5.082   7.576   9.662  0.7256  0.3217  0.2242
  795MOL0     C 7236   5.041   7.457   9.597  0.1678 -1.1866  0.1134
  795MOL0     O 7237   4.906   7.415   9.228  0.2513 -0.2949 -0.0827
  795MOL0     C 7238   4.847   7.151   9.131 -0.4323  0.7232  0.8054
  795MOL0     C 7239   4.785   7.032   9.079  0.0514 -0.0201  0.0983
  795MOL0     N 7240   4.452   6.349   8.709 -0.0539 -0.3078 -1.1158
  795MOL0     N 7241   4.328   6.312   8.700 -0.1070 -0.3935 -0.9117
  795MOL0     C 7242   3.107   6.121   9.062 -0.1959 -0.2510  0.0958
  795MOL0     C 7243   2.973   6.124   9.040  0.1837  0.7640  0.3002
  795MOL0     C 7244   2.566   6.298   8.949  0.1074  0.5834  0.8197
  795MOL0     C 7245   2.492   6.182   8.993 -0.1109 -0.8141  0.9936
  795MOL0     C 7246   2.350   6.180   8.991  0.0787  0.1603  0.7862
  795MOL0     C 7247   2.283   6.297   8.929 -1.2393  0.2841  1.2053
  795MOL0     O 7248   2.151   6.306   8.931  0.3480  0.1611  0.2894
  795MOL0     C 7249   2.089   6.220   8.843 -0.8040  0.4843  0.6588
  795MOL0     C 7250   1.962   6.283   8.788  0.3782  0.5065  0.6260
  795MOL0     C 7251   1.855   6.308   8.902 -0.6522 -0.4327  0.7578
  795MOL0     C 7252   1.789   6.447   8.894  0.2232  0.6890  0.4691
  795MOL0     C 7253   1.730   6.472   8.761  0.0180  0.4310 -0.9627
  795MOL0     C 7254   1.703   6.486   8.641 -0.6338 -0.4349 -0.3978
  795MOL0     C 7255   2.350   6.409   8.880 -0.1680 -0.4807 -0.0563
  795MOL0     C 7256   2.493   6.403   8.881  0.0504 -0.8651  0.7964
  795MOL0     C 7257   2.561   6.529   8.818  0.2276  0.0077  0.3780
  795MOL0     H 7258   2.930   6.454   9.092  0.6513  1.2689  0.5511
  795MOL0     H 7259   3.164   6.461   9.107 -2.3496  0.3550  0.2341
  795MOL0     H 7260   3.376   6.440   9.123 -1.7245  0.2646 -3.1623
  795MOL0     H 7261   3.500   6.316   9.140 -0.3568  0.4058  0.8846
  795MOL0     H 7262   3.369   6.461   8.907 -0.3877 -0.0909  0.5474
  795MOL0     H 7263   3.374   6.290   8.891 -0.5194  1.1428 -1.0493
  795MOL0     H 7264   3.572   6.430   8.786  1.1410 -0.1994 -0.2883
  795MOL0     H 7265   3.621   6.294   8.868 -0.6216 -0.2931 -3.0861
  795MOL0     H 7266   3.620   6.581   8.994  3.7933  1.8413  0.9234
  795MOL0     H 7267   3.691   6.445   9.077  0.1225  0.9301 -0.3594
  795MOL0     H 7268   3.783   6.546   8.803 -1.1757 -0.3271  0.1177
  795MOL0     H 7269   3.851   6.577   8.966 -2.5596 -0.0788  1.6067
  795MOL0     H 7270   3.885   6.316   8.976  1.5375  0.2527  0.1211
  795MOL0     H 7271   3.839   6.326   8.809 -1.1082  0.5672  0.0335
  795MOL0     H 7272   4.076   6.452   8.969  0.4528 -0.6642  0.5889
  795MOL0     H 7273   4.039   6.518   8.813 -0.0598 -0.2232  0.7125
  795MOL0     H 7274   4.092   6.231   8.896  0.3897 -0.1819 -0.4534
  795MOL0     H 7275   4.085   6.274   8.724 -1.3522 -0.2725  0.7197
  795MOL0     H 7276   4.319   6.395   9.013  0.8637 -2.7184  0.1200
  795MOL0     H 7277   4.598   6.385   9.021 -0.6151 -1.0440 -0.8436
  795MOL0     H 7278   4.673   6.370   8.862  1.3700 -1.0221  0.4766
  795MOL0     H 7279   4.635   6.605   8.826  1.0013 -0.2684  0.6098
  795MOL0     H 7280   4.536   6.623   8.968  0.4226 -0.9359 -0.5047
  795MOL0     H 7281   4.834   6.568   8.947 -1.0781 -0.7819 -2.2412
  795MOL0     H 7282   4.753   6.556   9.108 -0.9203  0.7679  0.8927
  795MOL0     H 7283   4.739   6.790   8.917  1.1202  0.7126 -0.3226
  795MOL0     H 7284   4.878   6.772   9.022  0.4846 -1.9407 -0.4201
  795MOL0     H 7285   4.676   6.899   9.362 -1.2526  2.0507  1.1891
  795MOL0     H 7286   4.775   7.096   9.462  0.7204 -1.1001  1.1861
  795MOL0     H 7287   4.799   7.570   9.387  0.2395 -4.1474  0.3370
  795MOL0     H 7288   4.894   7.779   9.463 -0.3235 -1.9833 -2.7306
  795MOL0     H 7289   5.031   7.756   9.897  3.7737 -2.9403  0.0884
  795MOL0     H 7290   5.177   7.751   9.820  0.3200 -0.2737  1.1335
  795MOL0     H 7291   5.126   8.019   9.766 -1.0225  1.3438  0.0241
  795MOL0     H 7292   5.051   7.988   9.926 -0.7009  0.4018 -0.1543
  795MOL0     H 7293   5.265   7.908  10.015  4.3133 -1.5751 -0.9764
  795MOL0     H 7294   5.338   7.937   9.864 -0.6386  0.0633  0.5043
  795MOL0     H 7295   5.201   8.160  10.031  1.5326  1.5088  1.2680
  795MOL0     H 7296   5.268   8.184   9.863 -0.0256  0.1506 -0.8169
  795MOL0     H 7297   5.482   8.095   9.966 -1.0320 -0.7708  0.1680
  795MOL0     H 7298   5.397   8.117  10.126  0.3313  1.0983  0.9139
  795MOL0     H 7299   5.462   8.350   9.939  2.1312 -1.0633 -0.4137
  795MOL0     H 7300   5.377   8.343  10.093 -0.3962 -1.0803  0.8115
  795MOL0     H 7301   5.670   8.279  10.034 -0.9534  0.1558 -0.2051
  795MOL0     H 7302   5.587   8.217  10.182 -1.9424  0.0777  1.8187
  795MOL0     H 7303   5.596   8.517  10.102 -0.9273  0.3275 -0.2214
  795MOL0     H 7304   5.529   8.433  10.248 -0.1700  1.1500 -1.1221
  795MOL0     H 7305   5.152   7.566   9.744  0.5829  0.2496  0.3384
  795MOL0     H 7306   5.089   7.364   9.624  2.5295 -0.0775 -0.0111
  795MOL0     H 7307   4.879   7.225   9.057 -0.1857 -0.8114 -0.6753
  795MOL0     H 7308   4.783   7.014   8.972  0.5339 -2.0093  0.3791
  795MOL0     H 7309   3.150   6.023   9.079  0.9758  0.4593  1.5090
  795MOL0     H 7310   2.915   6.035   9.015  0.5331  0.5598  0.2165
  795MOL0     H 7311   2.537   6.096   9.042 -0.1300 -0.8836  0.8898
  795MOL0     H 7312   2.292   6.095   9.027 -1.4115  1.1648  0.7969
  795MOL0     H 7313   2.072   6.120   8.885  3.1164 -1.7947 -2.4355
  795MOL0     H 7314   2.158   6.202   8.761  1.0831  0.6437  2.1373
  795MOL0     H 7315   1.929   6.225   8.702  1.9952 -2.0077  1.5978
  795MOL0     H 7316   1.991   6.380   8.747  1.1298  0.1386  0.2735
  795MOL0     H 7317   1.895   6.288   9.001 -0.3567 -1.4094  0.4449
  795MOL0     H 7318   1.774   6.236   8.883 -0.9385  0.1110 -0.1778
  795MOL0     H 7319   1.711   6.472   8.967  1.0378  1.9220  0.9407
  795MOL0     H 7320   1.870   6.518   8.912  2.4747 -1.3716 -0.9548
  795MOL0     H 7321   1.685   6.495   8.535  0.2901 -1.0828 -0.6264
  795MOL0     H 7322   2.299   6.500   8.853 -1.2804  0.3471  4.0960
  795MOL0     H 7323   2.632   6.500   8.741  0.7006  1.4283  0.2405
  795MOL0     H 7324   2.495   6.608   8.779 -0.0517  0.2718  1.3546
  795MOL0     H 7325   2.612   6.579   8.901 -1.0734  0.4239  0.9596
  796MOL0     O 7326   1.829   0.395   4.343 -0.1248  0.4515  0.3022
  796MOL0     C 7327   1.847   0.404   4.461 -0.8755 -0.8326 -0.4561
  796MOL0     O 7328   1.960   0.450   4.529 -0.4644  0.6138 -0.7989
  796MOL0     C 7329   2.072   0.457   4.451 -0.4423  0.9629 -0.2277
  796MOL0     C 7330   2.182   0.374   4.486 -0.3494 -0.1765 -0.0825
  796MOL0     C 7331   2.306   0.374   4.419 -0.2552  1.1534 -0.7047
  796MOL0     C 7332   2.328   0.470   4.320  0.0185  0.9972  0.0333
  796MOL0     O 7333   2.441   0.507   4.256  0.1936 -0.7490 -0.1222
  796MOL0     C 7334   2.551   0.421   4.285 -1.1696 -0.1588  0.6649
  796MOL0     C 7335   2.674   0.476   4.200 -0.5351  0.1972 -1.0795
  796MOL0     C 7336   2.655   0.441   4.056 -0.1894 -0.0690  0.8985
  796MOL0     C 7337   2.726   0.325   3.988  0.7003 -0.4150 -0.1888
  796MOL0     C 7338   2.724   0.351   3.835 -0.6940  0.4675 -0.2980
  796MOL0     C 7339   2.793   0.242   3.745  0.1299  0.6489  0.8407
  796MOL0     C 7340   2.829   0.284   3.598 -0.7147 -0.2445  0.0009
  796MOL0     C 7341   2.850   0.172   3.506 -0.5172 -0.2347 -0.0758
  796MOL0     N 7342   2.955   0.074   3.558  0.0413  0.0496  0.9261
  796MOL0     C 7343   3.093   0.084   3.537 -0.3044  0.1177  0.4139
  796MOL0     C 7344   3.146  -0.032   3.581  0.1749 -0.0603 -0.7226
  796MOL0     C 7345   3.294  -0.076   3.569 -0.4516 -0.1834  0.2697
  796MOL0     C 7346   3.306  -0.207   3.500 -0.5912  0.5594 -0.1599
  796MOL0     C 7347   3.448  -0.265   3.524  0.1884 -0.3152  0.4531
  796MOL0     C 7348   3.569  -0.178   3.481 -0.0593  0.4025  0.5689
  796MOL0     O 7349   3.609  -0.099   3.588 -0.4768 -0.2099  0.6009
  796MOL0     C 7350   3.719  -0.011   3.575  0.4697 -0.6078  1.0386
  796MOL0     C 7351   3.745   0.074   3.680 -0.0420  0.3054 -0.0001
  796MOL0     C 7352   3.857   0.157   3.694  0.0420 -0.1707 -0.0488
  796MOL0     C 7353   3.944   0.171   3.577  0.2669  0.6075  0.7641
  796MOL0     C 7354   4.067   0.257   3.582 -0.5865 -0.2834  0.4553
  796MOL0     O 7355   4.148   0.226   3.481 -0.0500 -0.3308  0.9129
  796MOL0     C 7356   4.265   0.291   3.458  0.6570  0.7718 -0.3316
  796MOL0     C 7357   4.368   0.212   3.403 -0.8106  0.1789  0.2801
  796MOL0     C 7358   4.485   0.277   3.360 -0.4577  0.2429  0.3829
  796MOL0     C 7359   4.512   0.410   3.372 -0.3055 -0.2633 -0.3117
  796MOL0     O 7360   4.630   0.452   3.329 -0.0662 -0.0327  0.9005
  796MOL0     C 7361   4.678   0.589   3.346  0.2697  0.3426  0.2676
  796MOL0     C 7362   4.643   0.663   3.213 -0.0738 -0.0475 -0.2841
  796MOL0     C 7363   4.668   0.820   3.205  0.3993  0.4003 -0.4467
  796MOL0     C 7364   4.801   0.876   3.264  0.4617  0.1747  0.0850
  796MOL0     C 7365   4.797   1.031   3.238  0.8930  0.5459 -0.6429
  796MOL0     C 7366   4.919   1.100   3.290  0.0288 -0.4115  0.9051
  796MOL0     C 7367   4.939   1.232   3.217  0.8418  0.4597  0.2018
  796MOL0     C 7368   5.059   1.312   3.269 -0.5894  0.3499  0.0263
  796MOL0    Cl 7369   5.209   1.226   3.205 -0.4666  0.8177 -0.3619
  796MOL0     C 7370   4.413   0.492   3.425  0.0284  0.5969 -0.5552
  796MOL0     C 7371   4.286   0.428   3.474 -0.1518  0.0660  0.1037
  796MOL0     O 7372   4.089   0.326   3.678 -0.4972 -0.5157  0.5192
  796MOL0     C 7373   3.906   0.086   3.465 -0.1546 -0.2952  0.1095
  796MOL0     C 7374   3.798   0.000   3.461  1.0586 -1.0642 -0.0728
  796MOL0     N 7375   3.042  -0.116   3.628 -0.0943  0.4079  0.8238
  796MOL0     N 7376   2.933  -0.050   3.626 -0.1665 -0.3612  0.0288
  796MOL0     C 7377   2.220   0.548   4.278  0.3789 -0.2918 -0.9181
  796MOL0     C 7378   2.098   0.541   4.340 -0.2451  0.2648 -0.3535
  796MOL0     C 7379   1.728   0.369   4.545  0.5779 -0.2655  0.1675
  796MOL0     C 7380   1.597   0.364   4.492 -0.1944  0.1894  0.0287
  796MOL0     C 7381   1.488   0.327   4.570 -0.3173 -0.1444  0.0712
  796MOL0     C 7382   1.493   0.312   4.701  0.3159  1.2397 -0.3649
  796MOL0     O 7383   1.380   0.271   4.771  0.1495 -0.0874 -0.3933
  796MOL0     C 7384   1.261   0.230   4.698 -0.6015 -0.4539 -0.0574
  796MOL0     C 7385   1.163   0.198   4.811  0.0585 -0.1625  0.3699
  796MOL0     C 7386   1.024   0.182   4.747 -1.0470  0.2620  0.2959
  796MOL0     C 7387   0.991   0.037   4.721  0.0774  0.1460 -0.2562
  796MOL0     C 7388   0.854   0.012   4.667 -1.4393  0.3463 -0.2960
  796MOL0     C 7389   0.752  -0.017   4.607 -0.0340  0.3642 -0.0262
  796MOL0     C 7390   1.619   0.300   4.754 -0.5223 -0.1197  0.0849
  796MOL0     C 7391   1.737   0.329   4.683 -0.2685  0.0646  1.0671
  796MOL0     C 7392   1.873   0.327   4.754  0.3511 -0.5192  0.0221
  796MOL0     H 7393   2.163   0.315   4.575  0.3283  1.3592  1.1392
  796MOL0     H 7394   2.389   0.312   4.450 -0.8352  0.6196 -0.2053
  796MOL0     H 7395   2.578   0.443   4.389  0.7123 -1.0089  0.4092
  796MOL0     H 7396   2.536   0.313   4.273  1.0762 -0.3927 -0.5836
  796MOL0     H 7397   2.762   0.425   4.242 -1.8251 -1.3393 -0.1247
  796MOL0     H 7398   2.679   0.584   4.216 -3.1443  0.2682 -0.1766
  796MOL0     H 7399   2.690   0.527   3.999 -1.2421 -0.1633  0.0723
  796MOL0     H 7400   2.549   0.429   4.030  0.1522 -1.2405 -0.0632
  796MOL0     H 7401   2.827   0.311   4.026 -0.1967 -2.9346  1.5257
  796MOL0     H 7402   2.660   0.241   4.012  0.0194 -0.1596 -1.0858
  796MOL0     H 7403   2.618   0.357   3.807 -0.8217 -0.5999 -0.0519
  796MOL0     H 7404   2.779   0.444   3.815  2.5036 -1.6392 -2.2328
  796MOL0     H 7405   2.888   0.219   3.794  0.3385 -3.2578 -1.0506
  796MOL0     H 7406   2.730   0.153   3.753 -0.4832  0.9121 -0.6213
  796MOL0     H 7407   2.924   0.338   3.610 -0.1893 -1.4682  1.8371
  796MOL0     H 7408   2.743   0.340   3.562 -0.4132  1.2562  1.4689
  796MOL0     H 7409   2.758   0.120   3.477 -2.1005  1.3309  1.8207
  796MOL0     H 7410   2.879   0.216   3.410 -0.6525  2.8345  1.1744
  796MOL0     H 7411   3.140   0.170   3.489 -3.4562  2.2091  0.7282
  796MOL0     H 7412   3.353   0.000   3.517  0.0087 -0.7226 -0.0053
  796MOL0     H 7413   3.321  -0.075   3.675 -0.6725 -0.9246  0.3360
  796MOL0     H 7414   3.241  -0.276   3.554  0.4501 -1.3005 -1.1853
  796MOL0     H 7415   3.298  -0.197   3.392  3.3612 -0.4983 -0.7017
  796MOL0     H 7416   3.450  -0.365   3.481 -2.4152 -0.9740  1.6938
  796MOL0     H 7417   3.453  -0.275   3.633  0.3804  0.0875  0.4846
  796MOL0     H 7418   3.529  -0.124   3.394  0.7781 -0.4490 -0.3638
  796MOL0     H 7419   3.653  -0.243   3.456 -0.1184 -0.1984  1.8613
  796MOL0     H 7420   3.673   0.061   3.760 -0.8633  0.6557 -0.6707
  796MOL0     H 7421   3.875   0.220   3.780 -0.5079 -0.5662  0.3628
  796MOL0     H 7422   4.364   0.104   3.395 -2.8654  0.2675 -0.4093
  796MOL0     H 7423   4.562   0.225   3.304  0.4865  2.5423 -0.5745
  796MOL0     H 7424   4.638   0.645   3.431 -1.9914  3.0172 -2.3108
  796MOL0     H 7425   4.786   0.582   3.355  0.0503 -4.5923  2.2353
  796MOL0     H 7426   4.708   0.620   3.137  0.7453 -0.7938  0.8030
  796MOL0     H 7427   4.536   0.669   3.192 -0.4426  3.9699  1.7235
  796MOL0     H 7428   4.658   0.856   3.102 -0.6899  2.7742  0.4282
  796MOL0     H 7429   4.586   0.871   3.256 -0.8892 -1.2647 -0.7486
  796MOL0     H 7430   4.885   0.830   3.211 -0.4919  1.2094 -2.5334
  796MOL0     H 7431   4.812   0.849   3.369  3.3477  2.0812  0.3838
  796MOL0     H 7432   4.714   1.077   3.292  1.3092  0.6975 -0.1228
  796MOL0     H 7433   4.783   1.054   3.132 -0.4924  3.2765  0.0417
  796MOL0     H 7434   4.927   1.113   3.398 -1.1231 -0.7866  1.0508
  796MOL0     H 7435   5.008   1.046   3.254  1.5973  2.3291  0.4415
  796MOL0     H 7436   4.848   1.290   3.239 -1.2536 -2.8658  1.1428
  796MOL0     H 7437   4.951   1.207   3.111  0.3622  1.1951 -0.0328
  796MOL0     H 7438   5.060   1.416   3.235 -4.4403 -0.7498 -4.3697
  796MOL0     H 7439   5.046   1.317   3.378 -2.3935  0.3397 -0.1645
  796MOL0     H 7440   4.427   0.600   3.418 -0.1337  0.5241 -2.7294
  796MOL0     H 7441   4.206   0.497   3.499  0.7832  1.5285 -0.7565
  796MOL0     H 7442   3.961   0.079   3.372 -0.4774 -1.1554 -0.0257
  796MOL0     H 7443   3.783  -0.050   3.365  0.1986  1.1847 -1.1896
  796MOL0     H 7444   2.247   0.617   4.198  2.9611  0.2791  0.3387
  796MOL0     H 7445   2.014   0.607   4.322 -1.6873 -0.9169  1.6905
  796MOL0     H 7446   1.566   0.388   4.390  1.9947 -0.7758 -0.9327
  796MOL0     H 7447   1.395   0.325   4.515 -0.8296 -3.2706  0.8893
  796MOL0     H 7448   1.272   0.141   4.636 -1.6204 -0.6905  0.0760
  796MOL0     H 7449   1.232   0.325   4.653 -2.1499  0.6940  3.0308
  796MOL0     H 7450   1.157   0.279   4.884 -1.7444 -0.2753  0.3862
  796MOL0     H 7451   1.193   0.107   4.865  0.5515  0.8282  1.8403
  796MOL0     H 7452   1.007   0.251   4.663 -2.3325  0.0451  0.3517
  796MOL0     H 7453   0.951   0.213   4.823 -2.0428  0.0788 -0.5572
  796MOL0     H 7454   1.054  -0.011   4.647  0.6599  0.1653  0.2193
  796MOL0     H 7455   1.009  -0.015   4.816  0.6511  3.8845  1.8876
  796MOL0     H 7456   0.664  -0.034   4.549 -0.2343  0.4533  0.2473
  796MOL0     H 7457   1.619   0.276   4.860  0.4526 -2.3085 -0.3641
  796MOL0     H 7458   1.897   0.429   4.783  1.3636 -0.6669 -0.2710
  796MOL0     H 7459   1.869   0.267   4.846 -0.6727  1.1697  1.1427
  796MOL0     H 7460   1.953   0.284   4.694 -1.2153 -3.2285 -0.2836
  797MOL0     O 7461   7.100   1.471  11.325  0.4678 -0.3856 -0.2610
  797MOL0     C 7462   7.000   1.536  11.359  0.2116 -0.6606  0.1101
  797MOL0     O 7463   7.000   1.628  11.465 -0.2282 -0.0925  0.4636
  797MOL0     C 7464   7.108   1.660  11.534 -1.0470 -0.2364 -0.0244
  797MOL0     C 7465   7.089   1.692  11.672  0.6736  0.0147 -0.1434
  797MOL0     C 7466   7.194   1.737  11.747  0.2754 -0.8258 -0.5950
  797MOL0     C 7467   7.322   1.753  11.698  0.1888 -0.2434  0.4031
  797MOL0     O 7468   7.422   1.823  11.757 -0.4738 -0.3624  0.7173
  797MOL0     C 7469   7.405   1.886  11.887  0.1580  0.8877 -1.3243
  797MOL0     C 7470   7.398   1.790  12.012  0.7351 -0.0253  0.2987
  797MOL0     C 7471   7.530   1.723  12.051  0.2072  0.0405  0.4035
  797MOL0     C 7472   7.505   1.574  12.072  0.8076 -0.4361 -0.1163
  797MOL0     C 7473   7.618   1.501  12.143  0.2924 -0.2216  0.0893
  797MOL0     C 7474   7.595   1.349  12.158  0.0413 -0.5325  0.1693
  797MOL0     C 7475   7.472   1.300  12.232  0.3431  0.8003  0.5954
  797MOL0     C 7476   7.511   1.201  12.344 -0.0446  0.4362 -0.9463
  797MOL0     N 7477   7.563   1.274  12.463 -0.1181 -0.9284 -0.6117
  797MOL0     C 7478   7.695   1.282  12.506  0.0664  0.2077  0.8331
  797MOL0     C 7479   7.682   1.359  12.622 -0.3507  0.5638 -0.1984
  797MOL0     C 7480   7.798   1.408  12.702  0.3651 -0.0642 -0.3200
  797MOL0     C 7481   7.806   1.338  12.841 -0.9141 -0.5084  0.7468
  797MOL0     C 7482   7.938   1.358  12.925 -0.4189  0.4236  0.3212
  797MOL0     C 7483   7.988   1.506  12.938  0.3988  0.3677  0.3729
  797MOL0     O 7484   8.123   1.519  12.986 -0.7377  0.6612  0.2290
  797MOL0     C 7485   8.229   1.514  12.899  0.8387 -0.5429  0.4286
  797MOL0     C 7486   8.350   1.541  12.947 -0.3410 -0.1231 -0.5797
  797MOL0     C 7487   8.469   1.546  12.870  0.3304  0.0836  0.2726
  797MOL0     C 7488   8.457   1.512  12.735  0.3354  0.2081 -0.2651
  797MOL0     C 7489   8.573   1.492  12.664  1.1687  0.5896 -0.1819
  797MOL0     O 7490   8.694   1.522  12.718 -0.1153 -0.2907  0.3166
  797MOL0     C 7491   8.806   1.528  12.638  0.0880  0.2498  0.2438
  797MOL0     C 7492   8.809   1.596  12.517 -0.6006  0.0538  0.8742
  797MOL0     C 7493   8.927   1.608  12.446  0.6642  0.0954  0.5289
  797MOL0     C 7494   9.043   1.547  12.488  0.5176 -0.4790 -0.7890
  797MOL0     O 7495   9.162   1.557  12.421  0.7547 -0.6912  0.5286
  797MOL0     C 7496   9.198   1.687  12.375  0.8053 -0.3920 -0.3505
  797MOL0     C 7497   9.227   1.778  12.498 -0.8295  0.1058  0.0388
  797MOL0     C 7498   9.289   1.918  12.459  0.3319 -1.3542 -0.0001
  797MOL0     C 7499   9.430   1.936  12.429 -0.4449  0.3361 -0.1159
  797MOL0     C 7500   9.470   1.923  12.283  0.0237 -0.2664 -0.7288
  797MOL0     C 7501   9.610   1.863  12.268 -0.5851 -0.3991  0.1921
  797MOL0     C 7502   9.613   1.709  12.287  0.6665 -1.5069  0.3727
  797MOL0     C 7503   9.748   1.655  12.262  0.4404 -0.2064  0.0586
  797MOL0    Cl 7504   9.840   1.685  12.420  0.0694  0.1436  0.5191
  797MOL0     C 7505   9.040   1.463  12.604 -0.4896 -0.6933  0.5116
  797MOL0     C 7506   8.919   1.457  12.677 -0.0315 -0.4426  0.2689
  797MOL0     O 7507   8.557   1.432  12.556  0.0593 -0.0400 -0.6244
  797MOL0     C 7508   8.327   1.504  12.677 -0.2041  0.5284 -0.2859
  797MOL0     C 7509   8.216   1.491  12.752 -0.4350 -0.4154  0.4329
  797MOL0     N 7510   7.550   1.391  12.658 -0.0802  0.4156  0.0052
  797MOL0     N 7511   7.478   1.348  12.549  0.1006 -0.2911  0.6462
  797MOL0     C 7512   7.340   1.706  11.562 -0.3612 -0.5234  0.3241
  797MOL0     C 7513   7.236   1.670  11.485  0.7630 -0.2882 -0.8793
  797MOL0     C 7514   6.883   1.531  11.271 -0.0875 -0.6710 -0.6174
  797MOL0     C 7515   6.802   1.654  11.268  0.5322 -0.1504 -0.5261
  797MOL0     C 7516   6.686   1.661  11.202 -0.2032  0.6423  0.3703
  797MOL0     C 7517   6.638   1.560  11.123 -0.1003 -0.3204  0.3172
  797MOL0     O 7518   6.530   1.575  11.038 -0.1121 -0.2309  0.6627
  797MOL0     C 7519   6.436   1.676  11.056 -0.6013 -0.6135 -0.5658
  797MOL0     C 7520   6.317   1.675  10.956  0.8525 -0.2723  0.9549
  797MOL0     C 7521   6.258   1.537  10.943  1.0997 -0.1394 -0.3474
  797MOL0     C 7522   6.116   1.515  10.880 -0.1484 -1.2796  0.0015
  797MOL0     C 7523   6.091   1.379  10.835 -0.1863  0.1827 -0.1825
  797MOL0     C 7524   6.093   1.254  10.824  0.0573 -0.3556 -0.5558
  797MOL0     C 7525   6.724   1.445  11.106  0.1198 -0.1788 -0.4268
  797MOL0     C 7526   6.838   1.426  11.181 -0.1517 -0.6511  0.6858
  797MOL0     C 7527   6.912   1.302  11.168  0.4677  0.5271  0.3206
  797MOL0     H 7528   6.990   1.708  11.712  1.4545  3.0857  0.8671
  797MOL0     H 7529   7.161   1.764  11.846 -2.6215  0.4146 -1.7695
  797MOL0     H 7530   7.489   1.952  11.909 -0.3843  0.7431  1.5357
  797MOL0     H 7531   7.314   1.945  11.870 -0.7214 -0.4605 -1.4821
  797MOL0     H 7532   7.315   1.721  11.991  0.5043  0.2571  0.2732
  797MOL0     H 7533   7.366   1.852  12.096 -3.3599 -1.1287 -0.2103
  797MOL0     H 7534   7.567   1.759  12.147  0.8275  0.1346  0.1384
  797MOL0     H 7535   7.610   1.734  11.977 -0.5591 -1.7380 -0.7647
  797MOL0     H 7536   7.413   1.565  12.130  1.4136  0.3089  1.0041
  797MOL0     H 7537   7.484   1.537  11.971 -0.8694  2.6242 -0.9907
  797MOL0     H 7538   7.707   1.539  12.091  0.7323  0.0572  1.0197
  797MOL0     H 7539   7.632   1.540  12.244  1.8944  3.0625 -1.2335
  797MOL0     H 7540   7.600   1.312  12.056  0.8091 -1.1171  0.4127
  797MOL0     H 7541   7.687   1.312  12.204 -0.1088 -0.5840  0.4340
  797MOL0     H 7542   7.407   1.238  12.170  1.0794  2.3074 -1.8222
  797MOL0     H 7543   7.416   1.385  12.273  1.4968  0.6012  2.7553
  797MOL0     H 7544   7.418   1.149  12.366  2.0824 -2.4609  2.0060
  797MOL0     H 7545   7.584   1.123  12.321  1.0946  0.6969  1.4807
  797MOL0     H 7546   7.792   1.249  12.473  1.3981  2.0731  2.6232
  797MOL0     H 7547   7.892   1.385  12.649  0.0804  0.0278 -0.8766
  797MOL0     H 7548   7.784   1.516  12.714 -2.0469 -0.1864 -1.4545
  797MOL0     H 7549   7.717   1.376  12.892 -2.1176 -1.5990 -0.4508
  797MOL0     H 7550   7.789   1.231  12.832 -0.9740 -0.3460 -2.3552
  797MOL0     H 7551   8.014   1.304  12.868 -2.5704 -3.5225  0.8351
  797MOL0     H 7552   7.920   1.308  13.021  2.6466 -1.1895  0.1772
  797MOL0     H 7553   7.925   1.554  13.014  0.3850 -2.2955  2.1452
  797MOL0     H 7554   7.974   1.547  12.838  0.1744 -3.1376 -1.1671
  797MOL0     H 7555   8.361   1.554  13.054 -0.1207  2.0157 -0.8324
  797MOL0     H 7556   8.567   1.556  12.916 -0.0963 -0.8836  1.4440
  797MOL0     H 7557   8.721   1.629  12.464  0.4773 -0.9063 -1.6562
  797MOL0     H 7558   8.928   1.664  12.353  3.0944  0.3861  0.6839
  797MOL0     H 7559   9.290   1.681  12.316  0.6270  0.1403 -0.6891
  797MOL0     H 7560   9.123   1.725  12.306  1.5945 -0.0462 -1.0338
  797MOL0     H 7561   9.142   1.811  12.558 -2.2709  2.2260 -2.8913
  797MOL0     H 7562   9.306   1.731  12.557  1.8165  0.9830 -2.5325
  797MOL0     H 7563   9.229   1.949  12.372 -0.3616 -1.0921  0.5649
  797MOL0     H 7564   9.264   1.982  12.544  0.3602  0.5692 -1.3538
  797MOL0     H 7565   9.478   1.851  12.478 -1.6341 -0.4810 -0.3100
  797MOL0     H 7566   9.478   2.024  12.471  0.0311  0.1344 -0.2277
  797MOL0     H 7567   9.456   2.021  12.237  0.0392  0.6985  1.2491
  797MOL0     H 7568   9.397   1.858  12.233 -2.5815  0.7832  1.4708
  797MOL0     H 7569   9.648   1.893  12.169 -0.2592  3.4750  1.3202
  797MOL0     H 7570   9.668   1.907  12.349  2.4021 -2.5363 -0.6183
  797MOL0     H 7571   9.548   1.656  12.218  1.1471  0.2185 -1.5233
  797MOL0     H 7572   9.580   1.684  12.388  0.3224 -0.3703  0.5607
  797MOL0     H 7573   9.752   1.547  12.242 -0.6220  0.1950 -2.9129
  797MOL0     H 7574   9.800   1.703  12.178  0.6500 -1.5542 -0.6079
  797MOL0     H 7575   9.132   1.435  12.655  1.2651  2.6446 -0.4608
  797MOL0     H 7576   8.942   1.412  12.773 -0.1283  0.3156  0.6573
  797MOL0     H 7577   8.333   1.493  12.569  1.5147  1.4799 -0.3203
  797MOL0     H 7578   8.119   1.480  12.704 -0.6577 -1.2938  1.0567
  797MOL0     H 7579   7.439   1.711  11.518  0.0894  2.9965  1.3673
  797MOL0     H 7580   7.244   1.650  11.379 -0.1042 -1.0923 -0.8039
  797MOL0     H 7581   6.829   1.740  11.328 -1.2574  0.5715 -0.6876
  797MOL0     H 7582   6.632   1.755  11.205  1.9023  1.9104  2.6554
  797MOL0     H 7583   6.476   1.777  11.048  0.7860 -1.2290 -1.8768
  797MOL0     H 7584   6.394   1.674  11.157  3.1851 -0.6555  1.1916
  797MOL0     H 7585   6.355   1.708  10.859  0.9241  1.7008  1.5981
  797MOL0     H 7586   6.241   1.743  10.998  1.0230  1.0837 -0.8173
  797MOL0     H 7587   6.257   1.475  11.033 -0.2689 -1.1364 -1.0128
  797MOL0     H 7588   6.329   1.487  10.875  1.2719  1.9289 -1.7905
  797MOL0     H 7589   6.043   1.546  10.955  0.3345  2.6473 -0.9393
  797MOL0     H 7590   6.104   1.580  10.793 -0.5250  0.1593  1.1002
  797MOL0     H 7591   6.115   1.149  10.832 -0.4638 -0.9024 -4.2421
  797MOL0     H 7592   6.673   1.381  11.035 -2.5076 -0.4931  1.6029
  797MOL0     H 7593   6.990   1.301  11.091 -0.9383 -1.1747 -1.1600
  797MOL0     H 7594   6.953   1.265  11.262  1.2640  1.1729  0.2432
  797MOL0     H 7595   6.848   1.222  11.130 -0.3869  0.2407  2.2403
  798MOL0     O 7596  10.702   1.096   7.013  0.3540 -0.1347  0.7243
  798MOL0     C 7597  10.678   1.011   6.927  0.0730 -0.1609  0.0042
  798MOL0     O 7598  10.762   0.984   6.822  0.5392  0.3762  0.8134
  798MOL0     C 7599  10.861   1.075   6.798 -0.5138 -0.2532  0.0495
  798MOL0     C 7600  10.993   1.042   6.815 -0.2559 -0.0199 -1.0045
  798MOL0     C 7601  11.101   1.143   6.788 -0.1978  0.4042  0.2312
  798MOL0     C 7602  11.065   1.264   6.737 -0.1388 -0.5412 -0.4078
  798MOL0     O 7603  11.154   1.374   6.723 -0.2157  0.5707 -0.0502
  798MOL0     C 7604  11.298   1.344   6.748  0.7267  0.7074  0.2101
  798MOL0     C 7605  11.390   1.460   6.686  0.2318  0.1948  0.0404
  798MOL0     C 7606  11.541   1.434   6.694  0.2537 -0.7055  0.7652
  798MOL0     C 7607  11.611   1.554   6.631 -0.3378  0.1599  0.1466
  798MOL0     C 7608  11.762   1.547   6.645  0.1231 -0.0942  0.0508
  798MOL0     C 7609  11.815   1.668   6.722 -0.5369  0.4123  0.8976
  798MOL0     C 7610  11.822   1.637   6.879  0.9916 -0.2071  0.0656
  798MOL0     C 7611  11.903   1.740   6.961  0.3900 -0.9180  0.0125
  798MOL0     N 7612  11.859   1.739   7.109  0.2408  0.6709  0.9481
  798MOL0     C 7613  11.723   1.768   7.150 -0.5941  0.2127 -0.8189
  798MOL0     C 7614  11.726   1.723   7.275  0.9583 -0.4718 -0.1762
  798MOL0     C 7615  11.613   1.714   7.373  0.4154  0.2069 -0.1130
  798MOL0     C 7616  11.569   1.849   7.418  0.5704 -0.2952 -0.7455
  798MOL0     C 7617  11.636   1.909   7.540  0.1824 -0.2966 -0.3051
  798MOL0     C 7618  11.569   2.052   7.572  0.1902  0.6807 -0.1727
  798MOL0     O 7619  11.591   2.158   7.478 -0.3144  0.4042 -0.2577
  798MOL0     C 7620  11.713   2.214   7.444 -0.4520 -0.5263 -0.3470
  798MOL0     C 7621  11.719   2.304   7.343 -0.3638  0.5112  0.1270
  798MOL0     C 7622  11.840   2.366   7.312  0.3717  0.8470 -0.4467
  798MOL0     C 7623  11.958   2.334   7.375  0.7685 -0.8632  0.3416
  798MOL0     C 7624  12.087   2.394   7.329  0.4040  0.8867  0.1212
  798MOL0     O 7625  12.077   2.499   7.250 -0.0025 -0.0003 -0.0908
  798MOL0     C 7626  12.193   2.558   7.205 -0.2655 -0.3885  0.1001
  798MOL0     C 7627  12.265   2.487   7.110 -1.4168 -0.2685 -0.9572
  798MOL0     C 7628  12.378   2.539   7.053 -0.4592  0.3147 -0.3800
  798MOL0     C 7629  12.424   2.669   7.094  0.3906  0.3915  0.6861
  798MOL0     O 7630  12.541   2.714   7.043 -0.4956 -0.3819 -0.3831
  798MOL0     C 7631  12.620   2.815   7.109 -0.1501  0.3305  0.2608
  798MOL0     C 7632  12.737   2.856   7.026  0.3570  0.2326  0.0940
  798MOL0     C 7633  12.691   2.913   6.893  0.1137  0.8467  0.7190
  798MOL0     C 7634  12.784   3.018   6.837 -0.8704  0.7952  0.1778
  798MOL0     C 7635  12.927   2.964   6.796  0.3074  0.6564  0.3369
  798MOL0     C 7636  13.018   3.062   6.730  0.4644  0.0468 -0.1132
  798MOL0     C 7637  13.008   3.210   6.775 -0.4415 -0.0345 -0.0295
  798MOL0     C 7638  13.093   3.298   6.693  0.4146  0.0797  1.2918
  798MOL0    Cl 7639  13.047   3.281   6.522 -0.4094 -0.3865  0.0202
  798MOL0     C 7640  12.351   2.740   7.186 -0.6368  0.2893  0.0830
  798MOL0     C 7641  12.239   2.687   7.242  0.6947 -0.5903 -0.1641
  798MOL0     O 7642  12.195   2.351   7.381  1.2227  0.4608  1.1712
  798MOL0     C 7643  11.952   2.243   7.478 -0.0727  0.5702  0.4387
  798MOL0     C 7644  11.831   2.191   7.519  1.1108 -0.2907  0.5658
  798MOL0     N 7645  11.855   1.677   7.311  0.0697 -0.0726 -1.2663
  798MOL0     N 7646  11.937   1.700   7.217  0.3882  0.1124  0.1070
  798MOL0     C 7647  10.934   1.288   6.703  0.4767  0.1759 -0.3559
  798MOL0     C 7648  10.833   1.194   6.733  0.0335 -0.2467 -0.2671
  798MOL0     C 7649  10.553   0.919   6.949  0.2900 -0.0032  0.7570
  798MOL0     C 7650  10.575   0.785   6.942  0.3534  0.2320  0.0743
  798MOL0     C 7651  10.480   0.698   6.983 -0.1381  0.1314 -0.5551
  798MOL0     C 7652  10.347   0.739   7.014 -1.0633  0.4181  0.1398
  798MOL0     O 7653  10.246   0.660   7.047 -0.5398  0.7742 -0.0195
  798MOL0     C 7654  10.245   0.524   7.003 -0.6952  0.4760  0.4482
  798MOL0     C 7655  10.134   0.493   6.901  0.1919  0.7986  0.4735
  798MOL0     C 7656   9.996   0.524   6.959  0.1693  0.0849 -0.2393
  798MOL0     C 7657   9.877   0.459   6.892 -0.8456  0.0458 -0.7498
  798MOL0     C 7658   9.877   0.523   6.756 -0.2942 -1.1696  0.0644
  798MOL0     C 7659   9.880   0.590   6.647  0.3090  0.1152 -0.9573
  798MOL0     C 7660  10.329   0.881   7.023 -0.5253 -0.1439 -0.3919
  798MOL0     C 7661  10.430   0.970   6.986 -0.5107 -0.0362 -0.7720
  798MOL0     C 7662  10.403   1.123   6.990  1.0700  0.0298 -0.1582
  798MOL0     H 7663  11.017   0.943   6.854 -0.9285  0.2973  0.3057
  798MOL0     H 7664  11.205   1.118   6.806 -0.2727 -1.1744 -1.2519
  798MOL0     H 7665  11.305   1.342   6.857 -2.1821 -0.7851  0.4938
  798MOL0     H 7666  11.327   1.247   6.707  0.5334  0.0089  1.6888
  798MOL0     H 7667  11.355   1.556   6.726 -1.5079  0.3329 -1.6922
  798MOL0     H 7668  11.357   1.465   6.582  1.6626  1.2681 -0.3982
  798MOL0     H 7669  11.568   1.340   6.645 -0.6499 -0.4790 -0.2165
  798MOL0     H 7670  11.566   1.429   6.800  3.0904 -0.5603  0.1802
  798MOL0     H 7671  11.587   1.570   6.526  4.0886  1.3680 -0.9166
  798MOL0     H 7672  11.572   1.636   6.691 -0.4546 -0.5144  1.0135
  798MOL0     H 7673  11.797   1.451   6.683 -1.5861 -1.6608 -2.0692
  798MOL0     H 7674  11.803   1.560   6.545  0.1156 -0.7770 -0.0426
  798MOL0     H 7675  11.918   1.691   6.695 -0.2245 -2.0851 -0.2927
  798MOL0     H 7676  11.753   1.753   6.691  0.6346  0.5280 -1.2765
  798MOL0     H 7677  11.873   1.542   6.893 -0.7461 -1.3067 -0.7247
  798MOL0     H 7678  11.719   1.639   6.915  0.7416 -1.0915 -0.5679
  798MOL0     H 7679  12.011   1.723   6.966  1.1656  3.3457  1.8184
  798MOL0     H 7680  11.884   1.845   6.939  0.4733 -0.7214  0.8379
  798MOL0     H 7681  11.636   1.802   7.094 -1.8658  2.4346  2.2075
  798MOL0     H 7682  11.526   1.655   7.340 -1.2856  1.0102  2.6356
  798MOL0     H 7683  11.654   1.663   7.461  2.4518  0.6767 -0.7446
  798MOL0     H 7684  11.574   1.918   7.333 -1.8531 -1.0529 -1.5699
  798MOL0     H 7685  11.462   1.838   7.436  0.6015  0.4149 -0.0582
  798MOL0     H 7686  11.744   1.912   7.523 -0.0830 -2.3296 -3.1542
  798MOL0     H 7687  11.622   1.844   7.626  1.4912  0.4153  0.4708
  798MOL0     H 7688  11.604   2.086   7.670 -1.3788  3.1099 -0.3731
  798MOL0     H 7689  11.464   2.042   7.602  1.1312  0.4847  3.6456
  798MOL0     H 7690  11.625   2.348   7.309 -0.0913 -0.0630 -1.4670
  798MOL0     H 7691  11.837   2.443   7.235  1.3955  1.0761 -0.2706
  798MOL0     H 7692  12.219   2.394   7.080 -0.3091 -0.3210 -2.6201
  798MOL0     H 7693  12.428   2.493   6.968  1.8075  0.1469  0.9795
  798MOL0     H 7694  12.554   2.901   7.129 -1.8193 -0.5377 -1.2338
  798MOL0     H 7695  12.660   2.779   7.204 -2.4928  0.9852  1.5764
  798MOL0     H 7696  12.793   2.934   7.079  3.1539  0.3291 -2.7043
  798MOL0     H 7697  12.813   2.777   7.023  0.6521  0.5525 -1.3582
  798MOL0     H 7698  12.687   2.831   6.820  2.1055 -0.4001  1.8958
  798MOL0     H 7699  12.595   2.963   6.900 -0.0698  0.4115  1.4427
  798MOL0     H 7700  12.791   3.092   6.918 -3.1690  1.5882 -0.2852
  798MOL0     H 7701  12.733   3.065   6.753 -1.3359 -1.5588 -0.9326
  798MOL0     H 7702  12.931   2.874   6.733  2.6582  0.0232  1.2889
  798MOL0     H 7703  12.981   2.930   6.885 -1.5766  0.2634  1.3905
  798MOL0     H 7704  13.120   3.026   6.745  0.7614  1.4197  1.4738
  798MOL0     H 7705  12.989   3.046   6.626 -0.7439  0.5442  0.1251
  798MOL0     H 7706  13.052   3.217   6.875 -0.8074  1.0851  0.0640
  798MOL0     H 7707  12.902   3.238   6.773 -0.3440  0.4346 -3.0686
  798MOL0     H 7708  13.089   3.402   6.726  1.9512 -0.0823  2.0577
  798MOL0     H 7709  13.194   3.268   6.720  0.6966 -0.0379  0.1618
  798MOL0     H 7710  12.391   2.835   7.221 -1.9638  1.2111 -0.7900
  798MOL0     H 7711  12.190   2.749   7.317  0.8150 -3.4260  2.4386
  798MOL0     H 7712  12.047   2.223   7.526 -0.6134  0.2138  1.3790
  798MOL0     H 7713  11.823   2.133   7.610 -0.3710 -0.9362  0.0566
  798MOL0     H 7714  10.916   1.391   6.672 -0.6151 -0.0866 -0.6230
  798MOL0     H 7715  10.733   1.224   6.701  0.5805 -0.5250 -2.3717
  798MOL0     H 7716  10.674   0.747   6.918  1.3710  1.6020  1.8276
  798MOL0     H 7717  10.499   0.592   6.979 -2.9209 -0.4597 -0.6139
  798MOL0     H 7718  10.232   0.464   7.093 -0.2518  0.6980  0.6652
  798MOL0     H 7719  10.337   0.479   6.963 -0.0936 -2.0131  4.2067
  798MOL0     H 7720  10.135   0.389   6.867  0.1164  1.0781 -0.4198
  798MOL0     H 7721  10.157   0.559   6.817  1.4176 -1.0504 -0.7064
  798MOL0     H 7722   9.982   0.633   6.954  3.4289  0.5702 -0.5439
  798MOL0     H 7723   9.992   0.499   7.065 -0.5735  2.3202  0.3163
  798MOL0     H 7724   9.885   0.350   6.888  2.6174  0.2022 -2.0733
  798MOL0     H 7725   9.789   0.492   6.947 -0.0577  0.7960  0.0930
  798MOL0     H 7726   9.872   0.630   6.548 -4.0225 -2.1980 -1.8266
  798MOL0     H 7727  10.230   0.923   7.040 -0.1354  0.4530  0.4513
  798MOL0     H 7728  10.295   1.131   7.003  0.6782 -5.1039  2.2675
  798MOL0     H 7729  10.461   1.167   7.072  4.3447  1.1468 -2.8312
  798MOL0     H 7730  10.434   1.171   6.896 -2.7479  2.8782 -0.2074
  799MOL0     O 7731   4.131   3.407   0.988 -0.0199 -0.7242 -0.1075
  799MOL0     C 7732   4.040   3.326   0.982 -0.0776 -0.1215  0.3286
  799MOL0     O 7733   4.020   3.245   0.876 -0.3585  0.4637  0.4063
  799MOL0     C 7734   4.103   3.264   0.765 -0.2036 -0.1491 -0.1457
  799MOL0     C 7735   4.118   3.382   0.689 -0.4450 -1.2289 -0.8924
  799MOL0     C 7736   4.209   3.389   0.585 -0.6159  0.2147  1.9995
  799MOL0     C 7737   4.266   3.271   0.531 -0.2161 -0.4032  0.5748
  799MOL0     O 7738   4.354   3.265   0.428 -0.2580  0.2499  0.2010
  799MOL0     C 7739   4.365   3.381   0.337 -0.1143 -0.4352  0.4481
  799MOL0     C 7740   4.508   3.385   0.289  0.2586  0.3543 -0.0174
  799MOL0     C 7741   4.521   3.470   0.161 -0.7376 -1.6038 -0.8464
  799MOL0     C 7742   4.675   3.471   0.129 -1.0516 -0.0289  0.4189
  799MOL0     C 7743   4.709   3.533  -0.007  0.4434  0.1103  0.6440
  799MOL0     C 7744   4.846   3.610  -0.002  0.1830  0.0827  0.3527
  799MOL0     C 7745   4.973   3.517   0.029  0.3014 -0.3745 -0.6635
  799MOL0     C 7746   5.107   3.557  -0.033  0.0481 -0.2518  0.3263
  799MOL0     N 7747   5.142   3.703  -0.017  0.3465 -0.7748 -0.1190
  799MOL0     C 7748   5.223   3.758   0.084  0.8196  0.6442  0.6648
  799MOL0     C 7749   5.220   3.890   0.082  0.2234  0.8778  0.2212
  799MOL0     C 7750   5.290   3.987   0.174  1.1023  0.0781 -0.3058
  799MOL0     C 7751   5.437   4.012   0.139 -0.1028  1.0123  0.7503
  799MOL0     C 7752   5.466   4.049  -0.012  0.0154 -0.6543 -0.0543
  799MOL0     C 7753   5.609   4.093  -0.047 -0.1437 -0.9526  0.1397
  799MOL0     O 7754   5.661   4.215   0.018  0.8121  0.0291  0.1100
  799MOL0     C 7755   5.793   4.240   0.003  0.5494  0.3144 -0.7414
  799MOL0     C 7756   5.864   4.283   0.113  0.0546  0.2885 -0.3827
  799MOL0     C 7757   5.998   4.329   0.113 -0.1689  0.1192  0.2494
  799MOL0     C 7758   6.071   4.310  -0.005 -0.5380 -0.2308  0.7952
  799MOL0     C 7759   6.219   4.347  -0.008  0.0757  0.0181  0.0276
  799MOL0     O 7760   6.275   4.363  -0.129  0.3297 -0.2868  0.5076
  799MOL0     C 7761   6.403   4.413  -0.143  0.1394  0.1282 -0.2718
  799MOL0     C 7762   6.432   4.542  -0.094  0.4216  0.1391 -0.3648
  799MOL0     C 7763   6.557   4.599  -0.125  0.5190 -0.0084  0.1087
  799MOL0     C 7764   6.666   4.516  -0.176 -0.1024  0.1803  0.7519
  799MOL0     O 7765   6.795   4.566  -0.184  0.2323  0.3986  0.1362
  799MOL0     C 7766   6.906   4.484  -0.238 -1.1248 -0.4339 -0.0644
  799MOL0     C 7767   7.033   4.560  -0.225 -0.9486 -0.1748 -0.9655
  799MOL0     C 7768   7.046   4.624  -0.086 -0.8600  0.0597 -0.2462
  799MOL0     C 7769   7.185   4.652  -0.041  0.1129  0.3502 -0.3507
  799MOL0     C 7770   7.194   4.668   0.113 -0.2316  0.2168  0.0841
  799MOL0     C 7771   7.333   4.723   0.157 -0.3326 -1.6938  1.0245
  799MOL0     C 7772   7.344   4.753   0.303 -0.1112 -0.4191  0.0119
  799MOL0     C 7773   7.499   4.751   0.345  0.4326 -0.1369 -0.3802
  799MOL0    Cl 7774   7.524   4.584   0.375  0.4581  0.6243  0.3432
  799MOL0     C 7775   6.638   4.387  -0.226  0.5757  1.4010 -0.2738
  799MOL0     C 7776   6.511   4.337  -0.204  0.8229  0.2378 -0.5728
  799MOL0     O 7777   6.273   4.371   0.104  0.4175  0.1982  0.7447
  799MOL0     C 7778   6.006   4.263  -0.110  1.0351 -0.1029  0.9511
  799MOL0     C 7779   5.870   4.234  -0.111  0.0989  0.3436 -0.2288
  799MOL0     N 7780   5.142   3.922  -0.034 -0.2940 -0.3844 -0.2939
  799MOL0     N 7781   5.101   3.814  -0.086  0.1154  0.3534  0.0972
  799MOL0     C 7782   4.252   3.161   0.608  0.1929 -0.5027 -0.3363
  799MOL0     C 7783   4.175   3.154   0.726 -0.2077 -0.4519  0.3015
  799MOL0     C 7784   3.937   3.329   1.080  0.3791  0.8943  0.8807
  799MOL0     C 7785   3.896   3.199   1.124 -0.4462 -0.4153 -0.1102
  799MOL0     C 7786   3.798   3.189   1.224  0.5116  0.7184  0.5772
  799MOL0     C 7787   3.741   3.310   1.275  0.1623  0.5040  0.3518
  799MOL0     O 7788   3.648   3.318   1.378 -0.6657  0.1736 -0.5956
  799MOL0     C 7789   3.542   3.221   1.373  0.0723 -0.6590 -0.6532
  799MOL0     C 7790   3.426   3.279   1.447 -0.6074 -0.2241  0.4056
  799MOL0     C 7791   3.292   3.221   1.420  0.4252  0.2754 -0.0136
  799MOL0     C 7792   3.276   3.109   1.530 -0.6855  0.0347 -0.5037
  799MOL0     C 7793   3.141   3.060   1.522  1.3500  0.4426  0.2481
  799MOL0     C 7794   3.037   2.996   1.520 -0.3401  0.2579 -0.6491
  799MOL0     C 7795   3.790   3.433   1.232 -0.5403  0.3551 -0.8996
  799MOL0     C 7796   3.887   3.448   1.138  0.6111 -0.5842  1.0569
  799MOL0     C 7797   3.913   3.588   1.093 -0.4100  0.3669  0.4206
  799MOL0     H 7798   4.069   3.471   0.727  0.0901 -0.3317 -2.2176
  799MOL0     H 7799   4.194   3.477   0.524 -3.2381  1.7304  4.5934
  799MOL0     H 7800   4.306   3.378   0.245  0.7609  0.4692 -0.1598
  799MOL0     H 7801   4.352   3.481   0.380 -0.3290 -0.9694  1.6486
  799MOL0     H 7802   4.537   3.287   0.252 -1.3355 -0.5450  1.0344
  799MOL0     H 7803   4.580   3.413   0.368 -1.5319  0.9499  1.4754
  799MOL0     H 7804   4.499   3.577   0.168  2.5957 -0.5961 -3.2927
  799MOL0     H 7805   4.470   3.420   0.079 -1.2247 -2.1193 -0.2356
  799MOL0     H 7806   4.728   3.532   0.203 -1.1796 -1.5196  1.7778
  799MOL0     H 7807   4.715   3.370   0.135  0.6054  0.6912  2.4351
  799MOL0     H 7808   4.705   3.446  -0.074 -1.4325 -0.0657  0.9437
  799MOL0     H 7809   4.630   3.601  -0.040  2.3984  2.0915 -0.2915
  799MOL0     H 7810   4.859   3.659  -0.098  3.0661  0.3273  0.7843
  799MOL0     H 7811   4.838   3.696   0.064 -0.8635  1.4725 -1.4908
  799MOL0     H 7812   4.950   3.416  -0.009 -2.0980 -0.4835  0.8823
  799MOL0     H 7813   4.990   3.492   0.134 -1.1898  0.6122 -0.1543
  799MOL0     H 7814   5.183   3.488   0.005 -1.3271 -2.7432 -1.2451
  799MOL0     H 7815   5.102   3.548  -0.142 -0.6357 -0.9937  0.4138
  799MOL0     H 7816   5.262   3.697   0.165 -1.4723  1.1041  2.1722
  799MOL0     H 7817   5.234   4.080   0.186 -0.1161 -0.5913 -0.6805
  799MOL0     H 7818   5.288   3.953   0.278  1.3418  4.0940  1.2177
  799MOL0     H 7819   5.474   4.094   0.201  0.5238 -0.3795  2.3133
  799MOL0     H 7820   5.493   3.918   0.148  1.0805  1.8016  2.0650
  799MOL0     H 7821   5.404   4.132  -0.046  0.8990 -0.3377 -0.9681
  799MOL0     H 7822   5.449   3.958  -0.071 -2.4020 -0.7773  0.7617
  799MOL0     H 7823   5.606   4.112  -0.154  0.9989 -2.7134 -0.2510
  799MOL0     H 7824   5.676   4.007  -0.039  1.0642 -0.0995 -0.5679
  799MOL0     H 7825   5.816   4.280   0.211  1.2199 -0.2998  0.1959
  799MOL0     H 7826   6.056   4.340   0.204 -1.0254 -1.1637  0.9867
  799MOL0     H 7827   6.344   4.588  -0.049 -0.6424 -0.7991 -1.4160
  799MOL0     H 7828   6.566   4.705  -0.102 -1.0342  0.5246 -1.5059
  799MOL0     H 7829   6.903   4.390  -0.181  1.8756  0.9495  2.7028
  799MOL0     H 7830   6.885   4.477  -0.345  2.8985 -2.9305 -0.9076
  799MOL0     H 7831   7.111   4.485  -0.239  1.8341  1.5461  3.1108
  799MOL0     H 7832   7.028   4.647  -0.291  0.1159  3.1087  2.8343
  799MOL0     H 7833   7.003   4.724  -0.079  2.1290  1.5180 -0.8010
  799MOL0     H 7834   6.995   4.550  -0.024  2.1560 -1.3089  0.7931
  799MOL0     H 7835   7.226   4.740  -0.091  2.6151  0.5621  1.8113
  799MOL0     H 7836   7.248   4.565  -0.061  2.3643  0.8720  3.3649
  799MOL0     H 7837   7.178   4.570   0.159 -1.1633 -0.6698 -1.9640
  799MOL0     H 7838   7.111   4.728   0.152 -0.5275  1.2997 -2.0425
  799MOL0     H 7839   7.411   4.652   0.128  0.8994 -0.5852  1.5106
  799MOL0     H 7840   7.359   4.817   0.106  0.7632 -0.0966  4.2800
  799MOL0     H 7841   7.294   4.678   0.365 -0.7280 -1.3866 -1.6142
  799MOL0     H 7842   7.302   4.852   0.324  1.5254  0.4910 -0.7242
  799MOL0     H 7843   7.568   4.772   0.263  1.8433 -2.5829  0.1105
  799MOL0     H 7844   7.512   4.801   0.442 -3.4629 -1.5405  1.0816
  799MOL0     H 7845   6.716   4.330  -0.275 -3.0255 -2.9738 -1.6246
  799MOL0     H 7846   6.486   4.236  -0.235  0.9726 -0.0673  0.2807
  799MOL0     H 7847   6.045   4.243  -0.209 -5.0533 -0.4286 -1.8519
  799MOL0     H 7848   5.813   4.203  -0.198 -0.5512 -0.3691  0.4354
  799MOL0     H 7849   4.314   3.074   0.588  3.7089  1.9047 -0.7845
  799MOL0     H 7850   4.163   3.062   0.782  2.0451 -2.2211 -1.9151
  799MOL0     H 7851   3.939   3.106   1.089 -1.1192 -0.8062  0.0782
  799MOL0     H 7852   3.761   3.095   1.263  1.2858  0.3293  0.3877
  799MOL0     H 7853   3.579   3.136   1.430 -1.1953 -1.5842 -1.1638
  799MOL0     H 7854   3.504   3.200   1.272  1.5591  3.7569 -2.3733
  799MOL0     H 7855   3.423   3.385   1.421 -3.3463  0.7730  3.9653
  799MOL0     H 7856   3.446   3.281   1.554 -1.5512  2.1651  0.5878
  799MOL0     H 7857   3.287   3.168   1.324  0.1814  0.4414 -0.0921
  799MOL0     H 7858   3.226   3.307   1.435  0.5283  0.2617  0.5304
  799MOL0     H 7859   3.353   3.032   1.520  0.9607  1.4120  0.9158
  799MOL0     H 7860   3.289   3.150   1.631 -3.4518  1.3670 -0.5982
  799MOL0     H 7861   2.938   2.955   1.526 -0.5419  0.8565  0.5342
  799MOL0     H 7862   3.742   3.520   1.277 -0.5286  0.0244 -0.2427
  799MOL0     H 7863   3.998   3.617   1.031 -1.8940  0.6783 -1.5422
  799MOL0     H 7864   3.820   3.621   1.047 -0.8616 -1.1762  0.1658
  799MOL0     H 7865   3.924   3.647   1.185 -0.8111 -1.3616  1.6335
  800MOL0     O 7866   3.910   3.857   4.204  0.3792  0.4615  0.2144
  800MOL0     C 7867   3.828   3.779   4.156 -0.5400 -0.1415  0.0330
  800MOL0     O 7868   3.865   3.686   4.054 -0.0510  0.1146  0.3387
  800MOL0     C 7869   4.000   3.646   4.043 -0.0892 -0.6953 -0.0454
  800MOL0     C 7870   4.093   3.747   3.993 -0.1824  0.5883  0.3435
  800MOL0     C 7871   4.231   3.713   3.995 -0.7572 -0.0629  0.1630
  800MOL0     C 7872   4.270   3.587   4.036  0.3009 -0.2917  0.4653
  800MOL0     O 7873   4.404   3.570   4.021  0.0864  0.5101 -0.0495
  800MOL0     C 7874   4.462   3.442   4.013 -0.3387 -0.0858 -0.1273
  800MOL0     C 7875   4.611   3.462   3.980  0.7933 -0.2177  0.6266
  800MOL0     C 7876   4.685   3.343   3.917  0.2246  0.3984  0.4087
  800MOL0     C 7877   4.835   3.336   3.949  1.4764 -0.2560 -1.0774
  800MOL0     C 7878   4.901   3.212   3.889 -0.0476  0.3742  0.5024
  800MOL0     C 7879   4.884   3.080   3.974  0.4490  0.7518 -0.1359
  800MOL0     C 7880   4.977   2.962   3.926 -0.1617  0.4356  0.7908
  800MOL0     C 7881   4.957   2.818   3.991 -0.2312 -0.5226 -0.2996
  800MOL0     N 7882   5.063   2.718   3.973  0.3247  0.2620 -0.1289
  800MOL0     C 7883   5.097   2.671   3.848  0.5500  0.0299  0.7185
  800MOL0     C 7884   5.216   2.619   3.875 -1.0975  0.1855  0.7893
  800MOL0     C 7885   5.311   2.554   3.771 -0.3866  0.4588  0.4389
  800MOL0     C 7886   5.451   2.593   3.790 -0.2636  0.0553  0.1170
  800MOL0     C 7887   5.466   2.747   3.764  0.3432  0.6031  0.1713
  800MOL0     C 7888   5.594   2.805   3.823 -0.3521 -0.5110  0.2772
  800MOL0     O 7889   5.704   2.739   3.752 -0.3286 -0.0722 -0.3353
  800MOL0     C 7890   5.829   2.805   3.746  0.0738 -0.0756  0.1153
  800MOL0     C 7891   5.893   2.768   3.629 -0.7832 -0.1668  0.1799
  800MOL0     C 7892   6.021   2.827   3.610 -0.3780  0.4937  0.5690
  800MOL0     C 7893   6.070   2.934   3.689  0.2157  0.0446  0.2982
  800MOL0     C 7894   6.205   2.995   3.658  0.2786  0.2913 -0.0331
  800MOL0     O 7895   6.268   2.978   3.539 -0.1737 -0.8332 -0.2806
  800MOL0     C 7896   6.385   3.047   3.496  0.0820  0.1219 -0.8380
  800MOL0     C 7897   6.453   2.973   3.402 -0.1208 -0.6019 -1.1712
  800MOL0     C 7898   6.584   3.014   3.368  0.5344  0.4557  0.3868
  800MOL0     C 7899   6.647   3.122   3.428  0.1100 -0.7493  0.1658
  800MOL0     O 7900   6.769   3.171   3.399 -0.0919 -1.0761  0.1130
  800MOL0     C 7901   6.807   3.306   3.388  0.0494 -0.0378  0.2407
  800MOL0     C 7902   6.927   3.327   3.484 -0.3558 -0.3960  0.3786
  800MOL0     C 7903   6.910   3.245   3.611  0.7971 -0.7637  0.3051
  800MOL0     C 7904   7.034   3.254   3.704  0.3897  0.6709 -0.0036
  800MOL0     C 7905   7.030   3.376   3.805  0.2920  0.2495 -0.1391
  800MOL0     C 7906   7.025   3.506   3.738  0.0661  0.3964  0.5433
  800MOL0     C 7907   7.029   3.623   3.842 -0.5677  0.4095  0.1789
  800MOL0     C 7908   7.004   3.761   3.782  0.3409 -0.7856 -1.0956
  800MOL0    Cl 7909   7.150   3.820   3.687  0.0425  0.3125 -0.0617
  800MOL0     C 7910   6.559   3.197   3.513 -0.4603 -0.4571 -0.0958
  800MOL0     C 7911   6.430   3.163   3.548 -0.5123 -0.2205 -0.2047
  800MOL0     O 7912   6.252   3.054   3.760  0.5150 -0.3830  0.1037
  800MOL0     C 7913   6.000   2.977   3.802  0.6803  0.5034  0.4422
  800MOL0     C 7914   5.871   2.918   3.818 -0.2455  0.5200 -0.0253
  800MOL0     N 7915   5.242   2.627   4.005 -1.3470 -0.8496 -0.8059
  800MOL0     N 7916   5.148   2.676   4.071  0.1293  0.2530 -0.8772
  800MOL0     C 7917   4.182   3.497   4.094 -1.0638  0.9861 -0.7775
  800MOL0     C 7918   4.048   3.524   4.095  0.1665 -0.1216 -0.4588
  800MOL0     C 7919   3.682   3.806   4.185  0.0104  1.0442 -0.3175
  800MOL0     C 7920   3.641   3.926   4.245  0.5712  0.1660 -0.4305
  800MOL0     C 7921   3.508   3.957   4.273  0.1826  0.6594 -0.1735
  800MOL0     C 7922   3.404   3.868   4.233 -0.6033  0.2036 -0.5887
  800MOL0     O 7923   3.272   3.899   4.264  0.1003 -0.0726  0.1691
  800MOL0     C 7924   3.241   4.001   4.361 -0.4511 -0.3746  0.4131
  800MOL0     C 7925   3.087   3.991   4.385 -0.1529 -0.3176 -0.3297
  800MOL0     C 7926   3.046   3.869   4.452 -0.4050  0.0281 -0.2472
  800MOL0     C 7927   2.887   3.868   4.455  1.1117 -0.2657 -0.7142
  800MOL0     C 7928   2.831   3.767   4.539 -0.2619  0.3611 -0.1140
  800MOL0     C 7929   2.800   3.692   4.629  0.4657 -0.3540  0.3606
  800MOL0     C 7930   3.443   3.758   4.155  0.4591 -0.4103  0.0637
  800MOL0     C 7931   3.581   3.720   4.139 -0.1630  0.4097 -0.5927
  800MOL0     C 7932   3.596   3.578   4.091 -0.5832  0.1273 -0.2996
  800MOL0     H 7933   4.061   3.844   3.958  1.0673  0.6534 -0.7142
  800MOL0     H 7934   4.306   3.780   3.952  1.7188 -2.2861  0.7706
  800MOL0     H 7935   4.452   3.398   4.112 -1.3731  2.5186  1.0217
  800MOL0     H 7936   4.419   3.381   3.932 -1.3163  0.0221  0.2974
  800MOL0     H 7937   4.665   3.486   4.073 -0.5449 -1.7526  1.8631
  800MOL0     H 7938   4.620   3.549   3.916  3.0371 -2.0705 -1.8233
  800MOL0     H 7939   4.695   3.366   3.810  1.6165  0.5867  0.5592
  800MOL0     H 7940   4.644   3.244   3.936 -0.1850  1.0334  3.1849
  800MOL0     H 7941   4.881   3.425   3.904 -0.7517  0.2629 -2.5057
  800MOL0     H 7942   4.841   3.332   4.058  2.4134  0.4265 -1.0959
  800MOL0     H 7943   4.876   3.192   3.784  0.4127 -1.0446  0.6501
  800MOL0     H 7944   5.008   3.232   3.881  0.6384 -2.9987 -0.2312
  800MOL0     H 7945   4.910   3.112   4.076  2.3646 -1.6617  0.2297
  800MOL0     H 7946   4.778   3.055   3.977  0.5164  0.4648 -0.1462
  800MOL0     H 7947   5.084   2.985   3.930  0.4304 -1.3301 -1.7038
  800MOL0     H 7948   4.957   2.945   3.819 -0.3201 -0.7458  0.9848
  800MOL0     H 7949   4.951   2.844   4.097  0.4420 -0.9827 -0.1406
  800MOL0     H 7950   4.857   2.783   3.963  0.2214 -0.4750 -2.0983
  800MOL0     H 7951   5.035   2.687   3.760  1.2415 -0.1502  0.1969
  800MOL0     H 7952   5.290   2.447   3.782 -1.6364  0.8674  2.5818
  800MOL0     H 7953   5.279   2.572   3.668 -0.2223 -1.2291  0.0677
  800MOL0     H 7954   5.486   2.573   3.892  0.8286  2.7417  0.3529
  800MOL0     H 7955   5.519   2.533   3.728 -0.3953 -2.4834  2.2050
  800MOL0     H 7956   5.392   2.812   3.812 -3.7052 -1.5571 -2.5251
  800MOL0     H 7957   5.454   2.754   3.656 -0.7710  1.6502  0.3390
  800MOL0     H 7958   5.599   2.786   3.930 -0.0057  0.8029  0.5068
  800MOL0     H 7959   5.602   2.914   3.812  0.8166 -0.6554 -0.4514
  800MOL0     H 7960   5.857   2.686   3.567  0.2979  0.0961 -0.8331
  800MOL0     H 7961   6.077   2.799   3.521 -1.8081  0.2165 -0.2724
  800MOL0     H 7962   6.401   2.882   3.373 -0.6316 -1.4513  2.0834
  800MOL0     H 7963   6.631   2.947   3.296 -1.0695 -1.7249  1.2780
  800MOL0     H 7964   6.842   3.333   3.287  0.0868  2.3141  0.8110
  800MOL0     H 7965   6.717   3.360   3.418  0.3951 -0.1996  1.6010
  800MOL0     H 7966   7.023   3.301   3.437  0.4121  3.4285 -0.4824
  800MOL0     H 7967   6.937   3.433   3.508 -1.2097 -0.4658  1.0644
  800MOL0     H 7968   6.817   3.286   3.652 -1.4683 -0.6946 -4.2531
  800MOL0     H 7969   6.892   3.138   3.593 -1.9510 -0.3643  0.1887
  800MOL0     H 7970   7.127   3.273   3.649  1.2690  1.3501  1.6345
  800MOL0     H 7971   7.054   3.163   3.761  1.0991  0.6589 -0.2610
  800MOL0     H 7972   7.115   3.372   3.874  0.4817 -1.0744 -0.4248
  800MOL0     H 7973   6.939   3.364   3.864  0.5582  3.2749  1.0555
  800MOL0     H 7974   7.109   3.512   3.669  0.3921 -0.2937  0.8726
  800MOL0     H 7975   6.928   3.520   3.690  1.0104  3.2838 -0.7261
  800MOL0     H 7976   7.124   3.618   3.896  0.1123  2.7574 -0.6575
  800MOL0     H 7977   6.946   3.598   3.909  0.0635 -2.6057 -0.0262
  800MOL0     H 7978   6.924   3.761   3.707  0.3572 -1.9195 -1.1291
  800MOL0     H 7979   6.976   3.832   3.860  0.6570  0.6879 -2.2681
  800MOL0     H 7980   6.583   3.287   3.570  3.7172 -2.6774  2.0914
  800MOL0     H 7981   6.367   3.220   3.616 -0.5505 -2.5515  1.8476
  800MOL0     H 7982   6.040   3.049   3.873 -3.3211  1.1559  2.3559
  800MOL0     H 7983   5.817   2.955   3.904 -1.2567  0.5919 -0.6797
  800MOL0     H 7984   4.225   3.405   4.133 -0.9863  1.8638  1.3594
  800MOL0     H 7985   3.979   3.446   4.126 -0.1758  0.9862  1.7026
  800MOL0     H 7986   3.718   3.990   4.287 -1.5983  0.2970  3.8437
  800MOL0     H 7987   3.480   4.051   4.319  3.1084  1.2236  0.6897
  800MOL0     H 7988   3.251   4.101   4.320 -0.2503 -0.6306 -0.1662
  800MOL0     H 7989   3.298   3.993   4.454 -0.9353  1.5042  0.9242
  800MOL0     H 7990   3.040   3.997   4.286  3.9789  0.1891 -2.4533
  800MOL0     H 7991   3.050   4.084   4.429  1.9878  1.8126 -2.7218
  800MOL0     H 7992   3.092   3.865   4.552 -1.2918 -1.0199  0.1422
  800MOL0     H 7993   3.065   3.784   4.385 -0.5444 -2.1317  2.2503
  800MOL0     H 7994   2.846   3.964   4.488  0.5326  0.1932 -2.6458
  800MOL0     H 7995   2.843   3.847   4.357 -5.1404  1.3883  1.2769
  800MOL0     H 7996   2.768   3.632   4.712 -0.9860 -0.7396 -0.4344
  800MOL0     H 7997   3.367   3.695   4.112 -0.9343  0.7222  0.7763
  800MOL0     H 7998   3.679   3.536   4.148 -1.3948  0.3488  1.1041
  800MOL0     H 7999   3.508   3.516   4.110 -0.9839  0.5079 -0.8672
  800MOL0     H 8000   3.613   3.561   3.984  1.3912 -1.3120  0.2037
  801MOL0     O 8001   6.934   8.075   2.649 -0.3528  0.6211 -0.1453
  801MOL0     C 8002   6.966   8.115   2.758  0.6744 -0.3737 -0.4940
  801MOL0     O 8003   7.079   8.179   2.797  0.5009 -0.4095 -0.0359
  801MOL0     C 8004   7.149   8.250   2.698 -0.6918  0.0105 -0.2890
  801MOL0     C 8005   7.249   8.188   2.629 -0.6539  0.3924 -1.1035
  801MOL0     C 8006   7.331   8.266   2.548  0.6581  0.7560  0.5333
  801MOL0     C 8007   7.309   8.403   2.513 -0.0093 -0.1515 -0.8350
  801MOL0     O 8008   7.378   8.447   2.404  0.1985  0.7917  0.2583
  801MOL0     C 8009   7.391   8.585   2.389 -0.1027 -1.1685 -1.1409
  801MOL0     C 8010   7.484   8.632   2.503  0.0086 -0.4764 -0.1158
  801MOL0     C 8011   7.627   8.574   2.512 -1.4719 -0.6290 -0.0922
  801MOL0     C 8012   7.706   8.602   2.382 -0.5687  0.0482  0.4721
  801MOL0     C 8013   7.847   8.656   2.409  0.0154  0.6162  0.1314
  801MOL0     C 8014   7.938   8.543   2.449 -0.3735  0.0048  0.5219
  801MOL0     C 8015   8.062   8.604   2.528 -0.4346  0.4359  0.0703
  801MOL0     C 8016   8.179   8.508   2.540  1.3472 -0.3673  1.0070
  801MOL0     N 8017   8.291   8.566   2.467 -0.4864 -0.3025 -1.0366
  801MOL0     C 8018   8.400   8.629   2.524 -0.5623 -0.8394  1.1312
  801MOL0     C 8019   8.498   8.629   2.428  0.5612  0.1986 -0.1973
  801MOL0     C 8020   8.633   8.706   2.447 -0.8702 -0.6172  0.1298
  801MOL0     C 8021   8.660   8.813   2.345 -0.6914 -1.1573  0.3674
  801MOL0     C 8022   8.809   8.839   2.314  0.5789 -0.4955 -0.6041
  801MOL0     C 8023   8.910   8.840   2.436  0.0133 -0.4098  0.3010
  801MOL0     O 8024   8.871   8.956   2.513  0.3885 -0.1943  0.6017
  801MOL0     C 8025   8.971   9.031   2.560  0.3168  0.6177 -0.1025
  801MOL0     C 8026   9.093   8.976   2.607  0.4656  0.4977 -0.2243
  801MOL0     C 8027   9.192   9.063   2.649  0.6431  0.1139 -0.2260
  801MOL0     C 8028   9.182   9.204   2.649 -0.2363 -0.2225  0.2956
  801MOL0     C 8029   9.302   9.288   2.680  0.7834 -0.7257  0.1537
  801MOL0     O 8030   9.419   9.220   2.685  0.8000 -0.2168 -0.0342
  801MOL0     C 8031   9.529   9.289   2.724 -0.3744  0.3352  1.0592
  801MOL0     C 8032   9.569   9.425   2.691  0.0016  0.3083 -0.4296
  801MOL0     C 8033   9.701   9.466   2.723  0.7550 -0.4403  0.1878
  801MOL0     C 8034   9.788   9.387   2.794 -0.1315 -0.1026 -0.0169
  801MOL0     O 8035   9.910   9.439   2.837  0.9630  0.2441  0.0169
  801MOL0     C 8036   9.929   9.486   2.968 -0.1362  0.1217 -0.9222
  801MOL0     C 8037  10.073   9.468   3.009  0.3913 -0.1153  0.2984
  801MOL0     C 8038  10.102   9.326   3.019 -0.8758  0.3972  0.1612
  801MOL0     C 8039  10.244   9.304   3.064 -0.5711  0.4614 -0.1749
  801MOL0     C 8040  10.281   9.151   3.057  0.4951  0.2275 -0.3328
  801MOL0     C 8041  10.427   9.132   3.107 -0.5761  0.5861  0.3890
  801MOL0     C 8042  10.526   9.157   2.989 -0.2999  0.8705  0.2019
  801MOL0     C 8043  10.667   9.168   3.044 -0.8541  0.0607 -0.0118
  801MOL0    Cl 8044  10.653   9.318   3.143  0.0898  0.3371 -0.1436
  801MOL0     C 8045   9.751   9.256   2.819 -0.3281 -0.0003  0.1030
  801MOL0     C 8046   9.622   9.214   2.796 -0.2558  0.7987  1.3696
  801MOL0     O 8047   9.285   9.407   2.704  0.0927 -0.3425 -0.3712
  801MOL0     C 8048   9.066   9.256   2.594 -0.0108  0.0710  0.7288
  801MOL0     C 8049   8.962   9.169   2.555 -0.4843  0.1922 -0.2694
  801MOL0     N 8050   8.445   8.573   2.320 -0.1535  0.2288  0.2969
  801MOL0     N 8051   8.322   8.529   2.346  0.7153  0.2079 -0.7091
  801MOL0     C 8052   7.203   8.462   2.587  0.5968  0.9464  0.0105
  801MOL0     C 8053   7.123   8.384   2.670  0.1697 -0.1637 -0.5256
  801MOL0     C 8054   6.881   8.081   2.873 -0.1588 -0.1860 -0.1228
  801MOL0     C 8055   6.935   8.081   3.006  0.0551  0.1863  0.2045
  801MOL0     C 8056   6.870   8.034   3.116  0.8303 -0.0002  1.4568
  801MOL0     C 8057   6.734   7.987   3.095 -0.3711  0.1759 -0.2944
  801MOL0     O 8058   6.648   7.934   3.193 -0.1893 -0.4167 -1.1794
  801MOL0     C 8059   6.679   7.959   3.326  0.2785  0.5149 -0.3277
  801MOL0     C 8060   6.782   7.865   3.370 -0.7489 -0.4955 -0.2547
  801MOL0     C 8061   6.720   7.727   3.399  0.4573  0.6056 -0.0206
  801MOL0     C 8062   6.822   7.615   3.454  0.5299 -0.3990  0.2549
  801MOL0     C 8063   6.770   7.479   3.434  0.7217  0.1650  0.0817
  801MOL0     C 8064   6.714   7.372   3.423 -0.5766 -0.4143  1.0872
  801MOL0     C 8065   6.681   7.992   2.967  0.5420 -0.2897  0.2930
  801MOL0     C 8066   6.743   8.040   2.857  0.2514 -1.0227 -0.2084
  801MOL0     C 8067   6.659   8.053   2.724 -0.7558  0.6462  0.4445
  801MOL0     H 8068   7.275   8.084   2.647  0.3858  0.6556 -1.0221
  801MOL0     H 8069   7.410   8.205   2.507  0.9971  0.5202  1.4992
  801MOL0     H 8070   7.428   8.618   2.292  2.7113  1.5146  0.6461
  801MOL0     H 8071   7.297   8.639   2.399  0.4229 -0.2820 -0.9025
  801MOL0     H 8072   7.431   8.618   2.598 -0.4517  2.4489  0.1771
  801MOL0     H 8073   7.491   8.741   2.497  0.4234 -0.3476  2.0802
  801MOL0     H 8074   7.625   8.468   2.536 -0.9971 -1.1021 -1.9500
  801MOL0     H 8075   7.670   8.622   2.600 -0.9048 -0.6022 -0.3739
  801MOL0     H 8076   7.710   8.506   2.330  3.0773  0.5823 -0.4744
  801MOL0     H 8077   7.662   8.678   2.317  0.8153  1.6115  1.2965
  801MOL0     H 8078   7.881   8.700   2.315 -0.3296 -0.8240 -0.7062
  801MOL0     H 8079   7.848   8.740   2.479 -0.2493  3.1636 -2.7138
  801MOL0     H 8080   7.893   8.465   2.511  0.9272 -1.4289 -0.2689
  801MOL0     H 8081   7.976   8.503   2.355 -1.8007 -0.2194  0.0243
  801MOL0     H 8082   8.031   8.626   2.630  3.0064  1.7453  0.9369
  801MOL0     H 8083   8.085   8.698   2.477  1.8532  0.1485  0.4767
  801MOL0     H 8084   8.212   8.512   2.644 -0.3165  0.0395  1.5440
  801MOL0     H 8085   8.150   8.407   2.510 -4.3354  0.6155  2.0793
  801MOL0     H 8086   8.407   8.684   2.617  2.8338 -0.1478  0.5841
  801MOL0     H 8087   8.643   8.763   2.540 -1.1752  3.6797 -2.2428
  801MOL0     H 8088   8.714   8.632   2.442 -0.7696 -0.4251 -3.0104
  801MOL0     H 8089   8.609   8.774   2.257 -2.4700 -0.7957  1.1773
  801MOL0     H 8090   8.602   8.902   2.372 -1.2460 -2.0841  2.4950
  801MOL0     H 8091   8.832   8.932   2.263  2.4686  0.6022  2.0157
  801MOL0     H 8092   8.842   8.753   2.254  2.3989 -2.6126  3.0342
  801MOL0     H 8093   9.011   8.858   2.400  0.4751  1.5595  2.3269
  801MOL0     H 8094   8.899   8.742   2.485 -2.0118 -0.2148  0.3442
  801MOL0     H 8095   9.102   8.868   2.611  1.3530  0.4038 -2.6678
  801MOL0     H 8096   9.283   9.019   2.690 -1.6062 -3.5504  1.3338
  801MOL0     H 8097   9.503   9.498   2.645  1.0025  1.6465  0.1776
  801MOL0     H 8098   9.724   9.569   2.699  2.3019 -0.1435  2.5990
  801MOL0     H 8099   9.918   9.595   2.964  2.5701  0.5155  0.4557
  801MOL0     H 8100   9.859   9.434   3.034  0.4387  1.3576  0.7441
  801MOL0     H 8101  10.141   9.510   2.934 -1.5857  0.9448 -0.9617
  801MOL0     H 8102  10.089   9.522   3.102 -1.8797 -1.6380  1.6667
  801MOL0     H 8103  10.036   9.287   3.098  0.4190  1.0906  1.6512
  801MOL0     H 8104  10.089   9.270   2.926  2.4528  0.5015 -0.4659
  801MOL0     H 8105  10.271   9.350   3.160  2.8942  1.9588 -1.6832
  801MOL0     H 8106  10.307   9.352   2.989  0.9839 -0.3429  0.5736
  801MOL0     H 8107  10.285   9.114   2.954  2.9176 -0.3687 -0.0729
  801MOL0     H 8108  10.214   9.090   3.119 -0.5704  0.2801 -1.3937
  801MOL0     H 8109  10.452   9.181   3.202 -1.0351 -0.5364  1.1071
  801MOL0     H 8110  10.435   9.029   3.142 -2.5307  0.4386  0.5526
  801MOL0     H 8111  10.504   9.248   2.933  0.0425  0.9668  0.2264
  801MOL0     H 8112  10.525   9.058   2.941 -1.3727  0.7888  0.3711
  801MOL0     H 8113  10.698   9.086   3.109 -3.0643  1.4187  3.0153
  801MOL0     H 8114  10.745   9.182   2.969  1.4650 -2.0687  1.8265
  801MOL0     H 8115   9.831   9.186   2.842 -0.2064  0.2056  0.3215
  801MOL0     H 8116   9.603   9.107   2.798  1.7657  0.3674  0.5148
  801MOL0     H 8117   9.049   9.356   2.558 -2.3000 -1.0051 -1.5213
  801MOL0     H 8118   8.874   9.224   2.523 -0.0217  1.2592  0.2207
  801MOL0     H 8119   7.179   8.567   2.572 -3.3474 -0.1214 -2.4450
  801MOL0     H 8120   7.038   8.440   2.710  0.7922  1.8062 -1.8010
  801MOL0     H 8121   7.037   8.108   3.029 -0.1141 -0.5743  1.9832
  801MOL0     H 8122   6.917   8.029   3.213  2.0047 -0.5575  0.8759
  801MOL0     H 8123   6.592   7.946   3.391  0.1408  2.9543  0.0470
  801MOL0     H 8124   6.697   8.065   3.346 -3.5414  1.6520 -1.9364
  801MOL0     H 8125   6.817   7.895   3.469 -1.9061  0.1717 -0.0191
  801MOL0     H 8126   6.873   7.858   3.310 -1.4350 -1.2540 -1.2266
  801MOL0     H 8127   6.664   7.688   3.313 -5.3426 -0.8198  3.8542
  801MOL0     H 8128   6.633   7.749   3.460  0.4783 -0.8193  0.5599
  801MOL0     H 8129   6.907   7.630   3.387 -2.2125 -1.2981 -3.7220
  801MOL0     H 8130   6.850   7.622   3.560 -1.9310  0.3110  0.9148
  801MOL0     H 8131   6.658   7.281   3.419 -0.3435 -0.5287  0.2249
  801MOL0     H 8132   6.578   7.957   2.964  0.8219 -1.0713 -0.9430
  801MOL0     H 8133   6.696   8.146   2.679  1.1246 -0.5230 -0.5677
  801MOL0     H 8134   6.683   7.968   2.660 -1.6859 -0.3886  1.4219
  801MOL0     H 8135   6.552   8.063   2.745 -1.5821 -2.1853 -1.7796
  802MOL0     O 8136   8.690  10.602   9.587  0.5124  0.5846 -0.2506
  802MOL0     C 8137   8.697  10.689   9.669 -0.0701 -0.7722 -0.6359
  802MOL0     O 8138   8.810  10.769   9.697  0.5432 -0.4736  0.5467
  802MOL0     C 8139   8.913  10.780   9.620 -0.5555 -0.0955  0.1018
  802MOL0     C 8140   9.042  10.778   9.684  0.1737 -0.2524 -0.0541
  802MOL0     C 8141   9.157  10.784   9.604  0.1813 -0.1050 -0.6003
  802MOL0     C 8142   9.151  10.798   9.465  0.1278 -0.3229 -0.5887
  802MOL0     O 8143   9.275  10.795   9.410  0.2858  0.4681  0.6928
  802MOL0     C 8144   9.303  10.856   9.282 -0.9549  0.4072 -0.2956
  802MOL0     C 8145   9.349  11.001   9.325  0.1240  1.1940 -0.0521
  802MOL0     C 8146   9.356  11.086   9.203  0.3983  0.4188 -0.2487
  802MOL0     C 8147   9.491  11.060   9.124  0.8485  0.6991 -0.8211
  802MOL0     C 8148   9.607  11.146   9.190  0.5744 -0.4080 -0.3000
  802MOL0     C 8149   9.737  11.104   9.129 -0.8358  0.4974  0.4860
  802MOL0     C 8150   9.858  11.191   9.188 -0.8204  0.9189  0.0230
  802MOL0     C 8151   9.987  11.117   9.199  0.1581  0.4441 -0.7743
  802MOL0     N 8152  10.078  11.190   9.278 -0.3570  0.8427 -0.5414
  802MOL0     C 8153  10.148  11.296   9.236 -0.0517 -0.2535  0.6117
  802MOL0     C 8154  10.208  11.347   9.348  0.1616 -0.4392 -0.2705
  802MOL0     C 8155  10.294  11.471   9.362 -0.0218  0.5086 -0.3723
  802MOL0     C 8156  10.427  11.456   9.277 -0.6615 -0.3826 -0.0081
  802MOL0     C 8157  10.523  11.581   9.283  0.3419  0.1393 -0.3679
  802MOL0     C 8158  10.652  11.544   9.201  0.6816  0.7851  0.1079
  802MOL0     O 8159  10.725  11.665   9.185  0.3224 -0.1549  0.2824
  802MOL0     C 8160  10.849  11.670   9.120 -0.9784  0.2645  0.2973
  802MOL0     C 8161  10.925  11.790   9.141 -0.0562  0.3163  0.0296
  802MOL0     C 8162  11.055  11.799   9.079  0.9228 -0.1993  0.6146
  802MOL0     C 8163  11.117  11.693   8.998 -0.2628 -1.0034 -1.5403
  802MOL0     C 8164  11.253  11.714   8.950  0.2837  1.3072  1.0421
  802MOL0     O 8165  11.330  11.600   8.921 -0.1190  0.2407  0.8515
  802MOL0     C 8166  11.463  11.610   8.888  0.9996 -0.0004  0.9670
  802MOL0     C 8167  11.547  11.664   8.983  0.2530 -0.6315 -0.0228
  802MOL0     C 8168  11.683  11.670   8.963  0.5971 -0.1758 -0.5202
  802MOL0     C 8169  11.739  11.605   8.852  0.5479 -0.1027 -0.1118
  802MOL0     O 8170  11.873  11.623   8.835 -0.2343  0.1478  0.0941
  802MOL0     C 8171  11.941  11.520   8.750 -0.1762  0.8485 -0.3735
  802MOL0     C 8172  12.075  11.470   8.817 -0.4792 -0.0397  0.7899
  802MOL0     C 8173  12.123  11.331   8.763  0.5115  0.2991  0.3412
  802MOL0     C 8174  12.246  11.293   8.833 -0.4955 -0.5786  0.5212
  802MOL0     C 8175  12.294  11.155   8.796 -0.6768 -0.1602  0.1681
  802MOL0     C 8176  12.430  11.123   8.853  0.2938  0.0645 -0.0773
  802MOL0     C 8177  12.546  11.175   8.764 -0.0876 -1.0544  0.1050
  802MOL0     C 8178  12.680  11.116   8.810 -0.8271 -0.7031  0.0168
  802MOL0    Cl 8179  12.704  11.164   8.974  0.6094 -0.2163 -0.5406
  802MOL0     C 8180  11.653  11.558   8.747 -0.1170  1.4574  0.1680
  802MOL0     C 8181  11.515  11.555   8.764 -0.1603  0.4329 -0.0808
  802MOL0     O 8182  11.284  11.827   8.920 -0.4439 -0.2806  0.3578
  802MOL0     C 8183  11.042  11.582   9.005  0.1204  0.1875 -0.9307
  802MOL0     C 8184  10.915  11.561   9.056 -0.1785 -0.2088 -0.2636
  802MOL0     N 8185  10.181  11.258   9.457 -0.4862 -0.1723  0.5229
  802MOL0     N 8186  10.106  11.165   9.403  0.4799 -0.7584  0.3399
  802MOL0     C 8187   9.021  10.796   9.401 -0.9057  0.4078 -0.3063
  802MOL0     C 8188   8.907  10.794   9.481 -0.2602 -0.2849  0.1156
  802MOL0     C 8189   8.572  10.719   9.748 -0.7210  0.0032  0.5998
  802MOL0     C 8190   8.573  10.844   9.813 -0.0025 -0.9249 -0.0512
  802MOL0     C 8191   8.464  10.892   9.882  0.1268 -0.9835 -0.1476
  802MOL0     C 8192   8.343  10.824   9.896 -0.7320 -0.1002  0.6781
  802MOL0     O 8193   8.241  10.889   9.953  0.5399 -0.5388 -0.0468
  802MOL0     C 8194   8.118  10.824   9.965 -0.2086  0.7194  0.3390
  802MOL0     C 8195   8.125  10.726  10.083 -0.1227 -0.0123 -0.0840
  802MOL0     C 8196   8.016  10.616  10.080  0.3263  0.4128  0.5408
  802MOL0     C 8197   8.071  10.492  10.015  0.7757 -0.4856 -0.8923
  802MOL0     C 8198   7.981  10.379  10.032  0.4980 -1.3218  0.1621
  802MOL0     C 8199   7.921  10.281  10.063 -0.1906  0.0603 -0.2840
  802MOL0     C 8200   8.347  10.689   9.838  0.3671  0.0950  0.5275
  802MOL0     C 8201   8.453  10.646   9.756 -0.3835  0.3089  0.2801
  802MOL0     C 8202   8.417  10.532   9.664 -0.2193  1.0433  0.0372
  802MOL0     H 8203   9.046  10.774   9.792  2.5129  0.2169 -0.0728
  802MOL0     H 8204   9.258  10.776   9.641  0.8546 -1.4261 -2.5378
  802MOL0     H 8205   9.379  10.801   9.225 -0.2729  0.7201  0.2869
  802MOL0     H 8206   9.218  10.847   9.215 -1.5250 -1.2326  0.5694
  802MOL0     H 8207   9.446  10.991   9.374  0.5317 -3.5904 -1.3641
  802MOL0     H 8208   9.277  11.041   9.397 -2.8818 -1.2510 -1.4919
  802MOL0     H 8209   9.357  11.193   9.229 -0.0359  1.1281 -2.8427
  802MOL0     H 8210   9.266  11.060   9.147  0.4395 -1.4280  0.4841
  802MOL0     H 8211   9.520  10.955   9.134  1.1110  0.9220  1.5934
  802MOL0     H 8212   9.472  11.089   9.021 -2.7968  3.6866  0.4791
  802MOL0     H 8213   9.590  11.249   9.159 -0.7247 -0.6698 -0.5245
  802MOL0     H 8214   9.614  11.140   9.299 -1.0339  1.6631 -0.0127
  802MOL0     H 8215   9.750  10.995   9.139  0.6021  0.1524 -3.5468
  802MOL0     H 8216   9.734  11.119   9.021  2.3831 -2.0305 -0.1342
  802MOL0     H 8217   9.837  11.229   9.289 -0.8267  1.9152 -0.3438
  802MOL0     H 8218   9.868  11.282   9.130 -0.9769  0.6735 -0.3952
  802MOL0     H 8219   9.958  11.030   9.260 -0.0502  1.9969  1.5020
  802MOL0     H 8220  10.030  11.090   9.103  0.8107  0.5427 -0.5145
  802MOL0     H 8221  10.143  11.336   9.135 -3.0661 -0.3572  0.6119
  802MOL0     H 8222  10.233  11.556   9.330  1.5102  0.8510 -2.6573
  802MOL0     H 8223  10.316  11.500   9.465  1.7067  1.1727 -0.8890
  802MOL0     H 8224  10.487  11.370   9.308 -1.2432 -0.5949  0.5493
  802MOL0     H 8225  10.393  11.445   9.173 -0.4129 -1.6117  0.0200
  802MOL0     H 8226  10.546  11.605   9.387  0.6754 -0.0699 -0.3907
  802MOL0     H 8227  10.481  11.673   9.241 -1.6577 -0.2040  0.8024
  802MOL0     H 8228  10.614  11.507   9.105  1.0625 -0.3290  0.3721
  802MOL0     H 8229  10.714  11.470   9.253  0.1367  1.7952  2.3260
  802MOL0     H 8230  10.878  11.864   9.205 -0.1347  0.2622  0.0356
  802MOL0     H 8231  11.123  11.883   9.090  0.1004  0.3317  2.0157
  802MOL0     H 8232  11.505  11.715   9.069 -0.6363 -2.6156  0.7648
  802MOL0     H 8233  11.745  11.726   9.032 -1.6766  1.7145  0.1460
  802MOL0     H 8234  11.872  11.435   8.753 -0.6578  1.2648  0.5917
  802MOL0     H 8235  11.941  11.549   8.644  0.0289 -0.5688 -0.7860
  802MOL0     H 8236  12.144  11.548   8.784 -1.2548  0.3718  0.1037
  802MOL0     H 8237  12.060  11.469   8.926  1.4769  0.7144  1.1123
  802MOL0     H 8238  12.038  11.267   8.790  0.5442  0.2085  0.2316
  802MOL0     H 8239  12.135  11.325   8.655 -0.5007  0.3310  0.2167
  802MOL0     H 8240  12.231  11.297   8.941 -1.2910  3.9606  0.4564
  802MOL0     H 8241  12.318  11.368   8.800  0.3077 -2.1357 -1.5050
  802MOL0     H 8242  12.294  11.151   8.687 -1.1051  2.1807  0.0237
  802MOL0     H 8243  12.220  11.078   8.819 -2.2308  0.4125 -2.5569
  802MOL0     H 8244  12.433  11.159   8.956  1.7947 -2.3034  0.8042
  802MOL0     H 8245  12.443  11.015   8.863 -0.1628 -0.0006 -0.2025
  802MOL0     H 8246  12.548  11.283   8.779  3.1192 -1.0469  0.2624
  802MOL0     H 8247  12.523  11.160   8.658  0.3263  0.1891 -0.1767
  802MOL0     H 8248  12.690  11.007   8.800  1.0273 -0.5387 -0.2500
  802MOL0     H 8249  12.759  11.155   8.746 -0.6966  1.4275  1.3930
  802MOL0     H 8250  11.696  11.515   8.657  4.9101 -0.7576  3.1493
  802MOL0     H 8251  11.437  11.514   8.701  0.8071 -1.5953 -0.0393
  802MOL0     H 8252  11.085  11.493   8.959 -2.2489 -0.7625 -1.4577
  802MOL0     H 8253  10.867  11.464   9.050  0.9589 -1.0134  2.1064
  802MOL0     H 8254   9.029  10.805   9.293 -0.3120 -1.0170 -0.4006
  802MOL0     H 8255   8.808  10.798   9.439  1.0991 -1.2234 -3.5476
  802MOL0     H 8256   8.656  10.914   9.814 -2.9005  3.0339  3.6777
  802MOL0     H 8257   8.465  10.987   9.934 -1.8603 -1.4800  0.9122
  802MOL0     H 8258   8.102  10.774   9.869 -0.4248  1.5751 -0.0757
  802MOL0     H 8259   8.033  10.891   9.977  0.1485  0.8386  2.7205
  802MOL0     H 8260   8.114  10.791  10.170  2.4455  3.8394 -2.3334
  802MOL0     H 8261   8.224  10.681  10.091  0.7308  1.9967  1.2920
  802MOL0     H 8262   7.922  10.655  10.040 -1.0386 -1.0248  2.1623
  802MOL0     H 8263   7.992  10.593  10.185 -0.9633  0.0868  0.1934
  802MOL0     H 8264   8.067  10.513   9.908  0.7123  0.8002 -0.6470
  802MOL0     H 8265   8.175  10.469  10.041  0.6664  1.0892  1.0844
  802MOL0     H 8266   7.875  10.192  10.101  0.1160 -1.4399 -3.1536
  802MOL0     H 8267   8.256  10.630   9.848 -0.3655  1.1451  0.2422
  802MOL0     H 8268   8.457  10.546   9.563 -0.2271 -2.0094 -0.4853
  802MOL0     H 8269   8.471  10.445   9.703 -2.3596 -0.7609 -0.8313
  802MOL0     H 8270   8.310  10.521   9.645 -0.0610  0.2149 -0.3939
  803MOL0     O 8271   8.716   4.860   0.172 -0.3516  0.9673 -0.1792
  803MOL0     C 8272   8.708   4.926   0.278  0.3554  0.1214 -0.9547
  803MOL0     O 8273   8.800   4.917   0.378  0.9058  0.6228 -0.8593
  803MOL0     C 8274   8.902   4.823   0.369 -0.2148  0.3785  0.3821
  803MOL0     C 8275   8.876   4.689   0.341  0.0187  0.9641 -1.1512
  803MOL0     C 8276   8.974   4.596   0.323 -0.3539  0.3981  0.6629
  803MOL0     C 8277   9.113   4.627   0.347  0.1216 -0.9979 -0.2654
  803MOL0     O 8278   9.203   4.526   0.337 -0.6478  0.7703  0.7975
  803MOL0     C 8279   9.337   4.544   0.369 -0.1287  0.4258  0.0595
  803MOL0     C 8280   9.415   4.421   0.324 -0.5569 -0.4889 -0.2658
  803MOL0     C 8281   9.556   4.427   0.372 -0.1917 -0.0852  0.5615
  803MOL0     C 8282   9.639   4.305   0.323 -0.3464 -0.4772 -0.8518
  803MOL0     C 8283   9.777   4.305   0.381  0.1969  0.4305  0.5997
  803MOL0     C 8284   9.871   4.206   0.304 -0.1230 -0.9901  0.7403
  803MOL0     C 8285  10.004   4.170   0.379 -0.3112 -0.6228  0.4591
  803MOL0     C 8286  10.065   4.288   0.456 -0.3603  0.5110  0.3998
  803MOL0     N 8287  10.200   4.255   0.500  0.2210  0.3548 -0.2432
  803MOL0     C 8288  10.246   4.135   0.548 -0.0774 -1.4422  0.0332
  803MOL0     C 8289  10.377   4.135   0.521  0.2539  0.1442 -0.3391
  803MOL0     C 8290  10.464   4.008   0.516  0.3338 -1.6026 -0.2318
  803MOL0     C 8291  10.550   3.993   0.637  0.1349 -0.0307 -0.2519
  803MOL0     C 8292  10.602   3.852   0.637 -0.9668 -0.0450  0.9174
  803MOL0     C 8293  10.697   3.830   0.753  0.8384 -0.5628 -0.3248
  803MOL0     O 8294  10.822   3.904   0.725 -0.5593  0.0730 -1.2883
  803MOL0     C 8295  10.934   3.863   0.799  0.1303 -0.4414  0.4642
  803MOL0     C 8296  11.063   3.890   0.751 -0.9277 -0.9620  0.1898
  803MOL0     C 8297  11.175   3.858   0.821 -0.6132 -0.2015 -0.2016
  803MOL0     C 8298  11.170   3.784   0.940  0.5746 -0.3688 -0.6413
  803MOL0     C 8299  11.303   3.733   1.004 -0.1681 -0.4829 -0.5806
  803MOL0     O 8300  11.421   3.751   0.940  0.0250 -0.3159 -0.0045
  803MOL0     C 8301  11.528   3.703   1.006  0.2683  0.2517  1.5029
  803MOL0     C 8302  11.639   3.778   1.025  0.3460 -0.1924 -0.2438
  803MOL0     C 8303  11.764   3.719   1.056  0.0020  0.8645 -0.6508
  803MOL0     C 8304  11.781   3.580   1.075  0.3315 -0.2477 -0.1840
  803MOL0     O 8305  11.902   3.539   1.122  1.1588 -0.2232  0.0794
  803MOL0     C 8306  11.949   3.408   1.080  0.3744  0.0915  0.3793
  803MOL0     C 8307  12.031   3.339   1.197 -0.2527 -0.1458  0.6779
  803MOL0     C 8308  12.179   3.388   1.196 -0.1323  0.0425 -0.1549
  803MOL0     C 8309  12.274   3.319   1.295 -0.1167  0.2835 -0.4850
  803MOL0     C 8310  12.418   3.371   1.297 -0.1130  0.1462  0.1121
  803MOL0     C 8311  12.488   3.326   1.171 -0.0822 -0.2650  0.0722
  803MOL0     C 8312  12.644   3.350   1.190  0.6258  0.1094 -0.3846
  803MOL0     C 8313  12.687   3.327   1.042  0.0080 -0.7126 -0.0528
  803MOL0    Cl 8314  12.854   3.387   1.039 -0.1235 -0.4484  0.0179
  803MOL0     C 8315  11.664   3.505   1.073 -0.1747  0.7121  0.0531
  803MOL0     C 8316  11.543   3.562   1.028  0.1792 -0.1241 -0.0751
  803MOL0     O 8317  11.283   3.683   1.115  0.2543  0.4827 -0.6808
  803MOL0     C 8318  11.042   3.748   0.992 -0.0959  0.5094 -0.2903
  803MOL0     C 8319  10.931   3.790   0.926  0.7474  0.3338  0.1414
  803MOL0     N 8320  10.417   4.258   0.473  0.3538  0.9640 -0.8457
  803MOL0     N 8321  10.308   4.327   0.461 -0.3934 -0.0850 -0.7516
  803MOL0     C 8322   9.141   4.757   0.384 -0.3794 -0.1902  0.1753
  803MOL0     C 8323   9.041   4.853   0.394 -0.1747 -0.5333 -0.2911
  803MOL0     C 8324   8.612   5.035   0.281 -0.3565 -0.4534 -0.6643
  803MOL0     C 8325   8.644   5.167   0.337  0.2758  0.0021  0.7882
  803MOL0     C 8326   8.557   5.268   0.338  0.1903 -0.4318  0.6079
  803MOL0     C 8327   8.443   5.266   0.256 -0.2849 -0.0380  0.4936
  803MOL0     O 8328   8.370   5.381   0.237 -0.2706 -0.1098  0.3685
  803MOL0     C 8329   8.232   5.362   0.208  0.0130 -1.4206 -0.5128
  803MOL0     C 8330   8.160   5.500   0.214  0.1493  0.0249  0.4067
  803MOL0     C 8331   8.009   5.491   0.231  0.3966 -0.1450  0.1376
  803MOL0     C 8332   7.928   5.580   0.142 -1.0173 -0.2307  0.0919
  803MOL0     C 8333   7.778   5.570   0.161  0.2013  0.3625 -0.5566
  803MOL0     C 8334   7.661   5.558   0.182 -0.4103  1.1310 -0.5374
  803MOL0     C 8335   8.409   5.140   0.197  0.6988  0.2218 -0.2877
  803MOL0     C 8336   8.485   5.027   0.216  0.0275  1.1855  0.2356
  803MOL0     C 8337   8.426   4.910   0.142  1.3149 -0.7675  0.2155
  803MOL0     H 8338   8.771   4.663   0.332 -0.7979  1.2177  4.2289
  803MOL0     H 8339   8.932   4.506   0.281 -1.1305  1.6129 -1.3076
  803MOL0     H 8340   9.371   4.633   0.314  0.0929 -0.3822 -1.1661
  803MOL0     H 8341   9.354   4.547   0.477 -1.9477 -1.8950  0.4753
  803MOL0     H 8342   9.415   4.421   0.215 -2.1965  3.3754 -0.4243
  803MOL0     H 8343   9.360   4.332   0.356 -0.7620 -0.2672  0.0032
  803MOL0     H 8344   9.555   4.430   0.481  0.4324 -1.7656  0.6420
  803MOL0     H 8345   9.595   4.521   0.332  1.5128 -0.8657  0.3186
  803MOL0     H 8346   9.599   4.205   0.342  1.6438 -1.3352 -0.9612
  803MOL0     H 8347   9.637   4.316   0.214 -1.0466  1.4718 -0.6807
  803MOL0     H 8348   9.828   4.402   0.383 -0.4154  0.7582  0.8045
  803MOL0     H 8349   9.768   4.271   0.485  0.6272  1.0359  0.8432
  803MOL0     H 8350   9.811   4.119   0.278 -0.1424 -0.3890 -1.4123
  803MOL0     H 8351   9.897   4.248   0.206 -0.3142 -1.3717  0.5218
  803MOL0     H 8352  10.075   4.131   0.305 -2.0292  1.3552 -2.4019
  803MOL0     H 8353   9.979   4.095   0.455 -0.6055  0.1171  1.1066
  803MOL0     H 8354  10.074   4.375   0.390  0.3715 -0.8680 -1.4428
  803MOL0     H 8355  10.008   4.318   0.544 -0.9444  1.1321 -0.1805
  803MOL0     H 8356  10.190   4.044   0.570 -0.0324 -1.3789  0.4222
  803MOL0     H 8357  10.405   3.916   0.503  2.3489 -3.0267  0.1959
  803MOL0     H 8358  10.528   4.008   0.428 -2.3138  0.6063 -2.3174
  803MOL0     H 8359  10.632   4.064   0.616  1.9006 -1.8758  0.0832
  803MOL0     H 8360  10.505   4.027   0.731  1.0909  0.8539 -0.0849
  803MOL0     H 8361  10.660   3.839   0.545 -0.6228 -4.2449  1.5328
  803MOL0     H 8362  10.515   3.786   0.636 -0.0611 -1.3371 -1.7074
  803MOL0     H 8363  10.709   3.724   0.776 -0.0807 -0.5780  0.1347
  803MOL0     H 8364  10.667   3.872   0.850 -0.0093 -2.3893  0.2605
  803MOL0     H 8365  11.071   3.931   0.650 -0.4231 -1.2661  0.0992
  803MOL0     H 8366  11.274   3.865   0.777  0.1565  0.6758  1.5668
  803MOL0     H 8367  11.635   3.877   0.981  3.1421  0.5738  1.0333
  803MOL0     H 8368  11.853   3.781   1.054  0.1736  0.7260  1.0370
  803MOL0     H 8369  11.867   3.347   1.042  1.6605 -1.4575 -0.0359
  803MOL0     H 8370  12.009   3.423   0.990 -0.2264 -1.2532 -0.2730
  803MOL0     H 8371  11.981   3.372   1.289 -2.3708 -2.7457  0.5626
  803MOL0     H 8372  12.015   3.231   1.196  1.9862 -0.5271  1.2298
  803MOL0     H 8373  12.218   3.362   1.097 -2.4181 -0.9493 -0.8621
  803MOL0     H 8374  12.173   3.496   1.212  0.5544 -0.1912  2.0211
  803MOL0     H 8375  12.268   3.211   1.287  0.2287 -0.1805  3.3729
  803MOL0     H 8376  12.243   3.344   1.397 -1.7037 -0.5321 -0.7453
  803MOL0     H 8377  12.467   3.320   1.380 -0.2730 -2.6160 -1.3739
  803MOL0     H 8378  12.423   3.479   1.312 -0.9379  0.0685  1.0454
  803MOL0     H 8379  12.480   3.218   1.155  2.5049 -1.0587  3.0526
  803MOL0     H 8380  12.450   3.381   1.085  1.8236  0.5295 -0.3131
  803MOL0     H 8381  12.668   3.268   1.258 -2.5475  0.6763  1.6174
  803MOL0     H 8382  12.672   3.444   1.238  1.5824  0.3475 -1.3541
  803MOL0     H 8383  12.673   3.222   1.015 -0.9805 -0.6853  0.3075
  803MOL0     H 8384  12.636   3.397   0.974  0.8400 -0.8951 -0.8889
  803MOL0     H 8385  11.665   3.401   1.106  1.3203 -0.5232 -3.3901
  803MOL0     H 8386  11.460   3.493   1.014 -1.5938  1.5198  1.7368
  803MOL0     H 8387  11.035   3.682   1.078  0.4526 -0.9147 -1.3136
  803MOL0     H 8388  10.838   3.772   0.978  1.2983 -0.5237  0.8652
  803MOL0     H 8389   9.246   4.776   0.402  0.1080 -1.6957 -0.8721
  803MOL0     H 8390   9.087   4.951   0.406  0.1274 -0.7341  0.2608
  803MOL0     H 8391   8.725   5.181   0.408  0.4692 -2.5535  1.1823
  803MOL0     H 8392   8.582   5.359   0.392  1.5055  0.5181 -1.4732
  803MOL0     H 8393   8.196   5.304   0.294  2.3603 -2.0182  0.1295
  803MOL0     H 8394   8.208   5.315   0.112  1.2755 -3.5840  0.1744
  803MOL0     H 8395   8.176   5.562   0.126  0.8635  1.2607  1.3713
  803MOL0     H 8396   8.207   5.556   0.295  1.6690  1.6186 -1.4860
  803MOL0     H 8397   7.976   5.521   0.331 -1.2009  3.0606 -1.1990
  803MOL0     H 8398   7.975   5.391   0.205 -0.8200  0.4557 -0.6918
  803MOL0     H 8399   7.958   5.679   0.176 -2.7031  0.6567 -0.8484
  803MOL0     H 8400   7.953   5.565   0.036 -0.4954 -1.2518  0.3488
  803MOL0     H 8401   7.556   5.546   0.198 -0.6658  0.9940 -2.0839
  803MOL0     H 8402   8.329   5.112   0.129 -0.7917 -0.7036  1.7649
  803MOL0     H 8403   8.318   4.904   0.163  1.5393  0.8572  2.1615
  803MOL0     H 8404   8.435   4.931   0.035 -0.4298  3.7227  0.7096
  803MOL0     H 8405   8.464   4.812   0.172  1.3700 -0.6551  0.5144
  804MOL0     O 8406  10.342   7.133   6.615 -0.2726 -0.1752  1.0330
  804MOL0     C 8407  10.259   7.044   6.645  0.0965 -0.0220 -0.7084
  804MOL0     O 8408  10.285   6.913   6.676  0.0790  0.6413  0.3377
  804MOL0     C 8409  10.413   6.869   6.653  0.6087 -0.1616  0.3765
  804MOL0     C 8410  10.481   6.803   6.750  0.1393 -0.3088 -0.2648
  804MOL0     C 8411  10.614   6.742   6.730  0.6922  0.8775 -0.1041
  804MOL0     C 8412  10.669   6.751   6.606  0.4274  0.1107 -0.4570
  804MOL0     O 8413  10.797   6.714   6.579 -0.4376  0.4432  0.0800
  804MOL0     C 8414  10.893   6.711   6.682 -0.8587  0.1075 -0.6401
  804MOL0     C 8415  11.026   6.685   6.628  0.2696  0.8167  0.8254
  804MOL0     C 8416  11.130   6.729   6.724  0.5288 -0.4520 -1.1144
  804MOL0     C 8417  11.265   6.704   6.669 -0.5910  0.3132  0.3990
  804MOL0     C 8418  11.373   6.725   6.774  0.1374  0.7000  0.1003
  804MOL0     C 8419  11.491   6.647   6.739 -0.0061 -0.2926 -0.3206
  804MOL0     C 8420  11.611   6.659   6.836 -0.2348  0.1366  0.5043
  804MOL0     C 8421  11.650   6.798   6.873 -0.2500 -1.0705  0.2285
  804MOL0     N 8422  11.791   6.801   6.904 -0.3229 -0.3871  0.4382
  804MOL0     C 8423  11.885   6.795   6.808 -0.7466 -0.3153 -0.6604
  804MOL0     C 8424  11.994   6.823   6.879  0.4433  0.6544 -0.8425
  804MOL0     C 8425  12.141   6.815   6.829 -0.0855  0.3976  0.4891
  804MOL0     C 8426  12.249   6.874   6.928  0.0952 -0.9930  0.3459
  804MOL0     C 8427  12.392   6.861   6.864  0.2591  0.4478 -0.9396
  804MOL0     C 8428  12.489   6.912   6.983 -0.5421 -0.4752  1.1391
  804MOL0     O 8429  12.625   6.908   6.928  1.1883 -0.2605 -0.5028
  804MOL0     C 8430  12.728   6.985   6.984  1.1001  0.2238  0.3338
  804MOL0     C 8431  12.721   7.024   7.113  0.0332 -0.4307 -0.7027
  804MOL0     C 8432  12.825   7.105   7.172  0.4320  0.2070  0.4899
  804MOL0     C 8433  12.931   7.158   7.092  0.2744 -0.4981 -0.2482
  804MOL0     C 8434  13.028   7.255   7.150 -0.0267 -0.2863  0.3028
  804MOL0     O 8435  13.133   7.294   7.070 -0.2355  0.1210  0.5671
  804MOL0     C 8436  13.248   7.339   7.117 -0.3733 -0.0411 -0.2743
  804MOL0     C 8437  13.300   7.314   7.248  0.8732 -0.0985 -0.5190
  804MOL0     C 8438  13.429   7.360   7.282 -0.0328  0.1019 -0.4733
  804MOL0     C 8439  13.513   7.421   7.192  0.7702 -0.4144  0.2828
  804MOL0     O 8440  13.637   7.457   7.242  0.0017 -0.1129 -0.7824
  804MOL0     C 8441  13.698   7.586   7.201  0.5029 -0.7586  0.8346
  804MOL0     C 8442  13.828   7.612   7.282  0.6865 -0.0062 -0.8817
  804MOL0     C 8443  13.934   7.688   7.204 -0.9827 -0.0618  0.1490
  804MOL0     C 8444  14.060   7.711   7.285 -0.3329 -0.3837 -0.0143
  804MOL0     C 8445  14.173   7.790   7.215  0.1378  0.3762  0.4045
  804MOL0     C 8446  14.284   7.823   7.309 -0.7464  0.0699  0.2882
  804MOL0     C 8447  14.380   7.929   7.248  0.4915 -0.3203  0.1832
  804MOL0     C 8448  14.526   7.918   7.308 -0.6648  0.1581 -0.5919
  804MOL0    Cl 8449  14.614   8.071   7.252  0.3477  0.1759 -0.0103
  804MOL0     C 8450  13.470   7.445   7.063  0.7521 -0.1105  0.2116
  804MOL0     C 8451  13.341   7.400   7.023  0.1351 -0.9690 -0.0465
  804MOL0     O 8452  13.010   7.296   7.259 -0.1114 -0.6333  0.5306
  804MOL0     C 8453  12.931   7.113   6.957 -1.0144  0.0524  0.7685
  804MOL0     C 8454  12.833   7.026   6.908 -0.2901 -0.4650 -0.2101
  804MOL0     N 8455  11.970   6.846   7.011 -0.0902 -1.1289  0.2848
  804MOL0     N 8456  11.843   6.816   7.030 -0.6358 -0.1649  0.3512
  804MOL0     C 8457  10.597   6.815   6.495  0.9289 -0.2010 -0.0884
  804MOL0     C 8458  10.478   6.879   6.527  0.9936  1.0826 -0.3166
  804MOL0     C 8459  10.108   7.063   6.636 -1.0267  0.0094 -0.4197
  804MOL0     C 8460  10.028   6.945   6.633 -0.3631  0.7836  0.7685
  804MOL0     C 8461   9.891   6.943   6.628 -0.3947 -0.1359  0.1193
  804MOL0     C 8462   9.831   7.071   6.611  0.1043  0.6160 -0.7387
  804MOL0     O 8463   9.699   7.074   6.566  0.2777  0.7962  0.5522
  804MOL0     C 8464   9.607   7.082   6.682 -0.5823  0.9168  0.4716
  804MOL0     C 8465   9.465   7.078   6.630  0.1738  0.3227  0.2690
  804MOL0     C 8466   9.363   7.045   6.735 -0.5501  0.2801 -0.0668
  804MOL0     C 8467   9.222   7.032   6.668 -0.8294 -0.1822  0.5737
  804MOL0     C 8468   9.212   6.912   6.577 -0.0406 -0.2960 -0.5491
  804MOL0     C 8469   9.189   6.832   6.494 -0.1238  0.4511 -0.3829
  804MOL0     C 8470   9.911   7.189   6.616 -0.1596  0.0031 -0.6019
  804MOL0     C 8471  10.047   7.190   6.640 -0.0143  0.3644 -0.1745
  804MOL0     C 8472  10.126   7.315   6.646  0.3091  0.4943  0.7802
  804MOL0     H 8473  10.431   6.792   6.846  0.6367  0.8785  0.1516
  804MOL0     H 8474  10.654   6.688   6.815 -2.5338 -1.0216  0.3828
  804MOL0     H 8475  10.894   6.810   6.730 -1.9214  0.1801 -0.7447
  804MOL0     H 8476  10.868   6.640   6.761  1.3541  2.0061  1.9581
  804MOL0     H 8477  11.050   6.741   6.538  1.3930 -0.3483  0.3706
  804MOL0     H 8478  11.036   6.584   6.588 -0.9768  1.9395 -2.7261
  804MOL0     H 8479  11.128   6.667   6.815 -1.2306 -3.4308 -3.0094
  804MOL0     H 8480  11.109   6.833   6.748 -0.8666 -1.2185  1.3300
  804MOL0     H 8481  11.275   6.599   6.640  2.1920 -0.3326  3.2140
  804MOL0     H 8482  11.291   6.761   6.580  2.6396 -1.4982  0.0015
  804MOL0     H 8483  11.396   6.831   6.790  0.4511  0.2917  2.8491
  804MOL0     H 8484  11.340   6.694   6.874 -0.3943 -0.1089 -0.3186
  804MOL0     H 8485  11.466   6.540   6.734  1.4066 -0.9784  3.5456
  804MOL0     H 8486  11.525   6.671   6.638 -2.2098 -1.1743 -1.3380
  804MOL0     H 8487  11.699   6.626   6.779  0.4205  1.3147  0.7906
  804MOL0     H 8488  11.616   6.599   6.928  2.2441  0.0232  0.3833
  804MOL0     H 8489  11.632   6.858   6.783  0.5719 -0.0645  0.7254
  804MOL0     H 8490  11.581   6.824   6.954 -0.4650 -0.5899 -0.1031
  804MOL0     H 8491  11.886   6.759   6.705  4.1914  1.6418 -1.5603
  804MOL0     H 8492  12.160   6.711   6.801  0.1430  0.3595  0.7864
  804MOL0     H 8493  12.131   6.875   6.738 -2.0064 -0.1301  0.3047
  804MOL0     H 8494  12.222   6.977   6.955 -0.4861 -1.1845  0.5027
  804MOL0     H 8495  12.253   6.823   7.025 -2.2527  0.2029  1.1781
  804MOL0     H 8496  12.400   6.922   6.773 -1.0106  2.0749 -0.0199
  804MOL0     H 8497  12.409   6.758   6.833 -1.0784 -0.1626  0.2423
  804MOL0     H 8498  12.479   6.852   7.074 -2.3870 -1.5382  0.2904
  804MOL0     H 8499  12.465   7.016   7.007 -1.8534 -0.3146 -0.6407
  804MOL0     H 8500  12.633   6.989   7.166 -2.4129  5.1204 -0.3938
  804MOL0     H 8501  12.814   7.142   7.274  2.9699  2.2206  0.1308
  804MOL0     H 8502  13.243   7.257   7.321 -0.0520  0.1350 -1.0493
  804MOL0     H 8503  13.459   7.322   7.379 -0.9048 -2.0594 -0.9896
  804MOL0     H 8504  13.721   7.586   7.095  1.5814  1.9800  0.9902
  804MOL0     H 8505  13.635   7.675   7.218  0.7056 -0.7043  1.3260
  804MOL0     H 8506  13.813   7.657   7.380  0.9296 -0.4492 -0.6349
  804MOL0     H 8507  13.876   7.518   7.311 -1.0672 -0.9453 -0.9109
  804MOL0     H 8508  13.963   7.642   7.110  2.3316  0.8551  0.5941
  804MOL0     H 8509  13.884   7.781   7.173 -0.3787  0.3536  0.3877
  804MOL0     H 8510  14.095   7.614   7.321  1.8993  0.5633  0.5302
  804MOL0     H 8511  14.030   7.783   7.363  2.1566  1.6539 -0.7992
  804MOL0     H 8512  14.122   7.882   7.185  1.5356  0.8885 -0.4683
  804MOL0     H 8513  14.203   7.716   7.141  1.7240 -1.2024  2.5089
  804MOL0     H 8514  14.246   7.874   7.398 -2.3792 -2.2580  1.0167
  804MOL0     H 8515  14.334   7.730   7.337  0.2333  0.6537  0.5521
  804MOL0     H 8516  14.346   8.030   7.270 -0.3785  0.3412 -3.4657
  804MOL0     H 8517  14.369   7.910   7.141  1.1661  1.1684 -0.1585
  804MOL0     H 8518  14.510   7.914   7.416 -2.0203 -0.5445 -0.7942
  804MOL0     H 8519  14.566   7.820   7.284 -1.9408 -0.7876  0.9293
  804MOL0     H 8520  13.541   7.502   7.004 -1.7753  2.2409 -0.8160
  804MOL0     H 8521  13.291   7.424   6.930  0.0349 -1.3051 -0.0801
  804MOL0     H 8522  13.011   7.148   6.892 -1.2317 -0.8892 -0.0238
  804MOL0     H 8523  12.835   7.002   6.802  4.9109  0.6128 -0.5965
  804MOL0     H 8524  10.646   6.829   6.399 -0.9275  0.2547 -1.0236
  804MOL0     H 8525  10.433   6.935   6.445  0.9875 -2.2632 -2.8238
  804MOL0     H 8526  10.071   6.845   6.633 -0.9367  0.5157 -0.2486
  804MOL0     H 8527   9.824   6.858   6.639  1.2961 -1.7225 -1.1375
  804MOL0     H 8528   9.616   7.174   6.741 -1.0153 -0.9527  3.7116
  804MOL0     H 8529   9.627   6.995   6.745 -0.3688  1.1552  0.7362
  804MOL0     H 8530   9.468   7.005   6.549 -0.3334  0.8074 -0.1880
  804MOL0     H 8531   9.430   7.173   6.589  1.4193  0.9886  0.6996
  804MOL0     H 8532   9.369   7.127   6.807  1.2594  3.5238 -3.5570
  804MOL0     H 8533   9.389   6.951   6.785 -0.4481 -0.1315 -0.8858
  804MOL0     H 8534   9.141   7.031   6.743 -1.7796  0.0361 -0.4233
  804MOL0     H 8535   9.198   7.118   6.606 -0.8247 -0.9678 -0.5405
  804MOL0     H 8536   9.173   6.754   6.423  0.1380  2.5133 -2.8702
  804MOL0     H 8537   9.854   7.281   6.604 -1.3523 -0.4120  1.2951
  804MOL0     H 8538  10.198   7.303   6.728  1.3852 -3.2669 -0.5084
  804MOL0     H 8539  10.189   7.315   6.557  0.1060  1.3541  0.6343
  804MOL0     H 8540  10.059   7.400   6.657 -0.3235  0.0845  0.1972
  805MOL0     O 8541   9.587   0.365   3.793 -0.2373 -0.1760 -0.4726
  805MOL0     C 8542   9.510   0.413   3.710 -0.0027 -0.4545 -0.8027
  805MOL0     O 8543   9.550   0.512   3.627 -0.1807  0.5855 -0.3938
  805MOL0     C 8544   9.636   0.596   3.695  0.2836  1.0062  0.1973
  805MOL0     C 8545   9.778   0.597   3.673 -0.1081  0.0208 -0.5877
  805MOL0     C 8546   9.858   0.671   3.761 -0.8127 -0.2658  0.4870
  805MOL0     C 8547   9.801   0.759   3.849 -0.4461 -0.5854  0.6545
  805MOL0     O 8548   9.876   0.849   3.920 -0.3070  0.2534 -0.1493
  805MOL0     C 8549   9.847   0.989   3.911 -0.1682  0.2048 -0.1954
  805MOL0     C 8550   9.954   1.047   3.817 -0.1876  0.3048  0.6415
  805MOL0     C 8551  10.104   1.023   3.843 -0.5042 -0.2274  0.0607
  805MOL0     C 8552  10.183   1.130   3.759  0.3554 -0.5475  0.6399
  805MOL0     C 8553  10.333   1.132   3.784  0.2590 -0.2561  0.4778
  805MOL0     C 8554  10.410   1.021   3.716 -0.0781  0.0057 -0.4017
  805MOL0     C 8555  10.559   1.049   3.751  0.1683 -0.1906 -0.9792
  805MOL0     C 8556  10.660   0.945   3.695  0.6164 -0.3780  0.7504
  805MOL0     N 8557  10.673   0.932   3.552 -0.3956 -0.0013  0.8641
  805MOL0     C 8558  10.739   1.018   3.465 -0.2785  0.1269 -0.7665
  805MOL0     C 8559  10.713   0.964   3.346  0.1990 -0.2399  0.7346
  805MOL0     C 8560  10.758   1.027   3.219  1.1919 -0.4518  0.2259
  805MOL0     C 8561  10.906   1.075   3.228  0.4702  0.3201  0.0083
  805MOL0     C 8562  10.997   0.965   3.260  0.2629  0.4067 -0.7052
  805MOL0     C 8563  11.139   1.015   3.256  1.4560 -0.0505 -0.1829
  805MOL0     O 8564  11.247   0.918   3.255  0.1489 -0.1077 -1.1566
  805MOL0     C 8565  11.372   0.941   3.203  0.9799 -0.4863 -0.4124
  805MOL0     C 8566  11.473   0.864   3.246  0.4444 -0.0587  0.3997
  805MOL0     C 8567  11.606   0.887   3.201 -0.0728 -0.6816 -1.1713
  805MOL0     C 8568  11.637   0.990   3.128  0.0946 -0.1042  0.1277
  805MOL0     C 8569  11.778   1.016   3.095  0.1925 -0.0567 -0.3666
  805MOL0     O 8570  11.820   1.081   2.979 -0.0454  0.4331  0.3390
  805MOL0     C 8571  11.951   1.092   2.949 -0.0379  0.1277 -0.3150
  805MOL0     C 8572  12.046   1.131   3.046  0.6564 -0.5319  0.1761
  805MOL0     C 8573  12.182   1.124   3.019 -0.1051  0.0716 -1.3882
  805MOL0     C 8574  12.224   1.070   2.896  0.5491 -0.0361 -0.5304
  805MOL0     O 8575  12.362   1.064   2.873  0.0511 -0.7784 -0.9045
  805MOL0     C 8576  12.419   0.983   2.773 -0.5383 -0.3077  0.2242
  805MOL0     C 8577  12.567   1.006   2.748 -0.1142 -0.6756 -0.2092
  805MOL0     C 8578  12.605   1.127   2.663 -0.2864  0.8669  0.3887
  805MOL0     C 8579  12.760   1.152   2.667  1.3481  0.7330  0.0559
  805MOL0     C 8580  12.786   1.250   2.560 -0.8397 -0.3571  0.0857
  805MOL0     C 8581  12.943   1.245   2.532  0.5485 -0.1207  0.3745
  805MOL0     C 8582  12.979   1.348   2.437 -0.5038 -0.2152 -0.4614
  805MOL0     C 8583  12.933   1.329   2.289  0.3037 -0.3888 -0.0945
  805MOL0    Cl 8584  12.929   1.495   2.210 -0.4031 -0.3137  0.4804
  805MOL0     C 8585  12.130   1.033   2.798  0.1989  0.3061 -0.0440
  805MOL0     C 8586  11.997   1.050   2.828 -0.1763  0.7683 -0.7837
  805MOL0     O 8587  11.854   0.992   3.183  0.0154  0.5317 -0.3972
  805MOL0     C 8588  11.533   1.082   3.080  0.9557 -0.0907 -0.4713
  805MOL0     C 8589  11.404   1.051   3.122 -0.0663 -0.5418  0.5793
  805MOL0     N 8590  10.627   0.858   3.354  0.6504  0.7476  0.0584
  805MOL0     N 8591  10.598   0.844   3.476  0.3864  1.4380 -0.6745
  805MOL0     C 8592   9.668   0.761   3.867  1.2183  0.7444 -0.4018
  805MOL0     C 8593   9.586   0.680   3.790  0.0444  1.5354  0.4062
  805MOL0     C 8594   9.375   0.342   3.707 -0.4465  0.7545 -0.8452
  805MOL0     C 8595   9.282   0.398   3.623  0.5677 -0.0643 -0.2263
  805MOL0     C 8596   9.149   0.360   3.623  0.0093 -0.1599 -0.2759
  805MOL0     C 8597   9.101   0.246   3.693 -0.4525 -0.2942 -0.1715
  805MOL0     O 8598   8.967   0.220   3.693  0.1458  0.8096 -0.0717
  805MOL0     C 8599   8.920   0.111   3.774  0.0259  0.1650 -0.4699
  805MOL0     C 8600   8.760   0.108   3.802  0.4833 -0.4231  0.1311
  805MOL0     C 8601   8.703  -0.031   3.761  0.0051 -0.0348 -0.1034
  805MOL0     C 8602   8.555  -0.040   3.801  0.0363  0.0993  0.3116
  805MOL0     C 8603   8.456   0.044   3.734  0.0995 -0.6026  0.4505
  805MOL0     C 8604   8.378   0.135   3.699 -0.6384 -0.0893 -0.4377
  805MOL0     C 8605   9.206   0.173   3.757 -0.1036 -0.0169  1.2000
  805MOL0     C 8606   9.337   0.220   3.770 -0.2418  0.1463  0.7046
  805MOL0     C 8607   9.425   0.149   3.864 -0.2586 -0.4755 -0.8074
  805MOL0     H 8608   9.829   0.531   3.603  0.8909  0.9407 -0.7566
  805MOL0     H 8609   9.966   0.685   3.754 -0.9668  0.5226 -0.4086
  805MOL0     H 8610   9.744   1.003   3.876  0.6147 -0.2685 -2.9051
  805MOL0     H 8611   9.875   1.035   4.006  2.1642 -3.1825  0.9011
  805MOL0     H 8612   9.940   1.156   3.816 -1.3241  0.1939  1.3777
  805MOL0     H 8613   9.947   1.012   3.714  2.3440 -0.9892  0.8259
  805MOL0     H 8614  10.129   0.920   3.818 -0.9645 -0.4407  0.4596
  805MOL0     H 8615  10.122   1.051   3.948  2.0043  0.3976 -0.4691
  805MOL0     H 8616  10.159   1.100   3.657 -1.1854 -2.2547  1.4332
  805MOL0     H 8617  10.142   1.230   3.778 -0.0590 -0.7531  0.8555
  805MOL0     H 8618  10.368   1.225   3.738  1.0603 -0.6131  0.3616
  805MOL0     H 8619  10.361   1.140   3.889  0.0740 -3.0922  0.8093
  805MOL0     H 8620  10.377   0.921   3.748  0.3194 -0.5103 -1.5446
  805MOL0     H 8621  10.399   1.036   3.608  0.0728  2.6025 -0.1034
  805MOL0     H 8622  10.569   1.044   3.860 -0.6065  0.5699 -0.8562
  805MOL0     H 8623  10.584   1.146   3.708 -0.7115 -0.2916 -1.7486
  805MOL0     H 8624  10.753   0.985   3.737 -0.6324  0.7935  2.5675
  805MOL0     H 8625  10.636   0.846   3.736 -1.3694 -0.0664  0.4430
  805MOL0     H 8626  10.805   1.101   3.487  0.1838  0.2157 -2.3423
  805MOL0     H 8627  10.748   0.957   3.135 -0.0075  1.0914 -0.9796
  805MOL0     H 8628  10.687   1.109   3.208  1.4117 -0.3025 -0.1065
  805MOL0     H 8629  10.932   1.120   3.132  0.0686 -1.0639 -0.7722
  805MOL0     H 8630  10.918   1.160   3.296  2.2204  1.1502 -1.2340
  805MOL0     H 8631  10.982   0.896   3.177 -2.6221 -2.5342  1.9668
  805MOL0     H 8632  10.976   0.918   3.356  2.8554 -4.6927 -2.3147
  805MOL0     H 8633  11.156   1.084   3.339  3.2774  0.0000 -0.5625
  805MOL0     H 8634  11.150   1.073   3.164  0.5400  1.9495  0.8840
  805MOL0     H 8635  11.447   0.785   3.316  3.4935  0.9785  2.9362
  805MOL0     H 8636  11.672   0.821   3.256 -0.1185 -0.0776 -0.3772
  805MOL0     H 8637  12.015   1.179   3.139 -0.1781 -1.7320  0.5444
  805MOL0     H 8638  12.264   1.150   3.085  0.6001 -4.3186 -0.2340
  805MOL0     H 8639  12.409   0.878   2.801 -0.7057  0.1834  2.1776
  805MOL0     H 8640  12.366   1.008   2.681  1.7499 -0.2114 -1.1539
  805MOL0     H 8641  12.624   1.005   2.842  1.2766 -0.9050 -1.0319
  805MOL0     H 8642  12.606   0.921   2.692  0.1252  0.4136 -1.7664
  805MOL0     H 8643  12.564   1.121   2.562  1.8505 -0.0924 -0.4816
  805MOL0     H 8644  12.568   1.218   2.710 -0.3040  0.7360  0.6323
  805MOL0     H 8645  12.815   1.059   2.650  2.0821  0.8305  1.6695
  805MOL0     H 8646  12.789   1.195   2.764 -0.5797  0.6129  0.7388
  805MOL0     H 8647  12.739   1.346   2.583 -1.2791 -0.6719  0.5159
  805MOL0     H 8648  12.729   1.238   2.468 -0.1626 -0.2705 -0.3525
  805MOL0     H 8649  12.995   1.260   2.627 -0.9058 -1.7275  1.4651
  805MOL0     H 8650  12.973   1.151   2.484  1.0843 -0.0084  0.4766
  805MOL0     H 8651  13.087   1.361   2.447 -0.7478  0.4093  1.8349
  805MOL0     H 8652  12.945   1.443   2.480  0.2866 -0.6459  1.2114
  805MOL0     H 8653  12.995   1.256   2.236 -0.6439 -2.7489  1.8662
  805MOL0     H 8654  12.830   1.295   2.275  0.2964  0.2185 -1.7868
  805MOL0     H 8655  12.155   1.012   2.695  0.5956  0.6826 -0.0292
  805MOL0     H 8656  11.924   1.017   2.755 -0.7582  0.2212  0.0362
  805MOL0     H 8657  11.568   1.165   3.020  2.3003  3.1009  4.2188
  805MOL0     H 8658  11.334   1.130   3.095  0.4989  0.6513  2.3928
  805MOL0     H 8659   9.615   0.819   3.942 -1.6090 -2.6024  0.4673
  805MOL0     H 8660   9.478   0.671   3.792  0.1682 -0.3544  0.3896
  805MOL0     H 8661   9.306   0.480   3.556 -1.3004  0.9162  0.2322
  805MOL0     H 8662   9.081   0.430   3.577  0.0945  1.7113  2.2055
  805MOL0     H 8663   8.966   0.101   3.873 -3.0855 -2.2492  0.9130
  805MOL0     H 8664   8.940   0.018   3.721  1.8772 -0.6494  1.5065
  805MOL0     H 8665   8.715   0.186   3.739  2.2062  2.0780  1.7832
  805MOL0     H 8666   8.744   0.124   3.909  2.7664 -5.1512  1.4253
  805MOL0     H 8667   8.753  -0.103   3.827 -0.2701  0.4474  0.6541
  805MOL0     H 8668   8.735  -0.058   3.660  0.3574  0.0854 -0.0256
  805MOL0     H 8669   8.533  -0.146   3.787  3.5288 -0.9225  1.4627
  805MOL0     H 8670   8.539  -0.018   3.907 -1.5452  0.1958  0.0829
  805MOL0     H 8671   8.323   0.220   3.666  0.4865  1.0317  0.4928
  805MOL0     H 8672   9.183   0.085   3.818  0.3820  1.0662  3.0329
  805MOL0     H 8673   9.524   0.127   3.824  0.5303  0.5042  0.5066
  805MOL0     H 8674   9.424   0.212   3.954  1.0198  0.7092 -1.5875
  805MOL0     H 8675   9.379   0.055   3.896 -0.6977  0.4415  1.4849
  806MOL0     O 8676   2.077   9.516   9.156  0.1824  0.0773  0.9765
  806MOL0     C 8677   2.072   9.632   9.130  0.5835 -1.0028 -0.2126
  806MOL0     O 8678   2.177   9.710   9.087  0.3005  0.1385 -0.5905
  806MOL0     C 8679   2.306   9.667   9.106 -0.3236  0.3506  0.1713
  806MOL0     C 8680   2.384   9.740   9.194 -0.5329  0.1995  0.7898
  806MOL0     C 8681   2.521   9.717   9.208 -0.1845  0.5893  0.1769
  806MOL0     C 8682   2.579   9.624   9.118 -0.1873 -0.1937  0.0154
  806MOL0     O 8683   2.713   9.596   9.131 -0.5608 -0.6931  0.1264
  806MOL0     C 8684   2.792   9.644   9.021  0.1496  0.0215 -0.2243
  806MOL0     C 8685   2.942   9.645   9.057  0.2695  0.0902  0.2541
  806MOL0     C 8686   3.034   9.695   8.945  0.6783 -0.3775 -0.4617
  806MOL0     C 8687   3.179   9.699   8.985  0.1914  0.0844  1.2232
  806MOL0     C 8688   3.256   9.815   8.924  1.0270 -0.4685 -0.6526
  806MOL0     C 8689   3.273   9.797   8.777  0.7993 -0.6869  0.7992
  806MOL0     C 8690   3.357   9.896   8.710 -0.1929  0.1162  0.1188
  806MOL0     C 8691   3.507   9.887   8.747  0.5232 -0.7956  0.2875
  806MOL0     N 8692   3.572   9.999   8.677  0.1830  0.1430  0.5640
  806MOL0     C 8693   3.583  10.004   8.539  0.1030 -0.3815  0.1794
  806MOL0     C 8694   3.639  10.123   8.515 -1.3876 -0.8210  0.7528
  806MOL0     C 8695   3.662  10.170   8.370 -0.4658  0.4596 -0.7662
  806MOL0     C 8696   3.558  10.273   8.319  0.0829  0.1256  0.2263
  806MOL0     C 8697   3.412  10.229   8.334 -0.0316  0.0846  0.0841
  806MOL0     C 8698   3.318  10.348   8.297  1.2140 -0.1423 -0.9307
  806MOL0     O 8699   3.322  10.345   8.150 -0.0408 -0.9380  0.1265
  806MOL0     C 8700   3.232  10.413   8.078 -0.1527 -0.3161 -0.2544
  806MOL0     C 8701   3.146  10.513   8.127  0.5130 -0.4206 -0.4063
  806MOL0     C 8702   3.053  10.579   8.039  0.3883  0.0065 -0.3353
  806MOL0     C 8703   3.042  10.533   7.909 -0.6402  0.0303 -0.5506
  806MOL0     C 8704   2.952  10.602   7.811  0.2260 -0.1419 -0.2372
  806MOL0     O 8705   2.945  10.532   7.689 -0.2100  0.1020 -0.1400
  806MOL0     C 8706   2.855  10.561   7.587  0.4453 -0.0296  0.6246
  806MOL0     C 8707   2.796  10.691   7.560  0.3291 -0.5544  0.3181
  806MOL0     C 8708   2.709  10.710   7.450 -0.3183  0.3894  0.7622
  806MOL0     C 8709   2.669  10.596   7.372 -0.2880 -0.8439 -0.5603
  806MOL0     O 8710   2.574  10.621   7.274  0.5204 -0.5478 -0.6892
  806MOL0     C 8711   2.500  10.510   7.217 -0.5606 -0.1517  0.0187
  806MOL0     C 8712   2.360  10.553   7.178  0.2731  0.1536 -0.2847
  806MOL0     C 8713   2.289  10.451   7.082 -0.4821  0.2231 -0.7120
  806MOL0     C 8714   2.138  10.433   7.108 -0.2330 -1.8754 -0.1379
  806MOL0     C 8715   2.056  10.542   7.036 -0.0844  0.0077 -0.0693
  806MOL0     C 8716   1.909  10.538   7.080  0.1996 -0.5476 -0.1883
  806MOL0     C 8717   1.823  10.651   7.023  0.0812  0.6464  0.3975
  806MOL0     C 8718   1.816  10.789   7.100  1.0883 -0.0748 -0.3899
  806MOL0    Cl 8719   1.792  10.774   7.269  0.4938 -0.5787  0.2321
  806MOL0     C 8720   2.730  10.472   7.395  0.1350 -0.4072  0.3055
  806MOL0     C 8721   2.815  10.446   7.508 -0.1696 -1.1898 -0.3682
  806MOL0     O 8722   2.913  10.718   7.836  0.2532 -0.2883  0.2512
  806MOL0     C 8723   3.123  10.422   7.871  0.2028 -1.3862 -0.1432
  806MOL0     C 8724   3.219  10.365   7.950  0.3147 -0.5980 -0.4518
  806MOL0     N 8725   3.648  10.199   8.633  0.2852 -0.2044  0.2325
  806MOL0     N 8726   3.606  10.124   8.721  0.3307  0.2600  0.0520
  806MOL0     C 8727   2.498   9.551   9.032  0.1504  0.2611  0.4648
  806MOL0     C 8728   2.356   9.568   9.030 -0.1919  1.1357  0.8726
  806MOL0     C 8729   1.937   9.697   9.125  0.8905 -0.6434 -0.4742
  806MOL0     C 8730   1.826   9.616   9.156  0.2260  0.0143  0.2071
  806MOL0     C 8731   1.699   9.659   9.163  0.2222  0.0045  0.0683
  806MOL0     C 8732   1.669   9.794   9.142  1.0312 -0.4602  0.4139
  806MOL0     O 8733   1.533   9.814   9.147  0.5966  0.3821 -0.2350
  806MOL0     C 8734   1.491   9.947   9.111  0.5989  0.2539 -0.7744
  806MOL0     C 8735   1.337   9.935   9.077  0.1186  0.4076 -0.5492
  806MOL0     C 8736   1.257   9.937   9.206  0.8204 -0.5577 -0.5326
  806MOL0     C 8737   1.251  10.070   9.288 -0.3447  0.2999 -0.6437
  806MOL0     C 8738   1.148  10.153   9.226 -0.7496  0.4139 -0.1658
  806MOL0     C 8739   1.077  10.237   9.177  1.1802  0.1348  0.0872
  806MOL0     C 8740   1.770   9.883   9.114 -0.6654 -0.1767 -0.2056
  806MOL0     C 8741   1.909   9.840   9.112  0.4630 -0.4479  0.1663
  806MOL0     C 8742   2.020   9.945   9.107  0.8127 -0.3698  1.2217
  806MOL0     H 8743   2.332   9.822   9.243 -1.7900  1.5495 -2.5246
  806MOL0     H 8744   2.579   9.760   9.288 -0.4352 -1.0716  1.2896
  806MOL0     H 8745   2.788   9.577   8.935  3.4385  0.1489 -0.6042
  806MOL0     H 8746   2.759   9.742   8.984  4.4134  3.1176  3.1720
  806MOL0     H 8747   2.972   9.540   9.067 -0.0836 -0.2229 -1.6189
  806MOL0     H 8748   2.955   9.701   9.150  2.8091  1.6965 -0.9765
  806MOL0     H 8749   3.001   9.797   8.922  0.2173 -0.5942 -0.7861
  806MOL0     H 8750   3.025   9.629   8.858  0.3374 -2.3979  1.0218
  806MOL0     H 8751   3.173   9.704   9.094 -0.3349  0.0489  1.1979
  806MOL0     H 8752   3.231   9.608   8.954  0.6831  0.7102  0.1416
  806MOL0     H 8753   3.208   9.911   8.945  0.5506 -0.6527 -0.8959
  806MOL0     H 8754   3.355   9.829   8.970 -0.4671  1.7890  2.1587
  806MOL0     H 8755   3.323   9.700   8.767  0.9280 -0.7953  2.1902
  806MOL0     H 8756   3.175   9.795   8.729  0.4493 -0.5377  1.4879
  806MOL0     H 8757   3.317   9.996   8.730 -0.4404  0.0144  0.1391
  806MOL0     H 8758   3.359   9.866   8.605  0.0140  1.5980 -0.3209
  806MOL0     H 8759   3.529   9.895   8.854 -2.8899 -0.5465  1.0862
  806MOL0     H 8760   3.540   9.794   8.699 -1.5583 -1.7910  0.6501
  806MOL0     H 8761   3.565   9.921   8.472  0.5183  0.6957 -1.3245
  806MOL0     H 8762   3.763  10.208   8.354 -0.3929  0.5836 -0.0369
  806MOL0     H 8763   3.640  10.077   8.317 -1.9166 -1.6441  3.1284
  806MOL0     H 8764   3.564  10.372   8.366 -1.8536 -0.4109  1.7590
  806MOL0     H 8765   3.580  10.283   8.212  0.9275  2.7038  0.5759
  806MOL0     H 8766   3.385  10.186   8.431 -1.6503 -0.3897 -0.5413
  806MOL0     H 8767   3.405  10.143   8.266 -1.4342 -0.6250  1.0662
  806MOL0     H 8768   3.348  10.442   8.343  2.1075  0.2965 -2.3542
  806MOL0     H 8769   3.216  10.324   8.329  1.6210  1.1242  1.5511
  806MOL0     H 8770   3.150  10.545   8.230 -1.5954  1.3382 -0.7876
  806MOL0     H 8771   2.988  10.653   8.083 -0.8216 -1.4380  0.3907
  806MOL0     H 8772   2.827  10.784   7.608  0.3306  0.9935 -2.4924
  806MOL0     H 8773   2.659  10.805   7.429  0.1369  0.5869  0.5459
  806MOL0     H 8774   2.553  10.467   7.131 -0.0003 -1.9545  1.2145
  806MOL0     H 8775   2.488  10.434   7.294  1.9838  0.9511  1.6462
  806MOL0     H 8776   2.298  10.578   7.264 -1.4438  2.1905 -2.0178
  806MOL0     H 8777   2.362  10.644   7.118 -1.7996 -0.8288 -1.9909
  806MOL0     H 8778   2.297  10.487   6.979 -1.7150  3.2740  0.1609
  806MOL0     H 8779   2.340  10.356   7.100  1.0648  1.3114  0.9681
  806MOL0     H 8780   2.122  10.438   7.216 -0.4854 -1.1030 -0.2033
  806MOL0     H 8781   2.089  10.344   7.069 -2.3992 -1.0536  0.5362
  806MOL0     H 8782   2.063  10.522   6.928 -1.9614  1.1416 -0.4416
  806MOL0     H 8783   2.100  10.641   7.048  2.0154 -0.1243 -4.6756
  806MOL0     H 8784   1.866  10.440   7.058  0.0984 -0.4162 -0.5735
  806MOL0     H 8785   1.910  10.563   7.186  0.3615  1.6622 -0.6649
  806MOL0     H 8786   1.721  10.613   7.014 -0.4225  2.2870 -1.8117
  806MOL0     H 8787   1.862  10.673   6.923 -0.8471  0.3082 -0.0543
  806MOL0     H 8788   1.914  10.835   7.084  1.1347  1.2956  2.9147
  806MOL0     H 8789   1.730  10.844   7.061  1.6551 -1.1646 -3.4284
  806MOL0     H 8790   2.680  10.391   7.342 -0.7365  2.5833 -3.9535
  806MOL0     H 8791   2.861  10.349   7.524  1.1314 -1.0497 -2.8174
  806MOL0     H 8792   3.106  10.383   7.771  1.0697  0.4003 -1.0377
  806MOL0     H 8793   3.262  10.269   7.921 -0.4004 -0.9257 -0.4607
  806MOL0     H 8794   2.541   9.479   8.963  1.9357 -1.1108  2.8117
  806MOL0     H 8795   2.288   9.508   8.970  0.9781  0.9166 -0.2819
  806MOL0     H 8796   1.846   9.511   9.170  4.0906  0.3966 -0.9993
  806MOL0     H 8797   1.624   9.581   9.158 -0.6572  0.8303  0.0661
  806MOL0     H 8798   1.534   9.986   9.019  2.6526 -0.3392 -0.1319
  806MOL0     H 8799   1.517  10.023   9.185 -0.1939  0.1357 -0.3592
  806MOL0     H 8800   1.322   9.839   9.026  1.5258 -0.5495  0.7487
  806MOL0     H 8801   1.298  10.013   9.011  0.8724  2.1527  0.9676
  806MOL0     H 8802   1.298   9.859   9.270 -0.9729 -0.8840  0.2823
  806MOL0     H 8803   1.156   9.899   9.187 -1.2700  3.8155  0.4103
  806MOL0     H 8804   1.245  10.052   9.396  2.8894  2.4151  0.0202
  806MOL0     H 8805   1.350  10.116   9.281  2.2794 -3.9750  2.7642
  806MOL0     H 8806   1.009  10.315   9.147 -1.2195 -1.1343  1.8545
  806MOL0     H 8807   1.759   9.990   9.098 -1.4691  0.1173  1.9751
  806MOL0     H 8808   2.090   9.928   9.189 -0.4615 -2.9129  1.8974
  806MOL0     H 8809   2.075   9.931   9.014  0.9128  1.4430  0.9888
  806MOL0     H 8810   1.982  10.047   9.111 -0.0977 -0.5211 -1.6479
  807MOL0     O 8811   1.645  11.371   7.049 -0.0569  0.0244 -0.1682
  807MOL0     C 8812   1.610  11.261   7.089 -0.0800  0.8732  0.0300
  807MOL0     O 8813   1.684  11.150   7.102 -0.0810  0.0951 -0.6279
  807MOL0     C 8814   1.818  11.160   7.117 -0.3945  0.4607  0.1273
  807MOL0     C 8815   1.904  11.127   7.016 -0.6625  0.0778  0.2091
  807MOL0     C 8816   2.045  11.129   7.043 -0.3035  0.5407  0.7630
  807MOL0     C 8817   2.099  11.166   7.165 -1.3995  0.3917  0.0479
  807MOL0     O 8818   2.232  11.160   7.190  0.5718  0.1195 -0.5899
  807MOL0     C 8819   2.276  11.032   7.241 -0.0750 -0.2561  0.2568
  807MOL0     C 8820   2.341  10.951   7.125  0.0481  0.0169 -0.6637
  807MOL0     C 8821   2.458  11.012   7.053 -0.1914 -0.4010  0.5613
  807MOL0     C 8822   2.536  10.917   6.951  0.2433 -0.1838 -0.0434
  807MOL0     C 8823   2.658  10.990   6.890  0.1027  0.0670  0.7085
  807MOL0     C 8824   2.705  10.927   6.759  0.2615  1.0285  0.2552
  807MOL0     C 8825   2.747  10.780   6.770  0.0919 -0.1626 -0.0502
  807MOL0     C 8826   2.824  10.742   6.638  0.0628 -0.3259 -0.1628
  807MOL0     N 8827   2.875  10.603   6.649  0.6191 -0.0326  0.2998
  807MOL0     C 8828   2.814  10.505   6.730  0.0500  0.1055 -0.6430
  807MOL0     C 8829   2.904  10.412   6.743  0.5388  0.1067 -0.6558
  807MOL0     C 8830   2.902  10.297   6.839 -0.5838 -0.8191  0.6995
  807MOL0     C 8831   2.818  10.305   6.967  0.0438  0.9977 -0.8097
  807MOL0     C 8832   2.867  10.410   7.071 -0.4185 -0.3771 -0.9646
  807MOL0     C 8833   2.983  10.362   7.160 -0.2931  0.5619  0.2147
  807MOL0     O 8834   3.039  10.462   7.243  0.5829 -0.1446 -0.3392
  807MOL0     C 8835   3.144  10.436   7.326 -0.0526  0.5081  0.3195
  807MOL0     C 8836   3.167  10.530   7.421  0.8315  0.6409  0.2516
  807MOL0     C 8837   3.288  10.531   7.493 -0.4785  0.1846 -0.4920
  807MOL0     C 8838   3.385  10.431   7.469  0.2455  0.2619 -0.2449
  807MOL0     C 8839   3.502  10.427   7.562 -0.1979 -0.8355  0.1733
  807MOL0     O 8840   3.514  10.518   7.665  0.3337  0.6172 -0.2203
  807MOL0     C 8841   3.617  10.513   7.754 -0.6087 -1.2959 -0.9779
  807MOL0     C 8842   3.747  10.546   7.710 -0.4527  0.1477 -0.2655
  807MOL0     C 8843   3.853  10.560   7.805 -0.2008  0.5521 -0.2305
  807MOL0     C 8844   3.830  10.550   7.941 -0.1237 -0.2146  0.0188
  807MOL0     O 8845   3.927  10.554   8.038 -0.2938 -0.7845  0.5577
  807MOL0     C 8846   4.030  10.649   8.025  0.4781 -0.0829 -0.2087
  807MOL0     C 8847   3.956  10.789   8.032  0.6763 -0.0763  0.2107
  807MOL0     C 8848   3.900  10.823   8.169  0.3508  0.3731 -0.3785
  807MOL0     C 8849   3.994  10.919   8.243 -0.6220  0.2261 -1.0097
  807MOL0     C 8850   3.949  10.921   8.397  0.1984  0.2263 -0.7300
  807MOL0     C 8851   4.058  10.992   8.482  0.5163 -0.4274  0.1530
  807MOL0     C 8852   4.061  11.145   8.453  0.2760 -0.0398 -0.4362
  807MOL0     C 8853   3.931  11.227   8.440  0.4058  0.3054 -1.1739
  807MOL0    Cl 8854   3.957  11.401   8.452 -0.3677 -0.1105  0.3604
  807MOL0     C 8855   3.700  10.507   7.979  0.0747  0.2204 -0.0735
  807MOL0     C 8856   3.592  10.500   7.894  0.4817 -0.0029 -0.6747
  807MOL0     O 8857   3.589  10.342   7.536 -0.0596 -0.0228 -0.5220
  807MOL0     C 8858   3.365  10.334   7.368  0.2734  0.4318 -0.0945
  807MOL0     C 8859   3.243  10.335   7.299 -0.2101  0.1926 -1.0170
  807MOL0     N 8860   3.010  10.442   6.664  0.1984  0.3735 -0.4929
  807MOL0     N 8861   2.988  10.548   6.605 -0.8317  0.2548  0.3828
  807MOL0     C 8862   2.010  11.191   7.264  0.3272 -0.0290  0.4464
  807MOL0     C 8863   1.873  11.194   7.239 -1.1347  0.7418 -0.6368
  807MOL0     C 8864   1.461  11.241   7.097 -0.9465 -0.0279  0.2238
  807MOL0     C 8865   1.409  11.124   7.155 -0.8047  0.1068 -0.1964
  807MOL0     C 8866   1.272  11.098   7.176 -0.2385  0.1524  0.6173
  807MOL0     C 8867   1.173  11.195   7.138 -0.9772 -0.2952  0.3038
  807MOL0     O 8868   1.045  11.168   7.167  0.6441 -0.2583 -0.4545
  807MOL0     C 8869   0.937  11.269   7.166  1.1210 -0.8768 -0.5543
  807MOL0     C 8870   0.931  11.374   7.286  0.6602  0.5201  0.4114
  807MOL0     C 8871   0.971  11.306   7.417 -0.4153  0.1259  0.4642
  807MOL0     C 8872   0.989  11.399   7.537 -0.3352 -0.6009 -0.3713
  807MOL0     C 8873   0.870  11.477   7.561  0.3840 -0.1623 -1.1563
  807MOL0     C 8874   0.791  11.564   7.578  0.6800  0.7707 -0.2748
  807MOL0     C 8875   1.217  11.308   7.068 -0.6466  0.6032  0.4038
  807MOL0     C 8876   1.357  11.329   7.047  0.0398 -0.5782 -0.1813
  807MOL0     C 8877   1.393  11.457   6.981  0.5500  0.5938  0.7198
  807MOL0     H 8878   1.875  11.100   6.915  0.6823  2.5206 -0.9242
  807MOL0     H 8879   2.112  11.100   6.962  0.9368 -1.3119  2.3509
  807MOL0     H 8880   2.355  11.040   7.317  1.2309 -0.6283 -1.0191
  807MOL0     H 8881   2.191  10.976   7.281 -0.5238  1.4347  1.8317
  807MOL0     H 8882   2.265  10.939   7.047 -1.3053 -2.2083  0.9163
  807MOL0     H 8883   2.351  10.851   7.166 -3.5437  1.2553  3.9991
  807MOL0     H 8884   2.522  11.050   7.133 -1.3790  1.3048  0.7524
  807MOL0     H 8885   2.422  11.096   6.992 -1.7247  0.8424  3.0123
  807MOL0     H 8886   2.550  10.813   6.982  0.2037 -0.1442  0.1096
  807MOL0     H 8887   2.464  10.903   6.871  1.1875 -0.0594 -0.9421
  807MOL0     H 8888   2.642  11.095   6.866 -1.5169  0.1141  1.8357
  807MOL0     H 8889   2.744  10.983   6.958  2.2771  3.0727 -1.4935
  807MOL0     H 8890   2.624  10.938   6.686 -0.0273  1.2699  0.6135
  807MOL0     H 8891   2.791  10.984   6.724  4.4378 -4.1667  0.7101
  807MOL0     H 8892   2.659  10.716   6.782  0.2887 -0.3046  0.6508
  807MOL0     H 8893   2.817  10.762   6.852 -1.0279  0.2270  1.0145
  807MOL0     H 8894   2.761  10.753   6.550 -0.3741 -3.7989 -0.4350
  807MOL0     H 8895   2.909  10.810   6.631  0.9247 -1.0232  2.3521
  807MOL0     H 8896   2.718  10.502   6.780 -1.6868 -0.5977 -3.7622
  807MOL0     H 8897   2.851  10.216   6.785 -1.2447  0.4015 -0.5911
  807MOL0     H 8898   3.005  10.281   6.872  0.0321  2.9645  0.9824
  807MOL0     H 8899   2.715  10.326   6.940  0.5101  4.7626 -0.3072
  807MOL0     H 8900   2.845  10.207   7.007  1.0263  0.8542 -1.7587
  807MOL0     H 8901   2.791  10.437   7.145 -0.0708 -1.5491 -0.1621
  807MOL0     H 8902   2.892  10.496   7.008  0.4614 -1.8268 -2.6855
  807MOL0     H 8903   3.059  10.332   7.087 -0.5758 -1.1579  0.5785
  807MOL0     H 8904   2.956  10.288   7.236  1.6798 -1.4542 -0.9074
  807MOL0     H 8905   3.099  10.614   7.432  2.4827  2.1965 -0.9346
  807MOL0     H 8906   3.312  10.613   7.560  0.1987  0.2645 -0.8193
  807MOL0     H 8907   3.769  10.578   7.609  2.4050  1.7781  0.7517
  807MOL0     H 8908   3.942  10.598   7.757 -0.5817  0.0446 -1.3880
  807MOL0     H 8909   4.092  10.651   8.116 -3.7481  0.2399  2.9494
  807MOL0     H 8910   4.097  10.636   7.940  1.0690  1.7594 -0.0608
  807MOL0     H 8911   4.034  10.861   8.006  1.0076 -0.1542  0.9595
  807MOL0     H 8912   3.876  10.811   7.961  1.0898 -1.2001 -0.6136
  807MOL0     H 8913   3.802  10.872   8.173 -0.2052 -0.7711  0.6434
  807MOL0     H 8914   3.896  10.734   8.232 -1.1102  1.2813  0.8829
  807MOL0     H 8915   3.985  11.020   8.201 -2.2962  1.7813  2.5863
  807MOL0     H 8916   4.096  10.880   8.231 -0.8105 -0.8875  0.6303
  807MOL0     H 8917   3.935  10.818   8.430 -2.5736  0.8853  0.3990
  807MOL0     H 8918   3.851  10.968   8.404 -0.9858 -2.3277  1.4586
  807MOL0     H 8919   4.025  10.977   8.585  0.6343 -2.8086 -0.0926
  807MOL0     H 8920   4.151  10.941   8.454 -0.9180 -3.1455 -0.0380
  807MOL0     H 8921   4.124  11.156   8.364  0.8984 -1.8891 -0.2706
  807MOL0     H 8922   4.121  11.189   8.534  3.9183 -3.3519 -1.0096
  807MOL0     H 8923   3.896  11.192   8.343 -0.8195  0.1823 -0.7013
  807MOL0     H 8924   3.859  11.199   8.517  1.4196  1.5783  0.3175
  807MOL0     H 8925   3.672  10.503   8.084  1.5684  0.0820  0.3454
  807MOL0     H 8926   3.489  10.479   7.922 -0.5190  4.0109 -0.8314
  807MOL0     H 8927   3.443  10.259   7.367  1.9131  2.0085  1.0915
  807MOL0     H 8928   3.219  10.253   7.231 -0.9217 -0.2069 -0.3045
  807MOL0     H 8929   2.045  11.213   7.364 -1.2877 -1.9858  1.5201
  807MOL0     H 8930   1.804  11.212   7.321 -0.9100 -1.9356  0.2391
  807MOL0     H 8931   1.474  11.044   7.190  0.7851  2.0760  1.5800
  807MOL0     H 8932   1.257  11.001   7.221 -1.2373  1.2778  2.8944
  807MOL0     H 8933   0.844  11.211   7.167  0.6195 -0.0967 -1.2863
  807MOL0     H 8934   0.938  11.321   7.070 -1.1292  1.2722  0.4706
  807MOL0     H 8935   0.828  11.408   7.293  0.6350  0.0680  4.3011
  807MOL0     H 8936   1.000  11.457   7.267  2.3659 -0.5419  1.6444
  807MOL0     H 8937   1.069  11.265   7.391 -0.7996 -0.2434 -0.4519
  807MOL0     H 8938   0.899  11.225   7.430 -1.8056  1.4631  1.4536
  807MOL0     H 8939   1.011  11.344   7.629  0.7722  2.9770  1.7015
  807MOL0     H 8940   1.071  11.471   7.525 -0.9461  0.0361 -0.8105
  807MOL0     H 8941   0.721  11.645   7.588  0.7795  0.8515 -0.2329
  807MOL0     H 8942   1.141  11.384   7.054 -0.1093  1.2871  1.1428
  807MOL0     H 8943   1.304  11.516   6.958  0.1431 -1.1438 -2.8505
  807MOL0     H 8944   1.459  11.521   7.041  1.4915  0.5953 -0.2806
  807MOL0     H 8945   1.432  11.441   6.880  0.7838  1.9566  0.5688
  808MOL0     O 8946   7.456  10.766   7.800 -0.5623  0.6457 -0.0473
  808MOL0     C 8947   7.451  10.686   7.709  0.6042 -1.3369  0.2555
  808MOL0     O 8948   7.552  10.647   7.629  0.4652 -0.4570 -0.2889
  808MOL0     C 8949   7.676  10.699   7.663  0.4611  0.3222  0.5482
  808MOL0     C 8950   7.701  10.832   7.622 -0.4561 -0.9580  0.0943
  808MOL0     C 8951   7.829  10.888   7.641  0.2419  0.2107  0.4488
  808MOL0     C 8952   7.932  10.820   7.709 -0.3618  0.2591 -0.2517
  808MOL0     O 8953   8.063  10.856   7.722 -0.2411 -0.0621 -0.2462
  808MOL0     C 8954   8.097  10.983   7.770 -0.3477  0.2349  0.4509
  808MOL0     C 8955   8.210  11.048   7.686  0.1235  0.0161 -1.2889
  808MOL0     C 8956   8.274  11.153   7.757  0.5733  0.1428  0.3108
  808MOL0     C 8957   8.379  11.223   7.676 -0.0832 -0.0192  0.9413
  808MOL0     C 8958   8.339  11.294   7.545  0.7293  0.4734  0.2059
  808MOL0     C 8959   8.453  11.383   7.493 -0.5514 -0.0715  1.0324
  808MOL0     C 8960   8.469  11.505   7.579 -0.4932 -0.8267  0.4245
  808MOL0     C 8961   8.583  11.586   7.518 -0.4156  0.1369 -0.3974
  808MOL0     N 8962   8.549  11.727   7.564  0.1508  0.1525 -0.6152
  808MOL0     C 8963   8.457  11.812   7.519  0.2034  0.0110 -0.3492
  808MOL0     C 8964   8.464  11.929   7.591  0.6906 -0.1416 -0.2185
  808MOL0     C 8965   8.361  12.036   7.588  0.1854  0.0383 -0.9582
  808MOL0     C 8966   8.246  12.010   7.690 -0.2490 -0.2586  0.6125
  808MOL0     C 8967   8.135  12.109   7.706 -0.0720 -0.5875  0.8382
  808MOL0     C 8968   8.030  12.076   7.821  0.4065  0.4193  0.1410
  808MOL0     O 8969   7.918  12.158   7.793 -0.2688  0.6003 -0.4282
  808MOL0     C 8970   7.794  12.095   7.777 -0.0902  0.7890  0.7441
  808MOL0     C 8971   7.752  11.990   7.860 -0.0866 -0.2221  0.2400
  808MOL0     C 8972   7.639  11.923   7.826  0.0578 -0.0116  0.0569
  808MOL0     C 8973   7.555  11.969   7.716  0.5870 -0.8393  0.3196
  808MOL0     C 8974   7.440  11.894   7.670  0.4064 -0.1123  0.7030
  808MOL0     O 8975   7.361  11.951   7.574 -0.6466 -0.3976  0.5967
  808MOL0     C 8976   7.252  11.891   7.521  0.1137  1.2590 -0.8792
  808MOL0     C 8977   7.233  11.756   7.495 -0.1797  0.4443 -0.0362
  808MOL0     C 8978   7.108  11.716   7.453 -0.3543  0.8050  0.4137
  808MOL0     C 8979   7.000  11.802   7.425 -0.0165 -0.1276  0.4744
  808MOL0     O 8980   6.877  11.754   7.380  0.5251 -0.7732  0.8797
  808MOL0     C 8981   6.771  11.852   7.354  0.6905  0.2543  0.5052
  808MOL0     C 8982   6.670  11.782   7.263 -0.0240  0.5691  0.0608
  808MOL0     C 8983   6.569  11.889   7.205 -1.0503 -0.5405 -0.4011
  808MOL0     C 8984   6.476  11.817   7.103  0.4521 -0.3713  0.0586
  808MOL0     C 8985   6.365  11.914   7.054 -0.3006 -0.4276  0.1329
  808MOL0     C 8986   6.413  12.011   6.951  0.4292  0.1959  0.0249
  808MOL0     C 8987   6.328  12.134   6.953 -0.3257  0.0479 -0.5313
  808MOL0     C 8988   6.381  12.242   6.863  0.8042  0.4675 -0.1729
  808MOL0    Cl 8989   6.540  12.304   6.931 -0.2375 -0.6221  0.1472
  808MOL0     C 8990   7.027  11.938   7.456  0.1908 -0.0289  0.0823
  808MOL0     C 8991   7.147  11.983   7.507  0.2008  0.0180  0.5120
  808MOL0     O 8992   7.430  11.782   7.714  0.0853 -0.3617  0.1882
  808MOL0     C 8993   7.591  12.090   7.651  0.0311 -0.2138  0.2678
  808MOL0     C 8994   7.713  12.147   7.679  0.0277  0.3657 -0.5015
  808MOL0     N 8995   8.578  11.919   7.671  0.8886  0.2309 -0.5641
  808MOL0     N 8996   8.620  11.793   7.651  0.3542  0.2156  0.3428
  808MOL0     C 8997   7.899  10.692   7.768 -0.2141  0.3690  1.0528
  808MOL0     C 8998   7.777  10.624   7.730 -0.2120 -0.6544 -0.0851
  808MOL0     C 8999   7.319  10.630   7.685 -0.0812  1.5495 -1.0919
  808MOL0     C 9000   7.218  10.683   7.762  1.0101  0.9093  1.0834
  808MOL0     C 9001   7.080  10.650   7.736  0.3062  0.5812  0.3248
  808MOL0     C 9002   7.047  10.540   7.645  0.2499  0.3332  0.8080
  808MOL0     O 9003   6.916  10.492   7.636 -0.2063 -0.2924 -0.0690
  808MOL0     C 9004   6.898  10.348   7.646  0.2945 -0.4974  0.0288
  808MOL0     C 9005   6.890  10.305   7.793  0.3568  0.5922  1.0543
  808MOL0     C 9006   6.779  10.350   7.878 -0.0134 -0.0874 -0.3427
  808MOL0     C 9007   6.652  10.372   7.803  0.8672 -0.2397 -0.4092
  808MOL0     C 9008   6.537  10.373   7.898 -0.0353  0.3771 -0.0327
  808MOL0     C 9009   6.434  10.369   7.967 -0.7023  0.9480  0.1603
  808MOL0     C 9010   7.152  10.485   7.580 -0.2833 -0.4488  0.9898
  808MOL0     C 9011   7.287  10.526   7.594  0.3585 -0.2828 -0.2958
  808MOL0     C 9012   7.389  10.469   7.502  0.3310 -0.0567 -0.2725
  808MOL0     H 9013   7.636  10.891   7.558  1.5986 -0.2914 -1.4939
  808MOL0     H 9014   7.856  10.988   7.609  0.9337  0.4630  1.7415
  808MOL0     H 9015   8.013  11.054   7.771  1.0645  2.0317  2.6655
  808MOL0     H 9016   8.130  10.970   7.874  0.8593  1.3063  0.2185
  808MOL0     H 9017   8.152  11.090   7.604 -2.5453 -1.0027 -0.0394
  808MOL0     H 9018   8.281  10.969   7.659 -0.7484 -1.5010  0.5856
  808MOL0     H 9019   8.330  11.105   7.838  0.0054  1.1063  1.2971
  808MOL0     H 9020   8.202  11.220   7.804  0.6359  0.7576 -0.4601
  808MOL0     H 9021   8.420  11.305   7.737 -0.9607  1.8948 -0.9233
  808MOL0     H 9022   8.465  11.158   7.658  0.0157  0.8584 -2.3913
  808MOL0     H 9023   8.307  11.224   7.468  0.8517 -1.3364  1.7219
  808MOL0     H 9024   8.253  11.356   7.573  1.2611  0.9611  0.7930
  808MOL0     H 9025   8.544  11.322   7.491 -1.7126 -1.8752 -0.5625
  808MOL0     H 9026   8.435  11.419   7.391  3.5067 -2.7774 -0.9398
  808MOL0     H 9027   8.487  11.476   7.683 -0.4874 -2.1706  0.0746
  808MOL0     H 9028   8.381  11.570   7.572  0.2816  0.0715 -3.2922
  808MOL0     H 9029   8.682  11.570   7.561  0.2748  1.7678 -1.2950
  808MOL0     H 9030   8.590  11.577   7.409  0.8358  0.8143 -0.3887
  808MOL0     H 9031   8.376  11.784   7.452 -0.2769 -2.5901  1.1842
  808MOL0     H 9032   8.425  12.117   7.623 -0.2213 -1.1011  2.9201
  808MOL0     H 9033   8.315  12.065   7.493  1.2453  2.1368 -0.8884
  808MOL0     H 9034   8.212  11.907   7.674  1.7956 -1.2968  2.3572
  808MOL0     H 9035   8.287  11.998   7.791 -1.2887 -0.0370  1.0837
  808MOL0     H 9036   8.080  12.116   7.612  0.3257 -1.3240  0.5499
  808MOL0     H 9037   8.176  12.209   7.727 -1.8448  0.2018  0.7790
  808MOL0     H 9038   8.077  12.087   7.920 -1.2694 -1.4891  1.2291
  808MOL0     H 9039   8.001  11.970   7.822  0.4939  0.3704 -1.0505
  808MOL0     H 9040   7.809  11.952   7.944 -2.4303 -0.8483  1.6433
  808MOL0     H 9041   7.599  11.841   7.885  0.5789  0.1064  0.5849
  808MOL0     H 9042   7.303  11.676   7.518  0.9777  1.6467  0.7427
  808MOL0     H 9043   7.096  11.610   7.436 -0.1465  0.8800 -0.2340
  808MOL0     H 9044   6.714  11.874   7.445 -0.8442 -0.9205 -0.1142
  808MOL0     H 9045   6.803  11.944   7.304 -0.5430 -0.7702 -2.4042
  808MOL0     H 9046   6.718  11.740   7.175 -0.6022  0.3220 -0.1427
  808MOL0     H 9047   6.609  11.704   7.308  1.1499 -1.0921 -1.1291
  808MOL0     H 9048   6.508  11.932   7.284  0.4521  1.7526 -0.4029
  808MOL0     H 9049   6.628  11.969   7.159 -1.9286  0.9541  0.9932
  808MOL0     H 9050   6.423  11.734   7.151 -0.4738 -1.3845 -2.5350
  808MOL0     H 9051   6.535  11.785   7.017  0.9641  1.0253 -0.1364
  808MOL0     H 9052   6.320  11.968   7.138  0.4587 -2.0897  1.6665
  808MOL0     H 9053   6.286  11.852   7.010  1.0650 -2.2132  0.0994
  808MOL0     H 9054   6.517  12.044   6.960  0.4242 -0.4017  3.8821
  808MOL0     H 9055   6.377  11.963   6.859 -1.1039 -1.4111  1.3986
  808MOL0     H 9056   6.336  12.172   7.055 -1.2386 -0.1815 -0.3657
  808MOL0     H 9057   6.220  12.116   6.943 -1.2247  3.2285  1.7502
  808MOL0     H 9058   6.403  12.203   6.763 -1.8079  0.2137 -0.7266
  808MOL0     H 9059   6.309  12.324   6.858 -2.2488 -2.0341 -0.2579
  808MOL0     H 9060   6.956  12.018   7.439  0.0951 -0.2941 -0.8457
  808MOL0     H 9061   7.166  12.088   7.525 -1.4870  0.9901 -2.6622
  808MOL0     H 9062   7.520  12.143   7.588 -0.1358 -0.3285  0.3588
  808MOL0     H 9063   7.756  12.234   7.629 -0.7394  0.6987 -0.5925
  808MOL0     H 9064   7.977  10.652   7.832  0.7387  1.3967  0.5576
  808MOL0     H 9065   7.765  10.520   7.759  2.9347 -1.7381 -2.1260
  808MOL0     H 9066   7.218  10.752   7.845 -4.0753  0.9286  1.4045
  808MOL0     H 9067   7.002  10.695   7.796 -1.2263 -0.6542 -0.6720
  808MOL0     H 9068   6.971  10.286   7.593  0.2019  0.2716 -1.0286
  808MOL0     H 9069   6.808  10.328   7.587  0.2989  0.1699 -0.2163
  808MOL0     H 9070   6.982  10.320   7.850  1.5987  1.0503 -0.9567
  808MOL0     H 9071   6.894  10.195   7.789  0.1728  0.5449  2.0062
  808MOL0     H 9072   6.814  10.444   7.921 -2.0272  1.2858 -1.5500
  808MOL0     H 9073   6.755  10.283   7.961 -1.3907  0.5191 -0.2222
  808MOL0     H 9074   6.652  10.460   7.738 -1.1154 -0.4834 -0.8121
  808MOL0     H 9075   6.632  10.284   7.740  0.3934  0.2167 -0.9105
  808MOL0     H 9076   6.345  10.368   8.027 -1.2081  2.1224 -0.5250
  808MOL0     H 9077   7.124  10.410   7.506  0.7489 -1.0120  1.1457
  808MOL0     H 9078   7.336  10.394   7.442  1.3714 -3.0232  2.2461
  808MOL0     H 9079   7.420  10.542   7.426  0.6199 -0.2364 -0.3292
  808MOL0     H 9080   7.476  10.431   7.555 -1.1881  0.2417  2.6233
  809MOL0     O 9081   0.892   2.578   4.710  0.8284 -0.6256  0.0534
  809MOL0     C 9082   0.828   2.666   4.771 -0.1428  0.6755  0.5081
  809MOL0     O 9083   0.862   2.725   4.886 -0.3168  0.5733 -0.0683
  809MOL0     C 9084   0.979   2.675   4.949  0.2410 -0.6726  0.1775
  809MOL0     C 9085   1.091   2.759   4.947 -0.6897 -0.7191 -0.5875
  809MOL0     C 9086   1.219   2.713   4.986  0.1991 -0.2982 -0.7076
  809MOL0     C 9087   1.227   2.578   5.028 -0.5183  0.5282  0.1382
  809MOL0     O 9088   1.352   2.517   5.053 -0.9193  0.0079 -0.2543
  809MOL0     C 9089   1.474   2.589   5.050 -0.2404  0.7239 -0.1886
  809MOL0     C 9090   1.585   2.488   5.094 -0.5949 -0.8314 -0.2386
  809MOL0     C 9091   1.724   2.556   5.115 -0.0759  0.2448 -0.7856
  809MOL0     C 9092   1.817   2.443   5.148  0.2900 -0.1916 -0.1721
  809MOL0     C 9093   1.965   2.483   5.126  0.8327  1.4318 -0.0730
  809MOL0     C 9094   2.052   2.359   5.169 -0.1200 -0.9461  0.6496
  809MOL0     C 9095   2.209   2.378   5.165  0.1688 -0.4111 -0.0804
  809MOL0     C 9096   2.286   2.252   5.207  1.2729  0.4177 -0.1285
  809MOL0     N 9097   2.432   2.257   5.188 -0.3706  0.3532 -0.0373
  809MOL0     C 9098   2.504   2.188   5.284  0.2377 -0.1202 -0.5094
  809MOL0     C 9099   2.629   2.195   5.227  0.4047  0.3190 -0.8495
  809MOL0     C 9100   2.756   2.144   5.296  0.7430 -0.0678  1.4258
  809MOL0     C 9101   2.821   2.248   5.385  2.0388 -0.2851 -0.3323
  809MOL0     C 9102   2.756   2.260   5.521 -0.3212  0.0202  0.0047
  809MOL0     C 9103   2.832   2.357   5.619  0.0925  0.4760  0.3050
  809MOL0     O 9104   2.949   2.284   5.662 -0.2851 -0.7480  0.8725
  809MOL0     C 9105   3.079   2.303   5.620 -0.8320 -1.0333  0.3189
  809MOL0     C 9106   3.175   2.236   5.696  0.3924 -0.2296  0.9690
  809MOL0     C 9107   3.307   2.246   5.660 -0.2017  0.4095 -0.5836
  809MOL0     C 9108   3.359   2.330   5.559 -0.9876  0.4545  0.0764
  809MOL0     C 9109   3.504   2.351   5.540  0.4025 -0.0727  0.1646
  809MOL0     O 9110   3.582   2.267   5.608  0.3740 -0.0642  0.1871
  809MOL0     C 9111   3.713   2.268   5.576 -0.2144 -0.2948  0.4892
  809MOL0     C 9112   3.758   2.205   5.455 -0.1180  0.4322  0.0425
  809MOL0     C 9113   3.895   2.189   5.431  0.0615 -0.6935 -0.1938
  809MOL0     C 9114   3.993   2.255   5.505 -0.1440  0.0141  0.0075
  809MOL0     O 9115   4.115   2.257   5.449 -0.4373 -0.2519  0.1868
  809MOL0     C 9116   4.186   2.383   5.436 -0.0019 -0.8398 -0.4614
  809MOL0     C 9117   4.309   2.383   5.349  0.3170  0.0649  0.3665
  809MOL0     C 9118   4.425   2.290   5.384 -0.4714  0.4292 -1.0333
  809MOL0     C 9119   4.442   2.259   5.533 -0.2434  1.6064  0.7055
  809MOL0     C 9120   4.566   2.175   5.564 -0.2917  0.0834  0.0567
  809MOL0     C 9121   4.561   2.027   5.508  0.6437 -0.3351  0.1483
  809MOL0     C 9122   4.693   1.961   5.520 -0.6318  0.1480 -0.0482
  809MOL0     C 9123   4.750   1.985   5.653  0.0968  0.7059 -0.0990
  809MOL0    Cl 9124   4.889   1.873   5.699  0.0175  0.3361 -0.0860
  809MOL0     C 9125   3.947   2.328   5.614 -1.0128  0.1242  0.0390
  809MOL0     C 9126   3.810   2.334   5.655 -0.0967  0.1417  0.6868
  809MOL0     O 9127   3.538   2.442   5.460 -0.1707  1.0129  0.8439
  809MOL0     C 9128   3.257   2.383   5.476  0.6320  0.2949 -1.1280
  809MOL0     C 9129   3.119   2.368   5.500  0.9949 -0.6960 -0.7769
  809MOL0     N 9130   2.619   2.237   5.098 -0.1100  0.0210  0.1000
  809MOL0     N 9131   2.500   2.272   5.075  0.4078 -0.0501  0.3219
  809MOL0     C 9132   1.114   2.492   5.030 -0.7859 -0.4677  0.1125
  809MOL0     C 9133   0.995   2.541   4.989 -0.4522 -0.3749 -1.0472
  809MOL0     C 9134   0.690   2.696   4.720 -0.1427 -0.1622  1.2240
  809MOL0     C 9135   0.620   2.792   4.800  0.2791 -0.2933 -0.5151
  809MOL0     C 9136   0.483   2.812   4.767 -0.1994  0.5588 -0.2883
  809MOL0     C 9137   0.423   2.742   4.661 -0.4248 -0.8342  0.3660
  809MOL0     O 9138   0.295   2.784   4.629 -0.3925  0.8007 -0.2591
  809MOL0     C 9139   0.205   2.675   4.623 -0.4207  0.5253 -0.4594
  809MOL0     C 9140   0.148   2.633   4.760  0.2641 -0.0774  0.1533
  809MOL0     C 9141   0.050   2.738   4.792  0.6319  0.6219  0.5748
  809MOL0     C 9142  -0.038   2.709   4.914  0.8959 -1.2208  0.7200
  809MOL0     C 9143   0.044   2.701   5.037  0.4203  0.4189  0.0752
  809MOL0     C 9144   0.116   2.697   5.139  0.5718 -0.5423  0.5508
  809MOL0     C 9145   0.500   2.667   4.572  0.1492  0.0804 -0.3001
  809MOL0     C 9146   0.634   2.641   4.600 -0.1528 -0.5740  0.0926
  809MOL0     C 9147   0.704   2.548   4.505 -0.8068  0.1506  0.6964
  809MOL0     H 9148   1.073   2.854   4.897  1.1542 -1.1694 -2.2641
  809MOL0     H 9149   1.310   2.770   4.968 -0.1147 -0.3237 -2.6709
  809MOL0     H 9150   1.485   2.631   4.950 -1.8203 -0.1433 -0.7499
  809MOL0     H 9151   1.472   2.677   5.115 -3.5487  1.8292 -1.5694
  809MOL0     H 9152   1.584   2.409   5.018 -0.1275 -0.8846 -0.1903
  809MOL0     H 9153   1.557   2.448   5.192  0.9449 -2.9369 -0.6072
  809MOL0     H 9154   1.726   2.633   5.193  1.4666  0.8202 -1.3320
  809MOL0     H 9155   1.757   2.599   5.020 -1.8801  0.5084 -1.3222
  809MOL0     H 9156   1.808   2.436   5.256  1.2518  4.1086  0.3988
  809MOL0     H 9157   1.790   2.346   5.105 -0.9042  0.2888 -0.5422
  809MOL0     H 9158   1.975   2.508   5.020 -0.6250  3.2530  0.1617
  809MOL0     H 9159   1.996   2.570   5.186  2.0078  1.2605 -0.4104
  809MOL0     H 9160   2.030   2.338   5.274  1.9983 -2.0704  0.9120
  809MOL0     H 9161   2.034   2.271   5.107  1.7541 -0.1583 -1.1505
  809MOL0     H 9162   2.235   2.462   5.230  0.5037  1.0503 -1.9934
  809MOL0     H 9163   2.244   2.413   5.067  1.5465 -2.1357 -0.2608
  809MOL0     H 9164   2.254   2.238   5.311  1.7493  0.7501  0.0671
  809MOL0     H 9165   2.235   2.169   5.158 -1.0720 -0.5266  3.4620
  809MOL0     H 9166   2.474   2.140   5.376 -0.5546  3.2868  1.1365
  809MOL0     H 9167   2.748   2.043   5.339 -2.2943 -1.1390 -1.1840
  809MOL0     H 9168   2.835   2.144   5.220  1.0561 -2.1334  1.6850
  809MOL0     H 9169   2.924   2.214   5.395  1.2450 -2.7654  0.1531
  809MOL0     H 9170   2.815   2.347   5.339 -1.5990 -0.2792 -0.1822
  809MOL0     H 9171   2.753   2.159   5.565 -1.0837 -0.6868 -1.5880
  809MOL0     H 9172   2.653   2.293   5.507 -0.0837  2.5319  3.1388
  809MOL0     H 9173   2.764   2.386   5.699 -1.2800 -0.5635 -0.4205
  809MOL0     H 9174   2.860   2.448   5.565 -0.5483  0.1412 -0.6334
  809MOL0     H 9175   3.152   2.179   5.785  0.4420 -2.3010 -0.2815
  809MOL0     H 9176   3.373   2.190   5.725 -1.1550 -1.1510 -0.9099
  809MOL0     H 9177   3.679   2.154   5.400 -1.1809  2.0777 -0.0233
  809MOL0     H 9178   3.920   2.119   5.351 -1.3188 -2.0621  0.5329
  809MOL0     H 9179   4.120   2.459   5.393 -0.0340 -0.2616  0.5722
  809MOL0     H 9180   4.206   2.412   5.540  0.0166  0.9776 -0.9300
  809MOL0     H 9181   4.284   2.366   5.244  0.6707 -0.0824  0.3026
  809MOL0     H 9182   4.355   2.482   5.353 -0.7584  0.5717  0.4250
  809MOL0     H 9183   4.404   2.197   5.329 -2.5763  0.3957 -0.2365
  809MOL0     H 9184   4.524   2.326   5.355 -0.3881 -0.9887 -2.7329
  809MOL0     H 9185   4.356   2.197   5.561  0.3124  0.4805  0.0216
  809MOL0     H 9186   4.455   2.354   5.585  2.1684  2.3299 -1.0116
  809MOL0     H 9187   4.575   2.178   5.673 -0.9163  1.1023  0.0950
  809MOL0     H 9188   4.654   2.228   5.525 -1.7988  2.3230 -0.5105
  809MOL0     H 9189   4.480   1.977   5.563  1.6450 -1.3929  0.7056
  809MOL0     H 9190   4.537   2.042   5.402 -1.9368 -0.0792  0.6943
  809MOL0     H 9191   4.761   1.990   5.440 -1.0401  0.3358 -0.3296
  809MOL0     H 9192   4.678   1.853   5.515 -1.0192  0.1819  0.3393
  809MOL0     H 9193   4.784   2.089   5.658  1.2299  0.3541 -0.1614
  809MOL0     H 9194   4.670   1.966   5.725  0.1210 -0.8871 -0.4490
  809MOL0     H 9195   4.015   2.388   5.673  0.4180 -1.1349 -0.2769
  809MOL0     H 9196   3.773   2.380   5.746  1.9676  1.7501  0.7933
  809MOL0     H 9197   3.290   2.447   5.395 -0.6517 -1.4935 -3.1785
  809MOL0     H 9198   3.050   2.422   5.436  0.5654 -1.0341 -0.6019
  809MOL0     H 9199   1.119   2.387   5.056 -0.9714 -0.2721  0.9550
  809MOL0     H 9200   0.917   2.467   4.973 -0.9589  0.0324 -0.4832
  809MOL0     H 9201   0.662   2.853   4.880 -1.5758 -0.3625  0.5953
  809MOL0     H 9202   0.415   2.867   4.831 -0.3031  0.3028 -0.1746
  809MOL0     H 9203   0.247   2.586   4.574 -0.3364  0.9626 -1.1871
  809MOL0     H 9204   0.122   2.700   4.557  1.0200  3.2203 -1.4028
  809MOL0     H 9205   0.233   2.640   4.829  1.0442  0.8520 -0.8568
  809MOL0     H 9206   0.106   2.532   4.763  0.0666 -0.0067 -0.1938
  809MOL0     H 9207  -0.022   2.751   4.711  0.1291 -1.4996  0.6269
  809MOL0     H 9208   0.108   2.829   4.810  2.7261 -0.0096 -2.2463
  809MOL0     H 9209  -0.102   2.795   4.939  0.2518 -2.4578  3.8824
  809MOL0     H 9210  -0.100   2.621   4.896 -2.1132  1.0176 -0.7138
  809MOL0     H 9211   0.172   2.701   5.230  1.5272  0.3158 -0.0591
  809MOL0     H 9212   0.443   2.633   4.486  1.9098 -2.5444 -0.5421
  809MOL0     H 9213   0.734   2.456   4.557  0.8595 -0.4058 -1.0905
  809MOL0     H 9214   0.629   2.510   4.435 -0.4698 -3.8793  2.2660
  809MOL0     H 9215   0.796   2.598   4.474  0.5117  0.0966  4.1560
  810MOL0     O 9216   3.386   0.859   8.411  0.2683 -0.2313 -0.6804
  810MOL0     C 9217   3.416   0.905   8.300  0.5236  0.5329  0.7104
  810MOL0     O 9218   3.507   0.853   8.215  0.8772 -0.4484 -0.9323
  810MOL0     C 9219   3.581   0.738   8.240  0.1792 -0.8480 -0.2689
  810MOL0     C 9220   3.590   0.644   8.353  0.1177 -0.4216  0.1721
  810MOL0     C 9221   3.654   0.524   8.337 -0.8242 -0.1221 -0.7357
  810MOL0     C 9222   3.714   0.492   8.218  0.5747  0.3733 -0.4651
  810MOL0     O 9223   3.783   0.373   8.210 -0.2305  0.1081  1.0637
  810MOL0     C 9224   3.711   0.253   8.219 -0.3417  0.3496  0.1933
  810MOL0     C 9225   3.784   0.167   8.119  0.0108  0.8601  0.0507
  810MOL0     C 9226   3.757   0.199   7.975  0.1531 -0.8560  0.1347
  810MOL0     C 9227   3.795   0.083   7.887  0.3899 -0.1230  0.5143
  810MOL0     C 9228   3.745   0.105   7.737 -0.6888  0.9624  0.0876
  810MOL0     C 9229   3.816   0.017   7.637  0.5577 -1.3107 -0.2481
  810MOL0     C 9230   3.768   0.067   7.502 -0.1817  0.1841 -0.5061
  810MOL0     C 9231   3.785  -0.046   7.405  0.3839  0.8244 -0.1376
  810MOL0     N 9232   3.927  -0.049   7.350 -0.0776 -1.1983  0.0793
  810MOL0     C 9233   4.006   0.062   7.310 -0.5122  0.4667  0.3824
  810MOL0     C 9234   4.125   0.002   7.284 -0.0430 -0.0995 -0.3137
  810MOL0     C 9235   4.251   0.062   7.218 -0.1596  0.6189 -0.1267
  810MOL0     C 9236   4.340   0.104   7.335  0.4203  0.3566  0.6415
  810MOL0     C 9237   4.458   0.175   7.269 -0.3984  0.3821 -0.3069
  810MOL0     C 9238   4.583   0.084   7.230  0.6160  1.1163 -0.6535
  810MOL0     O 9239   4.691   0.181   7.197  0.2483 -0.5083  0.2129
  810MOL0     C 9240   4.792   0.143   7.105  0.2483  0.3832  0.1726
  810MOL0     C 9241   4.802   0.009   7.053 -0.3368 -0.5816  1.5603
  810MOL0     C 9242   4.898  -0.027   6.966  0.0692 -0.2684 -0.9891
  810MOL0     C 9243   4.992   0.065   6.923 -0.2696 -1.0591  0.8697
  810MOL0     C 9244   5.094   0.034   6.818  0.0326 -0.0987 -0.7055
  810MOL0     O 9245   5.221   0.101   6.823  0.1452  0.0771  0.0213
  810MOL0     C 9246   5.308   0.083   6.717 -0.8729 -0.0280 -0.4397
  810MOL0     C 9247   5.441   0.069   6.749 -0.0820 -0.0573  0.6218
  810MOL0     C 9248   5.542   0.048   6.649  0.3836 -0.2096  0.3868
  810MOL0     C 9249   5.504   0.057   6.511  0.3954  0.1376  0.6175
  810MOL0     O 9250   5.590   0.035   6.404  0.0393  0.1805 -0.1245
  810MOL0     C 9251   5.712  -0.040   6.419 -0.6328  0.3745 -0.3500
  810MOL0     C 9252   5.784  -0.052   6.279 -0.2409  0.4192  0.9340
  810MOL0     C 9253   5.900   0.047   6.259 -0.0385 -0.6699  0.0445
  810MOL0     C 9254   5.988  -0.002   6.140  0.4802  0.0751  0.2823
  810MOL0     C 9255   6.050   0.116   6.058  0.0007  0.9771 -0.0235
  810MOL0     C 9256   6.150   0.081   5.954  0.5526 -0.4210  0.5229
  810MOL0     C 9257   6.274   0.024   6.013 -0.0926  0.3400 -0.6468
  810MOL0     C 9258   6.399   0.052   5.929 -0.4148 -0.1075 -0.3016
  810MOL0    Cl 9259   6.546   0.006   6.014  0.3801  0.0314 -0.1048
  810MOL0     C 9260   5.366   0.073   6.480  0.1023 -0.1051 -0.4518
  810MOL0     C 9261   5.268   0.085   6.578  0.3691  0.7241 -0.4726
  810MOL0     O 9262   5.060  -0.043   6.730 -0.0881 -0.4672 -0.0360
  810MOL0     C 9263   4.975   0.197   6.968 -0.3953 -0.1778  1.0612
  810MOL0     C 9264   4.879   0.236   7.060  0.2997  0.2141  0.5400
  810MOL0     N 9265   4.119  -0.134   7.314 -0.6567  0.2840 -0.0770
  810MOL0     N 9266   3.990  -0.162   7.340 -0.8135  0.1810  0.2348
  810MOL0     C 9267   3.713   0.574   8.107 -0.1956 -0.1514  0.4054
  810MOL0     C 9268   3.646   0.702   8.127 -0.5812 -0.0443  0.2146
  810MOL0     C 9269   3.341   1.025   8.243  0.1337  0.3449 -0.0626
  810MOL0     C 9270   3.380   1.076   8.118 -0.0679 -0.2872 -0.2250
  810MOL0     C 9271   3.313   1.186   8.069  0.7380 -0.6187 -0.1089
  810MOL0     C 9272   3.195   1.239   8.127  0.0307 -0.2911  0.5979
  810MOL0     O 9273   3.142   1.351   8.067  0.4219 -0.0742 -0.0120
  810MOL0     C 9274   3.014   1.397   8.116 -0.7320 -0.3002  0.8295
  810MOL0     C 9275   2.908   1.293   8.074 -0.0390  0.2322 -0.0675
  810MOL0     C 9276   2.878   1.294   7.923  0.1215  0.4214  0.3424
  810MOL0     C 9277   2.744   1.214   7.921  0.1471 -0.2012 -0.5218
  810MOL0     C 9278   2.691   1.185   7.784  0.4937  0.5768 -0.7230
  810MOL0     C 9279   2.626   1.151   7.695  0.2409 -0.2058 -0.3671
  810MOL0     C 9280   3.158   1.188   8.247 -0.6659 -0.0373  0.2912
  810MOL0     C 9281   3.238   1.091   8.315 -0.3322  0.3546 -0.6139
  810MOL0     C 9282   3.199   1.072   8.467  0.0957  0.2436 -0.4062
  810MOL0     H 9283   3.540   0.659   8.449 -0.3924 -0.5773 -0.0646
  810MOL0     H 9284   3.651   0.448   8.414 -1.1220 -0.5287 -1.1476
  810MOL0     H 9285   3.727   0.212   8.320 -0.6134 -1.0599 -0.3162
  810MOL0     H 9286   3.604   0.266   8.199 -1.1292 -2.6439  1.8343
  810MOL0     H 9287   3.749   0.069   8.151 -1.0276  1.4586  0.8063
  810MOL0     H 9288   3.891   0.167   8.144 -0.1025  1.6824  0.5596
  810MOL0     H 9289   3.809   0.292   7.948 -3.1431  1.4396  0.9613
  810MOL0     H 9290   3.651   0.226   7.968  0.4111  0.2139  0.2170
  810MOL0     H 9291   3.904   0.072   7.890  0.4310  0.2896  0.4948
  810MOL0     H 9292   3.756  -0.007   7.935 -1.2016  0.5969  0.6482
  810MOL0     H 9293   3.638   0.083   7.735 -0.2522 -1.8688  2.0391
  810MOL0     H 9294   3.759   0.212   7.720 -2.1195  1.7764  3.3074
  810MOL0     H 9295   3.925   0.026   7.648  0.2765 -1.5461  4.8699
  810MOL0     H 9296   3.788  -0.086   7.663  0.0807 -0.5089  2.7478
  810MOL0     H 9297   3.820   0.161   7.479 -2.5208  1.2448 -1.9342
  810MOL0     H 9298   3.666   0.105   7.517 -0.3893 -1.4205  3.1457
  810MOL0     H 9299   3.769  -0.140   7.460 -0.1565  2.2798  2.3573
  810MOL0     H 9300   3.709  -0.042   7.328 -0.0073 -0.3540  0.1557
  810MOL0     H 9301   3.983   0.166   7.291  0.0870  0.7309  1.0386
  810MOL0     H 9302   4.304  -0.013   7.159 -1.8539 -0.5455 -0.2046
  810MOL0     H 9303   4.220   0.145   7.154 -0.4879  1.4782  1.1137
  810MOL0     H 9304   4.293   0.174   7.405 -1.4854 -0.6490  0.4579
  810MOL0     H 9305   4.373   0.018   7.394  1.6469  1.5260  1.7221
  810MOL0     H 9306   4.502   0.241   7.343  1.3361 -2.0945  0.9995
  810MOL0     H 9307   4.423   0.248   7.195 -1.6515  0.0342 -0.0910
  810MOL0     H 9308   4.548   0.021   7.148  2.7213  1.2738 -1.7498
  810MOL0     H 9309   4.607   0.010   7.308  1.7131  0.7246 -1.3394
  810MOL0     H 9310   4.733  -0.071   7.081  1.7105 -2.3450  1.8600
  810MOL0     H 9311   4.894  -0.129   6.931 -2.1271 -0.3137 -0.7273
  810MOL0     H 9312   5.481   0.067   6.850 -0.3411  0.4578  0.7375
  810MOL0     H 9313   5.644   0.026   6.678 -0.0733 -5.6940 -1.0830
  810MOL0     H 9314   5.774   0.019   6.487  0.4048  2.0337 -2.5965
  810MOL0     H 9315   5.682  -0.140   6.453 -1.5972  1.1896  1.3175
  810MOL0     H 9316   5.817  -0.155   6.264 -0.6759  0.3726  0.2186
  810MOL0     H 9317   5.704  -0.034   6.206 -0.9263  0.2288  1.6285
  810MOL0     H 9318   5.864   0.147   6.235  0.6555 -0.5557 -0.5531
  810MOL0     H 9319   5.966   0.054   6.345  1.0740  0.3670 -0.8566
  810MOL0     H 9320   5.919  -0.052   6.071 -1.4477  2.4227  0.3719
  810MOL0     H 9321   6.065  -0.068   6.181 -0.7770 -2.2174 -0.8645
  810MOL0     H 9322   6.089   0.192   6.126  0.1586  0.2937  0.6601
  810MOL0     H 9323   5.967   0.166   6.008 -0.1229 -1.4577 -2.4766
  810MOL0     H 9324   6.106   0.025   5.871 -0.3564 -0.1511  0.8223
  810MOL0     H 9325   6.161   0.178   5.906 -1.2865 -1.3899 -2.1335
  810MOL0     H 9326   6.258  -0.084   6.022  0.3302  0.4652  2.5502
  810MOL0     H 9327   6.292   0.075   6.108  0.1500 -1.8756  0.5505
  810MOL0     H 9328   6.396   0.004   5.830  2.7416  0.2426 -0.6802
  810MOL0     H 9329   6.399   0.158   5.901 -0.7465 -0.2246 -0.7624
  810MOL0     H 9330   5.338   0.084   6.376  0.1361  2.0692 -0.2756
  810MOL0     H 9331   5.164   0.075   6.546  1.2604  0.4311 -3.5695
  810MOL0     H 9332   5.038   0.270   6.920  0.1803 -1.6822 -0.5965
  810MOL0     H 9333   4.872   0.337   7.098  5.0476  0.5075  1.3515
  810MOL0     H 9334   3.761   0.544   8.014 -0.8353 -1.3461  0.4423
  810MOL0     H 9335   3.623   0.759   8.037 -1.2691 -0.7018 -0.0403
  810MOL0     H 9336   3.471   1.042   8.068 -0.1079  3.2051 -3.0726
  810MOL0     H 9337   3.352   1.230   7.978  1.6252 -3.3047 -1.1567
  810MOL0     H 9338   2.995   1.494   8.070 -1.0055 -1.3986 -1.5492
  810MOL0     H 9339   3.019   1.416   8.223 -1.0633 -3.1159  1.4329
  810MOL0     H 9340   2.819   1.316   8.133 -0.4080  0.3553 -0.6677
  810MOL0     H 9341   2.942   1.193   8.103 -1.1160 -0.3574 -0.7932
  810MOL0     H 9342   2.960   1.249   7.867 -1.1442  0.0960 -1.3055
  810MOL0     H 9343   2.868   1.397   7.889  1.2148 -0.0507 -1.5328
  810MOL0     H 9344   2.762   1.123   7.979 -0.3107  1.2942  2.1410
  810MOL0     H 9345   2.668   1.267   7.979  0.9052  0.0201  0.3153
  810MOL0     H 9346   2.562   1.112   7.618  1.4664  0.4217 -1.7414
  810MOL0     H 9347   3.070   1.222   8.302 -1.1270  0.2010 -0.5705
  810MOL0     H 9348   3.102   1.027   8.486  0.1124  0.9644  1.6422
  810MOL0     H 9349   3.267   1.008   8.524 -0.9338  0.3568  0.9851
  810MOL0     H 9350   3.194   1.169   8.517 -0.5288 -0.5599  1.1451
  811MOL0     O 9351  10.064   6.819   1.107 -0.2321  0.1387  0.1166
  811MOL0     C 9352  10.023   6.913   1.170  0.2400 -0.5288 -0.2104
  811MOL0     O 9353  10.075   7.043   1.157  0.1437 -0.4064  0.4074
  811MOL0     C 9354  10.181   7.064   1.079 -0.7676 -0.4896 -0.9921
  811MOL0     C 9355  10.185   7.049   0.941 -0.4762  0.1551  0.8923
  811MOL0     C 9356  10.297   7.100   0.878  0.5319 -0.7096 -0.4897
  811MOL0     C 9357  10.405   7.156   0.947 -0.0268  0.6334  0.0932
  811MOL0     O 9358  10.518   7.207   0.881  0.1278  0.1900  0.7516
  811MOL0     C 9359  10.598   7.104   0.828 -0.5214 -0.1696  1.0207
  811MOL0     C 9360  10.685   7.184   0.726 -1.0724  0.2015 -0.1783
  811MOL0     C 9361  10.805   7.112   0.650  0.2956 -1.4269  0.2431
  811MOL0     C 9362  10.909   7.214   0.631  0.1397  0.3217  0.3470
  811MOL0     C 9363  11.034   7.162   0.548 -0.4015  0.4419 -0.7162
  811MOL0     C 9364  11.108   7.032   0.612 -0.6647  0.2467  0.3338
  811MOL0     C 9365  11.232   7.012   0.530  1.0606  0.7121  0.8725
  811MOL0     C 9366  11.351   7.098   0.575  0.3270 -0.6624  0.1660
  811MOL0     N 9367  11.478   7.078   0.505 -0.2182  0.1494  0.2533
  811MOL0     C 9368  11.517   7.140   0.388 -0.5113 -0.5423  0.1955
  811MOL0     C 9369  11.613   7.062   0.334 -0.6154 -0.5110  0.4926
  811MOL0     C 9370  11.686   7.074   0.201  0.4854  0.3004  0.0561
  811MOL0     C 9371  11.770   7.204   0.184 -0.3624  0.0717 -0.2196
  811MOL0     C 9372  11.692   7.333   0.137  1.6070  0.0430 -0.3190
  811MOL0     C 9373  11.796   7.446   0.101  1.1298  0.3182 -0.1757
  811MOL0     O 9374  11.717   7.558   0.065  0.2650  0.1299 -0.6171
  811MOL0     C 9375  11.796   7.663   0.021  0.4655  0.7649 -0.7162
  811MOL0     C 9376  11.930   7.687   0.057 -0.2012  1.0948  1.0166
  811MOL0     C 9377  12.000   7.801   0.029 -0.5520  0.7107 -0.0821
  811MOL0     C 9378  11.943   7.895  -0.065 -0.4350  0.6619 -0.3231
  811MOL0     C 9379  12.027   8.002  -0.123 -0.4963  0.5917  0.3800
  811MOL0     O 9380  12.159   8.024  -0.059  0.1178  1.0701 -0.1907
  811MOL0     C 9381  12.250   8.111  -0.096 -0.0210 -0.4587  0.3329
  811MOL0     C 9382  12.228   8.243  -0.087 -0.0224  0.0211 -0.0593
  811MOL0     C 9383  12.335   8.330  -0.102  0.8226 -0.6718 -0.2470
  811MOL0     C 9384  12.462   8.286  -0.137  0.0578  0.2573  0.5857
  811MOL0     O 9385  12.573   8.362  -0.157  0.2550  0.1510  0.3195
  811MOL0     C 9386  12.582   8.494  -0.113  0.0861  0.2771 -0.8927
  811MOL0     C 9387  12.717   8.547  -0.153 -0.0321  0.8465  0.5270
  811MOL0     C 9388  12.757   8.668  -0.070  0.1573 -0.0232  0.1168
  811MOL0     C 9389  12.655   8.776  -0.091 -0.1101 -0.5563 -0.5115
  811MOL0     C 9390  12.687   8.897  -0.006  0.2392  0.2186  0.2256
  811MOL0     C 9391  12.818   8.959  -0.035  0.5372 -0.1996  0.7710
  811MOL0     C 9392  12.858   9.067   0.063 -0.2945  0.4107  0.2618
  811MOL0     C 9393  12.945   9.176   0.005  0.1537 -0.1759  0.5332
  811MOL0    Cl 9394  13.093   9.098  -0.066 -0.0841 -0.8022 -0.2349
  811MOL0     C 9395  12.480   8.148  -0.166 -0.3275 -0.1811  0.4236
  811MOL0     C 9396  12.370   8.062  -0.143 -0.1371 -0.5869  0.5760
  811MOL0     O 9397  11.989   8.075  -0.214 -0.3099 -0.0906 -0.2259
  811MOL0     C 9398  11.808   7.874  -0.100 -0.3834  0.1880  0.1805
  811MOL0     C 9399  11.734   7.768  -0.049 -0.9902  1.2240  0.1951
  811MOL0     N 9400  11.647   6.968   0.428  0.3174 -0.8325  0.6960
  811MOL0     N 9401  11.566   6.980   0.526  0.5624  0.1251 -0.1973
  811MOL0     C 9402  10.401   7.168   1.086 -1.0596 -0.3547  0.0371
  811MOL0     C 9403  10.290   7.117   1.153  0.1147  0.4668  1.0887
  811MOL0     C 9404   9.897   6.892   1.255 -0.0628  0.4997 -0.2622
  811MOL0     C 9405   9.773   6.885   1.187  0.3447 -0.0067 -0.0469
  811MOL0     C 9406   9.652   6.873   1.255 -0.0280 -0.5995 -0.9522
  811MOL0     C 9407   9.655   6.883   1.400  0.1166 -0.1628  0.1132
  811MOL0     O 9408   9.552   6.868   1.488 -0.9813  0.4613  0.7216
  811MOL0     C 9409   9.443   6.782   1.447 -0.1909 -0.5711 -0.0474
  811MOL0     C 9410   9.323   6.874   1.431 -0.1431  0.8791 -0.0448
  811MOL0     C 9411   9.181   6.808   1.396  0.6014  0.6386  0.1077
  811MOL0     C 9412   9.169   6.718   1.269 -0.0452 -0.3381 -0.3193
  811MOL0     C 9413   9.032   6.714   1.228  0.6116 -0.3632  0.7916
  811MOL0     C 9414   8.919   6.708   1.181 -0.6861  0.4256 -0.5009
  811MOL0     C 9415   9.777   6.902   1.469 -0.5042  0.3749  1.0026
  811MOL0     C 9416   9.901   6.910   1.395 -1.0826 -0.0112  0.5716
  811MOL0     C 9417  10.022   6.949   1.466  0.5758 -1.3367  0.7424
  811MOL0     H 9418  10.106   7.029   0.870  1.1797  0.0759 -1.0261
  811MOL0     H 9419  10.306   7.079   0.772 -1.3261 -1.3941 -0.5458
  811MOL0     H 9420  10.646   7.051   0.910  1.1489 -1.7338 -0.8583
  811MOL0     H 9421  10.544   7.031   0.766  2.2420 -0.2495 -1.5188
  811MOL0     H 9422  10.732   7.271   0.774  0.5032 -0.7306  0.0495
  811MOL0     H 9423  10.623   7.231   0.650  0.5582  3.4606  0.2838
  811MOL0     H 9424  10.766   7.077   0.554  1.4736  0.0385 -0.8265
  811MOL0     H 9425  10.840   7.033   0.717 -0.5881 -0.4211  1.9676
  811MOL0     H 9426  10.864   7.301   0.583  0.6031  0.9535  1.0264
  811MOL0     H 9427  10.948   7.234   0.732  1.0847 -1.3425  0.3439
  811MOL0     H 9428  11.004   7.124   0.450  3.9783 -0.6598 -1.8570
  811MOL0     H 9429  11.101   7.248   0.542  0.5295 -0.0681  1.3428
  811MOL0     H 9430  11.141   7.040   0.716  0.3248  0.2251  0.0344
  811MOL0     H 9431  11.041   6.945   0.609 -1.8074  1.0330  1.8786
  811MOL0     H 9432  11.208   7.017   0.423 -0.5120 -2.1829  0.9800
  811MOL0     H 9433  11.248   6.904   0.533 -2.1786  0.0985 -0.0008
  811MOL0     H 9434  11.322   7.202   0.559  0.7199 -0.9283 -2.9256
  811MOL0     H 9435  11.374   7.095   0.682  0.8147  3.1757  0.3033
  811MOL0     H 9436  11.471   7.222   0.334 -0.1370 -0.2895  0.2580
  811MOL0     H 9437  11.754   6.990   0.184 -1.2015 -0.9984 -0.5438
  811MOL0     H 9438  11.616   7.071   0.117 -1.6889 -0.6540  1.7931
  811MOL0     H 9439  11.837   7.228   0.266  3.7247  0.8788 -3.4578
  811MOL0     H 9440  11.840   7.179   0.104 -0.2205 -2.0284  0.5009
  811MOL0     H 9441  11.625   7.353   0.221 -0.1378 -1.3373 -1.3067
  811MOL0     H 9442  11.620   7.315   0.056 -0.4080 -2.2793  1.8174
  811MOL0     H 9443  11.857   7.407   0.019  0.0250 -0.8060 -0.5017
  811MOL0     H 9444  11.863   7.466   0.184 -0.2682  0.7878  0.8685
  811MOL0     H 9445  11.984   7.622   0.124  0.4264 -0.4112 -0.8421
  811MOL0     H 9446  12.105   7.813   0.052  0.3053 -2.6381 -1.5907
  811MOL0     H 9447  12.124   8.270  -0.068 -0.4352 -2.4486  1.5909
  811MOL0     H 9448  12.311   8.436  -0.100  1.5839 -0.4939  1.3816
  811MOL0     H 9449  12.505   8.551  -0.168  0.8369 -0.7369 -3.1075
  811MOL0     H 9450  12.562   8.488  -0.006 -2.8936 -2.8575 -1.4428
  811MOL0     H 9451  12.792   8.468  -0.139  0.1488  1.0298  0.6068
  811MOL0     H 9452  12.728   8.579  -0.257  1.3086  2.4803  1.1091
  811MOL0     H 9453  12.764   8.643   0.036  1.8381  0.1306  0.0751
  811MOL0     H 9454  12.861   8.692  -0.097  0.7347 -1.6723  0.7177
  811MOL0     H 9455  12.552   8.743  -0.074 -0.4126  1.2141  1.4481
  811MOL0     H 9456  12.661   8.817  -0.192  0.9741  0.7362  0.0548
  811MOL0     H 9457  12.702   8.877   0.101  1.1996  4.6093  1.0885
  811MOL0     H 9458  12.614   8.979  -0.008 -0.2423 -0.2160 -1.1402
  811MOL0     H 9459  12.891   8.878  -0.023 -0.0961 -1.2841 -2.0424
  811MOL0     H 9460  12.817   8.984  -0.141  1.4853 -2.3499  0.1964
  811MOL0     H 9461  12.919   9.020   0.141  0.2770 -2.9727 -2.0018
  811MOL0     H 9462  12.765   9.102   0.109 -0.5461 -2.2321  1.9650
  811MOL0     H 9463  12.900   9.245  -0.068 -1.6057 -2.8546 -1.1135
  811MOL0     H 9464  12.989   9.230   0.089  2.7074 -0.9289 -0.2312
  811MOL0     H 9465  12.573   8.104  -0.202 -0.4104  0.8961 -1.1830
  811MOL0     H 9466  12.379   7.955  -0.154  1.5094 -0.5816  1.5134
  811MOL0     H 9467  11.755   7.947  -0.160 -3.1117  0.4144  2.6479
  811MOL0     H 9468  11.630   7.744  -0.069  0.0754 -2.4074 -2.0929
  811MOL0     H 9469  10.484   7.218   1.136  0.4745 -3.5515  0.9385
  811MOL0     H 9470  10.296   7.123   1.261 -0.1849 -3.6570  1.4869
  811MOL0     H 9471   9.770   6.881   1.079 -4.2286 -1.6915 -0.0425
  811MOL0     H 9472   9.566   6.877   1.190 -0.4889 -0.3837 -0.3417
  811MOL0     H 9473   9.423   6.701   1.519 -0.4875  0.2069  0.7632
  811MOL0     H 9474   9.455   6.734   1.350  1.9331  0.0242 -0.1320
  811MOL0     H 9475   9.350   6.948   1.354 -1.7949 -0.0276 -1.5656
  811MOL0     H 9476   9.308   6.936   1.520 -1.9386  1.7782 -0.9198
  811MOL0     H 9477   9.105   6.886   1.392 -1.8152 -1.6374 -1.7059
  811MOL0     H 9478   9.160   6.740   1.479  1.3094 -1.6748 -1.5025
  811MOL0     H 9479   9.240   6.752   1.192 -1.6272  3.1790 -0.4265
  811MOL0     H 9480   9.199   6.621   1.309 -3.7638 -1.3303  0.4548
  811MOL0     H 9481   8.819   6.703   1.143 -0.2920 -0.1536 -1.4914
  811MOL0     H 9482   9.782   6.892   1.577  1.5853  2.3707  1.1571
  811MOL0     H 9483  10.112   6.900   1.426 -0.1508 -1.5479 -0.7048
  811MOL0     H 9484  10.032   7.058   1.462  2.8531 -1.4900  0.8618
  811MOL0     H 9485  10.004   6.920   1.569  0.6009  0.9619  1.4532
  812MOL0     O 9486   2.826   5.645   5.035 -0.8460 -0.5488 -0.1966
  812MOL0     C 9487   2.925   5.623   4.965  0.3398  0.7180  0.6660
  812MOL0     O 9488   2.934   5.648   4.831  0.9020 -0.1324 -0.3841
  812MOL0     C 9489   2.819   5.700   4.775 -0.1293  1.1323 -0.5011
  812MOL0     C 9490   2.821   5.826   4.727  0.2878 -0.4682 -0.7717
  812MOL0     C 9491   2.709   5.882   4.675  1.2039 -0.5838  0.1170
  812MOL0     C 9492   2.584   5.817   4.662  0.4925 -0.0650 -1.2026
  812MOL0     O 9493   2.482   5.882   4.605  0.6247  0.8901  0.7965
  812MOL0     C 9494   2.429   5.814   4.489  0.2157 -0.5535  0.1094
  812MOL0     C 9495   2.363   5.907   4.389 -0.7127 -0.3600  0.2453
  812MOL0     C 9496   2.461   6.008   4.325 -0.2393  0.1499  0.2315
  812MOL0     C 9497   2.362   6.100   4.249 -0.8806  0.5345  0.5956
  812MOL0     C 9498   2.442   6.203   4.180 -0.0386  0.3606 -0.0563
  812MOL0     C 9499   2.346   6.315   4.121 -0.4181  0.4869  0.0049
  812MOL0     C 9500   2.431   6.438   4.063  0.3130  0.8903 -0.1405
  812MOL0     C 9501   2.499   6.526   4.177 -0.4577 -0.5091  0.1082
  812MOL0     N 9502   2.547   6.651   4.123  0.4234 -0.1268 -0.9130
  812MOL0     C 9503   2.666   6.658   4.065  1.1806 -1.0236 -0.0656
  812MOL0     C 9504   2.651   6.770   3.986 -0.0360  0.4869 -0.0699
  812MOL0     C 9505   2.751   6.801   3.873 -1.3546  0.2311 -0.4453
  812MOL0     C 9506   2.869   6.898   3.900  0.6720  0.8942 -0.0037
  812MOL0     C 9507   2.981   6.893   3.791  0.3017  0.7353 -0.1195
  812MOL0     C 9508   3.107   6.963   3.835  0.2716  0.7309 -0.5404
  812MOL0     O 9509   3.158   6.893   3.950 -0.2110  0.4567 -0.1359
  812MOL0     C 9510   3.282   6.933   3.996  1.1207  1.3158  0.0498
  812MOL0     C 9511   3.296   6.908   4.131 -0.9499 -0.3194 -0.6758
  812MOL0     C 9512   3.405   6.960   4.202 -1.0678 -0.0085 -0.5712
  812MOL0     C 9513   3.513   7.013   4.124  0.3280 -0.9255 -0.6789
  812MOL0     C 9514   3.637   7.079   4.181  0.3487 -0.5301 -0.4822
  812MOL0     O 9515   3.732   7.086   4.086  0.1095 -0.2708 -0.7148
  812MOL0     C 9516   3.869   7.106   4.123  0.3903  0.5510  0.3147
  812MOL0     C 9517   3.944   7.187   4.049 -0.5363 -0.2705  0.0406
  812MOL0     C 9518   4.078   7.217   4.079 -0.7844  1.0461 -0.1552
  812MOL0     C 9519   4.128   7.165   4.205 -0.7006 -0.0304  0.4031
  812MOL0     O 9520   4.255   7.181   4.253 -0.3875 -0.0733 -0.3108
  812MOL0     C 9521   4.352   7.264   4.178  0.2827  0.1025  0.2550
  812MOL0     C 9522   4.481   7.248   4.250 -0.4947  0.0458 -0.1807
  812MOL0     C 9523   4.595   7.307   4.166  0.1411 -0.4489  0.2881
  812MOL0     C 9524   4.734   7.282   4.230 -0.0951 -0.2215  0.9721
  812MOL0     C 9525   4.744   7.359   4.359  0.1020 -0.0400 -0.8053
  812MOL0     C 9526   4.897   7.393   4.387 -0.9459  0.6524  0.1823
  812MOL0     C 9527   4.929   7.471   4.511  0.3459  0.6245  0.0514
  812MOL0     C 9528   5.080   7.497   4.520 -0.0744 -0.1611 -0.2199
  812MOL0    Cl 9529   5.172   7.339   4.561 -0.2393  0.2356 -0.3433
  812MOL0     C 9530   4.052   7.088   4.284 -1.3662 -0.2237  0.1097
  812MOL0     C 9531   3.922   7.054   4.242 -0.5950  0.3924 -0.3565
  812MOL0     O 9532   3.648   7.118   4.293 -0.2855 -0.3976  0.1322
  812MOL0     C 9533   3.506   7.019   3.985 -0.4978  0.6266 -0.4342
  812MOL0     C 9534   3.389   6.980   3.921  0.1784  0.3752  0.3317
  812MOL0     N 9535   2.540   6.842   4.017 -0.7908 -0.3179 -0.3484
  812MOL0     N 9536   2.475   6.763   4.107 -0.4273 -0.5530  0.4625
  812MOL0     C 9537   2.582   5.687   4.713 -0.2635  0.5601  0.1832
  812MOL0     C 9538   2.699   5.627   4.764 -0.9463  0.2668 -0.6428
  812MOL0     C 9539   3.039   5.549   5.034  0.5922 -0.2841  0.9278
  812MOL0     C 9540   3.132   5.491   4.949 -0.3041 -0.0627 -0.1955
  812MOL0     C 9541   3.255   5.432   4.996  1.2321 -0.2753  0.1487
  812MOL0     C 9542   3.278   5.415   5.133 -1.1735  0.4580 -0.1743
  812MOL0     O 9543   3.392   5.353   5.191 -0.2482 -0.1619 -0.3850
  812MOL0     C 9544   3.481   5.267   5.097 -0.2598 -0.8052  0.0436
  812MOL0     C 9545   3.594   5.190   5.179  0.0479 -0.0517 -0.4868
  812MOL0     C 9546   3.543   5.091   5.286  0.1795 -0.4171  0.6458
  812MOL0     C 9547   3.552   4.940   5.239 -0.0011  0.2982  0.5277
  812MOL0     C 9548   3.501   4.868   5.349  0.3636 -0.0590 -0.9823
  812MOL0     C 9549   3.458   4.813   5.453  0.5284 -0.3420 -0.0868
  812MOL0     C 9550   3.182   5.476   5.218 -0.4500  0.7079 -0.9936
  812MOL0     C 9551   3.061   5.539   5.174 -0.0505  0.4779 -0.6616
  812MOL0     C 9552   2.959   5.585   5.276  0.3686 -0.3504 -0.1887
  812MOL0     H 9553   2.911   5.883   4.745  0.8682 -1.6296  0.1194
  812MOL0     H 9554   2.711   5.984   4.639  1.8069 -0.0450  1.5768
  812MOL0     H 9555   2.504   5.754   4.436 -1.1147 -1.1022 -1.2052
  812MOL0     H 9556   2.355   5.741   4.522 -0.5087 -0.0159 -0.3079
  812MOL0     H 9557   2.280   5.959   4.438 -2.5708 -2.9992  0.0727
  812MOL0     H 9558   2.323   5.845   4.309  3.3280 -2.1952 -0.6234
  812MOL0     H 9559   2.524   5.961   4.250 -1.0464 -0.2401 -0.2167
  812MOL0     H 9560   2.511   6.063   4.405 -1.7706  0.1984  1.2150
  812MOL0     H 9561   2.307   6.046   4.172 -4.4197  2.2618  1.6965
  812MOL0     H 9562   2.290   6.151   4.313 -2.5310 -1.2059  0.2168
  812MOL0     H 9563   2.501   6.255   4.257  0.0094  0.8170 -0.4001
  812MOL0     H 9564   2.500   6.152   4.103 -2.6871 -1.3255 -1.0929
  812MOL0     H 9565   2.278   6.271   4.049 -1.5634 -2.2303  2.5307
  812MOL0     H 9566   2.276   6.354   4.196  0.2276  0.6303  0.5410
  812MOL0     H 9567   2.358   6.502   4.013  0.0552 -0.1941 -1.2004
  812MOL0     H 9568   2.498   6.391   3.990  1.0860 -0.6650  1.4705
  812MOL0     H 9569   2.429   6.531   4.260 -0.4514 -3.0896  0.3531
  812MOL0     H 9570   2.586   6.467   4.209  0.5500  1.2121  0.7139
  812MOL0     H 9571   2.750   6.589   4.060  2.5857  0.6882 -2.1134
  812MOL0     H 9572   2.803   6.713   3.835  1.7202  1.4990  0.4515
  812MOL0     H 9573   2.699   6.832   3.782 -1.1295  2.0151 -0.0177
  812MOL0     H 9574   2.823   6.997   3.912  1.1609  0.8922  2.2896
  812MOL0     H 9575   2.915   6.872   3.995  0.2652 -1.5605 -0.4197
  812MOL0     H 9576   2.940   6.935   3.699  0.8833 -0.8143 -1.1408
  812MOL0     H 9577   3.000   6.789   3.763  0.5731  1.1881 -1.6947
  812MOL0     H 9578   3.092   7.071   3.843  0.5255  0.7461 -0.2546
  812MOL0     H 9579   3.183   6.957   3.757  1.2084  3.2037  0.0699
  812MOL0     H 9580   3.211   6.872   4.187 -0.6962 -1.7665 -1.1764
  812MOL0     H 9581   3.422   6.942   4.307 -2.5582  0.2977 -0.2489
  812MOL0     H 9582   3.900   7.248   3.970 -1.6902 -0.9757  0.1120
  812MOL0     H 9583   4.136   7.271   4.005 -1.3419  0.3923 -1.0857
  812MOL0     H 9584   4.361   7.229   4.074  1.7889  0.2490  0.3078
  812MOL0     H 9585   4.312   7.366   4.182 -1.6399 -0.6573  1.8439
  812MOL0     H 9586   4.477   7.288   4.351  0.1784 -0.9099  0.2452
  812MOL0     H 9587   4.494   7.140   4.264 -0.1327 -0.3568 -2.9254
  812MOL0     H 9588   4.592   7.273   4.063 -0.2907  0.9888 -0.1948
  812MOL0     H 9589   4.577   7.414   4.156 -0.7006 -0.5003  1.0305
  812MOL0     H 9590   4.806   7.305   4.151 -1.4737  0.6395 -0.0779
  812MOL0     H 9591   4.725   7.175   4.251  0.0189  0.4057  5.0735
  812MOL0     H 9592   4.703   7.297   4.440  0.7676 -2.3240 -2.1442
  812MOL0     H 9593   4.685   7.451   4.362 -0.7131 -0.5446 -0.8402
  812MOL0     H 9594   4.947   7.296   4.392 -1.0504  0.6395  1.0770
  812MOL0     H 9595   4.940   7.446   4.301  0.8557 -1.0652 -0.0519
  812MOL0     H 9596   4.895   7.405   4.592 -0.9023  0.5599 -0.4983
  812MOL0     H 9597   4.869   7.562   4.506  1.1315  1.0771 -1.8979
  812MOL0     H 9598   5.125   7.524   4.424  0.0740  0.8268  0.1184
  812MOL0     H 9599   5.109   7.575   4.590 -1.0980 -0.6502  0.7809
  812MOL0     H 9600   4.082   7.056   4.384  0.0711 -2.7491 -1.0364
  812MOL0     H 9601   3.877   6.987   4.315  1.1820  2.7758  3.2192
  812MOL0     H 9602   3.575   7.069   3.917 -1.6565  1.7791 -0.8043
  812MOL0     H 9603   3.389   6.985   3.813  2.1851 -3.2131  0.0122
  812MOL0     H 9604   2.488   5.633   4.700 -0.1927  0.5809 -0.4598
  812MOL0     H 9605   2.691   5.525   4.798 -0.3945  0.1486 -0.8580
  812MOL0     H 9606   3.117   5.498   4.842 -1.4241  1.8666  0.0569
  812MOL0     H 9607   3.322   5.394   4.920  0.4106  0.7282 -1.1297
  812MOL0     H 9608   3.529   5.337   5.028 -1.2841 -0.3398 -0.2280
  812MOL0     H 9609   3.421   5.199   5.037 -0.9789 -0.8040  0.7386
  812MOL0     H 9610   3.648   5.273   5.225 -1.1626  1.3759 -1.5430
  812MOL0     H 9611   3.659   5.144   5.104 -0.8548 -0.1714 -1.2122
  812MOL0     H 9612   3.441   5.125   5.308  0.4528 -0.4578  2.0187
  812MOL0     H 9613   3.606   5.100   5.375  0.2115  0.1817  0.5696
  812MOL0     H 9614   3.496   4.916   5.149 -2.8944 -1.4932  2.6174
  812MOL0     H 9615   3.655   4.919   5.209  0.0827  2.1751 -0.6480
  812MOL0     H 9616   3.425   4.779   5.549  0.6487  0.1652  0.1337
  812MOL0     H 9617   3.193   5.481   5.326 -2.1675  3.4193 -0.8406
  812MOL0     H 9618   3.004   5.580   5.375  2.1496  2.8426 -0.7323
  812MOL0     H 9619   2.932   5.689   5.257  2.8583  0.3529 -0.2259
  812MOL0     H 9620   2.875   5.514   5.269  0.8887 -1.1390  1.1636
  813MOL0     O 9621   5.683  10.438   0.973  0.4271  0.1151 -0.6238
  813MOL0     C 9622   5.649  10.556   0.978 -0.1687  0.4498  0.1616
  813MOL0     O 9623   5.720  10.662   0.938 -0.0053  0.2737  0.4306
  813MOL0     C 9624   5.820  10.635   0.847  0.0981 -0.2870 -0.1633
  813MOL0     C 9625   5.961  10.625   0.879  0.7644  0.3695 -0.5596
  813MOL0     C 9626   6.053  10.598   0.778  0.8074  0.0241 -0.0927
  813MOL0     C 9627   6.014  10.598   0.646  0.1134  0.3945  0.8471
  813MOL0     O 9628   6.121  10.570   0.561 -0.5003 -0.7649 -0.2192
  813MOL0     C 9629   6.087  10.512   0.431  0.5686 -0.8191 -0.7890
  813MOL0     C 9630   6.207  10.482   0.341  0.4215 -0.2230 -0.3709
  813MOL0     C 9631   6.272  10.596   0.259  0.0196 -0.5511 -0.2233
  813MOL0     C 9632   6.393  10.548   0.171 -0.0111  0.3852 -0.0090
  813MOL0     C 9633   6.458  10.662   0.094 -0.6062 -0.8794  0.5425
  813MOL0     C 9634   6.591  10.629   0.025  0.7299  0.4762 -0.2232
  813MOL0     C 9635   6.610  10.744  -0.079  0.3692  0.0767  0.1741
  813MOL0     C 9636   6.719  10.834  -0.045 -0.1534 -0.3567  0.0198
  813MOL0     N 9637   6.750  10.933  -0.154  0.1571  0.0465 -0.1934
  813MOL0     C 9638   6.665  11.023  -0.209  0.6090 -0.0293 -0.9438
  813MOL0     C 9639   6.725  11.079  -0.310 -0.4376  0.2557 -0.4752
  813MOL0     C 9640   6.647  11.164  -0.406 -0.2231 -0.5340 -0.2223
  813MOL0     C 9641   6.667  11.318  -0.389 -0.9022 -0.1324  1.0294
  813MOL0     C 9642   6.765  11.380  -0.484  0.4220 -0.2635 -0.2229
  813MOL0     C 9643   6.908  11.345  -0.455  0.5643 -0.1311 -0.0507
  813MOL0     O 9644   6.991  11.448  -0.510 -0.0767 -0.7814  0.0536
  813MOL0     C 9645   7.132  11.437  -0.508  0.5111 -0.4011 -0.5329
  813MOL0     C 9646   7.184  11.318  -0.480 -0.7848  0.3637  0.3131
  813MOL0     C 9647   7.326  11.301  -0.474  0.0691  0.8510 -0.0920
  813MOL0     C 9648   7.407  11.411  -0.512 -0.5954  0.8807 -0.3795
  813MOL0     C 9649   7.555  11.387  -0.511  0.0498 -0.1105 -0.6303
  813MOL0     O 9650   7.609  11.268  -0.463 -0.7115 -0.1683 -0.4313
  813MOL0     C 9651   7.740  11.237  -0.494 -0.6505 -0.3438 -0.8095
  813MOL0     C 9652   7.760  11.150  -0.595 -0.6507 -0.2760 -0.2641
  813MOL0     C 9653   7.882  11.117  -0.645  0.7975 -0.1753  0.3804
  813MOL0     C 9654   7.992  11.181  -0.583  0.0362 -0.9462  0.4348
  813MOL0     O 9655   8.118  11.157  -0.628 -0.4571  0.3078 -0.6530
  813MOL0     C 9656   8.220  11.256  -0.622  0.0446  0.5192  0.5529
  813MOL0     C 9657   8.323  11.240  -0.743 -0.0858 -0.2296 -0.4602
  813MOL0     C 9658   8.410  11.359  -0.746 -0.7114 -0.5367  0.8066
  813MOL0     C 9659   8.488  11.360  -0.890  0.8891 -0.6026 -0.6179
  813MOL0     C 9660   8.584  11.473  -0.898  0.1691 -0.0007 -1.1118
  813MOL0     C 9661   8.517  11.609  -0.885  0.4550  0.3275 -0.2339
  813MOL0     C 9662   8.598  11.728  -0.931  0.4299  0.4876  1.2098
  813MOL0     C 9663   8.712  11.763  -0.841 -0.0628  0.3510  0.0068
  813MOL0    Cl 9664   8.858  11.695  -0.923 -0.5783 -0.1403  0.3380
  813MOL0     C 9665   7.978  11.268  -0.472  0.6695  0.5937  0.4037
  813MOL0     C 9666   7.852  11.297  -0.420 -0.2979  0.4013  0.0067
  813MOL0     O 9667   7.621  11.482  -0.552 -0.3631  0.2843 -0.0840
  813MOL0     C 9668   7.349  11.534  -0.530 -0.8678  0.0558  1.3408
  813MOL0     C 9669   7.212  11.548  -0.529 -0.8653 -0.0951  0.2890
  813MOL0     N 9670   6.849  11.019  -0.325 -0.9681  0.3578  0.0350
  813MOL0     N 9671   6.866  10.943  -0.216  1.2957 -0.4929 -0.6587
  813MOL0     C 9672   5.877  10.621   0.608 -0.7306  0.3756 -0.6470
  813MOL0     C 9673   5.780  10.638   0.713 -0.4882 -0.3306  0.5327
  813MOL0     C 9674   5.511  10.578   1.028  0.4743  0.2057 -0.2233
  813MOL0     C 9675   5.459  10.710   1.005  0.8948 -0.1070 -0.6915
  813MOL0     C 9676   5.331  10.738   1.037  0.8942  0.4450  0.1848
  813MOL0     C 9677   5.243  10.654   1.112 -0.8288 -0.0085  0.5517
  813MOL0     O 9678   5.115  10.695   1.153 -0.3086  0.8523 -0.1834
  813MOL0     C 9679   5.075  10.829   1.115  0.1195 -0.2825 -1.0271
  813MOL0     C 9680   4.929  10.840   1.162 -0.2159  0.3787  0.8642
  813MOL0     C 9681   4.826  10.750   1.086  0.7642 -0.7084 -0.1013
  813MOL0     C 9682   4.684  10.808   1.076  0.1291 -0.2048 -0.3294
  813MOL0     C 9683   4.601  10.768   1.191  0.1026 -0.7713 -0.0188
  813MOL0     C 9684   4.529  10.733   1.276  0.3898  0.5262 -0.5531
  813MOL0     C 9685   5.294  10.526   1.136  0.3518  0.0277 -0.6165
  813MOL0     C 9686   5.422  10.489   1.097  0.4780  0.3965  0.7011
  813MOL0     C 9687   5.469  10.355   1.139 -0.6470 -0.3105  0.2575
  813MOL0     H 9688   5.994  10.629   0.982  1.3875 -1.4961 -0.6522
  813MOL0     H 9689   6.156  10.589   0.811  1.3439 -1.7980 -2.0378
  813MOL0     H 9690   6.039  10.417   0.456  1.5471 -1.1412 -0.0285
  813MOL0     H 9691   6.019  10.584   0.386  0.0707 -0.5429  0.3609
  813MOL0     H 9692   6.181  10.405   0.268 -0.5180 -0.0647 -0.2154
  813MOL0     H 9693   6.286  10.423   0.388 -0.2681 -0.9609 -0.1157
  813MOL0     H 9694   6.317  10.679   0.316 -0.7073  2.3725 -3.5593
  813MOL0     H 9695   6.194  10.642   0.198  0.4124  0.3367 -0.0747
  813MOL0     H 9696   6.465  10.490   0.229 -1.0651  0.1975  1.1573
  813MOL0     H 9697   6.352  10.486   0.091 -2.0021  5.0552 -3.0725
  813MOL0     H 9698   6.387  10.677   0.013  0.3600  3.1968  0.2416
  813MOL0     H 9699   6.468  10.757   0.147  2.6456  0.2439 -1.7927
  813MOL0     H 9700   6.667  10.638   0.103 -0.5292 -3.0246  1.6246
  813MOL0     H 9701   6.596  10.524  -0.006  2.0030 -1.0239  4.2117
  813MOL0     H 9702   6.521  10.807  -0.090  0.3865  0.0354 -0.2296
  813MOL0     H 9703   6.618  10.701  -0.179 -2.4551 -0.6218  0.1762
  813MOL0     H 9704   6.697  10.894   0.045  0.0764 -0.7817  0.3644
  813MOL0     H 9705   6.804  10.771  -0.019 -0.3555  0.3389  2.8046
  813MOL0     H 9706   6.563  11.045  -0.178  1.0194  1.1016 -0.3180
  813MOL0     H 9707   6.662  11.136  -0.511 -1.0429 -0.5349 -0.3454
  813MOL0     H 9708   6.543  11.133  -0.389  0.5786 -2.9693  0.6840
  813MOL0     H 9709   6.580  11.375  -0.422  0.8004  1.2826 -1.3787
  813MOL0     H 9710   6.683  11.345  -0.284  3.0122  2.2227  0.0794
  813MOL0     H 9711   6.753  11.489  -0.484 -2.1572 -0.4776  0.9120
  813MOL0     H 9712   6.738  11.346  -0.585  2.8978  0.9005 -1.3665
  813MOL0     H 9713   6.927  11.247  -0.498 -0.3746  0.6791 -2.4742
  813MOL0     H 9714   6.917  11.336  -0.346  0.3044 -2.3322 -0.1678
  813MOL0     H 9715   7.134  11.223  -0.464  0.4084 -0.5277 -1.0830
  813MOL0     H 9716   7.357  11.198  -0.462 -0.7739  0.6496  0.4002
  813MOL0     H 9717   7.670  11.109  -0.637  0.2854  0.6450 -3.4789
  813MOL0     H 9718   7.885  11.054  -0.734 -2.9107 -0.9597  0.6521
  813MOL0     H 9719   8.176  11.356  -0.632  1.0416  0.9211  0.0668
  813MOL0     H 9720   8.281  11.256  -0.531  1.2184  2.5962 -0.1380
  813MOL0     H 9721   8.394  11.157  -0.731  1.7086  1.3951  0.7768
  813MOL0     H 9722   8.269  11.215  -0.835  0.0966 -2.1751 -0.0907
  813MOL0     H 9723   8.361  11.455  -0.726  1.1466  0.7052 -0.3325
  813MOL0     H 9724   8.486  11.348  -0.668  1.6406  2.8659 -0.7243
  813MOL0     H 9725   8.425  11.356  -0.979 -1.2893  0.1419  0.8016
  813MOL0     H 9726   8.560  11.278  -0.884  1.5878  0.0055 -0.4882
  813MOL0     H 9727   8.639  11.475  -0.993 -0.6780  0.1853 -1.6099
  813MOL0     H 9728   8.650  11.461  -0.812 -1.4749  1.0701  0.3748
  813MOL0     H 9729   8.430  11.603  -0.950  0.2096  1.0988  0.0209
  813MOL0     H 9730   8.480  11.614  -0.783  1.7683 -0.9636  0.3486
  813MOL0     H 9731   8.521  11.806  -0.927 -1.5753 -1.1760 -1.3376
  813MOL0     H 9732   8.620  11.717  -1.037  1.4271  1.1986  1.3395
  813MOL0     H 9733   8.726  11.872  -0.836 -3.1898  0.8962 -1.0624
  813MOL0     H 9734   8.688  11.727  -0.741 -2.0413  1.9678  0.1866
  813MOL0     H 9735   8.070  11.312  -0.434  2.1273 -3.3509  1.9572
  813MOL0     H 9736   7.830  11.382  -0.357 -2.9651 -0.2072  0.0174
  813MOL0     H 9737   7.403  11.625  -0.554 -1.2959 -0.5296 -2.4917
  813MOL0     H 9738   7.173  11.648  -0.546  0.1870  0.5270  1.3753
  813MOL0     H 9739   5.851  10.613   0.502  1.5469  1.5253 -1.3541
  813MOL0     H 9740   5.674  10.650   0.696 -1.0679 -1.4240  2.9311
  813MOL0     H 9741   5.505  10.789   0.947 -1.3087  2.7274  1.1656
  813MOL0     H 9742   5.294  10.831   0.996 -0.4517  0.3459  1.1056
  813MOL0     H 9743   5.083  10.840   1.007  1.2870 -0.0536 -0.9349
  813MOL0     H 9744   5.143  10.896   1.169  0.0352 -0.9736 -0.0246
  813MOL0     H 9745   4.927  10.948   1.143  0.8275  0.1953 -0.5205
  813MOL0     H 9746   4.922  10.822   1.269  0.0079 -1.0973  0.6550
  813MOL0     H 9747   4.824  10.652   1.136  0.6600 -0.6976 -0.0842
  813MOL0     H 9748   4.869  10.726   0.988  2.4850 -0.3379  0.5217
  813MOL0     H 9749   4.690  10.918   1.079  0.2415 -0.1910 -0.9541
  813MOL0     H 9750   4.637  10.786   0.980 -0.1676  1.6298 -0.6570
  813MOL0     H 9751   4.457  10.689   1.343  2.0180 -0.9671  0.2916
  813MOL0     H 9752   5.243  10.453   1.197 -1.5760  0.1092 -2.0509
  813MOL0     H 9753   5.461  10.289   1.052 -2.5135  0.8917 -0.5313
  813MOL0     H 9754   5.572  10.370   1.174 -1.0752  0.3748  1.2790
  813MOL0     H 9755   5.406  10.313   1.217 -1.6961 -1.5914 -1.2210
  814MOL0     O 9756   0.660   4.024   3.942 -0.2562  0.1891 -0.3271
  814MOL0     C 9757   0.709   4.101   3.858  0.7373  0.1579 -0.3998
  814MOL0     O 9758   0.818   4.168   3.876 -0.1787  0.1737 -1.0267
  814MOL0     C 9759   0.889   4.173   3.997 -0.1424 -0.3173  0.0082
  814MOL0     C 9760   0.916   4.067   4.085  0.2392  0.2686  1.4393
  814MOL0     C 9761   0.979   4.086   4.204  0.4761  0.9081 -0.9497
  814MOL0     C 9762   1.025   4.209   4.249 -0.7229  0.3755  0.4813
  814MOL0     O 9763   1.083   4.208   4.375 -0.7690  0.3330 -0.0957
  814MOL0     C 9764   1.219   4.249   4.360 -0.4314 -0.7299  1.2585
  814MOL0     C 9765   1.265   4.235   4.506 -0.3522 -0.1249 -0.6341
  814MOL0     C 9766   1.410   4.292   4.509 -0.2098 -0.1703  0.1664
  814MOL0     C 9767   1.483   4.294   4.648 -0.3572  1.0694  0.5281
  814MOL0     C 9768   1.636   4.333   4.618  0.1432  0.0071 -0.3867
  814MOL0     C 9769   1.703   4.377   4.751 -1.1071  0.3738  0.4691
  814MOL0     C 9770   1.869   4.359   4.723  0.1495  0.4759 -0.8806
  814MOL0     C 9771   1.939   4.442   4.835  0.6490  0.2070  0.8633
  814MOL0     N 9772   2.085   4.431   4.814  0.1095  0.4192 -0.1616
  814MOL0     C 9773   2.159   4.319   4.820 -0.0537 -0.1481 -0.1353
  814MOL0     C 9774   2.283   4.353   4.779  0.0396 -0.3788  0.5870
  814MOL0     C 9775   2.394   4.253   4.776 -0.2434  0.1467  1.0124
  814MOL0     C 9776   2.395   4.194   4.635  0.5750  0.4307  0.2578
  814MOL0     C 9777   2.511   4.109   4.613  0.3265  0.3981  0.3784
  814MOL0     C 9778   2.509   4.044   4.465 -0.2682  0.0219  0.0373
  814MOL0     O 9779   2.506   4.152   4.366  0.1512 -0.5870  0.3978
  814MOL0     C 9780   2.632   4.175   4.316  0.3366  0.2260  0.0257
  814MOL0     C 9781   2.742   4.241   4.382  0.1250 -0.3379 -0.1868
  814MOL0     C 9782   2.861   4.269   4.309  0.6462  0.1601 -0.4043
  814MOL0     C 9783   2.869   4.232   4.175  0.0569  0.0825 -0.9051
  814MOL0     C 9784   3.001   4.267   4.105 -0.4703 -0.1260  0.4065
  814MOL0     O 9785   3.100   4.291   4.191 -0.4493 -0.4207 -0.1544
  814MOL0     C 9786   3.226   4.319   4.139 -0.7776 -0.8869  0.2226
  814MOL0     C 9787   3.312   4.219   4.098 -0.7804  0.2746  0.1094
  814MOL0     C 9788   3.446   4.255   4.052  0.8169  0.6622  0.2037
  814MOL0     C 9789   3.495   4.388   4.062  0.4168  0.1890  0.2761
  814MOL0     O 9790   3.632   4.414   4.038  0.0638 -0.2752 -0.7270
  814MOL0     C 9791   3.673   4.548   4.042  0.9811  0.3750 -0.7599
  814MOL0     C 9792   3.804   4.569   3.966 -0.5901  0.0664  0.7140
  814MOL0     C 9793   3.942   4.547   4.050  0.2580  0.5134  0.0297
  814MOL0     C 9794   4.057   4.558   3.950  0.3862  0.6145  0.4981
  814MOL0     C 9795   4.190   4.577   4.022  1.8394 -0.2082 -0.8105
  814MOL0     C 9796   4.304   4.550   3.923  0.0325  0.4281 -1.4386
  814MOL0     C 9797   4.445   4.567   3.998 -0.2581 -0.5216  0.0768
  814MOL0     C 9798   4.561   4.613   3.915 -0.2045 -0.4717  0.3314
  814MOL0    Cl 9799   4.531   4.798   3.911  0.2578 -0.1354  0.5084
  814MOL0     C 9800   3.405   4.483   4.108  0.3427 -0.1311 -0.3928
  814MOL0     C 9801   3.275   4.450   4.144  1.0156  1.0455  0.6919
  814MOL0     O 9802   3.021   4.242   3.983  0.8722  0.5482 -1.4230
  814MOL0     C 9803   2.759   4.169   4.113 -1.2354  0.7921  0.3331
  814MOL0     C 9804   2.650   4.133   4.186  0.3957 -1.0318  0.8278
  814MOL0     N 9805   2.285   4.486   4.748  0.1092  0.3709  0.1258
  814MOL0     N 9806   2.164   4.527   4.758 -0.2443  0.3525 -0.5012
  814MOL0     C 9807   1.014   4.326   4.162  0.1517 -0.5222  0.3179
  814MOL0     C 9808   0.944   4.300   4.038  0.6929 -0.0159  0.2380
  814MOL0     C 9809   0.655   4.100   3.714  0.0655  0.7949 -0.2708
  814MOL0     C 9810   0.624   4.227   3.652 -0.3234 -0.4721  0.2459
  814MOL0     C 9811   0.581   4.238   3.520  0.3879  0.4207 -0.1507
  814MOL0     C 9812   0.547   4.120   3.457  0.4031 -0.3643  0.3151
  814MOL0     O 9813   0.491   4.147   3.334 -0.3753  0.6114  0.6012
  814MOL0     C 9814   0.386   4.055   3.296  0.5931  0.2439 -0.4028
  814MOL0     C 9815   0.303   4.104   3.175  0.5204 -0.4575  0.8228
  814MOL0     C 9816   0.253   4.254   3.184 -0.2246  0.3030 -0.3623
  814MOL0     C 9817   0.141   4.264   3.293 -0.4390 -0.0053  0.3262
  814MOL0     C 9818   0.048   4.377   3.268  0.1813 -0.2335 -1.1620
  814MOL0     C 9819  -0.010   4.482   3.251 -0.3711  0.4163 -1.1050
  814MOL0     C 9820   0.578   3.994   3.515 -0.5853 -0.1296  0.0481
  814MOL0     C 9821   0.618   3.982   3.645  0.0306 -0.9570 -0.1417
  814MOL0     C 9822   0.626   3.840   3.702 -0.7234  0.3251  0.3250
  814MOL0     H 9823   0.880   3.970   4.050 -2.5800  1.5434  0.5094
  814MOL0     H 9824   0.998   3.999   4.267  2.1161  1.2065 -0.9934
  814MOL0     H 9825   1.280   4.188   4.294  0.4989  0.6319  0.8216
  814MOL0     H 9826   1.241   4.351   4.327 -0.1278 -0.7411  1.4230
  814MOL0     H 9827   1.266   4.129   4.533  2.4502  0.3629  1.6340
  814MOL0     H 9828   1.206   4.298   4.573 -0.7790 -0.4491 -0.6997
  814MOL0     H 9829   1.386   4.392   4.471 -0.8533 -0.6461 -0.7245
  814MOL0     H 9830   1.467   4.233   4.437 -0.3698 -0.6988  0.4614
  814MOL0     H 9831   1.431   4.369   4.709 -0.2807  1.6467 -0.1105
  814MOL0     H 9832   1.474   4.196   4.695 -0.5386  0.8295 -0.0060
  814MOL0     H 9833   1.679   4.245   4.570 -2.7784 -0.1980 -2.8917
  814MOL0     H 9834   1.644   4.410   4.541  0.9743 -0.3390 -0.6601
  814MOL0     H 9835   1.679   4.479   4.782 -3.8699 -0.7275  2.4108
  814MOL0     H 9836   1.660   4.308   4.825 -2.6548  0.1836 -0.5579
  814MOL0     H 9837   1.902   4.402   4.628  0.9154  1.6127 -0.1274
  814MOL0     H 9838   1.904   4.255   4.720 -1.2921 -0.2044  2.0626
  814MOL0     H 9839   1.903   4.544   4.823 -2.2166 -0.7515  0.5042
  814MOL0     H 9840   1.901   4.411   4.933 -2.0717  0.1530 -0.1106
  814MOL0     H 9841   2.120   4.222   4.849  1.3619 -0.3259  1.3166
  814MOL0     H 9842   2.487   4.309   4.790 -0.0564  0.0364  0.2318
  814MOL0     H 9843   2.379   4.176   4.852 -2.0642  1.0554  1.6480
  814MOL0     H 9844   2.302   4.137   4.627  0.2492  1.0034 -0.1039
  814MOL0     H 9845   2.401   4.273   4.559  1.0074 -0.7742 -1.0046
  814MOL0     H 9846   2.525   4.022   4.678  1.3392  0.3325  0.0899
  814MOL0     H 9847   2.605   4.161   4.630  1.4810 -1.2984 -0.5506
  814MOL0     H 9848   2.426   3.972   4.456  0.1867 -0.4125 -0.7976
  814MOL0     H 9849   2.602   3.988   4.454 -1.0626 -1.8376  2.1029
  814MOL0     H 9850   2.732   4.273   4.485  0.4144 -2.6519  0.6302
  814MOL0     H 9851   2.941   4.320   4.363  1.0866  0.5481 -1.3983
  814MOL0     H 9852   3.286   4.114   4.094 -0.2181  0.1265 -3.8914
  814MOL0     H 9853   3.506   4.174   4.012 -0.8723  0.8432 -2.9920
  814MOL0     H 9854   3.593   4.598   3.985 -1.7592 -0.7522  1.8422
  814MOL0     H 9855   3.680   4.586   4.144  0.5180  2.4064 -1.4153
  814MOL0     H 9856   3.807   4.500   3.882  0.6420 -0.3429  1.0718
  814MOL0     H 9857   3.816   4.668   3.920 -0.1290  0.1238  0.9497
  814MOL0     H 9858   3.937   4.631   4.120  1.8728 -0.4716  1.4324
  814MOL0     H 9859   3.950   4.451   4.103  0.1515  1.1465  1.2390
  814MOL0     H 9860   4.023   4.639   3.884 -5.9652 -1.9324 -0.0400
  814MOL0     H 9861   4.050   4.465   3.894  1.4754  0.6634  0.2704
  814MOL0     H 9862   4.187   4.507   4.106 -2.4071  0.5503 -0.0824
  814MOL0     H 9863   4.181   4.680   4.056 -1.8881  0.6330 -3.5930
  814MOL0     H 9864   4.290   4.449   3.883 -2.6888  1.1021 -2.3623
  814MOL0     H 9865   4.294   4.618   3.838  1.5359  1.7517 -0.6205
  814MOL0     H 9866   4.471   4.471   4.043 -0.2849 -0.8916 -0.6902
  814MOL0     H 9867   4.438   4.633   4.085  0.4591 -3.1991  2.3366
  814MOL0     H 9868   4.656   4.579   3.957  0.1645 -1.0561 -0.9195
  814MOL0     H 9869   4.560   4.570   3.814 -1.2060 -2.4638  1.1458
  814MOL0     H 9870   3.425   4.590   4.109 -1.9423  0.4386 -2.3390
  814MOL0     H 9871   3.207   4.529   4.175  1.6140  2.2811 -0.9609
  814MOL0     H 9872   2.777   4.139   4.010  0.6704  0.0185  0.8578
  814MOL0     H 9873   2.567   4.073   4.152 -0.4115  0.5921 -0.2181
  814MOL0     H 9874   1.053   4.427   4.173  1.0833 -0.8201 -0.0841
  814MOL0     H 9875   0.933   4.373   3.959  2.3767  1.2552  1.1159
  814MOL0     H 9876   0.642   4.312   3.716  0.7276 -1.2663  1.0442
  814MOL0     H 9877   0.548   4.334   3.481  1.0540  0.6589 -0.1436
  814MOL0     H 9878   0.328   4.043   3.388  4.0577  1.3603  2.1294
  814MOL0     H 9879   0.433   3.960   3.269 -3.4020 -1.9954 -0.3138
  814MOL0     H 9880   0.213   4.043   3.160  1.3474 -1.8171  1.2582
  814MOL0     H 9881   0.362   4.097   3.083 -2.7614  2.4459 -1.7835
  814MOL0     H 9882   0.228   4.276   3.080  0.3969 -0.5732 -0.7152
  814MOL0     H 9883   0.332   4.323   3.217  0.8449 -1.3039  0.5836
  814MOL0     H 9884   0.087   4.168   3.293  0.9639 -0.9519  3.5992
  814MOL0     H 9885   0.196   4.264   3.388  0.5056 -0.1789 -0.2120
  814MOL0     H 9886  -0.059   4.575   3.231  0.8101  1.2068 -0.3677
  814MOL0     H 9887   0.573   3.897   3.465 -1.1168 -1.9980  3.4057
  814MOL0     H 9888   0.553   3.823   3.782  2.0344 -0.9549  2.7887
  814MOL0     H 9889   0.621   3.773   3.617  0.0231  0.6420  0.0185
  814MOL0     H 9890   0.722   3.821   3.751 -2.0416 -2.2481  2.1675
  815MOL0     O 9891   6.234  10.247   9.374  0.8552 -0.4715 -0.1126
  815MOL0     C 9892   6.272  10.146   9.321  0.1832  0.1232  0.6875
  815MOL0     O 9893   6.184  10.044   9.288  0.5543 -0.5697  1.0600
  815MOL0     C 9894   6.051  10.034   9.318 -0.7252  0.1723 -0.0331
  815MOL0     C 9895   5.994  10.100   9.431 -0.4941  0.3890  0.2996
  815MOL0     C 9896   5.864  10.101   9.456 -0.0136 -0.4999  0.4014
  815MOL0     C 9897   5.773  10.041   9.377  0.1632  0.0851  0.1185
  815MOL0     O 9898   5.636  10.060   9.401  0.2150  0.5921 -0.3956
  815MOL0     C 9899   5.602   9.982   9.528  0.9075 -0.0103  0.3693
  815MOL0     C 9900   5.615   9.830   9.513 -0.5406 -0.1181  0.7781
  815MOL0     C 9901   5.526   9.782   9.394 -0.0200 -0.4204 -0.3097
  815MOL0     C 9902   5.497   9.629   9.382  0.5909 -0.2521 -0.0110
  815MOL0     C 9903   5.387   9.594   9.275 -0.6952 -0.6319 -1.1339
  815MOL0     C 9904   5.251   9.592   9.343 -0.3119  0.9575  0.9753
  815MOL0     C 9905   5.140   9.532   9.258  0.3221  0.8927  0.3876
  815MOL0     C 9906   5.134   9.573   9.106  0.8235  1.1554  0.2193
  815MOL0     N 9907   5.108   9.721   9.097 -0.7453 -0.2288  0.3034
  815MOL0     C 9908   5.205   9.815   9.073 -0.0522 -0.0201 -0.6035
  815MOL0     C 9909   5.142   9.936   9.101  0.2510  0.5109 -0.6820
  815MOL0     C 9910   5.215  10.069   9.093  0.3808 -0.0190 -0.1690
  815MOL0     C 9911   5.366  10.062   9.085  0.0615 -0.0702  0.6213
  815MOL0     C 9912   5.420  10.211   9.083  0.5279  0.4697 -0.5135
  815MOL0     C 9913   5.576  10.216   9.084 -0.5101  0.0210 -0.3850
  815MOL0     O 9914   5.638  10.215   8.956  0.5380  0.8808 -0.0847
  815MOL0     C 9915   5.772  10.235   8.960  0.2043 -0.5938 -1.2296
  815MOL0     C 9916   5.838  10.237   8.837  0.4575  0.8532 -0.8902
  815MOL0     C 9917   5.966  10.265   8.834  0.0798 -0.0306 -0.2076
  815MOL0     C 9918   6.049  10.288   8.945 -0.4464  0.8354 -0.6026
  815MOL0     C 9919   6.203  10.304   8.933 -0.0210 -0.2325  0.6490
  815MOL0     O 9920   6.260  10.316   8.809  0.0900  0.2322  0.4067
  815MOL0     C 9921   6.392  10.332   8.805 -1.0650  0.9601  0.6647
  815MOL0     C 9922   6.446  10.439   8.740  0.7935 -0.6737  1.4273
  815MOL0     C 9923   6.584  10.458   8.733  0.0700  0.2455 -0.0494
  815MOL0     C 9924   6.678  10.374   8.797 -0.3975  0.7222  0.4085
  815MOL0     O 9925   6.817  10.381   8.788  0.6032 -0.2002 -0.2245
  815MOL0     C 9926   6.869  10.501   8.729  0.3777 -0.9554  0.7572
  815MOL0     C 9927   6.999  10.549   8.802 -0.4907  0.2845 -0.0261
  815MOL0     C 9928   7.096  10.440   8.840  0.9029  0.8416  0.4985
  815MOL0     C 9929   7.232  10.488   8.895 -0.0556 -0.1038 -0.4057
  815MOL0     C 9930   7.233  10.580   9.025 -0.5941 -0.4330 -0.0233
  815MOL0     C 9931   7.380  10.596   9.069 -0.2529  0.7280  0.3455
  815MOL0     C 9932   7.386  10.681   9.184 -0.1677  0.0582 -0.6036
  815MOL0     C 9933   7.505  10.666   9.274 -0.6409  0.2175 -0.0154
  815MOL0    Cl 9934   7.477  10.776   9.413  0.1404 -0.2032  0.0126
  815MOL0     C 9935   6.623  10.260   8.861 -0.1958  0.6501 -0.9733
  815MOL0     C 9936   6.485  10.242   8.862  0.6055  0.3523  0.5398
  815MOL0     O 9937   6.253  10.327   9.040  0.5811  0.2018  0.3519
  815MOL0     C 9938   5.989  10.277   9.071  0.0849 -0.3404  0.1475
  815MOL0     C 9939   5.847  10.255   9.079 -0.4428  0.2356  0.5025
  815MOL0     N 9940   5.013   9.909   9.137 -0.7571 -0.2842 -0.1138
  815MOL0     N 9941   4.993   9.784   9.125  0.3306 -0.3875  0.8300
  815MOL0     C 9942   5.825   9.973   9.259 -0.1614 -1.0458  0.8600
  815MOL0     C 9943   5.963   9.976   9.234 -1.4350 -0.6320  0.1221
  815MOL0     C 9944   6.415  10.134   9.286 -1.0505 -0.1772  0.2073
  815MOL0     C 9945   6.492  10.251   9.276 -0.3972 -0.1415 -0.5459
  815MOL0     C 9946   6.628  10.247   9.259  0.6094  0.5106 -0.2810
  815MOL0     C 9947   6.698  10.129   9.228  0.5550  0.6374  0.3843
  815MOL0     O 9948   6.829  10.113   9.219 -0.7032 -0.5047 -0.6563
  815MOL0     C 9949   6.909  10.228   9.205 -0.0454  0.1579  0.4599
  815MOL0     C 9950   6.964  10.283   9.329 -0.5064 -0.3805 -0.4458
  815MOL0     C 9951   7.069  10.187   9.394 -0.4143 -0.1138 -0.5656
  815MOL0     C 9952   7.214  10.247   9.387  0.5869  0.3196  1.4698
  815MOL0     C 9953   7.231  10.374   9.440 -0.0432 -0.2502  0.4073
  815MOL0     C 9954   7.243  10.482   9.477  0.2659 -0.6037 -0.6483
  815MOL0     C 9955   6.608  10.008   9.225  0.5179  0.1614  0.2858
  815MOL0     C 9956   6.473  10.006   9.256 -0.3809  0.2184 -0.9105
  815MOL0     C 9957   6.404   9.870   9.272 -0.3145  0.2475 -0.3539
  815MOL0     H 9958   6.053  10.167   9.494 -2.6485  2.2758  0.4325
  815MOL0     H 9959   5.827  10.153   9.544 -0.2522 -2.1796  1.3418
  815MOL0     H 9960   5.670  10.009   9.609  0.6226 -0.8181  0.8939
  815MOL0     H 9961   5.504  10.019   9.560  1.3139  1.9380 -0.5121
  815MOL0     H 9962   5.580   9.783   9.605  1.8173  1.1765  2.4392
  815MOL0     H 9963   5.718   9.798   9.497 -0.5102  0.3456 -0.0492
  815MOL0     H 9964   5.558   9.813   9.294  0.6693 -0.1163 -0.0045
  815MOL0     H 9965   5.430   9.828   9.416  1.4534  2.9927 -0.4457
  815MOL0     H 9966   5.586   9.583   9.338  0.1564  0.2643 -1.4928
  815MOL0     H 9967   5.469   9.592   9.481  0.2470  1.1224  0.4344
  815MOL0     H 9968   5.389   9.655   9.184  0.4490 -0.8849 -1.2983
  815MOL0     H 9969   5.404   9.492   9.239 -1.8345 -0.7127 -1.4769
  815MOL0     H 9970   5.258   9.519   9.425 -3.7506 -1.0852 -0.3338
  815MOL0     H 9971   5.210   9.685   9.384 -1.7128  0.2375  1.2959
  815MOL0     H 9972   5.044   9.556   9.306  1.6134 -0.9348  4.2271
  815MOL0     H 9973   5.153   9.423   9.257  0.3410  0.8920 -1.2108
  815MOL0     H 9974   5.222   9.538   9.052  0.1428 -1.3357  0.6172
  815MOL0     H 9975   5.046   9.530   9.058  0.7440 -0.6137  1.8659
  815MOL0     H 9976   5.310   9.800   9.050  0.7407  2.5355  0.9969
  815MOL0     H 9977   5.170  10.126   9.012  2.5861  0.5358 -1.0919
  815MOL0     H 9978   5.198  10.123   9.186  1.1924 -0.5656  0.3179
  815MOL0     H 9979   5.401  10.013   9.177  2.0025 -0.9395 -0.5012
  815MOL0     H 9980   5.404  10.005   8.999  1.3869  1.0625  0.4144
  815MOL0     H 9981   5.367  10.260   9.166  0.6434  1.0697 -0.7901
  815MOL0     H 9982   5.386  10.264   8.994  1.6066  2.5443  0.2358
  815MOL0     H 9983   5.619  10.145   9.155  1.1521  1.8283  0.5145
  815MOL0     H 9984   5.592  10.314   9.129  0.0855  1.4585 -3.4975
  815MOL0     H 9985   5.775  10.209   8.754 -0.6898  0.1650  0.1814
  815MOL0     H 9986   6.019  10.268   8.740  1.0964  1.6897  0.3825
  815MOL0     H 9987   6.384  10.508   8.684  0.3461 -2.0707  0.1377
  815MOL0     H 9988   6.623  10.529   8.660  0.4588 -1.1403 -1.2469
  815MOL0     H 9989   6.897  10.466   8.629 -0.5747 -1.8369  0.7817
  815MOL0     H 9990   6.806  10.590   8.724 -0.4462 -1.5816 -1.0285
  815MOL0     H 9991   7.045  10.633   8.748 -0.1497  0.9440  1.2578
  815MOL0     H 9992   6.962  10.590   8.897  0.1204 -0.2090  0.4328
  815MOL0     H 9993   7.039  10.371   8.903  1.1119  0.3513  0.1599
  815MOL0     H 9994   7.108  10.373   8.754 -4.6178 -1.6890  1.3002
  815MOL0     H 9995   7.285  10.537   8.813 -1.6462  1.1649 -0.7211
  815MOL0     H 9996   7.285  10.396   8.923 -1.1586 -0.2575  1.3205
  815MOL0     H 9997   7.181  10.530   9.107 -1.4846  0.6171  0.0588
  815MOL0     H 9998   7.185  10.676   9.008  1.9106  0.5674 -2.2429
  815MOL0     H 9999   7.426  10.500   9.094  0.5186  1.1898  0.7473
  815MOL0     H10000   7.438  10.652   8.994  1.9531 -0.6048  0.9710
  815MOL0     H10001   7.296  10.674   9.246 -1.2799  2.4019 -1.8219
  815MOL0     H10002   7.382  10.788   9.160 -2.5775  0.9834  3.0226
  815MOL0     H10003   7.513  10.565   9.316  0.0586  0.4519  0.4237
  815MOL0     H10004   7.594  10.696   9.218  1.5620  2.6777  4.3403
  815MOL0     H10005   6.678  10.183   8.913 -0.3387  2.4373  2.0061
  815MOL0     H10006   6.434  10.154   8.901  1.2395 -0.5852 -0.6695
  815MOL0     H10007   6.050  10.289   9.160  3.0525  1.1561 -1.9193
  815MOL0     H10008   5.799  10.261   9.175 -0.8432 -0.6636  0.3643
  815MOL0     H10009   5.758   9.913   9.199  1.0233  0.4818 -2.1587
  815MOL0     H10010   5.993   9.920   9.146  2.6867  2.1904 -0.5627
  815MOL0     H10011   6.447  10.348   9.294  1.5978  0.8443 -0.5512
  815MOL0     H10012   6.672  10.345   9.273  0.2705  0.7714 -0.9929
  815MOL0     H10013   6.856  10.313   9.162 -0.4316  0.3264  1.2346
  815MOL0     H10014   6.989  10.198   9.137 -0.6974  0.6381 -0.5337
  815MOL0     H10015   6.880  10.277   9.399 -2.8769 -0.7003 -3.1437
  815MOL0     H10016   6.996  10.388   9.325 -0.9866 -0.2638 -1.2581
  815MOL0     H10017   7.062  10.083   9.361  0.1099 -1.5240  3.2274
  815MOL0     H10018   7.043  10.186   9.500 -1.1838  3.1088 -0.6281
  815MOL0     H10019   7.293  10.185   9.431  2.3664  0.3293 -1.4541
  815MOL0     H10020   7.235  10.263   9.281 -1.8774 -1.6967  0.5757
  815MOL0     H10021   7.247  10.586   9.503  1.5550 -0.5253 -1.0911
  815MOL0     H10022   6.653   9.910   9.212  2.0786  0.6923  1.4182
  815MOL0     H10023   6.332   9.875   9.354  0.4438  0.7834  0.3063
  815MOL0     H10024   6.361   9.835   9.178 -0.0188 -1.3101  0.0636
  815MOL0     H10025   6.479   9.791   9.284 -0.4093 -0.4228 -3.2740
  816MOL0     O10026   0.131   1.455   1.726  0.2059  0.4850  0.0822
  816MOL0     C10027   0.023   1.396   1.757 -0.0553  0.1499  0.3166
  816MOL0     O10028   0.002   1.270   1.808  0.5006 -0.0453 -0.1372
  816MOL0     C10029   0.115   1.193   1.836  0.3327 -0.6521  0.2340
  816MOL0     C10030   0.182   1.137   1.726  0.2711  0.9540  0.0470
  816MOL0     C10031   0.302   1.071   1.753  0.4704 -0.3319  0.8581
  816MOL0     C10032   0.358   1.062   1.881 -0.2407  1.1925  0.2034
  816MOL0     O10033   0.487   1.014   1.886  0.2543  0.0057 -0.4188
  816MOL0     C10034   0.554   0.984   2.009  0.7097  0.0617  0.3482
  816MOL0     C10035   0.668   0.882   1.986 -0.8008  0.2168 -0.0829
  816MOL0     C10036   0.785   0.961   1.934 -0.1783 -0.3162 -0.4506
  816MOL0     C10037   0.911   0.869   1.940  0.0252 -0.4358  0.8739
  816MOL0     C10038   0.905   0.752   1.845 -0.4437  0.2800  0.3433
  816MOL0     C10039   1.045   0.717   1.781  0.2391  0.4247 -0.1885
  816MOL0     C10040   1.032   0.615   1.666  0.3374 -0.1496 -0.0034
  816MOL0     C10041   1.170   0.532   1.659  0.8992  0.6876 -0.8801
  816MOL0     N10042   1.197   0.439   1.776  0.8031  0.1229  0.3428
  816MOL0     C10043   1.180   0.302   1.764  1.1111 -0.0691  0.6568
  816MOL0     C10044   1.231   0.254   1.880 -0.0535 -1.0023  0.2565
  816MOL0     C10045   1.244   0.109   1.935  0.7467 -0.3855  0.1054
  816MOL0     C10046   1.105   0.027   1.967 -0.3095  0.2293  0.2939
  816MOL0     C10047   1.123  -0.119   2.016 -0.8047  0.3206  0.2320
  816MOL0     C10048   0.986  -0.176   2.069 -0.2120  0.0999  0.5636
  816MOL0     O10049   0.954  -0.121   2.196  0.0004  0.0090  0.2057
  816MOL0     C10050   0.849  -0.177   2.271  0.4095 -0.4805 -0.9043
  816MOL0     C10051   0.808  -0.113   2.389  0.2947 -0.7201  0.2592
  816MOL0     C10052   0.695  -0.158   2.461  0.6217  0.2148 -0.7845
  816MOL0     C10053   0.628  -0.272   2.412  1.1248  0.2862 -0.2838
  816MOL0     C10054   0.493  -0.305   2.468  0.1344  0.3114 -0.9822
  816MOL0     O10055   0.434  -0.209   2.557 -0.0215  0.2782 -0.3405
  816MOL0     C10056   0.296  -0.217   2.576 -0.4583  1.0479  0.5223
  816MOL0     C10057   0.234  -0.305   2.669 -0.2548 -0.1303  0.0876
  816MOL0     C10058   0.090  -0.317   2.673 -0.2675  0.0528  0.7100
  816MOL0     C10059   0.017  -0.239   2.580 -0.0389  0.0632 -0.1678
  816MOL0     O10060  -0.115  -0.254   2.567 -0.7551  0.0197 -0.4533
  816MOL0     C10061  -0.189  -0.171   2.472 -0.5083  0.0350 -0.5422
  816MOL0     C10062  -0.343  -0.198   2.479 -0.1254 -0.4283 -0.8715
  816MOL0     C10063  -0.400  -0.141   2.616  0.7742 -0.1297 -0.4528
  816MOL0     C10064  -0.543  -0.182   2.610  0.4738  0.8592  0.5345
  816MOL0     C10065  -0.612  -0.130   2.731  0.0780  0.3576  0.7788
  816MOL0     C10066  -0.760  -0.166   2.735 -0.1689 -0.4670  0.1674
  816MOL0     C10067  -0.841  -0.079   2.824  0.6572  0.2828 -0.6224
  816MOL0     C10068  -0.987  -0.137   2.842 -0.8272 -0.1218  1.1938
  816MOL0    Cl10069  -1.060  -0.183   2.689  0.0175 -0.0272 -0.2236
  816MOL0     C10070   0.084  -0.135   2.504 -0.5632  0.0052 -0.4007
  816MOL0     C10071   0.222  -0.134   2.492  0.1715  0.4350  0.4348
  816MOL0     O10072   0.451  -0.415   2.437 -0.0561 -0.0893  0.5652
  816MOL0     C10073   0.667  -0.333   2.296 -0.5914 -0.2396  1.0807
  816MOL0     C10074   0.777  -0.288   2.229 -0.1067 -1.1000  0.5628
  816MOL0     N10075   1.283   0.356   1.954  0.4689 -0.1663 -0.4982
  816MOL0     N10076   1.251   0.467   1.899 -0.0271  0.0957  0.2881
  816MOL0     C10077   0.282   1.109   1.985  0.3023 -0.7185  0.0219
  816MOL0     C10078   0.161   1.178   1.965  0.2763 -0.5110  0.8547
  816MOL0     C10079  -0.096   1.480   1.736  0.0799 -1.2236  0.0202
  816MOL0     C10080  -0.207   1.411   1.692  0.3446  0.7095 -1.1726
  816MOL0     C10081  -0.327   1.480   1.647  0.2225  0.5746  0.6094
  816MOL0     C10082  -0.343   1.614   1.664  0.6210  0.6705 -0.4695
  816MOL0     O10083  -0.465   1.676   1.631 -0.3840 -0.7451 -0.1930
  816MOL0     C10084  -0.482   1.817   1.667  0.5662  0.4420  0.0006
  816MOL0     C10085  -0.631   1.865   1.634 -0.1243 -0.2904  0.6797
  816MOL0     C10086  -0.644   2.014   1.689  0.8531  0.8270  0.4375
  816MOL0     C10087  -0.782   2.026   1.760 -0.1354 -0.0275 -0.1241
  816MOL0     C10088  -0.897   2.043   1.665 -0.1885 -0.0427 -0.3097
  816MOL0     C10089  -0.978   2.060   1.578  0.7783 -0.8308 -0.2970
  816MOL0     C10090  -0.240   1.687   1.722  0.4437  1.5458 -0.4102
  816MOL0     C10091  -0.118   1.622   1.766  0.0766  0.2051 -0.1085
  816MOL0     C10092  -0.014   1.707   1.825 -0.3392 -0.0070  0.5820
  816MOL0     H10093   0.128   1.132   1.632 -1.2645  0.6668  0.9083
  816MOL0     H10094   0.351   1.037   1.663  0.8836 -2.2516  1.7687
  816MOL0     H10095   0.579   1.077   2.059 -2.0326 -0.7259  3.5648
  816MOL0     H10096   0.484   0.947   2.085  2.0902 -1.2070  1.0597
  816MOL0     H10097   0.637   0.797   1.924 -0.9414  0.8410 -0.8758
  816MOL0     H10098   0.696   0.836   2.082 -0.0905  3.1415  1.2217
  816MOL0     H10099   0.804   1.050   1.995  0.2016 -1.9778  1.9684
  816MOL0     H10100   0.781   1.008   1.835 -0.7476  0.2893 -0.1503
  816MOL0     H10101   0.987   0.936   1.898 -1.0161 -0.9678 -2.1598
  816MOL0     H10102   0.923   0.827   2.040 -2.6112 -1.9943  0.6364
  816MOL0     H10103   0.863   0.658   1.881  0.1709  0.8280  2.6420
  816MOL0     H10104   0.846   0.778   1.757  1.1279 -0.4416 -0.9631
  816MOL0     H10105   1.091   0.811   1.751  1.1947  1.0140  2.7386
  816MOL0     H10106   1.105   0.672   1.861  0.5876  0.9432 -0.1574
  816MOL0     H10107   1.030   0.680   1.577 -0.3249  3.3996  2.3971
  816MOL0     H10108   0.944   0.550   1.664  0.1650  0.0949 -0.9461
  816MOL0     H10109   1.177   0.480   1.563 -0.9578 -1.4902  0.0425
  816MOL0     H10110   1.251   0.604   1.657  0.1065  1.7085  0.8844
  816MOL0     H10111   1.141   0.254   1.674 -0.3094  1.0034  0.6730
  816MOL0     H10112   1.300   0.055   1.859 -0.9723  0.7394 -2.0996
  816MOL0     H10113   1.298   0.115   2.030  4.5171  4.3025 -1.9267
  816MOL0     H10114   1.065   0.078   2.055  0.5141 -2.4788  2.3934
  816MOL0     H10115   1.033   0.020   1.885 -2.6837 -0.1249  2.2904
  816MOL0     H10116   1.187  -0.116   2.104  2.2892 -0.5132 -1.8212
  816MOL0     H10117   1.163  -0.190   1.943  1.2973 -2.3936  3.7231
  816MOL0     H10118   0.996  -0.283   2.092  0.0578 -0.3035 -1.3401
  816MOL0     H10119   0.908  -0.166   1.993  1.3480 -0.0671 -1.1106
  816MOL0     H10120   0.862  -0.024   2.419  0.1674  0.0062 -1.5001
  816MOL0     H10121   0.655  -0.102   2.546 -0.9527 -1.0598 -0.6281
  816MOL0     H10122   0.284  -0.363   2.747 -3.7029 -0.9781  1.8729
  816MOL0     H10123   0.046  -0.381   2.749  0.0693 -0.7915  0.2187
  816MOL0     H10124  -0.170  -0.064   2.490  1.6284 -0.0138 -2.0441
  816MOL0     H10125  -0.143  -0.198   2.377  1.5746 -0.9380  0.6508
  816MOL0     H10126  -0.398  -0.125   2.419 -1.4990  0.5980  1.4815
  816MOL0     H10127  -0.374  -0.300   2.454 -0.3572 -1.1217  1.8663
  816MOL0     H10128  -0.360  -0.189   2.705  0.0003  0.1625  0.0641
  816MOL0     H10129  -0.394  -0.032   2.625  0.4924 -0.1143 -0.4422
  816MOL0     H10130  -0.560  -0.289   2.594  2.7564  0.5894 -0.5188
  816MOL0     H10131  -0.588  -0.125   2.528  2.0324  1.5489  0.1112
  816MOL0     H10132  -0.608  -0.021   2.723  0.6344  0.3107  0.3811
  816MOL0     H10133  -0.557  -0.156   2.822  1.1005 -1.1374 -0.2183
  816MOL0     H10134  -0.808  -0.155   2.638 -4.0442 -0.9218  1.8306
  816MOL0     H10135  -0.776  -0.269   2.771 -2.6864  0.4808  2.0760
  816MOL0     H10136  -0.851   0.022   2.784  1.8743  0.9188  0.5567
  816MOL0     H10137  -0.795  -0.072   2.923  2.6530  2.0236 -1.6042
  816MOL0     H10138  -0.979  -0.226   2.906 -0.5623 -1.9338 -1.1960
  816MOL0     H10139  -1.055  -0.065   2.888 -0.6430 -1.1673  3.2270
  816MOL0     H10140   0.032  -0.060   2.445 -0.0581 -0.8334 -1.9528
  816MOL0     H10141   0.264  -0.070   2.415 -1.3481  1.1774  0.1941
  816MOL0     H10142   0.617  -0.425   2.266 -0.7170 -0.4016  1.7637
  816MOL0     H10143   0.799  -0.336   2.134 -0.2364  2.6601 -1.5961
  816MOL0     H10144   0.327   1.112   2.084 -1.8005  0.4237  1.0077
  816MOL0     H10145   0.106   1.232   2.041 -0.0167 -0.3185  0.5067
  816MOL0     H10146  -0.202   1.303   1.678  3.0048  0.4695  0.8834
  816MOL0     H10147  -0.401   1.416   1.600  0.9904  0.6986 -0.8262
  816MOL0     H10148  -0.409   1.873   1.608  1.8982 -2.3218 -1.1286
  816MOL0     H10149  -0.463   1.835   1.773 -2.0215  1.5776  0.3609
  816MOL0     H10150  -0.697   1.807   1.699 -1.1381  0.4554  0.3360
  816MOL0     H10151  -0.649   1.853   1.527 -0.9688 -1.9897  0.9741
  816MOL0     H10152  -0.635   2.083   1.605  0.1275  2.6259  1.7922
  816MOL0     H10153  -0.569   2.039   1.765  1.1308 -1.6083  1.0639
  816MOL0     H10154  -0.799   1.949   1.836  2.9227 -1.3051 -0.5687
  816MOL0     H10155  -0.775   2.116   1.821  1.5581  0.5504 -1.1087
  816MOL0     H10156  -1.050   2.096   1.508 -2.1784 -5.4301 -0.0559
  816MOL0     H10157  -0.254   1.789   1.758 -1.0514  1.1215  0.3070
  816MOL0     H10158   0.020   1.779   1.749 -0.7757  1.2021  1.5051
  816MOL0     H10159  -0.041   1.768   1.912 -2.8213  0.9605 -0.7514
  816MOL0     H10160   0.072   1.645   1.852 -0.4108 -1.6024 -2.3731
  817MOL0     O10161   5.623   0.983   4.165  0.1816  1.1184 -0.8306
  817MOL0     C10162   5.554   0.977   4.266  0.2727  0.1672  0.4726
  817MOL0     O10163   5.598   0.952   4.397 -0.0636 -0.2106 -0.0860
  817MOL0     C10164   5.729   0.923   4.435 -0.2010 -0.6631  0.8889
  817MOL0     C10165   5.821   0.859   4.351 -0.6322  0.7473  0.2950
  817MOL0     C10166   5.943   0.814   4.408  0.5729 -0.2291  0.1536
  817MOL0     C10167   5.979   0.843   4.534 -0.8677 -0.0468 -0.7591
  817MOL0     O10168   6.108   0.819   4.571  0.0933 -0.3356  0.4012
  817MOL0     C10169   6.134   0.824   4.712 -0.4974 -0.8588 -0.5490
  817MOL0     C10170   6.279   0.813   4.741 -0.5006 -0.5317 -0.0056
  817MOL0     C10171   6.322   0.797   4.889 -0.2826 -0.3685 -0.0008
  817MOL0     C10172   6.475   0.780   4.891 -0.3284 -0.0690 -0.0854
  817MOL0     C10173   6.530   0.757   5.041  0.4613 -0.4702  0.4837
  817MOL0     C10174   6.676   0.710   5.062  0.4507 -0.8474  0.3439
  817MOL0     C10175   6.777   0.812   5.007 -0.1322 -0.0344 -0.1240
  817MOL0     C10176   6.916   0.761   5.035  0.3438 -0.2730 -0.4518
  817MOL0     N10177   7.011   0.852   4.975  1.0691 -0.0358 -0.8102
  817MOL0     C10178   7.040   0.977   5.033 -0.4096  0.2123 -0.3586
  817MOL0     C10179   7.141   1.025   4.959 -0.0355  0.0474  0.1323
  817MOL0     C10180   7.212   1.157   4.986  0.1178  0.1461  0.8110
  817MOL0     C10181   7.306   1.168   4.878  0.3689  0.5180 -0.3330
  817MOL0     C10182   7.412   1.276   4.905  0.1155  0.3321  0.0018
  817MOL0     C10183   7.494   1.301   4.786 -0.2394  0.6112 -0.0358
  817MOL0     O10184   7.624   1.324   4.827 -0.4882 -0.5413 -0.7118
  817MOL0     C10185   7.736   1.279   4.773 -0.7027  0.3423  0.0219
  817MOL0     C10186   7.841   1.287   4.859 -1.7201 -0.3320 -1.0890
  817MOL0     C10187   7.965   1.222   4.830 -0.1664  0.3148  0.3571
  817MOL0     C10188   7.982   1.148   4.709 -0.5298  0.1818 -0.0983
  817MOL0     C10189   8.108   1.083   4.660  0.6232  0.7383  0.3144
  817MOL0     O10190   8.212   1.079   4.747 -0.0559  0.0926 -0.0667
  817MOL0     C10191   8.332   1.127   4.710 -0.4127 -0.1021 -0.4114
  817MOL0     C10192   8.358   1.214   4.597 -0.1386  0.0636 -0.5267
  817MOL0     C10193   8.493   1.251   4.572 -0.7832 -0.2891 -0.1978
  817MOL0     C10194   8.595   1.203   4.659  0.2426 -0.9179  0.1134
  817MOL0     O10195   8.728   1.246   4.649 -0.6987  0.7739 -0.1975
  817MOL0     C10196   8.755   1.384   4.615 -0.0000  0.6373 -0.0333
  817MOL0     C10197   8.896   1.431   4.634 -0.1888 -0.5214  0.1234
  817MOL0     C10198   8.947   1.440   4.772 -0.1111  0.3015  0.4096
  817MOL0     C10199   9.084   1.504   4.779 -0.4058  0.5196  0.6710
  817MOL0     C10200   9.138   1.544   4.923  0.4778  0.3855 -0.3462
  817MOL0     C10201   9.277   1.608   4.912  0.6057 -0.2558 -0.0106
  817MOL0     C10202   9.379   1.505   4.883 -0.2893 -0.2438  1.1719
  817MOL0     C10203   9.516   1.573   4.832 -0.7666  0.7634 -0.9868
  817MOL0    Cl10204   9.593   1.629   4.979 -0.5513 -0.3725  0.0186
  817MOL0     C10205   8.565   1.130   4.772  0.1014 -0.7172 -0.7624
  817MOL0     C10206   8.432   1.090   4.800 -0.2863  1.3453  0.1456
  817MOL0     O10207   8.113   1.057   4.543 -0.0721  1.1922  0.2131
  817MOL0     C10208   7.873   1.142   4.626 -0.3760  0.0051 -0.8608
  817MOL0     C10209   7.751   1.203   4.656 -0.4567 -0.6637 -0.5625
  817MOL0     N10210   7.166   0.939   4.847 -0.5976  0.3771 -0.2995
  817MOL0     N10211   7.090   0.835   4.859 -0.3793  0.5662 -0.2926
  817MOL0     C10212   5.882   0.909   4.616  0.6845  0.2167 -0.3545
  817MOL0     C10213   5.762   0.953   4.564  0.0940 -0.3911 -0.4340
  817MOL0     C10214   5.411   1.031   4.251 -0.7681  1.3741 -1.1413
  817MOL0     C10215   5.358   1.099   4.366 -0.1783 -0.0888 -0.2033
  817MOL0     C10216   5.237   1.173   4.356 -0.3132  0.4436 -0.6594
  817MOL0     C10217   5.153   1.158   4.242 -0.8076  0.2094 -0.0368
  817MOL0     O10218   5.025   1.207   4.223  0.2141 -0.0631 -0.0246
  817MOL0     C10219   4.965   1.282   4.334 -0.7238  0.6087  0.1122
  817MOL0     C10220   4.852   1.368   4.275  1.0069 -1.2282 -0.3876
  817MOL0     C10221   4.744   1.279   4.202  0.1848 -0.1968  0.5452
  817MOL0     C10222   4.626   1.369   4.135  0.5316 -1.1512 -0.1961
  817MOL0     C10223   4.679   1.442   4.013  0.1684 -0.1522 -0.4950
  817MOL0     C10224   4.726   1.515   3.929  0.9290  0.1407 -0.2021
  817MOL0     C10225   5.206   1.092   4.137 -0.1774 -0.0856  0.2347
  817MOL0     C10226   5.332   1.037   4.137  0.1468  0.7195 -0.0127
  817MOL0     C10227   5.373   0.962   4.012  0.2483 -0.5229  0.1332
  817MOL0     H10228   5.807   0.832   4.247  0.5614 -0.4910  0.4117
  817MOL0     H10229   6.010   0.756   4.346 -2.4429 -1.3976 -2.2380
  817MOL0     H10230   6.101   0.917   4.758  1.6025  0.6198 -1.9004
  817MOL0     H10231   6.074   0.741   4.752 -1.4091 -0.6072 -1.3541
  817MOL0     H10232   6.326   0.899   4.692 -1.2953 -1.0152 -1.6763
  817MOL0     H10233   6.317   0.719   4.701 -0.7325 -0.3181 -0.7537
  817MOL0     H10234   6.271   0.707   4.925  2.7778 -2.1262  0.3051
  817MOL0     H10235   6.290   0.882   4.950  1.3529 -0.6801  1.3514
  817MOL0     H10236   6.503   0.687   4.839  0.1898  1.1056 -1.9852
  817MOL0     H10237   6.524   0.865   4.844  0.6966 -0.4039  0.3367
  817MOL0     H10238   6.508   0.852   5.092 -1.4855  0.1533 -1.4012
  817MOL0     H10239   6.467   0.678   5.082  0.9420 -0.8345  0.5405
  817MOL0     H10240   6.698   0.688   5.167 -0.0777  1.4393  1.0132
  817MOL0     H10241   6.681   0.623   4.997 -2.1326 -1.4522  0.8299
  817MOL0     H10242   6.752   0.904   5.060  2.4667 -1.1118  3.3296
  817MOL0     H10243   6.780   0.839   4.901  3.1987  3.3157  0.5867
  817MOL0     H10244   6.944   0.743   5.139  0.5274  0.6329 -0.3426
  817MOL0     H10245   6.924   0.672   4.971  2.1169 -1.6292  1.5297
  817MOL0     H10246   6.995   1.019   5.122  0.9716  2.0867 -0.4713
  817MOL0     H10247   7.128   1.226   4.988 -0.9669 -1.1486  2.3901
  817MOL0     H10248   7.270   1.140   5.077  1.1629  1.3562  0.4036
  817MOL0     H10249   7.367   1.077   4.869 -0.1492  0.1296 -0.0045
  817MOL0     H10250   7.254   1.196   4.786 -0.0102 -2.4866 -1.1672
  817MOL0     H10251   7.469   1.228   4.985 -2.5700 -2.4493  0.4294
  817MOL0     H10252   7.370   1.373   4.935 -4.6290 -0.7968 -2.1233
  817MOL0     H10253   7.460   1.393   4.737 -2.4518  1.5394  2.9575
  817MOL0     H10254   7.484   1.221   4.712  1.4285 -0.6441  1.0326
  817MOL0     H10255   7.824   1.337   4.954 -0.8282 -1.9608 -0.0245
  817MOL0     H10256   8.048   1.233   4.899 -0.3164 -0.8040  0.7410
  817MOL0     H10257   8.278   1.248   4.532 -1.4857 -0.3345  0.8634
  817MOL0     H10258   8.518   1.316   4.489 -0.6921  3.0447  2.1919
  817MOL0     H10259   8.727   1.393   4.509  0.0512  0.6312 -0.0475
  817MOL0     H10260   8.698   1.453   4.677 -1.3037  0.0887 -0.5885
  817MOL0     H10261   8.960   1.366   4.573  0.9871  1.7749 -1.2619
  817MOL0     H10262   8.893   1.529   4.585 -1.5706 -1.2927 -1.4223
  817MOL0     H10263   8.877   1.488   4.842 -0.1978  0.6248  0.1062
  817MOL0     H10264   8.949   1.337   4.809  1.0565 -0.6680 -2.0933
  817MOL0     H10265   9.080   1.589   4.710  0.2186 -1.2808 -1.7049
  817MOL0     H10266   9.142   1.432   4.720 -0.6184  1.9658 -1.4225
  817MOL0     H10267   9.159   1.455   4.983  0.2878  0.3754 -0.2948
  817MOL0     H10268   9.070   1.607   4.979  0.9666  1.6451 -1.1188
  817MOL0     H10269   9.270   1.678   4.828 -3.0424 -0.9627 -0.4768
  817MOL0     H10270   9.306   1.660   5.004  2.7882  2.3538 -2.0030
  817MOL0     H10271   9.341   1.439   4.804 -0.5676  0.1682  0.9574
  817MOL0     H10272   9.401   1.441   4.969 -1.3926 -1.2279  0.7498
  817MOL0     H10273   9.570   1.486   4.795 -1.1735 -0.8333  1.8544
  817MOL0     H10274   9.512   1.652   4.757  2.9397  2.0660 -0.0087
  817MOL0     H10275   8.639   1.085   4.836  2.9031  4.0791 -0.0985
  817MOL0     H10276   8.409   1.029   4.886  0.9317 -0.9026 -1.0317
  817MOL0     H10277   7.878   1.080   4.537  0.3130 -0.1662 -0.7145
  817MOL0     H10278   7.666   1.185   4.591  1.2109 -3.2135 -2.1979
  817MOL0     H10279   5.906   0.951   4.713  2.3854  2.2665 -1.5606
  817MOL0     H10280   5.686   1.005   4.621 -1.0065  0.0131 -2.1973
  817MOL0     H10281   5.418   1.101   4.456 -1.0083 -2.7651  0.5061
  817MOL0     H10282   5.188   1.221   4.441 -2.1239  0.9158 -1.9057
  817MOL0     H10283   5.030   1.356   4.381 -0.4057 -0.0045  0.6662
  817MOL0     H10284   4.920   1.221   4.414  0.3343 -1.0689 -0.5261
  817MOL0     H10285   4.904   1.433   4.204 -0.9785  1.5188  0.5244
  817MOL0     H10286   4.804   1.430   4.350  1.0029 -0.1158 -1.2915
  817MOL0     H10287   4.697   1.232   4.289  3.0119  1.4971  3.1790
  817MOL0     H10288   4.780   1.204   4.131 -0.2464 -0.6642  0.8135
  817MOL0     H10289   4.540   1.303   4.117 -1.4689  0.7736  1.6153
  817MOL0     H10290   4.584   1.440   4.207 -2.3519 -3.3702  0.5004
  817MOL0     H10291   4.758   1.571   3.844  1.0848 -1.3978 -1.1991
  817MOL0     H10292   5.147   1.077   4.046  0.8307 -0.1818 -0.4171
  817MOL0     H10293   5.283   0.949   3.953 -0.8022 -1.9869  1.9576
  817MOL0     H10294   5.446   1.020   3.954 -0.4819  3.0824  2.4781
  817MOL0     H10295   5.406   0.861   4.039  1.3107  0.7078  4.2820
  818MOL0     O10296   7.009   3.146   7.980 -0.1536  0.9360 -0.2824
  818MOL0     C10297   6.960   3.088   7.889  0.4219  0.3771 -0.0696
  818MOL0     O10298   7.028   3.022   7.794  0.4169  0.3244 -0.5190
  818MOL0     C10299   7.163   3.010   7.820  0.1876 -0.0542 -0.0768
  818MOL0     C10300   7.245   3.080   7.730 -0.5022 -0.5174 -0.4436
  818MOL0     C10301   7.381   3.080   7.753  0.3335 -0.2650  0.8423
  818MOL0     C10302   7.428   2.989   7.847  1.1798 -0.2802  0.3003
  818MOL0     O10303   7.558   2.978   7.888  0.3382 -0.0376 -0.1188
  818MOL0     C10304   7.652   3.053   7.811  0.9556 -0.6246 -0.2162
  818MOL0     C10305   7.804   3.018   7.850  0.3163  0.6380  0.0124
  818MOL0     C10306   7.847   2.873   7.828  0.1878  0.2506  1.0767
  818MOL0     C10307   7.831   2.818   7.688  0.8075  0.0257  0.2081
  818MOL0     C10308   7.865   2.666   7.690 -0.9720  0.1807 -0.3054
  818MOL0     C10309   8.009   2.633   7.743  0.3765 -0.1931 -0.0595
  818MOL0     C10310   8.036   2.495   7.718  0.9218 -0.2432  1.1031
  818MOL0     C10311   8.156   2.443   7.798  0.4633  0.3471 -0.0816
  818MOL0     N10312   8.283   2.492   7.746  0.0407 -0.1643  0.0663
  818MOL0     C10313   8.379   2.563   7.815 -0.2147 -0.1812  0.1371
  818MOL0     C10314   8.492   2.583   7.741 -0.4061  0.7928 -0.1670
  818MOL0     C10315   8.607   2.644   7.798  0.1429  0.6322  0.9654
  818MOL0     C10316   8.733   2.653   7.706 -0.4034 -0.2806 -0.3282
  818MOL0     C10317   8.859   2.650   7.796  0.1160 -0.2317 -0.0979
  818MOL0     C10318   8.867   2.515   7.874  0.2058 -0.9875  0.5615
  818MOL0     O10319   9.008   2.478   7.892  0.3638  0.3525  0.4322
  818MOL0     C10320   9.093   2.553   7.972  0.2928 -0.2167 -0.0454
  818MOL0     C10321   9.055   2.662   8.047 -0.2733  0.6043 -0.4330
  818MOL0     C10322   9.156   2.729   8.119  0.0769 -0.4593  0.0970
  818MOL0     C10323   9.292   2.700   8.107 -0.1238 -0.0811 -0.8356
  818MOL0     C10324   9.391   2.778   8.196  0.2360 -0.2422 -0.4604
  818MOL0     O10325   9.380   2.822   8.321 -0.1916 -0.1258  0.4976
  818MOL0     C10326   9.284   2.773   8.402  0.4461 -0.1568 -1.3511
  818MOL0     C10327   9.165   2.851   8.435 -0.3147  0.1835 -0.6299
  818MOL0     C10328   9.062   2.797   8.517  0.9286  0.3814  0.0300
  818MOL0     C10329   9.064   2.659   8.556 -0.3841  0.0634 -0.5257
  818MOL0     O10330   8.976   2.591   8.637 -0.1997  0.2139  0.4555
  818MOL0     C10331   8.846   2.639   8.640  0.4447  0.4967 -0.5404
  818MOL0     C10332   8.757   2.538   8.718  0.7298  0.5874  0.5354
  818MOL0     C10333   8.718   2.414   8.634 -0.3117  0.2472  0.6665
  818MOL0     C10334   8.595   2.333   8.675 -0.4976 -0.5958  0.0480
  818MOL0     C10335   8.467   2.424   8.674 -0.1176 -0.8288  0.3809
  818MOL0     C10336   8.338   2.345   8.701 -0.2169 -1.1088 -0.1500
  818MOL0     C10337   8.298   2.270   8.568 -0.0139  0.3281  0.0173
  818MOL0     C10338   8.150   2.210   8.573 -0.5997 -0.3394 -0.1488
  818MOL0    Cl10339   8.146   2.078   8.695 -0.2864 -0.1394 -0.2495
  818MOL0     C10340   9.181   2.579   8.514  0.1148 -0.0677 -0.1270
  818MOL0     C10341   9.290   2.639   8.454 -0.3504  0.9455  0.0225
  818MOL0     O10342   9.494   2.801   8.135  0.1241  0.1157 -0.4817
  818MOL0     C10343   9.329   2.588   8.030  0.5011 -0.0542 -0.5329
  818MOL0     C10344   9.231   2.511   7.966  0.6067 -0.2012  0.1646
  818MOL0     N10345   8.468   2.508   7.623  0.0754 -0.1718  0.1805
  818MOL0     N10346   8.337   2.473   7.620 -0.3739 -0.6276 -0.0589
  818MOL0     C10347   7.347   2.904   7.920 -0.4512 -0.2189 -0.4003
  818MOL0     C10348   7.206   2.907   7.909 -0.9551  0.1720  0.0864
  818MOL0     C10349   6.816   3.063   7.901  0.2831  0.3482  0.7494
  818MOL0     C10350   6.753   3.093   8.029  0.0700  0.0401  0.0167
  818MOL0     C10351   6.621   3.061   8.048 -0.4026 -0.4603 -0.2090
  818MOL0     C10352   6.535   3.013   7.949 -0.6548 -0.1763  1.0189
  818MOL0     O10353   6.410   2.979   7.987  0.2483 -0.1391  0.9194
  818MOL0     C10354   6.332   2.908   7.891  0.1897 -0.5145 -0.2400
  818MOL0     C10355   6.188   2.933   7.953  0.1726  0.3836 -0.0677
  818MOL0     C10356   6.079   2.859   7.873  0.0186 -0.2295 -0.2555
  818MOL0     C10357   5.945   2.853   7.943  0.6641 -0.5350 -0.2988
  818MOL0     C10358   5.876   2.988   7.927 -0.0540  1.0725  0.0622
  818MOL0     C10359   5.827   3.099   7.911  0.1617  0.1265 -0.5108
  818MOL0     C10360   6.595   2.996   7.819 -0.4375  0.2972 -0.3343
  818MOL0     C10361   6.727   3.011   7.796 -0.1561 -0.4598  1.1188
  818MOL0     C10362   6.782   2.988   7.659 -0.5059  1.0713 -0.2891
  818MOL0     H10363   7.198   3.133   7.648 -3.6641  0.1032  1.5902
  818MOL0     H10364   7.442   3.157   7.707 -0.6765 -0.0217 -0.1319
  818MOL0     H10365   7.631   3.031   7.706 -0.7887 -2.7156  0.4808
  818MOL0     H10366   7.628   3.159   7.819  0.3293 -0.3151 -4.0518
  818MOL0     H10367   7.827   3.050   7.952  1.9833  1.5632 -0.6003
  818MOL0     H10368   7.871   3.078   7.787  1.8690  1.1463  2.0572
  818MOL0     H10369   7.786   2.805   7.890  3.1717 -1.3918  2.4399
  818MOL0     H10370   7.954   2.864   7.848  0.1863 -1.9819  0.4030
  818MOL0     H10371   7.725   2.830   7.664  0.2641  2.1471  3.1338
  818MOL0     H10372   7.893   2.875   7.618  2.7378 -0.4429  1.4541
  818MOL0     H10373   7.799   2.601   7.749  0.2396 -1.2862 -0.5107
  818MOL0     H10374   7.864   2.636   7.584  4.1745  1.0019 -0.8556
  818MOL0     H10375   8.083   2.696   7.693  0.6750 -1.5527 -1.4416
  818MOL0     H10376   8.019   2.661   7.848 -1.0293  1.2230 -0.2706
  818MOL0     H10377   8.052   2.490   7.610  0.4526 -0.3101  1.0329
  818MOL0     H10378   7.952   2.430   7.746 -0.7890  0.2666 -2.2833
  818MOL0     H10379   8.157   2.476   7.903  0.8801  0.3670 -0.0914
  818MOL0     H10380   8.159   2.334   7.800  1.2213  0.3330  2.6236
  818MOL0     H10381   8.372   2.578   7.922 -0.7282 -0.2014  0.1080
  818MOL0     H10382   8.577   2.745   7.826 -1.7747 -0.4745  3.2350
  818MOL0     H10383   8.622   2.581   7.887 -3.1191 -4.3326 -1.5469
  818MOL0     H10384   8.737   2.591   7.616  1.0697 -0.2311 -0.3277
  818MOL0     H10385   8.730   2.758   7.677 -0.3084  0.3999  1.9042
  818MOL0     H10386   8.866   2.731   7.869 -1.0714 -0.8542  0.7393
  818MOL0     H10387   8.933   2.656   7.715 -1.2154 -0.8131 -1.3949
  818MOL0     H10388   8.821   2.439   7.810 -0.7128 -1.4761  1.7609
  818MOL0     H10389   8.815   2.510   7.970 -1.0339 -0.1520 -0.0441
  818MOL0     H10390   8.950   2.686   8.061 -1.0301 -1.8844 -1.3723
  818MOL0     H10391   9.124   2.814   8.179 -0.1965 -0.8175  0.4618
  818MOL0     H10392   9.174   2.952   8.397 -1.1778  1.4702  2.3085
  818MOL0     H10393   8.982   2.863   8.548  1.4032  1.1226 -0.2887
  818MOL0     H10394   8.834   2.735   8.692  1.1946  0.6603 -0.6647
  818MOL0     H10395   8.803   2.632   8.539  0.6851 -0.7903 -0.5677
  818MOL0     H10396   8.819   2.510   8.804  2.4318  2.5396  0.0475
  818MOL0     H10397   8.671   2.595   8.754 -1.9630 -2.4042 -0.6570
  818MOL0     H10398   8.698   2.447   8.532 -0.9243  0.2393  0.7808
  818MOL0     H10399   8.807   2.351   8.625 -1.6314 -2.0256  2.3169
  818MOL0     H10400   8.614   2.294   8.775  0.1647  0.0109  0.1658
  818MOL0     H10401   8.601   2.251   8.602  0.5576  0.0449 -0.6195
  818MOL0     H10402   8.454   2.476   8.580  0.3167 -2.1250 -0.4281
  818MOL0     H10403   8.482   2.510   8.740  3.8620  0.0731 -1.4004
  818MOL0     H10404   8.338   2.290   8.795  1.0670  1.2964  1.3786
  818MOL0     H10405   8.260   2.422   8.710  2.0853  1.3785 -0.1781
  818MOL0     H10406   8.365   2.185   8.555 -3.1582 -2.3130 -0.2800
  818MOL0     H10407   8.310   2.337   8.482 -0.1857  2.5782  1.6478
  818MOL0     H10408   8.075   2.285   8.600 -3.0265 -1.8641 -2.1004
  818MOL0     H10409   8.116   2.174   8.475 -1.3260  0.3303 -0.1521
  818MOL0     H10410   9.177   2.472   8.533 -1.1315 -0.7304 -3.4319
  818MOL0     H10411   9.377   2.580   8.429  1.1967  1.3101  3.9643
  818MOL0     H10412   9.434   2.565   8.017  0.4941 -1.4074  1.3950
  818MOL0     H10413   9.252   2.430   7.897 -2.0991 -0.3638 -0.6079
  818MOL0     H10414   7.391   2.834   7.990  3.1664  0.6340 -1.6009
  818MOL0     H10415   7.146   2.826   7.948 -1.7976 -1.8635 -4.6459
  818MOL0     H10416   6.815   3.140   8.105  0.3616 -1.6681  0.8893
  818MOL0     H10417   6.565   3.083   8.138 -0.5878 -0.7793 -0.2446
  818MOL0     H10418   6.345   2.799   7.892 -2.6104 -0.9318  0.9900
  818MOL0     H10419   6.343   2.958   7.795  1.4206  0.4938  0.3977
  818MOL0     H10420   6.164   3.040   7.946  1.1036  0.6383  0.5151
  818MOL0     H10421   6.191   2.901   8.057 -2.7887  1.3458  0.4142
  818MOL0     H10422   6.102   2.762   7.829  2.3543  0.8399 -1.6054
  818MOL0     H10423   6.068   2.919   7.782  0.4455  2.5160  1.3742
  818MOL0     H10424   5.874   2.781   7.901  3.7841 -3.5018 -0.9242
  818MOL0     H10425   5.942   2.834   8.051 -1.7316  0.2632 -0.1670
  818MOL0     H10426   5.781   3.191   7.882 -3.7367 -1.5812 -0.5041
  818MOL0     H10427   6.532   2.967   7.735 -0.3319 -1.1346  0.0508
  818MOL0     H10428   6.836   3.074   7.618 -0.9456  0.2566 -2.7020
  818MOL0     H10429   6.848   2.902   7.668 -2.5715 -0.8342 -2.1775
  818MOL0     H10430   6.715   2.946   7.583  1.3688 -0.2905 -1.2628
  819MOL0     O10431   9.801   2.321   5.134 -0.4276 -0.4841 -0.1426
  819MOL0     C10432   9.785   2.210   5.083  0.1272 -0.3790 -0.3063
  819MOL0     O10433   9.881   2.128   5.051 -0.6992  0.0277  0.1301
  819MOL0     C10434  10.016   2.141   5.097  0.2802 -0.0927 -0.3433
  819MOL0     C10435  10.080   2.257   5.147 -0.4067 -0.2757  1.3054
  819MOL0     C10436  10.216   2.252   5.171  0.0333 -0.2409  0.0522
  819MOL0     C10437  10.291   2.135   5.171  0.0074  0.5232  0.1863
  819MOL0     O10438  10.421   2.126   5.212  0.0462 -0.1200 -0.3446
  819MOL0     C10439  10.435   2.073   5.346 -0.2059 -0.1155 -0.1951
  819MOL0     C10440  10.542   2.148   5.419  0.5776 -0.1297  0.2167
  819MOL0     C10441  10.677   2.115   5.354  0.4420 -0.4009  0.0821
  819MOL0     C10442  10.792   2.186   5.423 -0.2792  0.1083  0.3475
  819MOL0     C10443  10.934   2.145   5.373  0.0360  0.7104 -0.1449
  819MOL0     C10444  10.965   2.223   5.244  0.1572  0.2632 -0.3639
  819MOL0     C10445  11.113   2.207   5.216 -0.1645  1.3442 -0.7126
  819MOL0     C10446  11.157   2.261   5.080  0.6435  0.2064 -0.8151
  819MOL0     N10447  11.303   2.245   5.069 -0.1941  0.9601  0.6242
  819MOL0     C10448  11.372   2.125   5.094  0.7170 -0.6058  0.7044
  819MOL0     C10449  11.500   2.153   5.083  0.2160 -0.4058  0.1992
  819MOL0     C10450  11.618   2.059   5.080 -0.4737  0.2493 -0.3025
  819MOL0     C10451  11.702   2.080   5.213 -0.3611  1.6318 -0.3659
  819MOL0     C10452  11.818   1.976   5.219  0.1281  0.2971 -1.1919
  819MOL0     C10453  11.879   1.962   5.357 -0.3070 -0.3148  0.2675
  819MOL0     O10454  11.988   1.874   5.341  0.2033 -0.3736  0.5538
  819MOL0     C10455  12.105   1.918   5.389 -0.2931 -0.2842 -1.0503
  819MOL0     C10456  12.210   1.934   5.301  0.3034 -0.8300  0.8980
  819MOL0     C10457  12.331   1.981   5.350 -0.8279  0.8200 -0.0051
  819MOL0     C10458  12.346   2.016   5.493 -0.5233 -0.0868  0.2229
  819MOL0     C10459  12.476   2.040   5.546  0.8261 -0.2817  0.4287
  819MOL0     O10460  12.579   2.000   5.474 -0.4284  0.4796 -0.2779
  819MOL0     C10461  12.699   2.036   5.525 -0.0522  0.7017  0.7552
  819MOL0     C10462  12.760   2.158   5.475 -0.1848 -0.1131 -0.1635
  819MOL0     C10463  12.884   2.199   5.540 -0.1719 -0.4421  0.2552
  819MOL0     C10464  12.955   2.118   5.628  0.2549 -0.0557  0.6274
  819MOL0     O10465  13.083   2.149   5.672  0.1504  1.1056  0.0751
  819MOL0     C10466  13.103   2.280   5.712 -0.9157 -0.0554  0.1106
  819MOL0     C10467  13.266   2.297   5.714  0.0607  0.0246 -0.1290
  819MOL0     C10468  13.299   2.441   5.668  1.1176  0.5968  0.4087
  819MOL0     C10469  13.441   2.443   5.620  0.0439  0.3626 -0.2539
  819MOL0     C10470  13.491   2.587   5.603 -0.1368 -0.0370  0.8366
  819MOL0     C10471  13.449   2.634   5.460 -1.1953  0.6375 -0.5592
  819MOL0     C10472  13.432   2.782   5.443 -0.2274 -0.6363 -0.1530
  819MOL0     C10473  13.346   2.825   5.320 -0.2607 -0.6761 -0.1974
  819MOL0    Cl10474  13.334   3.003   5.312 -0.2001 -0.0766 -0.1034
  819MOL0     C10475  12.900   2.003   5.670  0.3770 -0.1979 -0.2954
  819MOL0     C10476  12.768   1.965   5.624  0.1199 -0.1118  0.2193
  819MOL0     O10477  12.486   2.095   5.652 -0.1969  0.6524 -0.0648
  819MOL0     C10478  12.236   2.009   5.574  0.5303 -0.8326  0.2502
  819MOL0     C10479  12.117   1.958   5.519  0.3574  0.7099  0.4767
  819MOL0     N10480  11.507   2.293   5.079 -0.1288  0.2555  0.1477
  819MOL0     N10481  11.389   2.347   5.069 -0.0885  0.1335 -0.6426
  819MOL0     C10482  10.228   2.015   5.123 -0.0369  0.3723 -0.7599
  819MOL0     C10483  10.095   2.026   5.071 -0.3172  0.3813 -0.1029
  819MOL0     C10484   9.653   2.170   5.030 -0.0641  0.3996  0.1784
  819MOL0     C10485   9.632   2.025   5.019 -0.5232 -0.6880 -0.3807
  819MOL0     C10486   9.510   1.980   4.969  0.1084 -0.6073  0.2235
  819MOL0     C10487   9.397   2.063   4.954  0.3571 -0.5617 -0.3332
  819MOL0     O10488   9.277   2.000   4.924 -0.4446  0.0879  0.2113
  819MOL0     C10489   9.153   2.035   4.998  0.0417  0.0118  0.0523
  819MOL0     C10490   9.038   1.945   4.964 -0.3517  0.3285  0.5673
  819MOL0     C10491   9.009   1.935   4.807 -0.2770  0.2384 -0.6825
  819MOL0     C10492   8.864   1.955   4.787  0.4723  0.7861 -0.0296
  819MOL0     C10493   8.777   1.851   4.841  1.4227 -0.2512  0.0800
  819MOL0     C10494   8.698   1.765   4.879 -0.3688 -0.1116  0.1618
  819MOL0     C10495   9.417   2.201   4.967 -0.2099  0.4354 -0.0736
  819MOL0     C10496   9.543   2.250   5.007  0.0757 -0.8088 -0.8546
  819MOL0     C10497   9.549   2.401   5.025  0.1933  0.0910  0.4926
  819MOL0     H10498  10.030   2.349   5.173  0.0229  0.3168  0.0704
  819MOL0     H10499  10.270   2.342   5.200 -1.5541  1.1891 -1.1901
  819MOL0     H10500  10.339   2.080   5.398 -0.3248 -0.0121 -0.4253
  819MOL0     H10501  10.453   1.965   5.343 -2.0759 -0.4980  0.7905
  819MOL0     H10502  10.543   2.116   5.524  0.9565 -0.8706 -0.0095
  819MOL0     H10503  10.519   2.255   5.414  2.0086  0.2183  0.8084
  819MOL0     H10504  10.679   2.146   5.250  0.6045  2.5622  0.8745
  819MOL0     H10505  10.682   2.006   5.352 -3.6046 -0.8250  2.1388
  819MOL0     H10506  10.780   2.295   5.418 -3.8880 -0.1898  0.1076
  819MOL0     H10507  10.791   2.164   5.530 -2.3771  1.3772  0.6609
  819MOL0     H10508  10.991   2.177   5.461 -2.1597  0.3154  1.5315
  819MOL0     H10509  10.934   2.037   5.362 -3.9142  0.8130 -4.0700
  819MOL0     H10510  10.907   2.186   5.159 -2.4960  0.8965  1.0698
  819MOL0     H10511  10.941   2.330   5.241  1.2817  0.5091 -1.4409
  819MOL0     H10512  11.127   2.099   5.208  0.3561  1.3543  0.0315
  819MOL0     H10513  11.174   2.240   5.300 -2.2666  0.6112  1.2188
  819MOL0     H10514  11.111   2.203   4.998  1.2356 -1.6368  0.1003
  819MOL0     H10515  11.136   2.366   5.058  1.8896  0.7534  0.4756
  819MOL0     H10516  11.334   2.024   5.105  1.5627 -1.0056 -0.0298
  819MOL0     H10517  11.569   1.961   5.084  2.4033 -1.2594  2.0596
  819MOL0     H10518  11.674   2.078   4.988 -1.5267  0.8697 -0.8327
  819MOL0     H10519  11.739   2.183   5.211  0.0672  1.5885  2.3953
  819MOL0     H10520  11.632   2.063   5.295  1.0427  0.9644  0.7312
  819MOL0     H10521  11.882   2.012   5.139 -2.8879  0.3084 -3.8220
  819MOL0     H10522  11.785   1.876   5.188  0.9577 -0.3036 -0.1900
  819MOL0     H10523  11.805   1.919   5.425 -0.9302  1.5601  0.8471
  819MOL0     H10524  11.902   2.059   5.402  1.7800 -0.4467 -0.3937
  819MOL0     H10525  12.188   1.909   5.198 -2.4575 -1.3478  1.5420
  819MOL0     H10526  12.424   1.974   5.293  0.1223  3.3015  1.0854
  819MOL0     H10527  12.708   2.220   5.402 -2.0764 -1.6351 -0.2010
  819MOL0     H10528  12.920   2.289   5.492  1.1684 -1.1705 -0.1650
  819MOL0     H10529  13.050   2.350   5.647 -3.9245 -1.2465  1.1490
  819MOL0     H10530  13.069   2.302   5.813 -0.2083 -1.9208  0.8127
  819MOL0     H10531  13.309   2.271   5.811  1.7522  1.7000 -0.3768
  819MOL0     H10532  13.306   2.227   5.640 -2.9338  0.4593 -2.3665
  819MOL0     H10533  13.244   2.474   5.579  2.3768 -1.1014 -1.0621
  819MOL0     H10534  13.293   2.514   5.749 -2.0242  1.9319 -0.8456
  819MOL0     H10535  13.458   2.385   5.529  1.9733  0.9270 -0.2880
  819MOL0     H10536  13.494   2.396   5.704  1.6253  0.4431 -1.1844
  819MOL0     H10537  13.597   2.604   5.625  0.8844 -2.1790 -1.9767
  819MOL0     H10538  13.429   2.641   5.675 -0.0578 -1.5786  2.1120
  819MOL0     H10539  13.525   2.594   5.393  1.2240  0.7363  1.9088
  819MOL0     H10540  13.357   2.582   5.433 -0.2090 -3.2013  2.5243
  819MOL0     H10541  13.521   2.843   5.460  0.1346 -1.4452  0.9236
  819MOL0     H10542  13.377   2.814   5.531 -1.2217 -1.0879 -0.5956
  819MOL0     H10543  13.407   2.800   5.232  2.1052  2.0497  0.4973
  819MOL0     H10544  13.245   2.785   5.316 -0.5918  0.1055  0.2180
  819MOL0     H10545  12.954   1.951   5.749 -2.1449  0.0416  1.7085
  819MOL0     H10546  12.722   1.883   5.678 -1.8356  0.1163 -1.0240
  819MOL0     H10547  12.235   2.031   5.680 -2.3906 -0.0326  0.1299
  819MOL0     H10548  12.023   1.951   5.574  1.6716 -3.0586  2.5960
  819MOL0     H10549  10.290   1.926   5.114 -0.2715  0.0890  0.3052
  819MOL0     H10550  10.035   1.942   5.037 -1.3719  0.8982  0.4130
  819MOL0     H10551   9.707   1.948   5.033 -0.8408 -0.9967 -0.3636
  819MOL0     H10552   9.493   1.875   4.945  1.2125 -0.5323 -0.9692
  819MOL0     H10553   9.118   2.138   4.983 -1.6145 -0.1779  2.1688
  819MOL0     H10554   9.178   2.019   5.103  3.4203  0.8686 -0.4938
  819MOL0     H10555   8.957   1.981   5.027  0.6646  0.3735  1.8960
  819MOL0     H10556   9.066   1.842   4.990 -2.3698 -0.8942 -1.7069
  819MOL0     H10557   9.047   1.843   4.761  0.3486 -0.1051  0.4764
  819MOL0     H10558   9.054   2.023   4.760 -0.1263 -0.4868 -1.9538
  819MOL0     H10559   8.845   2.051   4.837 -0.1868 -0.7273  2.8166
  819MOL0     H10560   8.850   1.954   4.679  3.5494  0.5123 -0.4991
  819MOL0     H10561   8.631   1.687   4.910 -0.0704 -1.1313 -1.6528
  819MOL0     H10562   9.332   2.270   4.961 -1.8611 -1.3964  0.9844
  819MOL0     H10563   9.644   2.435   4.983  0.8589 -0.3615  1.5954
  819MOL0     H10564   9.461   2.446   4.980  0.3664 -1.1528 -1.2122
  819MOL0     H10565   9.550   2.438   5.128 -0.6795  1.9284 -0.1220
  820MOL0     O10566   1.773   3.279  10.315  0.4355 -0.7949  0.4240
  820MOL0     C10567   1.746   3.222  10.423 -0.6604 -0.2123 -0.6244
  820MOL0     O10568   1.754   3.085  10.445  0.6353 -0.0261  0.6671
  820MOL0     C10569   1.834   3.012  10.364 -0.3665 -0.5904 -0.1317
  820MOL0     C10570   1.814   2.994  10.229 -0.0822 -0.4155  0.8585
  820MOL0     C10571   1.910   2.928  10.162  0.1941 -0.3700  0.5953
  820MOL0     C10572   2.026   2.878  10.220 -0.3194 -0.6427  0.3364
  820MOL0     O10573   2.119   2.817  10.142  0.1837  0.3468  0.5728
  820MOL0     C10574   2.259   2.825  10.174  0.5211  0.6850  0.6169
  820MOL0     C10575   2.344   2.741  10.070 -0.0540 -0.2620 -0.2524
  820MOL0     C10576   2.491   2.780  10.073 -0.2473 -0.5455  0.2746
  820MOL0     C10577   2.588   2.681   9.992 -0.6727  0.8694  0.5561
  820MOL0     C10578   2.733   2.735   9.967 -0.3499 -0.3042 -0.3393
  820MOL0     C10579   2.810   2.638   9.866 -0.2523 -0.4919 -0.3872
  820MOL0     C10580   2.951   2.698   9.847  0.2443  0.2777  0.9301
  820MOL0     C10581   3.039   2.644   9.953 -0.0129 -0.7516 -0.6394
  820MOL0     N10582   3.172   2.708   9.978  0.2733  0.6455  0.2993
  820MOL0     C10583   3.199   2.831  10.034 -0.3010 -0.1759  0.4735
  820MOL0     C10584   3.328   2.847  10.021 -0.3891  0.1332  0.1242
  820MOL0     C10585   3.410   2.971  10.075  0.2896  0.2447 -0.0143
  820MOL0     C10586   3.473   3.061   9.967 -0.0951  0.1116  1.2096
  820MOL0     C10587   3.444   3.208   9.993  0.9283  0.0500  0.0195
  820MOL0     C10588   3.513   3.301   9.885  0.3167  0.1102  0.0572
  820MOL0     O10589   3.463   3.298   9.749  0.0374  0.2007  0.2730
  820MOL0     C10590   3.548   3.262   9.651  0.0681  0.2119  1.1715
  820MOL0     C10591   3.616   3.141   9.649 -0.3893 -0.1400 -0.6661
  820MOL0     C10592   3.683   3.110   9.526  0.1432  0.4484  0.1142
  820MOL0     C10593   3.693   3.195   9.419  0.3292 -1.2079  0.1664
  820MOL0     C10594   3.778   3.148   9.304 -0.7543 -0.3051  0.4173
  820MOL0     O10595   3.824   3.017   9.304 -0.4075 -0.2758 -0.1845
  820MOL0     C10596   3.931   2.995   9.219  0.3675  0.1132  0.9514
  820MOL0     C10597   3.897   2.910   9.105  0.5448 -0.0638 -0.2383
  820MOL0     C10598   3.986   2.885   9.000 -0.5372  1.0427  0.3288
  820MOL0     C10599   4.109   2.948   9.005  0.2488  0.1270  0.5141
  820MOL0     O10600   4.212   2.932   8.918 -0.4059  0.2268 -0.3419
  820MOL0     C10601   4.170   2.981   8.790 -0.6073  0.3239 -0.7959
  820MOL0     C10602   4.304   2.995   8.708  0.2684 -0.0489 -0.3695
  820MOL0     C10603   4.277   3.094   8.599  0.0228  0.9153 -0.3647
  820MOL0     C10604   4.400   3.145   8.517 -0.1853  0.5690 -0.0562
  820MOL0     C10605   4.363   3.226   8.402 -0.2833 -0.8713  0.2310
  820MOL0     C10606   4.304   3.145   8.278  0.1283  0.3036  0.3944
  820MOL0     C10607   4.157   3.176   8.268 -0.2241 -0.1550 -1.4457
  820MOL0     C10608   4.081   3.132   8.137 -1.0222  0.2190 -0.4210
  820MOL0    Cl10609   3.904   3.128   8.166  0.2496  0.5057  0.0215
  820MOL0     C10610   4.145   3.034   9.116  0.2162 -0.4474  0.3546
  820MOL0     C10611   4.058   3.053   9.223  0.2499 -0.3081  0.1857
  820MOL0     O10612   3.796   3.230   9.215 -0.2842 -0.5259  0.2969
  820MOL0     C10613   3.627   3.312   9.419  0.7104 -1.0567  1.0288
  820MOL0     C10614   3.552   3.342   9.530 -0.0115 -0.0432 -0.2703
  820MOL0     N10615   3.381   2.742   9.957 -0.4312 -0.7791  0.1093
  820MOL0     N10616   3.288   2.664   9.923  0.7145  0.3257  0.3123
  820MOL0     C10617   2.046   2.892  10.353 -0.7331  0.6274 -0.6148
  820MOL0     C10618   1.947   2.951  10.425 -0.3976  0.2537 -0.3556
  820MOL0     C10619   1.679   3.301  10.540  0.5658  0.2980  0.0272
  820MOL0     C10620   1.640   3.229  10.657 -0.9553 -0.6317 -0.0987
  820MOL0     C10621   1.586   3.307  10.757 -0.1084 -0.3812  0.1217
  820MOL0     C10622   1.574   3.444  10.766  0.2425  0.2385  0.2226
  820MOL0     O10623   1.507   3.514  10.864 -0.0548 -0.3530  0.4519
  820MOL0     C10624   1.418   3.618  10.828 -0.1714 -0.4055 -0.1833
  820MOL0     C10625   1.301   3.614  10.924  0.6028  1.3006 -0.0528
  820MOL0     C10626   1.212   3.481  10.938  0.4004  1.1678 -0.1001
  820MOL0     C10627   1.085   3.508  11.021  0.2454  0.5822 -0.6613
  820MOL0     C10628   1.133   3.577  11.143 -0.3149  0.4020 -0.1155
  820MOL0     C10629   1.172   3.634  11.245  0.3571  0.1486 -0.7115
  820MOL0     C10630   1.622   3.513  10.646  1.0479  0.3978 -0.5111
  820MOL0     C10631   1.667   3.444  10.529  0.2883 -0.5092 -0.2776
  820MOL0     C10632   1.693   3.526  10.408 -0.2749 -0.5840  0.4194
  820MOL0     H10633   1.724   3.037  10.187 -0.2082 -1.9587 -0.5459
  820MOL0     H10634   1.888   2.898  10.060 -0.2354  0.5932  0.3972
  820MOL0     H10635   2.291   2.930  10.169 -0.2217  0.8790 -0.4182
  820MOL0     H10636   2.273   2.779  10.272 -2.5555  1.9887  1.7923
  820MOL0     H10637   2.302   2.770   9.973 -1.2651 -0.7162  0.1148
  820MOL0     H10638   2.331   2.634  10.087 -0.2614 -0.7348 -2.9478
  820MOL0     H10639   2.523   2.788  10.177  0.9983 -0.7815 -0.0767
  820MOL0     H10640   2.496   2.874  10.018  0.8688  0.8973  2.6692
  820MOL0     H10641   2.578   2.591  10.053 -1.5780  1.0228  0.6566
  820MOL0     H10642   2.547   2.668   9.891 -0.5797  1.6390  0.4124
  820MOL0     H10643   2.731   2.835   9.923  4.1511 -0.9415 -2.6124
  820MOL0     H10644   2.788   2.734  10.062  3.2477 -3.2214 -2.1556
  820MOL0     H10645   2.803   2.531   9.891 -2.1538 -0.3625 -0.2820
  820MOL0     H10646   2.758   2.645   9.771  0.1337 -1.3616 -0.6736
  820MOL0     H10647   2.959   2.806   9.834 -0.1092  0.1065 -0.8906
  820MOL0     H10648   2.993   2.650   9.759 -2.1946 -1.9443  0.8602
  820MOL0     H10649   2.972   2.640  10.040 -1.3832  0.1876 -1.6084
  820MOL0     H10650   3.066   2.541   9.929  0.8097 -1.1807  1.7590
  820MOL0     H10651   3.131   2.893  10.091 -2.4035 -1.7515 -0.1724
  820MOL0     H10652   3.333   3.023  10.133 -1.9419 -1.0768 -1.6123
  820MOL0     H10653   3.491   2.936  10.140  0.0332 -0.5244 -0.0963
  820MOL0     H10654   3.581   3.051   9.979  0.4265 -0.6001 -2.7342
  820MOL0     H10655   3.441   3.022   9.869  2.2035 -0.7415  0.7169
  820MOL0     H10656   3.485   3.233  10.091 -0.3256 -0.9075  0.8094
  820MOL0     H10657   3.339   3.236   9.997  0.7204 -0.5854 -0.7527
  820MOL0     H10658   3.620   3.278   9.881  0.7917  2.2964 -1.8567
  820MOL0     H10659   3.502   3.405   9.914  0.3671  0.3453 -0.7469
  820MOL0     H10660   3.613   3.061   9.722  2.2688  0.6919  0.4960
  820MOL0     H10661   3.745   3.022   9.541  1.0220  1.6444  5.5720
  820MOL0     H10662   3.798   2.866   9.094 -0.9879  2.5878  1.6773
  820MOL0     H10663   3.955   2.831   8.911  0.9327  2.2984 -1.0054
  820MOL0     H10664   4.089   2.927   8.740 -0.2596  0.5176 -1.5880
  820MOL0     H10665   4.138   3.085   8.799 -3.1537 -0.3856 -0.7580
  820MOL0     H10666   4.369   3.048   8.778  1.6889 -3.7038  1.3274
  820MOL0     H10667   4.338   2.900   8.666 -0.2221 -0.0741 -0.7223
  820MOL0     H10668   4.207   3.040   8.534  0.2419 -0.0257  0.1507
  820MOL0     H10669   4.218   3.174   8.643 -1.2634  0.9276 -1.9917
  820MOL0     H10670   4.465   3.063   8.489  0.0527  0.5191  0.6227
  820MOL0     H10671   4.454   3.210   8.587 -1.1933  1.5670 -0.1595
  820MOL0     H10672   4.444   3.295   8.374 -1.3591 -0.4731 -2.2011
  820MOL0     H10673   4.283   3.295   8.430 -0.2069 -0.1673 -1.1726
  820MOL0     H10674   4.340   3.175   8.179  0.8185  1.0165  0.8552
  820MOL0     H10675   4.322   3.038   8.295  0.0915  0.3977  1.0178
  820MOL0     H10676   4.132   3.282   8.279 -4.5383 -1.2500  1.5215
  820MOL0     H10677   4.119   3.121   8.354 -3.1930  1.9196 -1.2892
  820MOL0     H10678   4.105   3.192   8.049 -1.6004  1.1223  0.0157
  820MOL0     H10679   4.116   3.029   8.127  3.7667  1.5730  0.2476
  820MOL0     H10680   4.242   3.084   9.116 -0.3069  0.5868  0.7354
  820MOL0     H10681   4.078   3.127   9.300 -1.4073  0.3331  0.0149
  820MOL0     H10682   3.637   3.393   9.347  1.6841 -1.8193  0.2811
  820MOL0     H10683   3.499   3.436   9.523  2.6232  1.5778 -0.0828
  820MOL0     H10684   2.135   2.848  10.398 -2.4586 -1.6234  0.7858
  820MOL0     H10685   1.957   2.957  10.533 -2.0626 -3.6308  0.1838
  820MOL0     H10686   1.643   3.121  10.665 -1.9758 -0.6464  0.2919
  820MOL0     H10687   1.557   3.256  10.849  1.9774  0.5517  1.3568
  820MOL0     H10688   1.382   3.610  10.725 -0.0981  0.2607 -0.2607
  820MOL0     H10689   1.461   3.717  10.840  0.7172 -0.5751 -1.6906
  820MOL0     H10690   1.238   3.701  10.902 -0.7917  0.3915  0.2001
  820MOL0     H10691   1.332   3.643  11.025 -4.5081 -0.2304  2.3284
  820MOL0     H10692   1.287   3.414  10.980 -0.3593 -0.3483 -1.0756
  820MOL0     H10693   1.177   3.435  10.845  1.6200 -0.7622  0.3291
  820MOL0     H10694   1.019   3.579  10.971 -0.7489  1.3646  1.6376
  820MOL0     H10695   1.031   3.415  11.039 -1.4635  1.2461 -2.1385
  820MOL0     H10696   1.189   3.697  11.329 -2.3744 -0.5710  0.4832
  820MOL0     H10697   1.609   3.621  10.644  1.7343  0.5982  2.2155
  820MOL0     H10698   1.649   3.478  10.320 -1.7182 -0.8648  1.2496
  820MOL0     H10699   1.647   3.625  10.419  1.6745  0.8830 -3.0515
  820MOL0     H10700   1.800   3.536  10.391 -0.7113  1.5322 -1.6744
  821MOL0     O10701   2.088   8.804   9.304 -0.3905  0.1107  0.0597
  821MOL0     C10702   2.027   8.860   9.214  0.5551 -0.0490 -1.1839
  821MOL0     O10703   2.066   8.968   9.139 -0.4866 -0.3887 -0.0009
  821MOL0     C10704   2.203   9.005   9.143  1.3171  0.4464 -1.3995
  821MOL0     C10705   2.307   8.919   9.103 -0.9970  0.1593 -0.3008
  821MOL0     C10706   2.443   8.968   9.112  0.2805  0.2465 -0.9915
  821MOL0     C10707   2.474   9.106   9.137  0.1280 -0.0016  0.5363
  821MOL0     O10708   2.607   9.142   9.152  0.7899 -0.0922  0.0440
  821MOL0     C10709   2.643   9.203   9.280 -0.1039  1.1051 -0.6823
  821MOL0     C10710   2.791   9.214   9.301 -0.0055  0.5786  0.8974
  821MOL0     C10711   2.833   9.275   9.440 -0.8446  0.2604  0.0929
  821MOL0     C10712   2.867   9.159   9.535  0.1254 -0.1627  0.3939
  821MOL0     C10713   2.751   9.066   9.577  0.5336  0.8153  0.5778
  821MOL0     C10714   2.781   8.971   9.696 -0.5553 -1.0802 -0.2502
  821MOL0     C10715   2.669   8.872   9.733 -0.0653 -0.2752  0.4092
  821MOL0     C10716   2.710   8.769   9.843 -0.5182  0.3549 -0.2963
  821MOL0     N10717   2.807   8.680   9.786 -0.7371  0.2051 -0.3739
  821MOL0     C10718   2.938   8.681   9.832 -0.7660  0.5170 -0.2624
  821MOL0     C10719   2.995   8.572   9.782 -0.4657 -0.0843 -0.1772
  821MOL0     C10720   3.138   8.532   9.803  0.5351 -0.0965  0.1090
  821MOL0     C10721   3.160   8.502   9.951  0.4104 -0.2455  0.2134
  821MOL0     C10722   3.305   8.451   9.984 -0.1261 -0.5981  0.6593
  821MOL0     C10723   3.337   8.438  10.130 -0.4121  0.9234  0.2700
  821MOL0     O10724   3.353   8.567  10.193  0.0634  0.5102  0.2597
  821MOL0     C10725   3.461   8.577  10.284  1.2713  0.4362 -0.0305
  821MOL0     C10726   3.504   8.701  10.312  0.2847  0.2315  0.2875
  821MOL0     C10727   3.607   8.718  10.399 -0.0901  0.5635 -0.1405
  821MOL0     C10728   3.661   8.611  10.474 -0.4511  0.4292 -0.3140
  821MOL0     C10729   3.787   8.630  10.543  0.3869  0.1720 -0.2225
  821MOL0     O10730   3.823   8.755  10.582 -0.1416  0.1689  0.7805
  821MOL0     C10731   3.923   8.766  10.672 -0.2761 -0.2617 -0.6787
  821MOL0     C10732   4.057   8.746  10.642 -0.4900 -0.1417 -0.6089
  821MOL0     C10733   4.162   8.742  10.739 -0.3079 -0.2430  0.0074
  821MOL0     C10734   4.124   8.761  10.870  0.7756 -0.2130  0.1105
  821MOL0     O10735   4.225   8.756  10.966  0.1957  0.3596 -0.3769
  821MOL0     C10736   4.196   8.741  11.103  0.2063  0.2423 -0.6410
  821MOL0     C10737   4.324   8.716  11.188 -0.5081 -0.4162 -0.1566
  821MOL0     C10738   4.327   8.768  11.331 -0.1783 -0.8891 -0.6796
  821MOL0     C10739   4.356   8.914  11.336  0.5778 -0.9565 -0.3862
  821MOL0     C10740   4.366   8.966  11.479 -0.6594  0.5215  0.3088
  821MOL0     C10741   4.244   8.948  11.561 -0.2321  0.6358 -0.6899
  821MOL0     C10742   4.254   9.022  11.691  0.1734 -1.2541 -0.6650
  821MOL0     C10743   4.137   8.998  11.785  0.4995  0.4227 -0.6412
  821MOL0    Cl10744   3.980   9.033  11.705  0.0941  0.4777 -0.1093
  821MOL0     C10745   3.989   8.772  10.904  1.0114  0.0442 -0.8664
  821MOL0     C10746   3.885   8.777  10.807  0.0029  0.3386  0.5346
  821MOL0     O10747   3.852   8.524  10.575 -0.2495 -0.1998 -0.1191
  821MOL0     C10748   3.615   8.482  10.442 -0.7824 -0.0716 -0.3394
  821MOL0     C10749   3.512   8.473  10.353  0.3542 -0.2609  0.8202
  821MOL0     N10750   2.902   8.500   9.709 -0.2564 -0.1957  0.0524
  821MOL0     N10751   2.790   8.563   9.716 -0.1756 -0.0609 -0.8952
  821MOL0     C10752   2.369   9.185   9.169 -0.1497  0.6462  0.3133
  821MOL0     C10753   2.240   9.134   9.180  0.0483  0.5950  0.8502
  821MOL0     C10754   1.894   8.811   9.184 -0.3405  0.4997  0.2087
  821MOL0     C10755   1.794   8.902   9.145  0.0952  0.4051 -0.4196
  821MOL0     C10756   1.664   8.850   9.122  0.0435 -0.2887 -0.2588
  821MOL0     C10757   1.635   8.717   9.125  0.3867  0.5141 -0.2950
  821MOL0     O10758   1.513   8.671   9.077 -0.0088 -0.1182 -0.0610
  821MOL0     C10759   1.435   8.757   8.998 -0.4012  0.5545 -0.1238
  821MOL0     C10760   1.306   8.680   8.943  0.3823  0.5901 -0.8019
  821MOL0     C10761   1.257   8.737   8.805  0.3705  0.0082  0.2374
  821MOL0     C10762   1.112   8.685   8.776 -0.9846  0.1084 -0.7667
  821MOL0     C10763   1.001   8.754   8.850  0.2048  0.5752 -0.8623
  821MOL0     C10764   0.920   8.829   8.912  0.0204 -1.0664  0.8814
  821MOL0     C10765   1.735   8.627   9.150 -1.0497  0.1154 -0.6743
  821MOL0     C10766   1.859   8.671   9.196 -0.2177 -0.6002 -0.1525
  821MOL0     C10767   1.956   8.560   9.226 -0.2720  0.1783  0.1190
  821MOL0     H10768   2.291   8.812   9.093  1.5360 -0.3872  0.6680
  821MOL0     H10769   2.530   8.904   9.100  0.2387  0.0678 -0.3997
  821MOL0     H10770   2.598   9.302   9.284 -0.6066  1.0893 -3.6822
  821MOL0     H10771   2.600   9.138   9.357 -0.0289  0.1907 -1.3820
  821MOL0     H10772   2.827   9.269   9.214  0.5278 -0.5348  0.3905
  821MOL0     H10773   2.831   9.115   9.279 -0.9171  0.7116 -1.8770
  821MOL0     H10774   2.748   9.328   9.485 -1.2784  0.6397 -1.1146
  821MOL0     H10775   2.919   9.342   9.436 -0.5964 -0.1058 -1.6407
  821MOL0     H10776   2.942   9.092   9.491  3.1339  3.0828  0.2019
  821MOL0     H10777   2.916   9.214   9.615  0.3087 -0.6019  0.5899
  821MOL0     H10778   2.659   9.120   9.601  1.0881  2.0575 -0.0013
  821MOL0     H10779   2.733   9.009   9.485 -0.2552  1.0488  0.5766
  821MOL0     H10780   2.863   8.900   9.685 -0.7017 -1.4257  0.8385
  821MOL0     H10781   2.799   9.030   9.786  1.4785 -0.3310 -1.0892
  821MOL0     H10782   2.644   8.821   9.639  1.0413  1.4980 -0.9151
  821MOL0     H10783   2.582   8.929   9.767 -0.1002 -0.8603  1.3246
  821MOL0     H10784   2.759   8.834   9.917  0.8917 -0.4703 -0.4584
  821MOL0     H10785   2.622   8.721   9.886 -0.6727  0.6638 -0.2666
  821MOL0     H10786   2.994   8.760   9.882  0.7310 -0.8174  0.2673
  821MOL0     H10787   3.155   8.435   9.756 -2.4389 -1.2769  1.2599
  821MOL0     H10788   3.207   8.605   9.758  1.8221  0.9469  3.4426
  821MOL0     H10789   3.144   8.589  10.015  1.7717  0.2623 -0.1120
  821MOL0     H10790   3.087   8.430   9.990 -0.7515 -0.2208 -1.7511
  821MOL0     H10791   3.381   8.518   9.945  0.0867 -0.6294  1.0174
  821MOL0     H10792   3.311   8.352   9.937  1.6087  1.2924 -3.5675
  821MOL0     H10793   3.427   8.378  10.141 -0.8411  0.5948  2.3857
  821MOL0     H10794   3.260   8.381  10.184 -0.3751  1.5324  0.9919
  821MOL0     H10795   3.471   8.783  10.249  4.5509  2.2382  0.3153
  821MOL0     H10796   3.661   8.811  10.415  1.9880 -0.4710 -0.7997
  821MOL0     H10797   4.079   8.732  10.537  1.4688  1.8937 -0.5423
  821MOL0     H10798   4.266   8.718  10.717 -0.3364  0.3349 -0.8291
  821MOL0     H10799   4.141   8.831  11.131 -0.5601 -0.2215 -0.6189
  821MOL0     H10800   4.126   8.659  11.121  0.3186  0.6576  2.1321
  821MOL0     H10801   4.323   8.607  11.184  1.0905 -0.4013 -3.1522
  821MOL0     H10802   4.419   8.747  11.144 -0.0088  0.7333  1.6336
  821MOL0     H10803   4.233   8.740  11.379 -1.1217  0.7246 -1.4983
  821MOL0     H10804   4.410   8.717  11.381  3.2251  1.9632 -2.9260
  821MOL0     H10805   4.278   8.969  11.283  0.0583  2.3704  3.3270
  821MOL0     H10806   4.448   8.939  11.283  0.1855  1.4812 -0.0365
  821MOL0     H10807   4.378   9.074  11.461 -0.3525  1.0334  3.1778
  821MOL0     H10808   4.457   8.939  11.534  1.7009 -0.3003 -3.6053
  821MOL0     H10809   4.151   8.968  11.507 -3.3162  1.5605  4.3078
  821MOL0     H10810   4.243   8.841  11.582  3.0770  0.4915 -0.7118
  821MOL0     H10811   4.264   9.129  11.674 -1.2825 -1.1261 -0.9056
  821MOL0     H10812   4.339   8.989  11.752  0.7261  2.2628  0.6642
  821MOL0     H10813   4.131   8.898  11.830 -0.8979  1.8107  2.4967
  821MOL0     H10814   4.169   9.072  11.859  1.6759 -1.2608  0.6165
  821MOL0     H10815   3.959   8.783  11.008 -2.9260  2.8401 -2.0414
  821MOL0     H10816   3.788   8.786  10.853 -0.5597 -0.0305 -0.5486
  821MOL0     H10817   3.660   8.391  10.479  0.7902  0.9501  0.3525
  821MOL0     H10818   3.498   8.367  10.334 -1.0001  0.0047  0.2304
  821MOL0     H10819   2.404   9.287   9.182  2.6617 -0.1838 -0.1663
  821MOL0     H10820   2.161   9.208   9.193 -1.5100 -1.2937  3.0089
  821MOL0     H10821   1.802   9.010   9.153 -0.9516  0.3422  2.9414
  821MOL0     H10822   1.581   8.918   9.106  0.5268  1.0968  2.4403
  821MOL0     H10823   1.488   8.790   8.909  1.6373 -0.4616  0.6516
  821MOL0     H10824   1.397   8.837   9.063 -0.6985 -0.3627  0.8652
  821MOL0     H10825   1.226   8.689   9.017 -0.3108  0.1332 -1.4908
  821MOL0     H10826   1.314   8.571   8.933  2.6978  0.4104  1.7417
  821MOL0     H10827   1.325   8.726   8.720  0.1135 -1.0062  0.1593
  821MOL0     H10828   1.247   8.845   8.823  0.3558  0.0354  0.0681
  821MOL0     H10829   1.087   8.686   8.669  0.0329 -3.4253 -1.1666
  821MOL0     H10830   1.118   8.578   8.802  0.0929  0.3119 -0.0943
  821MOL0     H10831   0.851   8.887   8.970 -2.4591 -0.6462 -2.1918
  821MOL0     H10832   1.715   8.522   9.133  0.8132 -0.6743  1.5547
  821MOL0     H10833   1.980   8.568   9.332  0.5713  0.4028 -0.0787
  821MOL0     H10834   1.910   8.461   9.218 -2.1592  0.8664  1.6329
  821MOL0     H10835   2.048   8.563   9.167 -0.0030  0.3811  0.5421
  822MOL0     O10836   7.577   5.259  10.758 -0.1007  0.4776  0.0823
  822MOL0     C10837   7.552   5.220  10.869  0.6695 -1.6044  0.0676
  822MOL0     O10838   7.441   5.252  10.938 -0.3082  0.1217  0.0287
  822MOL0     C10839   7.320   5.281  10.871  0.1537 -0.0451 -0.6041
  822MOL0     C10840   7.287   5.266  10.734 -0.4240 -0.3478 -0.0210
  822MOL0     C10841   7.156   5.299  10.694 -0.4131  0.1253  0.5439
  822MOL0     C10842   7.061   5.355  10.773  0.2500  0.5345 -0.0183
  822MOL0     O10843   6.936   5.401  10.725  0.0301  0.2173  0.0447
  822MOL0     C10844   6.839   5.467  10.816 -0.1231  0.0031 -0.0194
  822MOL0     C10845   6.869   5.612  10.832  0.3345 -0.2783 -0.0314
  822MOL0     C10846   6.753   5.700  10.871  0.2818  0.3121 -0.7006
  822MOL0     C10847   6.790   5.847  10.912  0.9802  0.4045 -0.2318
  822MOL0     C10848   6.846   5.855  11.052  0.0263 -0.5356  0.1454
  822MOL0     C10849   6.907   5.993  11.095  0.6919 -0.4780  0.3427
  822MOL0     C10850   6.821   6.114  11.050 -0.5497 -0.2412 -0.3228
  822MOL0     C10851   6.907   6.250  11.055 -0.4385  0.6045 -0.9542
  822MOL0     N10852   6.833   6.352  10.994  0.8576  0.4647  0.0697
  822MOL0     C10853   6.829   6.489  11.038 -0.9646  0.1213  0.1418
  822MOL0     C10854   6.773   6.552  10.927  0.1200 -0.1773 -0.8017
  822MOL0     C10855   6.760   6.701  10.930 -0.4463  0.7011 -0.6959
  822MOL0     C10856   6.894   6.773  10.918 -0.3889  0.8704 -0.2865
  822MOL0     C10857   6.987   6.726  10.807  0.2231  0.5467 -0.0842
  822MOL0     C10858   7.110   6.811  10.804 -0.1307  0.1191  0.2999
  822MOL0     O10859   7.086   6.957  10.792  0.6893  0.0984  0.0380
  822MOL0     C10860   7.196   7.038  10.781  0.2504 -0.1926  0.5606
  822MOL0     C10861   7.163   7.175  10.768  0.3077  0.7729  0.2659
  822MOL0     C10862   7.259   7.272  10.740 -0.8923  0.1166  0.2746
  822MOL0     C10863   7.397   7.236  10.744  0.6875  0.3077 -0.7170
  822MOL0     C10864   7.511   7.333  10.721 -0.0325 -0.4512 -0.4660
  822MOL0     O10865   7.631   7.279  10.676 -0.1379  0.4176 -0.2266
  822MOL0     C10866   7.739   7.354  10.715  0.3306  0.0960  0.2966
  822MOL0     C10867   7.802   7.338  10.838 -0.3154  0.7023 -0.0405
  822MOL0     C10868   7.918   7.409  10.874  0.3183 -0.5825 -0.8922
  822MOL0     C10869   7.967   7.507  10.786 -0.2273  0.0533 -0.4718
  822MOL0     O10870   8.082   7.569  10.837 -0.8739 -0.2207  0.2120
  822MOL0     C10871   8.156   7.663  10.754  0.3399  0.1444 -0.2753
  822MOL0     C10872   8.262   7.720  10.838  1.4550 -0.6239  0.4047
  822MOL0     C10873   8.364   7.794  10.757 -0.5864  0.1938 -0.4130
  822MOL0     C10874   8.461   7.889  10.834  0.5943  0.0953  0.3078
  822MOL0     C10875   8.586   7.931  10.746  0.0377  0.0507  0.3478
  822MOL0     C10876   8.694   7.980  10.833 -0.0680  0.7059  1.2196
  822MOL0     C10877   8.656   8.112  10.904 -0.7227  0.2136  0.2266
  822MOL0     C10878   8.786   8.190  10.946  0.4996  0.5382 -0.0384
  822MOL0    Cl10879   8.889   8.243  10.797  0.3235 -0.0079  0.5634
  822MOL0     C10880   7.892   7.531  10.666 -0.6540  0.5661 -0.5903
  822MOL0     C10881   7.783   7.444  10.626 -0.1533 -0.2564 -0.3929
  822MOL0     O10882   7.496   7.448  10.771 -0.0785  0.3582 -0.4546
  822MOL0     C10883   7.434   7.101  10.753 -0.2657 -0.0897 -0.2424
  822MOL0     C10884   7.333   7.006  10.775  0.1512 -0.5404 -0.2860
  822MOL0     N10885   6.733   6.461  10.829  0.4710  0.8795  1.0896
  822MOL0     N10886   6.772   6.345  10.870 -0.4659  0.2564 -0.1565
  822MOL0     C10887   7.097   5.362  10.914 -0.0597  0.5232 -0.0887
  822MOL0     C10888   7.217   5.329  10.965  0.0079  0.4350 -0.2841
  822MOL0     C10889   7.656   5.152  10.947  0.0806  0.9031 -0.3318
  822MOL0     C10890   7.630   5.063  11.056  0.6626 -0.3643  0.3298
  822MOL0     C10891   7.724   4.987  11.129  0.0167 -1.0231 -0.2774
  822MOL0     C10892   7.862   5.003  11.102  0.7821 -0.5653 -0.0345
  822MOL0     O10893   7.945   4.927  11.181  0.9560  0.0668  0.1304
  822MOL0     C10894   8.081   4.928  11.170 -1.1623  0.2809  0.2218
  822MOL0     C10895   8.149   4.864  11.293  0.3576 -0.1786  0.0716
  822MOL0     C10896   8.097   4.716  11.314 -1.1399 -0.1967  0.2697
  822MOL0     C10897   8.140   4.657  11.451  0.1276 -0.1161  0.8492
  822MOL0     C10898   8.103   4.515  11.458 -0.4976 -0.4028 -0.3806
  822MOL0     C10899   8.071   4.400  11.442 -0.6296 -0.4083  0.5893
  822MOL0     C10900   7.898   5.100  10.997 -1.1944 -0.4873 -0.9847
  822MOL0     C10901   7.793   5.168  10.922 -0.4302 -0.0492  0.2328
  822MOL0     C10902   7.844   5.280  10.820 -0.1442  0.2484  0.2904
  822MOL0     H10903   7.348   5.226  10.654 -1.8323  0.6242 -1.6566
  822MOL0     H10904   7.120   5.295  10.591 -1.5079  1.4213  0.8436
  822MOL0     H10905   6.749   5.446  10.758  0.4265 -2.4751 -0.0913
  822MOL0     H10906   6.838   5.422  10.916  4.0215  0.7471  0.5424
  822MOL0     H10907   6.910   5.655  10.740 -2.0894 -0.4792 -1.3057
  822MOL0     H10908   6.953   5.622  10.900  2.2496 -2.0742 -1.9776
  822MOL0     H10909   6.707   5.642  10.952  1.4998 -1.4663 -1.2077
  822MOL0     H10910   6.672   5.714  10.798  0.1525  0.7264 -0.4808
  822MOL0     H10911   6.868   5.886  10.845  2.8569  0.1880  1.7361
  822MOL0     H10912   6.694   5.897  10.894  0.9776 -0.4302 -3.0883
  822MOL0     H10913   6.765   5.837  11.122  0.5098  2.8550  1.7974
  822MOL0     H10914   6.921   5.780  11.079 -0.7273 -0.7649  1.7142
  822MOL0     H10915   6.914   6.011  11.203 -2.5734  2.6952  0.2060
  822MOL0     H10916   7.006   6.010  11.050 -0.9371  0.5429 -3.2127
  822MOL0     H10917   6.728   6.128  11.106  0.0052  1.1037  0.3033
  822MOL0     H10918   6.789   6.095  10.948 -1.9224 -0.4049  0.1226
  822MOL0     H10919   6.927   6.269  11.161  1.4364  3.1573 -1.6959
  822MOL0     H10920   7.005   6.242  11.007 -0.2605 -0.0017 -0.5108
  822MOL0     H10921   6.867   6.529  11.132  0.2211  0.1589 -0.3434
  822MOL0     H10922   6.706   6.734  10.841 -3.7288 -0.1209  0.8107
  822MOL0     H10923   6.706   6.743  11.016  0.5728 -0.4070  0.5310
  822MOL0     H10924   6.865   6.878  10.915 -2.3457  0.6035  3.5361
  822MOL0     H10925   6.942   6.770  11.016  0.2621  1.2826 -0.5856
  822MOL0     H10926   6.930   6.746  10.716 -1.9674  1.3884  1.3768
  822MOL0     H10927   7.007   6.622  10.832  2.1446  0.9635  0.2427
  822MOL0     H10928   7.174   6.775  10.722 -0.4868 -0.9725  0.4830
  822MOL0     H10929   7.163   6.795  10.898 -1.9593  2.0354  1.7361
  822MOL0     H10930   7.060   7.194  10.797  0.0199  0.9173 -0.8194
  822MOL0     H10931   7.229   7.375  10.720  0.8609  0.4539 -0.8441
  822MOL0     H10932   7.772   7.264  10.912  2.7775 -1.0058 -0.3041
  822MOL0     H10933   7.954   7.366  10.967  0.0413  0.8403 -0.0934
  822MOL0     H10934   8.206   7.611  10.672  1.4531  0.2790  0.2999
  822MOL0     H10935   8.091   7.741  10.714 -0.8361 -0.1844  0.8968
  822MOL0     H10936   8.220   7.781  10.918 -0.8092 -0.7257 -0.6232
  822MOL0     H10937   8.325   7.643  10.884  1.7919 -0.8452 -0.4093
  822MOL0     H10938   8.426   7.719  10.706 -3.0576 -1.0115 -1.8573
  822MOL0     H10939   8.317   7.846  10.673 -3.3577  4.0599  3.1300
  822MOL0     H10940   8.490   7.843  10.929  1.6548 -3.9834 -1.7952
  822MOL0     H10941   8.411   7.984  10.858  0.5184  0.0240  0.4263
  822MOL0     H10942   8.551   8.006  10.674 -1.4149  0.2190  1.1937
  822MOL0     H10943   8.623   7.847  10.686  1.1173  2.1433 -2.0941
  822MOL0     H10944   8.718   7.896  10.900  1.3079 -0.7469 -0.9745
  822MOL0     H10945   8.780   7.993  10.767 -0.0036 -1.7336  0.7091
  822MOL0     H10946   8.591   8.095  10.990  0.4196  2.7996  1.7356
  822MOL0     H10947   8.595   8.178  10.841 -1.5576 -0.9495 -0.2113
  822MOL0     H10948   8.756   8.286  10.989 -0.4861  1.0085 -1.6686
  822MOL0     H10949   8.846   8.133  11.018 -0.9742 -1.0408  0.0032
  822MOL0     H10950   7.920   7.607  10.594  2.1758 -0.4939 -0.7520
  822MOL0     H10951   7.733   7.456  10.530 -0.8307  0.9694  0.0891
  822MOL0     H10952   7.533   7.058  10.748  0.4410  0.8000  3.4176
  822MOL0     H10953   7.360   6.901  10.784 -0.7514 -0.6662  1.3322
  822MOL0     H10954   7.031   5.381  10.998  0.2189  0.3416  0.1736
  822MOL0     H10955   7.253   5.334  11.067  1.5247 -0.5988 -0.7477
  822MOL0     H10956   7.528   5.046  11.088 -0.1675 -2.3615 -2.9274
  822MOL0     H10957   7.689   4.917  11.205 -2.0017  1.5094  1.2740
  822MOL0     H10958   8.113   5.029  11.142 -0.2425  0.5581  2.1524
  822MOL0     H10959   8.128   4.869  11.090 -0.6349 -0.1717  0.8533
  822MOL0     H10960   8.113   4.921  11.379 -0.3120  0.5585 -0.6776
  822MOL0     H10961   8.256   4.867  11.274 -0.2489  0.5701 -4.3478
  822MOL0     H10962   8.137   4.655  11.233 -0.9933  1.5677 -1.0583
  822MOL0     H10963   7.988   4.709  11.308 -1.4071  1.7607  1.7237
  822MOL0     H10964   8.249   4.642  11.452  0.1086 -0.2482  1.4343
  822MOL0     H10965   8.104   4.716  11.536  1.0495 -0.4323  1.4818
  822MOL0     H10966   8.030   4.308  11.404 -0.7753  0.5464 -1.7670
  822MOL0     H10967   8.002   5.112  10.969 -1.8337  1.5716 -2.7384
  822MOL0     H10968   7.823   5.258  10.715  2.2112  2.0089 -0.6443
  822MOL0     H10969   7.792   5.373  10.845  0.0882  0.1006  1.4044
  822MOL0     H10970   7.952   5.299  10.823 -0.0866  1.2501 -3.6850
  823MOL0     O10971   2.983   1.085  10.365 -0.0793  0.2483 -0.6177
  823MOL0     C10972   2.891   1.005  10.340  0.1174 -0.8798  0.4992
  823MOL0     O10973   2.907   0.886  10.280 -0.4444  0.3849 -0.0193
  823MOL0     C10974   3.032   0.830  10.282  0.1373  0.0754 -0.1277
  823MOL0     C10975   3.114   0.815  10.393  0.4824 -0.5764  0.2480
  823MOL0     C10976   3.237   0.749  10.382 -0.1999 -0.0585 -0.4539
  823MOL0     C10977   3.288   0.701  10.258 -0.1068 -0.6014 -0.3790
  823MOL0     O10978   3.412   0.648  10.256 -0.4203 -0.1967  0.2879
  823MOL0     C10979   3.494   0.668  10.142  0.5297 -0.2174 -0.8573
  823MOL0     C10980   3.642   0.624  10.159  0.4121 -0.1401  0.1971
  823MOL0     C10981   3.724   0.706  10.260 -0.0749 -0.9622  0.4259
  823MOL0     C10982   3.879   0.707  10.226  0.2941  0.1300  0.4471
  823MOL0     C10983   3.949   0.576  10.259 -0.4696 -0.4453  0.2414
  823MOL0     C10984   4.102   0.591  10.219  0.8901  0.6911 -0.0929
  823MOL0     C10985   4.189   0.694  10.287  0.2790  0.2689 -0.1339
  823MOL0     C10986   4.328   0.663  10.243 -1.3302 -0.1488 -0.2594
  823MOL0     N10987   4.414   0.742  10.336 -0.8129 -0.5280  0.9956
  823MOL0     C10988   4.465   0.686  10.446 -0.2508  0.7720 -0.2240
  823MOL0     C10989   4.554   0.768  10.502 -0.1251  0.4025  0.5099
  823MOL0     C10990   4.643   0.752  10.616 -0.4845  0.3006  0.2486
  823MOL0     C10991   4.558   0.700  10.729 -1.0049  0.3393 -0.3771
  823MOL0     C10992   4.622   0.730  10.866 -0.3537 -0.3951  0.1093
  823MOL0     C10993   4.762   0.669  10.874  0.0853  0.3289  0.0414
  823MOL0     O10994   4.785   0.644  11.014 -0.2604 -0.2462 -0.4279
  823MOL0     C10995   4.905   0.591  11.041  0.3461  0.0020  0.2035
  823MOL0     C10996   4.991   0.541  10.952  0.0242  0.6348 -0.5462
  823MOL0     C10997   5.114   0.493  10.997  0.7802  0.4594  1.1185
  823MOL0     C10998   5.157   0.506  11.127  1.1723  0.2187 -0.3710
  823MOL0     C10999   5.293   0.473  11.168 -0.1236  0.4112  0.0353
  823MOL0     O11000   5.347   0.360  11.111  1.1722 -0.3163  0.7427
  823MOL0     C11001   5.477   0.318  11.132  0.2908 -0.0067 -0.4067
  823MOL0     C11002   5.587   0.412  11.145 -0.1631  0.4301  0.1812
  823MOL0     C11003   5.722   0.362  11.151  0.9461  0.0752 -0.4467
  823MOL0     C11004   5.750   0.233  11.158 -0.4465  0.2870  0.3996
  823MOL0     O11005   5.878   0.202  11.191  0.1211 -0.3354  0.3536
  823MOL0     C11006   5.920   0.071  11.247  0.4060 -0.7956 -0.8949
  823MOL0     C11007   5.990   0.003  11.127  0.6007 -0.3925  0.1011
  823MOL0     C11008   6.103   0.094  11.067 -0.7594  0.1432  0.6339
  823MOL0     C11009   6.225   0.088  11.162 -0.3412  0.1765  0.1410
  823MOL0     C11010   6.365   0.086  11.091  0.5552  1.2875 -0.0949
  823MOL0     C11011   6.414   0.230  11.057  0.0031  0.0557 -0.1783
  823MOL0     C11012   6.459   0.310  11.180 -0.5659  0.4074 -1.0007
  823MOL0     C11013   6.595   0.268  11.243  0.0025 -0.6593  0.2797
  823MOL0    Cl11014   6.731   0.319  11.140 -0.2529  0.0739  0.0932
  823MOL0     C11015   5.654   0.139  11.124  0.0112  0.4556 -0.0100
  823MOL0     C11016   5.522   0.184  11.120 -0.0997 -0.5559  0.8042
  823MOL0     O11017   5.330   0.527  11.268 -0.0258 -0.1602 -0.8395
  823MOL0     C11018   5.058   0.558  11.219  0.7889 -0.0496  0.0886
  823MOL0     C11019   4.934   0.588  11.174  1.2802 -0.1630 -0.1521
  823MOL0     N11020   4.558   0.879  10.414  0.9999  0.2920  0.1909
  823MOL0     N11021   4.472   0.864  10.312 -0.0765 -0.0354 -0.2744
  823MOL0     C11022   3.210   0.722  10.151 -0.5452 -0.8032  0.3351
  823MOL0     C11023   3.082   0.767  10.164  0.2992  0.3146 -0.1245
  823MOL0     C11024   2.756   1.058  10.356  0.2197 -0.7373  0.4208
  823MOL0     C11025   2.649   0.996  10.293  0.3611 -0.5636 -0.3769
  823MOL0     C11026   2.516   1.037  10.301 -0.0423  0.3373  0.9571
  823MOL0     C11027   2.475   1.136  10.390  0.1261 -0.8490 -0.2922
  823MOL0     O11028   2.333   1.148  10.424 -0.3455  0.7737 -0.1219
  823MOL0     C11029   2.296   1.274  10.477 -0.0835 -0.2402 -0.2225
  823MOL0     C11030   2.189   1.259  10.586  0.7182  0.0126  0.0113
  823MOL0     C11031   2.057   1.209  10.518  0.7901  0.6688  0.6027
  823MOL0     C11032   1.987   1.111  10.604 -0.0775 -0.1726  0.8103
  823MOL0     C11033   1.849   1.081  10.565 -0.0398  0.4383  0.5719
  823MOL0     C11034   1.739   1.053  10.520 -0.1311  0.2862 -0.1664
  823MOL0     C11035   2.581   1.189  10.462 -0.8475 -0.6320  0.7708
  823MOL0     C11036   2.717   1.163  10.447 -0.6290 -0.2250 -0.0414
  823MOL0     C11037   2.812   1.241  10.533 -0.1161  0.1528  0.6729
  823MOL0     H11038   3.082   0.840  10.494 -1.9443  1.0335 -0.8046
  823MOL0     H11039   3.298   0.743  10.472 -1.2136  1.7467  0.4319
  823MOL0     H11040   3.449   0.614  10.058 -2.0136 -0.3278  0.4799
  823MOL0     H11041   3.496   0.772  10.107  0.5794 -0.3657 -1.3031
  823MOL0     H11042   3.690   0.642  10.063  0.3601 -1.1285 -0.0222
  823MOL0     H11043   3.660   0.516  10.166  0.4443 -0.0803  1.2031
  823MOL0     H11044   3.725   0.670  10.364  0.8914 -0.0900  0.7347
  823MOL0     H11045   3.686   0.808  10.267 -1.9848 -1.5872 -0.3674
  823MOL0     H11046   3.887   0.744  10.123 -1.7908  1.8495  0.8103
  823MOL0     H11047   3.911   0.785  10.296 -1.4310 -0.2567  1.7433
  823MOL0     H11048   3.934   0.547  10.364  1.0544  1.2331  0.9816
  823MOL0     H11049   3.917   0.493  10.195 -5.0342 -1.1451  2.9646
  823MOL0     H11050   4.136   0.490  10.240  0.6275  0.5178 -0.4802
  823MOL0     H11051   4.112   0.618  10.113  1.9942  1.0815  0.1013
  823MOL0     H11052   4.192   0.680  10.396 -1.7316  0.3873 -0.0223
  823MOL0     H11053   4.179   0.797  10.254  2.4041  1.2931  2.0900
  823MOL0     H11054   4.355   0.558  10.257 -0.4514 -0.1550 -1.8655
  823MOL0     H11055   4.370   0.673  10.143  1.9320  0.0485  1.0242
  823MOL0     H11056   4.433   0.585  10.470  2.3529 -0.1744 -0.4162
  823MOL0     H11057   4.727   0.688  10.590 -0.6017 -1.1037  2.9627
  823MOL0     H11058   4.682   0.846  10.658  0.7825 -0.2102  0.2566
  823MOL0     H11059   4.454   0.732  10.723 -0.4645  1.9992 -1.8406
  823MOL0     H11060   4.557   0.591  10.718  0.3009  0.5750 -4.2939
  823MOL0     H11061   4.566   0.690  10.951 -1.4897  1.1592  0.1349
  823MOL0     H11062   4.627   0.836  10.889  0.4905  0.0086 -1.7352
  823MOL0     H11063   4.836   0.742  10.840  1.7029 -1.1304  0.3310
  823MOL0     H11064   4.767   0.577  10.815 -0.3832  0.9930 -1.0528
  823MOL0     H11065   4.967   0.548  10.846  2.1383 -2.2558 -1.3561
  823MOL0     H11066   5.186   0.456  10.924 -0.3999 -2.4037  1.2782
  823MOL0     H11067   5.574   0.520  11.146  2.4716  0.8184  2.2661
  823MOL0     H11068   5.807   0.430  11.152 -0.5921  2.1126  0.3384
  823MOL0     H11069   5.993   0.097  11.324  0.9102 -1.5566 -1.1150
  823MOL0     H11070   5.838   0.010  11.287  0.4847 -0.3252  0.0117
  823MOL0     H11071   6.030  -0.092  11.162  0.3904  0.2284  2.2189
  823MOL0     H11072   5.914  -0.014  11.050 -0.9490  2.8847  0.6900
  823MOL0     H11073   6.125   0.056  10.967 -0.3060  0.3631  0.6486
  823MOL0     H11074   6.072   0.198  11.056 -1.5336 -0.1789 -0.3379
  823MOL0     H11075   6.217  -0.009  11.211 -0.7961  0.6663  1.0715
  823MOL0     H11076   6.225   0.172  11.232 -0.0577  0.4125 -0.1360
  823MOL0     H11077   6.351   0.033  10.997  3.0934  0.4507 -0.0812
  823MOL0     H11078   6.431   0.026  11.154 -1.6812 -2.7825 -1.3075
  823MOL0     H11079   6.506   0.214  11.000  1.3750  0.0722  1.9650
  823MOL0     H11080   6.351   0.294  10.994 -0.4717  0.9290  1.1399
  823MOL0     H11081   6.374   0.309  11.249  2.5522  0.4572  3.2708
  823MOL0     H11082   6.480   0.409  11.140  2.7756  0.6638  0.9268
  823MOL0     H11083   6.611   0.313  11.341  0.6144  1.1844 -0.6371
  823MOL0     H11084   6.598   0.163  11.276  2.9332 -0.3863  1.1814
  823MOL0     H11085   5.679   0.034  11.128 -1.0254  0.2150  0.5292
  823MOL0     H11086   5.441   0.112  11.114 -1.2336  0.6017  1.5935
  823MOL0     H11087   5.083   0.571  11.324  0.3876 -3.1926  0.6873
  823MOL0     H11088   4.866   0.635  11.244 -0.7737 -1.2510 -1.3266
  823MOL0     H11089   3.242   0.672  10.060 -0.5187 -2.1285  1.0348
  823MOL0     H11090   3.018   0.755  10.077  0.3389 -2.3124  0.1324
  823MOL0     H11091   2.677   0.916  10.225 -0.5752 -0.4900 -0.8539
  823MOL0     H11092   2.437   0.988  10.245  2.4893 -0.0627 -2.5788
  823MOL0     H11093   2.264   1.329  10.388 -2.0225 -0.9533  0.0030
  823MOL0     H11094   2.375   1.327  10.531 -0.1855 -0.7858  0.4672
  823MOL0     H11095   2.164   1.355  10.633 -1.5850  0.1276 -1.3063
  823MOL0     H11096   2.222   1.191  10.665 -0.4117  0.6085  1.0246
  823MOL0     H11097   2.063   1.165  10.418 -1.1300  1.6347  0.0098
  823MOL0     H11098   2.005   1.305  10.508  0.8867  0.5293 -1.8635
  823MOL0     H11099   2.042   1.017  10.604  2.3748  1.1225 -1.3008
  823MOL0     H11100   1.996   1.140  10.709  1.4980 -1.1820  0.9940
  823MOL0     H11101   1.637   1.042  10.487  0.4158  0.1213 -1.9090
  823MOL0     H11102   2.560   1.240  10.556  3.0467 -1.2282  2.1389
  823MOL0     H11103   2.764   1.316  10.597 -1.0499  0.7658 -0.6873
  823MOL0     H11104   2.867   1.173  10.598 -1.3337 -0.8699  0.6645
  823MOL0     H11105   2.883   1.300  10.473  0.9392 -0.0376  1.7100
  824MOL0     O11106   4.526   5.638   0.626 -0.1888  1.3779 -0.3596
  824MOL0     C11107   4.467   5.691   0.718  0.4354 -0.4717 -0.4559
  824MOL0     O11108   4.519   5.770   0.814 -0.2449 -0.3242 -0.4477
  824MOL0     C11109   4.630   5.834   0.777  0.0457 -0.4845  0.5571
  824MOL0     C11110   4.752   5.780   0.773 -0.5818  0.4672  0.3111
  824MOL0     C11111   4.867   5.851   0.745  0.6366 -0.6428  0.3346
  824MOL0     C11112   4.855   5.986   0.716  0.5185 -0.4276  0.3007
  824MOL0     O11113   4.950   6.069   0.680 -0.5358  0.5381 -0.3387
  824MOL0     C11114   5.084   6.019   0.694  0.7706  0.3778  0.6002
  824MOL0     C11115   5.172   6.147   0.682 -0.3451 -0.0562  1.0078
  824MOL0     C11116   5.320   6.102   0.685 -0.5397 -0.0706  0.0348
  824MOL0     C11117   5.406   6.227   0.669 -0.2078  0.3166 -0.2325
  824MOL0     C11118   5.554   6.219   0.674 -1.2698  0.0719  0.0198
  824MOL0     C11119   5.609   6.349   0.647 -0.5388 -0.8140 -0.7757
  824MOL0     C11120   5.758   6.332   0.661 -0.5568 -0.1971  0.7726
  824MOL0     C11121   5.837   6.472   0.654 -0.3987  0.1602  0.6366
  824MOL0     N11122   5.985   6.466   0.665  0.0651 -0.3700  1.4683
  824MOL0     C11123   6.067   6.366   0.626 -0.3894 -0.4960  0.0764
  824MOL0     C11124   6.185   6.414   0.670 -0.5331 -0.6341 -0.3035
  824MOL0     C11125   6.323   6.339   0.670 -0.0579  0.3516  0.0679
  824MOL0     C11126   6.322   6.223   0.771  0.8520  0.4528  0.0293
  824MOL0     C11127   6.434   6.128   0.756  0.4494  0.2921 -0.1619
  824MOL0     C11128   6.568   6.199   0.806 -0.0822  1.3711  0.8550
  824MOL0     O11129   6.563   6.216   0.945 -0.5287 -0.8645 -0.5089
  824MOL0     C11130   6.664   6.282   1.012  0.1379  0.0690 -0.1850
  824MOL0     C11131   6.639   6.308   1.144 -0.4363  0.3870 -0.4349
  824MOL0     C11132   6.726   6.385   1.225  0.4731 -0.1720  0.1268
  824MOL0     C11133   6.840   6.438   1.162 -0.6354 -0.7753 -0.1644
  824MOL0     C11134   6.941   6.535   1.228  0.1045  0.8023 -0.0801
  824MOL0     O11135   7.049   6.569   1.157 -0.1297 -0.0915  0.3118
  824MOL0     C11136   7.152   6.639   1.215 -0.1271 -0.3687 -0.1375
  824MOL0     C11137   7.239   6.703   1.130 -0.0542 -1.0192 -0.1247
  824MOL0     C11138   7.359   6.751   1.168 -0.6029  0.2530  1.2177
  824MOL0     C11139   7.398   6.767   1.301  0.6053  0.4840 -1.0178
  824MOL0     O11140   7.518   6.810   1.358 -0.0595 -0.1915  0.0819
  824MOL0     C11141   7.593   6.884   1.251 -0.0800  0.7245 -0.0845
  824MOL0     C11142   7.695   6.974   1.317 -0.6900 -0.6286 -0.3653
  824MOL0     C11143   7.811   6.892   1.375  0.2388 -0.8046  0.0726
  824MOL0     C11144   7.943   6.936   1.297 -1.0952  0.2073 -0.6072
  824MOL0     C11145   8.065   6.863   1.355 -0.1962 -0.2366  0.0543
  824MOL0     C11146   8.204   6.899   1.296 -0.0314 -0.2574  0.1024
  824MOL0     C11147   8.332   6.844   1.371  0.2813  0.4297  0.4252
  824MOL0     C11148   8.464   6.902   1.307  0.3583 -0.8005  0.1020
  824MOL0    Cl11149   8.612   6.829   1.367  0.2327  0.0754 -0.0999
  824MOL0     C11150   7.311   6.702   1.391  0.2137 -0.5078  0.0246
  824MOL0     C11151   7.192   6.639   1.346  0.3559  0.6757  0.1868
  824MOL0     O11152   6.915   6.567   1.343 -0.0470 -0.2461  0.5546
  824MOL0     C11153   6.863   6.412   1.028  0.1792  0.2172 -0.3272
  824MOL0     C11154   6.781   6.331   0.953 -0.8013 -0.3161 -0.0727
  824MOL0     N11155   6.165   6.546   0.716  0.3266 -0.0641  0.1671
  824MOL0     N11156   6.049   6.585   0.693  0.4132  0.5436  0.0251
  824MOL0     C11157   4.727   6.042   0.723 -0.7900  0.4863 -0.6777
  824MOL0     C11158   4.612   5.962   0.744 -0.1681  0.1673 -0.3481
  824MOL0     C11159   4.330   5.649   0.732  0.2918  0.6044 -0.6281
  824MOL0     C11160   4.283   5.620   0.863  0.6465  0.4926 -0.9909
  824MOL0     C11161   4.158   5.563   0.886 -0.2916  0.3934 -1.3974
  824MOL0     C11162   4.085   5.514   0.775  0.3405 -0.4412  0.0901
  824MOL0     O11163   3.962   5.461   0.786 -0.5611  0.0646  0.1016
  824MOL0     C11164   3.905   5.431   0.913  0.7049  0.3663  0.4648
  824MOL0     C11165   3.753   5.423   0.905  0.9451 -0.5270  0.1645
  824MOL0     C11166   3.709   5.293   0.842 -0.3856  0.4780  0.2262
  824MOL0     C11167   3.564   5.270   0.881 -0.0012  0.0126  0.9101
  824MOL0     C11168   3.508   5.143   0.853  0.1827  1.3922  0.6809
  824MOL0     C11169   3.451   5.037   0.836  0.2683  0.4127  0.2336
  824MOL0     C11170   4.123   5.549   0.649 -0.6515 -0.6734 -0.4192
  824MOL0     C11171   4.246   5.612   0.623  0.2393 -0.7369  1.1846
  824MOL0     C11172   4.278   5.650   0.487 -1.1892  0.3977  0.9977
  824MOL0     H11173   4.755   5.675   0.801 -2.5643  0.0588 -0.7653
  824MOL0     H11174   4.953   5.786   0.733  0.1594 -0.9342 -2.1545
  824MOL0     H11175   5.104   5.981   0.795  1.1319 -0.7480  0.1209
  824MOL0     H11176   5.095   5.943   0.616 -0.1519 -1.8137  2.4897
  824MOL0     H11177   5.148   6.227   0.753 -1.9045  1.1418 -0.7847
  824MOL0     H11178   5.146   6.201   0.591 -0.2983  1.8904  2.0878
  824MOL0     H11179   5.327   6.023   0.610 -1.1717 -0.6112  0.5251
  824MOL0     H11180   5.350   6.062   0.783  1.6556  1.0695 -0.1031
  824MOL0     H11181   5.384   6.265   0.568 -0.1867  0.3013 -0.2428
  824MOL0     H11182   5.378   6.301   0.745 -1.8423 -0.2944 -0.2143
  824MOL0     H11183   5.594   6.187   0.771  1.0484  2.4610 -0.0321
  824MOL0     H11184   5.582   6.152   0.593 -1.5975 -0.5578  0.4210
  824MOL0     H11185   5.586   6.379   0.545 -1.3205 -1.7092 -0.8794
  824MOL0     H11186   5.566   6.426   0.711  1.1071 -0.2626 -0.2674
  824MOL0     H11187   5.800   6.267   0.584  2.9294  2.3097  0.3544
  824MOL0     H11188   5.784   6.289   0.759 -0.9073  0.2185  1.0524
  824MOL0     H11189   5.808   6.519   0.559 -0.0801 -1.5306 -0.3240
  824MOL0     H11190   5.797   6.536   0.734 -1.3050  3.4746 -2.2166
  824MOL0     H11191   6.056   6.268   0.582  2.6527 -2.9847  4.2181
  824MOL0     H11192   6.343   6.308   0.568  0.6942  1.8496 -0.2729
  824MOL0     H11193   6.407   6.406   0.693  2.5763 -3.2849  1.9566
  824MOL0     H11194   6.331   6.265   0.872  3.4170 -1.6246  0.7490
  824MOL0     H11195   6.232   6.161   0.761  1.2940 -0.5016  1.6613
  824MOL0     H11196   6.450   6.103   0.651 -0.9094 -1.2339 -0.0330
  824MOL0     H11197   6.419   6.030   0.801  2.1373  0.0979  0.0513
  824MOL0     H11198   6.585   6.294   0.755 -0.0399  0.4303 -0.9872
  824MOL0     H11199   6.652   6.130   0.794 -0.7367  0.3955  1.7014
  824MOL0     H11200   6.550   6.263   1.186 -1.1345  1.1761 -1.0498
  824MOL0     H11201   6.699   6.418   1.325 -3.2840  3.3548 -1.7334
  824MOL0     H11202   7.220   6.703   1.023  0.2089 -1.6836 -0.1763
  824MOL0     H11203   7.427   6.783   1.090  0.8816  1.3194  2.8658
  824MOL0     H11204   7.633   6.811   1.180  0.2208  0.7758  0.0287
  824MOL0     H11205   7.527   6.948   1.193 -2.1548 -1.5220 -0.3432
  824MOL0     H11206   7.717   7.049   1.240 -1.8796 -0.9491 -1.0474
  824MOL0     H11207   7.649   7.044   1.387  1.0839  2.8683 -2.3683
  824MOL0     H11208   7.819   6.887   1.484  2.1714 -2.1376 -0.0866
  824MOL0     H11209   7.797   6.785   1.357  0.8238 -0.9106  0.2286
  824MOL0     H11210   7.951   7.045   1.295 -3.1082  0.4148 -4.1173
  824MOL0     H11211   7.940   6.916   1.190 -2.6783  1.6659 -0.8660
  824MOL0     H11212   8.051   6.755   1.346 -4.3938  0.0291  0.9912
  824MOL0     H11213   8.070   6.886   1.462  1.2592 -2.5874  0.5653
  824MOL0     H11214   8.208   6.860   1.194 -0.6055 -1.3266  0.4709
  824MOL0     H11215   8.204   7.008   1.284  1.8761 -0.3945 -1.7655
  824MOL0     H11216   8.339   6.737   1.354  0.6263  1.0199 -4.4678
  824MOL0     H11217   8.335   6.845   1.480  4.4868 -0.0191  0.4879
  824MOL0     H11218   8.456   6.892   1.198  0.2064 -1.0428  0.1335
  824MOL0     H11219   8.473   7.010   1.322 -0.4372 -0.7460  0.1958
  824MOL0     H11220   7.338   6.697   1.496  0.1852 -1.7282 -0.0120
  824MOL0     H11221   7.125   6.605   1.425 -1.3948 -1.5904 -2.0735
  824MOL0     H11222   6.960   6.438   0.987  1.9672 -3.0724  1.3779
  824MOL0     H11223   6.807   6.317   0.849 -0.9060  1.5320 -0.3918
  824MOL0     H11224   4.718   6.143   0.684  1.7400  1.7692  1.7459
  824MOL0     H11225   4.514   6.000   0.720 -0.2341  0.3695  0.2136
  824MOL0     H11226   4.348   5.642   0.947  0.0819 -2.6138  0.3887
  824MOL0     H11227   4.151   5.548   0.993  1.3765 -1.3221 -1.4840
  824MOL0     H11228   3.925   5.503   0.992  0.3412 -1.7051  2.5634
  824MOL0     H11229   3.933   5.337   0.962 -0.3556  0.3147  0.9947
  824MOL0     H11230   3.714   5.500   0.837  3.2960  0.5911 -0.0055
  824MOL0     H11231   3.716   5.451   1.004  0.6251  2.0526 -0.5994
  824MOL0     H11232   3.755   5.204   0.885  0.0583  1.6651  2.3983
  824MOL0     H11233   3.728   5.306   0.735  0.2122  4.5642  0.6582
  824MOL0     H11234   3.548   5.305   0.983  2.1902  2.6109  0.4673
  824MOL0     H11235   3.513   5.340   0.815  2.0148 -0.1480 -0.9503
  824MOL0     H11236   3.408   4.939   0.825  0.0096  0.4671  0.7789
  824MOL0     H11237   4.062   5.503   0.572 -0.2976  0.1186 -1.1790
  824MOL0     H11238   4.346   5.575   0.445  0.3892  3.0932 -1.6115
  824MOL0     H11239   4.192   5.660   0.420  2.0654  3.7721 -3.3578
  824MOL0     H11240   4.331   5.745   0.474 -3.3284  1.3657 -1.5683
  825MOL0     O11241  10.599   4.890   1.028  0.0887  0.3517  0.3539
  825MOL0     C11242  10.509   4.896   0.946  0.4963 -0.7406  0.8440
  825MOL0     O11243  10.517   4.963   0.824  0.5113  0.2474  0.3225
  825MOL0     C11244  10.631   4.966   0.756  0.9475  0.5736  0.5336
  825MOL0     C11245  10.730   4.862   0.769 -0.6130 -0.0503  0.0471
  825MOL0     C11246  10.844   4.867   0.685 -0.1895  0.8809 -0.7464
  825MOL0     C11247  10.874   4.974   0.598  0.4320  0.1196 -0.1788
  825MOL0     O11248  10.986   4.987   0.516  0.1338 -0.7000  0.1319
  825MOL0     C11249  11.085   4.884   0.514  0.1808 -0.0265  0.2495
  825MOL0     C11250  11.209   4.946   0.453  0.4927  0.4399 -1.1516
  825MOL0     C11251  11.329   4.884   0.535 -0.7796  0.4743 -0.0760
  825MOL0     C11252  11.461   4.922   0.469  0.0926  0.7471  0.0469
  825MOL0     C11253  11.471   4.848   0.331 -0.4328 -0.3028 -0.5024
  825MOL0     C11254  11.621   4.820   0.288  0.2977 -0.2496 -1.0197
  825MOL0     C11255  11.634   4.724   0.171  0.1703 -0.2749 -1.1904
  825MOL0     C11256  11.755   4.731   0.086 -0.1758 -0.4250  0.4154
  825MOL0     N11257  11.871   4.654   0.149 -0.4299 -0.1562 -0.3093
  825MOL0     C11258  11.931   4.550   0.091  0.2606  0.3563 -1.0850
  825MOL0     C11259  12.060   4.539   0.142 -0.4569  0.1089 -0.1993
  825MOL0     C11260  12.160   4.451   0.097 -0.7473 -0.3856  0.4760
  825MOL0     C11261  12.172   4.327   0.191  0.0994 -0.5189  0.0838
  825MOL0     C11262  12.316   4.315   0.250 -0.1549 -0.7663 -0.1730
  825MOL0     C11263  12.334   4.421   0.367  0.1644 -0.2652 -0.6631
  825MOL0     O11264  12.405   4.540   0.316  0.9089 -0.7186 -0.2268
  825MOL0     C11265  12.471   4.617   0.415  0.0014  0.1391  0.2133
  825MOL0     C11266  12.566   4.556   0.497  0.1925 -1.1564 -0.6607
  825MOL0     C11267  12.648   4.631   0.582 -0.3750 -0.5814 -0.2772
  825MOL0     C11268  12.620   4.772   0.605 -0.4387 -0.6133  0.2993
  825MOL0     C11269  12.712   4.861   0.685  0.4613 -0.3935 -0.6155
  825MOL0     O11270  12.682   4.994   0.686 -0.3486  0.1871  0.4414
  825MOL0     C11271  12.757   5.094   0.743 -0.5674  0.0615  0.0978
  825MOL0     C11272  12.894   5.101   0.712  0.4135 -0.1724 -0.2673
  825MOL0     C11273  12.970   5.217   0.759 -0.6359 -0.8172  0.3690
  825MOL0     C11274  12.919   5.322   0.831 -0.2182  0.5014 -0.2033
  825MOL0     O11275  12.984   5.436   0.875 -0.1627 -0.0583  0.7390
  825MOL0     C11276  13.119   5.424   0.927 -0.2883  0.2483  0.2159
  825MOL0     C11277  13.182   5.555   0.978  0.6114  0.6692 -0.2957
  825MOL0     C11278  13.246   5.644   0.869 -0.0242 -0.4613  1.1358
  825MOL0     C11279  13.320   5.772   0.920  0.5965 -0.1994 -0.6527
  825MOL0     C11280  13.330   5.882   0.799  0.4817  0.5118 -0.5020
  825MOL0     C11281  13.374   5.835   0.659  0.1915 -0.6297 -0.8685
  825MOL0     C11282  13.404   5.959   0.580  0.2468  0.0125  0.4681
  825MOL0     C11283  13.450   5.933   0.428  0.1299 -0.6865 -0.8300
  825MOL0    Cl11284  13.374   5.803   0.343 -0.1524 -0.2509 -0.1029
  825MOL0     C11285  12.778   5.310   0.850 -0.4553  0.7801 -0.2260
  825MOL0     C11286  12.700   5.204   0.805  0.5018  0.0266 -0.5893
  825MOL0     O11287  12.807   4.812   0.742  0.1481  0.5442  0.4379
  825MOL0     C11288  12.522   4.835   0.528  0.3741  0.2187  0.2379
  825MOL0     C11289  12.441   4.751   0.438  0.2551  0.6729 -0.0755
  825MOL0     N11290  12.066   4.637   0.241 -0.7652  1.0603 -0.3542
  825MOL0     N11291  11.952   4.701   0.253  0.2291 -0.1604  0.3170
  825MOL0     C11292  10.766   5.060   0.578 -0.7986  0.7532  0.5454
  825MOL0     C11293  10.649   5.053   0.650  1.1408 -0.0558 -0.4778
  825MOL0     C11294  10.370   4.840   0.983  0.3643 -0.3257  0.0076
  825MOL0     C11295  10.267   4.892   0.910  0.5919  0.4478 -0.0546
  825MOL0     C11296  10.147   4.844   0.927 -0.0868  0.2980  0.2889
  825MOL0     C11297  10.104   4.760   1.029 -0.2519  0.5302  0.4773
  825MOL0     O11298   9.976   4.719   1.066 -0.8438  0.5034  0.4141
  825MOL0     C11299   9.869   4.751   0.971  0.9833 -1.0303 -0.1865
  825MOL0     C11300   9.744   4.715   1.038  0.5618  0.2492 -0.3156
  825MOL0     C11301   9.744   4.563   1.062 -1.2494  0.2359  0.2393
  825MOL0     C11302   9.600   4.519   1.105 -0.1688  0.6157 -0.4437
  825MOL0     C11303   9.558   4.382   1.050 -0.9368 -0.3096 -0.6534
  825MOL0     C11304   9.519   4.272   1.033 -0.6070  0.3860  0.1459
  825MOL0     C11305  10.210   4.720   1.108  0.1374  0.1479  1.1555
  825MOL0     C11306  10.345   4.745   1.088  0.2786 -0.7537 -0.0975
  825MOL0     C11307  10.453   4.669   1.161 -0.1741  0.3354  0.0202
  825MOL0     H11308  10.718   4.772   0.828 -0.9644 -0.6172 -0.8694
  825MOL0     H11309  10.925   4.798   0.705 -1.5353 -1.1716 -1.8913
  825MOL0     H11310  11.105   4.828   0.607 -1.7587 -0.8691  0.1964
  825MOL0     H11311  11.042   4.803   0.454 -2.5652  0.2223  1.7058
  825MOL0     H11312  11.215   5.053   0.475 -0.1930  0.1226  0.7030
  825MOL0     H11313  11.219   4.927   0.345 -2.0478 -0.4442 -1.2883
  825MOL0     H11314  11.317   4.776   0.540  0.4880  0.3358  0.3484
  825MOL0     H11315  11.341   4.913   0.640  2.1197 -2.4324  0.5289
  825MOL0     H11316  11.468   5.030   0.456  1.9716  0.9103  1.9117
  825MOL0     H11317  11.531   4.889   0.546 -0.9918 -2.0728 -0.0396
  825MOL0     H11318  11.417   4.753   0.335  1.6415 -1.5641 -1.1000
  825MOL0     H11319  11.432   4.916   0.255  0.3552  0.5138 -0.1962
  825MOL0     H11320  11.655   4.920   0.259 -2.0907  1.8052  2.5605
  825MOL0     H11321  11.682   4.791   0.374 -0.2714 -0.4454 -0.6793
  825MOL0     H11322  11.549   4.749   0.107 -0.4534  3.1668  0.7333
  825MOL0     H11323  11.624   4.622   0.207  0.1076  0.6400  1.6192
  825MOL0     H11324  11.730   4.677  -0.005  0.8596 -1.0484  0.4748
  825MOL0     H11325  11.775   4.835   0.061 -2.9986  0.8599  2.9379
  825MOL0     H11326  11.897   4.483   0.013  2.6812 -3.8262  1.0687
  825MOL0     H11327  12.140   4.420  -0.006 -1.0737  0.5550  0.2515
  825MOL0     H11328  12.254   4.506   0.082 -1.5084  0.7662 -0.1882
  825MOL0     H11329  12.106   4.329   0.278  0.0167 -1.0371  0.0345
  825MOL0     H11330  12.144   4.237   0.136 -3.8145 -0.9631  2.4711
  825MOL0     H11331  12.395   4.322   0.175  0.9952 -2.4458  0.8156
  825MOL0     H11332  12.318   4.216   0.296 -2.3632 -0.8175 -0.0772
  825MOL0     H11333  12.389   4.366   0.444 -1.6704  0.9348  1.6272
  825MOL0     H11334  12.242   4.443   0.422 -0.4565 -0.8837 -1.4278
  825MOL0     H11335  12.588   4.452   0.476 -1.6156 -1.1838 -2.7389
  825MOL0     H11336  12.725   4.569   0.626 -0.2681 -2.5430 -2.9699
  825MOL0     H11337  12.934   5.024   0.646 -2.5612  0.8137 -3.5181
  825MOL0     H11338  13.076   5.209   0.739 -1.0630  0.3508 -2.9628
  825MOL0     H11339  13.113   5.351   1.008 -2.6591  1.2679  1.0552
  825MOL0     H11340  13.175   5.377   0.846 -1.8877 -1.8037  0.2296
  825MOL0     H11341  13.116   5.622   1.034 -2.1284  0.5635 -3.1310
  825MOL0     H11342  13.264   5.519   1.041 -0.3807  2.6385  2.3332
  825MOL0     H11343  13.326   5.590   0.817 -0.3781  1.3500 -1.4940
  825MOL0     H11344  13.172   5.675   0.795 -0.3640  0.2532  1.7659
  825MOL0     H11345  13.423   5.747   0.948  0.5482 -0.7497 -0.9630
  825MOL0     H11346  13.268   5.819   1.004  0.9782 -1.1401  0.1233
  825MOL0     H11347  13.407   5.946   0.842  0.8456  0.7232 -1.4461
  825MOL0     H11348  13.239   5.942   0.794  0.8532  1.2963  1.3945
  825MOL0     H11349  13.458   5.766   0.672  3.2894  2.5920 -2.4102
  825MOL0     H11350  13.287   5.786   0.613  0.1921 -0.6266 -0.8728
  825MOL0     H11351  13.473   6.025   0.634 -0.0222 -0.5769  1.5629
  825MOL0     H11352  13.307   6.009   0.574 -0.3397 -1.2170 -2.8739
  825MOL0     H11353  13.427   6.022   0.370 -2.3233 -1.3174 -0.9146
  825MOL0     H11354  13.560   5.925   0.430  0.1320 -0.7027 -1.0109
  825MOL0     H11355  12.724   5.384   0.908  0.5963  0.2679  1.4669
  825MOL0     H11356  12.593   5.196   0.823  0.9438 -1.7027  1.8454
  825MOL0     H11357  12.491   4.938   0.513  0.0178  0.0827  0.0236
  825MOL0     H11358  12.372   4.807   0.376 -0.0178  0.4100 -0.0151
  825MOL0     H11359  10.776   5.138   0.503  0.2531 -1.3572 -1.6826
  825MOL0     H11360  10.576   5.132   0.639  0.2126 -0.4964  1.8010
  825MOL0     H11361  10.282   4.958   0.825 -0.7220 -2.3702 -2.7083
  825MOL0     H11362  10.072   4.880   0.857 -1.2620 -1.8369  0.3547
  825MOL0     H11363   9.871   4.702   0.873  1.5547  0.7381 -1.0958
  825MOL0     H11364   9.863   4.859   0.961  1.4988 -0.9706  0.1361
  825MOL0     H11365   9.652   4.734   0.982 -0.1575  1.1929  1.1161
  825MOL0     H11366   9.727   4.768   1.133 -4.3460  0.4323 -0.9919
  825MOL0     H11367   9.810   4.537   1.145  0.4512  2.9617 -0.1242
  825MOL0     H11368   9.779   4.503   0.977 -0.3776  0.0573  0.7132
  825MOL0     H11369   9.604   4.518   1.215  0.2869 -0.3067 -0.4598
  825MOL0     H11370   9.520   4.589   1.080  0.8086  1.7161 -0.5606
  825MOL0     H11371   9.481   4.176   1.006  1.5461 -0.2840 -0.6709
  825MOL0     H11372  10.185   4.661   1.196 -2.7258 -0.8113 -0.1635
  825MOL0     H11373  10.514   4.608   1.094  1.6886  0.6851  1.3039
  825MOL0     H11374  10.522   4.738   1.211 -1.6691  1.4423  0.6464
  825MOL0     H11375  10.402   4.612   1.239 -2.0251 -0.3356 -1.6094
  826MOL0     O11376  10.518   6.801   2.559 -0.3312  0.2373 -0.4745
  826MOL0     C11377  10.459   6.894   2.613  0.6645 -0.1423 -0.0703
  826MOL0     O11378  10.485   7.026   2.587 -0.8077 -0.5224 -0.0646
  826MOL0     C11379  10.583   7.055   2.495 -0.4287  0.0432  0.1076
  826MOL0     C11380  10.547   7.154   2.403 -0.3497 -0.4629  0.3933
  826MOL0     C11381  10.637   7.199   2.307 -0.2256  0.8280  0.8148
  826MOL0     C11382  10.767   7.160   2.307  0.5570 -0.5930  0.8171
  826MOL0     O11383  10.866   7.199   2.221  0.0007 -0.6501 -0.0665
  826MOL0     C11384  10.847   7.296   2.111  0.4261  0.2436  0.3837
  826MOL0     C11385  10.974   7.381   2.078  1.0659  0.8255  0.0744
  826MOL0     C11386  11.069   7.314   1.974 -0.1870  0.1845  0.1111
  826MOL0     C11387  11.174   7.408   1.924  0.0514  0.6431 -0.2024
  826MOL0     C11388  11.284   7.332   1.839  0.2563 -0.1563 -0.8015
  826MOL0     C11389  11.405   7.414   1.800  1.1520  0.2649 -0.6624
  826MOL0     C11390  11.525   7.335   1.768  0.5620  0.1468 -0.5771
  826MOL0     C11391  11.597   7.283   1.894 -0.6606 -0.5621  0.3975
  826MOL0     N11392  11.739   7.289   1.868 -0.5874  0.0742 -0.2998
  826MOL0     C11393  11.819   7.404   1.874  0.5878  0.2653  0.7707
  826MOL0     C11394  11.948   7.349   1.877  0.3719 -0.3546  0.5533
  826MOL0     C11395  12.077   7.424   1.892 -0.4046 -0.6152  0.5719
  826MOL0     C11396  12.197   7.337   1.920  0.0122  0.3721  0.8214
  826MOL0     C11397  12.258   7.278   1.798  0.2651  0.8333 -0.0115
  826MOL0     C11398  12.354   7.363   1.714  0.7815  0.3882  0.4152
  826MOL0     O11399  12.471   7.411   1.791 -0.3564  0.7448  0.1053
  826MOL0     C11400  12.571   7.484   1.727  0.1442  0.6297  0.6541
  826MOL0     C11401  12.702   7.440   1.729 -1.0341  0.9035 -0.0034
  826MOL0     C11402  12.802   7.506   1.652  0.2755 -0.1387 -0.5846
  826MOL0     C11403  12.764   7.620   1.574 -0.3553  0.0745 -0.0979
  826MOL0     C11404  12.855   7.702   1.496 -0.7588 -0.2685  0.8170
  826MOL0     O11405  12.803   7.793   1.410 -0.3593 -0.0831  0.4285
  826MOL0     C11406  12.873   7.905   1.364 -0.6403  0.1656 -0.3729
  826MOL0     C11407  12.824   7.964   1.249 -0.1536 -0.2584  0.2399
  826MOL0     C11408  12.881   8.086   1.203 -0.6952  0.4167 -0.5983
  826MOL0     C11409  12.992   8.139   1.271 -0.1157 -0.0436 -0.0922
  826MOL0     O11410  13.033   8.265   1.221 -0.0546 -0.5971  0.0726
  826MOL0     C11411  13.089   8.353   1.325  0.2637  0.2576  0.8416
  826MOL0     C11412  13.135   8.487   1.258 -0.4822  0.3297  0.0507
  826MOL0     C11413  13.187   8.582   1.364 -0.2201 -0.5910 -0.4967
  826MOL0     C11414  13.332   8.637   1.358 -0.0152 -0.3931  0.5952
  826MOL0     C11415  13.366   8.747   1.466 -0.3728 -0.8872 -0.2208
  826MOL0     C11416  13.497   8.817   1.464 -0.4897  0.1577  0.1446
  826MOL0     C11417  13.601   8.712   1.495  0.5875 -0.0949  0.6907
  826MOL0     C11418  13.734   8.770   1.559  0.2282 -0.0148  0.2569
  826MOL0    Cl11419  13.855   8.645   1.610  0.2421  0.1163  0.6588
  826MOL0     C11420  13.034   8.071   1.390  0.2493 -0.6479 -0.9242
  826MOL0     C11421  12.980   7.955   1.438  0.1232  0.2140 -0.3569
  826MOL0     O11422  12.971   7.668   1.498 -0.0889  0.2736 -0.2711
  826MOL0     C11423  12.635   7.666   1.592 -0.0651 -0.6146 -1.0275
  826MOL0     C11424  12.536   7.596   1.654  1.0519  0.3303 -0.0162
  826MOL0     N11425  11.935   7.209   1.859 -0.1201 -0.0113 -0.0983
  826MOL0     N11426  11.809   7.174   1.863 -0.6571 -0.1871 -0.7852
  826MOL0     C11427  10.804   7.061   2.388  0.3293  0.0596 -0.5086
  826MOL0     C11428  10.715   7.001   2.476 -0.0414 -0.3412  0.3374
  826MOL0     C11429  10.364   6.864   2.724 -0.3592 -0.3679  1.1594
  826MOL0     C11430  10.347   6.966   2.823  0.2925  0.6258  0.4814
  826MOL0     C11431  10.245   6.958   2.914 -0.1122 -0.0473 -0.1191
  826MOL0     C11432  10.169   6.843   2.922  0.0879  0.4407  0.7839
  826MOL0     O11433  10.069   6.848   3.012 -0.0381 -0.4437  0.4804
  826MOL0     C11434  10.019   6.725   3.063  0.2525 -1.0522 -0.7459
  826MOL0     C11435   9.893   6.677   2.979  0.0074  0.0589 -0.1417
  826MOL0     C11436   9.806   6.797   2.956  0.8772  0.2082  0.6844
  826MOL0     C11437   9.701   6.761   2.858  0.2396  0.3530 -0.2148
  826MOL0     C11438   9.744   6.781   2.715  0.1519 -0.5753  0.4143
  826MOL0     C11439   9.776   6.798   2.598  0.3167  0.0989 -0.2498
  826MOL0     C11440  10.200   6.736   2.835  0.6133 -0.7634  0.8308
  826MOL0     C11441  10.293   6.740   2.734  0.4554 -0.0141  0.9960
  826MOL0     C11442  10.310   6.614   2.655  0.6500  0.3646 -0.1361
  826MOL0     H11443  10.449   7.199   2.409  1.6905  4.6801 -0.1376
  826MOL0     H11444  10.605   7.272   2.234 -0.3298 -0.8487 -0.9085
  826MOL0     H11445  10.819   7.239   2.023 -1.2310  0.6002  0.6359
  826MOL0     H11446  10.767   7.370   2.130  1.6435  1.9419 -0.7934
  826MOL0     H11447  11.024   7.420   2.166  1.7637  2.2065 -0.8905
  826MOL0     H11448  10.938   7.467   2.019 -0.5634  0.3376  0.3077
  826MOL0     H11449  11.017   7.270   1.888 -0.1318  1.0505 -0.3780
  826MOL0     H11450  11.111   7.225   2.022 -1.8204 -1.4379 -1.3296
  826MOL0     H11451  11.122   7.469   1.849 -1.9435 -3.7527 -2.7897
  826MOL0     H11452  11.213   7.468   2.007 -2.2161 -0.4402  1.7602
  826MOL0     H11453  11.310   7.249   1.905 -0.6434  1.8844  2.3459
  826MOL0     H11454  11.241   7.292   1.747  2.1524 -1.3693 -1.2088
  826MOL0     H11455  11.372   7.477   1.717 -2.2392  2.3894  1.9983
  826MOL0     H11456  11.423   7.486   1.880  1.2051  1.6467 -1.8735
  826MOL0     H11457  11.600   7.403   1.726  1.7298  1.7747  3.6847
  826MOL0     H11458  11.508   7.269   1.682 -2.6715  0.2542 -0.1584
  826MOL0     H11459  11.568   7.348   1.977  2.4850  1.1163  0.3344
  826MOL0     H11460  11.558   7.184   1.921 -1.8515 -0.8174 -1.9604
  826MOL0     H11461  11.784   7.503   1.902 -1.5510 -0.5229  1.0382
  826MOL0     H11462  12.103   7.485   1.806  3.7591 -1.4079  1.0578
  826MOL0     H11463  12.069   7.493   1.976  0.0855  1.8172 -1.2762
  826MOL0     H11464  12.280   7.382   1.975  2.0432  1.3187 -2.7333
  826MOL0     H11465  12.175   7.255   1.988 -0.6910 -0.8151 -0.7643
  826MOL0     H11466  12.187   7.231   1.729 -0.5185 -2.2144  2.6375
  826MOL0     H11467  12.303   7.188   1.842 -0.6431 -0.7036 -2.0621
  826MOL0     H11468  12.309   7.445   1.657 -1.4577 -1.9949 -1.5012
  826MOL0     H11469  12.396   7.288   1.646  0.0352 -0.0680  0.4502
  826MOL0     H11470  12.723   7.348   1.782  0.9265  2.0603  1.3441
  826MOL0     H11471  12.904   7.473   1.642  0.6756  0.7861  0.2481
  826MOL0     H11472  12.736   7.916   1.206 -0.5581  0.0919  0.6736
  826MOL0     H11473  12.849   8.138   1.114 -1.6387  0.7977 -0.0474
  826MOL0     H11474  13.023   8.366   1.410  0.3456 -1.9963  1.3219
  826MOL0     H11475  13.174   8.301   1.371 -0.6893 -0.5342  1.7205
  826MOL0     H11476  13.215   8.464   1.188 -1.6416 -0.4491 -1.0538
  826MOL0     H11477  13.053   8.544   1.212 -1.2696  1.3663  2.5405
  826MOL0     H11478  13.113   8.662   1.375 -1.7514 -1.8456 -1.4681
  826MOL0     H11479  13.185   8.532   1.461  0.2888 -1.8028 -1.0845
  826MOL0     H11480  13.340   8.690   1.263 -1.0284 -1.1104  0.0937
  826MOL0     H11481  13.411   8.563   1.339  0.6686  0.9528 -2.3925
  826MOL0     H11482  13.345   8.716   1.569  0.1975  0.2180  0.2417
  826MOL0     H11483  13.298   8.830   1.443  0.0230 -0.9980 -1.9156
  826MOL0     H11484  13.521   8.869   1.371 -0.2440  0.8233  0.5703
  826MOL0     H11485  13.496   8.887   1.548 -0.8011  1.1273 -0.6496
  826MOL0     H11486  13.612   8.654   1.403 -2.3429  1.2928 -0.6314
  826MOL0     H11487  13.561   8.645   1.572 -0.9501 -2.4797 -1.9877
  826MOL0     H11488  13.795   8.836   1.496 -1.0326  0.2273 -0.7526
  826MOL0     H11489  13.703   8.829   1.646 -0.1825 -2.9896  2.2818
  826MOL0     H11490  13.118   8.104   1.450 -1.3365  3.3231 -0.5501
  826MOL0     H11491  13.004   7.894   1.524  1.9270 -2.0775 -2.3264
  826MOL0     H11492  12.603   7.762   1.553  2.0003  0.1146 -1.0471
  826MOL0     H11493  12.435   7.631   1.638 -0.3929 -2.8871  1.1590
  826MOL0     H11494  10.906   7.022   2.394 -0.0562 -0.8827  0.1639
  826MOL0     H11495  10.752   6.914   2.529  1.4716 -0.8431 -1.4252
  826MOL0     H11496  10.408   7.055   2.825  0.0721  0.8381 -1.2064
  826MOL0     H11497  10.237   7.038   2.986 -0.4480 -0.6573  0.5374
  826MOL0     H11498   9.981   6.736   3.165 -2.6991 -3.6581 -1.3781
  826MOL0     H11499  10.098   6.649   3.067  0.3531 -1.0365 -1.9655
  826MOL0     H11500   9.829   6.617   3.045 -1.0496  2.9333  1.6447
  826MOL0     H11501   9.910   6.609   2.895 -1.6075 -0.6554  0.0678
  826MOL0     H11502   9.861   6.881   2.912 -1.9694  1.2359 -1.2639
  826MOL0     H11503   9.761   6.826   3.051 -2.2602  0.2447 -0.6801
  826MOL0     H11504   9.666   6.657   2.861  1.5399 -0.1972 -1.9888
  826MOL0     H11505   9.629   6.843   2.868  2.3910  2.0546  2.8552
  826MOL0     H11506   9.820   6.808   2.501  4.1735  0.2489  1.3561
  826MOL0     H11507  10.135   6.649   2.838  1.2692 -1.3503 -0.8890
  826MOL0     H11508  10.376   6.540   2.701 -0.9468 -1.5645 -0.7626
  826MOL0     H11509  10.208   6.573   2.654  1.5826 -2.1365 -0.7931
  826MOL0     H11510  10.340   6.618   2.550  0.6326 -1.4873 -0.2407
  827MOL0     O11511   7.972   6.684   8.123  0.0284  0.9852 -0.3119
  827MOL0     C11512   8.064   6.600   8.128 -0.5191  0.1525  0.4156
  827MOL0     O11513   8.055   6.472   8.063 -0.2043 -0.0710 -0.1052
  827MOL0     C11514   7.950   6.447   7.980  0.8268  0.5834 -0.2558
  827MOL0     C11515   7.823   6.434   8.037  0.9097 -0.5101  0.4603
  827MOL0     C11516   7.725   6.396   7.945  0.0318 -0.4236 -0.8260
  827MOL0     C11517   7.732   6.394   7.803 -0.2068  0.3051  0.4898
  827MOL0     O11518   7.634   6.371   7.713  0.3812 -0.6972 -0.1375
  827MOL0     C11519   7.496   6.367   7.762 -0.3494 -1.0607  0.3404
  827MOL0     C11520   7.398   6.374   7.644 -0.6110  0.2350  0.2881
  827MOL0     C11521   7.257   6.388   7.691 -0.1649  0.0669  0.8106
  827MOL0     C11522   7.164   6.434   7.566  0.7510  0.0502 -0.7373
  827MOL0     C11523   7.015   6.441   7.597  0.3643  0.2580 -0.8790
  827MOL0     C11524   6.934   6.489   7.475  0.1094 -1.3534  0.4122
  827MOL0     C11525   6.776   6.513   7.511 -1.3811 -1.0209  0.4376
  827MOL0     C11526   6.706   6.413   7.608  0.2427  0.4563 -0.2239
  827MOL0     N11527   6.562   6.451   7.641  0.0306 -0.4758 -0.4419
  827MOL0     C11528   6.450   6.391   7.602  0.1890  0.2238  0.4950
  827MOL0     C11529   6.339   6.477   7.618 -0.1743  0.2747  0.7400
  827MOL0     C11530   6.203   6.455   7.562  0.3674  0.3400  0.2094
  827MOL0     C11531   6.079   6.527   7.621 -0.8505  0.2872  0.3406
  827MOL0     C11532   6.051   6.494   7.760  0.2227  0.2881 -0.1665
  827MOL0     C11533   5.927   6.571   7.816 -0.6415  1.4621  0.1015
  827MOL0     O11534   5.807   6.532   7.744 -0.8915  0.3111 -0.9408
  827MOL0     C11535   5.693   6.577   7.803 -0.6927  0.5595  0.5606
  827MOL0     C11536   5.681   6.604   7.940  0.3565  0.3920 -0.7649
  827MOL0     C11537   5.558   6.642   7.993 -0.1356 -0.4859  0.5387
  827MOL0     C11538   5.437   6.634   7.916 -0.4534  0.4719 -0.6990
  827MOL0     C11539   5.304   6.659   7.971 -0.3475 -0.1012  0.2094
  827MOL0     O11540   5.201   6.663   7.885 -0.3973 -0.0673 -0.3668
  827MOL0     C11541   5.077   6.681   7.940 -0.6889 -0.0262 -0.1257
  827MOL0     C11542   5.023   6.567   7.991 -0.1619 -0.2572  0.6506
  827MOL0     C11543   4.900   6.579   8.072  0.3276  0.1071  0.1766
  827MOL0     C11544   4.844   6.702   8.086 -0.5997 -0.0547 -0.8094
  827MOL0     O11545   4.734   6.712   8.163  0.0909 -0.2313 -0.8669
  827MOL0     C11546   4.634   6.796   8.114  0.0256  0.7300  0.1099
  827MOL0     C11547   4.490   6.728   8.132  0.4036  0.6212 -0.0623
  827MOL0     C11548   4.362   6.792   8.074  0.5200 -0.5645 -0.3379
  827MOL0     C11549   4.373   6.945   8.065 -0.1897  0.5185  0.2347
  827MOL0     C11550   4.240   7.018   8.046  0.1347 -0.1621 -0.6438
  827MOL0     C11551   4.158   6.938   7.937 -0.4517 -0.2962 -0.6316
  827MOL0     C11552   4.041   7.035   7.879 -0.2258 -0.3566  0.2653
  827MOL0     C11553   4.016   7.022   7.723 -1.0352 -0.1110  0.1816
  827MOL0    Cl11554   4.155   7.013   7.612 -0.5544 -0.0439 -0.2699
  827MOL0     C11555   4.909   6.820   8.034 -0.3413 -0.6769 -0.7247
  827MOL0     C11556   5.023   6.806   7.958 -0.3306  0.8042 -0.1770
  827MOL0     O11557   5.303   6.673   8.092 -0.0956 -0.0649  0.7760
  827MOL0     C11558   5.447   6.602   7.773 -0.2143 -0.0808  0.4368
  827MOL0     C11559   5.584   6.564   7.725  0.3674  0.1499 -0.5076
  827MOL0     N11560   6.395   6.589   7.670  0.7882  0.3145  0.3844
  827MOL0     N11561   6.519   6.571   7.697  0.0315  0.2387  0.1438
  827MOL0     C11562   7.863   6.411   7.755  0.0521  0.9667 -0.4951
  827MOL0     C11563   7.969   6.442   7.840 -0.2534  0.7894 -0.1852
  827MOL0     C11564   8.206   6.621   8.173  0.7183 -0.1861  0.5996
  827MOL0     C11565   8.302   6.522   8.152 -1.2470 -0.1642  0.0649
  827MOL0     C11566   8.438   6.536   8.190  0.3453 -0.0679 -0.1497
  827MOL0     C11567   8.477   6.656   8.263  0.2227  0.6039  0.3309
  827MOL0     O11568   8.597   6.665   8.318  0.5361  0.1685  0.0373
  827MOL0     C11569   8.603   6.672   8.457  0.7253 -0.2629 -0.0275
  827MOL0     C11570   8.740   6.625   8.510 -0.1395 -0.3896 -0.8422
  827MOL0     C11571   8.841   6.750   8.523  0.0803  0.2553  0.3571
  827MOL0     C11572   8.983   6.716   8.570  0.1398 -0.6827  0.1967
  827MOL0     C11573   8.997   6.655   8.699  0.4961 -0.5447  0.1613
  827MOL0     C11574   9.010   6.603   8.806  0.7239 -0.1970 -0.3669
  827MOL0     C11575   8.380   6.760   8.273 -0.9865 -0.1569  0.0870
  827MOL0     C11576   8.246   6.745   8.237  0.0630  0.5276  0.5645
  827MOL0     C11577   8.147   6.853   8.283 -0.3611  0.4973 -0.5820
  827MOL0     H11578   7.801   6.436   8.143 -2.2172  1.0588 -0.1238
  827MOL0     H11579   7.630   6.384   7.996 -0.9843 -1.4528 -2.8489
  827MOL0     H11580   7.473   6.275   7.815  0.3610 -1.3178  0.2112
  827MOL0     H11581   7.482   6.453   7.829  0.4925 -0.9111  0.3337
  827MOL0     H11582   7.408   6.294   7.571  1.2396  2.3372 -1.9492
  827MOL0     H11583   7.423   6.465   7.588  1.3236 -0.4536 -0.0381
  827MOL0     H11584   7.256   6.472   7.761 -2.9242 -0.4764  1.5541
  827MOL0     H11585   7.207   6.302   7.736 -2.3487  0.5803 -0.4418
  827MOL0     H11586   7.195   6.536   7.541 -2.8148  1.3376 -0.5211
  827MOL0     H11587   7.163   6.373   7.476 -2.3885  1.2067 -1.6088
  827MOL0     H11588   6.974   6.345   7.629  0.7569  0.6031  0.7490
  827MOL0     H11589   6.994   6.503   7.685  3.0643  2.2141 -1.4812
  827MOL0     H11590   6.964   6.590   7.446 -0.5674 -1.1822  0.3059
  827MOL0     H11591   6.936   6.428   7.384 -1.3064  1.4709 -1.6530
  827MOL0     H11592   6.729   6.522   7.413  5.0941  1.9448 -3.0442
  827MOL0     H11593   6.771   6.610   7.561  0.3772 -1.0256  0.7084
  827MOL0     H11594   6.698   6.313   7.566  4.2812  0.0100 -0.3754
  827MOL0     H11595   6.771   6.410   7.696  1.3867  1.4506 -0.9890
  827MOL0     H11596   6.436   6.292   7.560 -1.3717 -0.4241  2.4174
  827MOL0     H11597   6.210   6.491   7.459 -0.5302 -1.4834 -0.5385
  827MOL0     H11598   6.183   6.348   7.557  2.2772 -0.0089 -1.0871
  827MOL0     H11599   6.110   6.632   7.630 -3.5403  1.2686 -0.8921
  827MOL0     H11600   5.993   6.513   7.555 -1.4613 -2.1041  1.5163
  827MOL0     H11601   6.141   6.505   7.821 -1.8460  0.3255  3.1174
  827MOL0     H11602   6.022   6.390   7.777 -1.9438  0.9689  0.7152
  827MOL0     H11603   5.939   6.679   7.807  0.9522  1.4700  1.8527
  827MOL0     H11604   5.925   6.550   7.923  1.7683 -0.7674 -0.2024
  827MOL0     H11605   5.766   6.594   8.006 -0.4176 -0.5712  0.1232
  827MOL0     H11606   5.560   6.675   8.097  2.1438  3.5402 -0.5346
  827MOL0     H11607   5.071   6.469   7.987 -0.2269 -0.2534 -2.3490
  827MOL0     H11608   4.855   6.493   8.121  1.3978 -0.4206  0.2887
  827MOL0     H11609   4.649   6.885   8.175  3.6803  0.0597  0.3953
  827MOL0     H11610   4.642   6.808   8.005 -0.6168 -1.0707 -0.1687
  827MOL0     H11611   4.496   6.623   8.101 -0.3261  1.0103 -1.6568
  827MOL0     H11612   4.462   6.714   8.237 -0.7089 -3.4857 -0.7197
  827MOL0     H11613   4.344   6.748   7.976  0.5135 -0.3968 -0.4133
  827MOL0     H11614   4.282   6.761   8.142  0.9918  1.1243  1.0665
  827MOL0     H11615   4.433   6.965   7.976 -1.4085  0.7470 -0.5461
  827MOL0     H11616   4.436   6.986   8.145  4.2422 -1.5596 -1.8419
  827MOL0     H11617   4.260   7.121   8.013 -0.5922 -0.4835 -2.1329
  827MOL0     H11618   4.189   7.038   8.141  0.9064  1.2545 -0.4879
  827MOL0     H11619   4.230   6.919   7.857 -0.2391  1.7887 -1.0055
  827MOL0     H11620   4.128   6.840   7.975 -1.9908 -1.1172 -3.6104
  827MOL0     H11621   4.067   7.141   7.885  2.0437 -0.7718 -1.0552
  827MOL0     H11622   3.948   7.012   7.931  0.2062  0.0868  1.2695
  827MOL0     H11623   3.949   6.938   7.706  0.3837 -1.4261  0.8224
  827MOL0     H11624   3.958   7.108   7.689  0.0490  0.2355 -0.8564
  827MOL0     H11625   4.867   6.917   8.057  1.4627 -0.2135  0.8413
  827MOL0     H11626   5.078   6.894   7.926 -0.8375  2.0483  2.1853
  827MOL0     H11627   5.360   6.599   7.708  0.0312  0.0188  0.1050
  827MOL0     H11628   5.604   6.540   7.621 -0.9448  0.5182 -0.8620
  827MOL0     H11629   7.860   6.417   7.647  0.0576 -1.7732 -0.7309
  827MOL0     H11630   8.066   6.456   7.793 -0.4096  1.7046 -0.2624
  827MOL0     H11631   8.285   6.427   8.102 -1.0713 -0.0556 -0.2094
  827MOL0     H11632   8.503   6.450   8.175 -0.3868 -0.7381  0.3967
  827MOL0     H11633   8.533   6.597   8.494  0.5828 -0.0410  0.1466
  827MOL0     H11634   8.586   6.771   8.498  0.4585 -0.0618 -0.6091
  827MOL0     H11635   8.784   6.550   8.443  1.5960  0.1784 -0.3726
  827MOL0     H11636   8.722   6.573   8.605  0.7947  0.9240  0.0899
  827MOL0     H11637   8.790   6.826   8.584 -2.6123  0.2492 -1.7009
  827MOL0     H11638   8.851   6.791   8.422 -1.6294 -1.6890 -0.6817
  827MOL0     H11639   9.033   6.655   8.494 -0.3017  1.3556 -1.8501
  827MOL0     H11640   9.041   6.807   8.579 -0.2429 -0.2611 -1.2739
  827MOL0     H11641   9.015   6.556   8.902 -0.9434  0.1095 -0.1038
  827MOL0     H11642   8.408   6.858   8.311 -1.6278  0.9414 -2.1049
  827MOL0     H11643   8.095   6.881   8.190 -0.8504 -1.8768 -1.0826
  827MOL0     H11644   8.083   6.806   8.358  1.7691  0.2934  1.1945
  827MOL0     H11645   8.208   6.935   8.323 -0.4269 -0.1577  0.9015
  828MOL0     O11646   9.674   8.225  10.353 -0.3714 -0.3402 -0.4396
  828MOL0     C11647   9.771   8.147  10.335  0.1736 -0.0113 -0.5633
  828MOL0     O11648   9.896   8.190  10.314  0.6548 -0.5368 -0.2092
  828MOL0     C11649   9.929   8.313  10.260  0.6430 -0.2180  0.5881
  828MOL0     C11650   9.854   8.393  10.174  0.3050  0.1710  0.7530
  828MOL0     C11651   9.905   8.520  10.137 -0.1415 -0.7228  0.2986
  828MOL0     C11652  10.025   8.576  10.178 -0.4132 -0.1845 -0.4281
  828MOL0     O11653  10.064   8.691  10.123 -0.5796  0.5212  0.2565
  828MOL0     C11654  10.183   8.764  10.158  1.0110  0.8510 -0.1588
  828MOL0     C11655  10.201   8.879  10.061  0.7078  0.0713  0.5414
  828MOL0     C11656  10.341   8.946  10.054 -0.5771 -0.3592  0.4096
  828MOL0     C11657  10.422   8.949  10.189  0.0077  0.2322 -0.2311
  828MOL0     C11658  10.559   9.019  10.164 -0.6485 -0.6065 -0.0433
  828MOL0     C11659  10.668   9.006  10.271  0.7054 -0.3100  0.2267
  828MOL0     C11660  10.800   9.078  10.220  0.3227  0.0527 -0.6336
  828MOL0     C11661  10.902   9.092  10.334  0.2812 -0.9628 -0.5991
  828MOL0     N11662  10.945   8.972  10.394  0.2141 -0.8390 -0.0327
  828MOL0     C11663  10.886   8.944  10.517 -0.7901 -0.8444  0.1744
  828MOL0     C11664  10.913   8.811  10.529  0.5644  0.4901  0.0525
  828MOL0     C11665  10.863   8.727  10.640  1.2155 -1.1861 -0.4508
  828MOL0     C11666  10.715   8.685  10.619  0.2166 -0.1340  0.3837
  828MOL0     C11667  10.654   8.605  10.733 -0.3118  0.1374 -0.6427
  828MOL0     C11668  10.719   8.468  10.742  0.5202  0.0239 -0.2976
  828MOL0     O11669  10.646   8.384  10.831  0.3633 -0.0405  0.0708
  828MOL0     C11670  10.606   8.256  10.798  0.4082  0.7057 -0.6209
  828MOL0     C11671  10.692   8.177  10.724 -1.2123  0.4693 -0.5009
  828MOL0     C11672  10.668   8.041  10.703  0.4600  0.7992  0.2652
  828MOL0     C11673  10.553   7.976  10.754  1.0914  0.5155 -0.8394
  828MOL0     C11674  10.544   7.829  10.737  0.3422 -1.0020  0.4589
  828MOL0     O11675  10.463   7.760  10.827  0.5655  0.2255  0.6326
  828MOL0     C11676  10.443   7.621  10.813  0.1959  0.5547 -0.5030
  828MOL0     C11677  10.467   7.541  10.696 -0.2678  0.4620 -0.2430
  828MOL0     C11678  10.430   7.413  10.691 -0.2559 -0.2229 -0.4008
  828MOL0     C11679  10.356   7.353  10.793  0.0479  0.7035 -0.9128
  828MOL0     O11680  10.333   7.214  10.782  0.4811 -0.1849  0.8072
  828MOL0     C11681  10.244   7.156  10.882 -0.5244  0.1700 -0.4766
  828MOL0     C11682  10.215   7.003  10.860  0.9684  0.2594  0.1491
  828MOL0     C11683  10.128   6.948  10.978 -0.0317 -0.2281 -0.1718
  828MOL0     C11684  10.095   6.801  10.963 -0.1885 -0.1132  0.2076
  828MOL0     C11685  10.007   6.750  11.073  0.4541  0.2159 -0.7995
  828MOL0     C11686   9.994   6.598  11.067  0.6548  0.0691  0.3987
  828MOL0     C11687   9.916   6.566  10.937  1.2097  0.3911  0.4243
  828MOL0     C11688   9.867   6.424  10.940  0.0008 -0.3409 -0.3853
  828MOL0    Cl11689  10.017   6.341  10.900 -0.1852 -0.2004 -0.0466
  828MOL0     C11690  10.329   7.423  10.910  0.3591  0.4899 -0.4632
  828MOL0     C11691  10.366   7.562  10.913 -0.1137 -0.3261 -0.6220
  828MOL0     O11692  10.597   7.787  10.636  0.2107  0.6195  0.3441
  828MOL0     C11693  10.471   8.055  10.841 -0.4588  0.8751  0.1204
  828MOL0     C11694  10.501   8.190  10.858  0.0743  0.5718  0.4914
  828MOL0     N11695  11.002   8.778  10.422  0.5342 -0.2668 -0.0398
  828MOL0     N11696  11.019   8.878  10.346  0.1296 -0.5155 -0.8040
  828MOL0     C11697  10.096   8.492  10.271 -0.0331  0.1337  0.3675
  828MOL0     C11698  10.047   8.365  10.305 -0.2037 -0.5905 -0.2098
  828MOL0     C11699   9.747   8.000  10.351 -0.4207 -0.3287 -0.2516
  828MOL0     C11700   9.856   7.918  10.335 -0.0272  0.1964 -0.6043
  828MOL0     C11701   9.851   7.775  10.343  0.1355 -1.3808  0.4334
  828MOL0     C11702   9.735   7.713  10.384  0.1569  0.4035  0.6413
  828MOL0     O11703   9.720   7.581  10.374 -0.4208  0.1733  1.1217
  828MOL0     C11704   9.801   7.505  10.465  0.5038 -0.8803 -0.4355
  828MOL0     C11705   9.712   7.398  10.517 -0.0639 -0.1621 -0.3883
  828MOL0     C11706   9.663   7.305  10.406 -0.4982 -0.6766  0.1576
  828MOL0     C11707   9.768   7.210  10.365  0.2390 -0.4778  0.1729
  828MOL0     C11708   9.715   7.101  10.279 -1.2472  0.0482  0.2254
  828MOL0     C11709   9.681   7.001  10.226 -0.4126  0.2631  0.7866
  828MOL0     C11710   9.630   7.803  10.406  0.5784  0.4119  0.3457
  828MOL0     C11711   9.629   7.944  10.391 -0.4824 -0.1845 -0.5468
  828MOL0     C11712   9.499   8.009  10.433 -0.2697  0.5705  0.6092
  828MOL0     H11713   9.754   8.360  10.147 -0.2013  0.8925  1.6848
  828MOL0     H11714   9.848   8.587  10.072 -0.2494  0.7683  1.8568
  828MOL0     H11715  10.177   8.810  10.257  3.6286  0.0850  0.4427
  828MOL0     H11716  10.271   8.699  10.154  1.8295  1.8362  1.1139
  828MOL0     H11717  10.122   8.948  10.092 -1.8984 -3.6037  2.9268
  828MOL0     H11718  10.177   8.836   9.963  2.1893 -1.6406  0.8808
  828MOL0     H11719  10.334   9.050  10.020  1.0656 -0.3737 -0.0290
  828MOL0     H11720  10.413   8.908   9.981  1.1182  0.6983  1.4655
  828MOL0     H11721  10.354   8.993  10.261 -1.7718  0.2163 -1.8209
  828MOL0     H11722  10.442   8.846  10.219 -2.3559 -1.2632 -3.2127
  828MOL0     H11723  10.602   8.975  10.074 -0.8202 -1.4591  0.2781
  828MOL0     H11724  10.545   9.127  10.168 -1.5686 -0.7511  1.9307
  828MOL0     H11725  10.636   9.052  10.365  2.7941 -0.2742  0.9668
  828MOL0     H11726  10.694   8.900  10.282 -1.8115 -0.8634  1.6883
  828MOL0     H11727  10.780   9.178  10.180 -0.0988 -1.0809 -3.5182
  828MOL0     H11728  10.841   9.029  10.131  1.2694 -0.5075  0.0951
  828MOL0     H11729  10.988   9.132  10.280 -1.1791 -0.2585 -2.5271
  828MOL0     H11730  10.866   9.174  10.397  0.1340 -1.3661 -0.1526
  828MOL0     H11731  10.840   9.006  10.593 -0.5801  0.1940 -0.5134
  828MOL0     H11732  10.923   8.636  10.648  3.4785  0.2804  0.6378
  828MOL0     H11733  10.869   8.785  10.733  1.5818 -0.7839 -0.7187
  828MOL0     H11734  10.655   8.777  10.622  1.8306  1.0354 -1.0200
  828MOL0     H11735  10.710   8.631  10.524  1.8356 -1.4324  0.9801
  828MOL0     H11736  10.550   8.601  10.699  0.0188  0.7547 -1.7727
  828MOL0     H11737  10.674   8.660  10.826 -1.1988 -0.8929  0.1798
  828MOL0     H11738  10.822   8.478  10.779 -0.0548 -0.4269  1.5457
  828MOL0     H11739  10.715   8.416  10.646  1.5697  0.9987 -0.8909
  828MOL0     H11740  10.781   8.227  10.687 -1.5379  1.7117  0.3240
  828MOL0     H11741  10.736   7.981  10.644  0.6416 -0.0130  1.2668
  828MOL0     H11742  10.519   7.572  10.606 -0.6591 -0.7661 -0.9088
  828MOL0     H11743  10.453   7.366  10.596  2.6316  1.2534 -0.5401
  828MOL0     H11744  10.287   7.163  10.982  0.6658 -4.1387 -0.4881
  828MOL0     H11745  10.155   7.219  10.874 -0.9932 -0.6569 -2.1382
  828MOL0     H11746  10.151   6.982  10.773 -1.1514 -2.6950  2.2221
  828MOL0     H11747  10.308   6.945  10.854 -0.0527 -1.4464  0.1766
  828MOL0     H11748  10.171   6.962  11.078 -2.4137  1.9962  0.6717
  828MOL0     H11749  10.034   7.005  10.975  0.2833  0.3455  0.3719
  828MOL0     H11750  10.182   6.736  10.957  0.8338  1.2972 -0.9571
  828MOL0     H11751  10.059   6.792  10.860  2.6834 -2.2617 -0.7294
  828MOL0     H11752   9.912   6.803  11.082  1.5333  2.4810 -1.9155
  828MOL0     H11753  10.060   6.777  11.165  4.4903 -0.9101 -2.5645
  828MOL0     H11754  10.097   6.560  11.055  0.7327  0.6328 -0.9063
  828MOL0     H11755   9.934   6.570  11.154  0.1280  1.4352  0.4803
  828MOL0     H11756   9.967   6.588  10.843 -3.0688  1.4529 -1.9430
  828MOL0     H11757   9.823   6.624  10.939 -0.4810 -2.0496 -1.3882
  828MOL0     H11758   9.828   6.382  11.034  3.1640 -2.2142  0.2448
  828MOL0     H11759   9.794   6.405  10.862 -2.4718 -1.9050  2.1051
  828MOL0     H11760  10.287   7.386  11.004 -0.0735  2.7239  0.2951
  828MOL0     H11761  10.349   7.636  10.990 -2.0821  0.5871 -1.8222
  828MOL0     H11762  10.387   8.001  10.883 -1.9864  1.2597 -2.2409
  828MOL0     H11763  10.432   8.257  10.908 -0.0902  2.9016 -2.5355
  828MOL0     H11764  10.196   8.523  10.300 -0.9045  1.8702  1.6790
  828MOL0     H11765  10.095   8.299  10.377  0.3578  0.3051  0.2552
  828MOL0     H11766   9.954   7.957  10.309  0.8677 -1.1502  0.5510
  828MOL0     H11767   9.937   7.719  10.309  0.9272 -1.4815  2.4800
  828MOL0     H11768   9.823   7.568  10.552 -2.8966 -0.4793  0.2720
  828MOL0     H11769   9.898   7.479  10.421  0.9100 -0.4822  0.2148
  828MOL0     H11770   9.629   7.443  10.572  1.2652 -0.0020  1.5810
  828MOL0     H11771   9.776   7.335  10.580  0.9742 -2.0175 -3.1049
  828MOL0     H11772   9.628   7.364  10.321  0.2038 -0.0857  0.2683
  828MOL0     H11773   9.576   7.252  10.445 -1.2829  0.4276 -0.0542
  828MOL0     H11774   9.851   7.260  10.314  2.8003 -2.4696  2.0414
  828MOL0     H11775   9.817   7.165  10.452 -0.9722 -2.7595 -0.2331
  828MOL0     H11776   9.648   6.917  10.169 -2.5683 -0.7389  3.3083
  828MOL0     H11777   9.538   7.751  10.432  0.3528  1.6108  2.1731
  828MOL0     H11778   9.522   8.093  10.500  0.1564  0.3454  0.7441
  828MOL0     H11779   9.456   8.044  10.338 -0.0429 -3.5593 -1.2080
  828MOL0     H11780   9.421   7.945  10.476 -2.0354  0.8793 -1.8804
  829MOL0     O11781   4.418   5.833   0.142  0.0811  0.3911  0.0597
  829MOL0     C11782   4.345   5.913   0.199  0.7690  0.4817  0.1828
  829MOL0     O11783   4.384   6.013   0.280  0.4122 -0.4369  1.5057
  829MOL0     C11784   4.511   6.047   0.282  0.1071  0.3832 -0.8234
  829MOL0     C11785   4.558   6.142   0.196 -0.0994 -0.2200  0.4119
  829MOL0     C11786   4.695   6.178   0.198 -0.1253 -0.2153  0.0103
  829MOL0     C11787   4.777   6.115   0.285 -0.0096 -0.3345 -1.0039
  829MOL0     O11788   4.912   6.138   0.290  0.3934  0.7600  0.5124
  829MOL0     C11789   4.998   6.109   0.175  0.7202 -0.0979 -0.3926
  829MOL0     C11790   5.113   6.206   0.170  0.4019 -0.4029 -0.1405
  829MOL0     C11791   5.076   6.349   0.157 -0.7008  0.2219 -0.3213
  829MOL0     C11792   5.194   6.441   0.208  0.1389  0.0745  0.0529
  829MOL0     C11793   5.331   6.418   0.132  0.2636  0.2557 -0.3495
  829MOL0     C11794   5.448   6.518   0.175  0.1527 -0.4926  0.2510
  829MOL0     C11795   5.591   6.474   0.141  0.2512  0.2277 -0.5336
  829MOL0     C11796   5.637   6.358   0.227 -0.1497 -0.3168  0.4779
  829MOL0     N11797   5.782   6.347   0.215  0.1861  1.0942 -0.3442
  829MOL0     C11798   5.843   6.265   0.126  0.1525  1.1952 -0.6368
  829MOL0     C11799   5.969   6.307   0.113  0.6862 -0.4121 -0.6173
  829MOL0     C11800   6.075   6.236   0.029 -0.3938 -0.4678  0.3292
  829MOL0     C11801   6.203   6.199   0.105 -0.0667  0.4294 -0.2846
  829MOL0     C11802   6.320   6.226   0.010  0.3370  0.1794  0.1001
  829MOL0     C11803   6.449   6.168   0.058  0.4704 -0.0842 -0.1342
  829MOL0     O11804   6.558   6.186  -0.033 -0.1825 -0.4639 -0.3534
  829MOL0     C11805   6.609   6.313  -0.031  0.1442  0.2417 -0.0523
  829MOL0     C11806   6.714   6.340   0.053  0.0035 -0.2699  0.3660
  829MOL0     C11807   6.767   6.468   0.076 -0.6269 -0.2292 -0.0324
  829MOL0     C11808   6.716   6.575  -0.001 -0.3934 -0.3171  0.6423
  829MOL0     C11809   6.768   6.708   0.032 -0.4074 -0.2798 -0.4423
  829MOL0     O11810   6.776   6.731   0.161 -0.2514  0.0292 -0.0924
  829MOL0     C11811   6.819   6.854   0.200 -0.5123  0.5368  0.7835
  829MOL0     C11812   6.735   6.964   0.221 -0.3924 -0.4892 -0.4118
  829MOL0     C11813   6.784   7.086   0.289  1.1530  0.1543  0.4579
  829MOL0     C11814   6.909   7.092   0.331 -0.3863 -0.1436  1.0973
  829MOL0     O11815   6.971   7.203   0.388  0.4301  0.3996  0.3048
  829MOL0     C11816   6.903   7.332   0.388 -0.7787 -0.2331  0.4150
  829MOL0     C11817   7.015   7.445   0.394 -0.2412  0.0108  0.2003
  829MOL0     C11818   6.951   7.585   0.361 -0.4277  0.0199 -0.9198
  829MOL0     C11819   7.056   7.695   0.334  0.5006  0.4387  0.1855
  829MOL0     C11820   6.985   7.832   0.309 -0.5919  0.0925  0.1030
  829MOL0     C11821   6.924   7.888   0.437  1.0941 -0.4867 -0.1003
  829MOL0     C11822   6.873   8.038   0.422 -0.4992 -0.4088  1.0254
  829MOL0     C11823   6.943   8.139   0.329  0.2714 -0.1365 -0.0870
  829MOL0    Cl11824   7.108   8.123   0.358  0.1842  0.0058  0.2101
  829MOL0     C11825   6.997   6.989   0.302 -1.3726  0.0718  1.6278
  829MOL0     C11826   6.955   6.868   0.243  0.3257 -0.0203  1.2036
  829MOL0     O11827   6.784   6.798  -0.057  0.4809  0.1229 -0.2391
  829MOL0     C11828   6.612   6.551  -0.093  0.2248  1.0774 -0.3569
  829MOL0     C11829   6.571   6.413  -0.116 -0.0794 -0.8794 -0.7733
  829MOL0     N11830   5.985   6.404   0.211 -0.3902 -0.3827  1.0895
  829MOL0     N11831   5.871   6.424   0.274  0.8935  0.2999  0.2161
  829MOL0     C11832   4.731   6.024   0.378  0.0034  0.3887  0.0446
  829MOL0     C11833   4.598   5.990   0.367 -0.2015 -0.1522 -0.3103
  829MOL0     C11834   4.191   5.887   0.221 -0.3108  0.6202 -1.0137
  829MOL0     C11835   4.107   5.970   0.304 -0.6888  0.2818  0.5684
  829MOL0     C11836   3.968   5.965   0.317 -0.5853  0.9121  0.2927
  829MOL0     C11837   3.898   5.865   0.254  0.1449 -0.5545  0.0617
  829MOL0     O11838   3.761   5.875   0.266 -0.6541  0.6026 -0.1830
  829MOL0     C11839   3.687   5.752   0.287  0.4123 -1.0483 -0.3261
  829MOL0     C11840   3.731   5.672   0.403  0.3157  0.4928 -0.2029
  829MOL0     C11841   3.653   5.539   0.451 -0.8694  0.0572  0.5256
  829MOL0     C11842   3.696   5.427   0.354  0.2452  0.0552  0.4676
  829MOL0     C11843   3.840   5.416   0.308 -0.4526 -0.3401  0.5622
  829MOL0     C11844   3.960   5.417   0.290  0.5326  0.9932  0.9365
  829MOL0     C11845   3.974   5.768   0.185 -0.6551  1.0361 -0.3785
  829MOL0     C11846   4.117   5.769   0.178  0.2216 -0.7422 -0.1934
  829MOL0     C11847   4.177   5.656   0.106 -0.9057  0.7104  1.0748
  829MOL0     H11848   4.486   6.178   0.123  1.0460  1.6571  0.1164
  829MOL0     H11849   4.732   6.254   0.132  1.2609  0.2395  1.2642
  829MOL0     H11850   5.034   6.006   0.179  2.0402  0.3802  0.7758
  829MOL0     H11851   4.946   6.113   0.079 -0.2743  0.8436  0.1552
  829MOL0     H11852   5.175   6.181   0.083  0.3011 -0.4720 -0.1935
  829MOL0     H11853   5.168   6.192   0.264 -1.4582  0.9063  1.2149
  829MOL0     H11854   4.984   6.360   0.215  0.2224  1.9854  0.9300
  829MOL0     H11855   5.065   6.376   0.051 -1.6040  0.6124 -0.1386
  829MOL0     H11856   5.175   6.547   0.195 -0.3368  0.0430  0.4464
  829MOL0     H11857   5.204   6.419   0.315  1.0883  0.7763  0.1179
  829MOL0     H11858   5.356   6.315   0.160 -0.6576  0.5513  1.7490
  829MOL0     H11859   5.326   6.418   0.023 -0.5654  3.6562 -0.4204
  829MOL0     H11860   5.421   6.610   0.123  2.3137 -0.4463 -0.8727
  829MOL0     H11861   5.439   6.551   0.280  3.3104  0.0439  0.4370
  829MOL0     H11862   5.656   6.562   0.145  1.8823 -0.9888  2.7208
  829MOL0     H11863   5.605   6.443   0.037 -0.1867 -1.1098 -0.2238
  829MOL0     H11864   5.607   6.384   0.329 -0.9474  2.2609 -0.3532
  829MOL0     H11865   5.603   6.261   0.190 -1.3521 -0.9088  2.9229
  829MOL0     H11866   5.796   6.194   0.058 -1.5202  0.0696  1.5587
  829MOL0     H11867   6.029   6.146  -0.012 -1.2510  1.1939 -2.6487
  829MOL0     H11868   6.102   6.298  -0.057 -0.2120 -0.2683  0.5274
  829MOL0     H11869   6.204   6.267   0.191  2.0807  0.4709 -0.2880
  829MOL0     H11870   6.197   6.096   0.142  3.4509 -0.3721 -1.6076
  829MOL0     H11871   6.332   6.334  -0.006  1.5385 -0.0632 -0.7680
  829MOL0     H11872   6.292   6.175  -0.082  1.1759  0.1498 -0.1408
  829MOL0     H11873   6.419   6.067   0.089 -2.8838  1.8159  3.8868
  829MOL0     H11874   6.466   6.207   0.159 -0.3133 -0.1858  0.0446
  829MOL0     H11875   6.743   6.250   0.105 -1.1457 -0.6768  0.3302
  829MOL0     H11876   6.850   6.490   0.143  0.6997  0.0595 -1.7038
  829MOL0     H11877   6.630   6.948   0.197 -0.5464  0.0524 -0.1045
  829MOL0     H11878   6.704   7.154   0.315  0.3243 -1.2816  1.8548
  829MOL0     H11879   6.830   7.353   0.310  1.6941  4.2622 -1.0772
  829MOL0     H11880   6.858   7.338   0.488  2.0672 -0.0236  1.8062
  829MOL0     H11881   7.077   7.452   0.483  0.5848  1.4704 -0.4400
  829MOL0     H11882   7.086   7.432   0.312  1.3393 -2.2463  1.8110
  829MOL0     H11883   6.891   7.572   0.271 -2.9240  2.2076  0.2759
  829MOL0     H11884   6.888   7.613   0.446  2.1620  0.2465  1.0583
  829MOL0     H11885   7.122   7.667   0.251  1.0018  0.9796  0.3926
  829MOL0     H11886   7.121   7.702   0.422 -1.1602  0.8183  1.4230
  829MOL0     H11887   6.904   7.814   0.237  3.9115  1.7245 -6.2648
  829MOL0     H11888   7.043   7.900   0.247 -1.7484  0.7826 -0.2550
  829MOL0     H11889   6.835   7.830   0.463 -0.9060  1.2256 -2.6994
  829MOL0     H11890   6.983   7.884   0.530  1.5798 -0.6921 -0.4109
  829MOL0     H11891   6.870   8.081   0.522 -1.4642  0.3667  0.6765
  829MOL0     H11892   6.769   8.036   0.389  0.3935  1.1689 -2.4612
  829MOL0     H11893   6.913   8.138   0.224 -1.3252  1.2873  0.3209
  829MOL0     H11894   6.909   8.235   0.370  2.9205  0.5491  0.7013
  829MOL0     H11895   7.100   6.999   0.336 -0.3338 -1.7420 -0.7300
  829MOL0     H11896   7.028   6.787   0.236 -1.4468 -1.5287 -1.5792
  829MOL0     H11897   6.569   6.632  -0.152 -1.0062  1.8589  1.5297
  829MOL0     H11898   6.496   6.398  -0.193  0.4152 -3.1597 -0.8975
  829MOL0     H11899   4.803   5.965   0.434 -0.7602 -0.3841  0.2377
  829MOL0     H11900   4.562   5.904   0.423  1.2644 -0.7120 -0.1924
  829MOL0     H11901   4.153   6.053   0.357  3.7160 -1.9720  0.7568
  829MOL0     H11902   3.921   6.048   0.368  0.3973  2.1736 -0.7866
  829MOL0     H11903   3.693   5.686   0.200  0.5873 -2.3977  0.6991
  829MOL0     H11904   3.584   5.784   0.302  0.5961 -1.0450  1.0563
  829MOL0     H11905   3.722   5.740   0.488  0.7982 -3.3467  3.2483
  829MOL0     H11906   3.837   5.648   0.398  0.6037  1.6139  0.3150
  829MOL0     H11907   3.546   5.559   0.455 -1.0092  1.0413 -3.6298
  829MOL0     H11908   3.688   5.517   0.552 -1.8841  1.6879  1.2758
  829MOL0     H11909   3.662   5.337   0.405 -2.0241  1.2194  1.1466
  829MOL0     H11910   3.629   5.438   0.268 -0.6770 -0.7707  1.0667
  829MOL0     H11911   4.065   5.415   0.267  0.0662 -4.1415 -2.2336
  829MOL0     H11912   3.932   5.678   0.143 -1.1744  2.1860 -2.4192
  829MOL0     H11913   4.239   5.692   0.024 -1.4195 -0.0999  0.3194
  829MOL0     H11914   4.230   5.590   0.176 -0.9888  1.0183  1.4305
  829MOL0     H11915   4.099   5.599   0.056  1.1242 -0.7852 -0.5871
  830MOL0     O11916   9.086   4.622   8.740 -0.8881  1.4436  0.3213
  830MOL0     C11917   9.087   4.631   8.614  0.0140  0.6040 -0.0374
  830MOL0     O11918   9.175   4.706   8.544  0.5158 -0.3613 -0.3806
  830MOL0     C11919   9.244   4.808   8.612  0.2558  1.0688  0.4855
  830MOL0     C11920   9.192   4.898   8.709  0.9099 -0.1826 -0.7857
  830MOL0     C11921   9.271   4.983   8.782 -0.1543 -0.1661  0.2247
  830MOL0     C11922   9.406   4.994   8.757  0.3367  0.4257 -0.9353
  830MOL0     O11923   9.479   5.091   8.821 -0.2849  0.1872  0.1762
  830MOL0     C11924   9.415   5.162   8.928  0.1501  0.0170 -0.0646
  830MOL0     C11925   9.516   5.261   8.986 -0.3213 -0.5589  0.2204
  830MOL0     C11926   9.449   5.307   9.126 -0.7300 -0.0244 -0.4912
  830MOL0     C11927   9.544   5.389   9.208 -0.4998  0.3343 -0.5872
  830MOL0     C11928   9.587   5.519   9.143  0.0629  0.5804  0.2750
  830MOL0     C11929   9.685   5.586   9.235 -0.0881 -0.3518  0.2495
  830MOL0     C11930   9.726   5.728   9.175 -0.8210 -0.1462  0.1181
  830MOL0     C11931   9.646   5.848   9.225  0.9078 -0.1239  0.2593
  830MOL0     N11932   9.720   5.905   9.340 -0.7866  0.6508  0.2185
  830MOL0     C11933   9.665   5.930   9.462 -1.0704  0.5199 -0.4595
  830MOL0     C11934   9.754   6.019   9.521  0.9405  1.0250 -0.5594
  830MOL0     C11935   9.757   6.073   9.663  0.3552 -0.2425  0.0863
  830MOL0     C11936   9.841   5.973   9.761 -0.2917 -0.8163  0.0507
  830MOL0     C11937   9.758   5.965   9.893  0.2514 -1.2146  0.6912
  830MOL0     C11938   9.834   5.888   9.996 -0.0364  0.4439 -1.1426
  830MOL0     O11939   9.759   5.880  10.121  0.7094 -0.7404 -0.0765
  830MOL0     C11940   9.721   5.762  10.174 -0.4490  0.6155  0.1539
  830MOL0     C11941   9.799   5.645  10.160  0.3609 -0.4018  0.3483
  830MOL0     C11942   9.756   5.520  10.203 -0.0078  0.2289  0.4513
  830MOL0     C11943   9.625   5.509  10.262  0.4329 -0.0353  0.2155
  830MOL0     C11944   9.570   5.379  10.309  0.3954 -0.5331 -0.0488
  830MOL0     O11945   9.435   5.373  10.311  0.0892  0.6010  0.7926
  830MOL0     C11946   9.376   5.257  10.360  0.9479 -0.5264  0.1099
  830MOL0     C11947   9.308   5.271  10.474 -0.1683  1.0809  0.1460
  830MOL0     C11948   9.244   5.163  10.530  0.5260  0.3526  0.3447
  830MOL0     C11949   9.239   5.042  10.455  1.5328  1.0557  0.0737
  830MOL0     O11950   9.158   4.934  10.492 -0.0690 -0.5019  0.0502
  830MOL0     C11951   9.094   4.853  10.388  0.0476  0.0834  0.3470
  830MOL0     C11952   8.994   4.762  10.456 -0.7396 -0.7210 -0.0744
  830MOL0     C11953   8.873   4.834  10.515  0.3158  0.3182  0.1338
  830MOL0     C11954   8.760   4.736  10.550 -1.5255  0.3258  0.4245
  830MOL0     C11955   8.645   4.826  10.586  0.3285 -0.5843 -0.9621
  830MOL0     C11956   8.522   4.745  10.614  0.0028 -0.2414 -0.4827
  830MOL0     C11957   8.392   4.813  10.598  0.0794  0.0775  0.5839
  830MOL0     C11958   8.368   4.937  10.691  0.2272  0.1046  0.3900
  830MOL0    Cl11959   8.428   5.087  10.633 -0.1064  0.2127 -0.1665
  830MOL0     C11960   9.310   5.034  10.338 -0.8444  0.8993 -0.2594
  830MOL0     C11961   9.379   5.138  10.288  0.1239  0.0767  0.3504
  830MOL0     O11962   9.640   5.287  10.346  0.8455 -0.1345 -0.2246
  830MOL0     C11963   9.550   5.624  10.288  0.8897 -0.9552 -1.0110
  830MOL0     C11964   9.599   5.749  10.239  0.1194  0.6066 -0.4744
  830MOL0     N11965   9.855   6.031   9.437 -0.0888 -0.3174 -0.0081
  830MOL0     N11966   9.843   5.960   9.331  0.2888  0.2139  0.6868
  830MOL0     C11967   9.457   4.919   8.655  0.0650  0.4438  0.3385
  830MOL0     C11968   9.384   4.818   8.590  0.3664 -0.3971 -0.0118
  830MOL0     C11969   8.975   4.551   8.541 -0.2921 -1.0257 -0.0707
  830MOL0     C11970   8.876   4.473   8.610 -1.0423 -0.0283  0.0347
  830MOL0     C11971   8.767   4.421   8.544 -0.5032 -0.3283 -0.8163
  830MOL0     C11972   8.746   4.443   8.410 -0.2281  1.0748  0.1989
  830MOL0     O11973   8.638   4.385   8.345 -0.9462  1.1138 -0.0907
  830MOL0     C11974   8.659   4.252   8.278  0.5139 -0.4736  0.5197
  830MOL0     C11975   8.622   4.138   8.367 -0.4220 -0.2337 -0.3377
  830MOL0     C11976   8.475   4.127   8.394 -0.2841 -0.8210 -1.0342
  830MOL0     C11977   8.440   3.981   8.437  0.0297  0.3335  0.2725
  830MOL0     C11978   8.302   3.967   8.477  0.5859  0.2353 -0.5283
  830MOL0     C11979   8.183   3.965   8.518 -0.1611 -0.5891 -0.6387
  830MOL0     C11980   8.848   4.515   8.345 -0.2017  0.5158  0.2812
  830MOL0     C11981   8.962   4.567   8.405 -0.2469 -0.1844 -0.4708
  830MOL0     C11982   9.044   4.640   8.309 -0.1203 -0.8363  0.3031
  830MOL0     H11983   9.089   4.880   8.738 -0.1153  3.5341 -1.6024
  830MOL0     H11984   9.229   5.041   8.863 -0.3113  1.0289 -0.6881
  830MOL0     H11985   9.333   5.221   8.886  3.9516  5.3349 -0.9993
  830MOL0     H11986   9.383   5.089   9.004 -0.9685 -0.2225 -0.7396
  830MOL0     H11987   9.541   5.338   8.913 -1.6987 -1.9793 -1.8712
  830MOL0     H11988   9.610   5.212   9.012  0.1145  2.2052  5.0473
  830MOL0     H11989   9.434   5.212   9.178 -1.0013  1.5950  2.5952
  830MOL0     H11990   9.355   5.362   9.117 -0.6271  0.7915  2.4538
  830MOL0     H11991   9.503   5.403   9.308  0.3224  0.8490 -0.3122
  830MOL0     H11992   9.630   5.321   9.215 -3.7675 -4.2078 -0.1185
  830MOL0     H11993   9.625   5.499   9.042  1.9679 -0.0205  1.0824
  830MOL0     H11994   9.494   5.576   9.133 -0.7079 -0.6974 -0.1030
  830MOL0     H11995   9.645   5.592   9.336 -2.7925 -3.1930 -0.5023
  830MOL0     H11996   9.775   5.524   9.238 -1.2039 -2.0122  2.7003
  830MOL0     H11997   9.708   5.715   9.068  1.1565  1.8054 -0.5124
  830MOL0     H11998   9.833   5.746   9.189 -0.7860  0.4892 -0.8548
  830MOL0     H11999   9.634   5.924   9.147  2.1288 -0.8285 -0.6356
  830MOL0     H12000   9.554   5.803   9.264  2.8471 -3.0629  1.8102
  830MOL0     H12001   9.574   5.887   9.501 -0.5346 -1.5394 -1.3555
  830MOL0     H12002   9.821   6.159   9.644 -0.6123  0.3659 -0.5256
  830MOL0     H12003   9.662   6.112   9.700  0.0488  1.7187 -2.4735
  830MOL0     H12004   9.845   5.872   9.718  0.7224  0.3556 -2.8672
  830MOL0     H12005   9.940   6.015   9.778 -1.0653  0.4150  1.8916
  830MOL0     H12006   9.661   5.921   9.867  0.7500 -1.0751 -1.5812
  830MOL0     H12007   9.752   6.066   9.935  2.1496 -1.1311  0.8671
  830MOL0     H12008   9.931   5.936  10.011  0.1556 -0.3463  0.3376
  830MOL0     H12009   9.846   5.785   9.961  2.5128  0.5762 -0.8545
  830MOL0     H12010   9.896   5.654  10.112  0.0316 -1.2570 -0.4890
  830MOL0     H12011   9.812   5.430  10.181  1.9326  1.2957  0.7890
  830MOL0     H12012   9.289   5.363  10.527 -0.6249  0.0190  1.9090
  830MOL0     H12013   9.189   5.169  10.623 -1.9899 -1.3524 -0.8977
  830MOL0     H12014   9.033   4.911  10.317 -1.5210 -2.9715 -0.9857
  830MOL0     H12015   9.161   4.786  10.333  0.8551  0.9911  0.2037
  830MOL0     H12016   8.960   4.692  10.380  0.0518 -2.1783  0.8726
  830MOL0     H12017   9.042   4.705  10.536 -1.2212 -2.0955 -0.7351
  830MOL0     H12018   8.903   4.893  10.602 -2.3083  0.6415  0.8780
  830MOL0     H12019   8.843   4.903  10.435  1.1160  2.2126  1.3795
  830MOL0     H12020   8.797   4.683  10.639 -0.9403  0.7176  0.4199
  830MOL0     H12021   8.740   4.665  10.469  1.3577 -1.1690  0.8713
  830MOL0     H12022   8.623   4.900  10.509  0.8065  1.6364  0.9296
  830MOL0     H12023   8.656   4.894  10.670  0.1147  3.5675 -3.9734
  830MOL0     H12024   8.523   4.657  10.549 -2.6900 -0.8733  0.2051
  830MOL0     H12025   8.530   4.715  10.719  1.4743  3.3932  0.5887
  830MOL0     H12026   8.309   4.746  10.623 -0.3557  0.7924  1.1104
  830MOL0     H12027   8.397   4.838  10.492  0.9602 -2.3817 -0.0186
  830MOL0     H12028   8.259   4.938  10.701 -0.0625 -3.8845 -0.4889
  830MOL0     H12029   8.412   4.922  10.790 -2.9093 -3.3988  1.4887
  830MOL0     H12030   9.312   4.941  10.282  0.9139  1.2912 -0.8944
  830MOL0     H12031   9.418   5.131  10.187  0.1374  1.4149  0.2551
  830MOL0     H12032   9.458   5.624  10.344  2.5129 -0.4758  1.8751
  830MOL0     H12033   9.552   5.846  10.251  1.2221  0.8266  3.5643
  830MOL0     H12034   9.559   4.945   8.627 -0.0546  1.2125  0.5969
  830MOL0     H12035   9.436   4.754   8.518  1.2943 -0.0145  0.2931
  830MOL0     H12036   8.893   4.448   8.714  2.1548 -0.3611 -0.4690
  830MOL0     H12037   8.697   4.354   8.592 -0.7291 -0.1271 -0.8616
  830MOL0     H12038   8.764   4.251   8.246  0.0079 -1.1416 -1.2784
  830MOL0     H12039   8.599   4.262   8.187  2.5814  0.9803 -0.8121
  830MOL0     H12040   8.683   4.163   8.454 -0.3802  2.9460 -1.1322
  830MOL0     H12041   8.667   4.052   8.317  3.2712  0.3124  1.7293
  830MOL0     H12042   8.422   4.161   8.305 -3.1869 -0.4062  0.7039
  830MOL0     H12043   8.455   4.181   8.487  1.1656 -4.2066  1.4791
  830MOL0     H12044   8.437   3.912   8.352 -0.7224 -0.9774  1.3111
  830MOL0     H12045   8.506   3.934   8.511  0.8101  1.5110  0.3578
  830MOL0     H12046   8.090   3.962   8.571  0.7386  1.7920  1.2578
  830MOL0     H12047   8.832   4.521   8.238  0.0625  2.2575  0.3098
  830MOL0     H12048   9.150   4.618   8.297  0.1588  1.0230 -1.2769
  830MOL0     H12049   9.010   4.648   8.205 -0.3313 -1.3030  0.3330
  830MOL0     H12050   9.030   4.740   8.351  2.1167 -1.4044  2.6287
  831MOL0     O12051   9.887   9.252   9.161 -0.6153  0.2736 -0.4410
  831MOL0     C12052   9.845   9.221   9.051 -0.2267 -1.3009  0.5324
  831MOL0     O12053   9.898   9.269   8.932  0.4085  0.7497 -0.2776
  831MOL0     C12054  10.024   9.324   8.916 -0.3569  0.1616 -0.4655
  831MOL0     C12055  10.049   9.374   8.789 -0.6236 -0.5195  0.6676
  831MOL0     C12056  10.170   9.414   8.743 -0.6690  0.5189 -0.0645
  831MOL0     C12057  10.283   9.402   8.829 -0.6748 -0.1187 -0.4359
  831MOL0     O12058  10.409   9.409   8.775  0.0125 -0.2689  0.0056
  831MOL0     C12059  10.525   9.398   8.861  1.1134  0.3011  0.1526
  831MOL0     C12060  10.649   9.365   8.779 -0.7870 -0.3466 -0.2503
  831MOL0     C12061  10.763   9.339   8.865  0.1974  0.0164 -0.0838
  831MOL0     C12062  10.886   9.284   8.782 -0.8499 -0.3209  0.5977
  831MOL0     C12063  11.004   9.270   8.876  0.2527  0.0601  0.4764
  831MOL0     C12064  11.102   9.167   8.813  0.2082 -0.3761 -0.2180
  831MOL0     C12065  11.190   9.144   8.928  0.0302 -0.8348 -0.9202
  831MOL0     C12066  11.305   9.051   8.870 -0.2125  0.2573 -0.9254
  831MOL0     N12067  11.407   9.008   8.970 -0.2870  0.2654 -0.6620
  831MOL0     C12068  11.493   9.090   9.047  0.2862 -0.0169  0.1382
  831MOL0     C12069  11.544   9.008   9.143 -0.3792 -0.6414  0.2234
  831MOL0     C12070  11.650   9.039   9.246 -0.7975 -1.5301  0.2545
  831MOL0     C12071  11.761   9.129   9.203  0.2180 -0.8714  0.1692
  831MOL0     C12072  11.832   9.071   9.077 -0.3075 -0.1138  0.2659
  831MOL0     C12073  11.965   9.136   9.044  0.0186  0.2032  0.1070
  831MOL0     O12074  12.071   9.099   9.128 -0.4966 -0.2515 -0.2654
  831MOL0     C12075  12.200   9.139   9.096  0.2046 -0.4147  0.7879
  831MOL0     C12076  12.301   9.097   9.176 -0.5091  0.0422  0.7444
  831MOL0     C12077  12.436   9.131   9.151 -0.7602 -0.3627 -0.4559
  831MOL0     C12078  12.475   9.198   9.031 -0.4012 -0.1449  0.3433
  831MOL0     C12079  12.621   9.218   8.998  0.1007  0.1784  1.3729
  831MOL0     O12080  12.715   9.131   9.057  0.7331 -0.7499 -0.0405
  831MOL0     C12081  12.845   9.155   9.022  0.1391  0.7219  1.0203
  831MOL0     C12082  12.935   9.224   9.100 -0.5486 -0.1479  0.2052
  831MOL0     C12083  13.069   9.255   9.064  0.5425 -0.2147 -0.4899
  831MOL0     C12084  13.113   9.194   8.949 -0.1278 -0.1031 -0.3072
  831MOL0     O12085  13.245   9.210   8.909 -0.3462 -0.6012 -0.2384
  831MOL0     C12086  13.297   9.344   8.884  0.1781 -0.0832 -1.2032
  831MOL0     C12087  13.446   9.342   8.895 -0.4790 -0.1157 -0.5034
  831MOL0     C12088  13.512   9.265   8.779 -0.4656  0.0364  0.4660
  831MOL0     C12089  13.661   9.229   8.805  1.0164  0.2285  0.0438
  831MOL0     C12090  13.750   9.200   8.684 -0.6026 -0.5349  0.4558
  831MOL0     C12091  13.893   9.144   8.719 -0.6336  0.2150  0.1453
  831MOL0     C12092  13.897   9.011   8.781 -0.1437  0.5585  0.5604
  831MOL0     C12093  14.036   8.958   8.803  0.1847  1.4867  0.5952
  831MOL0    Cl12094  14.030   8.782   8.852 -0.0816 -0.5199 -0.5385
  831MOL0     C12095  13.033   9.127   8.863  0.3981  0.0412 -0.1160
  831MOL0     C12096  12.894   9.106   8.897 -0.7703 -0.3462  0.1523
  831MOL0     O12097  12.649   9.309   8.928 -0.6333 -0.2738  0.5568
  831MOL0     C12098  12.367   9.255   8.955 -0.4635  0.5596  0.5461
  831MOL0     C12099  12.232   9.218   8.989  0.2040 -0.0005 -0.4146
  831MOL0     N12100  11.488   8.879   9.118 -0.3244 -0.8202 -0.0203
  831MOL0     N12101  11.415   8.875   9.011  0.4233 -0.6566 -0.3956
  831MOL0     C12102  10.258   9.369   8.960 -0.2964  0.8115 -0.1990
  831MOL0     C12103  10.131   9.319   9.010 -0.5611 -0.4850  0.9857
  831MOL0     C12104   9.743   9.123   9.042  0.5842 -0.1051  0.3374
  831MOL0     C12105   9.615   9.160   9.085  0.0563  0.3227 -0.4162
  831MOL0     C12106   9.515   9.066   9.088 -0.1474  0.2304 -0.6759
  831MOL0     C12107   9.532   8.933   9.045  0.3578 -0.1473  0.1278
  831MOL0     O12108   9.431   8.842   9.032 -0.0528 -0.1072 -1.0840
  831MOL0     C12109   9.300   8.875   9.075  0.4083 -0.7022  0.5423
  831MOL0     C12110   9.226   8.745   9.074 -0.5735  1.1949 -0.9699
  831MOL0     C12111   9.081   8.754   9.116  0.4325  0.9667  0.4671
  831MOL0     C12112   9.069   8.779   9.272  0.0632  0.6198 -0.4506
  831MOL0     C12113   8.934   8.758   9.324  0.3627 -0.4346  0.7417
  831MOL0     C12114   8.815   8.753   9.359 -0.8099  0.0296  0.8175
  831MOL0     C12115   9.658   8.896   8.991  0.3528  0.2592  0.4551
  831MOL0     C12116   9.766   8.985   8.996  0.2226 -0.6617  0.9902
  831MOL0     C12117   9.898   8.956   8.927  0.8912 -0.7281 -0.2037
  831MOL0     H12118   9.977   9.376   8.708  1.9177 -2.4649 -1.8609
  831MOL0     H12119  10.188   9.459   8.646 -1.3566  1.6706  0.3277
  831MOL0     H12120  10.545   9.488   8.921  0.6399 -0.7596  1.9887
  831MOL0     H12121  10.520   9.323   8.940 -0.6160 -0.6088 -0.7681
  831MOL0     H12122  10.662   9.433   8.694  1.2577  0.1198  0.3961
  831MOL0     H12123  10.625   9.265   8.741 -0.9467  0.3249 -1.9857
  831MOL0     H12124  10.739   9.263   8.939  1.8717  1.2756  1.8815
  831MOL0     H12125  10.783   9.436   8.912 -1.5880  1.0594 -1.3464
  831MOL0     H12126  10.852   9.187   8.742  0.0758 -1.1674  1.7891
  831MOL0     H12127  10.914   9.345   8.695  0.1505  0.7607  1.6477
  831MOL0     H12128  11.048   9.366   8.904  2.0043 -0.3537 -0.7278
  831MOL0     H12129  10.968   9.217   8.965  1.6177  1.0898  1.6830
  831MOL0     H12130  11.053   9.072   8.790 -0.8022  0.2781 -0.8606
  831MOL0     H12131  11.165   9.199   8.730  1.3708 -0.6439  0.5383
  831MOL0     H12132  11.153   9.085   9.012 -1.0514  2.3665  1.0597
  831MOL0     H12133  11.232   9.239   8.964  0.0204 -0.5776 -1.5709
  831MOL0     H12134  11.250   8.961   8.843 -1.5449 -0.3721  3.1103
  831MOL0     H12135  11.348   9.108   8.787 -1.1742  0.5532 -1.2292
  831MOL0     H12136  11.519   9.193   9.026 -1.6028  0.8520  1.7435
  831MOL0     H12137  11.609   9.069   9.343 -1.1642 -2.4416  0.3961
  831MOL0     H12138  11.701   8.947   9.276  1.4147  0.8770  5.1213
  831MOL0     H12139  11.723   9.230   9.182 -0.3263 -1.2168 -0.5300
  831MOL0     H12140  11.826   9.135   9.291 -1.5619  0.0669  1.4881
  831MOL0     H12141  11.770   9.084   8.987  0.5256  1.9210 -0.0842
  831MOL0     H12142  11.850   8.965   9.091  1.6649 -0.4402 -3.4161
  831MOL0     H12143  11.942   9.243   9.045 -2.9996 -0.3659  0.4777
  831MOL0     H12144  11.993   9.121   8.939  0.1799  1.6150 -0.0633
  831MOL0     H12145  12.265   9.036   9.259 -1.4570  0.4359  0.6367
  831MOL0     H12146  12.508   9.084   9.218 -0.9499  0.0686  0.0513
  831MOL0     H12147  12.907   9.245   9.203 -0.6215  1.6549 -0.1566
  831MOL0     H12148  13.136   9.309   9.130 -0.0025  1.4844 -1.2854
  831MOL0     H12149  13.270   9.363   8.779 -1.6131  3.3454 -0.2648
  831MOL0     H12150  13.261   9.427   8.945  3.6556  0.8559 -0.2530
  831MOL0     H12151  13.465   9.449   8.878 -0.1862 -0.3386 -1.6780
  831MOL0     H12152  13.486   9.305   8.990 -3.4557 -2.3269  0.0065
  831MOL0     H12153  13.451   9.179   8.751 -1.2062 -0.7972  4.1797
  831MOL0     H12154  13.508   9.320   8.684  0.3446 -2.5263 -1.1626
  831MOL0     H12155  13.653   9.132   8.856 -3.0829 -0.0165 -0.7354
  831MOL0     H12156  13.711   9.287   8.882  1.4824 -2.1192  1.6357
  831MOL0     H12157  13.755   9.291   8.624 -0.5815 -1.0003 -0.2704
  831MOL0     H12158  13.695   9.122   8.629  0.0120 -1.2944  0.8968
  831MOL0     H12159  13.953   9.144   8.628 -0.6353  0.0759  0.1431
  831MOL0     H12160  13.938   9.218   8.786  1.4720 -0.0944 -0.8176
  831MOL0     H12161  13.842   8.945   8.712  2.2921  2.2858 -3.4023
  831MOL0     H12162  13.849   9.008   8.879  0.5583 -2.3031  0.9066
  831MOL0     H12163  14.092   8.969   8.710  0.7440  0.9105  0.8557
  831MOL0     H12164  14.088   9.018   8.879 -2.1155 -0.4629  3.9411
  831MOL0     H12165  13.082   9.079   8.779  1.8012  0.3649  0.4736
  831MOL0     H12166  12.835   9.052   8.824  0.6470  1.4239 -2.4635
  831MOL0     H12167  12.383   9.318   8.869 -0.8492 -2.6120 -2.0660
  831MOL0     H12168  12.153   9.269   8.934  0.5785  2.1783  0.9720
  831MOL0     H12169  10.340   9.352   9.030  1.3169  1.6835 -1.7963
  831MOL0     H12170  10.112   9.279   9.109 -4.2907  1.4711  1.2349
  831MOL0     H12171   9.591   9.261   9.117  1.1281  0.4801 -0.0454
  831MOL0     H12172   9.421   9.105   9.127  0.6339  1.9726 -0.4289
  831MOL0     H12173   9.253   8.935   8.997  1.6535  1.4055  1.3375
  831MOL0     H12174   9.302   8.925   9.172 -1.8365  1.8882 -0.6239
  831MOL0     H12175   9.264   8.679   9.153 -2.8307 -1.0673 -1.6282
  831MOL0     H12176   9.228   8.685   8.983  0.9012 -1.9686  0.9843
  831MOL0     H12177   9.024   8.661   9.111  0.8291  0.5482  2.7275
  831MOL0     H12178   9.029   8.821   9.046 -0.1029 -1.6740 -1.8503
  831MOL0     H12179   9.132   8.714   9.332 -0.8092  1.0571  0.9786
  831MOL0     H12180   9.115   8.877   9.285  2.0616 -0.2723 -0.5399
  831MOL0     H12181   8.714   8.749   9.395 -0.4184  1.3754  2.1464
  831MOL0     H12182   9.670   8.800   8.942  0.9198  0.6598 -0.2060
  831MOL0     H12183   9.924   9.048   8.875 -2.1202  0.0046 -0.6043
  831MOL0     H12184   9.977   8.934   8.999 -0.3272 -4.6461  0.1976
  831MOL0     H12185   9.899   8.871   8.858  0.4355  0.2444 -1.4372
  832MOL0     O12186   6.841   3.968   1.638  0.2318 -0.0590  0.7447
  832MOL0     C12187   6.798   4.078   1.606 -0.3070 -0.3118  0.1736
  832MOL0     O12188   6.862   4.194   1.617 -0.2846 -0.3114 -0.5281
  832MOL0     C12189   6.977   4.198   1.691  0.2418 -0.1007 -0.9671
  832MOL0     C12190   7.091   4.129   1.653 -0.7725  0.6901 -1.1430
  832MOL0     C12191   7.213   4.164   1.725 -0.6068  0.3379 -0.0042
  832MOL0     C12192   7.214   4.255   1.832 -0.0608  0.6475 -0.2584
  832MOL0     O12193   7.325   4.294   1.911 -0.6607 -0.6077  0.5007
  832MOL0     C12194   7.460   4.267   1.855  0.2889 -0.4428 -0.1436
  832MOL0     C12195   7.543   4.395   1.874 -0.1176  0.1022  0.1983
  832MOL0     C12196   7.687   4.371   1.818 -0.6886 -0.7016  0.0278
  832MOL0     C12197   7.783   4.488   1.847 -0.0701  1.2040 -0.4256
  832MOL0     C12198   7.934   4.450   1.829  0.6253  0.0002 -0.5774
  832MOL0     C12199   7.974   4.406   1.688  0.9903 -0.4435  0.0172
  832MOL0     C12200   8.116   4.351   1.660  0.8951  0.4421  0.3181
  832MOL0     C12201   8.229   4.392   1.748 -0.0078  0.4897 -0.1063
  832MOL0     N12202   8.367   4.338   1.707  0.3019  0.2941  0.0920
  832MOL0     C12203   8.476   4.417   1.732 -0.4453 -0.0071 -0.4058
  832MOL0     C12204   8.579   4.325   1.702  0.0476 -0.7887 -0.1616
  832MOL0     C12205   8.727   4.348   1.691 -0.2247  0.7370 -0.1368
  832MOL0     C12206   8.817   4.243   1.768  0.1430 -0.1957 -0.5152
  832MOL0     C12207   8.968   4.256   1.745 -0.3389 -0.2806 -0.2619
  832MOL0     C12208   9.018   4.208   1.610  0.0771 -0.3868 -0.1399
  832MOL0     O12209   9.118   4.301   1.564  0.1251 -0.1373  0.4056
  832MOL0     C12210   9.250   4.270   1.572 -0.3845  0.7440  0.5656
  832MOL0     C12211   9.325   4.300   1.461  0.1799  0.4408 -0.2650
  832MOL0     C12212   9.458   4.253   1.446  1.3127 -0.1910 -0.0243
  832MOL0     C12213   9.511   4.171   1.544 -0.8831 -0.0250  0.3487
  832MOL0     C12214   9.649   4.123   1.522  0.4194  0.4572 -0.1447
  832MOL0     O12215   9.708   4.164   1.403 -0.4748  0.1215  1.0821
  832MOL0     C12216   9.847   4.173   1.404  0.3446  0.3971 -0.8658
  832MOL0     C12217   9.919   4.263   1.488 -0.0035  0.2766  0.0379
  832MOL0     C12218  10.063   4.277   1.486 -0.7911 -0.1477  1.0178
  832MOL0     C12219  10.129   4.201   1.392  0.2942 -0.3549  0.2820
  832MOL0     O12220  10.267   4.208   1.392  0.2538  0.1174 -0.2974
  832MOL0     C12221  10.321   4.229   1.258  0.3353 -1.1690 -0.4531
  832MOL0     C12222  10.430   4.327   1.272  0.0540 -0.8706 -0.0221
  832MOL0     C12223  10.549   4.287   1.357  0.0670  0.5547  0.3830
  832MOL0     C12224  10.652   4.399   1.363  0.2909  0.4607 -0.2701
  832MOL0     C12225  10.800   4.353   1.398  0.5768 -0.7582  0.0432
  832MOL0     C12226  10.907   4.470   1.383  0.3428 -0.0695  0.3786
  832MOL0     C12227  11.045   4.420   1.418  0.0985  0.9835  0.3391
  832MOL0     C12228  11.166   4.511   1.383 -0.4061 -0.0874 -0.0648
  832MOL0    Cl12229  11.217   4.456   1.222 -0.5875 -0.3254  0.0633
  832MOL0     C12230  10.059   4.116   1.301  0.3003 -0.0178 -0.4061
  832MOL0     C12231   9.919   4.100   1.315  0.3173  0.4709  0.2136
  832MOL0     O12232   9.703   4.066   1.611  0.1378  0.4417  0.4489
  832MOL0     C12233   9.434   4.134   1.653  0.0808  0.5502 -0.2267
  832MOL0     C12234   9.306   4.184   1.674  0.5851 -0.7412 -0.2132
  832MOL0     N12235   8.520   4.216   1.647 -0.2377  0.0137 -0.4355
  832MOL0     N12236   8.395   4.219   1.656 -0.7088 -0.3466 -0.2242
  832MOL0     C12237   7.085   4.324   1.859 -0.7560 -0.4820  0.2473
  832MOL0     C12238   6.971   4.294   1.794 -0.4174  0.1030 -0.2239
  832MOL0     C12239   6.669   4.084   1.543 -1.0165  0.3265 -0.0938
  832MOL0     C12240   6.620   4.217   1.531 -0.4550  0.7549  0.0424
  832MOL0     C12241   6.501   4.229   1.460 -0.3010  0.0884  0.3560
  832MOL0     C12242   6.418   4.127   1.418  0.1121 -0.1348  0.6446
  832MOL0     O12243   6.314   4.174   1.345  0.0947  0.2119 -0.4182
  832MOL0     C12244   6.228   4.076   1.288  0.2729 -0.3308  0.5093
  832MOL0     C12245   6.110   4.161   1.237  0.2824  0.4648  0.2733
  832MOL0     C12246   6.133   4.186   1.084 -0.1395  0.2784  0.4983
  832MOL0     C12247   6.007   4.232   1.009  0.4092  0.2171 -0.2654
  832MOL0     C12248   5.966   4.367   1.049  0.0975 -0.8380 -1.4647
  832MOL0     C12249   5.930   4.468   1.103 -0.0415 -0.6348  0.3667
  832MOL0     C12250   6.467   3.993   1.428 -1.1143  0.4886 -0.2611
  832MOL0     C12251   6.592   3.970   1.498  0.0393 -0.2875 -0.0217
  832MOL0     C12252   6.633   3.819   1.533 -0.0466  0.7130 -0.4428
  832MOL0     H12253   7.098   4.059   1.571  0.6552  0.3529 -0.7634
  832MOL0     H12254   7.299   4.099   1.708 -1.2734 -0.6105  0.1495
  832MOL0     H12255   7.502   4.176   1.899  2.2050  0.3220 -0.3346
  832MOL0     H12256   7.459   4.238   1.750  3.3382 -4.3491  0.6672
  832MOL0     H12257   7.564   4.405   1.981 -3.0098 -3.6269  1.3442
  832MOL0     H12258   7.488   4.480   1.833 -2.7470 -0.6014  1.9459
  832MOL0     H12259   7.693   4.354   1.711 -0.2135  1.5742 -0.3483
  832MOL0     H12260   7.727   4.281   1.865  3.4202 -0.3131 -2.3396
  832MOL0     H12261   7.766   4.572   1.779 -2.2614  0.5995 -0.7035
  832MOL0     H12262   7.769   4.535   1.945  1.4930  3.6347 -1.2810
  832MOL0     H12263   7.999   4.535   1.852  1.6814  0.1167 -3.5165
  832MOL0     H12264   7.950   4.360   1.890 -0.6665  0.9753  1.2955
  832MOL0     H12265   7.901   4.327   1.674  2.6023 -2.3819  1.8389
  832MOL0     H12266   7.944   4.485   1.618  0.8789  0.0735  0.6356
  832MOL0     H12267   8.138   4.388   1.560 -1.5298 -2.9596 -1.6937
  832MOL0     H12268   8.119   4.241   1.655 -2.0774  0.3257 -0.6358
  832MOL0     H12269   8.222   4.501   1.750  0.3233  0.5014  1.5049
  832MOL0     H12270   8.214   4.355   1.850  0.8743 -1.2939 -0.5721
  832MOL0     H12271   8.480   4.513   1.783 -0.6155  0.0610 -0.5220
  832MOL0     H12272   8.741   4.339   1.583 -0.0651 -0.3069 -0.0426
  832MOL0     H12273   8.740   4.453   1.718 -2.4448  1.8686 -2.9067
  832MOL0     H12274   8.793   4.259   1.873 -2.1099 -0.3933 -0.9633
  832MOL0     H12275   8.775   4.147   1.737 -2.0145  1.0395 -1.6276
  832MOL0     H12276   9.022   4.205   1.825  0.4000  3.5239  1.8950
  832MOL0     H12277   9.005   4.357   1.762  1.5531 -0.5738 -2.1525
  832MOL0     H12278   8.936   4.199   1.538  0.1828 -0.5605 -0.2394
  832MOL0     H12279   9.060   4.107   1.616  2.8600  0.6843 -0.1829
  832MOL0     H12280   9.274   4.357   1.384 -1.0333 -1.6007 -1.0421
  832MOL0     H12281   9.506   4.279   1.352  0.8735  0.0004 -0.1998
  832MOL0     H12282   9.857   4.326   1.551  0.4110 -2.1445  3.1718
  832MOL0     H12283  10.123   4.337   1.553  3.4466 -3.5619  0.7308
  832MOL0     H12284  10.363   4.133   1.224  1.1839 -0.3340 -1.8517
  832MOL0     H12285  10.248   4.261   1.184  1.0874  1.5724 -0.1237
  832MOL0     H12286  10.474   4.360   1.178 -1.4625  2.8450  0.3932
  832MOL0     H12287  10.369   4.409   1.312  0.0801 -0.1390 -1.4265
  832MOL0     H12288  10.515   4.269   1.460  0.5372 -0.6891  0.3409
  832MOL0     H12289  10.605   4.202   1.317 -0.4664  0.4225 -0.0885
  832MOL0     H12290  10.615   4.466   1.441 -2.3664 -2.6138  1.3805
  832MOL0     H12291  10.663   4.440   1.262 -2.2408 -0.5447 -1.0204
  832MOL0     H12292  10.818   4.264   1.337 -2.1238 -1.7727  0.6177
  832MOL0     H12293  10.795   4.321   1.503 -1.0433 -0.6317  0.0237
  832MOL0     H12294  10.907   4.506   1.280 -3.4857  0.6042  0.4548
  832MOL0     H12295  10.885   4.547   1.458 -2.1104 -2.6083  2.5150
  832MOL0     H12296  11.058   4.321   1.374  1.2084  0.8647  0.9069
  832MOL0     H12297  11.050   4.407   1.526 -3.1376 -0.0309  0.4653
  832MOL0     H12298  11.139   4.616   1.377  1.8958  0.5879  0.3096
  832MOL0     H12299  11.250   4.501   1.453  1.5628 -0.7572 -2.3645
  832MOL0     H12300  10.120   4.042   1.250 -0.6103 -0.9977 -0.1133
  832MOL0     H12301   9.854   4.032   1.261 -0.6825  2.4055 -1.1264
  832MOL0     H12302   9.463   4.068   1.734 -1.5157 -2.7924 -2.1445
  832MOL0     H12303   9.257   4.167   1.770  1.1913  1.1251  0.4738
  832MOL0     H12304   7.075   4.412   1.921 -0.2477  0.6192 -1.1808
  832MOL0     H12305   6.875   4.343   1.802  0.0395  1.0542 -0.4758
  832MOL0     H12306   6.678   4.304   1.559  2.6034 -1.4103  0.9932
  832MOL0     H12307   6.469   4.329   1.434  0.3467  0.0008 -0.8404
  832MOL0     H12308   6.190   4.017   1.372  2.5432  1.5701  2.9943
  832MOL0     H12309   6.281   4.021   1.209  2.0059 -0.0023  1.4009
  832MOL0     H12310   6.089   4.252   1.294  0.0667  0.2791  0.4905
  832MOL0     H12311   6.021   4.099   1.242  0.5574  0.1530  1.6473
  832MOL0     H12312   6.164   4.093   1.035 -0.9732  0.1394  0.2199
  832MOL0     H12313   6.212   4.259   1.065 -1.6911  1.6235 -1.1492
  832MOL0     H12314   6.023   4.227   0.901  0.0639  4.3442 -0.6743
  832MOL0     H12315   5.918   4.177   1.040  0.1576  1.1993  0.8342
  832MOL0     H12316   5.903   4.560   1.150 -0.1915 -1.1985  1.4231
  832MOL0     H12317   6.416   3.906   1.388 -1.6673  0.2558  0.9055
  832MOL0     H12318   6.737   3.794   1.509  0.0600 -1.5409  1.9384
  832MOL0     H12319   6.616   3.792   1.638 -2.1115  1.4246 -0.5616
  832MOL0     H12320   6.581   3.741   1.476  0.5084 -1.7189  2.1179
  833MOL0     O12321   9.737   2.487   0.733  0.3962 -0.5942  0.4577
  833MOL0     C12322   9.733   2.366   0.718 -0.2402 -0.0989 -0.1554
  833MOL0     O12323   9.783   2.273   0.799  0.5021  0.1194 -0.0074
  833MOL0     C12324   9.900   2.306   0.862 -0.0199  0.1312  0.1553
  833MOL0     C12325   9.995   2.410   0.832  0.4864 -0.4871 -0.1772
  833MOL0     C12326  10.109   2.432   0.911  0.4575 -0.0033 -0.3720
  833MOL0     C12327  10.143   2.345   1.014  0.1560  0.3607  0.2466
  833MOL0     O12328  10.262   2.363   1.079 -0.4049 -0.7751 -0.5208
  833MOL0     C12329  10.328   2.259   1.152  0.3056 -0.2199 -0.5074
  833MOL0     C12330  10.473   2.284   1.146 -0.0999  0.7997 -1.0652
  833MOL0     C12331  10.573   2.186   1.222  0.5479  0.0046 -0.4840
  833MOL0     C12332  10.708   2.183   1.156  0.1602  0.1425  0.3758
  833MOL0     C12333  10.807   2.117   1.249  0.1286 -0.7836  0.4782
  833MOL0     C12334  10.945   2.082   1.186  0.0684 -1.0227 -0.8069
  833MOL0     C12335  11.050   2.044   1.296  1.0889  0.1812 -0.7257
  833MOL0     C12336  11.112   2.164   1.363 -0.5045  0.7217  1.2580
  833MOL0     N12337  11.199   2.115   1.468  0.5905  1.0166 -0.8754
  833MOL0     C12338  11.344   2.117   1.456  0.1800  0.1055 -0.1425
  833MOL0     C12339  11.388   2.098   1.589  0.4672  0.7692 -0.1818
  833MOL0     C12340  11.524   2.089   1.636 -0.4426  0.5355  0.1956
  833MOL0     C12341  11.524   2.064   1.791  0.0884 -1.7239  0.2336
  833MOL0     C12342  11.664   2.093   1.867  0.0140  0.1447  0.1030
  833MOL0     C12343  11.777   2.016   1.795  0.7873 -0.0507 -0.6657
  833MOL0     O12344  11.869   1.986   1.900 -0.6766 -0.2882  0.0064
  833MOL0     C12345  11.998   1.972   1.876 -0.2406  0.5099 -0.5233
  833MOL0     C12346  12.082   2.071   1.826  0.5799  0.7652  0.0066
  833MOL0     C12347  12.220   2.047   1.814  0.1201 -0.5777  0.6822
  833MOL0     C12348  12.277   1.925   1.855  0.0178  0.4741 -0.8406
  833MOL0     C12349  12.424   1.903   1.868  0.0540  0.7829  0.1990
  833MOL0     O12350  12.470   1.791   1.923 -0.0699 -1.1694 -0.6565
  833MOL0     C12351  12.604   1.780   1.913 -0.6999 -0.2400 -0.0948
  833MOL0     C12352  12.682   1.819   2.025 -0.4056 -0.5944  0.3274
  833MOL0     C12353  12.825   1.819   2.031  0.2482 -0.4372  1.0321
  833MOL0     C12354  12.895   1.791   1.907  0.6377 -0.3024  0.2098
  833MOL0     O12355  13.032   1.809   1.897 -0.1874 -0.0654 -0.0677
  833MOL0     C12356  13.077   1.928   1.959 -0.0801  0.3613 -0.2682
  833MOL0     C12357  13.218   1.963   1.909  0.0426 -0.8040  0.0891
  833MOL0     C12358  13.322   1.890   2.010  0.0034 -0.9664 -0.2563
  833MOL0     C12359  13.467   1.945   1.995 -0.1796 -0.4614  0.9900
  833MOL0     C12360  13.478   2.078   2.076  0.2178 -1.1428  0.4759
  833MOL0     C12361  13.585   2.183   2.035  0.5300  0.0991 -0.0022
  833MOL0     C12362  13.728   2.147   2.069  0.4141  0.5753 -1.1708
  833MOL0     C12363  13.780   2.238   2.181  0.0026 -0.3780 -0.1199
  833MOL0    Cl12364  13.927   2.173   2.257  0.3598 -0.4357 -0.3920
  833MOL0     C12365  12.823   1.750   1.800  0.1785  0.2103  0.1388
  833MOL0     C12366  12.682   1.740   1.800 -0.0515  0.0078  1.0318
  833MOL0     O12367  12.491   1.988   1.810 -0.7014 -0.5623  0.4829
  833MOL0     C12368  12.185   1.828   1.914 -0.0001  0.9536  0.3646
  833MOL0     C12369  12.048   1.849   1.916  0.2912  0.8030 -0.3079
  833MOL0     N12370  11.272   2.102   1.669  0.2898  0.6954  0.6842
  833MOL0     N12371  11.165   2.111   1.597 -0.7286  0.4801 -0.9182
  833MOL0     C12372  10.052   2.243   1.045 -0.0754  0.3030  0.7190
  833MOL0     C12373   9.939   2.227   0.962  0.0043  0.9781 -0.7677
  833MOL0     C12374   9.641   2.322   0.625  1.0308 -0.1296  1.1154
  833MOL0     C12375   9.630   2.180   0.587  0.8720 -0.7911 -0.6347
  833MOL0     C12376   9.534   2.125   0.507 -0.5971 -0.8145  0.3219
  833MOL0     C12377   9.436   2.216   0.457  0.0191  0.1332 -0.4509
  833MOL0     O12378   9.320   2.178   0.388 -0.2537  0.1537  0.2341
  833MOL0     C12379   9.276   2.042   0.401  0.7412  0.2200  0.6773
  833MOL0     C12380   9.217   2.025   0.549  0.0239  1.1567 -0.3974
  833MOL0     C12381   9.153   1.880   0.565 -0.3054  0.0081  1.1097
  833MOL0     C12382   9.040   1.879   0.663 -0.2654 -0.0882  0.0053
  833MOL0     C12383   8.996   1.748   0.679  0.5981  0.6347  0.4174
  833MOL0     C12384   8.959   1.636   0.693 -0.1426 -0.6286  0.2790
  833MOL0     C12385   9.443   2.353   0.486  0.6817 -0.3563 -0.1796
  833MOL0     C12386   9.546   2.412   0.557 -0.4183 -0.4892 -0.0653
  833MOL0     C12387   9.536   2.568   0.575 -0.1948 -0.3054 -0.2715
  833MOL0     H12388   9.983   2.483   0.753 -1.5528  3.2940  3.2929
  833MOL0     H12389  10.183   2.506   0.884 -0.8978  0.9300 -1.7049
  833MOL0     H12390  10.298   2.253   1.257  1.5400 -0.5393 -0.1586
  833MOL0     H12391  10.308   2.160   1.110  1.7614  0.3316 -2.7034
  833MOL0     H12392  10.499   2.384   1.185 -0.1288 -0.0410  1.2994
  833MOL0     H12393  10.497   2.262   1.042 -2.7619 -2.3004 -1.1730
  833MOL0     H12394  10.532   2.085   1.219 -1.8336  0.8877 -0.4322
  833MOL0     H12395  10.574   2.210   1.329  1.0343  0.1481 -0.5185
  833MOL0     H12396  10.708   2.126   1.063 -0.6661 -1.0087  1.0464
  833MOL0     H12397  10.734   2.286   1.131  0.5070 -0.4398 -1.9218
  833MOL0     H12398  10.818   2.180   1.338  1.3547 -0.9890  0.4923
  833MOL0     H12399  10.756   2.032   1.295 -0.2607  0.4777  2.5231
  833MOL0     H12400  10.927   1.994   1.124  0.8906 -2.2969  0.7084
  833MOL0     H12401  10.971   2.162   1.117 -4.1687  1.0558 -0.3743
  833MOL0     H12402  11.121   1.986   1.236 -0.5306 -1.0006 -1.5683
  833MOL0     H12403  11.005   1.976   1.370 -1.0613  0.1509 -1.9759
  833MOL0     H12404  11.169   2.212   1.282 -0.1450 -1.5666  0.0803
  833MOL0     H12405  11.046   2.238   1.409  0.9893  2.4587  0.7513
  833MOL0     H12406  11.399   2.136   1.365 -0.7738  0.2196 -0.7033
  833MOL0     H12407  11.573   2.014   1.574 -3.2064 -1.1946 -0.0891
  833MOL0     H12408  11.565   2.188   1.618  0.5078  0.5892  2.3143
  833MOL0     H12409  11.456   2.138   1.834  2.0340  0.9478 -1.0215
  833MOL0     H12410  11.492   1.964   1.820  1.4991 -2.0894  0.6334
  833MOL0     H12411  11.649   2.056   1.969 -0.0905 -0.2072 -0.0375
  833MOL0     H12412  11.687   2.199   1.879  1.8872 -0.4066  1.9753
  833MOL0     H12413  11.815   2.072   1.709  1.3840  1.8458  0.7430
  833MOL0     H12414  11.736   1.927   1.746 -0.1065 -0.4361  0.7272
  833MOL0     H12415  12.045   2.164   1.783 -0.0634  1.0576  1.1428
  833MOL0     H12416  12.279   2.134   1.788 -1.4553  0.5254  0.6218
  833MOL0     H12417  12.633   1.843   2.119 -0.9384 -1.4868  0.2880
  833MOL0     H12418  12.874   1.842   2.126  2.9673 -0.2986 -0.3036
  833MOL0     H12419  13.014   2.013   1.932  0.4678  0.5526 -0.9643
  833MOL0     H12420  13.064   1.922   2.068 -1.8074 -0.0666 -0.4587
  833MOL0     H12421  13.231   1.938   1.803  3.2351 -1.9272  0.6447
  833MOL0     H12422  13.222   2.072   1.916 -2.5289 -0.4543 -2.0768
  833MOL0     H12423  13.296   1.893   2.116  0.9483  0.8629 -0.0357
  833MOL0     H12424  13.331   1.782   2.001 -1.2335 -1.0865 -0.2224
  833MOL0     H12425  13.506   1.966   1.896  2.2475  1.9500  2.3143
  833MOL0     H12426  13.544   1.877   2.034  1.5365  0.1343 -1.1446
  833MOL0     H12427  13.505   2.057   2.180 -0.3629  0.3243  0.9439
  833MOL0     H12428  13.382   2.129   2.084  2.0699  2.4840  2.1454
  833MOL0     H12429  13.580   2.194   1.926  1.3641 -0.3285 -0.0905
  833MOL0     H12430  13.556   2.281   2.074 -0.6868 -0.1858 -0.1458
  833MOL0     H12431  13.779   2.166   1.975 -1.1289  1.6703 -1.8356
  833MOL0     H12432  13.743   2.044   2.102 -2.4335  1.2392  3.0560
  833MOL0     H12433  13.808   2.332   2.132  1.2846 -1.2680 -1.1751
  833MOL0     H12434  13.700   2.251   2.254 -1.4130 -1.8311 -1.3202
  833MOL0     H12435  12.862   1.721   1.703 -2.8307 -1.7974 -0.6338
  833MOL0     H12436  12.629   1.709   1.711 -0.4490 -0.9684  1.5870
  833MOL0     H12437  12.220   1.733   1.954 -5.3366 -1.1177  0.9621
  833MOL0     H12438  11.977   1.769   1.937  1.1177 -0.2702 -1.4599
  833MOL0     H12439  10.066   2.168   1.122  1.3708 -1.0301 -0.7882
  833MOL0     H12440   9.866   2.148   0.978  0.0701  0.2433 -3.5253
  833MOL0     H12441   9.704   2.115   0.634  0.5369 -1.4008 -0.9438
  833MOL0     H12442   9.534   2.017   0.497 -1.5129 -0.6926 -1.4036
  833MOL0     H12443   9.352   1.965   0.382 -2.2000 -2.7115 -0.2769
  833MOL0     H12444   9.199   2.026   0.325  0.9930 -0.1354  0.4869
  833MOL0     H12445   9.148   2.108   0.567  2.5857  3.0384  1.4588
  833MOL0     H12446   9.297   2.040   0.621 -0.4629  1.7800  0.0259
  833MOL0     H12447   9.231   1.807   0.589 -0.0126  0.8881  3.1022
  833MOL0     H12448   9.115   1.848   0.468 -1.8943 -0.1186  1.7416
  833MOL0     H12449   9.078   1.916   0.759  0.8694 -1.9716  0.3382
  833MOL0     H12450   8.964   1.950   0.628 -1.3606  0.1799  2.6647
  833MOL0     H12451   8.919   1.537   0.703 -0.3084 -0.9815 -2.8784
  833MOL0     H12452   9.374   2.424   0.442 -0.2769 -1.6132 -0.7803
  833MOL0     H12453   9.462   2.612   0.507  0.0893 -1.3995 -1.3298
  833MOL0     H12454   9.509   2.585   0.679  1.9080  0.4248  0.2041
  833MOL0     H12455   9.633   2.617   0.566 -0.3024 -0.0292  0.0603
  834MOL0     O12456   3.836   1.381   0.596  0.3271  0.8731  0.2406
  834MOL0     C12457   3.841   1.456   0.501 -1.0119 -0.7408  0.3186
  834MOL0     O12458   3.940   1.549   0.483  0.2995 -0.1961  0.6330
  834MOL0     C12459   4.021   1.584   0.586  0.5127  0.0119  0.1040
  834MOL0     C12460   4.027   1.724   0.618  0.0762  0.3763 -0.4274
  834MOL0     C12461   4.118   1.767   0.712 -0.6964  0.3866  0.1927
  834MOL0     C12462   4.201   1.676   0.782  0.3886  1.2265 -0.1004
  834MOL0     O12463   4.293   1.727   0.870 -0.0967  0.2402 -0.4928
  834MOL0     C12464   4.416   1.662   0.893  0.1175 -0.2500  0.1405
  834MOL0     C12465   4.501   1.655   0.768  0.8636 -0.5086  0.8835
  834MOL0     C12466   4.652   1.664   0.790 -0.2973 -0.8254  0.4095
  834MOL0     C12467   4.700   1.816   0.816 -0.4952 -0.2173 -0.0482
  834MOL0     C12468   4.850   1.821   0.838  0.3333 -0.7906 -0.4282
  834MOL0     C12469   4.912   1.949   0.909 -0.0483 -0.4718 -0.0762
  834MOL0     C12470   5.070   1.950   0.896 -0.1951 -0.8352 -0.0342
  834MOL0     C12471   5.144   2.020   1.017 -0.3010 -0.3304  0.4006
  834MOL0     N12472   5.290   2.022   1.001  0.1234 -0.1110  0.0747
  834MOL0     C12473   5.355   2.092   0.902 -0.6027  0.3041  0.1186
  834MOL0     C12474   5.483   2.051   0.920 -0.0111  0.9990 -0.3715
  834MOL0     C12475   5.589   2.103   0.830 -0.8608 -0.8084  0.3690
  834MOL0     C12476   5.614   2.012   0.704 -0.4206  0.0454  1.2918
  834MOL0     C12477   5.749   2.043   0.642 -0.4085  0.1526 -0.3861
  834MOL0     C12478   5.757   2.190   0.590 -0.8472 -0.1208 -0.6234
  834MOL0     O12479   5.795   2.203   0.455  0.1167 -0.2223 -0.0018
  834MOL0     C12480   5.882   2.293   0.406 -0.3928  0.1630  0.6670
  834MOL0     C12481   5.937   2.399   0.484 -0.0162 -0.3272 -0.5325
  834MOL0     C12482   6.022   2.494   0.432 -0.2183  0.0857  0.1903
  834MOL0     C12483   6.075   2.488   0.303 -0.1297  0.6553  0.0257
  834MOL0     C12484   6.168   2.590   0.253  0.2521  0.7635 -0.7671
  834MOL0     O12485   6.145   2.715   0.297  0.1037  0.7153 -0.3418
  834MOL0     C12486   6.215   2.810   0.235 -0.6275 -1.1667  0.0570
  834MOL0     C12487   6.345   2.846   0.295  0.2282 -0.3042  0.1099
  834MOL0     C12488   6.424   2.952   0.235  0.6153 -0.3014  0.0056
  834MOL0     C12489   6.381   3.022   0.127  0.7252 -1.8933  0.5994
  834MOL0     O12490   6.466   3.110   0.069  0.0365  0.4215 -0.3372
  834MOL0     C12491   6.483   3.094  -0.075  0.2120  0.4430  0.4843
  834MOL0     C12492   6.560   2.965  -0.106 -1.0360 -0.7181 -1.0413
  834MOL0     C12493   6.699   2.950  -0.030 -0.5995 -0.2169  0.6858
  834MOL0     C12494   6.797   3.070  -0.042  0.7624  0.0682 -0.3196
  834MOL0     C12495   6.929   3.032   0.007  0.3880 -0.0903  0.0462
  834MOL0     C12496   7.042   3.130  -0.030  0.3097  0.4576 -1.0555
  834MOL0     C12497   7.170   3.075   0.042  0.6211  0.3801  0.6420
  834MOL0     C12498   7.228   2.945  -0.023 -0.8738  0.1945  0.0028
  834MOL0    Cl12499   7.253   2.938  -0.202 -0.3829  0.7442 -0.4153
  834MOL0     C12500   6.252   2.981   0.078 -0.4368  1.0254  0.0915
  834MOL0     C12501   6.170   2.872   0.123  0.1148 -1.1781  1.3347
  834MOL0     O12502   6.256   2.558   0.172  0.0456  0.0765 -0.3103
  834MOL0     C12503   6.027   2.375   0.226 -0.3734  0.1081 -1.0556
  834MOL0     C12504   5.934   2.282   0.275  0.6702  0.2831  0.8454
  834MOL0     N12505   5.495   1.951   1.022  0.0944  0.2476 -0.4234
  834MOL0     N12506   5.380   1.952   1.073 -0.0163  0.0164 -0.1854
  834MOL0     C12507   4.186   1.533   0.764  0.3622 -0.2744 -0.4127
  834MOL0     C12508   4.105   1.496   0.656  0.4250 -1.1328 -0.2753
  834MOL0     C12509   3.729   1.440   0.396  0.2133 -0.2563  0.4568
  834MOL0     C12510   3.651   1.547   0.356 -0.2941 -0.2751 -0.4822
  834MOL0     C12511   3.541   1.534   0.272 -0.9400  0.0413 -0.3173
  834MOL0     C12512   3.502   1.406   0.222  0.0545 -0.3183 -0.6672
  834MOL0     O12513   3.404   1.375   0.139 -0.3681  0.9646  0.1988
  834MOL0     C12514   3.406   1.464   0.028 -0.5094  1.1098 -0.1145
  834MOL0     C12515   3.284   1.425  -0.060 -0.2827  0.3295  0.0276
  834MOL0     C12516   3.157   1.467   0.011 -0.5297 -0.0787  0.0998
  834MOL0     C12517   3.026   1.457  -0.067  0.4389  0.0860 -0.2462
  834MOL0     C12518   2.954   1.584  -0.064 -1.0233  0.5253  1.0789
  834MOL0     C12519   2.897   1.692  -0.055 -0.1061 -0.4938  0.2147
  834MOL0     C12520   3.578   1.303   0.263 -0.4274  0.7745 -0.5060
  834MOL0     C12521   3.696   1.317   0.343  1.2354  0.7051  0.5155
  834MOL0     C12522   3.773   1.187   0.379 -1.0168 -0.6690 -0.5208
  834MOL0     H12523   3.965   1.793   0.562 -0.6919 -0.5872 -0.7966
  834MOL0     H12524   4.116   1.875   0.725 -3.2560  0.8339 -2.8296
  834MOL0     H12525   4.474   1.726   0.960 -0.1545  1.4905 -1.2034
  834MOL0     H12526   4.396   1.565   0.938 -0.4349  0.3124  1.1572
  834MOL0     H12527   4.458   1.745   0.724 -1.1182  0.0812  3.7036
  834MOL0     H12528   4.476   1.568   0.706  0.7076  1.4038 -1.8865
  834MOL0     H12529   4.706   1.624   0.704  2.1142  0.1063  1.3963
  834MOL0     H12530   4.687   1.605   0.875  1.4340 -1.1882 -0.5002
  834MOL0     H12531   4.675   1.870   0.724  1.2225 -1.5345 -1.3452
  834MOL0     H12532   4.638   1.860   0.896 -0.2823  0.8637 -0.4534
  834MOL0     H12533   4.878   1.738   0.904  1.0439 -1.7814 -1.9296
  834MOL0     H12534   4.894   1.815   0.738 -1.6884 -1.1231 -1.3350
  834MOL0     H12535   4.877   2.045   0.871 -0.7875 -0.2358  1.1296
  834MOL0     H12536   4.884   1.949   1.015 -1.6519 -2.0819 -0.4480
  834MOL0     H12537   5.092   2.001   0.802 -3.8469 -1.0556 -1.1666
  834MOL0     H12538   5.098   1.846   0.877  1.1580 -0.3586 -0.7172
  834MOL0     H12539   5.101   2.120   1.020 -1.4810 -0.7285 -1.2329
  834MOL0     H12540   5.113   1.954   1.098 -0.3850 -1.8968 -0.8412
  834MOL0     H12541   5.321   2.168   0.833  1.2682  1.6708  0.6212
  834MOL0     H12542   5.573   2.209   0.809  1.4876 -0.0738  1.8678
  834MOL0     H12543   5.682   2.091   0.887 -1.1190  1.2542  1.3086
  834MOL0     H12544   5.599   1.907   0.728  3.5720 -0.7701  0.9534
  834MOL0     H12545   5.544   2.045   0.627 -1.8638  0.5072  2.7297
  834MOL0     H12546   5.766   1.968   0.564 -2.5164 -0.5125 -0.2804
  834MOL0     H12547   5.830   2.034   0.715 -1.5523 -0.7612  0.8445
  834MOL0     H12548   5.842   2.236   0.641 -0.9648 -0.5029 -0.0850
  834MOL0     H12549   5.667   2.251   0.600 -0.7044  0.2542 -1.4787
  834MOL0     H12550   5.928   2.425   0.589 -0.5018  0.0340 -0.6596
  834MOL0     H12551   6.051   2.576   0.498 -0.1990  0.3664 -0.1611
  834MOL0     H12552   6.384   2.803   0.387  0.6348  0.7183  0.4230
  834MOL0     H12553   6.524   2.962   0.277  0.4510 -1.9580  0.9007
  834MOL0     H12554   6.387   3.084  -0.127 -0.5801 -1.6181  2.1620
  834MOL0     H12555   6.523   3.189  -0.110  2.2837 -1.0594 -1.4437
  834MOL0     H12556   6.497   2.880  -0.077 -0.4645 -0.7618  0.1273
  834MOL0     H12557   6.574   2.961  -0.215  0.1152  2.4467 -1.1136
  834MOL0     H12558   6.693   2.930   0.077  2.1471  1.1912  1.1651
  834MOL0     H12559   6.744   2.860  -0.072 -2.9202 -1.4152  0.5915
  834MOL0     H12560   6.753   3.156   0.009 -1.0859  0.0307 -1.7522
  834MOL0     H12561   6.802   3.091  -0.149  1.4980 -2.6739 -0.9006
  834MOL0     H12562   6.954   2.937  -0.042 -2.6295 -0.9513 -0.0205
  834MOL0     H12563   6.932   3.002   0.112  4.9228  0.6655  0.3536
  834MOL0     H12564   7.054   3.140  -0.138 -1.9135  2.3029 -1.2062
  834MOL0     H12565   7.020   3.227   0.015  2.9223  0.7789 -0.3615
  834MOL0     H12566   7.146   3.060   0.148 -0.0155  2.4150  0.8230
  834MOL0     H12567   7.242   3.158   0.040  0.9166  0.1290  0.8703
  834MOL0     H12568   7.329   2.933   0.017  0.4082  2.5168 -2.2571
  834MOL0     H12569   7.162   2.866   0.014 -0.4290  0.1177  0.6632
  834MOL0     H12570   6.214   3.046  -0.001 -0.4770 -2.9351 -3.4881
  834MOL0     H12571   6.072   2.855   0.079  1.0777  2.6806 -3.1338
  834MOL0     H12572   6.051   2.369   0.121  0.1867  0.8028 -0.9738
  834MOL0     H12573   5.900   2.210   0.201 -0.2152  0.0954  1.4151
  834MOL0     H12574   4.226   1.461   0.834  1.2734 -1.2897 -1.9194
  834MOL0     H12575   4.107   1.390   0.632  3.5530 -2.0476  3.1251
  834MOL0     H12576   3.669   1.642   0.405  3.6202 -2.0835  2.1841
  834MOL0     H12577   3.496   1.622   0.225  2.3488  3.1887  1.9273
  834MOL0     H12578   3.498   1.440  -0.027 -0.8085 -1.2421  0.3233
  834MOL0     H12579   3.394   1.570   0.052  0.6372  0.8450  1.8827
  834MOL0     H12580   3.278   1.316  -0.068 -1.7854 -0.1441  4.6770
  834MOL0     H12581   3.284   1.470  -0.160  3.0576 -0.8899 -0.6716
  834MOL0     H12582   3.168   1.571   0.046 -2.2791  0.6539 -1.3769
  834MOL0     H12583   3.150   1.406   0.102 -0.7948  2.0853  1.6153
  834MOL0     H12584   3.040   1.424  -0.170 -2.0333 -0.5569 -0.4536
  834MOL0     H12585   2.962   1.386  -0.013  0.7987 -0.6853 -0.8157
  834MOL0     H12586   2.842   1.784  -0.052  0.7199  0.3362 -3.6731
  834MOL0     H12587   3.553   1.203   0.228  1.8332 -0.4493  1.1045
  834MOL0     H12588   3.879   1.212   0.393 -0.4547 -3.5365  1.4111
  834MOL0     H12589   3.732   1.146   0.473  1.7189  0.8685  1.4948
  834MOL0     H12590   3.762   1.117   0.296 -1.5340 -2.8232  1.2469
  835MOL0     O12591  10.644   0.453  11.190  0.2273  0.0620 -0.4627
  835MOL0     C12592  10.634   0.396  11.294 -0.0544  0.2883 -0.5252
  835MOL0     O12593  10.722   0.293  11.337  0.2563  0.0449 -0.3760
  835MOL0     C12594  10.790   0.218  11.244  0.2483  0.4151 -0.9302
  835MOL0     C12595  10.738   0.117  11.166  0.9048 -0.0640 -0.1357
  835MOL0     C12596  10.820   0.057  11.070 -0.5796  1.2088  0.7409
  835MOL0     C12597  10.951   0.091  11.054 -0.1852  0.1051  0.4465
  835MOL0     O12598  11.014   0.049  10.941  0.0528  0.3833 -0.0357
  835MOL0     C12599  11.152   0.018  10.972 -0.1721  0.3983  0.2979
  835MOL0     C12600  11.214  -0.054  10.853  0.0455  0.0266 -0.5204
  835MOL0     C12601  11.365  -0.072  10.894 -0.3500 -0.1147  0.1386
  835MOL0     C12602  11.450  -0.137  10.791  0.3077 -0.1298  0.5646
  835MOL0     C12603  11.587  -0.202  10.824 -0.3496  0.6206 -0.5497
  835MOL0     C12604  11.625  -0.288  10.702 -0.0712 -0.1389 -0.0383
  835MOL0     C12605  11.769  -0.333  10.722 -0.3248  1.4065  0.1784
  835MOL0     C12606  11.817  -0.406  10.594  0.7733  0.8070  0.4925
  835MOL0     N12607  11.970  -0.400  10.582  0.0394 -0.5441  0.1751
  835MOL0     C12608  12.048  -0.291  10.605  0.3531  0.2155 -0.1514
  835MOL0     C12609  12.172  -0.325  10.571 -0.4119 -0.0394  0.4437
  835MOL0     C12610  12.283  -0.224  10.600  0.4924  0.0633  0.0555
  835MOL0     C12611  12.256  -0.079  10.551  0.0481 -0.5614  0.0859
  835MOL0     C12612  12.282  -0.065  10.399  0.5561  0.0966  0.0844
  835MOL0     C12613  12.293   0.077  10.369  0.1412  0.3757 -0.5149
  835MOL0     O12614  12.310   0.102  10.228  0.4315  0.0732  0.4736
  835MOL0     C12615  12.440   0.106  10.197 -0.3193 -0.2546 -0.5770
  835MOL0     C12616  12.502  -0.003  10.140 -0.0264 -0.1350  0.0509
  835MOL0     C12617  12.635  -0.002  10.104  0.5034  0.3388 -0.2380
  835MOL0     C12618  12.711   0.102  10.144 -1.2161  0.5536  0.4140
  835MOL0     C12619  12.865   0.100  10.126  0.6944  0.5646  0.2639
  835MOL0     O12620  12.930  -0.021  10.105 -0.0137 -0.3117  0.1213
  835MOL0     C12621  13.069  -0.015  10.069  0.3097 -0.2981  0.3002
  835MOL0     C12622  13.117   0.088   9.979  0.0076 -0.3019  0.2391
  835MOL0     C12623  13.243   0.090   9.931  1.0892  0.9111 -0.6587
  835MOL0     C12624  13.329  -0.008   9.971 -0.2349 -0.1461  0.3620
  835MOL0     O12625  13.447   0.010   9.906 -0.0610  0.2419 -0.0785
  835MOL0     C12626  13.564  -0.028   9.974 -1.0829  0.7955  1.1449
  835MOL0     C12627  13.651  -0.086   9.865  0.5910  0.4217 -0.3027
  835MOL0     C12628  13.781  -0.124   9.924 -0.3652  0.5790  0.0101
  835MOL0     C12629  13.879  -0.179   9.818  0.0511  0.5035 -1.1903
  835MOL0     C12630  14.022  -0.211   9.865 -0.1574 -0.3127  1.1095
  835MOL0     C12631  14.092  -0.088   9.941  0.0355 -0.2409 -0.5745
  835MOL0     C12632  14.241  -0.116   9.978  0.0810  0.3407  0.5245
  835MOL0     C12633  14.248  -0.237  10.068  0.2746 -0.0129  0.1563
  835MOL0    Cl12634  14.421  -0.263  10.112  0.1933  0.1358 -0.1378
  835MOL0     C12635  13.289  -0.101  10.067  0.1446  0.1370  0.2553
  835MOL0     C12636  13.158  -0.103  10.119 -0.1181 -0.2591  0.4325
  835MOL0     O12637  12.907   0.213  10.117 -0.1334  0.4627 -0.0513
  835MOL0     C12638  12.650   0.222  10.196 -0.4695  0.2232 -0.9260
  835MOL0     C12639  12.520   0.218  10.224  0.0288 -0.5727  0.4655
  835MOL0     N12640  12.173  -0.456  10.506 -0.0228 -0.0769 -0.2583
  835MOL0     N12641  12.052  -0.486  10.517 -0.3881 -0.2448 -0.1952
  835MOL0     C12642  10.998   0.205  11.129  0.7972 -0.6774 -0.0505
  835MOL0     C12643  10.923   0.255  11.230  0.2995 -0.4223  0.0533
  835MOL0     C12644  10.516   0.420  11.387  0.1866  0.0111  0.1594
  835MOL0     C12645  10.483   0.337  11.496 -0.4325  0.7261  0.1042
  835MOL0     C12646  10.388   0.367  11.588  0.3527  0.4370  0.4936
  835MOL0     C12647  10.311   0.481  11.579 -0.3549  0.0655 -0.1117
  835MOL0     O12648  10.214   0.516  11.666  0.1693  0.4715  0.1880
  835MOL0     C12649  10.126   0.410  11.720 -0.0483  0.0337 -0.3891
  835MOL0     C12650  10.046   0.467  11.826  0.3754 -0.0092 -0.8166
  835MOL0     C12651  10.119   0.463  11.966 -0.5017 -0.2326 -0.5669
  835MOL0     C12652  10.033   0.529  12.066 -0.2882 -0.0727 -1.0507
  835MOL0     C12653  10.014   0.680  12.049 -0.6201  0.4508  0.1395
  835MOL0     C12654  10.017   0.799  12.045  0.4828  0.0957 -0.2263
  835MOL0     C12655  10.337   0.572  11.469 -0.2701  0.2525 -0.4150
  835MOL0     C12656  10.437   0.540  11.377  0.4279  0.0182 -0.1111
  835MOL0     C12657  10.439   0.629  11.258  0.0789 -0.2428  0.1281
  835MOL0     H12658  10.631   0.097  11.165  0.7752  0.4789  1.1122
  835MOL0     H12659  10.784  -0.022  11.005  1.1655 -0.4318  1.6783
  835MOL0     H12660  11.208   0.110  10.989  1.7405 -0.4827 -0.9785
  835MOL0     H12661  11.160  -0.040  11.065  0.7758  1.4994  0.9290
  835MOL0     H12662  11.203  -0.005  10.756  0.6616 -0.6818 -0.9649
  835MOL0     H12663  11.170  -0.154  10.846 -0.0930 -0.2697  3.1084
  835MOL0     H12664  11.363  -0.136  10.983 -1.7780 -1.8494 -1.0692
  835MOL0     H12665  11.407   0.025  10.924  0.7231 -0.7360  0.7282
  835MOL0     H12666  11.397  -0.222  10.748  0.6506 -0.9120  1.6419
  835MOL0     H12667  11.468  -0.056  10.719  2.3621 -0.8511  0.1987
  835MOL0     H12668  11.667  -0.133  10.853 -0.9011  1.7612 -1.6703
  835MOL0     H12669  11.578  -0.269  10.910  0.6872 -1.9474 -2.3245
  835MOL0     H12670  11.564  -0.379  10.692 -1.9116  0.9123  1.1059
  835MOL0     H12671  11.608  -0.227  10.613 -0.5732 -0.1613  0.0385
  835MOL0     H12672  11.778  -0.404  10.805 -0.4005  0.1077 -0.9002
  835MOL0     H12673  11.832  -0.246  10.745  1.0844  0.2364  0.8870
  835MOL0     H12674  11.790  -0.512  10.589 -0.6111  1.1887 -1.8763
  835MOL0     H12675  11.783  -0.350  10.506  0.5419 -0.2939 -0.1442
  835MOL0     H12676  12.019  -0.204  10.662 -2.6170  0.1415 -1.3402
  835MOL0     H12677  12.316  -0.231  10.704 -1.3118  0.8576  0.7144
  835MOL0     H12678  12.363  -0.267  10.538 -2.7299 -1.7657 -3.1637
  835MOL0     H12679  12.154  -0.053  10.581  0.1976 -1.5391  1.5860
  835MOL0     H12680  12.320  -0.013  10.610  0.2427  0.2043 -0.9639
  835MOL0     H12681  12.195  -0.096  10.341  1.9955 -0.9677 -1.6096
  835MOL0     H12682  12.365  -0.124  10.359 -0.5204  1.3065 -4.5805
  835MOL0     H12683  12.367   0.111  10.442  0.3232 -4.0696  1.6524
  835MOL0     H12684  12.196   0.126  10.386 -0.0013  0.9979 -2.8521
  835MOL0     H12685  12.442  -0.089  10.113  0.2729 -0.6327  0.9574
  835MOL0     H12686  12.678  -0.086  10.050  2.1674  2.5561 -2.5576
  835MOL0     H12687  13.052   0.169   9.948  4.3467  3.1746 -0.8222
  835MOL0     H12688  13.286   0.164   9.865 -0.6986  1.8166 -0.8669
  835MOL0     H12689  13.614   0.058  10.019  1.5096 -1.0019  1.9686
  835MOL0     H12690  13.550  -0.108  10.047  0.5379 -0.3992  0.2348
  835MOL0     H12691  13.602  -0.166   9.810 -1.3186  0.2190  1.5815
  835MOL0     H12692  13.670   0.002   9.801 -1.2716  3.1671  2.6264
  835MOL0     H12693  13.828  -0.034   9.966  1.1276  1.7062 -3.5995
  835MOL0     H12694  13.764  -0.197  10.002 -0.9250 -0.9821 -1.5057
  835MOL0     H12695  13.891  -0.128   9.722 -0.9605  1.1530 -0.9893
  835MOL0     H12696  13.837  -0.279   9.799  1.2818 -0.4239  0.6531
  835MOL0     H12697  14.074  -0.238   9.773  0.0290  0.8000  0.8750
  835MOL0     H12698  14.018  -0.298   9.931 -2.2531  1.1574  3.0751
  835MOL0     H12699  14.084   0.001   9.878  1.6161 -0.4027 -1.0661
  835MOL0     H12700  14.047  -0.073  10.040 -1.7007 -0.9832 -1.2170
  835MOL0     H12701  14.294  -0.033  10.025  5.4831 -2.1551 -0.4367
  835MOL0     H12702  14.307  -0.133   9.892 -1.3089 -1.6403 -0.2364
  835MOL0     H12703  14.194  -0.223  10.162  2.0854 -0.5283  1.3283
  835MOL0     H12704  14.202  -0.324  10.021 -0.3051 -0.5995  1.7347
  835MOL0     H12705  13.365  -0.175  10.089 -0.1129 -0.3958 -0.5674
  835MOL0     H12706  13.135  -0.181  10.191  0.7665  0.5492  1.6389
  835MOL0     H12707  12.710   0.304  10.233  1.3924 -1.2186 -0.5919
  835MOL0     H12708  12.476   0.310  10.261  0.8152 -0.2541  0.6264
  835MOL0     H12709  11.096   0.248  11.113  0.0248  1.8879  1.3531
  835MOL0     H12710  10.975   0.335  11.280  0.8141 -1.5667  1.4117
  835MOL0     H12711  10.539   0.245  11.514 -1.5471  0.0442  0.1749
  835MOL0     H12712  10.412   0.314  11.680 -2.3082  0.3662  1.2206
  835MOL0     H12713  10.181   0.318  11.741  1.3964  0.1996 -3.0353
  835MOL0     H12714  10.064   0.377  11.636  0.1319 -0.6486 -0.2576
  835MOL0     H12715   9.948   0.419  11.830  0.5220 -0.2555  0.2047
  835MOL0     H12716  10.020   0.567  11.792  0.3045 -0.2000 -1.3290
  835MOL0     H12717  10.209   0.525  11.957 -1.2099  0.9178 -0.0497
  835MOL0     H12718  10.144   0.363  12.003  1.5459  0.8640  1.2544
  835MOL0     H12719   9.936   0.478  12.069  1.2095 -3.3340  3.1535
  835MOL0     H12720  10.083   0.517  12.163  0.4000 -4.0591 -1.7362
  835MOL0     H12721  10.007   0.906  12.050 -2.2384 -0.1335  1.8176
  835MOL0     H12722  10.286   0.667  11.477 -0.7839 -0.1147  1.0784
  835MOL0     H12723  10.427   0.579  11.161 -1.0858  0.0246  0.1258
  835MOL0     H12724  10.370   0.714  11.259  3.1720  2.5008 -1.2791
  835MOL0     H12725  10.536   0.678  11.271  1.5669 -3.3849  2.3637
  836MOL0     O12726   7.415   8.183   1.105 -0.5251  0.5932 -0.1746
  836MOL0     C12727   7.368   8.173   0.992 -0.0451  0.4925  1.0227
  836MOL0     O12728   7.416   8.230   0.881  0.0346 -0.2512 -0.2128
  836MOL0     C12729   7.546   8.276   0.876 -0.0654 -0.2524 -0.6191
  836MOL0     C12730   7.577   8.407   0.824 -0.1200 -0.0567 -0.3143
  836MOL0     C12731   7.700   8.461   0.816 -0.0994  0.6063 -0.9806
  836MOL0     C12732   7.810   8.380   0.852  0.1563 -0.9277 -0.4575
  836MOL0     O12733   7.940   8.429   0.823  0.5224  0.2683 -0.2561
  836MOL0     C12734   8.019   8.338   0.748 -0.3658 -0.0327  0.3373
  836MOL0     C12735   8.151   8.405   0.716 -0.6897 -0.9326 -0.7024
  836MOL0     C12736   8.228   8.439   0.846  0.1689  0.3572 -0.5588
  836MOL0     C12737   8.358   8.516   0.817  0.3739 -0.5384 -0.6720
  836MOL0     C12738   8.466   8.536   0.922 -0.6169 -0.7066 -0.0938
  836MOL0     C12739   8.392   8.586   1.047  0.5823  0.3765  0.0738
  836MOL0     C12740   8.481   8.637   1.160  0.0738  0.4902 -0.3722
  836MOL0     C12741   8.508   8.784   1.137  0.8172 -1.0347  0.0534
  836MOL0     N12742   8.608   8.846   1.230  0.4274  0.1715  0.1219
  836MOL0     C12743   8.734   8.818   1.246 -0.0188 -0.8103  0.8186
  836MOL0     C12744   8.764   8.864   1.370 -0.5173 -0.4474 -0.2695
  836MOL0     C12745   8.898   8.851   1.440 -0.1558 -0.3479 -0.2822
  836MOL0     C12746   8.939   8.980   1.510  1.3359 -0.4811 -0.4304
  836MOL0     C12747   8.929   9.117   1.438  0.1727 -0.1753  0.5652
  836MOL0     C12748   8.968   9.112   1.288  0.7812 -0.3023 -0.1446
  836MOL0     O12749   9.109   9.083   1.277 -0.2641 -0.1468  0.3102
  836MOL0     C12750   9.194   9.180   1.307 -0.9095 -0.7249 -0.5328
  836MOL0     C12751   9.327   9.147   1.286  0.1251  0.1485 -0.0949
  836MOL0     C12752   9.433   9.236   1.300 -0.1821 -0.3017  0.2544
  836MOL0     C12753   9.408   9.364   1.347 -0.0171  0.0251  0.1206
  836MOL0     C12754   9.515   9.461   1.389  0.7238  0.0885 -0.0357
  836MOL0     O12755   9.633   9.401   1.427  0.6177  0.3119  0.2682
  836MOL0     C12756   9.736   9.488   1.468 -0.4129  0.9992  0.3719
  836MOL0     C12757   9.812   9.451   1.584 -0.0345 -0.3696 -0.0767
  836MOL0     C12758   9.911   9.536   1.633 -0.3054 -0.8988  0.0069
  836MOL0     C12759   9.946   9.656   1.561  0.6736 -0.3522  0.5392
  836MOL0     O12760  10.051   9.731   1.611  0.0087  0.3592 -0.0811
  836MOL0     C12761  10.074   9.859   1.545 -0.0861  0.6575  0.5190
  836MOL0     C12762  10.178   9.950   1.608  0.0679 -0.1163 -0.0323
  836MOL0     C12763  10.312   9.891   1.627 -0.0070  0.3792 -0.7039
  836MOL0     C12764  10.388   9.975   1.732  0.2247  0.0840 -0.4997
  836MOL0     C12765  10.530   9.942   1.733 -0.9368  0.4653  0.3770
  836MOL0     C12766  10.618  10.019   1.835  0.1682  0.7325 -0.5624
  836MOL0     C12767  10.769  10.008   1.801 -0.4295  0.0235 -0.4404
  836MOL0     C12768  10.860  10.095   1.899 -0.7297 -0.6208 -0.2209
  836MOL0    Cl12769  10.854  10.272   1.844 -0.1091  0.3787  0.0379
  836MOL0     C12770   9.872   9.687   1.444 -0.8046  0.1047  0.0546
  836MOL0     C12771   9.772   9.598   1.393  0.3590  0.2703  0.5516
  836MOL0     O12772   9.485   9.583   1.397 -0.4618  0.6295 -0.1153
  836MOL0     C12773   9.271   9.396   1.372  0.2973 -1.0708 -0.2622
  836MOL0     C12774   9.174   9.308   1.349 -0.4318 -0.3561  0.0607
  836MOL0     N12775   8.648   8.932   1.417  0.1125 -0.1968  0.3919
  836MOL0     N12776   8.561   8.929   1.329 -0.3518  0.5856 -0.1674
  836MOL0     C12777   7.786   8.254   0.902 -0.5798  0.1428 -0.2748
  836MOL0     C12778   7.656   8.200   0.909 -0.0451 -0.0559 -1.0102
  836MOL0     C12779   7.234   8.105   0.982  0.5695 -0.1629 -0.2151
  836MOL0     C12780   7.181   8.104   0.853 -1.0228  0.7587 -0.5625
  836MOL0     C12781   7.054   8.058   0.833  0.0889 -0.3136 -0.7133
  836MOL0     C12782   6.979   7.996   0.923 -0.2421  0.3193  0.8334
  836MOL0     O12783   6.856   7.953   0.869  0.3497  0.4193 -0.2076
  836MOL0     C12784   6.759   7.898   0.963  0.6091  0.3419 -0.7302
  836MOL0     C12785   6.622   7.868   0.895  0.2303 -0.2548  0.1369
  836MOL0     C12786   6.637   7.754   0.795  0.6306  0.1827  0.1476
  836MOL0     C12787   6.586   7.625   0.859 -0.6187 -0.9345  0.3370
  836MOL0     C12788   6.568   7.524   0.755  0.0946 -0.4965 -0.3304
  836MOL0     C12789   6.562   7.438   0.672  0.1501 -0.1077  0.1937
  836MOL0     C12790   7.025   7.993   1.058 -1.7222 -0.2849  0.3997
  836MOL0     C12791   7.152   8.062   1.090  0.4664  0.7812 -0.0759
  836MOL0     C12792   7.193   8.072   1.246  0.0155 -0.2990  0.7405
  836MOL0     H12793   7.497   8.469   0.784  0.1147 -0.8824 -2.1434
  836MOL0     H12794   7.693   8.555   0.761 -1.2114 -0.4323 -2.7215
  836MOL0     H12795   8.053   8.246   0.797 -0.9089 -0.1616  0.4717
  836MOL0     H12796   7.960   8.316   0.659  0.4188 -2.3347  0.3202
  836MOL0     H12797   8.136   8.498   0.660  4.2016  1.9906  2.1510
  836MOL0     H12798   8.221   8.340   0.664 -0.8206 -1.5285 -0.1491
  836MOL0     H12799   8.244   8.344   0.898  0.4102  0.9542  0.4756
  836MOL0     H12800   8.158   8.499   0.906 -0.6951 -2.0794  1.0401
  836MOL0     H12801   8.402   8.498   0.718  3.8550  2.8566  0.0513
  836MOL0     H12802   8.323   8.619   0.803  1.2293 -0.0287  0.8388
  836MOL0     H12803   8.507   8.438   0.948 -2.0031 -1.5844 -1.0898
  836MOL0     H12804   8.543   8.607   0.890 -0.0083  0.7116  3.9725
  836MOL0     H12805   8.321   8.665   1.021 -0.0819  0.0924  0.9557
  836MOL0     H12806   8.334   8.502   1.087  3.7089 -1.3364  1.3468
  836MOL0     H12807   8.578   8.587   1.162  0.7253  1.7394  0.9901
  836MOL0     H12808   8.428   8.613   1.253 -1.8798  1.2007 -1.2464
  836MOL0     H12809   8.546   8.797   1.035  3.4145 -1.3483  0.9114
  836MOL0     H12810   8.415   8.839   1.151  1.4270 -0.1582  0.7758
  836MOL0     H12811   8.796   8.751   1.187  0.9883  1.8120 -1.3030
  836MOL0     H12812   8.892   8.765   1.508 -0.4377 -1.1894 -1.3589
  836MOL0     H12813   8.981   8.839   1.370  0.1938 -0.2542  0.1058
  836MOL0     H12814   8.872   8.992   1.596  2.3157  0.4304  0.2267
  836MOL0     H12815   9.034   8.951   1.554  1.0091 -4.2492 -1.8176
  836MOL0     H12816   8.977   9.199   1.491  1.4374  1.8483 -3.3220
  836MOL0     H12817   8.827   9.156   1.431  0.4714  0.3332 -1.5574
  836MOL0     H12818   8.933   9.208   1.248 -0.5452  0.7988  3.2930
  836MOL0     H12819   8.902   9.035   1.247  0.0671  0.5113 -0.5431
  836MOL0     H12820   9.330   9.044   1.251 -1.6526 -0.0045  0.0851
  836MOL0     H12821   9.534   9.197   1.295 -0.1591 -0.2993  0.6942
  836MOL0     H12822   9.780   9.367   1.644  0.8434  1.3085  2.9528
  836MOL0     H12823   9.965   9.524   1.727 -0.0742  2.0713  0.3601
  836MOL0     H12824  10.113   9.850   1.443 -1.2353  2.0867 -0.0850
  836MOL0     H12825   9.979   9.913   1.550 -0.9683 -0.7869  0.1426
  836MOL0     H12826  10.189  10.052   1.570  1.8464 -0.3668 -0.2745
  836MOL0     H12827  10.153   9.964   1.714  2.4344 -0.0336  0.5872
  836MOL0     H12828  10.308   9.790   1.669 -1.2801 -0.0338 -1.7405
  836MOL0     H12829  10.355   9.902   1.527 -2.0732  0.0586 -1.6780
  836MOL0     H12830  10.351   9.941   1.829 -2.3128  0.1981 -1.3329
  836MOL0     H12831  10.366  10.080   1.712  2.4384 -0.0023 -4.2028
  836MOL0     H12832  10.564   9.963   1.631 -1.4560  1.8444  0.4644
  836MOL0     H12833  10.547   9.835   1.751 -2.1045  0.0215 -0.9756
  836MOL0     H12834  10.596  10.125   1.825  3.0262  1.5162  0.4021
  836MOL0     H12835  10.598  10.006   1.941  3.1419 -3.2334 -0.2248
  836MOL0     H12836  10.800  10.035   1.700  0.4054  1.8471  0.2543
  836MOL0     H12837  10.791   9.901   1.806  1.4566  0.3677 -0.4859
  836MOL0     H12838  10.820  10.099   2.000 -2.2840  3.3978 -0.8202
  836MOL0     H12839  10.964  10.063   1.891  0.6303  3.5610 -2.3340
  836MOL0     H12840   9.885   9.783   1.394 -1.8448  2.3476  3.7336
  836MOL0     H12841   9.725   9.609   1.296  0.6091 -0.6582  0.3151
  836MOL0     H12842   9.242   9.495   1.405 -2.7123 -1.7335 -0.6702
  836MOL0     H12843   9.070   9.336   1.361 -0.1162  1.5283 -1.2071
  836MOL0     H12844   7.866   8.185   0.926 -1.4382 -0.0536  2.2857
  836MOL0     H12845   7.632   8.100   0.943  0.9516  0.5914  1.8583
  836MOL0     H12846   7.232   8.144   0.766  1.3264 -1.0118 -0.1273
  836MOL0     H12847   7.022   8.054   0.729 -0.4030 -3.6144 -0.5470
  836MOL0     H12848   6.749   7.958   1.054 -1.1376 -0.7901 -0.1252
  836MOL0     H12849   6.795   7.803   1.004  0.9301  0.5838 -0.4443
  836MOL0     H12850   6.595   7.959   0.841 -1.1014 -0.4294  0.4788
  836MOL0     H12851   6.546   7.846   0.970  1.1541 -0.9402  0.8969
  836MOL0     H12852   6.743   7.734   0.773  0.2772 -1.4613 -0.2386
  836MOL0     H12853   6.589   7.771   0.698  1.2216 -0.2534 -0.2361
  836MOL0     H12854   6.669   7.593   0.923  0.6842 -1.6843 -1.5912
  836MOL0     H12855   6.492   7.633   0.914 -0.1959  3.1670  0.7756
  836MOL0     H12856   6.558   7.358   0.602 -0.9349 -1.1960  1.4487
  836MOL0     H12857   6.971   7.942   1.137  0.8936 -3.8392  0.1562
  836MOL0     H12858   7.233   8.170   1.274  0.8244 -0.8679  1.6251
  836MOL0     H12859   7.123   8.028   1.317  0.8478  2.1232  3.2693
  836MOL0     H12860   7.280   8.005   1.250  1.2857  0.6042 -4.4165
  837MOL0     O12861  10.221   7.351   9.818  0.2003 -0.8447  0.2475
  837MOL0     C12862  10.336   7.315   9.806  0.5897 -0.1559  1.2922
  837MOL0     O12863  10.444   7.374   9.839 -0.1300 -0.1595  0.0082
  837MOL0     C12864  10.430   7.514   9.867 -0.4803 -0.6990 -0.6076
  837MOL0     C12865  10.358   7.603   9.789  0.2999 -0.7404  0.2064
  837MOL0     C12866  10.348   7.742   9.818 -0.5965 -0.1663  0.1865
  837MOL0     C12867  10.420   7.797   9.930  0.2661 -0.3830 -0.4531
  837MOL0     O12868  10.420   7.932   9.962 -0.6065  0.4324 -0.1937
  837MOL0     C12869  10.441   8.025   9.851 -0.0588  0.0368  0.1890
  837MOL0     C12870  10.580   8.010   9.781  0.2211 -0.3850 -0.2902
  837MOL0     C12871  10.679   8.073   9.880  0.8349 -0.6319  0.0072
  837MOL0     C12872  10.820   8.081   9.843 -0.6402  0.2872 -0.2284
  837MOL0     C12873  10.884   7.946   9.802 -0.8205 -0.0126  0.0980
  837MOL0     C12874  10.901   7.847   9.919  0.4627  0.1640 -0.0829
  837MOL0     C12875  10.925   7.703   9.874 -0.0974 -0.1636  0.1718
  837MOL0     C12876  11.073   7.663   9.846 -0.6134  0.5432  0.4312
  837MOL0     N12877  11.108   7.529   9.902 -0.8321  0.5201 -0.1186
  837MOL0     C12878  11.046   7.407   9.878  0.1693  0.0211 -0.8096
  837MOL0     C12879  11.102   7.312   9.958  0.5227 -0.1196  0.8756
  837MOL0     C12880  11.079   7.164   9.973  1.2429 -0.3688 -0.3796
  837MOL0     C12881  11.207   7.082   9.952  0.3912 -0.0687  0.2989
  837MOL0     C12882  11.174   6.930   9.941  0.4973 -0.3760 -0.0083
  837MOL0     C12883  11.171   6.860  10.078  0.9879 -0.1936  0.6872
  837MOL0     O12884  11.282   6.889  10.164  0.4131  0.3813  0.9033
  837MOL0     C12885  11.405   6.823  10.145  0.1699 -0.2821  0.4043
  837MOL0     C12886  11.429   6.718  10.055 -0.3891  0.4410  0.4155
  837MOL0     C12887  11.558   6.670  10.042 -1.0186  0.1157 -0.9391
  837MOL0     C12888  11.657   6.700  10.132 -0.0695 -0.2566  0.2456
  837MOL0     C12889  11.786   6.619  10.146  0.7162 -0.2900 -1.0070
  837MOL0     O12890  11.850   6.620  10.279 -0.0820  0.8799  0.6283
  837MOL0     C12891  11.963   6.541  10.293  0.0787 -0.4095 -0.0864
  837MOL0     C12892  12.069   6.608  10.358  0.3754  0.2338 -0.3290
  837MOL0     C12893  12.191   6.549  10.375 -0.2958 -0.2577  0.5208
  837MOL0     C12894  12.218   6.416  10.346  0.4654  0.2008 -0.0264
  837MOL0     O12895  12.337   6.347  10.358 -0.0548  0.2214 -0.1312
  837MOL0     C12896  12.445   6.420  10.406 -0.1451 -0.0915  0.0593
  837MOL0     C12897  12.578   6.339  10.395  0.2446 -0.3194 -0.1004
  837MOL0     C12898  12.706   6.431  10.410 -0.1220  0.3946  0.0370
  837MOL0     C12899  12.809   6.412  10.294 -0.4986 -0.1487  0.6850
  837MOL0     C12900  12.913   6.529  10.294  0.5486 -0.1794 -0.7008
  837MOL0     C12901  13.015   6.507  10.411  0.3011 -0.0110  0.4812
  837MOL0     C12902  13.114   6.394  10.384  0.3768  0.5344 -0.4933
  837MOL0     C12903  13.247   6.411  10.470  0.4750  0.5298 -0.2712
  837MOL0    Cl12904  13.373   6.513  10.416 -0.5862 -0.0080 -0.4145
  837MOL0     C12905  12.108   6.347  10.289  0.4126  0.1716  0.4439
  837MOL0     C12906  11.981   6.408  10.263  0.2481 -0.1272  0.3930
  837MOL0     O12907  11.813   6.542  10.052 -0.3649 -0.1610  0.3849
  837MOL0     C12908  11.630   6.806  10.222  0.3861  0.0123  0.8177
  837MOL0     C12909  11.507   6.864  10.224  0.0730  0.4024  0.6318
  837MOL0     N12910  11.195   7.373  10.029  0.2549  0.5018  0.1075
  837MOL0     N12911  11.194   7.503  10.003  0.2268  0.1462 -0.5049
  837MOL0     C12912  10.491   7.708  10.008 -0.6763  0.2090 -0.2035
  837MOL0     C12913  10.490   7.574   9.976 -0.8009  1.3650 -0.1679
  837MOL0     C12914  10.348   7.168   9.773 -0.8120 -0.7183 -0.4373
  837MOL0     C12915  10.390   7.089   9.878  0.1559  0.5393  0.1534
  837MOL0     C12916  10.394   6.958   9.855  0.0259  1.1469  0.0523
  837MOL0     C12917  10.355   6.893   9.736 -0.1639  0.0715  0.7760
  837MOL0     O12918  10.373   6.757   9.719 -0.3528  1.2412 -0.3132
  837MOL0     C12919  10.361   6.661   9.822  0.1240 -0.2768  0.0804
  837MOL0     C12920  10.222   6.629   9.863  0.3477 -0.6027 -0.9226
  837MOL0     C12921  10.213   6.516   9.968 -0.5410  0.3740  0.1044
  837MOL0     C12922  10.067   6.480   9.971  0.0014  0.9663  0.3972
  837MOL0     C12923  10.041   6.354  10.037  1.0287  0.4745 -0.1216
  837MOL0     C12924  10.025   6.254  10.095  0.2711 -0.3591  0.9976
  837MOL0     C12925  10.311   6.972   9.625 -0.0500  0.3598 -1.1015
  837MOL0     C12926  10.317   7.111   9.647  0.8732 -0.8736 -0.1281
  837MOL0     C12927  10.294   7.198   9.527 -0.2411 -0.4813 -0.3676
  837MOL0     H12928  10.299   7.575   9.702 -1.7954  0.2071  1.2352
  837MOL0     H12929  10.288   7.800   9.748  0.1427  0.6946  0.2462
  837MOL0     H12930  10.371   8.001   9.770  1.0959 -1.4343 -0.4099
  837MOL0     H12931  10.418   8.126   9.887 -2.1581  0.9492 -3.1977
  837MOL0     H12932  10.596   8.063   9.687  2.7997  1.6719  1.1452
  837MOL0     H12933  10.594   7.903   9.762 -1.0209 -0.5649 -0.2635
  837MOL0     H12934  10.670   8.031   9.981  0.8431  2.5631  1.4617
  837MOL0     H12935  10.650   8.178   9.893  1.9544 -0.2992  0.0014
  837MOL0     H12936  10.837   8.154   9.764 -1.1546 -1.2946 -1.8677
  837MOL0     H12937  10.878   8.112   9.931 -0.3239 -0.5405 -0.1259
  837MOL0     H12938  10.827   7.901   9.721 -2.1473 -1.4745  1.7626
  837MOL0     H12939  10.988   7.955   9.768 -0.1607 -1.0815  1.6804
  837MOL0     H12940  10.970   7.883   9.996 -0.3197 -0.9899  1.2131
  837MOL0     H12941  10.808   7.839   9.977  2.0461 -0.4644  2.5019
  837MOL0     H12942  10.863   7.688   9.786 -3.5697  0.3882  2.3266
  837MOL0     H12943  10.892   7.632   9.951 -4.2996  0.8281 -0.5078
  837MOL0     H12944  11.088   7.675   9.739 -1.4871 -0.0351  0.2315
  837MOL0     H12945  11.150   7.732   9.883  0.7393 -0.8478  0.3258
  837MOL0     H12946  10.967   7.381   9.808  0.1619 -1.0500 -0.4254
  837MOL0     H12947  11.022   7.140  10.063 -0.8133 -0.2722 -1.5807
  837MOL0     H12948  11.006   7.135   9.897 -0.8400 -1.7754  2.0125
  837MOL0     H12949  11.247   7.107   9.854  1.0330  0.9606  0.8004
  837MOL0     H12950  11.294   7.102  10.016 -0.6419 -0.5216  1.9045
  837MOL0     H12951  11.257   6.886   9.885  0.5554 -0.3549  0.0616
  837MOL0     H12952  11.078   6.921   9.888  2.0748 -0.2868 -3.0901
  837MOL0     H12953  11.152   6.753  10.068 -0.5791 -0.0561  1.8827
  837MOL0     H12954  11.083   6.902  10.127 -1.4653 -2.2896 -1.6545
  837MOL0     H12955  11.359   6.679   9.982  1.2868 -1.2626 -0.3658
  837MOL0     H12956  11.567   6.598   9.961 -0.7411  1.1400 -1.8420
  837MOL0     H12957  12.040   6.705  10.398 -0.2263 -0.0875  0.0335
  837MOL0     H12958  12.272   6.613  10.407  0.5304 -1.1324  0.2228
  837MOL0     H12959  12.444   6.517  10.356  0.5346 -0.1335 -0.0388
  837MOL0     H12960  12.424   6.436  10.512 -1.4941  2.8060 -0.5493
  837MOL0     H12961  12.581   6.256  10.466 -0.8140 -1.0556 -0.9073
  837MOL0     H12962  12.572   6.300  10.294 -1.3478  0.2323 -0.2399
  837MOL0     H12963  12.666   6.533  10.410 -0.7622  0.1525  0.6335
  837MOL0     H12964  12.755   6.406  10.504 -1.2491 -0.6670  0.3764
  837MOL0     H12965  12.754   6.426  10.201  0.1034  1.9871  0.6200
  837MOL0     H12966  12.870   6.322  10.303  0.5925  0.3321 -1.4282
  837MOL0     H12967  12.864   6.627  10.300  0.9706  0.3263 -3.6549
  837MOL0     H12968  12.959   6.530  10.195 -1.7598 -0.0009 -1.8442
  837MOL0     H12969  13.071   6.601  10.414 -2.7612  1.9267  2.1160
  837MOL0     H12970  12.964   6.499  10.508 -0.5785 -0.0966  0.0246
  837MOL0     H12971  13.149   6.400  10.281  2.6258  0.6119  0.2204
  837MOL0     H12972  13.074   6.294  10.408 -1.7995  1.7812  1.5037
  837MOL0     H12973  13.219   6.445  10.570 -0.0801 -1.1675  0.1746
  837MOL0     H12974  13.289   6.311  10.479  2.6858  1.2744 -1.6283
  837MOL0     H12975  12.119   6.245  10.253  1.1052  0.6302 -0.7101
  837MOL0     H12976  11.898   6.346  10.230  0.5355 -1.2433  1.6466
  837MOL0     H12977  11.709   6.846  10.284  1.4985  2.0695 -1.7486
  837MOL0     H12978  11.486   6.948  10.289 -3.7914 -0.8311  1.2830
  837MOL0     H12979  10.532   7.729  10.106 -1.7879 -1.5379  0.6805
  837MOL0     H12980  10.542   7.513  10.048 -3.5927 -4.2076 -2.2478
  837MOL0     H12981  10.434   7.130   9.968 -0.5680  3.0314 -0.5484
  837MOL0     H12982  10.438   6.895   9.932  1.8957 -0.7312 -2.4136
  837MOL0     H12983  10.410   6.699   9.912 -1.7563  0.7090  0.7420
  837MOL0     H12984  10.408   6.566   9.796  0.2627 -1.0749  2.9281
  837MOL0     H12985  10.162   6.594   9.778 -0.1946 -3.3613  0.4667
  837MOL0     H12986  10.175   6.715   9.912  0.5322 -0.5754 -0.7939
  837MOL0     H12987  10.237   6.555  10.068 -2.4896  0.4449  0.5789
  837MOL0     H12988  10.287   6.440   9.943  2.3993  2.7317  0.9817
  837MOL0     H12989  10.004   6.557  10.016  2.1758  1.9116  2.0143
  837MOL0     H12990  10.045   6.447   9.869  1.7274 -2.4028  0.9873
  837MOL0     H12991  10.028   6.152  10.129  0.9232 -1.3057 -1.6615
  837MOL0     H12992  10.286   6.925   9.530  1.4356  0.6949 -1.6781
  837MOL0     H12993  10.203   7.170   9.473 -1.1307  2.4645 -0.6033
  837MOL0     H12994  10.294   7.303   9.557  0.1003 -1.1297  2.1570
  837MOL0     H12995  10.382   7.181   9.463  0.9022  0.9342  0.7696
  838MOL0     O12996   1.550  10.061   2.350  0.1112  0.2722 -0.1013
  838MOL0     C12997   1.450  10.055   2.276 -0.9005  0.0019  0.2327
  838MOL0     O12998   1.446  10.065   2.144 -0.3024 -0.0616  0.1659
  838MOL0     C12999   1.558  10.069   2.071 -0.1569  0.5344  1.1784
  838MOL0     C13000   1.687  10.102   2.114 -0.5477 -0.3409 -1.3478
  838MOL0     C13001   1.794  10.110   2.029  0.0142 -0.4255 -0.4132
  838MOL0     C13002   1.774  10.094   1.884  0.1826 -0.5654 -1.0196
  838MOL0     O13003   1.892  10.101   1.816  0.5462 -0.1482  0.1110
  838MOL0     C13004   1.880  10.098   1.670  1.8238  0.2590 -0.7094
  838MOL0     C13005   2.019  10.071   1.617  0.6666  0.5027 -1.4700
  838MOL0     C13006   2.127  10.182   1.648 -0.7312  0.8088  0.0894
  838MOL0     C13007   2.261  10.124   1.611 -0.2674 -0.2469  1.1462
  838MOL0     C13008   2.366  10.227   1.625 -0.3535  0.1320 -0.0036
  838MOL0     C13009   2.350  10.367   1.546 -0.0724  1.0990 -0.1558
  838MOL0     C13010   2.303  10.362   1.395 -0.5719  0.3210 -0.6202
  838MOL0     C13011   2.308  10.502   1.335  0.0268  0.3151 -1.1468
  838MOL0     N13012   2.447  10.534   1.294 -0.3557 -0.2254  1.1330
  838MOL0     C13013   2.530  10.460   1.212  0.5935 -0.1635  0.4824
  838MOL0     C13014   2.638  10.538   1.196  0.3475  1.0118 -0.4225
  838MOL0     C13015   2.761  10.498   1.115 -0.0452  0.5172  0.0183
  838MOL0     C13016   2.886  10.483   1.201  0.3480 -0.5010  0.1901
  838MOL0     C13017   2.976  10.605   1.229  0.1278 -0.8176 -0.1880
  838MOL0     C13018   3.118  10.562   1.258  0.7926  0.0409  0.4647
  838MOL0     O13019   3.167  10.480   1.147 -0.1873 -0.2736 -0.1880
  838MOL0     C13020   3.249  10.377   1.172 -0.2473  0.1644 -0.2291
  838MOL0     C13021   3.280  10.286   1.069  0.9007  0.2154 -0.5304
  838MOL0     C13022   3.369  10.180   1.087 -0.6820  0.3516 -0.0926
  838MOL0     C13023   3.432  10.150   1.207  0.0341  0.8717 -0.4743
  838MOL0     C13024   3.530  10.038   1.214 -0.6786 -0.1693  0.3468
  838MOL0     O13025   3.588  10.017   1.337 -0.0318 -0.0264  0.2825
  838MOL0     C13026   3.679   9.920   1.337 -0.7116 -0.5489  0.6081
  838MOL0     C13027   3.646   9.805   1.404  0.1508  0.7307  0.7869
  838MOL0     C13028   3.746   9.702   1.402 -0.5006  0.3565 -0.0148
  838MOL0     C13029   3.873   9.705   1.337  0.9082 -0.3359 -1.4540
  838MOL0     O13030   3.949   9.593   1.348  0.2832  0.1222  0.3108
  838MOL0     C13031   4.082   9.616   1.296  0.2390  0.8520  0.0857
  838MOL0     C13032   4.170   9.489   1.311  1.0885  0.1970 -0.3496
  838MOL0     C13033   4.314   9.515   1.338 -0.3898 -0.2072  0.3207
  838MOL0     C13034   4.386   9.601   1.243  0.9515  0.3552  0.1168
  838MOL0     C13035   4.531   9.587   1.303 -0.5387 -0.5655 -0.1447
  838MOL0     C13036   4.631   9.649   1.197  0.8911 -0.4197  0.1622
  838MOL0     C13037   4.615   9.803   1.191  0.5533 -0.5277 -0.4362
  838MOL0     C13038   4.703   9.882   1.098 -1.3124  0.7990  0.6403
  838MOL0    Cl13039   4.871   9.887   1.147 -0.4895  0.2217  0.5982
  838MOL0     C13040   3.910   9.828   1.279  0.2921 -0.7375 -0.1646
  838MOL0     C13041   3.815   9.937   1.285 -0.4288 -0.2533  0.3725
  838MOL0     O13042   3.563   9.976   1.109  0.5225  0.2015 -0.5738
  838MOL0     C13043   3.382  10.216   1.314  0.5947 -1.0891  0.2195
  838MOL0     C13044   3.294  10.329   1.300 -0.2038 -1.1085 -0.0204
  838MOL0     N13045   2.620  10.650   1.266  0.1395 -0.8000  0.2494
  838MOL0     N13046   2.515  10.647   1.330  1.3739  0.1417 -0.5346
  838MOL0     C13047   1.647  10.057   1.835 -0.4596  0.5985  0.0978
  838MOL0     C13048   1.541  10.053   1.932 -0.7955  1.0075  0.7216
  838MOL0     C13049   1.318  10.024   2.334 -0.0371  0.1778  0.2389
  838MOL0     C13050   1.291  10.076   2.462  0.3921  0.1423 -0.0910
  838MOL0     C13051   1.166  10.047   2.517 -0.5296 -0.0343  0.2069
  838MOL0     C13052   1.071   9.961   2.461 -0.0036  0.0351  0.1567
  838MOL0     O13053   0.953   9.955   2.528  0.0996  0.5092 -0.2710
  838MOL0     C13054   0.883   9.833   2.525  0.4758 -0.2214  1.2062
  838MOL0     C13055   0.733   9.845   2.579  0.0769 -0.1667  0.0162
  838MOL0     C13056   0.640   9.897   2.469  0.9697  1.0515  0.4439
  838MOL0     C13057   0.498   9.840   2.495 -0.2244  0.3780 -0.4734
  838MOL0     C13058   0.421   9.870   2.377  0.5411 -0.9757 -0.5295
  838MOL0     C13059   0.362   9.884   2.267  0.2459  0.1847 -0.6229
  838MOL0     C13060   1.098   9.905   2.337 -0.0903  0.3395 -0.8985
  838MOL0     C13061   1.221   9.932   2.274  0.2970  0.0155  0.5410
  838MOL0     C13062   1.235   9.871   2.133  0.2916 -0.0669  0.6431
  838MOL0     H13063   1.720  10.125   2.215  0.1543 -2.9462 -0.9322
  838MOL0     H13064   1.890  10.147   2.062 -0.3114  0.7089 -0.6912
  838MOL0     H13065   1.803  10.032   1.630 -0.4777  1.7218  1.0910
  838MOL0     H13066   1.852  10.198   1.636  0.8616  0.3378  0.2621
  838MOL0     H13067   2.007  10.072   1.508  1.7783 -1.3048 -1.6386
  838MOL0     H13068   2.039   9.972   1.658 -2.1369  0.1816 -0.6477
  838MOL0     H13069   2.135  10.197   1.756 -0.5338 -0.4251  0.2631
  838MOL0     H13070   2.110  10.276   1.595 -2.4984  1.1531  1.1682
  838MOL0     H13071   2.286  10.036   1.670  2.9192 -0.3828 -0.2001
  838MOL0     H13072   2.245  10.101   1.505 -0.8750  0.1025  1.1554
  838MOL0     H13073   2.393  10.247   1.729 -0.5377 -0.2342  0.1154
  838MOL0     H13074   2.449  10.186   1.568  0.3001  0.3066  0.8097
  838MOL0     H13075   2.283  10.430   1.605  0.5372  0.5917  1.0971
  838MOL0     H13076   2.451  10.409   1.546  0.2477  0.3320 -0.2188
  838MOL0     H13077   2.202  10.321   1.391  0.1291 -2.0972  2.3641
  838MOL0     H13078   2.368  10.298   1.334 -0.6355 -0.4477  0.0902
  838MOL0     H13079   2.235  10.514   1.254 -3.3017  1.7537  1.7654
  838MOL0     H13080   2.283  10.577   1.411  0.8614  1.0541 -1.5764
  838MOL0     H13081   2.498  10.362   1.179  1.2192  0.2197 -1.3877
  838MOL0     H13082   2.732  10.414   1.051 -2.5398  0.8209  0.6591
  838MOL0     H13083   2.782  10.572   1.038  1.9827 -1.8323 -1.8425
  838MOL0     H13084   2.876  10.430   1.297  3.9375 -0.6621  0.6093
  838MOL0     H13085   2.945  10.412   1.141 -1.5356 -2.2441  0.2717
  838MOL0     H13086   2.933  10.640   1.323  0.5860  1.3766 -0.7186
  838MOL0     H13087   2.949  10.689   1.163 -0.7031  0.4424  1.6757
  838MOL0     H13088   3.121  10.506   1.352  0.6640 -0.9347 -0.0976
  838MOL0     H13089   3.167  10.659   1.268  0.6954  0.1810 -0.3522
  838MOL0     H13090   3.252  10.304   0.966 -0.2080  0.1953 -0.2447
  838MOL0     H13091   3.389  10.132   0.991 -1.0823 -0.8029  0.3821
  838MOL0     H13092   3.555   9.793   1.462 -0.2208  0.9938  0.2686
  838MOL0     H13093   3.720   9.607   1.445 -0.7757  0.2730 -0.3610
  838MOL0     H13094   4.069   9.627   1.188  2.3653  1.3942 -0.1601
  838MOL0     H13095   4.129   9.703   1.344  2.6416 -0.9362  1.2130
  838MOL0     H13096   4.133   9.433   1.397 -1.8016  1.8893 -0.3430
  838MOL0     H13097   4.160   9.431   1.219 -0.9733 -2.2764  1.2935
  838MOL0     H13098   4.329   9.557   1.438  2.1876 -2.0385  0.8045
  838MOL0     H13099   4.362   9.418   1.352  0.9094  0.4977  0.8340
  838MOL0     H13100   4.340   9.700   1.241  1.2216  0.5988  2.6538
  838MOL0     H13101   4.388   9.563   1.140 -2.3158  1.4536 -0.4837
  838MOL0     H13102   4.553   9.482   1.322  1.5976 -0.3779 -1.3210
  838MOL0     H13103   4.545   9.637   1.399  3.0930  0.5712 -1.0936
  838MOL0     H13104   4.733   9.630   1.232  0.8139 -0.6636  0.2549
  838MOL0     H13105   4.614   9.594   1.104  1.1194 -0.8615  0.3797
  838MOL0     H13106   4.629   9.843   1.292  0.6171  0.0971 -0.6884
  838MOL0     H13107   4.512   9.822   1.161 -0.6121 -1.6394  2.4896
  838MOL0     H13108   4.697   9.853   0.992 -2.1821 -0.9416  1.1252
  838MOL0     H13109   4.668   9.985   1.093  1.5183  1.8217 -2.7533
  838MOL0     H13110   4.004   9.848   1.230 -0.9041 -0.9971 -2.7388
  838MOL0     H13111   3.843  10.024   1.226 -0.3342  0.3525  1.2820
  838MOL0     H13112   3.425  10.192   1.411  0.9228 -2.2031 -0.1832
  838MOL0     H13113   3.273  10.379   1.394  3.3608  0.7838 -0.0865
  838MOL0     H13114   1.625  10.020   1.735  0.8892 -1.6865  0.5658
  838MOL0     H13115   1.440  10.028   1.903 -0.4051  1.1955 -0.9074
  838MOL0     H13116   1.367  10.133   2.514  1.3201  0.9124 -2.2069
  838MOL0     H13117   1.146  10.089   2.615 -1.3887 -1.9156  0.8691
  838MOL0     H13118   0.928   9.755   2.586 -0.3036 -1.1049  0.6675
  838MOL0     H13119   0.872   9.797   2.422 -2.6544  1.5347  0.7876
  838MOL0     H13120   0.740   9.929   2.649  1.7093  0.5512 -0.9540
  838MOL0     H13121   0.703   9.751   2.627 -2.2824  0.1140 -0.8029
  838MOL0     H13122   0.677   9.862   2.372  2.1558  0.2444  1.1574
  838MOL0     H13123   0.635  10.006   2.467 -0.8210  1.0353  1.8847
  838MOL0     H13124   0.504   9.732   2.505  3.7211  0.2775 -2.0534
  838MOL0     H13125   0.460   9.892   2.584  0.6997  1.8765 -0.9140
  838MOL0     H13126   0.308   9.892   2.175  2.1865 -0.4106 -1.8813
  838MOL0     H13127   1.024   9.842   2.290 -0.5259  0.1748 -0.0026
  838MOL0     H13128   1.181   9.942   2.070 -1.3220 -1.6489  0.1763
  838MOL0     H13129   1.341   9.856   2.109  1.0120  1.7882  2.3391
  838MOL0     H13130   1.183   9.776   2.118  2.6745 -1.3396 -0.1136
  839MOL0     O13131   3.181   8.326   6.310 -0.8619 -0.4535 -0.3535
  839MOL0     C13132   3.141   8.342   6.424 -0.7203 -0.1822 -0.0451
  839MOL0     O13133   3.044   8.434   6.453 -0.0806 -0.1467 -0.4081
  839MOL0     C13134   2.980   8.498   6.352  0.6951  0.2671  0.3129
  839MOL0     C13135   2.870   8.435   6.304  0.6065 -0.1303  0.7494
  839MOL0     C13136   2.801   8.478   6.189 -0.6594 -0.4385  0.3737
  839MOL0     C13137   2.837   8.601   6.129 -0.4474  0.5165  0.4025
  839MOL0     O13138   2.769   8.650   6.015 -0.0397  0.8457  1.1083
  839MOL0     C13139   2.657   8.573   5.964 -0.2292 -0.5904 -0.4708
  839MOL0     C13140   2.700   8.462   5.873  0.7276  0.1162  0.3714
  839MOL0     C13141   2.727   8.504   5.726  1.3882  1.0604 -0.2815
  839MOL0     C13142   2.866   8.556   5.695  0.4714 -0.3096 -0.2520
  839MOL0     C13143   2.880   8.590   5.539 -0.1927 -0.3723 -0.4959
  839MOL0     C13144   2.767   8.689   5.484 -0.5145 -0.3942  0.4244
  839MOL0     C13145   2.799   8.722   5.335  0.7156 -0.0893  0.0671
  839MOL0     C13146   2.669   8.741   5.249  0.3038  0.5611  0.6477
  839MOL0     N13147   2.706   8.734   5.102  0.7687  0.1456  0.4003
  839MOL0     C13148   2.807   8.811   5.046  0.4924 -0.4645 -0.3581
  839MOL0     C13149   2.789   8.814   4.913 -0.0262 -0.2822  0.3590
  839MOL0     C13150   2.857   8.895   4.802 -0.4197  0.1286  0.7555
  839MOL0     C13151   3.016   8.896   4.805 -0.3471 -0.1669  1.1197
  839MOL0     C13152   3.073   8.979   4.686  0.0952  0.5953  1.0389
  839MOL0     C13153   3.224   9.009   4.720  1.8473 -0.2518 -0.4804
  839MOL0     O13154   3.302   8.892   4.738  1.1726  0.3592 -0.0051
  839MOL0     C13155   3.439   8.898   4.709  0.1177 -0.0756 -0.3047
  839MOL0     C13156   3.527   8.848   4.807 -0.1946 -0.8735  0.6342
  839MOL0     C13157   3.671   8.850   4.788  0.2430 -0.1807  0.4786
  839MOL0     C13158   3.723   8.893   4.669  1.0199 -0.5312 -0.3259
  839MOL0     C13159   3.864   8.860   4.645  0.1127 -0.1864 -0.0050
  839MOL0     O13160   3.913   8.747   4.705 -0.4832 -0.3775  0.5055
  839MOL0     C13161   4.039   8.708   4.673  0.2378  0.3607  0.1024
  839MOL0     C13162   4.116   8.679   4.780 -0.6546 -0.0795  0.1785
  839MOL0     C13163   4.251   8.644   4.757 -0.2771  0.8113 -1.0771
  839MOL0     C13164   4.309   8.642   4.630 -0.5079  0.0529  0.3406
  839MOL0     O13165   4.437   8.604   4.618  0.7053  0.1901 -0.3022
  839MOL0     C13166   4.490   8.521   4.513 -0.3106  0.1954 -0.0182
  839MOL0     C13167   4.627   8.578   4.482 -0.9322  0.0987 -0.4943
  839MOL0     C13168   4.635   8.717   4.421  0.0845  0.2543  1.0067
  839MOL0     C13169   4.784   8.758   4.393 -0.0093 -0.3122 -0.2101
  839MOL0     C13170   4.855   8.699   4.272 -0.4938  0.8197  0.6325
  839MOL0     C13171   4.994   8.752   4.256 -0.3963 -0.2628 -0.4746
  839MOL0     C13172   5.002   8.904   4.233 -0.1242  0.0718 -0.1239
  839MOL0     C13173   5.134   8.937   4.161  0.4714  0.0253 -0.0815
  839MOL0    Cl13174   5.109   8.880   3.997  0.6029  0.1279  0.1382
  839MOL0     C13175   4.218   8.662   4.528  0.2808 -0.6855 -0.4552
  839MOL0     C13176   4.085   8.697   4.550 -0.1751 -0.2801 -0.3606
  839MOL0     O13177   3.922   8.942   4.568 -0.2985  1.1697 -0.0213
  839MOL0     C13178   3.633   8.944   4.574 -0.3739 -0.9818  0.5825
  839MOL0     C13179   3.496   8.948   4.589 -0.6106 -0.3589  0.2940
  839MOL0     N13180   2.681   8.732   4.886  0.3142  0.5028  0.3269
  839MOL0     N13181   2.626   8.687   4.996 -0.2192 -0.0708 -0.1311
  839MOL0     C13182   2.946   8.668   6.173 -0.0469  0.5548 -0.6404
  839MOL0     C13183   3.021   8.616   6.280  0.4220  0.6299 -0.4321
  839MOL0     C13184   3.218   8.278   6.530  0.0584 -0.2561 -0.0744
  839MOL0     C13185   3.183   8.315   6.659 -0.3314  0.1290  1.2077
  839MOL0     C13186   3.250   8.282   6.781 -1.0244  0.7539  0.2164
  839MOL0     C13187   3.367   8.200   6.765  0.3864 -0.2154  0.3649
  839MOL0     O13188   3.453   8.172   6.869  0.2056 -0.1467  0.0777
  839MOL0     C13189   3.445   8.269   6.975  0.1535  1.1314  0.0676
  839MOL0     C13190   3.583   8.273   7.052  0.6728  0.5425  0.3843
  839MOL0     C13191   3.625   8.141   7.116 -0.8333 -1.3111 -0.1045
  839MOL0     C13192   3.766   8.164   7.170  0.1009 -0.3145  0.1264
  839MOL0     C13193   3.866   8.168   7.063  0.2334 -0.3488 -0.5125
  839MOL0     C13194   3.966   8.162   6.992 -0.9151  0.0303  0.5668
  839MOL0     C13195   3.404   8.151   6.636  0.5509 -0.0021  0.2310
  839MOL0     C13196   3.330   8.197   6.524 -0.3004  0.8103  0.5494
  839MOL0     C13197   3.400   8.135   6.398 -0.0382  0.0386  0.1345
  839MOL0     H13198   2.826   8.347   6.349  0.2531 -0.5662 -0.4148
  839MOL0     H13199   2.720   8.414   6.155  0.0292 -3.3301  3.5381
  839MOL0     H13200   2.596   8.529   6.043 -2.0003 -1.2864 -2.1525
  839MOL0     H13201   2.585   8.636   5.910 -1.2666  0.2875  1.8270
  839MOL0     H13202   2.620   8.388   5.864 -0.2392  1.1412  0.2939
  839MOL0     H13203   2.785   8.414   5.921  2.4291  1.5054 -1.1119
  839MOL0     H13204   2.661   8.589   5.707 -0.0448  0.3173  1.1746
  839MOL0     H13205   2.700   8.415   5.668  0.9351  0.4067  0.8916
  839MOL0     H13206   2.870   8.648   5.753  0.8642 -0.1331 -0.5479
  839MOL0     H13207   2.943   8.490   5.737 -0.4656  0.0484  2.1415
  839MOL0     H13208   2.983   8.624   5.532 -1.3246  3.1905 -2.8452
  839MOL0     H13209   2.872   8.499   5.480 -0.9234  1.4828 -3.4862
  839MOL0     H13210   2.666   8.651   5.502 -1.8703  2.5354 -0.3642
  839MOL0     H13211   2.777   8.788   5.530  1.8324 -1.0377  1.4307
  839MOL0     H13212   2.863   8.641   5.298  3.3222  2.2016 -0.8160
  839MOL0     H13213   2.852   8.817   5.329 -2.7688  2.1557  1.7754
  839MOL0     H13214   2.593   8.665   5.269 -0.1802  0.8304 -0.1119
  839MOL0     H13215   2.618   8.833   5.277 -1.9061 -0.1292 -0.8995
  839MOL0     H13216   2.866   8.877   5.109 -1.2707 -0.5376  1.5129
  839MOL0     H13217   2.809   8.872   4.707  0.8488 -0.7692  0.2998
  839MOL0     H13218   2.822   8.997   4.821 -3.0918 -0.9004  1.7954
  839MOL0     H13219   3.045   8.941   4.900  1.0382  0.0990  0.5865
  839MOL0     H13220   3.047   8.792   4.795 -0.2403 -0.4303  3.5144
  839MOL0     H13221   3.018   9.070   4.662 -0.6650 -0.5928 -2.1632
  839MOL0     H13222   3.081   8.926   4.591  1.6160  1.2177  0.7795
  839MOL0     H13223   3.232   9.081   4.801  0.1362  1.9920 -2.1685
  839MOL0     H13224   3.270   9.065   4.638  0.4776  1.4075 -0.1756
  839MOL0     H13225   3.494   8.795   4.896 -1.1974 -0.2925  0.6261
  839MOL0     H13226   3.743   8.808   4.858  4.0098  0.6595 -2.5301
  839MOL0     H13227   4.081   8.688   4.883  0.4476  3.0727  0.3724
  839MOL0     H13228   4.306   8.595   4.837 -2.7382 -0.5037 -0.0724
  839MOL0     H13229   4.493   8.419   4.553 -0.3349 -0.2174 -1.0369
  839MOL0     H13230   4.433   8.513   4.419  1.8596  0.2076 -1.4048
  839MOL0     H13231   4.684   8.568   4.575 -2.9393  0.0892  0.7976
  839MOL0     H13232   4.676   8.511   4.411  0.3015  0.9129 -0.4378
  839MOL0     H13233   4.583   8.702   4.326 -0.4715  0.6999  1.2349
  839MOL0     H13234   4.589   8.788   4.490 -0.1302 -1.0097  2.2107
  839MOL0     H13235   4.844   8.727   4.479  0.1350  1.0878  0.2153
  839MOL0     H13236   4.784   8.867   4.387  0.1594 -0.3399 -0.7870
  839MOL0     H13237   4.799   8.713   4.179  0.9324 -1.7708 -0.7430
  839MOL0     H13238   4.859   8.590   4.280 -2.2858  0.8679  3.1657
  839MOL0     H13239   5.058   8.735   4.343  0.6406  0.4233 -1.0962
  839MOL0     H13240   5.036   8.700   4.169  3.0227  1.4596 -0.0211
  839MOL0     H13241   4.999   8.967   4.323 -0.1531  3.8862 -2.5661
  839MOL0     H13242   4.922   8.940   4.169 -0.2985  0.7715  0.4690
  839MOL0     H13243   5.158   9.043   4.163 -3.9582  1.2029  0.0390
  839MOL0     H13244   5.223   8.885   4.198  1.5288  0.6108 -1.7069
  839MOL0     H13245   4.261   8.666   4.428  2.1390  2.1927  0.3379
  839MOL0     H13246   4.023   8.728   4.467  0.5263  0.8283 -0.4812
  839MOL0     H13247   3.673   8.968   4.476 -1.9259  1.6700  0.4958
  839MOL0     H13248   3.438   8.991   4.509 -0.3027 -1.4917 -0.5759
  839MOL0     H13249   2.984   8.761   6.131  0.2794  0.9885  0.5758
  839MOL0     H13250   3.113   8.673   6.289 -0.3791  2.1257 -1.4172
  839MOL0     H13251   3.097   8.380   6.671  0.1590  1.2809 -0.9996
  839MOL0     H13252   3.226   8.316   6.881  1.7150 -1.3222  1.7235
  839MOL0     H13253   3.361   8.253   7.043  1.3979 -2.0820  1.0602
  839MOL0     H13254   3.431   8.365   6.926 -2.7282  1.1575  0.7196
  839MOL0     H13255   3.578   8.347   7.133  0.2523  0.1420  0.7377
  839MOL0     H13256   3.648   8.310   6.973  0.9793 -0.4712  0.1468
  839MOL0     H13257   3.624   8.068   7.035  1.5305 -0.2204 -1.1992
  839MOL0     H13258   3.561   8.112   7.200 -3.4547  2.1965 -0.6474
  839MOL0     H13259   3.761   8.258   7.225  1.9451 -1.1540  1.8765
  839MOL0     H13260   3.783   8.083   7.243  1.5393 -1.8972 -1.8212
  839MOL0     H13261   4.057   8.169   6.937 -1.3998  3.0304 -0.0463
  839MOL0     H13262   3.490   8.086   6.638  0.2938 -0.4647 -1.9821
  839MOL0     H13263   3.424   8.199   6.312  0.7006  0.1249  0.3918
  839MOL0     H13264   3.492   8.092   6.439 -0.3804 -0.4066  0.4410
  839MOL0     H13265   3.346   8.050   6.356  2.4207 -0.3575 -2.5651
  840MOL0     O13266   2.043   1.662   3.622 -0.4694  0.4567 -0.3477
  840MOL0     C13267   2.051   1.686   3.739 -0.2538  1.3297  0.2076
  840MOL0     O13268   2.171   1.707   3.802 -0.8000 -0.0505  0.4362
  840MOL0     C13269   2.284   1.730   3.729 -0.0684 -0.6195  0.6194
  840MOL0     C13270   2.330   1.858   3.716 -0.1311 -0.7518  0.9466
  840MOL0     C13271   2.448   1.890   3.643 -0.5061  0.4453 -0.2838
  840MOL0     C13272   2.538   1.788   3.604 -0.4011 -1.1345 -0.6838
  840MOL0     O13273   2.638   1.802   3.508 -0.0718  0.5341 -0.6098
  840MOL0     C13274   2.740   1.898   3.535 -0.4972 -0.0869  0.1157
  840MOL0     C13275   2.857   1.834   3.603 -0.5178 -0.0428 -0.1699
  840MOL0     C13276   2.954   1.945   3.630 -0.6918 -0.7897 -0.4963
  840MOL0     C13277   3.057   1.917   3.749  0.3061  0.5151  0.3397
  840MOL0     C13278   3.169   2.010   3.742 -0.3577 -1.2484  0.5768
  840MOL0     C13279   3.291   1.958   3.827 -0.5507  0.3695  0.2695
  840MOL0     C13280   3.419   2.038   3.807 -0.2431  0.8095 -0.1220
  840MOL0     C13281   3.539   1.993   3.887  0.1970  0.7086  0.0515
  840MOL0     N13282   3.638   2.095   3.901 -0.5116  0.0085  0.6686
  840MOL0     C13283   3.708   2.146   3.792 -0.3751 -0.2390 -0.6069
  840MOL0     C13284   3.786   2.244   3.847 -0.7374 -0.2744  0.1292
  840MOL0     C13285   3.894   2.316   3.778 -1.1985 -0.4435  0.9169
  840MOL0     C13286   3.868   2.469   3.743  0.2123 -0.2700  0.4858
  840MOL0     C13287   3.973   2.519   3.635  0.8439  0.1724 -0.3732
  840MOL0     C13288   4.098   2.584   3.688 -0.0906  1.0436  0.8399
  840MOL0     O13289   4.071   2.708   3.761  0.0115 -0.5214  0.5513
  840MOL0     C13290   4.179   2.774   3.814  0.1423 -0.1735 -0.1139
  840MOL0     C13291   4.308   2.715   3.815  0.1185  0.4539 -0.6067
  840MOL0     C13292   4.420   2.773   3.880 -0.4998 -0.7861 -0.1001
  840MOL0     C13293   4.392   2.883   3.962 -0.3170 -0.3658  0.4414
  840MOL0     C13294   4.499   2.924   4.056 -0.0949 -1.1127 -0.0550
  840MOL0     O13295   4.462   3.021   4.148 -0.7101  0.4008  0.5524
  840MOL0     C13296   4.557   3.023   4.248  0.1739 -0.9240 -1.2183
  840MOL0     C13297   4.628   3.140   4.259  0.0201 -0.6604  0.6558
  840MOL0     C13298   4.728   3.140   4.360  1.2197  0.0863 -0.2847
  840MOL0     C13299   4.753   3.030   4.450  0.3617  0.4543 -0.3389
  840MOL0     O13300   4.846   3.031   4.551 -0.4343  0.3654  0.5750
  840MOL0     C13301   4.968   3.083   4.510  0.3399  0.6996 -0.4005
  840MOL0     C13302   5.063   3.028   4.617  0.2406  0.1444  0.6811
  840MOL0     C13303   5.107   2.883   4.610  0.3322  0.7570 -0.4016
  840MOL0     C13304   5.234   2.862   4.521  0.3670 -0.1101  0.5645
  840MOL0     C13305   5.309   2.729   4.553  0.5687 -0.7061  0.0196
  840MOL0     C13306   5.386   2.684   4.429 -0.0692  0.0106  0.1198
  840MOL0     C13307   5.495   2.582   4.463 -0.0099 -0.2259 -0.0295
  840MOL0     C13308   5.481   2.467   4.366 -0.1262  0.6943 -0.5502
  840MOL0    Cl13309   5.558   2.514   4.208 -0.0294 -0.2237  0.3466
  840MOL0     C13310   4.667   2.908   4.428 -0.1260  0.0563 -0.3803
  840MOL0     C13311   4.567   2.911   4.333  0.4023  0.3013 -0.3463
  840MOL0     O13312   4.610   2.874   4.042  0.4223  0.2601 -1.0065
  840MOL0     C13313   4.264   2.956   3.940 -0.0952 -0.5255  0.7636
  840MOL0     C13314   4.158   2.900   3.867  1.0909 -0.7951 -0.0773
  840MOL0     N13315   3.749   2.263   3.982 -0.1959  0.4169  0.3136
  840MOL0     N13316   3.664   2.172   4.008 -0.0895 -0.5294  0.3237
  840MOL0     C13317   2.488   1.653   3.623 -0.0692  0.1351  0.1730
  840MOL0     C13318   2.365   1.621   3.690 -0.4011  0.2063 -0.1393
  840MOL0     C13319   1.932   1.704   3.824  0.2227  0.5085 -0.4820
  840MOL0     C13320   1.955   1.770   3.950  0.0971  0.4173  0.1190
  840MOL0     C13321   1.851   1.809   4.031  0.3711 -0.1556 -0.3791
  840MOL0     C13322   1.724   1.773   4.003  0.3659 -0.6283 -0.5113
  840MOL0     O13323   1.623   1.815   4.088 -0.1760  0.5222  0.6285
  840MOL0     C13324   1.502   1.751   4.085  0.8062 -0.1339  1.1548
  840MOL0     C13325   1.416   1.785   4.204  0.1435  0.7117 -0.0995
  840MOL0     C13326   1.267   1.740   4.204  0.4053 -0.0212 -0.0636
  840MOL0     C13327   1.244   1.609   4.257  0.2490 -0.5278 -0.0049
  840MOL0     C13328   1.228   1.623   4.398 -0.9172  0.2862 -1.0385
  840MOL0     C13329   1.239   1.644   4.519 -0.1839  0.4056 -0.2946
  840MOL0     C13330   1.698   1.712   3.879  0.2213  1.4316  0.2999
  840MOL0     C13331   1.799   1.672   3.789 -0.0074  0.0320 -0.4563
  840MOL0     C13332   1.758   1.603   3.664 -0.5592  0.3228 -0.5170
  840MOL0     H13333   2.275   1.945   3.752 -1.1534 -0.6417 -0.7726
  840MOL0     H13334   2.479   1.994   3.645 -0.3235  0.4383  3.1196
  840MOL0     H13335   2.773   1.938   3.438  0.6582 -0.0438  0.5126
  840MOL0     H13336   2.699   1.980   3.595 -1.3780 -1.6487  1.7508
  840MOL0     H13337   2.903   1.762   3.535 -0.0791 -1.0039  1.1013
  840MOL0     H13338   2.832   1.793   3.701 -2.3124 -0.2881 -0.6908
  840MOL0     H13339   2.891   2.027   3.665 -2.0946 -1.4121 -1.4380
  840MOL0     H13340   2.997   1.985   3.538  0.1333 -0.1152  0.1687
  840MOL0     H13341   3.018   1.925   3.851  0.6214  0.9961  0.4236
  840MOL0     H13342   3.097   1.816   3.745  0.1728  0.4630  0.2830
  840MOL0     H13343   3.200   2.018   3.637 -2.6724 -5.8106 -0.6936
  840MOL0     H13344   3.147   2.108   3.786  1.4170 -1.9345  3.2024
  840MOL0     H13345   3.261   1.961   3.933 -0.5008  0.7616  0.2731
  840MOL0     H13346   3.313   1.854   3.801  1.3070  0.6186  0.7241
  840MOL0     H13347   3.394   2.141   3.832  1.9568  1.5495 -0.7783
  840MOL0     H13348   3.449   2.026   3.702 -3.1034  0.3519 -0.9805
  840MOL0     H13349   3.508   1.965   3.988 -1.3769 -0.3822 -0.6799
  840MOL0     H13350   3.588   1.906   3.840  1.8223  1.3764  0.4489
  840MOL0     H13351   3.700   2.123   3.686 -0.8433  1.0628 -0.8657
  840MOL0     H13352   3.995   2.312   3.820  1.6005 -1.8844 -4.8891
  840MOL0     H13353   3.906   2.266   3.681 -2.2812 -1.2755  1.1890
  840MOL0     H13354   3.770   2.496   3.702  0.3959  0.0725  0.2802
  840MOL0     H13355   3.875   2.526   3.836  2.8407 -0.0169  0.2107
  840MOL0     H13356   3.927   2.597   3.574  0.7056  2.6092  2.6016
  840MOL0     H13357   3.994   2.435   3.569 -3.0756 -0.3593 -1.1672
  840MOL0     H13358   4.171   2.590   3.607  0.7120 -0.7663  1.3746
  840MOL0     H13359   4.131   2.507   3.758  2.3867  1.4589  0.1997
  840MOL0     H13360   4.317   2.626   3.754  0.1192  2.1270 -3.1874
  840MOL0     H13361   4.519   2.729   3.878 -0.5280 -1.0274  1.6921
  840MOL0     H13362   4.611   3.222   4.190 -1.7924 -0.5310  1.2045
  840MOL0     H13363   4.785   3.229   4.383  0.4990  0.1144  1.6064
  840MOL0     H13364   5.004   3.062   4.409  4.6298 -3.6306  1.6283
  840MOL0     H13365   4.965   3.192   4.522 -1.6735  0.7661 -1.0286
  840MOL0     H13366   5.148   3.093   4.594  0.0027 -0.2279 -1.5220
  840MOL0     H13367   5.023   3.055   4.714 -2.4768 -1.4053  0.0839
  840MOL0     H13368   5.134   2.852   4.712  1.3046  0.8166 -0.6315
  840MOL0     H13369   5.030   2.812   4.578  1.0116 -1.4284  2.4054
  840MOL0     H13370   5.313   2.937   4.515  0.0941  0.1605  0.3358
  840MOL0     H13371   5.191   2.855   4.420 -0.8323  1.7041  0.9033
  840MOL0     H13372   5.246   2.645   4.582  0.1560 -0.9733 -1.5485
  840MOL0     H13373   5.383   2.758   4.628  2.1774 -0.1029 -1.7244
  840MOL0     H13374   5.323   2.640   4.351  1.0159 -0.6158 -0.4298
  840MOL0     H13375   5.433   2.769   4.378  1.5126 -0.4796  0.6816
  840MOL0     H13376   5.483   2.546   4.566 -1.6704  0.1538 -0.0551
  840MOL0     H13377   5.596   2.624   4.463  1.0357 -2.5762  0.9680
  840MOL0     H13378   5.532   2.389   4.424  3.5372  2.5890 -0.8914
  840MOL0     H13379   5.381   2.434   4.337  2.0330 -3.0819 -4.8487
  840MOL0     H13380   4.661   2.821   4.493 -1.7718 -1.2658 -2.1514
  840MOL0     H13381   4.506   2.822   4.321  0.4454  0.0707  0.9717
  840MOL0     H13382   4.248   3.050   3.991 -1.3801  0.3871 -1.2068
  840MOL0     H13383   4.059   2.944   3.864  1.7116  0.6392 -0.4892
  840MOL0     H13384   2.554   1.576   3.584 -0.0462  0.8214 -1.2244
  840MOL0     H13385   2.328   1.520   3.700 -1.7988  0.5484 -1.4838
  840MOL0     H13386   2.053   1.806   3.976 -0.7979  2.2652  1.1330
  840MOL0     H13387   1.874   1.872   4.116  2.1111  0.3557 -1.1928
  840MOL0     H13388   1.503   1.644   4.062  0.0778  0.0007  0.4344
  840MOL0     H13389   1.454   1.799   3.999  0.0390 -0.1171  1.5739
  840MOL0     H13390   1.407   1.893   4.224 -0.1042  0.1999  3.2404
  840MOL0     H13391   1.478   1.739   4.281 -1.2713 -0.5336  0.3589
  840MOL0     H13392   1.230   1.735   4.102 -0.6399  1.8418  0.1649
  840MOL0     H13393   1.207   1.807   4.267  2.0934 -2.3364  4.5274
  840MOL0     H13394   1.148   1.562   4.235  1.1326 -2.5351  0.2171
  840MOL0     H13395   1.322   1.538   4.227 -0.4803 -0.6683 -1.6786
  840MOL0     H13396   1.236   1.664   4.624 -2.9830  2.0260 -0.5855
  840MOL0     H13397   1.594   1.690   3.860 -0.0814  1.5241  1.7559
  840MOL0     H13398   1.733   1.679   3.590  0.1868  1.1894  0.0920
  840MOL0     H13399   1.832   1.536   3.619 -0.7177  0.3577 -0.8288
  840MOL0     H13400   1.673   1.535   3.677  0.6565 -1.3205 -0.8571
  841MOL0     O13401  11.297   2.691   1.193  0.3217 -0.9390  0.3590
  841MOL0     C13402  11.366   2.608   1.250  0.5230 -0.0953  0.6265
  841MOL0     O13403  11.321   2.516   1.349  0.3443 -0.0804 -0.0609
  841MOL0     C13404  11.191   2.498   1.383  0.0219 -1.2821 -0.5198
  841MOL0     C13405  11.170   2.465   1.518  0.1164  0.6452 -0.5206
  841MOL0     C13406  11.038   2.434   1.556 -0.1350  0.4453 -0.0140
  841MOL0     C13407  10.930   2.452   1.473  0.1329 -0.1570 -0.0217
  841MOL0     O13408  10.803   2.425   1.528  0.1509  0.8580  0.6884
  841MOL0     C13409  10.685   2.490   1.481 -0.3902  0.1457  0.5299
  841MOL0     C13410  10.557   2.436   1.552 -0.4772  0.8435 -0.6048
  841MOL0     C13411  10.569   2.452   1.712 -0.0566  0.6805  0.0056
  841MOL0     C13412  10.437   2.421   1.779 -0.4948  0.9974 -0.1087
  841MOL0     C13413  10.427   2.486   1.920 -0.4278 -0.1166 -0.1039
  841MOL0     C13414  10.503   2.402   2.017 -0.7214 -0.7463 -0.1924
  841MOL0     C13415  10.482   2.448   2.161 -0.3837 -0.0926 -0.9935
  841MOL0     C13416  10.554   2.572   2.200  0.4841 -1.2505 -0.2601
  841MOL0     N13417  10.541   2.586   2.342 -0.5016 -0.1669 -1.1050
  841MOL0     C13418  10.624   2.527   2.433 -0.6005  0.0901 -0.6426
  841MOL0     C13419  10.552   2.548   2.550 -1.0149  0.1428  0.1872
  841MOL0     C13420  10.587   2.498   2.694 -0.3458  0.1278  0.5253
  841MOL0     C13421  10.728   2.435   2.705  0.2572  0.0756 -0.2378
  841MOL0     C13422  10.753   2.356   2.834 -0.1998  0.7941 -0.9856
  841MOL0     C13423  10.885   2.293   2.868  0.9121  0.5149 -0.4129
  841MOL0     O13424  10.976   2.398   2.884  0.3642  0.1463 -0.8382
  841MOL0     C13425  11.108   2.378   2.871 -0.9028  0.0167 -0.1789
  841MOL0     C13426  11.179   2.255   2.891  0.8006  0.8234  0.8133
  841MOL0     C13427  11.315   2.242   2.867 -0.3536 -0.2650  0.8124
  841MOL0     C13428  11.389   2.356   2.825 -0.0595  0.1058  0.2561
  841MOL0     C13429  11.535   2.342   2.797  0.4871  0.1134  0.2793
  841MOL0     O13430  11.595   2.221   2.830  0.7745 -0.5850  0.0208
  841MOL0     C13431  11.717   2.208   2.780 -0.5145 -0.9328 -0.0249
  841MOL0     C13432  11.737   2.164   2.652 -0.1641 -0.3206  0.3015
  841MOL0     C13433  11.866   2.149   2.602  0.4175  0.1878  0.3991
  841MOL0     C13434  11.976   2.160   2.686  0.2268 -0.2119 -0.2543
  841MOL0     O13435  12.102   2.132   2.631  0.4768  0.1458 -0.0514
  841MOL0     C13436  12.219   2.197   2.698  0.1504 -0.2064  0.5051
  841MOL0     C13437  12.356   2.175   2.624  0.7118  1.0176 -0.9844
  841MOL0     C13438  12.401   2.032   2.629 -0.2101  0.5245  0.2778
  841MOL0     C13439  12.517   2.001   2.528 -0.0901 -0.3402 -0.7856
  841MOL0     C13440  12.576   1.860   2.544  0.5074 -0.4174 -0.5525
  841MOL0     C13441  12.478   1.732   2.539 -0.6704 -0.0216  0.8906
  841MOL0     C13442  12.554   1.602   2.588  0.6991  0.1167 -0.2996
  841MOL0     C13443  12.501   1.489   2.510  0.0506  0.6360  0.5214
  841MOL0    Cl13444  12.602   1.493   2.356 -0.3797  0.4264  0.2245
  841MOL0     C13445  11.949   2.203   2.818 -0.6600  0.2800 -0.2816
  841MOL0     C13446  11.827   2.237   2.857 -0.0330 -0.1607  0.0146
  841MOL0     O13447  11.585   2.437   2.731 -0.1577  0.0833 -0.0330
  841MOL0     C13448  11.321   2.484   2.820  0.8442  0.3628 -0.3599
  841MOL0     C13449  11.188   2.492   2.844 -0.9908  0.3395  0.2693
  841MOL0     N13450  10.438   2.615   2.522 -0.7691 -0.3232  0.1366
  841MOL0     N13451  10.436   2.646   2.397  0.1952  0.8192  0.0254
  841MOL0     C13452  10.955   2.483   1.336  0.4247  0.2116 -0.0572
  841MOL0     C13453  11.085   2.505   1.294  0.0326  0.4462 -0.3893
  841MOL0     C13454  11.506   2.613   1.209  0.1249 -0.1503 -0.4779
  841MOL0     C13455  11.573   2.735   1.184 -0.1028 -0.6825 -0.1044
  841MOL0     C13456  11.698   2.737   1.115  0.2286 -0.7535 -0.2759
  841MOL0     C13457  11.781   2.620   1.103 -0.0542 -0.7334  0.8509
  841MOL0     O13458  11.911   2.628   1.050 -0.5525  0.2685  0.0578
  841MOL0     C13459  11.992   2.739   1.075 -0.7011 -0.8755 -0.0688
  841MOL0     C13460  12.091   2.715   1.188 -0.3818  0.2166 -0.3145
  841MOL0     C13461  12.223   2.799   1.176  0.2597 -0.1598  0.6801
  841MOL0     C13462  12.337   2.741   1.095  0.9293 -0.2910  0.4458
  841MOL0     C13463  12.453   2.838   1.090 -0.3352 -0.3491  0.2388
  841MOL0     C13464  12.540   2.924   1.099  0.4702  1.2161 -0.4981
  841MOL0     C13465  11.719   2.499   1.151 -0.7707  0.1839 -0.3113
  841MOL0     C13466  11.580   2.500   1.201 -0.7904  0.3961  0.3698
  841MOL0     C13467  11.530   2.364   1.250 -0.1772  0.1205 -0.2250
  841MOL0     H13468  11.250   2.457   1.591  1.0537 -0.5580 -1.6174
  841MOL0     H13469  11.029   2.392   1.656  0.3414  2.6278  1.0083
  841MOL0     H13470  10.701   2.597   1.465  4.1584 -0.6743 -2.3230
  841MOL0     H13471  10.674   2.439   1.385 -2.8628 -2.3716  2.0100
  841MOL0     H13472  10.571   2.327   1.544  3.4279  1.2081 -0.9391
  841MOL0     H13473  10.464   2.468   1.505 -1.1319  0.3159  0.2819
  841MOL0     H13474  10.607   2.552   1.732  0.9302  0.2202  0.5276
  841MOL0     H13475  10.647   2.389   1.755 -0.8488  0.4107  1.1021
  841MOL0     H13476  10.349   2.453   1.724 -1.1756  1.3583  1.1596
  841MOL0     H13477  10.433   2.311   1.778 -2.8926  1.0424 -1.4558
  841MOL0     H13478  10.472   2.585   1.915 -0.4014  0.0043  1.9256
  841MOL0     H13479  10.326   2.496   1.960 -0.3263 -0.7344  0.3189
  841MOL0     H13480  10.458   2.304   2.003 -0.2247 -0.7110 -2.3855
  841MOL0     H13481  10.610   2.410   1.995 -0.6707 -0.4137  0.1485
  841MOL0     H13482  10.513   2.361   2.220  2.0252  0.6460 -1.0796
  841MOL0     H13483  10.379   2.462   2.195 -0.4082  0.1288 -1.1585
  841MOL0     H13484  10.659   2.566   2.170  0.8193 -1.8458  0.9851
  841MOL0     H13485  10.507   2.656   2.147  1.8314 -0.6973 -0.6390
  841MOL0     H13486  10.722   2.480   2.431 -0.6293 -0.0862  0.7862
  841MOL0     H13487  10.585   2.576   2.772  2.1788 -0.3420  1.1335
  841MOL0     H13488  10.517   2.423   2.732 -0.3298 -1.5347 -2.4171
  841MOL0     H13489  10.726   2.359   2.627 -1.7055 -1.3498  1.0789
  841MOL0     H13490  10.813   2.500   2.683  2.0947 -1.9813  0.3563
  841MOL0     H13491  10.667   2.290   2.844  1.5067 -1.2882  0.8250
  841MOL0     H13492  10.746   2.423   2.920  1.9987 -1.3656  1.0246
  841MOL0     H13493  10.921   2.233   2.784 -1.6102  1.1476 -2.0431
  841MOL0     H13494  10.869   2.231   2.957 -2.4205  1.9350  0.1239
  841MOL0     H13495  11.121   2.163   2.895  1.3734  0.3252 -1.1387
  841MOL0     H13496  11.363   2.145   2.858  1.4190  0.7467 -2.5953
  841MOL0     H13497  11.647   2.134   2.599  0.1642  0.0652 -0.4891
  841MOL0     H13498  11.889   2.119   2.500  2.2700 -0.9890  1.1196
  841MOL0     H13499  12.201   2.304   2.713  1.2508 -0.2083  2.0587
  841MOL0     H13500  12.226   2.163   2.801  1.0668 -2.7613 -0.3377
  841MOL0     H13501  12.349   2.202   2.518 -1.0234 -1.6623 -1.6569
  841MOL0     H13502  12.431   2.244   2.664 -0.2405  0.7732  1.3665
  841MOL0     H13503  12.428   2.011   2.732  0.3430 -2.3693 -0.3866
  841MOL0     H13504  12.319   1.962   2.609  1.0245 -1.0766  0.6690
  841MOL0     H13505  12.592   2.080   2.536 -2.3022  2.0862 -2.2428
  841MOL0     H13506  12.477   2.002   2.426 -1.1314  2.0084 -0.4129
  841MOL0     H13507  12.623   1.853   2.643  0.0952 -0.6326 -0.3729
  841MOL0     H13508  12.657   1.848   2.472 -0.4006 -1.2856 -1.4639
  841MOL0     H13509  12.404   1.750   2.618  0.1578 -0.5758  1.8151
  841MOL0     H13510  12.436   1.721   2.439  0.6593  0.1796  0.2938
  841MOL0     H13511  12.525   1.599   2.693  1.9502 -0.9273  0.0320
  841MOL0     H13512  12.662   1.593   2.577  0.3469 -2.2118 -2.9140
  841MOL0     H13513  12.512   1.393   2.561 -0.8457 -0.7363 -1.6879
  841MOL0     H13514  12.396   1.496   2.480  0.1757 -2.2377 -0.9020
  841MOL0     H13515  12.032   2.207   2.887 -1.7937  2.6857  1.0843
  841MOL0     H13516  11.813   2.276   2.958  2.5676 -0.6224  0.6270
  841MOL0     H13517  11.365   2.569   2.769  0.6987 -0.7013 -2.4030
  841MOL0     H13518  11.130   2.583   2.849 -2.8096 -0.8110  1.1344
  841MOL0     H13519  10.865   2.484   1.274  0.1919 -1.2606  0.2143
  841MOL0     H13520  11.089   2.529   1.188 -0.4777 -0.7037 -0.6852
  841MOL0     H13521  11.512   2.824   1.197  0.6645  0.3593 -2.8165
  841MOL0     H13522  11.741   2.832   1.087  0.1584 -0.5180  0.3954
  841MOL0     H13523  11.949   2.838   1.095  1.4150  0.1707 -0.4708
  841MOL0     H13524  12.051   2.757   0.985 -2.6440  0.9255 -1.0751
  841MOL0     H13525  12.121   2.611   1.172  1.6012  1.0513 -2.5480
  841MOL0     H13526  12.043   2.732   1.285 -1.5324 -3.4501 -0.0593
  841MOL0     H13527  12.259   2.812   1.278 -2.2653  2.7510  1.3421
  841MOL0     H13528  12.211   2.898   1.129 -0.0991 -0.5878 -0.1450
  841MOL0     H13529  12.361   2.644   1.139 -0.4696 -0.1213  1.6891
  841MOL0     H13530  12.301   2.724   0.993  1.0349  0.1465  0.3326
  841MOL0     H13531  12.608   3.005   1.118 -0.1691  1.5076  0.6388
  841MOL0     H13532  11.797   2.424   1.160 -0.4146  0.6438  0.5829
  841MOL0     H13533  11.596   2.286   1.209 -1.6570 -1.2756 -0.0395
  841MOL0     H13534  11.525   2.352   1.358  3.3046 -1.0088 -0.0430
  841MOL0     H13535  11.435   2.342   1.200 -0.7748 -1.1809  1.3997
  842MOL0     O13536   3.439   6.859   0.556  0.1948  0.2639 -0.2997
  842MOL0     C13537   3.374   6.812   0.651  0.6247 -0.1720  0.3882
  842MOL0     O13538   3.413   6.735   0.753 -0.3277  0.0703 -0.5328
  842MOL0     C13539   3.541   6.680   0.746  0.3531  0.3834 -0.2102
  842MOL0     C13540   3.608   6.624   0.632  0.1849  0.2756 -0.9153
  842MOL0     C13541   3.738   6.577   0.631  0.4952 -0.2939  0.0681
  842MOL0     C13542   3.818   6.594   0.748  0.3150 -0.7273 -0.3137
  842MOL0     O13543   3.951   6.583   0.746 -0.1358  0.2246 -0.3766
  842MOL0     C13544   4.017   6.656   0.638 -0.6344 -0.0207  0.0972
  842MOL0     C13545   4.173   6.640   0.660  0.7712 -0.1966  0.3637
  842MOL0     C13546   4.256   6.714   0.551  0.9087 -0.2260  0.4298
  842MOL0     C13547   4.407   6.718   0.579  1.4010 -0.1059  0.8440
  842MOL0     C13548   4.463   6.820   0.485 -1.2463  0.3247 -0.4731
  842MOL0     C13549   4.614   6.832   0.506 -0.9435  0.4881  0.2014
  842MOL0     C13550   4.675   6.797   0.640  0.7086 -0.8294 -0.5486
  842MOL0     C13551   4.831   6.827   0.637  0.1916  0.1849  0.2381
  842MOL0     N13552   4.870   6.877   0.768  0.2305 -0.1760 -0.9455
  842MOL0     C13553   4.881   6.813   0.887  0.2601  0.3339  0.0568
  842MOL0     C13554   4.901   6.917   0.980  1.0271 -0.4039 -0.0594
  842MOL0     C13555   4.920   6.893   1.129 -0.3386 -0.8864  0.1012
  842MOL0     C13556   5.063   6.846   1.175  0.1232 -0.7664  0.0007
  842MOL0     C13557   5.078   6.856   1.331  0.5180  0.3051 -0.0649
  842MOL0     C13558   5.005   6.739   1.406 -0.0241  0.4411  0.5412
  842MOL0     O13559   5.069   6.730   1.536 -0.1432  0.1940  0.0875
  842MOL0     C13560   5.176   6.653   1.547  0.2013  0.2095 -0.4629
  842MOL0     C13561   5.250   6.587   1.447 -0.2636  0.1235 -0.3798
  842MOL0     C13562   5.361   6.511   1.485  0.2730 -0.2360  0.1386
  842MOL0     C13563   5.404   6.508   1.617 -0.4187 -0.0270 -0.9926
  842MOL0     C13564   5.526   6.435   1.662 -0.3008 -0.4585 -0.7191
  842MOL0     O13565   5.549   6.318   1.587  0.1864 -0.0163  0.2565
  842MOL0     C13566   5.674   6.275   1.572 -0.6659  0.2382 -0.6488
  842MOL0     C13567   5.728   6.275   1.435  1.0469 -0.1632 -0.1398
  842MOL0     C13568   5.858   6.221   1.415  0.1868  0.1508 -0.2850
  842MOL0     C13569   5.930   6.159   1.517  0.4680 -0.6472 -0.1285
  842MOL0     O13570   6.047   6.109   1.478 -0.4307  0.6011  0.1967
  842MOL0     C13571   6.126   6.033   1.570 -1.0974 -0.3042 -0.4497
  842MOL0     C13572   6.059   5.889   1.593  0.3712 -0.2312 -0.1736
  842MOL0     C13573   6.066   5.806   1.464 -0.5078  0.0628 -0.3214
  842MOL0     C13574   6.008   5.658   1.471  0.4099  0.5348 -0.2080
  842MOL0     C13575   5.856   5.651   1.482 -0.3688 -0.4854 -0.2034
  842MOL0     C13576   5.787   5.703   1.356 -0.6044  0.1662  0.8044
  842MOL0     C13577   5.639   5.667   1.364  0.7880  0.0509  0.0912
  842MOL0     C13578   5.548   5.750   1.273 -0.1928 -0.1891 -0.2450
  842MOL0    Cl13579   5.584   5.931   1.293 -0.1600 -0.0244 -0.1970
  842MOL0     C13580   5.871   6.149   1.644 -0.5681 -0.4317 -0.3131
  842MOL0     C13581   5.739   6.208   1.671 -0.2852  0.1590 -0.0161
  842MOL0     O13582   5.593   6.475   1.760  0.2999  0.2117 -0.3455
  842MOL0     C13583   5.324   6.573   1.712 -0.3807  0.7648  0.3266
  842MOL0     C13584   5.219   6.652   1.681  0.4778  0.7219  0.8712
  842MOL0     N13585   4.918   7.038   0.918 -0.3172  0.3757  0.0499
  842MOL0     N13586   4.887   7.015   0.790  0.0123 -0.0423 -0.6108
  842MOL0     C13587   3.749   6.636   0.864 -0.3668 -0.3518  1.1381
  842MOL0     C13588   3.618   6.675   0.862 -0.7872  0.0782 -0.5406
  842MOL0     C13589   3.239   6.854   0.658 -0.5434 -0.2859 -0.9489
  842MOL0     C13590   3.200   6.934   0.766  0.1284  1.2422  0.3538
  842MOL0     C13591   3.069   6.973   0.776 -0.5739  0.3416  0.6659
  842MOL0     C13592   2.974   6.936   0.680  0.6730 -0.2984  0.7822
  842MOL0     O13593   2.849   6.987   0.670  0.0489 -0.2261  0.9331
  842MOL0     C13594   2.784   7.022   0.789  0.2882  0.5735  0.5172
  842MOL0     C13595   2.631   7.014   0.771 -0.7294  0.6658  0.4060
  842MOL0     C13596   2.586   7.096   0.649 -0.5846 -0.7673 -0.4329
  842MOL0     C13597   2.617   7.246   0.665 -0.4528 -0.0412  0.8011
  842MOL0     C13598   2.576   7.318   0.538 -0.4202  0.2514 -0.0596
  842MOL0     C13599   2.552   7.390   0.446  0.2775 -0.0905 -0.0538
  842MOL0     C13600   3.019   6.859   0.569 -0.0845 -0.2788  0.1269
  842MOL0     C13601   3.152   6.817   0.562 -0.4378 -0.4183 -0.2315
  842MOL0     C13602   3.192   6.717   0.452 -0.4021 -0.5169 -0.5885
  842MOL0     H13603   3.551   6.626   0.539 -1.5725  0.0029  0.1110
  842MOL0     H13604   3.783   6.533   0.542  0.7586 -0.9118  0.5019
  842MOL0     H13605   3.989   6.606   0.545  1.4899 -1.3319  0.0752
  842MOL0     H13606   3.997   6.763   0.642  0.4670  0.2150 -0.2971
  842MOL0     H13607   4.209   6.537   0.650  1.7569  0.3565 -3.0394
  842MOL0     H13608   4.197   6.690   0.754 -1.6535  2.8145 -0.4976
  842MOL0     H13609   4.223   6.818   0.559 -1.2094 -0.7193 -0.9653
  842MOL0     H13610   4.218   6.672   0.457 -3.7904  0.2625  1.8621
  842MOL0     H13611   4.419   6.753   0.682 -0.8180  0.9551  0.7932
  842MOL0     H13612   4.450   6.620   0.557  3.1153  0.9285 -0.7814
  842MOL0     H13613   4.451   6.794   0.380 -0.2878 -1.3910 -0.1959
  842MOL0     H13614   4.408   6.914   0.494 -1.9475  0.1015 -2.0868
  842MOL0     H13615   4.656   6.769   0.427 -0.4193  0.6681  0.3290
  842MOL0     H13616   4.639   6.939   0.505 -0.3146  0.3497  0.2876
  842MOL0     H13617   4.665   6.690   0.659 -0.0811 -0.5542  0.6491
  842MOL0     H13618   4.627   6.850   0.723  0.1898 -4.6903  1.8530
  842MOL0     H13619   4.895   6.743   0.610  0.8165  0.8910 -0.5131
  842MOL0     H13620   4.858   6.894   0.555 -0.2376  0.3008  0.1876
  842MOL0     H13621   4.868   6.707   0.907 -0.3104  0.7118  1.7944
  842MOL0     H13622   4.888   6.977   1.191  4.1309  0.6561  0.6953
  842MOL0     H13623   4.850   6.813   1.156 -1.9709  0.3361 -0.3207
  842MOL0     H13624   5.076   6.744   1.138 -3.7466 -0.9651 -1.1924
  842MOL0     H13625   5.142   6.911   1.134 -0.3906  0.4040  0.7989
  842MOL0     H13626   5.039   6.950   1.372 -1.6202 -0.2412 -0.7228
  842MOL0     H13627   5.186   6.852   1.350  0.3223  0.1246  1.0622
  842MOL0     H13628   5.023   6.645   1.353  2.3446  1.9877 -1.6475
  842MOL0     H13629   4.897   6.753   1.416 -0.5456 -0.1661 -2.9802
  842MOL0     H13630   5.226   6.596   1.341  0.2154  0.4302 -0.4608
  842MOL0     H13631   5.421   6.461   1.409  1.4683  2.2094 -0.6380
  842MOL0     H13632   5.676   6.340   1.366  0.3107  0.7706  1.2309
  842MOL0     H13633   5.910   6.235   1.321 -1.8920 -0.5496 -1.6260
  842MOL0     H13634   6.226   6.026   1.526 -0.4998 -2.4461  1.0920
  842MOL0     H13635   6.132   6.086   1.665 -0.7672  1.4152 -1.3909
  842MOL0     H13636   6.121   5.833   1.664 -0.5583  0.4542  1.2351
  842MOL0     H13637   5.954   5.893   1.622 -0.2619 -3.3815 -1.5436
  842MOL0     H13638   6.035   5.855   1.372  1.1801  0.3243 -0.7745
  842MOL0     H13639   6.172   5.787   1.446 -0.9042  0.3058 -3.4052
  842MOL0     H13640   6.044   5.597   1.554  0.1599 -0.3628 -0.7325
  842MOL0     H13641   6.041   5.605   1.381  1.8086 -1.2849  1.2787
  842MOL0     H13642   5.834   5.704   1.576  0.5121  0.7199 -0.6424
  842MOL0     H13643   5.832   5.546   1.495  2.1866 -1.1763 -0.5595
  842MOL0     H13644   5.790   5.812   1.363  1.9425  0.8051 -4.7628
  842MOL0     H13645   5.844   5.679   1.265 -0.8106 -2.2764  1.2476
  842MOL0     H13646   5.612   5.672   1.470 -1.1025 -1.3988 -0.2704
  842MOL0     H13647   5.619   5.565   1.331 -0.4784  0.5241 -0.6739
  842MOL0     H13648   5.562   5.723   1.168  0.2441  1.3196 -0.6003
  842MOL0     H13649   5.443   5.728   1.294  0.3329 -0.9379  1.8244
  842MOL0     H13650   5.918   6.123   1.738  1.2142 -0.7139 -1.2340
  842MOL0     H13651   5.704   6.223   1.773 -0.9840  2.2638 -0.5273
  842MOL0     H13652   5.352   6.581   1.816  0.1674  3.7493  0.0312
  842MOL0     H13653   5.173   6.725   1.748 -2.8993  1.5706 -2.0312
  842MOL0     H13654   3.812   6.643   0.952 -1.8289 -2.2522  2.4114
  842MOL0     H13655   3.570   6.705   0.955 -2.2826 -1.4804 -0.7623
  842MOL0     H13656   3.272   6.962   0.842  2.0613  2.5565 -1.8373
  842MOL0     H13657   3.040   7.031   0.863 -1.1411 -1.4936  1.7550
  842MOL0     H13658   2.826   7.118   0.817  1.6930  0.8068 -2.0542
  842MOL0     H13659   2.810   6.944   0.861  1.6121 -0.3123 -0.8423
  842MOL0     H13660   2.584   7.058   0.860 -2.9541 -0.2031 -0.2855
  842MOL0     H13661   2.587   6.915   0.772 -1.7014  1.0708 -0.7453
  842MOL0     H13662   2.479   7.084   0.631 -1.1729  2.0834  0.5783
  842MOL0     H13663   2.641   7.063   0.560 -2.9878 -1.4675 -1.7414
  842MOL0     H13664   2.569   7.295   0.750  0.3041  1.4620  0.3906
  842MOL0     H13665   2.724   7.253   0.685 -0.4025  2.5222 -0.0051
  842MOL0     H13666   2.519   7.463   0.375  1.6714  1.1208  0.5043
  842MOL0     H13667   2.955   6.825   0.488  1.0315 -1.9321 -0.0968
  842MOL0     H13668   3.269   6.749   0.381 -1.1610  1.5604 -0.5453
  842MOL0     H13669   3.224   6.620   0.492  0.1275  0.2923  1.0376
  842MOL0     H13670   3.108   6.705   0.383  0.0602  0.0803 -1.2684
  843MOL0     O13671   0.703   3.693   5.667  0.2593 -0.1200  0.1844
  843MOL0     C13672   0.724   3.809   5.641 -0.7390  0.0191 -0.0636
  843MOL0     O13673   0.844   3.870   5.658  0.1828 -0.2688  0.0142
  843MOL0     C13674   0.958   3.792   5.666 -0.4114  0.3098  0.0408
  843MOL0     C13675   1.012   3.763   5.792  0.1703 -0.5966  0.8967
  843MOL0     C13676   1.131   3.689   5.801  0.0122 -0.5600 -0.1069
  843MOL0     C13677   1.200   3.643   5.689 -0.6791 -0.4072 -0.3259
  843MOL0     O13678   1.315   3.573   5.705  0.7323  0.4465 -0.6910
  843MOL0     C13679   1.398   3.513   5.601  0.4799 -0.0280 -0.7292
  843MOL0     C13680   1.465   3.386   5.671  0.1721  0.3022 -0.0472
  843MOL0     C13681   1.356   3.276   5.697 -0.4765  0.6025 -0.7034
  843MOL0     C13682   1.423   3.140   5.730  0.9133  0.0131  0.5626
  843MOL0     C13683   1.311   3.037   5.770 -0.4348 -0.3352 -0.2836
  843MOL0     C13684   1.234   3.065   5.909  0.1570  0.7555  0.5771
  843MOL0     C13685   1.161   2.930   5.948  0.6952  0.4550  0.5249
  843MOL0     C13686   1.097   2.935   6.079 -0.2000 -0.5089 -1.0470
  843MOL0     N13687   1.184   2.932   6.191 -0.1187  0.3337 -0.0867
  843MOL0     C13688   1.273   2.826   6.219  0.2826 -0.6256 -0.0541
  843MOL0     C13689   1.334   2.862   6.333 -0.1908  0.1137  0.3408
  843MOL0     C13690   1.402   2.770   6.432 -0.6113 -0.1919  0.0878
  843MOL0     C13691   1.556   2.780   6.417 -0.4836  0.6356  1.2168
  843MOL0     C13692   1.610   2.750   6.282 -0.3648 -0.4413 -0.0802
  843MOL0     C13693   1.754   2.708   6.292 -0.1412 -0.2363 -0.1424
  843MOL0     O13694   1.801   2.658   6.166  0.8993  0.5573  0.5140
  843MOL0     C13695   1.860   2.740   6.070 -0.4695 -0.4791  0.1020
  843MOL0     C13696   1.821   2.874   6.055 -0.0202 -0.4643  1.3608
  843MOL0     C13697   1.880   2.964   5.960  0.3441 -0.0978  0.6215
  843MOL0     C13698   1.993   2.921   5.882  0.7182 -0.0210  0.7174
  843MOL0     C13699   2.079   3.011   5.812  0.6346 -0.4324 -0.1465
  843MOL0     O13700   2.182   2.956   5.740 -0.4414  0.8232  0.3370
  843MOL0     C13701   2.281   3.042   5.706  0.0975 -0.2458 -0.2228
  843MOL0     C13702   2.256   3.145   5.610 -0.2216 -0.3729  0.0163
  843MOL0     C13703   2.364   3.208   5.551 -0.6499  0.1110 -0.6266
  843MOL0     C13704   2.495   3.179   5.583  0.5732  0.2735  0.3106
  843MOL0     O13705   2.605   3.221   5.515  0.3897 -0.4868  0.9198
  843MOL0     C13706   2.587   3.235   5.370  0.1349  0.2484 -0.3336
  843MOL0     C13707   2.721   3.223   5.290  0.0084  0.5233 -1.6171
  843MOL0     C13708   2.766   3.070   5.292 -0.2836 -0.7046 -0.0539
  843MOL0     C13709   2.848   3.019   5.404  0.5622 -0.6253  0.3971
  843MOL0     C13710   2.995   3.075   5.396  0.1162  0.3743  0.7925
  843MOL0     C13711   3.075   3.020   5.515 -0.5084  0.4433 -0.3801
  843MOL0     C13712   3.221   3.075   5.508 -0.5155  0.1497  0.2825
  843MOL0     C13713   3.298   3.064   5.638  1.0374 -0.8097  0.3848
  843MOL0    Cl13714   3.226   3.187   5.741 -0.5902  0.0470 -0.1383
  843MOL0     C13715   2.518   3.098   5.699  0.4709 -0.4470 -0.0649
  843MOL0     C13716   2.406   3.044   5.771  0.1511 -0.0776 -0.7784
  843MOL0     O13717   2.064   3.131   5.842  0.1661  0.0023  0.2514
  843MOL0     C13718   2.034   2.789   5.901 -0.6997  0.3302  0.1592
  843MOL0     C13719   1.966   2.702   5.992  0.1205 -0.1488 -0.3240
  843MOL0     N13720   1.291   2.989   6.367  0.8331  0.4512  0.3372
  843MOL0     N13721   1.197   3.027   6.283  0.1791 -0.5533 -0.3627
  843MOL0     C13722   1.152   3.692   5.565 -0.1211  0.1249 -0.4968
  843MOL0     C13723   1.031   3.755   5.557 -0.1266 -0.3674 -0.4812
  843MOL0     C13724   0.609   3.887   5.587 -0.0479  0.6379 -0.4298
  843MOL0     C13725   0.491   3.831   5.599  0.9935  0.4894  0.3427
  843MOL0     C13726   0.368   3.899   5.568 -0.2092 -0.8244  0.0768
  843MOL0     C13727   0.362   4.026   5.532  0.2996  0.3540  0.0673
  843MOL0     O13728   0.255   4.112   5.501  0.1917  0.5261  0.6257
  843MOL0     C13729   0.122   4.065   5.496  1.1296 -0.3754 -0.5315
  843MOL0     C13730   0.048   4.189   5.459  0.4483 -0.6671 -0.0099
  843MOL0     C13731  -0.106   4.188   5.453 -0.1691 -0.0879 -0.6836
  843MOL0     C13732  -0.177   4.177   5.320 -0.2820 -0.4853 -0.0444
  843MOL0     C13733  -0.133   4.251   5.204 -1.2724 -0.2969  1.1698
  843MOL0     C13734  -0.066   4.306   5.114  0.4528 -0.5731 -0.6342
  843MOL0     C13735   0.484   4.084   5.525  0.6473 -1.1702  0.7776
  843MOL0     C13736   0.607   4.021   5.555  0.0101  0.4922  0.4147
  843MOL0     C13737   0.727   4.112   5.536 -0.4605 -0.4983  0.3104
  843MOL0     H13738   0.956   3.805   5.875 -3.2407  2.6249 -2.5821
  843MOL0     H13739   1.179   3.667   5.896  0.1455 -1.4755 -0.3765
  843MOL0     H13740   1.333   3.479   5.519 -2.7208 -1.4847  2.1554
  843MOL0     H13741   1.464   3.581   5.547 -0.0216 -0.7256 -2.2901
  843MOL0     H13742   1.523   3.418   5.757  1.2627 -1.1750 -0.2058
  843MOL0     H13743   1.533   3.342   5.597  1.1390 -0.9298  1.5250
  843MOL0     H13744   1.292   3.262   5.610 -2.9775  0.0567  1.1065
  843MOL0     H13745   1.280   3.292   5.774  2.3584 -0.0661  2.4638
  843MOL0     H13746   1.468   3.105   5.636 -1.8845 -0.5402 -0.6675
  843MOL0     H13747   1.505   3.152   5.801  2.4355 -3.3615 -0.4018
  843MOL0     H13748   1.247   3.022   5.683  1.6261 -2.7296 -1.5188
  843MOL0     H13749   1.369   2.944   5.778  0.0282 -0.4075 -3.3405
  843MOL0     H13750   1.298   3.102   5.990  1.5895 -1.8314  0.7186
  843MOL0     H13751   1.155   3.140   5.893  0.5911  1.6141  2.1749
  843MOL0     H13752   1.228   2.844   5.943  3.4641  2.5552 -0.9012
  843MOL0     H13753   1.076   2.921   5.879 -0.1226 -0.2597  1.5840
  843MOL0     H13754   1.035   3.023   6.096 -0.0415 -0.1833 -2.0715
  843MOL0     H13755   1.024   2.853   6.081 -1.8048  0.5906 -5.0346
  843MOL0     H13756   1.263   2.726   6.178  3.0792 -0.6203 -0.9671
  843MOL0     H13757   1.379   2.789   6.537  1.1185  0.5833  0.3717
  843MOL0     H13758   1.379   2.668   6.399 -0.1555  0.5296 -2.7659
  843MOL0     H13759   1.586   2.877   6.458  1.8973  0.3497  0.3048
  843MOL0     H13760   1.583   2.698   6.484  1.0888  0.1405  0.0334
  843MOL0     H13761   1.594   2.834   6.214 -0.7134 -1.3824 -1.1869
  843MOL0     H13762   1.560   2.663   6.238  1.3518 -1.4472 -0.1117
  843MOL0     H13763   1.763   2.635   6.373 -1.0447 -3.0961 -2.4460
  843MOL0     H13764   1.821   2.792   6.309 -1.5236  0.7221  0.7877
  843MOL0     H13765   1.741   2.920   6.113 -1.2723 -0.2291 -0.4551
  843MOL0     H13766   1.843   3.066   5.958 -3.0521 -1.1427  1.8634
  843MOL0     H13767   2.161   3.149   5.558 -0.7277 -1.1813  0.8281
  843MOL0     H13768   2.339   3.268   5.463  1.8990  1.0503 -0.7785
  843MOL0     H13769   2.521   3.158   5.330  0.5925  1.7112 -4.2964
  843MOL0     H13770   2.535   3.330   5.350  2.2813  1.5362 -0.0939
  843MOL0     H13771   2.703   3.268   5.192 -1.8877  3.7121  0.0196
  843MOL0     H13772   2.790   3.296   5.332 -1.0799  0.4279  0.5098
  843MOL0     H13773   2.674   3.011   5.289 -0.5372 -0.3616  0.7151
  843MOL0     H13774   2.816   3.041   5.200  0.3297 -0.5888  0.2411
  843MOL0     H13775   2.850   2.910   5.399 -0.5719 -0.6444 -0.0239
  843MOL0     H13776   2.803   3.055   5.498 -0.9127 -2.1818  0.3262
  843MOL0     H13777   2.984   3.183   5.400 -1.3458  0.2421  1.2073
  843MOL0     H13778   3.046   3.052   5.302  3.3744 -0.7244  2.6820
  843MOL0     H13779   3.032   3.055   5.610 -1.3368 -0.8984 -0.2312
  843MOL0     H13780   3.082   2.912   5.522  1.9148  0.6080  0.7599
  843MOL0     H13781   3.213   3.183   5.489  1.8831  1.0307  3.3824
  843MOL0     H13782   3.275   3.024   5.428  2.4400  2.4879  0.5888
  843MOL0     H13783   3.281   2.961   5.670 -0.0789 -1.1006 -1.0612
  843MOL0     H13784   3.405   3.090   5.633  1.2514 -1.4491  1.4470
  843MOL0     H13785   2.623   3.097   5.727  0.1439 -0.1660  1.2591
  843MOL0     H13786   2.424   2.989   5.863 -1.1522  1.4850  0.4649
  843MOL0     H13787   2.135   2.759   5.876  0.2363  2.4203  1.2428
  843MOL0     H13788   1.999   2.599   6.001 -0.4420 -0.2091  1.7060
  843MOL0     H13789   1.218   3.671   5.482 -0.9681 -3.3796 -0.4262
  843MOL0     H13790   0.995   3.786   5.460  1.6074  2.4147 -0.3520
  843MOL0     H13791   0.479   3.724   5.614  1.3798  0.3478 -0.3256
  843MOL0     H13792   0.275   3.844   5.578 -0.9234  0.7022  2.5096
  843MOL0     H13793   0.092   4.027   5.595 -0.7924  0.8286 -0.6020
  843MOL0     H13794   0.098   3.995   5.416  1.1804 -0.7385 -0.2345
  843MOL0     H13795   0.098   4.237   5.374  0.0946  0.6869  0.5177
  843MOL0     H13796   0.066   4.252   5.546 -3.8393 -1.7247  1.8898
  843MOL0     H13797  -0.135   4.288   5.485  3.5951  1.4608 -1.6050
  843MOL0     H13798  -0.152   4.116   5.522  1.4026  1.5365  2.2374
  843MOL0     H13799  -0.180   4.069   5.303 -2.4292 -0.4836  0.0499
  843MOL0     H13800  -0.279   4.214   5.336 -0.3146 -0.8006  0.4856
  843MOL0     H13801  -0.014   4.346   5.029 -0.0310  2.1324  0.2376
  843MOL0     H13802   0.487   4.188   5.493  2.2645 -0.1990  3.6843
  843MOL0     H13803   0.786   4.074   5.452 -2.8090 -1.4443 -1.0185
  843MOL0     H13804   0.708   4.219   5.520 -0.5744 -0.8348 -2.1761
  843MOL0     H13805   0.791   4.108   5.624 -0.1879  1.2865  0.2276
  844MOL0     O13806   8.194   1.490   4.461  0.4511 -0.4000  0.1631
  844MOL0     C13807   8.100   1.547   4.515  0.1805  0.2218 -0.0203
  844MOL0     O13808   8.086   1.563   4.653 -0.3397  0.1162  0.1084
  844MOL0     C13809   8.185   1.546   4.748  0.6675 -0.1136 -0.8213
  844MOL0     C13810   8.147   1.550   4.882  0.4853 -0.1521  0.3137
  844MOL0     C13811   8.227   1.546   4.995 -0.3883 -0.3812 -0.4516
  844MOL0     C13812   8.361   1.524   4.977  1.1745 -0.1002  0.8680
  844MOL0     O13813   8.445   1.540   5.083 -0.4346  0.1887 -0.0477
  844MOL0     C13814   8.427   1.449   5.192  0.5650 -0.5570 -0.3159
  844MOL0     C13815   8.504   1.315   5.167  0.3616  0.0389  0.7740
  844MOL0     C13816   8.632   1.327   5.090  0.0802  0.0399 -0.0120
  844MOL0     C13817   8.713   1.209   5.123 -1.4264 -0.3948 -1.1776
  844MOL0     C13818   8.838   1.193   5.045 -0.4848 -0.9637 -0.4819
  844MOL0     C13819   8.926   1.075   5.089 -0.1525  0.3757  0.2899
  844MOL0     C13820   9.058   1.082   5.016  0.1322  0.2416  0.5436
  844MOL0     C13821   9.144   0.944   5.030  0.2606 -1.3940 -0.7977
  844MOL0     N13822   9.277   0.964   4.968 -0.5544  0.2403 -0.3071
  844MOL0     C13823   9.331   0.886   4.877 -0.5335  0.6298  0.8886
  844MOL0     C13824   9.458   0.933   4.856 -0.4375  0.6308  0.2211
  844MOL0     C13825   9.564   0.865   4.775  0.1053  0.4872  0.1869
  844MOL0     C13826   9.697   0.954   4.786  0.0226  0.8443  0.3187
  844MOL0     C13827   9.837   0.897   4.748  0.5982 -0.0802 -0.1381
  844MOL0     C13828   9.946   0.995   4.782  0.0800 -0.0711  1.4658
  844MOL0     O13829  10.070   0.936   4.738 -0.0588  0.1410  0.5585
  844MOL0     C13830  10.187   1.003   4.764 -0.1337  0.4964  1.5095
  844MOL0     C13831  10.194   1.121   4.835 -0.5581 -0.2245 -1.2118
  844MOL0     C13832  10.319   1.191   4.848 -0.4678 -1.0289  0.1736
  844MOL0     C13833  10.438   1.143   4.799  0.3864  0.9239 -0.2420
  844MOL0     C13834  10.570   1.208   4.828 -0.2044 -0.4692  0.2947
  844MOL0     O13835  10.679   1.172   4.752  0.6173 -0.8260 -0.9844
  844MOL0     C13836  10.802   1.232   4.756  0.0665  0.0653  0.1950
  844MOL0     C13837  10.883   1.219   4.648  0.5273  0.3037  0.1586
  844MOL0     C13838  11.014   1.256   4.656 -0.4848 -0.0316  0.5085
  844MOL0     C13839  11.072   1.312   4.774  1.0857 -0.1999  0.4098
  844MOL0     O13840  11.205   1.345   4.789 -0.3861 -0.3244 -0.3022
  844MOL0     C13841  11.294   1.323   4.677 -0.0878  0.1985 -0.0144
  844MOL0     C13842  11.427   1.393   4.697  1.3487  0.1100 -0.5390
  844MOL0     C13843  11.529   1.373   4.579 -0.0412  0.8296 -0.6461
  844MOL0     C13844  11.591   1.236   4.617  0.0437 -0.4709  0.4961
  844MOL0     C13845  11.694   1.200   4.509  0.3669 -0.6998 -0.3343
  844MOL0     C13846  11.823   1.281   4.499  0.3185  0.4578  0.5171
  844MOL0     C13847  11.920   1.286   4.620  0.1314  1.1131 -0.4419
  844MOL0     C13848  11.972   1.150   4.655 -0.0764 -0.0945  0.3923
  844MOL0    Cl13849  12.048   1.073   4.506 -0.0253  0.2181 -0.7079
  844MOL0     C13850  10.990   1.334   4.883 -0.4315  0.2965 -0.5770
  844MOL0     C13851  10.855   1.287   4.876 -1.1169  0.2977  0.1429
  844MOL0     O13852  10.569   1.305   4.904  0.5723  0.1233  0.3517
  844MOL0     C13853  10.433   1.021   4.726  0.0908 -0.3800 -0.1195
  844MOL0     C13854  10.308   0.954   4.717 -0.0500  0.3588  0.3323
  844MOL0     N13855   9.480   1.029   4.953 -0.2273  0.3320  0.6709
  844MOL0     N13856   9.373   1.047   5.008 -0.0768 -0.5129  0.0399
  844MOL0     C13857   8.404   1.516   4.848 -1.3163  0.4411  0.3931
  844MOL0     C13858   8.320   1.526   4.737 -0.6020  0.7856 -0.5736
  844MOL0     C13859   8.000   1.599   4.424 -0.0370  0.2460 -0.1415
  844MOL0     C13860   7.868   1.583   4.468 -0.3333 -0.4067  0.8353
  844MOL0     C13861   7.766   1.628   4.392 -0.0358  1.0516  0.1919
  844MOL0     C13862   7.785   1.690   4.268 -0.3793 -0.2104 -0.9533
  844MOL0     O13863   7.693   1.747   4.185  0.3164  0.0229 -0.3434
  844MOL0     C13864   7.554   1.751   4.208 -0.0456  0.6671 -0.9243
  844MOL0     C13865   7.476   1.819   4.098  0.1459  0.1435 -0.4427
  844MOL0     C13866   7.327   1.797   4.104  0.1396 -0.0295  0.6561
  844MOL0     C13867   7.260   1.773   3.963 -0.3820  1.1116 -0.0807
  844MOL0     C13868   7.130   1.706   3.954 -0.1247 -0.2495 -0.4520
  844MOL0     C13869   7.024   1.651   3.948 -0.6695  0.4268  0.5061
  844MOL0     C13870   7.918   1.700   4.223  0.3005  0.4306 -0.1692
  844MOL0     C13871   8.030   1.654   4.297  1.0513  0.0768  0.2048
  844MOL0     C13872   8.172   1.699   4.267  0.9758 -0.0672 -0.3843
  844MOL0     H13873   8.040   1.557   4.898  0.1467 -1.2643 -1.1771
  844MOL0     H13874   8.182   1.560   5.093  0.4832 -1.3561  0.1130
  844MOL0     H13875   8.479   1.506   5.270  1.1843 -1.5794  0.0372
  844MOL0     H13876   8.323   1.437   5.225  0.9369 -0.2102  1.0507
  844MOL0     H13877   8.435   1.246   5.119  1.6237 -3.1217  3.1253
  844MOL0     H13878   8.530   1.286   5.270 -0.6554 -0.2149  0.9651
  844MOL0     H13879   8.681   1.423   5.109  0.3610  0.0387 -0.6881
  844MOL0     H13880   8.604   1.332   4.985 -4.0579 -2.7840  0.7260
  844MOL0     H13881   8.736   1.220   5.229 -1.5092 -1.9755 -0.9772
  844MOL0     H13882   8.655   1.116   5.119  0.1730 -1.9302  4.0869
  844MOL0     H13883   8.807   1.189   4.940 -1.6791 -2.6621 -0.1187
  844MOL0     H13884   8.891   1.288   5.052  0.6518 -1.5113 -1.3185
  844MOL0     H13885   8.951   1.087   5.195  0.8362 -1.2506  0.2789
  844MOL0     H13886   8.869   0.982   5.077 -1.0174  0.7344  1.4062
  844MOL0     H13887   9.117   1.164   5.058 -0.0580  0.6811 -0.0295
  844MOL0     H13888   9.047   1.100   4.908 -1.9342 -3.9015 -0.1135
  844MOL0     H13889   9.159   0.935   5.138 -1.5664 -0.0724 -0.3865
  844MOL0     H13890   9.090   0.853   5.003 -0.1435 -1.5650  0.5581
  844MOL0     H13891   9.286   0.806   4.818  2.1675  0.7679 -1.6083
  844MOL0     H13892   9.572   0.772   4.833 -0.9998  0.8548  0.9722
  844MOL0     H13893   9.542   0.852   4.669  2.4260  1.4047 -0.4577
  844MOL0     H13894   9.682   1.048   4.732  0.0559  0.2314 -0.7858
  844MOL0     H13895   9.718   0.981   4.890  0.1847  1.6626  0.0869
  844MOL0     H13896   9.838   0.867   4.643 -4.7083  1.7526 -1.0239
  844MOL0     H13897   9.853   0.808   4.809 -0.7416  0.7944  1.5743
  844MOL0     H13898   9.951   1.009   4.891  0.8784  1.5052  1.2652
  844MOL0     H13899   9.926   1.087   4.727  2.5174 -0.3186  0.0204
  844MOL0     H13900  10.109   1.173   4.877  0.2992  0.9876 -0.9307
  844MOL0     H13901  10.321   1.279   4.911  0.9909 -3.1118  3.3262
  844MOL0     H13902  10.846   1.183   4.552 -2.1280  2.3868  0.2873
  844MOL0     H13903  11.076   1.235   4.569  0.4222  0.7796  0.9490
  844MOL0     H13904  11.286   1.215   4.662  1.3182  0.3216 -2.1468
  844MOL0     H13905  11.254   1.364   4.584  0.2332 -0.0353 -0.2573
  844MOL0     H13906  11.406   1.501   4.700 -2.2214 -0.3412 -2.9587
  844MOL0     H13907  11.455   1.358   4.796 -3.0476 -1.6135  0.3483
  844MOL0     H13908  11.483   1.368   4.480 -1.5724  0.5646  0.0328
  844MOL0     H13909  11.603   1.453   4.577  2.6556 -1.3634  2.0900
  844MOL0     H13910  11.508   1.165   4.619  0.4078 -0.8916  0.6762
  844MOL0     H13911  11.633   1.247   4.717  0.8771  0.0574  0.0968
  844MOL0     H13912  11.641   1.198   4.413 -2.1884 -3.2653  0.9869
  844MOL0     H13913  11.733   1.100   4.527 -0.5938 -0.7832  1.4889
  844MOL0     H13914  11.866   1.242   4.406 -3.3675  0.7647 -1.5047
  844MOL0     H13915  11.795   1.382   4.467 -1.0184  0.0538  0.3538
  844MOL0     H13916  11.876   1.333   4.707  1.8859 -1.0003  1.7275
  844MOL0     H13917  12.008   1.350   4.606  0.7364  0.9049  2.0027
  844MOL0     H13918  12.051   1.169   4.728 -1.6290  1.9104  1.6429
  844MOL0     H13919  11.895   1.083   4.693  0.6215 -1.9410 -1.2504
  844MOL0     H13920  11.013   1.372   4.981 -3.2456  0.4890  0.0893
  844MOL0     H13921  10.803   1.286   4.971 -2.5454  2.2019 -0.5532
  844MOL0     H13922  10.526   0.976   4.694 -0.0616 -0.3075 -0.6854
  844MOL0     H13923  10.300   0.862   4.660  0.3214  1.1018 -0.9634
  844MOL0     H13924   8.509   1.503   4.823 -1.6966 -1.0854 -0.5608
  844MOL0     H13925   8.367   1.521   4.640 -3.0226  2.5861 -1.9445
  844MOL0     H13926   7.843   1.520   4.554 -1.5614 -1.0391  0.0381
  844MOL0     H13927   7.661   1.621   4.421 -0.9268  3.9914 -1.9146
  844MOL0     H13928   7.539   1.817   4.294  0.0649  1.0768 -1.2162
  844MOL0     H13929   7.520   1.649   4.229 -1.5022  1.2157 -0.4690
  844MOL0     H13930   7.514   1.774   4.005 -1.4078  0.0427 -1.0520
  844MOL0     H13931   7.508   1.923   4.096  1.9891 -0.3681 -3.5466
  844MOL0     H13932   7.282   1.883   4.154  0.1964  0.2989  0.1490
  844MOL0     H13933   7.310   1.712   4.171 -1.1707 -1.7971 -1.7455
  844MOL0     H13934   7.252   1.866   3.906 -0.2603  0.6567 -0.8566
  844MOL0     H13935   7.314   1.696   3.908  1.8818  1.8585  0.9983
  844MOL0     H13936   6.926   1.608   3.950  0.1405 -1.7395 -1.6065
  844MOL0     H13937   7.928   1.741   4.123 -1.5688  1.3944 -0.0050
  844MOL0     H13938   8.168   1.798   4.221 -1.0359  0.3638  0.5794
  844MOL0     H13939   8.223   1.713   4.363 -3.5214 -1.6783  2.6327
  844MOL0     H13940   8.214   1.619   4.206 -1.8010 -0.4021 -2.0137
  845MOL0     O13941   3.301   3.097  11.303  0.1235  0.0210 -0.7483
  845MOL0     C13942   3.181   3.124  11.314 -0.0451 -1.0032 -0.4735
  845MOL0     O13943   3.138   3.250  11.347 -0.5265  0.0099 -0.3880
  845MOL0     C13944   3.231   3.351  11.341  0.0204 -0.1053 -0.0125
  845MOL0     C13945   3.282   3.418  11.452 -0.1928 -0.2521  0.4178
  845MOL0     C13946   3.354   3.533  11.431 -0.3366 -0.0202 -0.5452
  845MOL0     C13947   3.402   3.576  11.307  0.5014 -0.8740 -0.3974
  845MOL0     O13948   3.482   3.682  11.303 -0.7459  0.4476 -0.2084
  845MOL0     C13949   3.523   3.728  11.176 -0.1543  0.1014  0.0379
  845MOL0     C13950   3.620   3.852  11.170 -0.7495 -0.2948  0.0685
  845MOL0     C13951   3.736   3.861  11.260 -0.2568  0.3969 -0.6503
  845MOL0     C13952   3.789   4.012  11.288  0.9216 -0.0950  0.0637
  845MOL0     C13953   3.891   4.008  11.394  0.3326 -0.1696 -0.8624
  845MOL0     C13954   3.975   4.142  11.397  0.3923  0.1488  0.3645
  845MOL0     C13955   4.095   4.136  11.498 -0.3730 -0.7882  0.2831
  845MOL0     C13956   4.059   4.127  11.649  1.0646  0.0660 -0.3838
  845MOL0     N13957   3.991   4.249  11.690  0.0265 -0.4586  0.5259
  845MOL0     C13958   4.064   4.367  11.699  0.4394 -0.1133 -0.2531
  845MOL0     C13959   3.972   4.452  11.740  0.5974 -0.5133 -0.5105
  845MOL0     C13960   4.008   4.591  11.786 -0.1869 -0.1230  0.2910
  845MOL0     C13961   4.103   4.591  11.911 -0.4437 -0.9608  0.1017
  845MOL0     C13962   4.068   4.708  12.000  0.0022 -0.5496  0.3164
  845MOL0     C13963   4.170   4.719  12.119  0.8754  1.1066 -0.0564
  845MOL0     O13964   4.296   4.762  12.066  0.5900  0.0301 -0.4375
  845MOL0     C13965   4.410   4.778  12.139  0.7832 -0.7611  0.3850
  845MOL0     C13966   4.526   4.806  12.070  0.5081  0.6564 -1.1367
  845MOL0     C13967   4.649   4.806  12.132 -0.6314  0.4523  0.7611
  845MOL0     C13968   4.653   4.781  12.275  0.6603  0.1157  0.0156
  845MOL0     C13969   4.778   4.779  12.351  0.3668 -0.8592 -0.1565
  845MOL0     O13970   4.889   4.756  12.283  0.2277 -0.4826 -0.2289
  845MOL0     C13971   5.002   4.788  12.349 -0.1253 -0.7291  0.2204
  845MOL0     C13972   5.071   4.888  12.285  0.3229  0.2955  0.2820
  845MOL0     C13973   5.199   4.925  12.339 -1.3801 -0.3365  0.6776
  845MOL0     C13974   5.255   4.867  12.460  0.5988 -0.8069 -0.3707
  845MOL0     O13975   5.378   4.902  12.520  0.5654 -0.2994  0.8076
  845MOL0     C13976   5.456   5.012  12.460  0.0677  0.5927 -0.9046
  845MOL0     C13977   5.542   5.065  12.584  0.3993  0.5748 -0.5306
  845MOL0     C13978   5.647   5.182  12.562  1.0402 -0.5298 -0.6025
  845MOL0     C13979   5.708   5.237  12.702  0.0827 -0.5339  0.2462
  845MOL0     C13980   5.802   5.147  12.782 -0.5928  0.9531 -0.4881
  845MOL0     C13981   5.948   5.173  12.752  0.4537 -1.3300  0.7898
  845MOL0     C13982   6.047   5.066  12.799  0.6324  0.6817  0.3677
  845MOL0     C13983   6.104   5.088  12.938 -0.1791  0.0313  0.0623
  845MOL0    Cl13984   6.209   5.241  12.937 -0.3610  0.6147 -0.1870
  845MOL0     C13985   5.173   4.769  12.519 -0.3874 -0.0301 -0.8614
  845MOL0     C13986   5.050   4.735  12.465 -0.0435 -0.1399  0.0341
  845MOL0     O13987   4.769   4.811  12.468 -0.2122 -0.1927 -0.8721
  845MOL0     C13988   4.532   4.761  12.347 -0.2839 -0.9055 -1.2177
  845MOL0     C13989   4.409   4.760  12.282 -0.4957 -0.2909  0.2531
  845MOL0     N13990   3.849   4.384  11.776  0.2222 -0.1811  0.2273
  845MOL0     N13991   3.861   4.265  11.732 -0.9644  0.4211 -0.7105
  845MOL0     C13992   3.363   3.503  11.195  0.2925 -0.0686 -0.0968
  845MOL0     C13993   3.276   3.391  11.211  0.6434  0.2500 -0.6820
  845MOL0     C13994   3.075   3.026  11.281  0.4352  0.4630 -0.7181
  845MOL0     C13995   2.941   3.070  11.267  0.4874 -0.3326 -0.8721
  845MOL0     C13996   2.841   2.981  11.236  0.1295  0.3464  0.3032
  845MOL0     C13997   2.865   2.841  11.240 -0.2339 -1.3661  0.2430
  845MOL0     O13998   2.750   2.779  11.224  0.6028  0.0901  0.5321
  845MOL0     C13999   2.737   2.640  11.180 -0.4614  0.3898 -0.8190
  845MOL0     C14000   2.767   2.629  11.029  0.2921 -0.3776  0.0700
  845MOL0     C14001   2.638   2.657  10.944  0.3203  0.4954  0.7223
  845MOL0     C14002   2.665   2.730  10.812  0.3753  0.3480  0.0884
  845MOL0     C14003   2.758   2.660  10.725  0.1832 -0.0830 -0.0407
  845MOL0     C14004   2.823   2.593  10.652  0.8289  0.4609 -0.3546
  845MOL0     C14005   2.988   2.783  11.257 -0.4608  0.0934 -0.0774
  845MOL0     C14006   3.093   2.878  11.273 -0.2280 -0.3609 -1.0009
  845MOL0     C14007   3.218   2.817  11.319 -0.1131 -0.1182  0.4422
  845MOL0     H14008   3.263   3.391  11.556 -1.7494  1.7942  0.7404
  845MOL0     H14009   3.398   3.591  11.511  3.5314 -2.6160 -0.5475
  845MOL0     H14010   3.577   3.646  11.128 -2.8647 -1.0751 -1.2504
  845MOL0     H14011   3.435   3.743  11.112  0.8366 -2.7296 -2.2251
  845MOL0     H14012   3.559   3.937  11.204 -0.4514 -0.2670  0.5419
  845MOL0     H14013   3.639   3.863  11.063  0.3455 -1.4097  0.1339
  845MOL0     H14014   3.809   3.789  11.225 -1.2177 -0.2602 -1.3436
  845MOL0     H14015   3.709   3.818  11.357  1.9644 -0.2775 -0.2820
  845MOL0     H14016   3.831   4.050  11.194 -2.4578  0.8855 -1.1763
  845MOL0     H14017   3.705   4.078  11.309 -1.2276 -1.6549 -2.8931
  845MOL0     H14018   3.850   4.000  11.495 -1.6498  4.0477 -1.1175
  845MOL0     H14019   3.967   3.930  11.380  0.1286 -0.4940 -0.2334
  845MOL0     H14020   4.016   4.158  11.297 -1.9135 -0.8062 -0.8080
  845MOL0     H14021   3.909   4.223  11.431  0.4390  0.1997  0.3329
  845MOL0     H14022   4.155   4.227  11.485 -2.8470  0.6146 -2.2920
  845MOL0     H14023   4.152   4.044  11.482 -0.3411 -0.5081 -1.4043
  845MOL0     H14024   3.982   4.049  11.655 -0.1044  0.9650 -2.6084
  845MOL0     H14025   4.144   4.106  11.715  1.1122 -0.5288 -0.6251
  845MOL0     H14026   4.171   4.376  11.682  0.6637  1.6990  1.7678
  845MOL0     H14027   4.067   4.651  11.717 -0.1713  0.1379  0.5302
  845MOL0     H14028   3.916   4.647  11.803 -0.0709  0.5085 -1.0797
  845MOL0     H14029   4.090   4.496  11.963 -0.1679 -0.0643  1.8917
  845MOL0     H14030   4.208   4.598  11.882 -0.9428 -0.5970 -1.7558
  845MOL0     H14031   3.963   4.699  12.029 -0.0030 -1.4652  0.0463
  845MOL0     H14032   4.069   4.804  11.947  1.3329 -1.0510 -0.6045
  845MOL0     H14033   4.179   4.625  12.174  0.2861  1.8790  1.4115
  845MOL0     H14034   4.127   4.797  12.184 -1.0199 -0.9401  1.2793
  845MOL0     H14035   4.519   4.815  11.962  1.6665  0.7391 -1.2210
  845MOL0     H14036   4.737   4.822  12.070 -1.4070 -1.7759 -1.0102
  845MOL0     H14037   5.017   4.943  12.208 -0.1156 -1.3858 -0.6600
  845MOL0     H14038   5.254   4.996  12.277  0.8030 -2.0424  0.5472
  845MOL0     H14039   5.520   4.980  12.378 -1.1584  0.9521 -2.0470
  845MOL0     H14040   5.393   5.094  12.425 -2.1186 -0.9453 -0.8258
  845MOL0     H14041   5.470   5.094  12.662 -1.4623 -1.1012 -1.5212
  845MOL0     H14042   5.594   4.980  12.630 -1.7078 -0.8942 -0.6848
  845MOL0     H14043   5.731   5.159  12.495  1.3825  0.5920 -0.5822
  845MOL0     H14044   5.592   5.269  12.526 -0.0551  0.2459  2.6066
  845MOL0     H14045   5.613   5.251  12.754 -0.0212  1.2742 -0.3541
  845MOL0     H14046   5.758   5.333  12.688 -0.7310 -0.0127  0.8385
  845MOL0     H14047   5.767   5.046  12.756  2.4587 -1.0233  2.1932
  845MOL0     H14048   5.781   5.153  12.890  0.8826 -2.5886  0.1475
  845MOL0     H14049   5.966   5.183  12.645  1.6604 -3.3865  0.7556
  845MOL0     H14050   5.981   5.263  12.805  1.8422 -2.8065  2.6017
  845MOL0     H14051   6.131   5.052  12.730 -0.9179 -2.6022 -1.0258
  845MOL0     H14052   5.989   4.974  12.799  2.9700 -0.8998 -0.8302
  845MOL0     H14053   6.016   5.099  13.003  0.3364  2.0652  0.4797
  845MOL0     H14054   6.162   5.001  12.971 -0.8672 -0.7604 -0.7740
  845MOL0     H14055   5.214   4.722  12.608  0.2448  0.3590 -0.9358
  845MOL0     H14056   4.999   4.655  12.517 -0.2674  1.3962  2.3606
  845MOL0     H14057   4.538   4.760  12.455 -0.3687 -0.9612 -1.2130
  845MOL0     H14058   4.317   4.741  12.336 -0.3109 -2.0545  0.0133
  845MOL0     H14059   3.381   3.533  11.092  0.1289  0.6331  0.0714
  845MOL0     H14060   3.224   3.340  11.131  0.5297  1.7927 -1.6202
  845MOL0     H14061   2.912   3.175  11.260  4.1516  0.7146 -3.2638
  845MOL0     H14062   2.747   3.030  11.212  1.0107  2.4516  0.9853
  845MOL0     H14063   2.633   2.612  11.198 -0.6595  0.7501 -1.3743
  845MOL0     H14064   2.803   2.585  11.248 -2.6244 -0.7771  0.4783
  845MOL0     H14065   2.790   2.525  11.006 -0.2211 -0.6535  0.7606
  845MOL0     H14066   2.854   2.689  11.001  1.1900 -0.8449  1.7059
  845MOL0     H14067   2.572   2.716  11.008  0.0009 -1.2353  2.0386
  845MOL0     H14068   2.599   2.559  10.917  0.6698  0.7865 -0.9319
  845MOL0     H14069   2.571   2.714  10.758  1.0941 -2.5490 -0.4537
  845MOL0     H14070   2.671   2.839  10.821  2.3583  0.5843 -2.6441
  845MOL0     H14071   2.876   2.534  10.580  2.0151 -0.2442  1.0331
  845MOL0     H14072   2.991   2.675  11.249 -1.4831  0.0790 -0.4937
  845MOL0     H14073   3.306   2.835  11.257  0.2308 -0.6955  0.7595
  845MOL0     H14074   3.233   2.853  11.422 -3.0083 -1.4339  1.4266
  845MOL0     H14075   3.203   2.709  11.326 -0.1458 -0.1377  0.0494
  846MOL0     O14076   9.683   7.029   7.029  0.7625 -0.1221  0.1887
  846MOL0     C14077   9.650   6.912   7.076 -0.6830 -0.2671  0.3992
  846MOL0     O14078   9.736   6.826   7.130  0.3659  0.3558 -0.4737
  846MOL0     C14079   9.863   6.845   7.115  0.0817 -0.0653  0.3626
  846MOL0     C14080   9.927   6.827   6.988  0.0692  0.2395  0.5006
  846MOL0     C14081  10.071   6.834   6.966  1.1697  0.1479  0.7724
  846MOL0     C14082  10.145   6.876   7.079 -0.2248  0.9599  0.5014
  846MOL0     O14083  10.280   6.881   7.064 -0.3182  0.7699  0.1109
  846MOL0     C14084  10.341   7.002   7.131  0.1358 -0.2874  0.2877
  846MOL0     C14085  10.441   6.957   7.240  0.2395  0.6363  0.1218
  846MOL0     C14086  10.589   6.944   7.205 -0.5415 -0.3037  0.2094
  846MOL0     C14087  10.627   6.823   7.118  0.2348 -0.7403 -0.7485
  846MOL0     C14088  10.777   6.816   7.102  0.4953 -0.7043  0.5016
  846MOL0     C14089  10.825   6.670   7.107 -0.3017  0.7306  0.2676
  846MOL0     C14090  10.974   6.676   7.078 -0.5813 -0.1712 -0.1893
  846MOL0     C14091  11.034   6.535   7.067  0.8154 -0.2189 -0.3401
  846MOL0     N14092  11.178   6.528   7.096 -0.5161 -0.8797 -0.4029
  846MOL0     C14093  11.240   6.588   7.210 -0.7308 -0.3852 -0.3059
  846MOL0     C14094  11.373   6.580   7.189  0.2722  0.3707  0.6091
  846MOL0     C14095  11.486   6.626   7.280  1.2739 -0.5415 -0.0109
  846MOL0     C14096  11.628   6.589   7.231  0.3258 -0.2916  0.2209
  846MOL0     C14097  11.720   6.551   7.354  0.6200 -0.7017 -0.1126
  846MOL0     C14098  11.850   6.603   7.324 -0.2440  0.3260  0.6089
  846MOL0     O14099  11.942   6.590   7.435 -0.4293  0.4884 -0.1707
  846MOL0     C14100  12.042   6.678   7.431 -0.7325 -0.1519 -0.0339
  846MOL0     C14101  12.110   6.706   7.311 -0.9778  0.3635  0.4978
  846MOL0     C14102  12.219   6.795   7.324 -0.1137  0.4059 -0.4213
  846MOL0     C14103  12.262   6.852   7.444  0.3078  0.1436  1.4378
  846MOL0     C14104  12.368   6.963   7.452  0.1731  1.4209 -0.2489
  846MOL0     O14105  12.397   7.004   7.581  0.6369 -0.0832  0.4171
  846MOL0     C14106  12.482   7.115   7.589 -0.0504  0.7255 -1.1870
  846MOL0     C14107  12.614   7.118   7.540  0.8170 -0.1423  0.0471
  846MOL0     C14108  12.696   7.234   7.538  0.0332 -0.2512 -0.3889
  846MOL0     C14109  12.649   7.346   7.594 -0.8423  0.6482 -0.3763
  846MOL0     O14110  12.740   7.449   7.594  0.2183 -0.3313 -0.0991
  846MOL0     C14111  12.696   7.577   7.654 -0.1881  0.1337  0.3453
  846MOL0     C14112  12.824   7.666   7.649  0.5992  0.1301  0.5776
  846MOL0     C14113  12.791   7.814   7.664 -0.0669  0.3843  0.2941
  846MOL0     C14114  12.893   7.902   7.717 -1.1466 -0.3717  0.7809
  846MOL0     C14115  13.017   7.908   7.636 -0.4552  0.0992  0.1469
  846MOL0     C14116  13.099   8.026   7.692  0.2158 -0.4687 -0.5791
  846MOL0     C14117  13.231   8.046   7.615 -1.2443 -0.0590 -0.0759
  846MOL0     C14118  13.312   8.160   7.685 -0.2022  0.1733  0.7634
  846MOL0    Cl14119  13.475   8.174   7.618  0.2078  0.0068  0.2506
  846MOL0     C14120  12.515   7.344   7.652  0.1299 -0.1203  0.0879
  846MOL0     C14121  12.435   7.233   7.642  0.0937 -1.0426  0.0494
  846MOL0     O14122  12.418   7.005   7.349 -0.4905  0.2817 -0.2531
  846MOL0     C14123  12.189   6.821   7.557 -0.5014 -0.4027 -0.0060
  846MOL0     C14124  12.079   6.736   7.551  0.1548  0.1872 -0.1415
  846MOL0     N14125  11.396   6.514   7.069 -0.8617  0.2602  0.4511
  846MOL0     N14126  11.277   6.484   7.017 -0.6927 -0.3995  0.2647
  846MOL0     C14127  10.080   6.897   7.202  0.5437  0.1246 -0.3209
  846MOL0     C14128   9.941   6.874   7.222 -0.6156  0.7283 -0.7685
  846MOL0     C14129   9.516   6.868   7.065  0.2987  0.1468 -0.0016
  846MOL0     C14130   9.419   6.967   7.071  0.0882 -0.4941 -1.3025
  846MOL0     C14131   9.283   6.942   7.056 -0.0847 -0.3055  0.4026
  846MOL0     C14132   9.240   6.813   7.035  0.1722  0.0343 -0.6226
  846MOL0     O14133   9.110   6.778   7.018 -0.5361  0.4208  0.0773
  846MOL0     C14134   9.066   6.647   6.971 -0.5780 -0.4093  0.4690
  846MOL0     C14135   9.078   6.644   6.826  0.2296 -1.3788  0.2533
  846MOL0     C14136   8.966   6.704   6.736  1.1305  0.5186 -0.2147
  846MOL0     C14137   8.890   6.605   6.645 -0.7571  0.4922  0.1560
  846MOL0     C14138   8.811   6.504   6.726 -0.4042 -0.0098  0.2397
  846MOL0     C14139   8.762   6.430   6.807  0.2249 -0.1007 -0.8973
  846MOL0     C14140   9.336   6.710   7.045 -0.2740  0.0999  0.3270
  846MOL0     C14141   9.480   6.733   7.051 -0.3098  0.3958  0.4222
  846MOL0     C14142   9.560   6.610   7.034  0.3465  0.1482 -0.2693
  846MOL0     H14143   9.871   6.808   6.897 -0.7922  0.9109  0.8732
  846MOL0     H14144  10.125   6.826   6.872  0.4602  4.9467 -0.3112
  846MOL0     H14145  10.401   7.060   7.060  1.8098 -0.5660  1.4066
  846MOL0     H14146  10.270   7.068   7.182 -0.2329 -2.1697  2.3869
  846MOL0     H14147  10.409   6.857   7.270 -0.1714  0.9639  0.7989
  846MOL0     H14148  10.435   7.028   7.323  2.0978  3.0659 -1.6666
  846MOL0     H14149  10.638   6.927   7.301 -2.0470 -2.6804  0.6368
  846MOL0     H14150  10.632   7.033   7.159  0.4542 -0.6587  0.4340
  846MOL0     H14151  10.574   6.740   7.165 -0.8957 -0.4654 -1.4875
  846MOL0     H14152  10.579   6.836   7.020 -2.5964 -2.7769  0.2372
  846MOL0     H14153  10.817   6.867   7.014  1.1961  0.1530  1.2866
  846MOL0     H14154  10.819   6.870   7.188 -3.0529  0.8773  1.4481
  846MOL0     H14155  10.807   6.617   7.201  1.5262 -1.0585 -0.3148
  846MOL0     H14156  10.776   6.611   7.030  0.4434  0.1680  0.2112
  846MOL0     H14157  11.019   6.731   7.161 -0.2706  0.4713 -0.7738
  846MOL0     H14158  10.992   6.736   6.989 -0.1002  3.8434  2.3893
  846MOL0     H14159  10.982   6.472   7.139  1.4783  1.8859  2.1332
  846MOL0     H14160  11.031   6.489   6.968  0.3629 -1.1258  0.0831
  846MOL0     H14161  11.188   6.624   7.299  1.3499 -1.3952  1.4031
  846MOL0     H14162  11.483   6.735   7.285 -2.7431 -0.5644  2.6361
  846MOL0     H14163  11.471   6.577   7.377 -1.4639 -0.7951 -0.4793
  846MOL0     H14164  11.617   6.497   7.173 -1.7269  1.9297 -3.3567
  846MOL0     H14165  11.680   6.669   7.177 -0.5555  0.4732  0.4810
  846MOL0     H14166  11.714   6.442   7.364  1.9696 -0.7381  0.5095
  846MOL0     H14167  11.694   6.594   7.451  2.0110  0.8130 -0.3707
  846MOL0     H14168  11.834   6.709   7.305  0.2112  0.0777 -1.4005
  846MOL0     H14169  11.898   6.559   7.236  0.9845 -1.9196  2.2736
  846MOL0     H14170  12.105   6.648   7.219 -0.0373  0.0738  0.6249
  846MOL0     H14171  12.265   6.821   7.229  2.2299  1.0082  0.7923
  846MOL0     H14172  12.655   7.026   7.498  2.5038 -0.8584  2.9649
  846MOL0     H14173  12.788   7.239   7.481 -0.1320  0.6493 -0.5872
  846MOL0     H14174  12.617   7.625   7.597  0.0433  0.8737  0.6414
  846MOL0     H14175  12.669   7.558   7.758 -0.6600 -0.2043  0.1652
  846MOL0     H14176  12.887   7.647   7.736 -0.5711 -1.4497  1.1391
  846MOL0     H14177  12.876   7.651   7.555  0.7717  0.4545  0.6205
  846MOL0     H14178  12.769   7.846   7.561  4.2657  2.7368 -0.1369
  846MOL0     H14179  12.693   7.823   7.712 -0.6153 -0.9208 -0.5085
  846MOL0     H14180  12.924   7.871   7.818 -2.8693  0.0238  1.4764
  846MOL0     H14181  12.842   7.999   7.723 -2.9021 -1.0091 -1.9988
  846MOL0     H14182  13.001   7.924   7.529 -0.4509 -0.1582  0.1088
  846MOL0     H14183  13.071   7.815   7.653 -1.5658 -0.3568  1.3274
  846MOL0     H14184  13.034   8.112   7.673  0.9931  0.2311 -0.1189
  846MOL0     H14185  13.119   8.009   7.798  0.1840 -0.7267 -0.6143
  846MOL0     H14186  13.207   8.083   7.515  0.1504 -2.0100 -1.2049
  846MOL0     H14187  13.279   7.947   7.618  2.4170  1.5365 -0.0699
  846MOL0     H14188  13.254   8.253   7.675 -0.0758  0.5819  3.2918
  846MOL0     H14189  13.320   8.151   7.793  0.0352 -0.7238  0.6728
  846MOL0     H14190  12.461   7.425   7.700 -0.1127  1.2430 -2.3459
  846MOL0     H14191  12.332   7.255   7.669 -0.2700  0.1198 -2.0760
  846MOL0     H14192  12.211   6.873   7.649  0.3517 -1.9990  0.7251
  846MOL0     H14193  12.019   6.699   7.633 -0.9689 -2.3957 -1.9575
  846MOL0     H14194  10.143   6.931   7.284 -3.0690 -1.5951  3.6004
  846MOL0     H14195   9.886   6.901   7.312  1.3633  1.1092  0.3674
  846MOL0     H14196   9.436   7.074   7.082 -1.9126 -0.1941 -0.7540
  846MOL0     H14197   9.212   7.023   7.046  0.0295 -0.2356  0.1266
  846MOL0     H14198   8.960   6.633   6.993 -1.6370  4.5001 -0.3382
  846MOL0     H14199   9.114   6.557   7.009  1.3848 -0.7063 -2.4099
  846MOL0     H14200   9.082   6.538   6.799  0.9080 -1.0889 -0.8645
  846MOL0     H14201   9.167   6.698   6.791  0.3311 -0.5839  1.6875
  846MOL0     H14202   9.010   6.787   6.680 -0.8116  1.6094 -0.2455
  846MOL0     H14203   8.884   6.752   6.791 -2.9522 -0.7243 -4.5077
  846MOL0     H14204   8.825   6.673   6.590 -1.4232  0.1458  0.4972
  846MOL0     H14205   8.958   6.556   6.575  1.0090  1.2607  1.2523
  846MOL0     H14206   8.717   6.362   6.876  0.4615 -0.0036 -0.6451
  846MOL0     H14207   9.304   6.607   7.030 -0.5234  0.4275 -1.7322
  846MOL0     H14208   9.521   6.530   7.096  0.5098  0.1374 -0.1789
  846MOL0     H14209   9.552   6.581   6.929 -3.8342  1.2963 -0.4146
  846MOL0     H14210   9.667   6.619   7.054  1.1826  2.8033 -4.4555
  847MOL0     O14211   4.008   2.239  10.906  0.6223 -0.1154 -0.7475
  847MOL0     C14212   4.068   2.339  10.944  0.4095  0.2375 -0.1318
  847MOL0     O14213   4.183   2.390  10.893  0.2680  0.8211  0.1740
  847MOL0     C14214   4.235   2.324  10.784  0.4640  0.7246 -0.2342
  847MOL0     C14215   4.324   2.216  10.787 -0.1890  0.0825 -0.5404
  847MOL0     C14216   4.401   2.189  10.670  0.1450 -0.4593  0.3658
  847MOL0     C14217   4.389   2.263  10.550  0.6167  0.1584  0.2938
  847MOL0     O14218   4.471   2.251  10.436  0.5520  0.4562 -0.5381
  847MOL0     C14219   4.612   2.235  10.455 -0.0644 -0.4095 -0.4490
  847MOL0     C14220   4.684   2.371  10.476 -0.5501 -0.2127  0.3708
  847MOL0     C14221   4.836   2.362  10.461  0.1277 -0.6170  0.9805
  847MOL0     C14222   4.881   2.495  10.533 -0.4418  1.2871  0.3477
  847MOL0     C14223   5.034   2.483  10.527 -0.5561 -0.2917  1.0777
  847MOL0     C14224   5.093   2.616  10.558 -0.2466 -0.1906  0.1416
  847MOL0     C14225   5.243   2.603  10.544  0.8572 -0.1721 -0.0536
  847MOL0     C14226   5.311   2.736  10.558  0.0581  0.5417  0.0612
  847MOL0     N14227   5.452   2.739  10.529  0.6040 -0.0348  0.6975
  847MOL0     C14228   5.511   2.662  10.431 -0.4302  0.1511  0.3047
  847MOL0     C14229   5.643   2.699  10.429  0.0358  1.1645  0.1156
  847MOL0     C14230   5.748   2.614  10.356 -0.7910  0.0993 -0.3280
  847MOL0     C14231   5.889   2.651  10.399  0.4803 -0.0864  0.2583
  847MOL0     C14232   5.995   2.559  10.336 -0.3061  0.3298  0.1631
  847MOL0     C14233   6.141   2.597  10.375  0.0823 -0.0688 -0.4553
  847MOL0     O14234   6.226   2.489  10.340 -0.5577 -0.4747 -0.2864
  847MOL0     C14235   6.309   2.518  10.232  0.5869  0.0763 -0.4263
  847MOL0     C14236   6.438   2.561  10.257  0.2200  1.3631  0.4468
  847MOL0     C14237   6.531   2.577  10.150  0.1725 -0.0028 -1.2716
  847MOL0     C14238   6.489   2.548  10.022  0.7714 -1.0767 -0.2571
  847MOL0     C14239   6.589   2.541   9.914 -0.2451 -0.1111  0.4452
  847MOL0     O14240   6.717   2.523   9.947  0.0116 -0.0021  0.6812
  847MOL0     C14241   6.820   2.544   9.859 -0.6357  0.6853  0.1663
  847MOL0     C14242   6.847   2.473   9.747 -0.4170  0.1151  0.5451
  847MOL0     C14243   6.954   2.492   9.660 -0.1325 -0.0767  0.2839
  847MOL0     C14244   7.041   2.597   9.699 -0.0267  0.0175  0.0347
  847MOL0     O14245   7.165   2.624   9.656  0.3011  0.2299  0.0506
  847MOL0     C14246   7.204   2.584   9.530  0.5970 -0.1111  0.1829
  847MOL0     C14247   7.361   2.600   9.520 -0.3314  0.5570 -0.8256
  847MOL0     C14248   7.382   2.753   9.527  1.3030 -0.0676  1.3009
  847MOL0     C14249   7.515   2.767   9.604 -0.3472  0.1105  0.1267
  847MOL0     C14250   7.551   2.917   9.619  0.7083 -0.6757 -0.4915
  847MOL0     C14251   7.686   2.948   9.643 -0.1396 -0.2815 -0.2584
  847MOL0     C14252   7.739   2.880   9.773 -0.2491  1.1028  0.5710
  847MOL0     C14253   7.888   2.883   9.772 -0.5817 -0.0919 -0.2673
  847MOL0    Cl14254   7.951   3.023   9.860  0.0077  0.0070  0.3844
  847MOL0     C14255   7.011   2.672   9.815  0.2707 -0.4370 -0.0956
  847MOL0     C14256   6.900   2.651   9.894  0.1032  0.0560 -0.5869
  847MOL0     O14257   6.556   2.566   9.803  0.3873  0.1722  0.7243
  847MOL0     C14258   6.355   2.519   9.999 -0.0701  1.2363  0.5936
  847MOL0     C14259   6.263   2.502  10.101  0.2701  0.0771  0.0818
  847MOL0     N14260   5.664   2.806  10.516  0.5239 -0.3077  0.0619
  847MOL0     N14261   5.546   2.831  10.566 -0.3677 -0.5264  0.5483
  847MOL0     C14262   4.300   2.371  10.553  0.2291 -0.0494 -0.0689
  847MOL0     C14263   4.219   2.401  10.671  0.2965 -1.3166  0.3602
  847MOL0     C14264   4.003   2.422  11.054 -0.4757  0.6290  0.2721
  847MOL0     C14265   4.079   2.520  11.114 -0.4929  0.7136  0.6292
  847MOL0     C14266   4.042   2.579  11.233  0.2291  0.0668 -0.3732
  847MOL0     C14267   3.911   2.560  11.283 -0.9123 -0.4281 -0.5654
  847MOL0     O14268   3.886   2.607  11.405  0.3688  0.4709 -0.6080
  847MOL0     C14269   3.892   2.753  11.420  0.2558  0.8313  0.5436
  847MOL0     C14270   3.854   2.795  11.557 -0.1214 -0.6144 -0.1229
  847MOL0     C14271   3.730   2.731  11.618  0.4432 -0.1343  0.3468
  847MOL0     C14272   3.667   2.797  11.744 -0.8526  0.3820  0.5764
  847MOL0     C14273   3.577   2.701  11.801 -0.5457 -0.7524  0.7356
  847MOL0     C14274   3.495   2.639  11.859  0.2395  0.5564  0.4686
  847MOL0     C14275   3.833   2.473  11.216 -0.2466  0.6379  0.1636
  847MOL0     C14276   3.873   2.401  11.100 -0.3511 -0.5938 -0.0464
  847MOL0     C14277   3.770   2.321  11.031  0.3136  0.2197 -0.4564
  847MOL0     H14278   4.334   2.162  10.881  5.8846  2.5939  0.6856
  847MOL0     H14279   4.470   2.105  10.677  1.4342  0.1231 -3.2804
  847MOL0     H14280   4.644   2.173  10.539 -0.5115  0.5680  0.4609
  847MOL0     H14281   4.649   2.179  10.368 -0.1196  1.3867 -1.6781
  847MOL0     H14282   4.650   2.406  10.574 -1.4648 -2.0525  0.7506
  847MOL0     H14283   4.634   2.426  10.396  1.3945  0.0817 -0.6985
  847MOL0     H14284   4.876   2.356  10.360 -0.3906  0.4249  0.7039
  847MOL0     H14285   4.866   2.269  10.512  0.2769 -1.9914 -1.4585
  847MOL0     H14286   4.843   2.584  10.482  2.2776  3.0643  1.2323
  847MOL0     H14287   4.854   2.489  10.639  0.9406  2.8622  0.8304
  847MOL0     H14288   5.068   2.411  10.603 -1.5240 -0.2122  1.6057
  847MOL0     H14289   5.075   2.456  10.429  0.0020 -2.2346  1.7891
  847MOL0     H14290   5.043   2.694  10.500  1.3402  1.9660  1.5563
  847MOL0     H14291   5.075   2.644  10.662  0.5572  2.3886 -0.3475
  847MOL0     H14292   5.266   2.559  10.447 -0.9779  0.9673 -1.0762
  847MOL0     H14293   5.279   2.543  10.628  1.0153  0.9223  0.6830
  847MOL0     H14294   5.263   2.801  10.483  0.8127  1.4457  0.3481
  847MOL0     H14295   5.299   2.785  10.654  0.6161  3.1273 -1.1086
  847MOL0     H14296   5.456   2.585  10.378 -0.4185 -0.5552  1.3038
  847MOL0     H14297   5.732   2.507  10.374  0.5760  0.0545  0.8399
  847MOL0     H14298   5.735   2.633  10.249  1.6459  2.7711 -0.2788
  847MOL0     H14299   5.907   2.759  10.390  2.3684 -0.4639 -1.0812
  847MOL0     H14300   5.896   2.609  10.499  1.3722 -0.3698  0.0810
  847MOL0     H14301   6.002   2.571  10.228 -1.0755  1.1314  0.1925
  847MOL0     H14302   5.966   2.456  10.355  0.4337  0.3748  1.7189
  847MOL0     H14303   6.138   2.619  10.483 -0.8407 -1.6219 -0.1413
  847MOL0     H14304   6.172   2.694  10.335 -0.8346  1.4683  2.2620
  847MOL0     H14305   6.473   2.573  10.359  0.4230 -1.1889  0.7241
  847MOL0     H14306   6.634   2.606  10.170 -0.1306 -0.4206  1.2009
  847MOL0     H14307   6.784   2.385   9.744 -0.1360 -0.0873  0.5530
  847MOL0     H14308   6.977   2.423   9.579  1.4178  0.1609  0.4890
  847MOL0     H14309   7.178   2.478   9.539 -1.4850  0.4225  1.1027
  847MOL0     H14310   7.158   2.635   9.445  1.9346 -0.5000 -0.8043
  847MOL0     H14311   7.409   2.555   9.607 -1.5929 -3.0553 -1.8188
  847MOL0     H14312   7.403   2.558   9.428 -0.6173 -4.4512  1.0071
  847MOL0     H14313   7.387   2.788   9.423  0.0760  0.2401  1.3277
  847MOL0     H14314   7.311   2.819   9.578 -0.6232  0.1003 -1.3588
  847MOL0     H14315   7.592   2.715   9.547  0.7736  1.3829  0.4291
  847MOL0     H14316   7.506   2.711   9.697  4.2455 -2.8124 -0.8860
  847MOL0     H14317   7.499   2.953   9.708  0.9491 -1.6828  0.0639
  847MOL0     H14318   7.516   2.975   9.532  1.8957 -1.7579 -1.7378
  847MOL0     H14319   7.744   2.919   9.555  0.2294  0.4102 -0.2492
  847MOL0     H14320   7.700   3.057   9.643  2.0935 -0.4827  1.4328
  847MOL0     H14321   7.714   2.774   9.779  0.0988  1.0382  1.0308
  847MOL0     H14322   7.699   2.924   9.865  1.9823  1.8859  1.2451
  847MOL0     H14323   7.932   2.793   9.816 -1.3640 -0.3771 -0.0532
  847MOL0     H14324   7.918   2.880   9.667  2.3461 -2.7999  0.4774
  847MOL0     H14325   7.075   2.757   9.836  1.1837 -1.2413  0.4628
  847MOL0     H14326   6.885   2.720   9.977  1.6694 -0.6576  0.3305
  847MOL0     H14327   6.321   2.521   9.896  1.7645  4.5022 -0.0870
  847MOL0     H14328   6.166   2.464  10.072  0.1000 -1.0880  2.0075
  847MOL0     H14329   4.296   2.442  10.471  2.2678  0.0152 -0.1622
  847MOL0     H14330   4.165   2.494  10.679  2.0344 -0.3635  1.8005
  847MOL0     H14331   4.173   2.555  11.072 -0.0743 -3.0210 -2.1272
  847MOL0     H14332   4.115   2.635  11.292 -1.7494  0.9206  1.4168
  847MOL0     H14333   3.811   2.796  11.361 -0.9460 -0.9734  0.7936
  847MOL0     H14334   3.981   2.808  11.388 -1.4601  2.6189 -1.4532
  847MOL0     H14335   3.848   2.904  11.549  1.0277 -0.4468  0.8976
  847MOL0     H14336   3.942   2.771  11.618  2.7842  0.5480 -3.4848
  847MOL0     H14337   3.747   2.626  11.643 -0.8158 -0.5506 -0.4351
  847MOL0     H14338   3.645   2.714  11.551  2.6636 -2.2890 -2.1656
  847MOL0     H14339   3.747   2.828  11.813 -0.1927 -1.5252  0.7265
  847MOL0     H14340   3.601   2.877  11.708 -0.7880  0.1031 -0.1709
  847MOL0     H14341   3.427   2.578  11.915  0.7552 -2.1971 -1.6872
  847MOL0     H14342   3.733   2.451  11.253  0.0963  0.4381  1.0096
  847MOL0     H14343   3.755   2.222  11.077  2.4503 -0.5470 -1.2933
  847MOL0     H14344   3.673   2.368  11.047  0.0364 -0.9517  1.7583
  847MOL0     H14345   3.787   2.313  10.924 -1.4716  2.0513 -0.9387
  848MOL0     O14346   3.515   7.941   8.665 -0.1414  0.3930  0.3995
  848MOL0     C14347   3.476   7.912   8.555 -0.0705  0.2018 -0.8732
  848MOL0     O14348   3.549   7.927   8.441  0.0409  0.4000 -0.0790
  848MOL0     C14349   3.656   8.009   8.448 -0.1308  0.1205  0.6927
  848MOL0     C14350   3.782   7.952   8.405 -0.2552 -0.0960  0.3296
  848MOL0     C14351   3.897   8.030   8.422 -0.3856 -0.8838  0.8865
  848MOL0     C14352   3.900   8.153   8.492 -0.6625  0.2067  0.0568
  848MOL0     O14353   4.011   8.226   8.525 -0.0769 -0.5238 -0.3295
  848MOL0     C14354   4.107   8.244   8.419  0.7019 -0.4193  0.1877
  848MOL0     C14355   4.247   8.294   8.477 -0.2743  0.8721  0.0560
  848MOL0     C14356   4.259   8.435   8.530  0.0114  0.2338 -0.5704
  848MOL0     C14357   4.399   8.485   8.533 -0.1015  0.0012 -0.9511
  848MOL0     C14358   4.406   8.616   8.628  0.0203 -0.2932  0.7331
  848MOL0     C14359   4.411   8.582   8.779  0.9623 -0.3792  0.6320
  848MOL0     C14360   4.365   8.701   8.860 -0.2340 -0.4408 -0.0233
  848MOL0     C14361   4.356   8.651   9.011  0.5018 -0.4249  0.5066
  848MOL0     N14362   4.484   8.628   9.082 -0.1587 -0.4206 -0.6022
  848MOL0     C14363   4.599   8.698   9.087 -0.0774 -0.6963 -0.5690
  848MOL0     C14364   4.683   8.624   9.168  0.5142  0.1193  0.1891
  848MOL0     C14365   4.823   8.660   9.196 -0.8258  0.2949  0.6477
  848MOL0     C14366   4.819   8.771   9.304 -0.3344  0.0188  0.0002
  848MOL0     C14367   4.961   8.807   9.348  0.6237 -0.8709  1.5965
  848MOL0     C14368   4.948   8.938   9.437 -0.0835  0.3396  0.6245
  848MOL0     O14369   5.082   8.958   9.498  0.7704 -0.0449 -0.2832
  848MOL0     C14370   5.114   9.078   9.565  0.0024  0.6979 -0.9913
  848MOL0     C14371   5.018   9.161   9.627  0.2310  0.3639  0.5700
  848MOL0     C14372   5.049   9.287   9.686  0.2426  0.5157 -0.8665
  848MOL0     C14373   5.182   9.336   9.679  0.4690  0.3122  0.2823
  848MOL0     C14374   5.217   9.458   9.759  0.2820 -0.4531  0.8659
  848MOL0     O14375   5.336   9.507   9.720  0.7838 -0.5358 -0.7598
  848MOL0     C14376   5.386   9.611   9.793  0.1108 -0.0600 -0.2441
  848MOL0     C14377   5.495   9.588   9.883  0.7411  0.3232  0.2664
  848MOL0     C14378   5.548   9.691   9.961 -0.1259  0.6802  0.4400
  848MOL0     C14379   5.511   9.823   9.938  0.3885  0.1587 -0.1988
  848MOL0     O14380   5.573   9.926  10.001  0.3145 -0.2984  0.2713
  848MOL0     C14381   5.699   9.967   9.931 -0.2261  0.0369 -0.1501
  848MOL0     C14382   5.822   9.998  10.015 -0.1090  0.3082  0.2570
  848MOL0     C14383   5.939  10.053   9.927  0.7729  0.8120 -0.6060
  848MOL0     C14384   6.052  10.118  10.003 -0.2259  0.9707 -0.3256
  848MOL0     C14385   6.179  10.151   9.934 -0.3996  0.2000  0.0156
  848MOL0     C14386   6.161  10.254   9.820  0.1999  0.6843  0.3646
  848MOL0     C14387   6.282  10.304   9.756  0.7626  0.4434  0.2754
  848MOL0     C14388   6.258  10.415   9.654 -0.2876 -0.0499 -0.1588
  848MOL0    Cl14389   6.410  10.473   9.582  0.4978 -0.2473  0.0376
  848MOL0     C14390   5.405   9.848   9.849  0.6350  0.1612 -0.1493
  848MOL0     C14391   5.345   9.744   9.779  0.4697  0.1081 -0.2205
  848MOL0     O14392   5.142   9.505   9.847  0.4463 -0.0189 -0.2921
  848MOL0     C14393   5.275   9.259   9.616 -0.4069 -0.0578  0.7725
  848MOL0     C14394   5.241   9.133   9.558  0.2041 -0.3192  0.2974
  848MOL0     N14395   4.615   8.521   9.210 -0.6369  0.4951 -0.1417
  848MOL0     N14396   4.503   8.516   9.159  0.5510  0.4042 -0.2889
  848MOL0     C14397   3.775   8.207   8.524  1.3498  0.1748  0.0542
  848MOL0     C14398   3.659   8.136   8.503  0.3813  0.0277  0.4991
  848MOL0     C14399   3.340   7.870   8.538  0.0175  0.3166 -1.1435
  848MOL0     C14400   3.281   7.761   8.608 -0.5145 -0.0647  0.3099
  848MOL0     C14401   3.154   7.716   8.583 -0.6391 -1.1078 -0.8068
  848MOL0     C14402   3.074   7.785   8.498 -0.4099  0.2795  0.1586
  848MOL0     O14403   2.948   7.730   8.476 -0.3740  0.3849 -0.5008
  848MOL0     C14404   2.834   7.814   8.443  0.5179  0.4937  0.2143
  848MOL0     C14405   2.696   7.756   8.492  1.0917 -0.0897  0.4576
  848MOL0     C14406   2.654   7.642   8.394  0.2039  0.5059  0.7924
  848MOL0     C14407   2.651   7.500   8.461  0.2880 -0.1090  0.0952
  848MOL0     C14408   2.778   7.467   8.527  0.7269 -0.3722 -0.1173
  848MOL0     C14409   2.879   7.453   8.587  0.1154 -1.4790  0.0594
  848MOL0     C14410   3.124   7.898   8.438  0.0168 -0.5027  0.1589
  848MOL0     C14411   3.251   7.936   8.452 -0.4003  0.4167 -1.1288
  848MOL0     C14412   3.292   8.061   8.378 -0.5145  0.0790  0.0801
  848MOL0     H14413   3.784   7.857   8.352 -1.5193  0.7528 -1.3532
  848MOL0     H14414   3.986   8.012   8.362 -0.9871  5.9071 -3.0670
  848MOL0     H14415   4.130   8.159   8.354  2.0836  1.7607 -2.3788
  848MOL0     H14416   4.056   8.317   8.355 -0.2185 -0.5808  0.7234
  848MOL0     H14417   4.311   8.298   8.388 -2.2551 -1.5516 -1.5999
  848MOL0     H14418   4.291   8.225   8.550  0.6894  0.9303 -0.4414
  848MOL0     H14419   4.214   8.428   8.629  0.8605 -0.6658 -0.2315
  848MOL0     H14420   4.188   8.503   8.482 -0.4736  0.3246  0.2683
  848MOL0     H14421   4.477   8.416   8.566 -2.4781 -2.1894  0.5277
  848MOL0     H14422   4.434   8.524   8.437  3.4143  3.0014  1.2684
  848MOL0     H14423   4.500   8.666   8.604  1.0742 -2.1882  0.7160
  848MOL0     H14424   4.314   8.673   8.609 -0.8369 -1.6320  0.7518
  848MOL0     H14425   4.344   8.496   8.783 -0.4828  0.6097 -1.1712
  848MOL0     H14426   4.512   8.552   8.811  2.2612 -0.1090 -2.7728
  848MOL0     H14427   4.271   8.741   8.822 -0.3807 -0.4205  0.3547
  848MOL0     H14428   4.438   8.778   8.834 -2.2054  0.6200 -2.9014
  848MOL0     H14429   4.299   8.725   9.068 -1.5587 -1.7684  0.3321
  848MOL0     H14430   4.298   8.558   9.006  0.1432 -0.1616 -2.7374
  848MOL0     H14431   4.618   8.788   9.029  0.6294 -2.3613 -3.0800
  848MOL0     H14432   4.888   8.574   9.216  1.6037  1.7733 -0.4436
  848MOL0     H14433   4.862   8.701   9.103 -2.2853 -1.3119 -0.7495
  848MOL0     H14434   4.767   8.859   9.267 -1.7841 -0.8180 -0.0291
  848MOL0     H14435   4.759   8.729   9.386 -1.2131  0.9716 -0.1387
  848MOL0     H14436   5.028   8.808   9.261 -1.0633 -0.5043  0.2404
  848MOL0     H14437   4.998   8.732   9.417  2.6676  1.9418  3.7948
  848MOL0     H14438   4.875   8.928   9.519 -2.3033  1.5683 -1.0856
  848MOL0     H14439   4.923   9.030   9.383  0.1690 -0.4489 -0.8869
  848MOL0     H14440   4.912   9.138   9.627  0.4459 -0.7395 -0.7687
  848MOL0     H14441   4.972   9.330   9.749 -1.3037  0.3730 -2.5542
  848MOL0     H14442   5.546   9.492   9.885  3.1515  1.5320  0.9747
  848MOL0     H14443   5.624   9.664  10.034 -1.4252  4.0565  3.3329
  848MOL0     H14444   5.720   9.881   9.865 -2.7724  0.4042 -1.5617
  848MOL0     H14445   5.671  10.056   9.874  2.4472  0.9818 -0.1722
  848MOL0     H14446   5.786  10.067  10.092 -4.1471 -2.1242  0.8062
  848MOL0     H14447   5.842   9.909  10.075  1.8835  0.3150 -0.3144
  848MOL0     H14448   5.977   9.968   9.870  1.7830 -1.3048  2.9522
  848MOL0     H14449   5.898  10.127   9.857  3.0144  1.4682 -1.3143
  848MOL0     H14450   6.076  10.052  10.087 -0.2759 -1.0740 -1.8560
  848MOL0     H14451   6.015  10.212  10.046 -2.6061  0.4874 -1.1320
  848MOL0     H14452   6.220  10.063   9.885 -0.8362  0.8587 -1.5804
  848MOL0     H14453   6.255  10.176  10.009 -1.4026  2.8798  0.2462
  848MOL0     H14454   6.089  10.212   9.750  1.6818 -1.0402 -0.2111
  848MOL0     H14455   6.117  10.339   9.872  3.0675  1.6912  1.3860
  848MOL0     H14456   6.332  10.222   9.704 -1.7212 -0.6684 -0.5109
  848MOL0     H14457   6.349  10.348   9.831 -0.4786 -0.0050  1.6988
  848MOL0     H14458   6.183  10.385   9.579 -0.1184 -1.1241  0.0792
  848MOL0     H14459   6.208  10.502   9.696  0.2676 -0.2539  0.9664
  848MOL0     H14460   5.374   9.951   9.839 -0.0123  0.0718  0.7804
  848MOL0     H14461   5.257   9.768   9.720  0.9326 -3.6709 -2.8058
  848MOL0     H14462   5.373   9.301   9.598 -1.1461  0.2904 -3.4123
  848MOL0     H14463   5.318   9.079   9.504  0.5786 -0.9158  1.3892
  848MOL0     H14464   3.781   8.309   8.561 -0.5520 -0.4409  2.2539
  848MOL0     H14465   3.573   8.200   8.524  1.9254  2.2808  0.3632
  848MOL0     H14466   3.339   7.712   8.685 -0.1590 -2.7044 -1.5132
  848MOL0     H14467   3.120   7.632   8.642  0.3454 -2.9578 -2.7713
  848MOL0     H14468   2.827   7.840   8.337 -1.5543 -0.1415  0.1594
  848MOL0     H14469   2.856   7.908   8.495 -0.7150 -0.2656  2.2552
  848MOL0     H14470   2.618   7.832   8.480  0.3814 -0.9604 -0.6048
  848MOL0     H14471   2.695   7.718   8.594 -1.2695  1.0349  0.9166
  848MOL0     H14472   2.716   7.638   8.304 -1.1073  2.8342 -0.3163
  848MOL0     H14473   2.552   7.666   8.361 -0.7563  0.9037  3.7365
  848MOL0     H14474   2.576   7.499   8.541  0.3713  2.5661  0.2983
  848MOL0     H14475   2.626   7.434   8.378 -1.2216  1.7491 -1.0187
  848MOL0     H14476   2.970   7.435   8.639  0.0595 -0.5585  0.4777
  848MOL0     H14477   3.066   7.949   8.362 -0.2694 -0.8991  0.1050
  848MOL0     H14478   3.205   8.121   8.352 -0.5170  0.7785  1.5917
  848MOL0     H14479   3.351   8.125   8.443 -2.9497  0.5263  1.9812
  848MOL0     H14480   3.349   8.036   8.288 -2.2603 -0.1300 -1.0155
  849MOL0     O14481  10.056   1.033   5.454  0.3216 -0.1706 -0.3755
  849MOL0     C14482  10.056   1.153   5.481 -0.6471 -0.3891  0.3857
  849MOL0     O14483  10.167   1.237   5.463 -0.0593 -0.2465 -0.6062
  849MOL0     C14484  10.274   1.170   5.411  1.5728  0.4492 -0.2093
  849MOL0     C14485  10.365   1.089   5.480  0.5739  0.6755 -0.6196
  849MOL0     C14486  10.468   1.029   5.408 -0.2873 -0.9387 -0.6750
  849MOL0     C14487  10.482   1.048   5.273 -0.9578 -0.5146 -0.5676
  849MOL0     O14488  10.587   0.984   5.215 -0.2608 -0.3499  0.1474
  849MOL0     C14489  10.670   1.054   5.107 -0.3132  0.9346  1.5993
  849MOL0     C14490  10.802   0.986   5.101  0.0242 -0.3966 -0.2380
  849MOL0     C14491  10.893   1.060   5.203  0.2712 -0.6184 -0.6411
  849MOL0     C14492  11.033   0.995   5.219 -0.4641  0.3554 -0.1691
  849MOL0     C14493  11.080   1.044   5.353  0.5188  0.2996  0.5015
  849MOL0     C14494  11.227   1.018   5.370  0.6996  0.3463  0.6740
  849MOL0     C14495  11.295   1.073   5.498  0.6706 -0.0671 -0.2452
  849MOL0     C14496  11.301   1.222   5.492 -0.1552 -1.2063 -0.2923
  849MOL0     N14497  11.401   1.260   5.596 -0.3044 -0.4836 -0.0607
  849MOL0     C14498  11.367   1.282   5.721 -0.7479 -1.3762  0.0454
  849MOL0     C14499  11.492   1.307   5.774 -0.4180  0.4404  0.1945
  849MOL0     C14500  11.497   1.347   5.913  0.5758  0.4102 -1.0871
  849MOL0     C14501  11.575   1.470   5.952 -0.0382  1.1968 -0.2686
  849MOL0     C14502  11.587   1.494   6.103 -1.0588  0.4789 -0.0172
  849MOL0     C14503  11.690   1.589   6.152 -0.4866 -0.2735  0.5714
  849MOL0     O14504  11.814   1.555   6.107 -0.5462 -0.3961 -0.0376
  849MOL0     C14505  11.927   1.596   6.173 -0.6397  0.1650 -0.0110
  849MOL0     C14506  11.929   1.687   6.286  0.0786 -0.5101 -0.7570
  849MOL0     C14507  12.047   1.734   6.333 -0.5860 -0.0384 -0.9629
  849MOL0     C14508  12.167   1.680   6.290 -0.3850  0.5412  0.5081
  849MOL0     C14509  12.293   1.713   6.365  0.3844 -0.4674 -0.6805
  849MOL0     O14510  12.401   1.655   6.322  0.0173  0.0366 -0.3408
  849MOL0     C14511  12.525   1.646   6.380 -0.5558  0.3350 -0.1535
  849MOL0     C14512  12.597   1.525   6.372 -0.3352 -0.0695  0.1105
  849MOL0     C14513  12.726   1.515   6.430  0.4458  0.3170  0.7590
  849MOL0     C14514  12.791   1.617   6.495  0.8099  0.0682 -0.9516
  849MOL0     O14515  12.912   1.608   6.555 -0.9528 -0.1179 -0.7553
  849MOL0     C14516  12.952   1.486   6.604  0.2912  0.2581 -0.0247
  849MOL0     C14517  13.076   1.511   6.684 -0.1483 -0.4716  0.0286
  849MOL0     C14518  13.152   1.395   6.746 -0.9882 -0.0504 -0.1006
  849MOL0     C14519  13.272   1.441   6.833  0.2742 -0.5239  0.3022
  849MOL0     C14520  13.403   1.494   6.754  0.0145 -0.1269  0.0568
  849MOL0     C14521  13.453   1.383   6.666 -0.0408 -0.4666 -0.2592
  849MOL0     C14522  13.589   1.409   6.615 -1.2451  0.0379  0.0700
  849MOL0     C14523  13.612   1.549   6.539  0.2625  0.1346 -0.2444
  849MOL0    Cl14524  13.772   1.543   6.466  0.0387  0.4200 -0.1229
  849MOL0     C14525  12.719   1.735   6.500  0.2474 -0.2780  0.0944
  849MOL0     C14526  12.590   1.750   6.442 -0.3531 -0.3440 -0.2874
  849MOL0     O14527  12.280   1.784   6.465 -0.4009  0.1182  0.5892
  849MOL0     C14528  12.167   1.596   6.176 -0.4588 -0.3290 -0.1875
  849MOL0     C14529  12.054   1.554   6.123  0.6250  0.6234 -0.1457
  849MOL0     N14530  11.589   1.309   5.676  0.4245  0.1925  0.3330
  849MOL0     N14531  11.532   1.277   5.572  0.5371 -0.4844 -0.6148
  849MOL0     C14532  10.393   1.132   5.205  0.4457 -0.1745 -0.6656
  849MOL0     C14533  10.288   1.197   5.275 -0.6692 -1.1323 -0.1166
  849MOL0     C14534   9.925   1.203   5.539  0.2958  0.0543 -0.4357
  849MOL0     C14535   9.822   1.108   5.568  0.2710 -0.1223  0.9897
  849MOL0     C14536   9.696   1.152   5.620  0.3564  0.3424  0.1949
  849MOL0     C14537   9.668   1.285   5.622 -0.1774  0.3415 -0.1947
  849MOL0     O14538   9.550   1.319   5.682  0.6033  0.8179  0.4654
  849MOL0     C14539   9.500   1.452   5.678  0.3521  0.0867 -0.2336
  849MOL0     C14540   9.519   1.533   5.812 -0.1644 -0.2465  0.2049
  849MOL0     C14541   9.667   1.558   5.846 -0.0229 -0.4205  0.1821
  849MOL0     C14542   9.689   1.611   5.989 -0.1552 -0.5082  0.2816
  849MOL0     C14543   9.804   1.564   6.053 -0.9563  0.1349  0.0115
  849MOL0     C14544   9.914   1.517   6.099 -0.0475 -0.0113  0.4227
  849MOL0     C14545   9.765   1.379   5.592  0.6083  0.2374 -0.6380
  849MOL0     C14546   9.897   1.342   5.566 -0.0094 -0.5413  0.9493
  849MOL0     C14547  10.002   1.446   5.572 -0.6806 -0.4286 -0.0296
  849MOL0     H14548  10.365   1.066   5.586 -0.2444  0.9065 -0.5638
  849MOL0     H14549  10.536   0.957   5.453 -0.1738 -0.3531  0.1205
  849MOL0     H14550  10.622   1.050   5.009  2.2710  1.3029  0.2321
  849MOL0     H14551  10.676   1.161   5.131  2.2117  1.8785 -2.3107
  849MOL0     H14552  10.841   0.994   5.000 -0.6041 -1.0924 -0.5479
  849MOL0     H14553  10.796   0.880   5.125  2.5589 -1.3023 -3.0482
  849MOL0     H14554  10.838   1.073   5.297 -1.3124  1.1573 -1.7318
  849MOL0     H14555  10.917   1.164   5.177 -2.7586 -0.1031 -1.7437
  849MOL0     H14556  11.035   0.886   5.210  2.5774  0.2482  0.6240
  849MOL0     H14557  11.106   1.035   5.148 -0.4922  3.3558  1.3081
  849MOL0     H14558  11.059   1.150   5.367 -0.5421  0.0868  0.5564
  849MOL0     H14559  11.021   0.997   5.432  0.1345  0.0956  0.0895
  849MOL0     H14560  11.227   0.908   5.372  0.0923  0.3406  2.4277
  849MOL0     H14561  11.283   1.048   5.281 -1.5513  4.2676  0.3705
  849MOL0     H14562  11.389   1.018   5.499 -1.4013 -3.9248  1.3788
  849MOL0     H14563  11.245   1.046   5.591 -1.2670 -3.6302 -2.1286
  849MOL0     H14564  11.342   1.266   5.400 -0.0494 -0.1264  0.2556
  849MOL0     H14565  11.209   1.278   5.513  1.8814  1.6869  1.6329
  849MOL0     H14566  11.275   1.251   5.770 -0.8931  0.3994  0.9637
  849MOL0     H14567  11.395   1.348   5.954  1.1332  1.7818  0.3684
  849MOL0     H14568  11.552   1.263   5.957 -0.3342 -0.8252 -2.2076
  849MOL0     H14569  11.676   1.448   5.917 -0.8586  1.2177 -2.8013
  849MOL0     H14570  11.541   1.545   5.881 -0.5603  0.6516 -0.6034
  849MOL0     H14571  11.596   1.399   6.155 -0.2182  1.3279  1.4406
  849MOL0     H14572  11.487   1.523   6.138 -0.7013 -0.5092  1.9559
  849MOL0     H14573  11.681   1.576   6.260  1.2422 -0.0880  0.7675
  849MOL0     H14574  11.665   1.690   6.120  1.8576 -0.1627 -1.1792
  849MOL0     H14575  11.837   1.737   6.313 -2.1626 -3.1664 -2.7989
  849MOL0     H14576  12.054   1.806   6.414  1.5626 -1.6903  0.4180
  849MOL0     H14577  12.547   1.441   6.326 -0.2997  0.4404 -0.8877
  849MOL0     H14578  12.782   1.423   6.413 -1.2874 -0.4580 -1.1002
  849MOL0     H14579  12.875   1.437   6.664 -0.3627 -0.4022 -1.3547
  849MOL0     H14580  12.979   1.420   6.520  0.2409 -1.9797  1.6238
  849MOL0     H14581  13.139   1.575   6.622  1.9457 -2.7372 -0.3542
  849MOL0     H14582  13.041   1.572   6.767  0.1208 -1.1313  0.6389
  849MOL0     H14583  13.080   1.331   6.798 -2.3676  0.9930 -0.6673
  849MOL0     H14584  13.184   1.324   6.669 -3.8940 -0.7250 -0.8164
  849MOL0     H14585  13.292   1.361   6.905  0.3437 -1.1961 -0.4542
  849MOL0     H14586  13.239   1.526   6.894 -3.0894  0.8556 -3.0402
  849MOL0     H14587  13.485   1.530   6.816  3.0398 -2.7400 -2.0803
  849MOL0     H14588  13.377   1.568   6.678  0.3377 -0.5040 -0.4282
  849MOL0     H14589  13.466   1.286   6.716 -1.8089 -0.5696  0.0914
  849MOL0     H14590  13.379   1.367   6.586 -2.1697 -0.5933  1.6342
  849MOL0     H14591  13.629   1.338   6.541 -2.7215 -0.6125 -0.1337
  849MOL0     H14592  13.659   1.415   6.699  3.2661  1.7544 -3.3522
  849MOL0     H14593  13.540   1.559   6.457 -0.2079 -2.4862 -0.2429
  849MOL0     H14594  13.608   1.616   6.625  1.2590 -1.2634  0.9280
  849MOL0     H14595  12.747   1.828   6.548 -0.9898 -1.0168  2.3919
  849MOL0     H14596  12.533   1.843   6.450 -1.7574 -1.2469  0.7807
  849MOL0     H14597  12.264   1.564   6.142 -1.3899 -2.4112 -1.0713
  849MOL0     H14598  12.076   1.493   6.036  1.4341 -1.0458  1.1711
  849MOL0     H14599  10.401   1.156   5.099 -1.3773 -1.2931 -1.0948
  849MOL0     H14600  10.236   1.275   5.221  1.5632  0.0824 -0.6287
  849MOL0     H14601   9.841   1.002   5.555  4.1187  0.0693  3.4235
  849MOL0     H14602   9.618   1.079   5.641  2.3945 -1.9201  0.4105
  849MOL0     H14603   9.395   1.434   5.652  0.2870  1.5865 -1.1739
  849MOL0     H14604   9.539   1.515   5.597 -1.0661  1.0630 -0.1870
  849MOL0     H14605   9.481   1.478   5.899  3.7027 -2.1083  0.9495
  849MOL0     H14606   9.464   1.627   5.806  0.8475  0.4997  1.8205
  849MOL0     H14607   9.713   1.624   5.773  1.7442 -1.1758  0.5753
  849MOL0     H14608   9.721   1.464   5.831  0.6743 -0.1199  0.7582
  849MOL0     H14609   9.707   1.718   5.997  2.5896 -0.9605  1.2073
  849MOL0     H14610   9.603   1.587   6.052 -0.2209  0.8154  0.7150
  849MOL0     H14611  10.007   1.478   6.134 -0.2179 -0.6723  0.1609
  849MOL0     H14612   9.741   1.484   5.605  4.9461  1.4897 -0.9303
  849MOL0     H14613   9.953   1.532   5.619 -2.1073  0.1243 -2.3833
  849MOL0     H14614  10.077   1.407   5.641  1.9806  1.3448 -1.7495
  849MOL0     H14615  10.044   1.468   5.474  1.0923  2.8312  1.3002
  850MOL0     O14616   7.047   1.305   2.461 -0.7304  0.5465 -0.1048
  850MOL0     C14617   7.143   1.381   2.469 -0.2914 -0.6009  1.0517
  850MOL0     O14618   7.162   1.482   2.380  0.0111 -0.2402  0.5259
  850MOL0     C14619   7.057   1.518   2.299 -0.7236  0.8879  0.5232
  850MOL0     C14620   7.044   1.463   2.168 -0.1387  0.6101  0.1543
  850MOL0     C14621   6.939   1.499   2.091 -0.0360 -1.3911  0.9222
  850MOL0     C14622   6.848   1.598   2.122  0.1537  0.3080  0.1088
  850MOL0     O14623   6.752   1.627   2.035  0.6124 -0.0760  0.4238
  850MOL0     C14624   6.619   1.625   2.084  0.5183  0.2754  0.2675
  850MOL0     C14625   6.517   1.637   1.966 -0.7948  0.6185 -0.1719
  850MOL0     C14626   6.540   1.740   1.854 -0.2183 -0.0506 -0.0224
  850MOL0     C14627   6.427   1.736   1.746 -0.4841  0.2815  0.1720
  850MOL0     C14628   6.484   1.807   1.621 -0.5617  0.2863 -0.0400
  850MOL0     C14629   6.414   1.805   1.487  0.3928  0.1578 -0.5464
  850MOL0     C14630   6.495   1.893   1.383 -0.0269  0.1792  0.0154
  850MOL0     C14631   6.413   1.901   1.247  0.2873  1.0175  0.3953
  850MOL0     N14632   6.471   1.994   1.156  0.1423 -0.7670  0.9465
  850MOL0     C14633   6.531   2.123   1.176  0.5277  0.1455 -0.2572
  850MOL0     C14634   6.593   2.146   1.060  0.3034  0.3486 -0.1135
  850MOL0     C14635   6.663   2.276   1.024 -0.2460 -0.0942  0.0053
  850MOL0     C14636   6.817   2.276   1.024  1.1755 -0.0261  0.3484
  850MOL0     C14637   6.877   2.248   1.162  0.6060 -0.3661 -0.2236
  850MOL0     C14638   7.028   2.209   1.157 -1.3082  0.0358  0.9333
  850MOL0     O14639   7.097   2.328   1.114 -0.4749 -0.7491 -0.4218
  850MOL0     C14640   7.190   2.383   1.193  0.3137 -0.4416 -0.6489
  850MOL0     C14641   7.172   2.501   1.250  0.4502  0.4423 -0.4553
  850MOL0     C14642   7.272   2.560   1.333 -0.5263  0.0733 -0.5872
  850MOL0     C14643   7.393   2.490   1.351  0.2559  0.5948  0.1390
  850MOL0     C14644   7.502   2.546   1.433 -0.0593  0.3502  0.1387
  850MOL0     O14645   7.621   2.475   1.434  0.1857 -0.4916  0.0105
  850MOL0     C14646   7.706   2.511   1.532  0.6068 -0.9806 -0.5606
  850MOL0     C14647   7.828   2.566   1.511 -0.9393 -0.7187 -0.4747
  850MOL0     C14648   7.925   2.579   1.612 -0.3276 -1.0047  0.6931
  850MOL0     C14649   7.897   2.540   1.739  0.2349 -0.6353 -0.6272
  850MOL0     O14650   7.982   2.591   1.838 -0.4071  0.5207  0.3150
  850MOL0     C14651   7.949   2.553   1.976  0.1544 -0.4080 -1.0828
  850MOL0     C14652   7.988   2.405   2.011 -0.4754 -0.2870 -0.2108
  850MOL0     C14653   7.892   2.346   2.121  0.8030 -0.8999  0.2415
  850MOL0     C14654   7.950   2.206   2.159  0.0685  0.1701 -0.5034
  850MOL0     C14655   7.874   2.140   2.268 -0.3716 -0.1703  0.3663
  850MOL0     C14656   7.728   2.134   2.235  0.3094  0.5187 -0.4837
  850MOL0     C14657   7.683   2.025   2.134  0.2102  0.5599 -0.3940
  850MOL0     C14658   7.566   2.071   2.047  0.5299 -0.0281  0.9559
  850MOL0    Cl14659   7.605   2.207   1.933 -0.2599  0.3112  0.1035
  850MOL0     C14660   7.772   2.479   1.761  0.5478  0.2162  0.5604
  850MOL0     C14661   7.672   2.466   1.663 -0.2628 -0.0410  0.2379
  850MOL0     O14662   7.480   2.656   1.487  0.1125 -0.5077  0.1568
  850MOL0     C14663   7.403   2.359   1.300  0.7197 -0.2414  0.0979
  850MOL0     C14664   7.300   2.305   1.225  0.1425  0.0317  0.4485
  850MOL0     N14665   6.591   2.037   0.981  0.1062  0.1716  0.0771
  850MOL0     N14666   6.522   1.945   1.040  0.4862 -0.9771  0.4821
  850MOL0     C14667   6.854   1.653   2.249 -0.2418  0.7219 -0.1899
  850MOL0     C14668   6.967   1.621   2.334 -0.1071 -0.2715  0.1263
  850MOL0     C14669   7.239   1.383   2.585  0.8611 -0.3111 -0.3361
  850MOL0     C14670   7.316   1.497   2.604  1.5803 -0.1647 -0.8858
  850MOL0     C14671   7.392   1.509   2.720 -0.3842 -0.6312 -0.0789
  850MOL0     C14672   7.405   1.404   2.817 -0.1284 -0.4927  0.4336
  850MOL0     O14673   7.480   1.414   2.936  0.2285 -0.3625  0.5300
  850MOL0     C14674   7.522   1.542   2.989  0.0593 -0.8573 -0.5260
  850MOL0     C14675   7.650   1.602   2.905  0.2137 -0.3039 -0.5215
  850MOL0     C14676   7.791   1.585   2.970  0.0416 -0.2545 -0.6376
  850MOL0     C14677   7.826   1.431   2.961  0.2072 -0.5621 -0.6424
  850MOL0     C14678   7.971   1.418   2.988  0.2744  0.7565  0.2900
  850MOL0     C14679   8.082   1.385   3.024  0.7110  0.4965  0.5398
  850MOL0     C14680   7.338   1.291   2.787  0.3222  0.3779  0.7242
  850MOL0     C14681   7.252   1.280   2.672 -0.0888  0.0535  0.1073
  850MOL0     C14682   7.168   1.152   2.658 -0.5695 -0.8358 -0.2739
  850MOL0     H14683   7.114   1.388   2.132 -0.6878 -0.4288  1.1855
  850MOL0     H14684   6.921   1.462   1.991 -2.2222  1.3362  0.1762
  850MOL0     H14685   6.609   1.524   2.124  3.0601 -0.3706 -0.5469
  850MOL0     H14686   6.590   1.696   2.162 -1.1292  0.3895 -0.4060
  850MOL0     H14687   6.415   1.637   2.003 -1.9183  0.6144 -3.0014
  850MOL0     H14688   6.526   1.547   1.905  0.0015 -1.6074  3.0211
  850MOL0     H14689   6.642   1.735   1.815 -0.5752 -4.0273 -0.8406
  850MOL0     H14690   6.526   1.835   1.907 -0.4532 -1.5463  2.8284
  850MOL0     H14691   6.410   1.632   1.715 -0.5828  0.6251 -0.9900
  850MOL0     H14692   6.333   1.784   1.775 -1.4276 -0.2874 -1.7624
  850MOL0     H14693   6.523   1.906   1.649 -1.4695  0.3521  1.0766
  850MOL0     H14694   6.578   1.755   1.601 -0.3061  0.8725 -0.3910
  850MOL0     H14695   6.397   1.714   1.429  1.3783 -0.2675 -0.1891
  850MOL0     H14696   6.319   1.858   1.501 -0.2468 -0.9213 -0.6905
  850MOL0     H14697   6.588   1.837   1.368 -1.6715 -2.6020 -0.5527
  850MOL0     H14698   6.525   1.993   1.414  2.5927  0.5114 -3.0376
  850MOL0     H14699   6.407   1.797   1.215 -0.3820  0.1586  3.0274
  850MOL0     H14700   6.310   1.929   1.269 -0.4702 -1.9682  1.0246
  850MOL0     H14701   6.511   2.196   1.254 -2.6951  1.4919 -2.1615
  850MOL0     H14702   6.622   2.319   0.932  1.1956  1.2470 -0.0389
  850MOL0     H14703   6.623   2.353   1.091 -3.6359 -1.7767  0.1507
  850MOL0     H14704   6.859   2.203   0.954  0.5518 -1.1699  1.1329
  850MOL0     H14705   6.842   2.373   0.980  1.6553 -0.6604 -0.8267
  850MOL0     H14706   6.829   2.174   1.227  2.4543 -2.0789 -0.7119
  850MOL0     H14707   6.883   2.337   1.224 -3.2900  2.4056 -3.2792
  850MOL0     H14708   7.048   2.123   1.092 -1.3608  0.4386  0.3808
  850MOL0     H14709   7.067   2.186   1.257  0.2358 -0.5184  0.2238
  850MOL0     H14710   7.086   2.559   1.216  0.1804 -1.1256 -2.6763
  850MOL0     H14711   7.259   2.663   1.365  1.0562  0.1846 -0.2413
  850MOL0     H14712   7.848   2.589   1.406  0.4362 -1.3621 -0.3682
  850MOL0     H14713   8.020   2.627   1.593 -1.6704  2.4452  1.8460
  850MOL0     H14714   8.016   2.612   2.038 -1.1395  2.0874 -1.9374
  850MOL0     H14715   7.847   2.587   2.000 -0.9151 -1.7178 -3.3987
  850MOL0     H14716   7.979   2.346   1.919 -1.7075  0.8845 -0.8876
  850MOL0     H14717   8.094   2.406   2.037  0.3796 -0.9214 -3.3101
  850MOL0     H14718   7.890   2.417   2.205 -1.8484 -1.2096  0.4972
  850MOL0     H14719   7.788   2.337   2.090  0.5654  0.3820  0.5856
  850MOL0     H14720   8.052   2.220   2.195  0.9899  0.6571 -3.0544
  850MOL0     H14721   7.960   2.136   2.076 -2.0603 -0.4564 -0.2903
  850MOL0     H14722   7.870   2.207   2.355 -0.3633  0.8768 -0.4152
  850MOL0     H14723   7.924   2.050   2.304 -0.6808 -0.5316 -0.1000
  850MOL0     H14724   7.692   2.106   2.335  0.3634 -0.6145 -0.7599
  850MOL0     H14725   7.675   2.227   2.216 -0.6973  0.1080  0.2081
  850MOL0     H14726   7.655   1.929   2.178 -5.1979  0.7548 -2.6529
  850MOL0     H14727   7.761   1.978   2.074  2.2802  1.5980  1.3470
  850MOL0     H14728   7.543   1.992   1.975  0.2621  0.0225  0.9857
  850MOL0     H14729   7.480   2.083   2.112  1.5886  0.5996  2.2994
  850MOL0     H14730   7.747   2.430   1.855  1.6042  1.0757  1.3151
  850MOL0     H14731   7.571   2.427   1.665 -0.4026  0.3487  1.4084
  850MOL0     H14732   7.483   2.292   1.331 -0.7285 -1.4319  1.4126
  850MOL0     H14733   7.305   2.206   1.181  0.2083  0.7430 -1.1907
  850MOL0     H14734   6.782   1.723   2.289  0.0886  1.5865 -1.0727
  850MOL0     H14735   6.981   1.659   2.435  0.3833 -1.5613  0.5616
  850MOL0     H14736   7.311   1.577   2.531  1.0562  0.7004  0.0679
  850MOL0     H14737   7.454   1.599   2.724  2.7097 -2.6309  1.9724
  850MOL0     H14738   7.542   1.522   3.095 -0.8480 -3.4340 -0.7847
  850MOL0     H14739   7.446   1.620   2.998  0.4094 -0.7063  1.9983
  850MOL0     H14740   7.638   1.709   2.883  0.7570 -0.5238 -2.0209
  850MOL0     H14741   7.650   1.558   2.805  1.5349  0.0668 -0.6962
  850MOL0     H14742   7.784   1.613   3.075 -0.7700 -1.8835 -0.2201
  850MOL0     H14743   7.860   1.652   2.919  1.0764  0.7045  1.8649
  850MOL0     H14744   7.759   1.380   3.031 -0.1594  1.6861  0.7411
  850MOL0     H14745   7.808   1.386   2.863 -1.0732 -1.1697 -0.1508
  850MOL0     H14746   8.178   1.360   3.065  0.0575  0.5222  2.1322
  850MOL0     H14747   7.337   1.213   2.863  2.1348  0.0796  0.4880
  850MOL0     H14748   7.067   1.176   2.695 -1.1423 -2.3617 -0.7712
  850MOL0     H14749   7.159   1.103   2.561 -1.5427 -0.5487 -0.3412
  850MOL0     H14750   7.202   1.069   2.720  1.4935 -0.2290 -0.5400
  851MOL0     O14751   3.925   4.495   5.499 -0.0043 -0.0277 -0.5352
  851MOL0     C14752   3.937   4.466   5.614 -0.0945 -0.0501 -0.2948
  851MOL0     O14753   4.044   4.406   5.673  0.9791 -0.5375 -0.4136
  851MOL0     C14754   4.158   4.370   5.621 -0.4454  0.1782 -0.4612
  851MOL0     C14755   4.243   4.286   5.692  0.4037 -0.2398 -0.0526
  851MOL0     C14756   4.375   4.265   5.654  0.8779 -0.4317 -1.2070
  851MOL0     C14757   4.421   4.330   5.541 -0.0742 -0.3844  0.6647
  851MOL0     O14758   4.546   4.300   5.501 -0.1659 -0.6674  0.3032
  851MOL0     C14759   4.594   4.332   5.370  0.4915 -1.0649 -0.5755
  851MOL0     C14760   4.532   4.242   5.258 -0.6592 -0.1555 -0.3520
  851MOL0     C14761   4.580   4.286   5.119 -0.9344  0.0965  0.0463
  851MOL0     C14762   4.556   4.178   5.016  0.5112  0.2753  0.5409
  851MOL0     C14763   4.582   4.216   4.868  1.2737 -0.8548 -0.0513
  851MOL0     C14764   4.504   4.131   4.772 -0.0918 -0.0591 -0.1334
  851MOL0     C14765   4.347   4.156   4.782 -0.4037  0.3141  0.3661
  851MOL0     C14766   4.257   4.047   4.714 -0.4026 -0.5089  0.2965
  851MOL0     N14767   4.124   4.028   4.767  0.2026  0.0360  0.6452
  851MOL0     C14768   4.023   4.042   4.683  0.0256 -0.3904  0.2484
  851MOL0     C14769   3.910   3.990   4.747  0.4075 -1.0470  0.2612
  851MOL0     C14770   3.781   3.990   4.688  0.5937 -0.5831 -0.8932
  851MOL0     C14771   3.703   4.110   4.734  0.1498  0.7705  0.6058
  851MOL0     C14772   3.571   4.103   4.660 -0.3156 -0.2582 -0.3674
  851MOL0     C14773   3.472   4.197   4.737  0.4467 -0.1149 -0.3392
  851MOL0     O14774   3.343   4.195   4.661 -0.8097 -0.8807 -0.8115
  851MOL0     C14775   3.238   4.131   4.716 -0.1283  0.4943  0.0158
  851MOL0     C14776   3.115   4.195   4.717  0.2261  0.0738 -0.3864
  851MOL0     C14777   2.998   4.139   4.768 -0.0543  0.7183  0.1906
  851MOL0     C14778   3.001   4.017   4.826 -0.1815  0.2808  0.9981
  851MOL0     C14779   2.874   3.966   4.896  0.9160  0.0696 -0.6888
  851MOL0     O14780   2.762   4.041   4.873  0.0434 -0.1720  0.2672
  851MOL0     C14781   2.642   4.011   4.936 -0.6314 -0.5664 -0.1505
  851MOL0     C14782   2.581   3.890   4.916 -0.8436 -0.0778  0.0864
  851MOL0     C14783   2.469   3.861   4.992  0.6810  0.1988 -0.1746
  851MOL0     C14784   2.411   3.954   5.072  0.1315 -0.8936  0.0399
  851MOL0     O14785   2.280   3.934   5.119  0.0241  0.3267  0.4940
  851MOL0     C14786   2.191   4.045   5.112 -0.4377 -0.0427 -0.1465
  851MOL0     C14787   2.049   4.001   5.137  0.6000 -0.1493  0.1876
  851MOL0     C14788   1.946   4.114   5.120 -0.3703 -0.3826  0.3962
  851MOL0     C14789   1.803   4.057   5.115 -0.3199 -0.9015 -0.1375
  851MOL0     C14790   1.693   4.165   5.080 -0.5747 -0.3062  0.1089
  851MOL0     C14791   1.697   4.281   5.166 -0.1510  0.7342 -0.4572
  851MOL0     C14792   1.569   4.365   5.165 -0.2889  1.0259 -0.7685
  851MOL0     C14793   1.601   4.469   5.274 -0.2304 -0.4893  1.2612
  851MOL0    Cl14794   1.490   4.444   5.411  0.2261  0.4255 -0.1287
  851MOL0     C14795   2.475   4.073   5.096 -0.3218  1.1760  0.6973
  851MOL0     C14796   2.595   4.101   5.034 -0.4151 -0.2974 -0.1561
  851MOL0     O14797   2.878   3.867   4.974 -0.4568  0.3727 -0.7425
  851MOL0     C14798   3.128   3.953   4.842 -0.4273 -0.3205  0.0367
  851MOL0     C14799   3.244   4.010   4.790 -0.9615  0.3935 -0.1690
  851MOL0     N14800   3.960   3.935   4.864 -0.0595  0.0133 -0.3458
  851MOL0     N14801   4.086   3.961   4.878  0.3393 -0.2138  0.0336
  851MOL0     C14802   4.328   4.403   5.462 -0.3684 -0.0209  0.6868
  851MOL0     C14803   4.201   4.429   5.506  0.3661 -0.3962  0.6031
  851MOL0     C14804   3.829   4.515   5.695  0.6820 -0.2122 -0.7167
  851MOL0     C14805   3.862   4.557   5.824 -0.2537  0.2079  0.0710
  851MOL0     C14806   3.770   4.620   5.899 -0.4721 -0.0766 -0.9019
  851MOL0     C14807   3.637   4.644   5.846 -0.3655  0.0379  0.2849
  851MOL0     O14808   3.547   4.720   5.915  0.7063 -0.5316  0.4835
  851MOL0     C14809   3.555   4.721   6.056  0.5749  0.2847  0.1054
  851MOL0     C14810   3.628   4.849   6.103 -0.6812  0.5322 -0.2785
  851MOL0     C14811   3.547   4.974   6.103 -0.0873 -0.5240 -0.5883
  851MOL0     C14812   3.523   5.021   6.245  0.0741 -0.2372  0.1880
  851MOL0     C14813   3.432   5.137   6.236 -0.1794  0.0224  0.3889
  851MOL0     C14814   3.355   5.225   6.207 -1.2053 -0.9338  0.0005
  851MOL0     C14815   3.603   4.592   5.720  0.1869  0.3805 -0.0260
  851MOL0     C14816   3.700   4.518   5.645  1.0780 -0.3772  0.3951
  851MOL0     C14817   3.648   4.452   5.514  0.4713  0.0353  0.0492
  851MOL0     H14818   4.208   4.245   5.786 -3.7695  2.4041 -0.2012
  851MOL0     H14819   4.434   4.195   5.712 -0.8712  0.5712  2.0574
  851MOL0     H14820   4.576   4.437   5.347 -3.6972 -1.1195  1.6077
  851MOL0     H14821   4.703   4.320   5.359  0.4596 -1.2156 -0.7392
  851MOL0     H14822   4.423   4.243   5.268 -0.5763 -0.7278  0.7822
  851MOL0     H14823   4.551   4.135   5.271 -2.2687 -0.1533  3.6062
  851MOL0     H14824   4.687   4.308   5.116 -1.6042  3.9489 -0.6432
  851MOL0     H14825   4.526   4.375   5.086 -2.5940 -1.0281 -0.4313
  851MOL0     H14826   4.618   4.089   5.033  0.8350  0.3912 -0.0026
  851MOL0     H14827   4.454   4.147   5.039  0.3281  1.7121  1.8050
  851MOL0     H14828   4.568   4.321   4.840  2.9007 -0.6593 -0.2653
  851MOL0     H14829   4.689   4.199   4.850  1.0759 -0.7738 -1.4623
  851MOL0     H14830   4.528   4.162   4.669 -1.0847 -1.2078 -0.7361
  851MOL0     H14831   4.535   4.026   4.772 -0.9759 -0.3239  0.3245
  851MOL0     H14832   4.330   4.256   4.740  2.4142  0.2074 -1.2239
  851MOL0     H14833   4.324   4.159   4.889  2.4458 -0.4130  1.0878
  851MOL0     H14834   4.260   4.065   4.607  3.2257  3.1544  0.7721
  851MOL0     H14835   4.291   3.946   4.742 -2.0902 -0.3221  3.4747
  851MOL0     H14836   4.026   4.084   4.583 -2.9980 -1.7291 -0.5393
  851MOL0     H14837   3.794   3.996   4.579 -1.1272  1.0608 -1.0657
  851MOL0     H14838   3.723   3.900   4.711  1.0583 -0.8992 -0.9475
  851MOL0     H14839   3.689   4.095   4.841 -1.0446 -0.7048  0.2933
  851MOL0     H14840   3.759   4.198   4.702  1.8008 -0.7068 -0.7662
  851MOL0     H14841   3.539   3.998   4.652  0.1672 -0.5755  1.4488
  851MOL0     H14842   3.582   4.140   4.558  0.2327  1.7117  0.3674
  851MOL0     H14843   3.509   4.299   4.737 -2.3420  1.0061  1.2188
  851MOL0     H14844   3.452   4.172   4.842 -0.5804 -0.0945 -0.5263
  851MOL0     H14845   3.109   4.296   4.677  1.4745  0.9047  1.4073
  851MOL0     H14846   2.903   4.191   4.756  0.3822  1.4654 -0.1330
  851MOL0     H14847   2.621   3.829   4.836  0.2909  0.3317  0.3115
  851MOL0     H14848   2.413   3.768   4.983 -0.8735  1.1157 -0.2298
  851MOL0     H14849   2.222   4.120   5.185  2.0013 -1.5723  0.5244
  851MOL0     H14850   2.195   4.094   5.014  0.2614  0.5720  0.1808
  851MOL0     H14851   2.043   3.913   5.072  2.8416  0.1601 -0.5245
  851MOL0     H14852   2.022   3.951   5.231  0.4280 -0.4999 -0.0480
  851MOL0     H14853   1.962   4.179   5.206  2.6535  0.3336 -0.5822
  851MOL0     H14854   1.977   4.174   5.034  0.3513  0.3213  1.1289
  851MOL0     H14855   1.766   4.019   5.211 -2.4439  2.4594  0.5434
  851MOL0     H14856   1.815   3.983   5.036 -0.2862 -2.3516  1.1731
  851MOL0     H14857   1.597   4.114   5.069 -0.1045 -0.8625 -2.0188
  851MOL0     H14858   1.703   4.196   4.975 -0.1936  0.2804  0.3152
  851MOL0     H14859   1.717   4.255   5.270  3.4718  2.1188 -0.6456
  851MOL0     H14860   1.787   4.337   5.140  2.6301 -2.8275  0.6922
  851MOL0     H14861   1.477   4.316   5.198  0.1699  3.3599  5.1399
  851MOL0     H14862   1.559   4.407   5.064  1.8682 -0.2386 -1.5757
  851MOL0     H14863   1.704   4.461   5.310  0.4511  1.7416  0.0088
  851MOL0     H14864   1.596   4.571   5.235  0.1751 -1.3823 -1.3285
  851MOL0     H14865   2.421   4.131   5.170  0.1220  0.6291  1.4476
  851MOL0     H14866   2.656   4.187   5.060 -0.3338 -0.5480  0.4859
  851MOL0     H14867   3.138   3.853   4.883  2.9233  0.0319  0.3604
  851MOL0     H14868   3.332   3.947   4.794 -1.2919 -0.2476 -2.1115
  851MOL0     H14869   4.364   4.466   5.381 -3.2950  1.9069  0.7416
  851MOL0     H14870   4.146   4.498   5.443 -1.0585 -4.4461 -3.0563
  851MOL0     H14871   3.959   4.531   5.865 -0.5675  1.9021  2.0688
  851MOL0     H14872   3.800   4.665   5.993  0.0135 -1.0035 -0.5985
  851MOL0     H14873   3.592   4.631   6.106  1.2752  2.1576  3.2658
  851MOL0     H14874   3.454   4.726   6.096  0.6178  1.0919  0.1358
  851MOL0     H14875   3.717   4.869   6.042  1.0530  1.3370  2.3180
  851MOL0     H14876   3.672   4.833   6.202  0.3612  2.5865 -0.3430
  851MOL0     H14877   3.447   4.952   6.063 -1.8713  2.2082  1.9158
  851MOL0     H14878   3.601   5.053   6.050  3.1603 -1.7798  0.5767
  851MOL0     H14879   3.468   4.938   6.292 -1.9373  1.0055  0.1723
  851MOL0     H14880   3.614   5.034   6.303  0.5010 -0.7848 -0.3516
  851MOL0     H14881   3.276   5.297   6.200  0.0360  0.6143  1.2585
  851MOL0     H14882   3.498   4.601   5.691  0.6033 -1.8699 -2.6387
  851MOL0     H14883   3.546   4.413   5.527  0.3227  1.4073  4.8322
  851MOL0     H14884   3.658   4.517   5.426  2.0888 -0.4846 -0.1781
  851MOL0     H14885   3.697   4.361   5.477 -1.6306  0.2798 -3.9344
  852MOL0     O14886   9.465   4.896   0.764  0.1827 -0.6777 -0.7305
  852MOL0     C14887   9.445   4.778   0.756 -0.0343 -0.4126  0.6823
  852MOL0     O14888   9.542   4.684   0.724 -0.1242 -0.1712 -0.0633
  852MOL0     C14889   9.662   4.700   0.665  0.1004  0.0496  0.6460
  852MOL0     C14890   9.704   4.817   0.596  0.3478  0.0410 -0.1656
  852MOL0     C14891   9.827   4.828   0.539 -0.3162 -0.1758  0.8208
  852MOL0     C14892   9.912   4.718   0.542 -0.5574 -0.4724 -0.1948
  852MOL0     O14893  10.038   4.721   0.480  0.1682  0.3860 -0.2270
  852MOL0     C14894  10.091   4.852   0.455 -0.9603 -0.1976  0.9744
  852MOL0     C14895  10.223   4.834   0.382 -0.6795 -0.3559 -0.2766
  852MOL0     C14896  10.352   4.808   0.473  0.3623  0.1230  0.2085
  852MOL0     C14897  10.455   4.734   0.382  0.5921  0.1942 -0.3371
  852MOL0     C14898  10.572   4.696   0.464 -0.5297  0.0034  0.0218
  852MOL0     C14899  10.689   4.634   0.385  0.2114  0.3276  0.1553
  852MOL0     C14900  10.748   4.726   0.278  1.0511 -0.0114  0.4917
  852MOL0     C14901  10.877   4.665   0.223  0.6446 -0.4129  0.2151
  852MOL0     N14902  10.942   4.757   0.122  0.6477  0.9156 -0.7173
  852MOL0     C14903  10.889   4.790  -0.006  0.3493  0.1268  0.0420
  852MOL0     C14904  10.993   4.840  -0.074  0.0349  0.0423  0.2962
  852MOL0     C14905  11.021   4.903  -0.214 -0.2583 -0.3041  0.4164
  852MOL0     C14906  11.027   4.793  -0.316  0.2178 -0.4188 -0.1378
  852MOL0     C14907  11.154   4.705  -0.287  0.1440  0.1877  0.5190
  852MOL0     C14908  11.152   4.607  -0.399 -0.1997 -0.1034  0.3044
  852MOL0     O14909  11.292   4.578  -0.412  0.6979 -0.0940 -1.0851
  852MOL0     C14910  11.324   4.475  -0.497 -0.2786 -0.0091 -0.1313
  852MOL0     C14911  11.242   4.409  -0.591 -0.1033  0.5943  0.1197
  852MOL0     C14912  11.291   4.296  -0.658  0.2943  0.2133  0.5384
  852MOL0     C14913  11.427   4.261  -0.653  0.2156  0.9319 -0.0014
  852MOL0     C14914  11.491   4.169  -0.753  0.0748  0.4659 -0.2970
  852MOL0     O14915  11.395   4.072  -0.805 -0.8784  0.3641 -0.0421
  852MOL0     C14916  11.426   3.964  -0.884 -1.0666  0.4424 -0.3200
  852MOL0     C14917  11.335   3.859  -0.881  0.1276 -0.7383  0.1631
  852MOL0     C14918  11.348   3.735  -0.949 -0.9336 -0.6360  0.0532
  852MOL0     C14919  11.460   3.728  -1.040 -0.3172 -0.5039 -0.0950
  852MOL0     O14920  11.456   3.623  -1.114  0.0638  0.2691  0.4902
  852MOL0     C14921  11.565   3.525  -1.090 -0.4173 -0.0283 -0.2122
  852MOL0     C14922  11.620   3.483  -1.223 -0.2255  0.1601 -0.8479
  852MOL0     C14923  11.764   3.429  -1.221 -0.7780  1.0071 -0.3377
  852MOL0     C14924  11.807   3.391  -1.367  1.2694 -0.5070  0.2291
  852MOL0     C14925  11.954   3.349  -1.374  0.6354 -0.0732 -0.4771
  852MOL0     C14926  11.984   3.346  -1.524 -0.4285 -0.1720  0.5202
  852MOL0     C14927  12.109   3.274  -1.533 -0.4468 -0.1493 -0.4945
  852MOL0     C14928  12.154   3.259  -1.679  0.4972  1.6481 -0.2976
  852MOL0    Cl14929  12.212   3.416  -1.756  0.5213  0.4147  0.1773
  852MOL0     C14930  11.553   3.831  -1.051  0.3961 -0.7514  0.2513
  852MOL0     C14931  11.542   3.944  -0.971  1.0411  0.0215 -0.8277
  852MOL0     O14932  11.610   4.169  -0.779 -0.6219  0.5591  0.2287
  852MOL0     C14933  11.507   4.319  -0.556 -0.5498  0.4483 -0.0600
  852MOL0     C14934  11.453   4.418  -0.468 -0.1508 -0.1262  0.2437
  852MOL0     N14935  11.100   4.848   0.013  0.1320 -0.2674  0.1078
  852MOL0     N14936  11.070   4.799   0.128  0.0005 -0.3374  0.9018
  852MOL0     C14937   9.869   4.597   0.604 -0.2006 -0.9578  1.0280
  852MOL0     C14938   9.742   4.590   0.670 -1.4678 -0.2041 -0.0670
  852MOL0     C14939   9.299   4.741   0.774  0.0083 -1.2448 -0.1772
  852MOL0     C14940   9.204   4.850   0.759  0.0948  0.7453 -0.4403
  852MOL0     C14941   9.068   4.831   0.775 -0.4733 -0.1298  0.7840
  852MOL0     C14942   9.017   4.703   0.790 -0.5858 -0.3568 -0.2034
  852MOL0     O14943   8.887   4.680   0.799  0.4592 -0.8416 -0.0850
  852MOL0     C14944   8.787   4.761   0.734  0.0440  0.3880  0.7971
  852MOL0     C14945   8.680   4.673   0.690 -0.0656 -0.4248 -0.3214
  852MOL0     C14946   8.558   4.756   0.630 -0.9062 -0.6389 -0.0287
  852MOL0     C14947   8.436   4.670   0.602  0.9227 -0.1479  0.7407
  852MOL0     C14948   8.318   4.754   0.630  0.3147  0.0390 -0.5051
  852MOL0     C14949   8.224   4.819   0.673  0.3601  0.6164  0.1942
  852MOL0     C14950   9.104   4.599   0.802 -1.0350  0.9579 -0.7094
  852MOL0     C14951   9.244   4.613   0.800 -0.3007 -0.0315 -0.3281
  852MOL0     C14952   9.328   4.482   0.808 -0.0186 -1.0866  0.3675
  852MOL0     H14953   9.633   4.898   0.583 -0.5987 -1.0062 -1.7164
  852MOL0     H14954   9.845   4.923   0.489  0.8443  0.5582  2.5276
  852MOL0     H14955  10.030   4.904   0.380 -0.9159 -1.5039 -0.0118
  852MOL0     H14956  10.121   4.917   0.538  0.8185  1.4467 -0.8223
  852MOL0     H14957  10.252   4.929   0.336 -0.9733 -0.9461 -1.7051
  852MOL0     H14958  10.207   4.756   0.308 -0.8808  1.0873 -1.8134
  852MOL0     H14959  10.331   4.751   0.564  2.1154 -0.1157  0.5108
  852MOL0     H14960  10.396   4.901   0.510 -0.5642  0.0335  1.5892
  852MOL0     H14961  10.413   4.641   0.343 -0.0507  0.9165 -1.4251
  852MOL0     H14962  10.483   4.806   0.305 -0.4072  0.0581 -0.8477
  852MOL0     H14963  10.623   4.783   0.507 -2.2461  1.1375 -0.1246
  852MOL0     H14964  10.541   4.633   0.548 -0.2752 -0.4555 -0.2201
  852MOL0     H14965  10.764   4.619   0.463  0.4466  1.3126  0.1321
  852MOL0     H14966  10.665   4.537   0.340 -1.4318  0.0383  1.5499
  852MOL0     H14967  10.775   4.822   0.322 -1.8348 -0.1345  2.8373
  852MOL0     H14968  10.680   4.741   0.194  0.9119 -0.6654  0.4828
  852MOL0     H14969  10.953   4.651   0.300 -0.1224  1.6203  1.4237
  852MOL0     H14970  10.854   4.576   0.164  3.0390 -1.4592  0.7552
  852MOL0     H14971  10.787   4.778  -0.041 -0.1313  1.1486  1.0259
  852MOL0     H14972  10.955   4.987  -0.237  0.6921  0.3691  0.0610
  852MOL0     H14973  11.119   4.952  -0.207 -0.2629 -0.4556  1.8241
  852MOL0     H14974  10.938   4.730  -0.309  1.1067 -1.6773  0.2381
  852MOL0     H14975  11.033   4.852  -0.408 -0.3564  1.2189  0.8325
  852MOL0     H14976  11.157   4.647  -0.194  1.0553  0.0530  0.4073
  852MOL0     H14977  11.242   4.768  -0.296 -0.2227  0.6188 -0.1542
  852MOL0     H14978  11.111   4.645  -0.494  1.8150 -1.3216 -1.1209
  852MOL0     H14979  11.090   4.522  -0.370  0.8903  0.0458  3.3688
  852MOL0     H14980  11.149   4.451  -0.627 -0.3954  0.1339  0.3311
  852MOL0     H14981  11.235   4.249  -0.738  1.3603 -0.0830 -0.0378
  852MOL0     H14982  11.249   3.871  -0.816  0.7434 -2.1812  1.3009
  852MOL0     H14983  11.274   3.656  -0.937 -1.2978 -0.4320 -0.7769
  852MOL0     H14984  11.643   3.572  -1.029 -0.9048 -1.8679  1.9847
  852MOL0     H14985  11.529   3.435  -1.040 -5.1505  2.4463  1.5065
  852MOL0     H14986  11.551   3.410  -1.268 -0.4803 -0.9341  1.1736
  852MOL0     H14987  11.612   3.567  -1.292  3.6086 -1.4171 -3.5245
  852MOL0     H14988  11.838   3.502  -1.189  2.8295 -2.3268 -0.3454
  852MOL0     H14989  11.768   3.337  -1.162 -3.8191  0.6874 -0.4371
  852MOL0     H14990  11.791   3.474  -1.436  0.4283 -0.6211  0.2781
  852MOL0     H14991  11.743   3.311  -1.406 -0.2448 -0.7140  2.9350
  852MOL0     H14992  11.959   3.252  -1.324  0.3692  1.0705  1.8725
  852MOL0     H14993  12.016   3.423  -1.323 -3.5678  2.7991  0.9414
  852MOL0     H14994  11.909   3.284  -1.574 -0.1421  0.2433 -0.4442
  852MOL0     H14995  11.991   3.449  -1.561  0.0046  0.1661  1.5108
  852MOL0     H14996  12.104   3.171  -1.495 -3.7810  0.0102 -0.1453
  852MOL0     H14997  12.189   3.331  -1.487  0.7450  1.7834 -4.5147
  852MOL0     H14998  12.237   3.189  -1.684  0.2901  1.3648  0.1926
  852MOL0     H14999  12.075   3.212  -1.739 -1.8481  2.2713  2.1052
  852MOL0     H15000  11.634   3.816  -1.121  1.8119  0.2710  1.6219
  852MOL0     H15001  11.610   4.029  -0.971  1.1525 -0.0669 -1.4404
  852MOL0     H15002  11.610   4.287  -0.544 -0.1214  0.9477 -2.1249
  852MOL0     H15003  11.514   4.461  -0.389  2.6112 -2.8727 -0.1826
  852MOL0     H15004   9.933   4.510   0.593  0.0686 -0.5208 -1.5386
  852MOL0     H15005   9.721   4.499   0.724  0.7018 -1.5476 -1.3425
  852MOL0     H15006   9.234   4.954   0.749  1.7814  0.2410 -1.0528
  852MOL0     H15007   8.993   4.908   0.759 -0.5173 -0.7583 -3.3684
  852MOL0     H15008   8.829   4.806   0.644  2.1388 -1.9420  0.4739
  852MOL0     H15009   8.742   4.839   0.796 -0.9672  2.1184 -1.9837
  852MOL0     H15010   8.654   4.611   0.776  0.8456 -1.2391 -0.6166
  852MOL0     H15011   8.723   4.599   0.622  2.8097 -1.1135  2.0396
  852MOL0     H15012   8.590   4.796   0.534 -0.8678  1.3635  0.7587
  852MOL0     H15013   8.534   4.839   0.697 -1.5669 -0.9411  0.1199
  852MOL0     H15014   8.445   4.625   0.503  1.0327 -0.7167  1.0005
  852MOL0     H15015   8.426   4.589   0.676 -0.1239  0.6086  1.4471
  852MOL0     H15016   8.146   4.869   0.728 -0.0117  0.0990  0.1509
  852MOL0     H15017   9.074   4.497   0.822  3.6910 -0.9198 -1.9356
  852MOL0     H15018   9.418   4.510   0.864  0.7094  0.5588 -1.4778
  852MOL0     H15019   9.269   4.396   0.841  1.4485 -0.9529  3.7958
  852MOL0     H15020   9.362   4.455   0.708 -0.2920 -0.3549  0.0697
  853MOL0     O15021   2.807   5.977   8.409 -0.3966  1.0200  0.5672
  853MOL0     C15022   2.768   6.004   8.519  1.0905 -0.5784 -0.3419
  853MOL0     O15023   2.846   6.050   8.624  0.5348  0.0961  0.3523
  853MOL0     C15024   2.977   6.091   8.613  0.2501  0.2515 -0.4717
  853MOL0     C15025   3.071   6.000   8.556 -0.8439 -0.0743  0.6489
  853MOL0     C15026   3.205   6.025   8.572 -0.8102  0.5636  0.4450
  853MOL0     C15027   3.253   6.148   8.608  0.4703  0.9803 -1.1370
  853MOL0     O15028   3.380   6.194   8.598  0.2463 -0.5805  0.3248
  853MOL0     C15029   3.477   6.114   8.531  0.1388 -0.1868  0.0509
  853MOL0     C15030   3.607   6.196   8.517  0.2746 -0.3105 -0.6983
  853MOL0     C15031   3.712   6.098   8.459  0.4713  0.0833  0.2717
  853MOL0     C15032   3.843   6.176   8.447 -1.2871  0.5675 -0.2345
  853MOL0     C15033   3.937   6.085   8.376 -0.8976 -0.3616  0.2541
  853MOL0     C15034   4.090   6.134   8.374  0.1338 -0.3903 -1.3496
  853MOL0     C15035   4.186   6.017   8.337 -0.3861 -0.1543 -0.0947
  853MOL0     C15036   4.322   6.028   8.384 -0.5168 -0.6101  0.5825
  853MOL0     N15037   4.387   6.157   8.337  0.5758  0.3280 -0.1899
  853MOL0     C15038   4.468   6.242   8.409 -0.1943  0.3465 -0.1897
  853MOL0     C15039   4.513   6.343   8.327  0.4049 -0.4673  0.5337
  853MOL0     C15040   4.606   6.459   8.356  0.2081 -0.1305  0.2965
  853MOL0     C15041   4.701   6.434   8.480 -0.1660  0.4719  0.2956
  853MOL0     C15042   4.763   6.572   8.524  0.9008  0.7701  0.3992
  853MOL0     C15043   4.867   6.570   8.635 -1.3991  0.2870 -0.1997
  853MOL0     O15044   4.873   6.688   8.718 -0.4307  0.1908 -0.1742
  853MOL0     C15045   4.993   6.746   8.747  0.1831 -0.3513  0.5081
  853MOL0     C15046   5.111   6.671   8.761  0.3563  0.5462 -0.3618
  853MOL0     C15047   5.226   6.745   8.808 -0.7828 -0.1274  0.0560
  853MOL0     C15048   5.217   6.880   8.839  0.2424  0.6706 -0.6014
  853MOL0     C15049   5.333   6.943   8.905  0.1160 -0.1008  0.4413
  853MOL0     O15050   5.403   6.870   8.995  0.1439  0.1101  0.3700
  853MOL0     C15051   5.514   6.931   9.050 -0.6127  0.1399 -1.3568
  853MOL0     C15052   5.648   6.882   9.025  0.2042 -0.7668 -0.6200
  853MOL0     C15053   5.766   6.939   9.072 -0.4833  0.2318 -0.3565
  853MOL0     C15054   5.757   7.050   9.156 -0.4388 -0.8737  0.2173
  853MOL0     O15055   5.864   7.105   9.215  0.2724  0.1085 -0.8501
  853MOL0     C15056   5.861   7.117   9.356  0.0098  0.4619 -0.4513
  853MOL0     C15057   5.999   7.163   9.389 -0.3705  0.1174 -0.2866
  853MOL0     C15058   5.996   7.204   9.546  0.1405 -0.4713  1.1167
  853MOL0     C15059   6.128   7.266   9.593 -0.6105  0.7523  0.1501
  853MOL0     C15060   6.232   7.154   9.628  1.0336 -0.7485  0.5982
  853MOL0     C15061   6.356   7.219   9.688 -0.5014 -0.7159  0.2264
  853MOL0     C15062   6.437   7.264   9.578 -0.0092 -0.2551  0.5057
  853MOL0     C15063   6.585   7.303   9.618 -0.1296 -0.3593 -0.3868
  853MOL0    Cl15064   6.586   7.463   9.694  0.5219  0.3391 -0.7429
  853MOL0     C15065   5.624   7.100   9.179 -0.5183  0.7254 -0.4272
  853MOL0     C15066   5.507   7.048   9.124 -0.0371 -0.2136 -0.0617
  853MOL0     O15067   5.354   7.065   8.875  0.2900  0.0184 -0.1201
  853MOL0     C15068   5.103   6.949   8.814  2.3068 -0.1596 -0.7529
  853MOL0     C15069   4.988   6.883   8.768 -0.0202 -0.4125  0.4698
  853MOL0     N15070   4.458   6.316   8.201 -0.7955  0.2755  0.5032
  853MOL0     N15071   4.396   6.198   8.209 -0.8045  0.2331  0.2906
  853MOL0     C15072   3.161   6.245   8.658 -0.1330  0.9547  0.1392
  853MOL0     C15073   3.022   6.220   8.654  0.0609  0.8632 -0.1739
  853MOL0     C15074   2.623   5.988   8.541  1.0955  0.1388  0.0679
  853MOL0     C15075   2.575   5.854   8.541  0.1262  0.8201  0.0133
  853MOL0     C15076   2.443   5.824   8.580 -0.4292 -0.5915  0.7437
  853MOL0     C15077   2.356   5.926   8.619 -0.1872  0.8116  0.9091
  853MOL0     O15078   2.236   5.885   8.668  0.0725 -0.2307 -0.5667
  853MOL0     C15079   2.123   5.842   8.588 -0.4532 -0.9221 -0.1637
  853MOL0     C15080   2.035   5.957   8.543 -0.2008  0.2969 -0.3310
  853MOL0     C15081   1.931   5.901   8.453  0.9525  0.0080  0.0583
  853MOL0     C15082   1.808   5.992   8.480  0.5440 -0.3060  0.3944
  853MOL0     C15083   1.852   6.127   8.431 -0.9367 -0.6898  0.0347
  853MOL0     C15084   1.879   6.236   8.381 -0.5450  0.1178 -0.2988
  853MOL0     C15085   2.410   6.054   8.623  0.5808  0.0920  0.8326
  853MOL0     C15086   2.536   6.088   8.581 -0.0195 -0.2704  1.2073
  853MOL0     C15087   2.584   6.234   8.582 -0.6966  0.5372  0.7556
  853MOL0     H15088   3.042   5.905   8.512  1.6221 -0.4638 -0.2844
  853MOL0     H15089   3.280   5.952   8.541 -0.9928  1.2435 -1.7823
  853MOL0     H15090   3.503   6.026   8.590  0.6409 -0.9087 -1.2169
  853MOL0     H15091   3.455   6.093   8.426  0.0689  2.0299 -0.4142
  853MOL0     H15092   3.639   6.223   8.618 -0.6373 -0.8521 -0.2502
  853MOL0     H15093   3.590   6.284   8.454  1.9408 -0.1585 -0.9821
  853MOL0     H15094   3.677   6.065   8.361 -1.2275  0.7430  0.6177
  853MOL0     H15095   3.731   6.004   8.513  0.0166 -1.2128 -1.6981
  853MOL0     H15096   3.829   6.267   8.387  0.2051  0.6131 -0.5679
  853MOL0     H15097   3.880   6.200   8.547 -0.7879 -0.0289 -0.2707
  853MOL0     H15098   3.935   5.991   8.431  1.4853  0.3491  1.6783
  853MOL0     H15099   3.904   6.072   8.272 -0.7335  1.7386 -0.1077
  853MOL0     H15100   4.111   6.227   8.321  0.2791 -0.3780 -1.2734
  853MOL0     H15101   4.107   6.156   8.480 -0.0553 -2.2509 -0.8979
  853MOL0     H15102   4.183   6.008   8.228  0.7166  1.6579 -0.3257
  853MOL0     H15103   4.148   5.925   8.383 -1.2975  0.6839  0.9050
  853MOL0     H15104   4.339   6.042   8.491  1.9261  0.8964  0.0812
  853MOL0     H15105   4.380   5.941   8.353  0.2684  0.2695 -0.5092
  853MOL0     H15106   4.499   6.232   8.512 -1.7300 -0.4515  0.2234
  853MOL0     H15107   4.669   6.477   8.269  0.0144 -2.2396 -0.3269
  853MOL0     H15108   4.551   6.552   8.374  1.9919  1.5717 -2.3386
  853MOL0     H15109   4.636   6.398   8.561 -2.7001  0.2272 -1.7340
  853MOL0     H15110   4.775   6.363   8.443 -1.1992  0.6292 -2.2808
  853MOL0     H15111   4.678   6.627   8.566  0.1765 -0.6679  0.9029
  853MOL0     H15112   4.795   6.621   8.432 -1.7772 -0.4764 -1.2919
  853MOL0     H15113   4.962   6.554   8.583 -0.4629 -1.7745  1.9670
  853MOL0     H15114   4.842   6.484   8.697  1.0220 -0.2730  0.0928
  853MOL0     H15115   5.102   6.567   8.729 -0.4200 -1.3326  4.9947
  853MOL0     H15116   5.322   6.698   8.826 -0.4587  1.4690  3.1174
  853MOL0     H15117   5.653   6.792   8.964  1.1451 -0.7499 -0.5805
  853MOL0     H15118   5.863   6.890   9.071 -1.1272 -1.2828  2.1257
  853MOL0     H15119   5.787   7.190   9.391  0.4933  0.3884  0.7472
  853MOL0     H15120   5.841   7.023   9.408  4.3286 -0.5343 -0.2789
  853MOL0     H15121   6.066   7.077   9.377 -0.3348  0.1195 -0.0979
  853MOL0     H15122   6.026   7.248   9.325  2.6707  0.0937  0.8137
  853MOL0     H15123   5.930   7.292   9.550  1.4304  0.6789 -0.6910
  853MOL0     H15124   5.963   7.124   9.611  0.1758 -1.2422  0.2104
  853MOL0     H15125   6.096   7.324   9.680  1.6796  1.0837  0.8439
  853MOL0     H15126   6.174   7.341   9.527 -0.3375  1.4494  1.1135
  853MOL0     H15127   6.258   7.102   9.536  1.1842 -0.1955  0.3235
  853MOL0     H15128   6.188   7.079   9.694  1.6704 -1.4716  0.2094
  853MOL0     H15129   6.342   7.309   9.748 -1.2103 -1.8343  1.7732
  853MOL0     H15130   6.416   7.149   9.747  3.7048  3.5594  1.7025
  853MOL0     H15131   6.386   7.350   9.535 -2.8899 -0.7482  2.6468
  853MOL0     H15132   6.441   7.190   9.498  2.9140  2.2542 -1.9093
  853MOL0     H15133   6.620   7.235   9.696  2.1253  1.1766  0.0227
  853MOL0     H15134   6.647   7.303   9.528  0.4172 -0.4301 -0.0191
  853MOL0     H15135   5.612   7.187   9.243  0.2625  0.0258  0.7227
  853MOL0     H15136   5.413   7.095   9.151 -0.9517 -2.8147  1.6780
  853MOL0     H15137   5.103   7.057   8.825 -0.3843 -0.1432 -0.2004
  853MOL0     H15138   4.891   6.930   8.754 -0.6066 -2.1092 -1.9592
  853MOL0     H15139   3.188   6.349   8.678 -4.2086  1.4186  5.8512
  853MOL0     H15140   2.960   6.298   8.696  0.0930 -0.1850  1.9296
  853MOL0     H15141   2.641   5.771   8.517 -1.3025  0.1843 -2.0044
  853MOL0     H15142   2.401   5.724   8.585  0.4095 -1.1570 -1.9613
  853MOL0     H15143   2.057   5.778   8.648 -1.3303  0.9947  0.9928
  853MOL0     H15144   2.153   5.788   8.497 -0.1041  1.2033 -1.3748
  853MOL0     H15145   2.096   6.038   8.502  2.0027 -1.7359 -1.3437
  853MOL0     H15146   1.984   5.996   8.631  0.2554 -1.4300  0.7407
  853MOL0     H15147   1.901   5.800   8.483  0.9256  0.5135  1.8362
  853MOL0     H15148   1.955   5.895   8.346 -2.0937 -4.9422 -0.6829
  853MOL0     H15149   1.728   5.961   8.412 -2.4997 -0.7205  3.8714
  853MOL0     H15150   1.766   5.994   8.581  2.0602  1.9872  1.0666
  853MOL0     H15151   1.903   6.333   8.342 -0.4678  0.7837  1.3363
  853MOL0     H15152   2.340   6.132   8.653  0.9771  0.0686  1.8666
  853MOL0     H15153   2.629   6.273   8.490 -0.9012 -0.0208  0.4106
  853MOL0     H15154   2.503   6.307   8.588 -0.4136  0.9753 -0.4286
  853MOL0     H15155   2.653   6.243   8.667 -0.7120  0.6431  0.7568
  854MOL0     O15156   1.744   4.891  10.847 -1.1508  0.3101  0.6232
  854MOL0     C15157   1.708   4.871  10.730 -0.2101  0.3484  0.2867
  854MOL0     O15158   1.777   4.802  10.629 -1.3163  0.9402  0.6872
  854MOL0     C15159   1.875   4.714  10.658  0.0019  0.2976 -0.2133
  854MOL0     C15160   1.972   4.721  10.758 -0.4475 -0.2824  1.0199
  854MOL0     C15161   2.075   4.622  10.761  0.0560 -1.5943 -0.4946
  854MOL0     C15162   2.098   4.524  10.664  0.4522 -0.4056  0.4060
  854MOL0     O15163   2.183   4.423  10.679 -0.2601 -0.1078 -0.4922
  854MOL0     C15164   2.307   4.454  10.750 -0.0384 -0.4358  0.0767
  854MOL0     C15165   2.393   4.327  10.708 -0.3708 -0.1044 -0.1725
  854MOL0     C15166   2.536   4.358  10.760 -0.2851  0.6595  0.2410
  854MOL0     C15167   2.658   4.296  10.686  0.2079 -0.8819  0.6536
  854MOL0     C15168   2.777   4.398  10.689  0.4411 -0.6569 -0.4895
  854MOL0     C15169   2.807   4.470  10.826 -0.0161 -0.2305 -0.1028
  854MOL0     C15170   2.920   4.568  10.807 -0.3666  0.3625  0.0598
  854MOL0     C15171   2.966   4.623  10.942 -0.3497  0.8125 -0.2170
  854MOL0     N15172   3.092   4.698  10.931  0.3507 -0.8479 -0.3236
  854MOL0     C15173   3.095   4.832  10.881  0.0592  0.6624  0.1915
  854MOL0     C15174   3.231   4.855  10.886  0.8159  0.7800 -0.0614
  854MOL0     C15175   3.298   4.981  10.843  0.0889 -0.0136  0.5639
  854MOL0     C15176   3.442   4.988  10.862 -0.0210  0.3269  0.2091
  854MOL0     C15177   3.479   5.031  11.001  0.5865  0.3539  0.5960
  854MOL0     C15178   3.622   5.026  11.049 -0.2541 -0.8360  0.3603
  854MOL0     O15179   3.710   5.109  10.962 -0.1223  0.1675 -0.2579
  854MOL0     C15180   3.843   5.099  10.990  0.0804  0.4993  1.1217
  854MOL0     C15181   3.931   5.180  10.922  1.0903 -0.0376 -0.0514
  854MOL0     C15182   4.068   5.173  10.935  0.1054  0.4803 -0.6274
  854MOL0     C15183   4.125   5.075  11.020  0.9833  0.1249  0.5592
  854MOL0     C15184   4.271   5.048  11.023  0.6228  0.3479  0.6740
  854MOL0     O15185   4.362   5.117  10.944 -0.0289  0.6550 -0.3296
  854MOL0     C15186   4.490   5.063  10.935 -0.5935 -0.7517  0.1619
  854MOL0     C15187   4.584   5.107  11.029  0.6758  0.2319  0.4202
  854MOL0     C15188   4.718   5.063  11.018 -0.3099  0.4837  0.0681
  854MOL0     C15189   4.758   4.981  10.914  0.0860 -0.1085 -0.2406
  854MOL0     O15190   4.883   4.935  10.902 -0.3344 -0.1543  0.1594
  854MOL0     C15191   4.984   4.994  10.983 -0.9646  0.3229 -1.1854
  854MOL0     C15192   5.100   4.896  10.976 -0.2539  0.0217  0.0033
  854MOL0     C15193   5.224   4.953  11.045  0.3896 -0.6104  0.0437
  854MOL0     C15194   5.347   4.862  11.065  0.4595 -0.1372  1.5110
  854MOL0     C15195   5.458   4.955  11.116 -0.1480  0.1047 -0.4253
  854MOL0     C15196   5.590   4.876  11.120  0.3476 -0.5299  0.1161
  854MOL0     C15197   5.714   4.946  11.169 -0.0930  0.2598 -0.0912
  854MOL0     C15198   5.754   5.059  11.068  0.3104 -0.2672  0.5339
  854MOL0    Cl15199   5.915   5.153  11.114 -0.1209 -0.4249 -0.1643
  854MOL0     C15200   4.664   4.938  10.821  0.3573  0.1624 -0.4630
  854MOL0     C15201   4.527   4.974  10.832 -0.6303 -0.1959  0.7610
  854MOL0     O15202   4.302   4.952  11.101  1.1244 -0.2196  0.4360
  854MOL0     C15203   4.035   4.990  11.094 -0.1747  0.8259 -0.0579
  854MOL0     C15204   3.900   5.009  11.086  0.3082  0.4092 -0.4657
  854MOL0     N15205   3.298   4.742  10.931 -0.8292 -0.2964  0.3226
  854MOL0     N15206   3.212   4.652  10.958 -0.2458  0.2449 -0.3248
  854MOL0     C15207   2.014   4.535  10.554 -0.4459 -0.0687  0.7979
  854MOL0     C15208   1.907   4.630  10.550 -0.2406  0.3352 -0.5335
  854MOL0     C15209   1.568   4.920  10.685 -0.4402  0.5394  0.0447
  854MOL0     C15210   1.518   4.877  10.558  0.2657  0.5339 -0.0115
  854MOL0     C15211   1.396   4.918  10.505 -0.0684 -0.8205 -0.5818
  854MOL0     C15212   1.311   5.001  10.582  0.4917 -0.1978 -0.0049
  854MOL0     O15213   1.188   5.045  10.535 -0.2278  0.3177  0.2146
  854MOL0     C15214   1.131   5.006  10.403 -0.2346  0.0968  0.4226
  854MOL0     C15215   0.991   5.053  10.393 -0.3080 -1.4631  0.4915
  854MOL0     C15216   0.920   4.990  10.275  0.0632  0.8687  0.7891
  854MOL0     C15217   0.780   5.042  10.254  0.7139  0.2185 -0.6710
  854MOL0     C15218   0.687   4.999  10.358  0.0798 -0.5737 -0.4009
  854MOL0     C15219   0.608   4.954  10.438  0.0659  0.0368 -0.5434
  854MOL0     C15220   1.352   5.036  10.712  1.3434 -0.7376 -0.7834
  854MOL0     C15221   1.474   4.992  10.766 -0.9133 -0.7002  0.3611
  854MOL0     C15222   1.500   5.036  10.911 -0.1220  1.7275  0.5661
  854MOL0     H15223   1.975   4.802  10.830  0.0746  2.6128 -2.0235
  854MOL0     H15224   2.138   4.621  10.849 -1.4037  0.8295  0.6724
  854MOL0     H15225   2.354   4.549  10.723  1.3478 -0.4281  2.2544
  854MOL0     H15226   2.289   4.442  10.857  1.0952 -4.4469  0.0044
  854MOL0     H15227   2.393   4.312  10.600  2.4949 -4.5982  0.1806
  854MOL0     H15228   2.360   4.231  10.749  1.9054 -0.3216  1.3487
  854MOL0     H15229   2.532   4.330  10.866 -0.9051 -0.1281  0.0127
  854MOL0     H15230   2.549   4.466  10.743  0.3117  0.6159  0.3705
  854MOL0     H15231   2.687   4.204  10.737  0.2913 -0.3756  1.5389
  854MOL0     H15232   2.640   4.264  10.583 -2.8997 -0.9931  1.1223
  854MOL0     H15233   2.861   4.351  10.638  0.4206  2.1674 -3.3854
  854MOL0     H15234   2.744   4.481  10.626 -0.8613  2.1399  3.4706
  854MOL0     H15235   2.728   4.536  10.863  0.3090 -0.1088  0.3924
  854MOL0     H15236   2.828   4.391  10.899  0.0222 -1.2918 -1.2223
  854MOL0     H15237   2.872   4.639  10.739  0.2718  0.4254 -0.3385
  854MOL0     H15238   3.003   4.532  10.746  0.3255  4.3607 -1.6590
  854MOL0     H15239   2.887   4.682  10.990 -1.9536 -1.8793  0.6263
  854MOL0     H15240   2.981   4.539  11.010 -3.1159  1.8536  1.8684
  854MOL0     H15241   3.019   4.902  10.849 -1.6351 -0.4906  1.5147
  854MOL0     H15242   3.285   4.988  10.735 -2.6896 -3.2370  0.5311
  854MOL0     H15243   3.249   5.068  10.888  1.8712  2.1640 -1.4536
  854MOL0     H15244   3.485   4.890  10.839 -2.0517  0.1160 -3.3589
  854MOL0     H15245   3.479   5.067  10.796 -4.0543  1.2466 -1.2344
  854MOL0     H15246   3.415   4.973  11.068 -1.9303  0.1504 -1.8308
  854MOL0     H15247   3.446   5.135  11.005 -0.5303  0.0774 -0.9039
  854MOL0     H15248   3.648   4.920  11.036 -2.2704 -1.6774  2.4562
  854MOL0     H15249   3.634   5.048  11.155 -1.9690 -0.8026  0.5794
  854MOL0     H15250   3.894   5.252  10.850  0.0803  1.1682  1.6115
  854MOL0     H15251   4.133   5.238  10.878  2.5205 -0.9262  0.3285
  854MOL0     H15252   4.551   5.171  11.111 -1.7841 -1.3056  0.7265
  854MOL0     H15253   4.784   5.082  11.102  1.2577 -1.7138 -0.5919
  854MOL0     H15254   5.021   5.089  10.944  0.1902 -1.2274 -4.2309
  854MOL0     H15255   4.966   4.996  11.091 -1.0363 -1.4453 -1.1300
  854MOL0     H15256   5.065   4.808  11.031  0.3491  0.0153  0.3768
  854MOL0     H15257   5.124   4.858  10.877  0.5003 -1.2871  0.6684
  854MOL0     H15258   5.242   5.044  10.987 -0.2343 -1.7316 -2.0217
  854MOL0     H15259   5.200   4.998  11.142  2.2456  2.5167 -0.7939
  854MOL0     H15260   5.366   4.818  10.967 -3.5917 -2.3036  1.5097
  854MOL0     H15261   5.327   4.773  11.125  0.5897 -0.6511  0.8083
  854MOL0     H15262   5.431   4.980  11.219 -1.9808 -1.2892 -0.5133
  854MOL0     H15263   5.470   5.049  11.061  0.2603 -1.1052 -2.5290
  854MOL0     H15264   5.582   4.787  11.183  3.2521 -1.2735 -0.3853
  854MOL0     H15265   5.609   4.829  11.023 -1.0884 -1.3097  0.1899
  854MOL0     H15266   5.801   4.879  11.177  0.0253  0.3723 -0.4462
  854MOL0     H15267   5.711   4.986  11.271  3.3796 -0.8133  0.5717
  854MOL0     H15268   5.753   5.023  10.965 -1.4591  1.3698 -0.0699
  854MOL0     H15269   5.668   5.126  11.072 -0.6290 -1.4282  0.0527
  854MOL0     H15270   4.682   4.860  10.747 -1.2187 -1.0366  0.3563
  854MOL0     H15271   4.458   4.923  10.767  1.3683 -2.5861  0.3787
  854MOL0     H15272   4.081   4.912  11.154 -0.0598 -0.9409 -2.3322
  854MOL0     H15273   3.839   4.950  11.153 -1.7051  4.8967  2.0902
  854MOL0     H15274   2.018   4.462  10.473 -0.2479 -2.3196  2.7391
  854MOL0     H15275   1.834   4.626  10.471 -0.2520 -1.3497 -0.4800
  854MOL0     H15276   1.580   4.811  10.498  0.7598 -0.2922  1.3741
  854MOL0     H15277   1.373   4.883  10.405  3.0094 -1.7765 -1.0636
  854MOL0     H15278   1.126   4.898  10.382 -0.7478  0.3316 -0.7567
  854MOL0     H15279   1.194   5.044  10.322  0.3164 -3.2973 -0.9317
  854MOL0     H15280   0.993   5.162  10.379 -2.8527 -1.3234  0.6393
  854MOL0     H15281   0.930   5.046  10.483 -1.1437  2.7038  0.4634
  854MOL0     H15282   0.917   4.883  10.300 -2.1989  1.2417  2.4539
  854MOL0     H15283   0.978   5.015  10.187  3.1080 -0.8731  2.1366
  854MOL0     H15284   0.779   5.151  10.248 -1.1785  0.4359  1.8952
  854MOL0     H15285   0.739   5.009  10.158 -0.3052 -1.7076  0.3619
  854MOL0     H15286   0.556   4.900  10.514  0.1900  1.5501  0.6719
  854MOL0     H15287   1.283   5.090  10.775  0.9804 -0.7792 -1.1375
  854MOL0     H15288   1.603   5.072  10.919  0.9811 -1.0818  0.1804
  854MOL0     H15289   1.435   5.119  10.941 -0.3999  1.4122  0.8453
  854MOL0     H15290   1.474   4.952  10.977 -1.4906  1.1783 -0.6111
  855MOL0     O15291   2.150   9.560  10.510  0.2672 -0.2246  0.6589
  855MOL0     C15292   2.173   9.526  10.626  0.0530  0.0363  0.4589
  855MOL0     O15293   2.141   9.598  10.731  0.0520  0.0300 -0.2461
  855MOL0     C15294   2.046   9.694  10.698  0.4150  0.7861  0.9073
  855MOL0     C15295   2.086   9.822  10.677  0.6966 -0.9016  0.0118
  855MOL0     C15296   1.989   9.913  10.630 -1.1122  0.8377 -0.2869
  855MOL0     C15297   1.855   9.877  10.597  0.4048  0.5290 -0.7947
  855MOL0     O15298   1.778   9.977  10.540 -0.1398 -0.1108  0.2640
  855MOL0     C15299   1.661   9.930  10.479 -0.1687 -0.5809  1.2244
  855MOL0     C15300   1.620  10.046  10.383  0.4240  0.0026  0.3062
  855MOL0     C15301   1.485  10.100  10.424 -0.0722 -0.6572  0.0299
  855MOL0     C15302   1.371  10.036  10.349  0.4173 -0.4950 -0.4785
  855MOL0     C15303   1.256  10.121  10.309  0.3172  0.4760  0.7790
  855MOL0     C15304   1.164  10.053  10.204  0.5198 -0.1730 -0.5213
  855MOL0     C15305   1.031  10.125  10.168  0.4709 -0.2869  0.1373
  855MOL0     C15306   0.927  10.057  10.071 -0.3015 -0.1208  0.4884
  855MOL0     N15307   0.995  10.053   9.936 -0.0185  0.5371 -0.0758
  855MOL0     C15308   1.082   9.953   9.895  0.7648  0.8158 -0.0343
  855MOL0     C15309   1.082   9.957   9.758  0.0864  0.3785  0.2498
  855MOL0     C15310   1.137   9.862   9.655 -0.0419  0.1202  0.0798
  855MOL0     C15311   1.282   9.821   9.686  0.4608 -0.1746  0.1849
  855MOL0     C15312   1.307   9.669   9.657  0.3999 -0.1784 -0.5432
  855MOL0     C15313   1.454   9.634   9.684  1.0412 -1.2643  0.3697
  855MOL0     O15314   1.540   9.702   9.595 -0.4329  0.2069  0.2560
  855MOL0     C15315   1.673   9.679   9.578  0.3103  0.0283 -0.8689
  855MOL0     C15316   1.743   9.585   9.653  0.7743 -0.2592 -0.1043
  855MOL0     C15317   1.875   9.571   9.631  0.5182 -0.5459  0.1595
  855MOL0     C15318   1.939   9.652   9.531  0.2371  0.3267  0.6033
  855MOL0     C15319   2.087   9.640   9.505  0.2499 -0.1133  0.7604
  855MOL0     O15320   2.151   9.573   9.593 -0.1295  0.2604  0.0556
  855MOL0     C15321   2.284   9.572   9.599  1.1569 -1.3197 -0.2893
  855MOL0     C15322   2.351   9.513   9.494 -0.0859 -0.0844  0.0952
  855MOL0     C15323   2.496   9.512   9.487 -0.0426 -0.0417 -0.2589
  855MOL0     C15324   2.564   9.590   9.582  0.1156  0.1934  0.7330
  855MOL0     O15325   2.701   9.599   9.581 -0.1452  0.5057  0.5857
  855MOL0     C15326   2.779   9.683   9.661 -0.4939 -0.1757 -0.7021
  855MOL0     C15327   2.899   9.741   9.578  0.1794  0.5671  0.1563
  855MOL0     C15328   2.989   9.631   9.529  0.6842 -1.0254 -0.1815
  855MOL0     C15329   3.123   9.688   9.484 -0.8222 -0.5589  0.4343
  855MOL0     C15330   3.187   9.591   9.391 -0.1266  0.0865 -0.6325
  855MOL0     C15331   3.323   9.636   9.363  0.2769  0.3302  0.4939
  855MOL0     C15332   3.413   9.530   9.290 -0.0213 -0.2042  0.3846
  855MOL0     C15333   3.544   9.596   9.235  0.2720 -0.0539  0.4081
  855MOL0    Cl15334   3.522   9.692   9.086  0.0951 -0.3516  0.1445
  855MOL0     C15335   2.494   9.652   9.685 -0.2648 -0.1549  0.5815
  855MOL0     C15336   2.353   9.640   9.697 -0.0153  0.0361  0.2348
  855MOL0     O15337   2.142   9.719   9.426 -0.7352 -0.0314  0.1432
  855MOL0     C15338   1.869   9.758   9.459 -0.5454  0.7118 -0.3757
  855MOL0     C15339   1.732   9.773   9.489 -0.0526 -0.5468 -0.3235
  855MOL0     N15340   0.994  10.057   9.719  0.6135  0.1456 -0.1376
  855MOL0     N15341   0.950  10.118   9.824  0.1103  1.0667 -0.3012
  855MOL0     C15342   1.818   9.736  10.614  1.0040  0.5902 -1.0561
  855MOL0     C15343   1.911   9.654  10.677 -0.3146 -1.6110  0.2597
  855MOL0     C15344   2.261   9.415  10.658 -0.1256 -0.9161  0.8155
  855MOL0     C15345   2.273   9.384  10.792 -0.8077  0.2847 -0.6953
  855MOL0     C15346   2.325   9.252  10.835  0.6335 -0.6933 -0.5789
  855MOL0     C15347   2.402   9.183  10.748 -0.4766  0.1118 -0.3076
  855MOL0     O15348   2.471   9.071  10.804  0.6517  0.1193 -0.4533
  855MOL0     C15349   2.542   8.982  10.723  0.4155  0.2966  0.7346
  855MOL0     C15350   2.677   9.051  10.685  0.3757 -0.0544  0.2290
  855MOL0     C15351   2.781   8.963  10.605 -0.1788  0.0370  0.6662
  855MOL0     C15352   2.758   8.966  10.449  0.8618  0.0509 -1.1163
  855MOL0     C15353   2.761   9.100  10.402  0.5261 -0.6539  0.8039
  855MOL0     C15354   2.791   9.209  10.358  0.1168 -0.5780  0.9774
  855MOL0     C15355   2.406   9.217  10.615 -0.0730 -0.2673 -0.0438
  855MOL0     C15356   2.336   9.330  10.565 -0.1794  0.3315  0.0473
  855MOL0     C15357   2.375   9.365  10.423  0.6305 -0.5239 -0.4390
  855MOL0     H15358   2.187   9.852  10.704  0.5700 -0.9737  0.5854
  855MOL0     H15359   2.023  10.016  10.621  0.8588  0.3657  1.1648
  855MOL0     H15360   1.685   9.842  10.420 -0.7074  1.0844 -1.6752
  855MOL0     H15361   1.582   9.907  10.552 -1.3502  0.2426  0.2423
  855MOL0     H15362   1.606  10.007  10.281  0.4359 -1.1305  0.7229
  855MOL0     H15363   1.698  10.122  10.392  0.3809 -0.0537  1.1728
  855MOL0     H15364   1.478  10.208  10.405 -4.7194 -0.6502  0.6669
  855MOL0     H15365   1.473  10.083  10.531  2.6718 -0.4946  0.4169
  855MOL0     H15366   1.407  10.002  10.251 -0.8449  0.7208 -1.3876
  855MOL0     H15367   1.345   9.957  10.421  0.3786  1.8635  2.2621
  855MOL0     H15368   1.185  10.146  10.388 -0.2292  3.1215 -0.4163
  855MOL0     H15369   1.284  10.218  10.267  0.3213  0.2634  0.2724
  855MOL0     H15370   1.218  10.036  10.111  0.2699  1.9244 -1.0957
  855MOL0     H15371   1.137   9.959  10.253 -4.1067  1.2220  0.1478
  855MOL0     H15372   1.063  10.218  10.120 -0.7235  0.2769  0.3745
  855MOL0     H15373   0.971  10.153  10.256 -3.7960 -1.5575 -2.0828
  855MOL0     H15374   0.887   9.963  10.109  0.2617 -0.6934 -0.3055
  855MOL0     H15375   0.843  10.127  10.065  0.6347  1.3560  3.1659
  855MOL0     H15376   1.140   9.887   9.959 -1.6237 -1.0720  0.3006
  855MOL0     H15377   1.069   9.777   9.664  1.2464 -1.0388 -0.7183
  855MOL0     H15378   1.118   9.898   9.554 -0.8542  3.0753  1.1993
  855MOL0     H15379   1.353   9.885   9.633  0.6991  0.5884  1.3845
  855MOL0     H15380   1.299   9.848   9.790 -0.1837  0.4204  0.1392
  855MOL0     H15381   1.288   9.658   9.550 -2.4156 -0.6130 -0.0589
  855MOL0     H15382   1.243   9.602   9.714  0.5098 -0.2533 -0.5084
  855MOL0     H15383   1.444   9.526   9.681 -1.0241 -1.1543  1.5710
  855MOL0     H15384   1.488   9.668   9.783 -0.7192  0.1639  0.5399
  855MOL0     H15385   1.686   9.528   9.725  1.4040 -2.1905 -1.0674
  855MOL0     H15386   1.924   9.495   9.690 -0.7997 -1.9398 -0.4473
  855MOL0     H15387   2.295   9.473   9.411 -0.5775  3.2392 -1.3134
  855MOL0     H15388   2.549   9.458   9.409 -0.5198  0.6505 -1.0787
  855MOL0     H15389   2.720   9.768   9.699 -2.0761 -1.8220  0.7551
  855MOL0     H15390   2.818   9.626   9.746  3.0797 -3.8421 -4.3728
  855MOL0     H15391   2.866   9.797   9.490  1.3606 -1.1053 -1.4311
  855MOL0     H15392   2.951   9.813   9.641 -1.0521  2.2163 -0.6312
  855MOL0     H15393   3.005   9.554   9.605  2.6017 -1.5039 -1.0229
  855MOL0     H15394   2.942   9.583   9.443  0.7916  1.8929 -2.0299
  855MOL0     H15395   3.193   9.714   9.564  1.5033 -0.0776 -1.5945
  855MOL0     H15396   3.110   9.781   9.427  1.4591  0.7917  1.9236
  855MOL0     H15397   3.125   9.568   9.304  0.8353 -3.1131 -0.6168
  855MOL0     H15398   3.200   9.501   9.452  1.0401  0.9876  0.5052
  855MOL0     H15399   3.310   9.722   9.297 -1.8737  0.2669  0.7615
  855MOL0     H15400   3.377   9.665   9.453  1.3530 -1.2434  0.3843
  855MOL0     H15401   3.356   9.493   9.204 -1.4261 -2.3458  2.1260
  855MOL0     H15402   3.430   9.444   9.356  1.0342 -1.1206 -1.0138
  855MOL0     H15403   3.585   9.660   9.314  0.8120  0.9431 -0.6450
  855MOL0     H15404   3.617   9.517   9.217 -2.0930 -2.2298 -0.2394
  855MOL0     H15405   2.544   9.710   9.762  3.7612 -1.2258 -0.9492
  855MOL0     H15406   2.287   9.683   9.772 -0.3473 -2.8227  1.7479
  855MOL0     H15407   1.921   9.826   9.393  3.8014 -1.8044  0.0894
  855MOL0     H15408   1.671   9.846   9.437  1.3434 -0.5435 -2.0781
  855MOL0     H15409   1.718   9.698  10.601  1.1630 -1.6677  2.7636
  855MOL0     H15410   1.873   9.556  10.701 -1.3745 -1.0594  0.8973
  855MOL0     H15411   2.242   9.437  10.882  0.7097 -0.3656  0.2494
  855MOL0     H15412   2.320   9.230  10.941 -0.7725  0.2846 -0.3995
  855MOL0     H15413   2.489   8.951  10.632 -0.3694  0.7015  1.0434
  855MOL0     H15414   2.552   8.887  10.777  2.4512  0.1717  0.2195
  855MOL0     H15415   2.721   9.078  10.782 -1.7352  0.4155  1.1091
  855MOL0     H15416   2.659   9.143  10.628  1.2108  0.0515  0.1220
  855MOL0     H15417   2.766   8.859  10.636  1.3449 -0.1067  1.0103
  855MOL0     H15418   2.882   8.989  10.636  0.9941 -1.2833 -1.7632
  855MOL0     H15419   2.833   8.907  10.394 -1.0607 -0.0985 -3.7677
  855MOL0     H15420   2.667   8.916  10.415  0.8660 -3.4171  3.0917
  855MOL0     H15421   2.809   9.314  10.348 -0.3492 -0.5357  0.4722
  855MOL0     H15422   2.464   9.162  10.542 -2.0582  0.4980 -2.3222
  855MOL0     H15423   2.307   9.317  10.351 -3.9654  3.9392  0.3746
  855MOL0     H15424   2.364   9.472  10.408  0.4392 -0.5131 -0.2218
  855MOL0     H15425   2.476   9.337  10.394  0.7087  0.6822 -1.4026
  856MOL0     O15426   8.590   3.087   2.109 -0.2014  0.5740 -0.1666
  856MOL0     C15427   8.483   3.052   2.155  0.2196  0.8717 -0.4078
  856MOL0     O15428   8.454   3.037   2.284  0.0801  0.9183 -0.1066
  856MOL0     C15429   8.546   3.067   2.377  0.3867 -0.6669  0.2753
  856MOL0     C15430   8.510   3.158   2.481 -0.0306  0.2302 -0.2650
  856MOL0     C15431   8.601   3.190   2.575 -0.5695  0.1103  0.5147
  856MOL0     C15432   8.733   3.138   2.577 -0.5850 -0.0842 -0.6679
  856MOL0     O15433   8.826   3.202   2.658  0.6968 -0.0274  0.2498
  856MOL0     C15434   8.933   3.120   2.709 -0.5900  0.2689 -0.7597
  856MOL0     C15435   9.057   3.145   2.626  0.5208 -0.3635 -0.7563
  856MOL0     C15436   9.189   3.157   2.702  0.7502 -1.0372 -0.2512
  856MOL0     C15437   9.305   3.140   2.596  0.5349 -0.4598  0.2528
  856MOL0     C15438   9.438   3.140   2.679  0.7088  0.7019 -0.3702
  856MOL0     C15439   9.440   3.061   2.809  0.2435  0.3401  0.3185
  856MOL0     C15440   9.584   3.067   2.857  0.1085  0.1397  0.1979
  856MOL0     C15441   9.653   2.933   2.832 -0.3375  0.3652  0.1693
  856MOL0     N15442   9.784   2.927   2.886  0.0447  0.1403  0.6044
  856MOL0     C15443   9.812   2.947   3.016 -0.7934  0.0356  0.5052
  856MOL0     C15444   9.948   2.906   3.031  0.3651 -0.5799 -0.4760
  856MOL0     C15445  10.021   2.916   3.156 -0.6584 -0.1205  0.1614
  856MOL0     C15446  10.168   2.950   3.163 -0.7980  0.2098  0.2931
  856MOL0     C15447  10.193   3.098   3.112 -0.8197  0.5600  0.0821
  856MOL0     C15448  10.153   3.201   3.221 -0.2047  0.4550  0.2272
  856MOL0     O15449  10.231   3.172   3.331  0.4888 -0.7560 -0.4236
  856MOL0     C15450  10.190   3.210   3.453 -0.0195 -0.3426  0.4137
  856MOL0     C15451  10.109   3.328   3.470 -0.7357 -0.6203 -0.0489
  856MOL0     C15452  10.074   3.362   3.605 -0.3997 -0.5681  1.0638
  856MOL0     C15453  10.103   3.281   3.714 -0.2548  0.1165 -0.0516
  856MOL0     C15454  10.043   3.316   3.849 -0.4489 -0.6662 -0.3276
  856MOL0     O15455  10.088   3.237   3.958  0.2292  0.2067 -0.3881
  856MOL0     C15456  10.024   3.244   4.080 -0.5720 -0.4216 -1.1765
  856MOL0     C15457  10.087   3.197   4.190  0.2040 -0.3087  0.5945
  856MOL0     C15458  10.032   3.216   4.318 -0.2437  0.0124 -0.4326
  856MOL0     C15459   9.913   3.279   4.338  0.2402 -0.1644  0.5593
  856MOL0     O15460   9.850   3.298   4.458 -0.3796  0.2644  0.4669
  856MOL0     C15461   9.850   3.177   4.542  0.3768  0.2636  0.4862
  856MOL0     C15462   9.789   3.206   4.683  0.1496  0.2847  0.8352
  856MOL0     C15463   9.640   3.231   4.657  1.1127 -0.1005  0.5090
  856MOL0     C15464   9.552   3.238   4.782 -0.3078  0.1258  0.6833
  856MOL0     C15465   9.406   3.280   4.759 -0.2885  1.0704  0.5228
  856MOL0     C15466   9.318   3.219   4.869  0.3012 -0.6407 -0.1029
  856MOL0     C15467   9.172   3.278   4.871 -0.4048 -0.8023  0.8431
  856MOL0     C15468   9.076   3.211   4.976 -0.1097 -0.1553  0.3369
  856MOL0    Cl15469   8.891   3.258   4.960  0.2501  0.1861  0.0259
  856MOL0     C15470   9.843   3.319   4.232  0.7849 -0.0784  0.2048
  856MOL0     C15471   9.898   3.304   4.104 -0.5076 -0.0265 -0.1621
  856MOL0     O15472   9.980   3.417   3.850  0.2171  0.1748 -0.5435
  856MOL0     C15473  10.175   3.169   3.688  0.1325  0.7785 -0.3996
  856MOL0     C15474  10.227   3.136   3.563 -0.1696 -0.3015 -0.1278
  856MOL0     N15475   9.989   2.866   2.902 -0.2483 -0.2986 -0.1911
  856MOL0     N15476   9.896   2.896   2.815 -0.1384 -0.5051  1.0158
  856MOL0     C15477   8.768   3.049   2.478 -0.1624  0.0193 -0.0569
  856MOL0     C15478   8.678   3.010   2.382 -0.6552  0.2309  0.0244
  856MOL0     C15479   8.368   3.014   2.062 -0.6563  0.8083 -0.1646
  856MOL0     C15480   8.245   2.992   2.124  0.5276 -0.3082 -0.1174
  856MOL0     C15481   8.123   3.000   2.061 -0.2438  0.6450 -0.0958
  856MOL0     C15482   8.133   3.020   1.926  0.1223  0.1446 -0.9028
  856MOL0     O15483   8.013   3.036   1.854  0.3000  0.8616  0.3726
  856MOL0     C15484   7.897   2.956   1.900  0.1370 -0.9188  0.1269
  856MOL0     C15485   7.796   2.968   1.803  0.5724 -0.0500 -0.0959
  856MOL0     C15486   7.691   2.846   1.810 -0.4311 -1.1980  0.5251
  856MOL0     C15487   7.638   2.811   1.945 -0.5457  0.3481 -1.2883
  856MOL0     C15488   7.558   2.910   1.998  0.6573  0.1888 -1.2438
  856MOL0     C15489   7.500   3.014   2.027 -0.1832  0.1987 -0.1277
  856MOL0     C15490   8.256   3.041   1.861 -0.5656  0.5679  0.5878
  856MOL0     C15491   8.380   3.026   1.924  0.2166 -0.0119  0.3701
  856MOL0     C15492   8.504   3.038   1.845 -0.8631 -0.1788  0.9669
  856MOL0     H15493   8.415   3.211   2.483  0.7192  1.6067 -0.0692
  856MOL0     H15494   8.586   3.273   2.644  2.1078  0.9320  0.2284
  856MOL0     H15495   8.959   3.150   2.811  1.5619 -1.7815 -0.6254
  856MOL0     H15496   8.907   3.014   2.710 -2.9166  0.7149  2.5884
  856MOL0     H15497   9.030   3.243   2.586 -2.2179  0.8625  3.3775
  856MOL0     H15498   9.060   3.063   2.554  0.1755  0.2595 -1.4949
  856MOL0     H15499   9.189   3.078   2.778  1.6729 -0.0654  0.8017
  856MOL0     H15500   9.211   3.251   2.754  1.4787 -0.5430 -1.4123
  856MOL0     H15501   9.289   3.052   2.533  1.4635  0.0262 -0.7032
  856MOL0     H15502   9.294   3.233   2.539 -0.0329 -0.7589 -0.1366
  856MOL0     H15503   9.526   3.107   2.623  1.5577 -0.0961  1.3577
  856MOL0     H15504   9.461   3.244   2.704  6.1636 -0.4641  0.8705
  856MOL0     H15505   9.368   3.099   2.882  0.4970  0.7393  0.3648
  856MOL0     H15506   9.408   2.958   2.795 -0.8464  0.6044  0.7583
  856MOL0     H15507   9.593   3.097   2.962 -1.0005  1.1825  0.0223
  856MOL0     H15508   9.639   3.142   2.799  2.1620 -2.3357 -1.2433
  856MOL0     H15509   9.591   2.855   2.878  0.1848  0.5587  1.2283
  856MOL0     H15510   9.664   2.917   2.725 -0.6661 -2.2252  0.4461
  856MOL0     H15511   9.742   2.997   3.082 -0.1436  1.9575 -0.1811
  856MOL0     H15512   9.971   2.991   3.218  0.5761  1.1030 -0.2825
  856MOL0     H15513  10.012   2.822   3.213  2.4126 -1.2412 -0.9599
  856MOL0     H15514  10.192   2.929   3.267  1.8371  0.6697 -0.1409
  856MOL0     H15515  10.216   2.884   3.090  3.0658  1.9524  0.9753
  856MOL0     H15516  10.123   3.116   3.029  1.1748 -1.0471 -2.0846
  856MOL0     H15517  10.296   3.104   3.076 -1.0193 -1.1613 -0.9042
  856MOL0     H15518  10.046   3.187   3.238  0.0731 -2.2788  0.2678
  856MOL0     H15519  10.187   3.300   3.189  0.4448  0.7021  1.6039
  856MOL0     H15520  10.078   3.388   3.385  0.8829  0.9678  0.4276
  856MOL0     H15521  10.018   3.455   3.611  2.3699  1.2729  0.1472
  856MOL0     H15522  10.175   3.135   4.177  0.5389 -0.4990  3.1770
  856MOL0     H15523  10.081   3.169   4.402  0.4851 -1.6042 -1.7098
  856MOL0     H15524   9.799   3.095   4.489  0.8899 -0.0655  0.4921
  856MOL0     H15525   9.954   3.153   4.568  1.5294  0.7940 -3.0212
  856MOL0     H15526   9.794   3.118   4.748 -1.3740 -0.0553  0.5341
  856MOL0     H15527   9.830   3.298   4.725 -0.9537  1.9051 -1.3776
  856MOL0     H15528   9.618   3.326   4.608  3.5661 -0.6771 -1.9523
  856MOL0     H15529   9.596   3.156   4.591 -2.1394  0.9516  1.2953
  856MOL0     H15530   9.615   3.304   4.842  2.3132 -0.6098 -1.0601
  856MOL0     H15531   9.563   3.140   4.830 -1.0219 -0.4515 -0.2887
  856MOL0     H15532   9.371   3.237   4.665  1.6459  2.1353 -0.7672
  856MOL0     H15533   9.403   3.390   4.766  0.6241  1.0883  0.8301
  856MOL0     H15534   9.299   3.114   4.842  0.6612 -0.4207 -1.2664
  856MOL0     H15535   9.369   3.227   4.965 -1.2723 -1.7269  0.8893
  856MOL0     H15536   9.119   3.272   4.776  0.7003 -0.2088  0.1691
  856MOL0     H15537   9.176   3.381   4.907 -0.8064 -0.6403  0.4228
  856MOL0     H15538   9.103   3.106   4.963  1.7748 -0.0230  2.4154
  856MOL0     H15539   9.106   3.247   5.075  2.3108  0.8055 -0.6733
  856MOL0     H15540   9.748   3.363   4.260  2.2406  1.4960  3.0912
  856MOL0     H15541   9.832   3.322   4.020  1.0735 -2.1700 -1.9963
  856MOL0     H15542  10.195   3.092   3.762 -1.9519 -1.3497 -1.8788
  856MOL0     H15543  10.296   3.053   3.561  1.0530  0.6355 -3.4720
  856MOL0     H15544   8.869   3.010   2.469 -1.1800 -2.6793 -1.1535
  856MOL0     H15545   8.689   2.938   2.301 -3.3633 -1.8468  1.3405
  856MOL0     H15546   8.239   2.965   2.229 -0.6963 -0.4344 -0.2050
  856MOL0     H15547   8.032   2.993   2.119 -1.3913  0.1915 -1.8558
  856MOL0     H15548   7.857   2.992   1.995 -3.2188 -3.1353 -0.2915
  856MOL0     H15549   7.932   2.854   1.915 -0.8974 -1.6199 -1.9030
  856MOL0     H15550   7.840   2.960   1.703 -0.6608 -3.4620 -0.4893
  856MOL0     H15551   7.744   3.062   1.825 -1.1503 -1.3377  1.6726
  856MOL0     H15552   7.729   2.756   1.760 -1.3233 -1.6653  0.6637
  856MOL0     H15553   7.604   2.877   1.752 -0.1756 -0.6541  0.4219
  856MOL0     H15554   7.587   2.716   1.929 -2.1956  1.4847 -3.2246
  856MOL0     H15555   7.727   2.803   2.009 -0.3563 -0.6525 -1.6588
  856MOL0     H15556   7.450   3.106   2.050 -0.7575 -0.6410  2.2687
  856MOL0     H15557   8.253   3.061   1.754  2.7828 -0.4441  0.2164
  856MOL0     H15558   8.585   2.971   1.875  0.5468 -0.4518 -2.7999
  856MOL0     H15559   8.488   3.013   1.739 -1.3125 -2.9500  1.6074
  856MOL0     H15560   8.545   3.139   1.842  1.6796 -1.1533  0.2428
  857MOL0     O15561   9.622   0.933   9.259  0.6016  1.2345  0.5828
  857MOL0     C15562   9.519   1.002   9.250  0.1564  0.9620  0.7136
  857MOL0     O15563   9.510   1.124   9.181  0.6653  0.1395  0.0834
  857MOL0     C15564   9.624   1.195   9.130 -0.0861  0.9822 -0.5036
  857MOL0     C15565   9.731   1.128   9.074 -0.6222  0.4514  0.6708
  857MOL0     C15566   9.847   1.190   9.022  0.0307  0.1224  0.3090
  857MOL0     C15567   9.850   1.328   9.031 -1.3905 -0.0604  1.0589
  857MOL0     O15568   9.966   1.389   8.990 -0.7015  0.7474 -0.3898
  857MOL0     C15569   9.972   1.412   8.848 -0.4258 -0.2583  0.2754
  857MOL0     C15570  10.095   1.351   8.786 -0.6314  0.0352 -0.7991
  857MOL0     C15571  10.112   1.409   8.644  0.0191 -0.4773 -0.7188
  857MOL0     C15572  10.136   1.563   8.646 -0.6790 -1.2560  0.1663
  857MOL0     C15573  10.246   1.620   8.541 -0.3888  0.4674 -0.6029
  857MOL0     C15574  10.393   1.609   8.584  0.1291 -1.0495  0.0633
  857MOL0     C15575  10.447   1.476   8.630  0.3713  0.0810  0.0142
  857MOL0     C15576  10.600   1.492   8.651  0.6175 -0.3182  0.2283
  857MOL0     N15577  10.675   1.553   8.539 -0.1142 -0.2625 -0.2542
  857MOL0     C15578  10.685   1.496   8.414 -0.6657 -0.5081  0.6670
  857MOL0     C15579  10.737   1.593   8.335  0.6587  0.1025 -0.6832
  857MOL0     C15580  10.758   1.577   8.187 -0.3071  0.0511 -0.2171
  857MOL0     C15581  10.890   1.618   8.141 -0.2134 -0.4637  0.6163
  857MOL0     C15582  10.890   1.668   7.992 -0.7484  0.1464 -0.0426
  857MOL0     C15583  10.816   1.800   7.983  0.2915 -0.5443 -0.1364
  857MOL0     O15584  10.867   1.885   7.879  0.7908 -0.1618  0.6941
  857MOL0     C15585  10.995   1.937   7.876 -0.2092  0.9413 -0.1467
  857MOL0     C15586  11.073   1.964   7.994  0.8578  0.1429  0.1113
  857MOL0     C15587  11.198   2.026   7.991  0.5090  0.4525  0.7179
  857MOL0     C15588  11.242   2.092   7.877 -0.0970 -0.4754 -0.8699
  857MOL0     C15589  11.364   2.180   7.873 -0.5413  0.4297  0.1949
  857MOL0     O15590  11.441   2.181   7.984  0.4479  0.3454 -1.1709
  857MOL0     C15591  11.567   2.248   7.977 -0.1633  0.1081 -0.0046
  857MOL0     C15592  11.649   2.286   7.863 -0.3413  0.1826  0.2355
  857MOL0     C15593  11.767   2.347   7.885 -0.9252 -0.0850  0.0980
  857MOL0     C15594  11.819   2.358   8.019  0.4472 -0.6145 -0.3714
  857MOL0     O15595  11.949   2.399   8.038  0.2124 -0.3334 -0.1919
  857MOL0     C15596  12.010   2.389   8.172 -2.1137  0.8525  0.4299
  857MOL0     C15597  12.154   2.436   8.152  0.3579  1.0412  0.2467
  857MOL0     C15598  12.239   2.369   8.055  0.6004 -0.1425 -0.5554
  857MOL0     C15599  12.263   2.218   8.087 -0.3064 -1.0681 -0.6429
  857MOL0     C15600  12.334   2.153   7.961 -0.6851  0.7015  0.1859
  857MOL0     C15601  12.479   2.214   7.952  0.2245  0.6193 -0.6503
  857MOL0     C15602  12.543   2.199   7.817 -0.3171  1.1115 -0.2599
  857MOL0     C15603  12.545   2.067   7.728  0.3687  0.8619  0.4234
  857MOL0    Cl15604  12.610   1.935   7.816  0.1991  0.2360 -0.0084
  857MOL0     C15605  11.743   2.332   8.128  0.1064 -0.3270  0.6873
  857MOL0     C15606  11.613   2.287   8.107  0.3583  0.3958  0.7604
  857MOL0     O15607  11.382   2.253   7.774 -0.6100  0.8938  0.2065
  857MOL0     C15608  11.162   2.076   7.757  0.3225 -0.0670  0.8121
  857MOL0     C15609  11.046   1.992   7.764  0.9596 -1.3581 -0.7768
  857MOL0     N15610  10.762   1.703   8.406 -0.3615  0.2262 -0.4499
  857MOL0     N15611  10.725   1.679   8.536  0.2276  0.4375 -0.2342
  857MOL0     C15612   9.738   1.394   9.075  0.2446  0.1868  0.0893
  857MOL0     C15613   9.628   1.332   9.132 -0.2614  0.4685  0.3308
  857MOL0     C15614   9.394   0.949   9.303 -0.3844 -0.2171  0.1548
  857MOL0     C15615   9.277   0.989   9.244  0.1307 -0.2040  0.5078
  857MOL0     C15616   9.150   0.954   9.285 -0.7555 -0.5162  0.8698
  857MOL0     C15617   9.134   0.886   9.409 -0.3997 -0.6993  0.2028
  857MOL0     O15618   9.017   0.859   9.474 -0.4482 -0.1953 -0.1439
  857MOL0     C15619   8.894   0.903   9.419  1.4962 -0.7967  0.3619
  857MOL0     C15620   8.773   0.873   9.509  0.6045  0.3928 -0.6099
  857MOL0     C15621   8.779   0.953   9.638 -0.0031  0.7602 -0.0156
  857MOL0     C15622   8.664   0.915   9.731 -0.5044  0.3143  0.1111
  857MOL0     C15623   8.675   0.977   9.865  0.1236  0.9486 -0.3157
  857MOL0     C15624   8.689   1.016   9.980  0.1968 -0.3075  1.5071
  857MOL0     C15625   9.253   0.849   9.477 -0.6938 -0.5363  0.4571
  857MOL0     C15626   9.383   0.874   9.434  0.5552 -1.0863 -0.3530
  857MOL0     C15627   9.501   0.834   9.520 -0.0441 -0.1171  0.1789
  857MOL0     H15628   9.717   1.020   9.075 -0.3305  0.4130  1.6510
  857MOL0     H15629   9.924   1.139   8.965 -1.0206  0.3883 -1.4254
  857MOL0     H15630   9.888   1.363   8.797  0.4070 -0.4116 -0.9954
  857MOL0     H15631   9.952   1.516   8.822 -0.0597 -0.0916  0.6517
  857MOL0     H15632  10.087   1.242   8.788  0.2233 -0.0369  1.2321
  857MOL0     H15633  10.173   1.380   8.857 -0.5142 -1.4119 -0.2918
  857MOL0     H15634  10.032   1.380   8.575  0.6264 -4.4795  0.0264
  857MOL0     H15635  10.208   1.370   8.609  0.8367 -0.2563  1.1527
  857MOL0     H15636  10.042   1.616   8.629 -1.0680 -1.2301  2.0827
  857MOL0     H15637  10.177   1.600   8.741  2.0660 -1.1792 -0.9518
  857MOL0     H15638  10.243   1.561   8.449  0.4515 -1.6854  0.6589
  857MOL0     H15639  10.231   1.726   8.523 -0.0304  0.8468  1.1270
  857MOL0     H15640  10.453   1.631   8.495 -0.4928  0.6255  0.0279
  857MOL0     H15641  10.414   1.688   8.656  3.1071 -2.3978  0.8483
  857MOL0     H15642  10.423   1.397   8.558 -1.1865  0.0202  0.5483
  857MOL0     H15643  10.405   1.454   8.729 -2.4996 -0.4779 -1.2033
  857MOL0     H15644  10.624   1.554   8.738  4.0690  0.1395 -0.9110
  857MOL0     H15645  10.654   1.398   8.670 -0.2941 -1.3928 -2.1204
  857MOL0     H15646  10.659   1.395   8.384  0.5529 -1.0267  1.2719
  857MOL0     H15647  10.732   1.476   8.155  1.5728 -0.6826  0.4296
  857MOL0     H15648  10.692   1.636   8.122  0.2219  0.8401 -0.0615
  857MOL0     H15649  10.918   1.700   8.208 -0.8864  0.8381 -0.6475
  857MOL0     H15650  10.957   1.532   8.148  0.8729  0.4370  1.8147
  857MOL0     H15651  10.847   1.598   7.921 -1.3633 -0.2558  0.7090
  857MOL0     H15652  10.996   1.682   7.967  0.1730  1.5814  3.8890
  857MOL0     H15653  10.797   1.850   8.079 -3.6460 -3.5112  0.9003
  857MOL0     H15654  10.714   1.771   7.958 -1.8528  2.7334  3.6552
  857MOL0     H15655  11.025   1.942   8.089 -0.9246 -0.3457 -0.8667
  857MOL0     H15656  11.259   2.039   8.080  1.7475  3.3905 -0.4164
  857MOL0     H15657  11.621   2.268   7.760 -1.8695  1.9114  0.2914
  857MOL0     H15658  11.826   2.388   7.803 -2.3741  0.0176 -0.9144
  857MOL0     H15659  11.977   2.455   8.253  2.7318  2.5815  1.3390
  857MOL0     H15660  12.012   2.283   8.197 -0.2041  1.0608  1.2953
  857MOL0     H15661  12.143   2.543   8.130  2.4119  0.8018 -2.4634
  857MOL0     H15662  12.209   2.429   8.247  0.6545  0.0529  0.0084
  857MOL0     H15663  12.192   2.373   7.956 -2.1685  0.9652  0.6938
  857MOL0     H15664  12.328   2.433   8.052 -2.1783  4.3437  1.7905
  857MOL0     H15665  12.169   2.166   8.109 -0.2992 -0.5130  0.8468
  857MOL0     H15666  12.333   2.213   8.170 -0.1962  1.1649 -0.5460
  857MOL0     H15667  12.279   2.175   7.869  2.1074 -0.3489 -1.8877
  857MOL0     H15668  12.329   2.044   7.962 -2.0198  0.7472 -0.0007
  857MOL0     H15669  12.495   2.318   7.984  1.3086  1.0365 -2.4131
  857MOL0     H15670  12.538   2.157   8.024  0.7862  1.9602 -0.0034
  857MOL0     H15671  12.646   2.220   7.846  0.8357  0.5386 -3.4409
  857MOL0     H15672  12.500   2.269   7.744 -2.0181 -0.8902 -1.2881
  857MOL0     H15673  12.444   2.040   7.695  1.1274  0.5290 -1.8096
  857MOL0     H15674  12.609   2.082   7.640 -0.1151  0.9080  0.0748
  857MOL0     H15675  11.771   2.357   8.230  1.1581 -1.2846  0.6550
  857MOL0     H15676  11.566   2.253   8.199 -0.2940 -2.5116 -0.5486
  857MOL0     H15677  11.193   2.116   7.661 -1.6517  1.3878  0.7309
  857MOL0     H15678  10.979   1.987   7.679  0.0522 -1.7026 -0.0657
  857MOL0     H15679   9.726   1.502   9.073 -1.1775  0.0480  0.3873
  857MOL0     H15680   9.553   1.397   9.178 -1.1714 -0.7526  0.6425
  857MOL0     H15681   9.282   1.039   9.148 -1.0381 -3.0283 -1.1722
  857MOL0     H15682   9.070   0.977   9.216  0.0201 -1.6646 -0.4724
  857MOL0     H15683   8.874   0.854   9.323  1.9339 -0.6810  0.2053
  857MOL0     H15684   8.902   1.009   9.393 -0.8453 -0.6420  0.0569
  857MOL0     H15685   8.780   0.766   9.532  0.6191  0.5611  0.1670
  857MOL0     H15686   8.690   0.896   9.441  2.8400  1.9343 -3.0336
  857MOL0     H15687   8.763   1.054   9.601  0.1821 -0.3114 -3.4735
  857MOL0     H15688   8.873   0.939   9.692 -2.2888 -2.2152  3.7281
  857MOL0     H15689   8.567   0.947   9.690  0.4522  1.5144 -1.2925
  857MOL0     H15690   8.668   0.806   9.739  3.6713  0.3970  1.3445
  857MOL0     H15691   8.708   1.036  10.083  0.9536 -1.1426  1.5419
  857MOL0     H15692   9.251   0.784   9.564  0.4593 -2.4452 -0.8546
  857MOL0     H15693   9.467   0.768   9.600  1.4153  2.1533  2.8342
  857MOL0     H15694   9.567   0.767   9.464  1.8795  2.5217 -0.9651
  857MOL0     H15695   9.559   0.920   9.553  0.4944  0.6904 -2.5491
  858MOL0     O15696   0.988   4.389   2.006  0.1429 -0.2778 -0.2659
  858MOL0     C15697   0.912   4.479   2.060  0.1812  0.1917  0.9537
  858MOL0     O15698   0.947   4.552   2.170 -0.2068  0.0773 -0.0418
  858MOL0     C15699   1.080   4.537   2.219 -0.6773 -0.4867  0.6617
  858MOL0     C15700   1.182   4.574   2.140 -0.3339 -0.3691  0.1184
  858MOL0     C15701   1.324   4.568   2.187 -0.2766 -0.6996 -0.2221
  858MOL0     C15702   1.350   4.512   2.312 -0.0815  0.1947  0.8353
  858MOL0     O15703   1.483   4.469   2.337  0.1362  0.2826 -0.0981
  858MOL0     C15704   1.496   4.347   2.412 -0.3869  0.2900 -0.1619
  858MOL0     C15705   1.585   4.385   2.534 -0.3369 -0.0002  0.3405
  858MOL0     C15706   1.652   4.263   2.606  0.6915  0.2336 -0.1520
  858MOL0     C15707   1.799   4.250   2.589  0.3134  0.7228 -0.9784
  858MOL0     C15708   1.850   4.131   2.674 -0.3074  1.0695  0.2975
  858MOL0     C15709   1.999   4.145   2.713  0.2847 -0.4318  1.1367
  858MOL0     C15710   2.043   4.076   2.840  0.7431 -0.4356  0.4517
  858MOL0     C15711   2.189   4.023   2.829  0.4819 -0.0673  0.7578
  858MOL0     N15712   2.231   3.932   2.935  0.0970  0.8361  0.2850
  858MOL0     C15713   2.315   3.960   3.045  1.4281 -0.8022 -0.2365
  858MOL0     C15714   2.327   3.839   3.104 -0.1304  0.8035 -0.5758
  858MOL0     C15715   2.405   3.805   3.233  0.2260 -1.2417 -0.5518
  858MOL0     C15716   2.546   3.749   3.210  0.8517  0.0479  0.6579
  858MOL0     C15717   2.613   3.787   3.079 -1.1471 -0.3237  0.3804
  858MOL0     C15718   2.744   3.707   3.049  0.6687  0.0040 -0.0688
  858MOL0     O15719   2.795   3.747   2.920  0.3204  0.4847  0.3174
  858MOL0     C15720   2.929   3.719   2.892 -1.0193  0.4488 -0.0875
  858MOL0     C15721   3.026   3.724   2.993 -0.6630  0.1157 -0.5687
  858MOL0     C15722   3.161   3.722   2.966 -0.8939 -0.1184 -0.2992
  858MOL0     C15723   3.204   3.704   2.832 -0.2864 -0.5550 -0.1091
  858MOL0     C15724   3.358   3.692   2.797  0.4343  0.6130  0.6405
  858MOL0     O15725   3.452   3.688   2.902  0.1614 -0.2253 -0.1238
  858MOL0     C15726   3.585   3.679   2.860 -0.4041 -0.0538 -0.4743
  858MOL0     C15727   3.642   3.556   2.821 -1.3688 -0.7183 -0.3558
  858MOL0     C15728   3.781   3.540   2.783  0.8097 -0.6980  0.0650
  858MOL0     C15729   3.858   3.648   2.795  0.7075  1.1708 -0.4258
  858MOL0     O15730   3.992   3.640   2.781 -0.5175  0.1682 -0.3289
  858MOL0     C15731   4.049   3.513   2.740  0.3232  0.2169 -0.0124
  858MOL0     C15732   4.192   3.537   2.686  0.7170  0.4739  0.1450
  858MOL0     C15733   4.265   3.409   2.638  0.5632 -0.0753  0.6541
  858MOL0     C15734   4.260   3.305   2.753  0.2677  0.1600  0.0574
  858MOL0     C15735   4.385   3.211   2.737 -1.2581  0.1202 -0.0989
  858MOL0     C15736   4.388   3.142   2.601 -0.2816  0.3466  0.1489
  858MOL0     C15737   4.508   3.049   2.587 -0.3930  0.6087  0.9298
  858MOL0     C15738   4.487   2.938   2.488 -0.0316  0.4615 -0.2382
  858MOL0    Cl15739   4.457   2.999   2.317  0.0051  0.1766  0.0517
  858MOL0     C15740   3.805   3.772   2.827  0.3594  0.3868  0.2151
  858MOL0     C15741   3.672   3.785   2.860  0.1582 -0.0848 -0.2673
  858MOL0     O15742   3.389   3.684   2.678  0.1407  1.0339 -0.9497
  858MOL0     C15743   3.112   3.699   2.733  1.0534 -0.0984  0.9972
  858MOL0     C15744   2.969   3.696   2.762 -1.0187  0.0086 -0.1134
  858MOL0     N15745   2.279   3.740   3.024 -0.0243  0.2571  0.1634
  858MOL0     N15746   2.225   3.795   2.919 -0.7642  0.3438 -0.3048
  858MOL0     C15747   1.242   4.496   2.404 -0.5955  0.1847  0.3126
  858MOL0     C15748   1.114   4.507   2.351 -0.5725 -0.1347 -0.2145
  858MOL0     C15749   0.783   4.504   1.991  0.5089 -0.0849 -0.1641
  858MOL0     C15750   0.707   4.612   2.028 -0.6795 -0.5682  0.0657
  858MOL0     C15751   0.595   4.655   1.961  0.2493  0.4847 -0.3047
  858MOL0     C15752   0.531   4.565   1.879  1.2547 -0.5100  0.4717
  858MOL0     O15753   0.416   4.579   1.805 -0.6114  0.2409 -0.6005
  858MOL0     C15754   0.329   4.688   1.840 -0.4231 -0.1616 -0.1285
  858MOL0     C15755   0.235   4.639   1.953 -0.0332  0.8179 -0.4042
  858MOL0     C15756   0.151   4.755   2.010 -0.6784 -0.5806  0.5895
  858MOL0     C15757   0.245   4.838   2.101 -0.6129 -0.2870 -0.0844
  858MOL0     C15758   0.221   4.977   2.102  0.4433 -1.3886  1.1687
  858MOL0     C15759   0.194   5.092   2.077 -0.5591  0.5630 -0.1961
  858MOL0     C15760   0.601   4.450   1.837 -0.4170  0.0120 -0.6639
  858MOL0     C15761   0.715   4.413   1.901  0.4349  0.3192  0.6891
  858MOL0     C15762   0.753   4.277   1.851 -1.2476 -1.4198 -0.1955
  858MOL0     H15763   1.174   4.595   2.034  3.5439 -0.2263 -0.2819
  858MOL0     H15764   1.402   4.597   2.117  0.3400 -2.1818 -0.1928
  858MOL0     H15765   1.407   4.301   2.456  0.8130 -1.4625  0.5189
  858MOL0     H15766   1.544   4.265   2.358 -1.5082 -0.7313  0.3229
  858MOL0     H15767   1.523   4.416   2.618  0.9237 -0.9095  1.6530
  858MOL0     H15768   1.666   4.455   2.511  0.7962 -1.1191  0.8022
  858MOL0     H15769   1.601   4.171   2.575  0.2182  0.7081 -0.7892
  858MOL0     H15770   1.637   4.279   2.713  1.7825  0.9012 -0.0832
  858MOL0     H15771   1.830   4.236   2.485 -2.3919 -0.8851 -1.6737
  858MOL0     H15772   1.845   4.344   2.622  1.1814 -0.2182  0.5979
  858MOL0     H15773   1.792   4.118   2.766  0.3672  0.6120  0.6682
  858MOL0     H15774   1.830   4.039   2.619  3.1088  0.6583 -0.4709
  858MOL0     H15775   2.068   4.127   2.630  0.6013  1.4025  0.9438
  858MOL0     H15776   2.011   4.253   2.728  0.2663  0.2043 -2.3676
  858MOL0     H15777   1.987   3.984   2.861  0.9333 -0.7342 -0.3024
  858MOL0     H15778   2.042   4.142   2.927  0.6991 -1.0413  0.9187
  858MOL0     H15779   2.189   3.977   2.730  0.4272  2.2187 -0.3635
  858MOL0     H15780   2.264   4.102   2.833 -0.9083  1.2571  1.4776
  858MOL0     H15781   2.354   4.055   3.081  1.5118 -0.6813 -0.6309
  858MOL0     H15782   2.416   3.896   3.293  1.0170 -0.8899 -1.2131
  858MOL0     H15783   2.343   3.738   3.294  1.7854  0.2753  2.9643
  858MOL0     H15784   2.603   3.780   3.298 -0.4546  0.2274  1.4577
  858MOL0     H15785   2.529   3.641   3.216 -1.7115  0.2565 -1.1317
  858MOL0     H15786   2.638   3.894   3.082 -1.9221 -0.0562 -1.3803
  858MOL0     H15787   2.543   3.767   2.997 -4.0785  0.8745  2.4241
  858MOL0     H15788   2.716   3.601   3.047 -2.1548  0.6344  0.8211
  858MOL0     H15789   2.815   3.726   3.130  1.4914  1.8309 -1.1668
  858MOL0     H15790   3.005   3.737   3.099  0.2041 -0.4668 -0.3120
  858MOL0     H15791   3.237   3.719   3.043 -0.0692  0.8385 -1.0554
  858MOL0     H15792   3.581   3.467   2.829 -1.2882 -0.7425  0.0168
  858MOL0     H15793   3.813   3.437   2.774  0.7405 -0.8359  1.2081
  858MOL0     H15794   4.058   3.451   2.830  0.4965 -0.9395 -0.7906
  858MOL0     H15795   3.993   3.463   2.660  1.5466 -2.3409  0.6113
  858MOL0     H15796   4.195   3.612   2.606 -0.9101 -0.0868 -0.4715
  858MOL0     H15797   4.255   3.575   2.767  2.0143 -4.5646  1.8963
  858MOL0     H15798   4.209   3.377   2.550 -0.0947  3.5947 -0.4272
  858MOL0     H15799   4.362   3.440   2.599 -0.2012  2.4070  0.5136
  858MOL0     H15800   4.174   3.238   2.744  0.5779 -0.1051 -1.0517
  858MOL0     H15801   4.261   3.356   2.850 -1.6517  2.1053 -0.8402
  858MOL0     H15802   4.382   3.142   2.822  1.0635 -1.3380 -1.1084
  858MOL0     H15803   4.479   3.266   2.737 -0.6373 -0.8345 -1.9643
  858MOL0     H15804   4.298   3.083   2.587  0.9266 -1.2446 -1.3061
  858MOL0     H15805   4.398   3.219   2.524  0.7438 -0.8028 -0.9169
  858MOL0     H15806   4.522   3.006   2.687  0.3625 -0.8080  0.2405
  858MOL0     H15807   4.595   3.106   2.553  0.2425 -1.5609 -1.3799
  858MOL0     H15808   4.586   2.891   2.481  1.0128  1.7161  3.4859
  858MOL0     H15809   4.407   2.872   2.522 -0.9297  1.5107 -0.2778
  858MOL0     H15810   3.869   3.858   2.842  1.1414  0.5284 -3.1552
  858MOL0     H15811   3.618   3.872   2.894 -2.9386 -1.3418 -1.5836
  858MOL0     H15812   3.134   3.692   2.627  2.6011 -1.1572  1.3662
  858MOL0     H15813   2.896   3.691   2.682 -1.5103  0.3161  0.3136
  858MOL0     H15814   1.260   4.464   2.507 -1.6081 -0.6588  0.2388
  858MOL0     H15815   1.038   4.494   2.428  0.4284 -0.1465  0.7977
  858MOL0     H15816   0.740   4.677   2.108  1.5226  0.6202 -1.6843
  858MOL0     H15817   0.541   4.746   1.987 -1.0525 -1.0509  2.7981
  858MOL0     H15818   0.268   4.705   1.751 -2.2741 -1.8976  0.7369
  858MOL0     H15819   0.377   4.783   1.864  1.1593 -0.9649  0.0092
  858MOL0     H15820   0.295   4.605   2.038  0.2454 -0.2294 -0.9993
  858MOL0     H15821   0.182   4.547   1.928 -1.0219  0.9629  1.0799
  858MOL0     H15822   0.072   4.718   2.077 -1.4108  1.0148  0.6453
  858MOL0     H15823   0.133   4.809   1.917 -1.7154 -1.4209  0.2848
  858MOL0     H15824   0.232   4.806   2.205  0.4736 -1.1015 -0.1848
  858MOL0     H15825   0.351   4.834   2.079 -0.7012  0.7538 -0.7772
  858MOL0     H15826   0.192   5.198   2.059 -1.5633  0.2434 -2.2762
  858MOL0     H15827   0.539   4.391   1.770 -1.8422  0.0133  0.6103
  858MOL0     H15828   0.810   4.222   1.926  2.4668  0.2162 -1.5795
  858MOL0     H15829   0.684   4.204   1.807  1.2188 -3.9181 -0.2346
  858MOL0     H15830   0.825   4.300   1.772  0.9783  1.6556  2.4863
  859MOL0     O15831   2.907   5.733  10.752 -0.5636  0.0555 -0.0543
  859MOL0     C15832   2.885   5.856  10.719 -0.1765  0.1914  0.0352
  859MOL0     O15833   2.981   5.935  10.666 -0.1912 -0.2613 -0.1723
  859MOL0     C15834   3.112   5.898  10.683 -0.3351  0.5619 -0.2617
  859MOL0     C15835   3.177   5.859  10.802 -0.7392 -0.0518  0.3396
  859MOL0     C15836   3.318   5.822  10.805  0.3225  0.3626 -0.4737
  859MOL0     C15837   3.395   5.835  10.694 -0.0599 -0.2270  0.4859
  859MOL0     O15838   3.530   5.806  10.690  0.3457 -0.1817 -0.4193
  859MOL0     C15839   3.608   5.862  10.797 -0.2447  0.0459  0.0632
  859MOL0     C15840   3.760   5.833  10.774 -0.3706  0.2614 -0.3844
  859MOL0     C15841   3.794   5.684  10.751  0.2063 -0.3243 -0.6107
  859MOL0     C15842   3.944   5.671  10.744 -0.2025 -0.0216  0.2711
  859MOL0     C15843   3.991   5.519  10.742  0.5165  0.5003  0.1647
  859MOL0     C15844   4.149   5.523  10.735  0.4163 -0.5333 -0.3358
  859MOL0     C15845   4.200   5.534  10.887 -0.2616  0.1951  0.3271
  859MOL0     C15846   4.327   5.614  10.908  0.1534  0.5035 -0.4446
  859MOL0     N15847   4.434   5.570  10.819  0.3665 -0.4235 -0.0188
  859MOL0     C15848   4.488   5.442  10.809 -0.3131  0.1466 -0.6419
  859MOL0     C15849   4.598   5.456  10.737  1.4355 -0.3777  0.2629
  859MOL0     C15850   4.696   5.356  10.694 -0.3817  0.4471 -0.5305
  859MOL0     C15851   4.648   5.251  10.599 -0.4013  0.7220 -0.7926
  859MOL0     C15852   4.572   5.307  10.475  0.8262 -0.1973 -0.4337
  859MOL0     C15853   4.656   5.392  10.386  0.5689 -0.2298  0.1908
  859MOL0     O15854   4.754   5.307  10.322 -0.1207  0.5861 -0.3928
  859MOL0     C15855   4.844   5.359  10.242  0.1358  0.1025  0.2539
  859MOL0     C15856   4.942   5.275  10.197  0.8395  0.6973  0.2200
  859MOL0     C15857   5.061   5.315  10.143 -0.3711 -0.8574 -0.3982
  859MOL0     C15858   5.082   5.452  10.115 -0.0286  0.6216  0.6984
  859MOL0     C15859   5.206   5.496  10.043 -0.9126 -0.6943  0.9727
  859MOL0     O15860   5.282   5.398   9.995 -0.2293 -0.5754  0.3403
  859MOL0     C15861   5.413   5.426   9.956 -0.1945  0.8036 -0.0752
  859MOL0     C15862   5.474   5.535   9.903  0.7544 -0.1175 -0.0232
  859MOL0     C15863   5.609   5.539   9.865 -0.4981  1.3065 -0.4791
  859MOL0     C15864   5.690   5.425   9.883  0.9366  0.6190 -0.0096
  859MOL0     O15865   5.824   5.430   9.840 -0.2180 -0.1653  0.7815
  859MOL0     C15866   5.901   5.316   9.851 -0.4060  0.3920  0.2284
  859MOL0     C15867   6.043   5.339   9.796  0.3867  0.1987  1.1531
  859MOL0     C15868   6.131   5.459   9.867 -0.0090 -0.1634  0.7978
  859MOL0     C15869   6.263   5.497   9.805  0.7091 -0.1265  1.1718
  859MOL0     C15870   6.319   5.610   9.894  0.1812  0.2848 -0.4857
  859MOL0     C15871   6.447   5.653   9.839 -0.6265 -0.7815 -0.0235
  859MOL0     C15872   6.483   5.780   9.903 -0.0851 -0.8907 -0.3809
  859MOL0     C15873   6.627   5.819   9.887  0.4917  0.5664  0.6328
  859MOL0    Cl15874   6.729   5.705   9.982  0.3031 -0.5848  0.4114
  859MOL0     C15875   5.627   5.307   9.921  0.1935  0.1795  0.4306
  859MOL0     C15876   5.484   5.305   9.965  1.0396  0.2991 -0.1369
  859MOL0     O15877   5.226   5.616  10.033  0.2783 -0.7323  0.0508
  859MOL0     C15878   4.981   5.543  10.158  0.3367  0.4487 -0.4154
  859MOL0     C15879   4.854   5.493  10.210  1.3332  0.1367  0.5766
  859MOL0     N15880   4.609   5.596  10.702 -0.3750  0.7791 -0.0156
  859MOL0     N15881   4.506   5.656  10.747 -0.1786 -0.3861  0.6828
  859MOL0     C15882   3.335   5.866  10.573  0.1073 -0.0387 -0.0140
  859MOL0     C15883   3.198   5.899  10.567  0.2213 -1.1598 -1.4871
  859MOL0     C15884   2.749   5.900  10.716 -0.5171  0.6533 -0.1144
  859MOL0     C15885   2.706   5.980  10.615  0.0227  0.6192  0.3010
  859MOL0     C15886   2.574   6.034  10.613  0.0108 -0.0580 -0.8027
  859MOL0     C15887   2.484   6.013  10.717  0.2128 -0.4675 -0.7125
  859MOL0     O15888   2.355   6.062  10.697  0.4902  0.5344 -0.2264
  859MOL0     C15889   2.246   5.997  10.775  0.1050  0.5411  0.1844
  859MOL0     C15890   2.112   6.046  10.739  0.3451 -0.0130 -0.7811
  859MOL0     C15891   2.049   6.004  10.608 -0.2274 -0.4871  0.5322
  859MOL0     C15892   1.894   6.011  10.611 -0.2589  0.8161 -1.3688
  859MOL0     C15893   1.828   6.134  10.660 -0.1072 -0.2039 -0.2702
  859MOL0     C15894   1.756   6.217  10.710 -0.1871  0.5250  1.1014
  859MOL0     C15895   2.528   5.939  10.827 -0.1519  0.5199 -0.5133
  859MOL0     C15896   2.653   5.870  10.821  0.4316  0.5294 -0.8601
  859MOL0     C15897   2.685   5.794  10.951  0.4345  0.2298  0.5887
  859MOL0     H15898   3.117   5.859  10.893 -2.6872  0.8165 -0.8915
  859MOL0     H15899   3.354   5.783  10.899 -3.1876 -2.0970  0.0186
  859MOL0     H15900   3.600   5.970  10.810  1.3611  0.4441 -1.8399
  859MOL0     H15901   3.581   5.811  10.891  2.2602  0.6673  1.1940
  859MOL0     H15902   3.810   5.867  10.865 -3.3076  2.5946  0.5392
  859MOL0     H15903   3.801   5.898  10.695 -0.4382  1.1184  0.2686
  859MOL0     H15904   3.733   5.657  10.664 -1.4819  2.7961 -0.5269
  859MOL0     H15905   3.756   5.622  10.833 -1.6109  1.8984  0.3261
  859MOL0     H15906   3.980   5.727  10.657  2.6058 -0.8788  0.7872
  859MOL0     H15907   3.980   5.716  10.837 -1.0950  0.4878  0.3914
  859MOL0     H15908   3.958   5.467  10.832  1.6444 -0.5068  0.0153
  859MOL0     H15909   3.945   5.465  10.659 -0.6720  2.4124 -0.4804
  859MOL0     H15910   4.182   5.433  10.682 -1.9555 -0.8752 -1.3675
  859MOL0     H15911   4.172   5.613  10.678 -1.8413 -0.1548 -0.7172
  859MOL0     H15912   4.213   5.431  10.921  0.6405  0.0942 -0.2795
  859MOL0     H15913   4.117   5.577  10.944 -0.1780 -0.6592  1.1265
  859MOL0     H15914   4.301   5.720  10.908 -3.3724 -0.2448 -0.8510
  859MOL0     H15915   4.356   5.591  11.011  0.2228  1.1247 -0.3222
  859MOL0     H15916   4.464   5.344  10.850 -1.6658  0.3699 -0.8372
  859MOL0     H15917   4.786   5.399  10.649 -0.0893 -1.2560 -1.6747
  859MOL0     H15918   4.714   5.300  10.787  0.3966  1.0319 -0.3157
  859MOL0     H15919   4.734   5.191  10.567  0.5892  1.8344 -0.2568
  859MOL0     H15920   4.583   5.183  10.656  0.8957 -0.1421 -0.2832
  859MOL0     H15921   4.494   5.373  10.515  0.5954 -0.0221 -1.1629
  859MOL0     H15922   4.530   5.233  10.406 -1.1235  2.6524 -2.5781
  859MOL0     H15923   4.694   5.477  10.443  0.3010  1.7796 -2.4274
  859MOL0     H15924   4.595   5.433  10.305 -0.3049 -2.8085 -0.5699
  859MOL0     H15925   4.938   5.168  10.215  0.7825  0.6660  0.0220
  859MOL0     H15926   5.128   5.233  10.124  0.4876 -0.5256  1.0087
  859MOL0     H15927   5.428   5.633   9.906  0.1980 -0.3511 -0.7840
  859MOL0     H15928   5.646   5.630   9.819 -1.4863  1.1317 -1.6640
  859MOL0     H15929   5.920   5.295   9.957 -0.0506 -0.0308  0.0877
  859MOL0     H15930   5.862   5.229   9.797  1.8444 -1.0260  0.7269
  859MOL0     H15931   6.105   5.249   9.799 -2.0839 -1.6299  1.3467
  859MOL0     H15932   6.034   5.354   9.688 -2.0123 -4.6232  0.3792
  859MOL0     H15933   6.078   5.555   9.867  0.3325  0.0346 -0.3027
  859MOL0     H15934   6.145   5.425   9.970 -1.9927 -1.3913  0.7176
  859MOL0     H15935   6.234   5.533   9.706 -2.5626 -1.0005  1.6930
  859MOL0     H15936   6.335   5.415   9.798  1.1394  0.1792  1.8434
  859MOL0     H15937   6.325   5.585  10.000 -2.7806  1.9814  0.1961
  859MOL0     H15938   6.253   5.697   9.885  0.6288  1.0471  2.6326
  859MOL0     H15939   6.526   5.579   9.855  1.2136  0.7036 -1.7363
  859MOL0     H15940   6.440   5.681   9.733 -0.4019  3.2985  0.9066
  859MOL0     H15941   6.463   5.780  10.011  1.8799  0.3922  0.0512
  859MOL0     H15942   6.421   5.860   9.860  0.8030  0.2300  0.3483
  859MOL0     H15943   6.654   5.817   9.781 -1.1641 -1.4420  0.1652
  859MOL0     H15944   6.635   5.916   9.937 -0.4867  0.7668  0.4228
  859MOL0     H15945   5.678   5.211   9.923  0.2460  0.2042  0.3199
  859MOL0     H15946   5.447   5.210  10.001  0.3250  0.0532 -1.4465
  859MOL0     H15947   4.986   5.649  10.137 -1.6614  0.8559  0.9133
  859MOL0     H15948   4.776   5.558  10.249  1.6388  0.2181  1.0528
  859MOL0     H15949   3.399   5.869  10.486  1.8596  0.7532  1.2311
  859MOL0     H15950   3.150   5.916  10.471 -0.8584 -1.5668 -1.0341
  859MOL0     H15951   2.773   6.016  10.537  1.8240 -0.1486  1.4299
  859MOL0     H15952   2.545   6.092  10.526  1.8729  2.6281  0.2308
  859MOL0     H15953   2.262   5.984  10.882  2.5969 -3.3033 -0.4342
  859MOL0     H15954   2.238   5.889  10.754 -0.7591  0.4203  1.0746
  859MOL0     H15955   2.114   6.155  10.742  0.8368 -0.0355 -0.0316
  859MOL0     H15956   2.052   6.014  10.825  2.3004 -0.4918  0.4543
  859MOL0     H15957   2.089   5.908  10.574  1.7072 -1.3634  4.6189
  859MOL0     H15958   2.073   6.083  10.537 -0.2586  0.0426  1.0992
  859MOL0     H15959   1.853   5.983  10.513  1.3848 -1.7539 -1.4327
  859MOL0     H15960   1.870   5.929  10.680  0.5609  1.4976 -0.2425
  859MOL0     H15961   1.705   6.290  10.770  0.8121  0.5854  1.9079
  859MOL0     H15962   2.455   5.911  10.903  0.0177  0.7628 -0.2602
  859MOL0     H15963   2.600   5.727  10.966  0.8553 -1.4971 -3.4647
  859MOL0     H15964   2.768   5.724  10.935 -0.3811 -1.4814  3.1855
  859MOL0     H15965   2.700   5.869  11.029 -0.3059  0.0459  0.9188
  860MOL0     O15966   5.965   5.561   0.271 -0.0946  0.7285 -0.5454
  860MOL0     C15967   5.938   5.497   0.168 -0.1784 -0.4470 -0.6979
  860MOL0     O15968   5.993   5.517   0.038 -0.1357 -0.3182 -0.1260
  860MOL0     C15969   6.115   5.590   0.034  1.0692 -0.3367 -0.3864
  860MOL0     C15970   6.225   5.524   0.082  0.2720 -0.0489  0.3634
  860MOL0     C15971   6.348   5.591   0.070  0.0371 -0.8101  0.6620
  860MOL0     C15972   6.364   5.719   0.013  0.7896  0.3031  0.0836
  860MOL0     O15973   6.484   5.787  -0.022 -0.0609  0.3994 -0.1985
  860MOL0     C15974   6.604   5.698  -0.029  0.6296 -0.4666  0.1908
  860MOL0     C15975   6.680   5.689   0.107  0.0809  0.5926  1.0289
  860MOL0     C15976   6.754   5.820   0.122 -1.1150  0.0771 -0.2037
  860MOL0     C15977   6.854   5.825   0.242 -0.7429 -0.0568  0.6996
  860MOL0     C15978   6.902   5.968   0.253 -0.8472 -0.4387 -0.0767
  860MOL0     C15979   7.007   6.010   0.152  0.3519  0.2407 -0.2866
  860MOL0     C15980   7.090   6.132   0.204  0.1739  0.3275  0.2327
  860MOL0     C15981   7.181   6.178   0.094 -1.3009  0.2960 -0.5297
  860MOL0     N15982   7.267   6.288   0.142  0.0189 -0.2544  0.0269
  860MOL0     C15983   7.233   6.417   0.118  0.9779 -0.7278  0.2593
  860MOL0     C15984   7.327   6.490   0.191 -0.0195  0.9369  0.3346
  860MOL0     C15985   7.339   6.638   0.198  0.3935 -0.8016 -0.8425
  860MOL0     C15986   7.474   6.688   0.169  0.8905  0.4509  0.3513
  860MOL0     C15987   7.491   6.683   0.020 -0.3523  0.1160  0.8195
  860MOL0     C15988   7.627   6.734  -0.028  0.7002 -1.3082  0.0066
  860MOL0     O15989   7.669   6.832   0.061 -0.6239 -0.8609 -0.1516
  860MOL0     C15990   7.797   6.864   0.088  0.5472 -0.2612 -0.7834
  860MOL0     C15991   7.823   6.931   0.215 -0.0560 -0.5650 -0.9600
  860MOL0     C15992   7.942   6.985   0.252 -1.1887 -0.2489 -0.6835
  860MOL0     C15993   8.051   6.966   0.174  0.2813 -0.0253  0.6436
  860MOL0     C15994   8.181   7.009   0.217 -0.4467 -0.6871 -0.7031
  860MOL0     O15995   8.287   6.963   0.144 -0.4301  0.4788  0.2556
  860MOL0     C15996   8.416   6.970   0.181 -0.4626 -0.1380 -0.2859
  860MOL0     C15997   8.496   6.852   0.173  0.3202 -1.0062 -0.0487
  860MOL0     C15998   8.628   6.863   0.231 -0.1361  1.1402 -0.5862
  860MOL0     C15999   8.677   6.976   0.290 -0.2748 -0.3386  0.4798
  860MOL0     O16000   8.809   6.963   0.339  0.9555  0.3785 -0.4065
  860MOL0     C16001   8.859   7.056   0.436 -0.2176 -0.7498 -0.1178
  860MOL0     C16002   8.905   7.186   0.374 -0.2074  0.0676 -0.1149
  860MOL0     C16003   9.016   7.164   0.274  0.6723 -0.0936 -0.1162
  860MOL0     C16004   9.060   7.293   0.201 -0.8953  0.6629 -0.9001
  860MOL0     C16005   9.122   7.266   0.071 -0.5408 -0.0817  0.4116
  860MOL0     C16006   9.281   7.233   0.095  0.5405  0.2669  0.1203
  860MOL0     C16007   9.349   7.197  -0.044  0.3059 -0.0371 -0.1253
  860MOL0     C16008   9.501   7.228  -0.063 -0.0323 -0.2359 -0.8096
  860MOL0    Cl16009   9.581   7.143   0.062  0.2606  0.0822 -0.2440
  860MOL0     C16010   8.594   7.089   0.292 -0.2938 -0.6805  0.2334
  860MOL0     C16011   8.469   7.087   0.232  0.0117  0.3142  0.1368
  860MOL0     O16012   8.194   7.060   0.328 -0.0320  0.0712  0.4570
  860MOL0     C16013   8.028   6.901   0.045  0.4955 -1.4401  0.5962
  860MOL0     C16014   7.901   6.869  -0.003 -0.0731  0.0640  0.0730
  860MOL0     N16015   7.399   6.406   0.266 -1.2407  0.1167 -0.6291
  860MOL0     N16016   7.354   6.284   0.246  0.6546  0.1499 -0.1259
  860MOL0     C16017   6.247   5.784  -0.031  0.0438  0.5716  0.8400
  860MOL0     C16018   6.124   5.720  -0.017  0.7248  0.3584 -0.3383
  860MOL0     C16019   5.813   5.415   0.176  0.1759 -0.2636 -0.4909
  860MOL0     C16020   5.697   5.486   0.201  0.6867  0.0102  0.0646
  860MOL0     C16021   5.570   5.415   0.211  1.0242 -0.4271  0.4038
  860MOL0     C16022   5.568   5.279   0.191 -0.3576  0.7151  0.5154
  860MOL0     O16023   5.441   5.222   0.190 -0.5884  0.1352 -0.8204
  860MOL0     C16024   5.442   5.077   0.183  1.2060 -0.2289  0.6390
  860MOL0     C16025   5.306   5.010   0.229  0.2833  0.2644 -0.0064
  860MOL0     C16026   5.210   4.992   0.113 -0.3377 -0.0643  0.8206
  860MOL0     C16027   5.077   4.956   0.169 -0.6853  0.3944  0.6185
  860MOL0     C16028   4.970   4.924   0.071  0.4257  0.3344 -0.3316
  860MOL0     C16029   4.907   4.904  -0.032  0.8008  1.2036  0.1184
  860MOL0     C16030   5.685   5.210   0.141 -0.1453 -0.0781 -0.0132
  860MOL0     C16031   5.811   5.278   0.136  0.7113 -0.2787  1.3507
  860MOL0     C16032   5.937   5.201   0.107  0.0936 -0.5112 -0.5855
  860MOL0     H16033   6.217   5.418   0.103 -1.0707 -0.5289 -2.1231
  860MOL0     H16034   6.444   5.550   0.100 -0.6566 -0.1236  4.2999
  860MOL0     H16035   6.570   5.600  -0.065 -1.6951 -0.1275  1.3036
  860MOL0     H16036   6.655   5.743  -0.115 -2.2010  2.0388 -0.3405
  860MOL0     H16037   6.739   5.597   0.112  1.0732  1.0840 -0.9013
  860MOL0     H16038   6.616   5.682   0.196 -1.2861 -1.8061 -0.0383
  860MOL0     H16039   6.682   5.902   0.121  2.8235  3.9426 -1.7689
  860MOL0     H16040   6.815   5.822   0.031 -1.8451  3.3616 -0.7118
  860MOL0     H16041   6.805   5.799   0.337 -0.0973 -0.3764  0.9526
  860MOL0     H16042   6.937   5.757   0.220  0.1480  0.9254  0.9710
  860MOL0     H16043   6.821   6.041   0.256  0.7781  1.4197  1.3061
  860MOL0     H16044   6.954   5.974   0.350  0.9924  0.0115 -1.0402
  860MOL0     H16045   7.073   5.925   0.130 -0.6098 -0.3237 -1.1078
  860MOL0     H16046   6.965   6.044   0.057  1.4930  3.8998  0.3817
  860MOL0     H16047   7.157   6.099   0.284 -0.7563  1.1994  1.4025
  860MOL0     H16048   7.019   6.209   0.236 -0.9580  0.3951 -2.2082
  860MOL0     H16049   7.249   6.096   0.070 -0.9925 -0.1582  1.6213
  860MOL0     H16050   7.127   6.193   0.000 -1.1770 -1.0542 -0.8417
  860MOL0     H16051   7.151   6.457   0.060  0.8664 -1.0287  0.2105
  860MOL0     H16052   7.272   6.676   0.120  2.4434 -0.3609 -2.5176
  860MOL0     H16053   7.303   6.668   0.296 -0.1410  0.5637 -1.4240
  860MOL0     H16054   7.477   6.784   0.221  1.2990  1.6822 -1.8119
  860MOL0     H16055   7.546   6.620   0.216  3.2392  3.0231  0.7395
  860MOL0     H16056   7.421   6.759  -0.017 -0.0966  0.1890  0.4835
  860MOL0     H16057   7.478   6.585  -0.026 -0.0542  0.9465 -1.1125
  860MOL0     H16058   7.635   6.775  -0.129  3.0192 -1.4576  0.0578
  860MOL0     H16059   7.697   6.649  -0.035  2.1631 -0.0391 -1.9230
  860MOL0     H16060   7.747   6.949   0.290  3.1771 -0.9462  2.7223
  860MOL0     H16061   7.954   7.030   0.351 -0.2552  3.6646 -2.3698
  860MOL0     H16062   8.475   6.757   0.124  1.9996 -1.1174 -0.6130
  860MOL0     H16063   8.682   6.769   0.235 -0.5058  0.9793  1.0739
  860MOL0     H16064   8.773   7.072   0.502  0.7629  0.2434  0.9689
  860MOL0     H16065   8.933   7.009   0.501 -0.7298  0.8149  1.7125
  860MOL0     H16066   8.812   7.230   0.336 -0.4827 -0.4758 -0.0758
  860MOL0     H16067   8.932   7.258   0.452 -1.7268  1.6563 -0.9783
  860MOL0     H16068   9.101   7.117   0.325 -1.5150 -1.7346  2.2874
  860MOL0     H16069   8.968   7.096   0.203 -5.9834  1.0744  2.6097
  860MOL0     H16070   9.128   7.354   0.261  0.1953 -0.1309 -1.3011
  860MOL0     H16071   8.972   7.355   0.177  0.6350  3.1669 -0.3730
  860MOL0     H16072   9.114   7.362   0.019  1.2014  1.6047  2.9955
  860MOL0     H16073   9.063   7.192   0.016 -2.6926 -0.2129  2.6944
  860MOL0     H16074   9.319   7.319   0.152 -0.3482 -0.6121  2.1303
  860MOL0     H16075   9.294   7.143   0.156  0.0417  0.5852  0.7110
  860MOL0     H16076   9.311   7.248  -0.133 -0.7116 -1.9613 -0.8746
  860MOL0     H16077   9.332   7.089  -0.058 -2.4362  0.4333 -1.1243
  860MOL0     H16078   9.528   7.210  -0.167  0.0829  1.3777 -1.0795
  860MOL0     H16079   9.534   7.331  -0.051  1.1050 -0.5203 -1.3422
  860MOL0     H16080   8.615   7.190   0.327 -0.3980 -0.9170  0.9888
  860MOL0     H16081   8.414   7.178   0.208  1.6818  0.6563 -2.8219
  860MOL0     H16082   8.113   6.869  -0.014 -0.0592 -0.2851 -0.8721
  860MOL0     H16083   7.895   6.839  -0.107  1.2102  2.0440 -0.6172
  860MOL0     H16084   6.265   5.884  -0.069 -2.1546  0.6307 -0.1850
  860MOL0     H16085   6.025   5.756  -0.043  1.2861  0.1675 -3.0200
  860MOL0     H16086   5.705   5.593   0.216 -0.5111  0.2393 -0.7516
  860MOL0     H16087   5.472   5.460   0.226  0.1162 -2.8345  2.5864
  860MOL0     H16088   5.520   5.034   0.245  1.6125  3.3852  2.9219
  860MOL0     H16089   5.461   5.047   0.079  0.2511 -0.6210  0.5615
  860MOL0     H16090   5.262   5.074   0.306  2.0958  0.4689  0.9128
  860MOL0     H16091   5.323   4.908   0.263  1.2204 -0.8401 -3.3238
  860MOL0     H16092   5.245   4.916   0.043 -3.0524  0.4151 -1.2152
  860MOL0     H16093   5.203   5.082   0.051  0.4224 -0.1671  0.5703
  860MOL0     H16094   5.091   4.878   0.245 -1.1720  2.5403  3.0639
  860MOL0     H16095   5.033   5.046   0.214 -0.0990  2.9161 -3.4241
  860MOL0     H16096   4.855   4.892  -0.125  0.4691 -1.3854  0.5665
  860MOL0     H16097   5.681   5.104   0.123 -4.0892  0.0448 -0.6070
  860MOL0     H16098   6.023   5.240   0.163 -0.2105  1.5961 -1.4774
  860MOL0     H16099   5.921   5.102   0.150 -0.5268  0.3466  1.2778
  860MOL0     H16100   5.970   5.201   0.003 -4.0963  2.9878 -2.2360
  861MOL0     O16101   4.107   5.687   1.463  0.2481 -0.5948 -0.1670
  861MOL0     C16102   4.120   5.719   1.347 -0.1360 -0.5623 -0.9519
  861MOL0     O16103   4.236   5.736   1.283 -0.2614  0.6195 -0.6254
  861MOL0     C16104   4.353   5.741   1.358 -0.6655 -0.0780 -0.3177
  861MOL0     C16105   4.432   5.850   1.335  0.0282  0.0382  0.8410
  861MOL0     C16106   4.542   5.873   1.420  0.0542  0.6740 -0.1816
  861MOL0     C16107   4.565   5.797   1.540 -0.7894  0.5651 -0.1760
  861MOL0     O16108   4.682   5.815   1.618  0.9239 -0.4493  0.9233
  861MOL0     C16109   4.713   5.946   1.674 -0.1636 -0.5009 -1.2209
  861MOL0     C16110   4.666   5.943   1.823 -0.0993 -0.8996 -0.6998
  861MOL0     C16111   4.721   6.058   1.914 -1.3559 -0.2175  0.1738
  861MOL0     C16112   4.705   6.030   2.064  0.0125 -0.0688 -0.1030
  861MOL0     C16113   4.782   6.134   2.148 -0.3754 -1.1118 -0.5785
  861MOL0     C16114   4.727   6.272   2.136  0.3504  0.1870  0.3647
  861MOL0     C16115   4.775   6.378   2.228 -0.6647 -0.0924  0.1888
  861MOL0     C16116   4.689   6.502   2.219 -0.3476  0.6958 -0.7305
  861MOL0     N16117   4.745   6.627   2.278 -0.3815 -0.6865 -0.2700
  861MOL0     C16118   4.821   6.651   2.393 -0.2310  0.1209  0.2908
  861MOL0     C16119   4.815   6.791   2.402  0.0319 -1.1202  0.3749
  861MOL0     C16120   4.876   6.888   2.505 -0.1835  0.8696  0.5535
  861MOL0     C16121   5.003   6.956   2.463 -0.3659 -0.5560  0.4671
  861MOL0     C16122   5.081   7.008   2.587  0.6489  0.1555 -0.1391
  861MOL0     C16123   5.216   7.060   2.554  0.1786  0.2470 -0.4594
  861MOL0     O16124   5.292   6.956   2.490  0.4486 -0.3699 -0.0183
  861MOL0     C16125   5.424   6.969   2.483  0.4569  0.3559 -0.2981
  861MOL0     C16126   5.496   6.850   2.455 -0.2163  0.0426 -0.5526
  861MOL0     C16127   5.633   6.858   2.458 -0.7583  0.4445  0.2123
  861MOL0     C16128   5.706   6.972   2.500  0.6962  0.0413 -0.0103
  861MOL0     C16129   5.850   6.966   2.515 -0.3299 -0.0225  0.7237
  861MOL0     O16130   5.909   7.088   2.555 -0.0788  0.5151 -0.5732
  861MOL0     C16131   6.038   7.098   2.608  0.1733  0.1506 -0.5416
  861MOL0     C16132   6.094   7.229   2.621  0.0594  0.9112 -0.8506
  861MOL0     C16133   6.224   7.238   2.676  0.0272 -0.1040  0.4274
  861MOL0     C16134   6.299   7.133   2.724 -0.7551  0.4865 -0.0470
  861MOL0     O16135   6.426   7.160   2.777 -0.4844  0.3803  0.2450
  861MOL0     C16136   6.476   7.081   2.880 -0.1234  0.6445 -0.4990
  861MOL0     C16137   6.535   7.170   2.977 -0.0780 -0.7501  1.0529
  861MOL0     C16138   6.607   7.107   3.101 -0.1163 -0.6872 -0.1757
  861MOL0     C16139   6.675   6.971   3.080 -0.1490  0.9849 -0.7062
  861MOL0     C16140   6.737   6.932   3.217  0.5093  0.1051  0.1541
  861MOL0     C16141   6.817   6.797   3.198  0.0664  0.4339  0.3676
  861MOL0     C16142   6.952   6.810   3.124 -0.2380 -0.1240 -0.0162
  861MOL0     C16143   7.047   6.697   3.146  0.2476  0.0110  0.4755
  861MOL0    Cl16144   7.180   6.678   3.016  0.1092 -0.2938  0.5082
  861MOL0     C16145   6.245   7.004   2.704 -0.8449 -0.3963 -0.6842
  861MOL0     C16146   6.112   6.988   2.657 -0.6368 -0.0230 -0.0150
  861MOL0     O16147   5.912   6.871   2.479  0.3747  0.6833  0.5002
  861MOL0     C16148   5.638   7.090   2.523 -0.2935  0.3770 -0.5638
  861MOL0     C16149   5.493   7.088   2.512 -0.6849 -0.3353  0.2461
  861MOL0     N16150   4.745   6.847   2.303 -1.1238  0.5308  0.8442
  861MOL0     N16151   4.710   6.751   2.227 -0.8862  0.0568  0.5044
  861MOL0     C16152   4.488   5.683   1.559  0.1464  0.2070  0.3545
  861MOL0     C16153   4.388   5.653   1.460  0.3136  0.0978  0.7356
  861MOL0     C16154   3.993   5.723   1.271 -0.4087 -0.3185 -0.1680
  861MOL0     C16155   3.888   5.629   1.301  0.0003 -0.2911  0.2210
  861MOL0     C16156   3.766   5.629   1.234  0.0266 -0.6762 -0.4985
  861MOL0     C16157   3.742   5.712   1.128 -0.4558 -0.6171  0.3637
  861MOL0     O16158   3.623   5.694   1.069  0.2659 -0.4387 -0.6117
  861MOL0     C16159   3.598   5.773   0.951 -0.1249 -0.3128  0.2635
  861MOL0     C16160   3.444   5.787   0.929 -0.0968  0.2045  0.2855
  861MOL0     C16161   3.368   5.807   1.062 -0.7347  0.2703  0.4254
  861MOL0     C16162   3.227   5.838   1.040  0.0094 -0.1918 -0.0990
  861MOL0     C16163   3.204   5.974   0.992 -0.2187  0.4415  0.0146
  861MOL0     C16164   3.165   6.079   0.956  1.1816 -0.2608  0.2291
  861MOL0     C16165   3.838   5.808   1.103  0.5463  0.0378 -0.5483
  861MOL0     C16166   3.965   5.819   1.164 -0.3406 -0.1230 -0.9486
  861MOL0     C16167   4.057   5.931   1.138  0.4050 -0.8109  1.4480
  861MOL0     H16168   4.417   5.912   1.248  4.2463 -2.1830 -1.8002
  861MOL0     H16169   4.602   5.960   1.396 -3.1059  3.1966  0.3420
  861MOL0     H16170   4.820   5.968   1.670 -0.5153  2.3552  1.3113
  861MOL0     H16171   4.660   6.026   1.622  0.3276  0.6830  0.0474
  861MOL0     H16172   4.701   5.849   1.868 -0.2182 -0.1440  1.0656
  861MOL0     H16173   4.557   5.950   1.821 -0.0557 -0.2702 -1.6641
  861MOL0     H16174   4.691   6.159   1.884 -1.2215 -0.8356 -2.2976
  861MOL0     H16175   4.828   6.064   1.888 -1.3695 -2.4958 -0.6559
  861MOL0     H16176   4.599   6.016   2.089  0.5794 -0.1370  2.5252
  861MOL0     H16177   4.744   5.930   2.087 -0.2171 -0.1948 -0.2483
  861MOL0     H16178   4.798   6.096   2.249  0.1871 -2.1261 -1.0362
  861MOL0     H16179   4.887   6.123   2.120  0.2763 -2.6925  2.1602
  861MOL0     H16180   4.758   6.307   2.037  0.9752 -0.2455  0.4058
  861MOL0     H16181   4.619   6.260   2.147  0.2730  1.2939  1.0405
  861MOL0     H16182   4.874   6.387   2.182  0.4229 -1.7781  1.9713
  861MOL0     H16183   4.796   6.340   2.329 -1.2975 -0.0969  0.3238
  861MOL0     H16184   4.673   6.521   2.113  3.7968 -1.1622 -1.9059
  861MOL0     H16185   4.597   6.489   2.276  0.6968 -2.5313  0.4292
  861MOL0     H16186   4.867   6.579   2.461 -0.7111 -0.0096  0.4876
  861MOL0     H16187   4.797   6.960   2.525 -1.8893 -1.1619  1.5828
  861MOL0     H16188   4.899   6.822   2.590  0.7555 -2.0504 -1.7788
  861MOL0     H16189   5.067   6.880   2.417  0.7061  0.4550  0.2375
  861MOL0     H16190   4.983   7.039   2.394 -0.9092  0.0762  1.3639
  861MOL0     H16191   5.092   6.931   2.664 -0.9490  1.2453  1.2262
  861MOL0     H16192   5.021   7.090   2.627 -0.0169 -0.7771  0.8456
  861MOL0     H16193   5.270   7.073   2.649  2.5636 -1.7798 -1.3999
  861MOL0     H16194   5.215   7.150   2.492  1.0320 -0.1504 -1.0811
  861MOL0     H16195   5.455   6.761   2.411  0.4832 -0.9925  0.8051
  861MOL0     H16196   5.687   6.769   2.427  2.0016  1.8419  0.6954
  861MOL0     H16197   6.041   7.316   2.584 -1.8940 -0.0594 -0.4499
  861MOL0     H16198   6.263   7.339   2.679  0.2047 -0.1923  3.0651
  861MOL0     H16199   6.393   7.027   2.925  1.6366  0.3776  2.7309
  861MOL0     H16200   6.551   7.007   2.852 -1.9623 -1.9555  1.0702
  861MOL0     H16201   6.610   7.231   2.926  1.1013 -4.4140 -2.1459
  861MOL0     H16202   6.458   7.239   3.011  0.6190  1.1883 -1.0593
  861MOL0     H16203   6.665   7.178   3.161 -1.1060  0.2091 -0.2552
  861MOL0     H16204   6.526   7.085   3.170  0.7993 -0.9284  0.8396
  861MOL0     H16205   6.744   6.981   2.995 -0.3279  2.0313 -0.7499
  861MOL0     H16206   6.600   6.896   3.055 -0.7346  0.6586  1.8091
  861MOL0     H16207   6.655   6.918   3.288  1.2928  0.9238  1.2477
  861MOL0     H16208   6.812   7.001   3.256  0.2740 -0.4686  1.6756
  861MOL0     H16209   6.845   6.770   3.300  2.2411 -0.9362 -0.5082
  861MOL0     H16210   6.752   6.719   3.157 -1.1728  1.0332  1.1554
  861MOL0     H16211   7.005   6.902   3.150  0.2122 -0.3817 -0.0148
  861MOL0     H16212   6.932   6.815   3.016  3.6085  1.5598 -0.8283
  861MOL0     H16213   7.100   6.719   3.238  1.4186 -0.4714 -0.0664
  861MOL0     H16214   6.994   6.602   3.157 -0.2046  0.1531 -0.3497
  861MOL0     H16215   6.307   6.917   2.726  2.9823  2.1957 -0.1237
  861MOL0     H16216   6.079   6.885   2.649 -1.8718  0.0514  2.9308
  861MOL0     H16217   5.696   7.179   2.544  0.8098 -0.5258  0.3554
  861MOL0     H16218   5.441   7.178   2.544 -3.5396 -2.0785  0.8863
  861MOL0     H16219   4.503   5.618   1.644 -0.9510 -0.0818  0.3481
  861MOL0     H16220   4.326   5.567   1.483  0.2756 -0.2461 -0.5884
  861MOL0     H16221   3.920   5.551   1.370  0.9208  1.0826  1.3982
  861MOL0     H16222   3.689   5.554   1.246 -0.3868  0.0101  1.3952
  861MOL0     H16223   3.646   5.721   0.867  1.5643 -0.3813  1.2195
  861MOL0     H16224   3.634   5.876   0.953 -3.4273  0.9562 -0.1118
  861MOL0     H16225   3.404   5.706   0.868 -1.0203 -0.4527  1.7129
  861MOL0     H16226   3.437   5.879   0.870  1.5729 -0.1966 -0.5942
  861MOL0     H16227   3.418   5.887   1.117  0.0034 -0.8652  1.4523
  861MOL0     H16228   3.374   5.713   1.118  0.7856 -0.4391 -0.8379
  861MOL0     H16229   3.166   5.769   0.980 -2.3817 -0.6139  2.5803
  861MOL0     H16230   3.178   5.839   1.138  0.8124  1.0964  0.3073
  861MOL0     H16231   3.125   6.178   0.943  1.0972 -0.6626 -3.5516
  861MOL0     H16232   3.822   5.880   1.024  0.2025 -0.5382 -1.0046
  861MOL0     H16233   4.023   5.987   1.051  2.5413 -2.9101 -0.9099
  861MOL0     H16234   4.058   5.999   1.224 -0.7877 -0.8468  1.5022
  861MOL0     H16235   4.159   5.895   1.123  0.1402 -0.9775 -0.0722
  862MOL0     O16236   6.659   6.695   5.237  0.8201  0.3815  0.2291
  862MOL0     C16237   6.703   6.796   5.298  1.0761  0.8207  0.5093
  862MOL0     O16238   6.645   6.858   5.406  0.3482  0.6342 -0.5211
  862MOL0     C16239   6.510   6.844   5.441  0.4472  0.0871 -0.6000
  862MOL0     C16240   6.443   6.720   5.432  0.8785  0.0090 -0.0310
  862MOL0     C16241   6.320   6.705   5.491 -0.1290 -0.2265 -0.4900
  862MOL0     C16242   6.255   6.807   5.552 -1.0000  0.1550 -0.6073
  862MOL0     O16243   6.131   6.780   5.596  0.1786 -0.1933 -0.0200
  862MOL0     C16244   6.057   6.892   5.644  0.6582 -0.0331 -0.7168
  862MOL0     C16245   5.909   6.842   5.690  0.8547  0.0092  0.7965
  862MOL0     C16246   5.786   6.933   5.664 -0.1541  0.1435  1.2543
  862MOL0     C16247   5.652   6.850   5.657  0.6568 -0.7975  0.3531
  862MOL0     C16248   5.535   6.945   5.681 -0.2314  0.3221 -0.1467
  862MOL0     C16249   5.406   6.875   5.721 -0.3832  0.3027 -0.1096
  862MOL0     C16250   5.358   6.771   5.622 -0.7213 -0.0295  0.1355
  862MOL0     C16251   5.335   6.831   5.483  0.3919 -0.0803 -0.3970
  862MOL0     N16252   5.260   6.727   5.403  0.1421  0.5738 -0.1129
  862MOL0     C16253   5.125   6.714   5.391  0.2347 -1.0695  0.4639
  862MOL0     C16254   5.110   6.595   5.330 -0.3128 -0.1315  0.3566
  862MOL0     C16255   4.973   6.531   5.285 -0.4102  0.9555 -0.3148
  862MOL0     C16256   4.910   6.457   5.411  1.1789  0.4948  0.7480
  862MOL0     C16257   4.989   6.347   5.487 -0.0788 -0.2501 -0.2952
  862MOL0     C16258   5.053   6.230   5.403  0.8829 -0.5022 -0.3768
  862MOL0     O16259   5.117   6.146   5.489 -0.3433 -0.2748 -0.4424
  862MOL0     C16260   5.243   6.176   5.537 -0.6034 -0.0470  0.2411
  862MOL0     C16261   5.341   6.251   5.467 -0.5127 -0.6268 -0.3786
  862MOL0     C16262   5.468   6.271   5.526  0.1392 -0.4879 -0.3065
  862MOL0     C16263   5.490   6.216   5.659 -0.2076 -0.0815  0.3817
  862MOL0     C16264   5.623   6.221   5.720 -0.3983  0.3710  0.3691
  862MOL0     O16265   5.719   6.290   5.647 -0.7997  0.3298  0.4179
  862MOL0     C16266   5.852   6.286   5.680  0.2756  0.5949 -0.0826
  862MOL0     C16267   5.916   6.156   5.701  0.1960 -0.1318  0.1127
  862MOL0     C16268   6.052   6.145   5.728 -0.4398 -0.6871 -0.1736
  862MOL0     C16269   6.136   6.256   5.736  0.7608 -0.2758  0.5356
  862MOL0     O16270   6.269   6.250   5.769 -0.0785 -0.6680  0.1184
  862MOL0     C16271   6.320   6.124   5.808 -0.1925  0.0497  0.3574
  862MOL0     C16272   6.457   6.142   5.869 -0.3504 -0.2988 -0.2006
  862MOL0     C16273   6.574   6.184   5.778  0.6950 -0.3405 -0.8650
  862MOL0     C16274   6.707   6.217   5.835 -0.4473 -0.3081 -0.0218
  862MOL0     C16275   6.773   6.111   5.930 -0.2122  0.0910 -0.4495
  862MOL0     C16276   6.902   6.157   6.004  0.0269  0.4172  0.1421
  862MOL0     C16277   6.882   6.269   6.102 -0.6832  0.3766  0.1670
  862MOL0     C16278   6.925   6.407   6.040  0.0812  0.4349  0.4098
  862MOL0    Cl16279   7.086   6.455   6.096  0.4592 -0.1397  0.3235
  862MOL0     C16280   6.077   6.380   5.699 -0.4781 -0.3711  0.4271
  862MOL0     C16281   5.937   6.390   5.680  0.8357  0.0280 -0.2467
  862MOL0     O16282   5.653   6.147   5.816  0.4416 -0.1582  0.6301
  862MOL0     C16283   5.386   6.152   5.731  0.3188  0.5104  0.9851
  862MOL0     C16284   5.268   6.126   5.661  0.2784  0.7222  0.1609
  862MOL0     N16285   5.237   6.544   5.294 -0.2762  0.4757 -0.5890
  862MOL0     N16286   5.326   6.616   5.349  0.8806 -0.2401  1.3549
  862MOL0     C16287   6.325   6.926   5.572 -0.0881  0.3472  0.1559
  862MOL0     C16288   6.452   6.950   5.520  0.1439  1.1833  0.2633
  862MOL0     C16289   6.842   6.836   5.276  1.0182 -0.0851  0.0395
  862MOL0     C16290   6.906   6.916   5.372 -0.6357  0.0456  0.5296
  862MOL0     C16291   7.031   6.973   5.358 -0.2821  0.4663  0.3360
  862MOL0     C16292   7.097   6.959   5.238  0.0952  0.1324  0.5888
  862MOL0     O16293   7.218   7.016   5.203 -0.3984  0.5333  0.2861
  862MOL0     C16294   7.303   7.055   5.322  0.6499  0.1728 -0.2272
  862MOL0     C16295   7.439   7.109   5.286  0.2918 -0.3355  0.0873
  862MOL0     C16296   7.547   6.999   5.292  0.1105  0.4282  0.2288
  862MOL0     C16297   7.688   7.061   5.305 -0.6622 -0.4401 -0.8685
  862MOL0     C16298   7.778   6.943   5.304  0.0783 -0.3408 -0.3056
  862MOL0     C16299   7.834   6.838   5.332 -0.3377  0.0718  0.6185
  862MOL0     C16300   7.036   6.875   5.136  0.3545  0.1660 -1.3463
  862MOL0     C16301   6.913   6.812   5.156  0.0636  0.0471 -0.4402
  862MOL0     C16302   6.861   6.738   5.035  0.0040 -0.1954 -0.1488
  862MOL0     H16303   6.476   6.634   5.374  0.1020  0.1892 -0.7454
  862MOL0     H16304   6.272   6.608   5.492 -1.0214  0.2090 -0.2356
  862MOL0     H16305   6.113   6.940   5.725  0.1662 -0.1721 -0.2824
  862MOL0     H16306   6.039   6.963   5.563 -2.9413 -1.5371 -1.4391
  862MOL0     H16307   5.908   6.833   5.799 -0.6747  1.6575  0.9479
  862MOL0     H16308   5.880   6.746   5.646 -2.5447  0.4254  1.8433
  862MOL0     H16309   5.799   6.996   5.576 -0.6864  1.6471  2.2217
  862MOL0     H16310   5.800   7.005   5.744  2.2405  1.1792 -0.0140
  862MOL0     H16311   5.657   6.804   5.558  1.2618  0.9484 -0.4686
  862MOL0     H16312   5.649   6.774   5.736 -5.2208 -0.6812  0.6461
  862MOL0     H16313   5.560   7.024   5.752  1.3256  0.4886 -0.8310
  862MOL0     H16314   5.508   7.003   5.592 -3.8999 -0.0878  0.5458
  862MOL0     H16315   5.406   6.832   5.822  0.2668  1.2561  0.3202
  862MOL0     H16316   5.328   6.949   5.701 -2.3645 -2.0668 -1.8199
  862MOL0     H16317   5.260   6.737   5.654 -0.8436 -0.6347 -0.8445
  862MOL0     H16318   5.432   6.691   5.622  1.3757  1.7709 -1.6263
  862MOL0     H16319   5.268   6.917   5.491  1.0566  0.2917  2.2411
  862MOL0     H16320   5.425   6.855   5.425 -1.4240  1.6873 -2.6836
  862MOL0     H16321   5.047   6.773   5.438 -1.3806 -2.8812  0.1800
  862MOL0     H16322   4.901   6.604   5.246 -0.1701  2.3974  1.7487
  862MOL0     H16323   4.990   6.450   5.213  1.5580 -2.6812  3.7639
  862MOL0     H16324   4.865   6.524   5.485  2.9912  1.2126  1.2656
  862MOL0     H16325   4.822   6.403   5.375  0.6071  1.7644  0.1983
  862MOL0     H16326   4.918   6.306   5.560  0.0243 -0.1395 -0.1308
  862MOL0     H16327   5.059   6.404   5.550 -0.0459 -0.0619 -0.5026
  862MOL0     H16328   5.111   6.279   5.324 -0.0676  1.2809 -0.0236
  862MOL0     H16329   4.966   6.180   5.360 -3.0160  1.1663  4.5695
  862MOL0     H16330   5.317   6.315   5.383  2.8010  4.0421  1.7604
  862MOL0     H16331   5.550   6.313   5.469  2.0588 -0.6033  2.2189
  862MOL0     H16332   5.861   6.063   5.689 -0.3114 -0.2391  2.6975
  862MOL0     H16333   6.093   6.048   5.754 -2.2384 -0.6938  3.1243
  862MOL0     H16334   6.257   6.083   5.888 -0.2735  1.0270  0.8048
  862MOL0     H16335   6.322   6.057   5.722 -0.2642  1.1947 -0.5523
  862MOL0     H16336   6.451   6.209   5.955  0.2661 -1.2754  0.6405
  862MOL0     H16337   6.484   6.043   5.908  1.1454  0.6445  1.3152
  862MOL0     H16338   6.584   6.100   5.709  1.5564 -2.2169  1.4134
  862MOL0     H16339   6.547   6.270   5.716  0.4289 -0.0007 -0.2919
  862MOL0     H16340   6.694   6.307   5.896  1.3554  0.1890 -0.3226
  862MOL0     H16341   6.769   6.249   5.751 -2.2770 -0.6946 -1.5934
  862MOL0     H16342   6.803   6.022   5.874  1.0573 -0.6119  1.2773
  862MOL0     H16343   6.703   6.081   6.008  0.9520 -0.0860  0.5632
  862MOL0     H16344   6.933   6.067   6.056 -1.4923  1.2802  2.7006
  862MOL0     H16345   6.969   6.188   5.923 -0.3753  3.2184  0.7811
  862MOL0     H16346   6.942   6.252   6.191 -0.1306 -1.0203 -0.4426
  862MOL0     H16347   6.775   6.279   6.126 -0.2717  0.2572  2.2642
  862MOL0     H16348   6.928   6.398   5.931  0.8493  1.1537  0.3639
  862MOL0     H16349   6.860   6.494   6.056  2.1817  1.6989  2.6887
  862MOL0     H16350   6.134   6.472   5.688 -1.1803 -0.0055 -0.2476
  862MOL0     H16351   5.892   6.486   5.657 -0.2806 -0.6233 -0.8410
  862MOL0     H16352   5.394   6.110   5.831  1.6155  1.7020  1.4171
  862MOL0     H16353   5.189   6.075   5.717  2.6326 -0.4139  2.6856
  862MOL0     H16354   6.292   7.011   5.631 -2.1959 -0.6953  0.5608
  862MOL0     H16355   6.514   7.035   5.544  0.6649  0.5004  1.4034
  862MOL0     H16356   6.855   6.936   5.466 -0.7088 -1.8521  0.9415
  862MOL0     H16357   7.068   7.023   5.447 -0.3046 -0.2610  0.7649
  862MOL0     H16358   7.315   6.977   5.398  0.2995  0.0292 -0.3148
  862MOL0     H16359   7.255   7.134   5.381  2.5292  1.6523 -0.5766
  862MOL0     H16360   7.466   7.181   5.364  2.2329 -0.7614 -0.1449
  862MOL0     H16361   7.455   7.149   5.186  3.0241 -3.3895 -0.8535
  862MOL0     H16362   7.546   6.939   5.200  1.6919 -1.0091  1.0942
  862MOL0     H16363   7.529   6.937   5.380  0.9898  1.6065  1.2632
  862MOL0     H16364   7.714   7.131   5.225 -2.0031  2.3852  1.0278
  862MOL0     H16365   7.702   7.113   5.400 -1.4779  0.5265 -1.2673
  862MOL0     H16366   7.890   6.757   5.374  0.2174 -0.0107 -0.2442
  862MOL0     H16367   7.088   6.849   5.044  1.7741 -2.6655  0.0875
  862MOL0     H16368   6.853   6.632   5.063 -0.9204 -0.0128  0.3139
  862MOL0     H16369   6.763   6.767   4.998  1.7368  2.8702 -2.8962
  862MOL0     H16370   6.933   6.757   4.955 -2.3006  0.2643 -2.2214
  863MOL0     O16371   7.212   1.922   1.307 -0.2592  0.0468 -0.4201
  863MOL0     C16372   7.199   1.798   1.328 -0.6100 -0.6531 -0.2039
  863MOL0     O16373   7.299   1.725   1.375 -0.2491 -0.1505 -0.3477
  863MOL0     C16374   7.406   1.780   1.441 -0.1845 -0.6284 -1.2794
  863MOL0     C16375   7.528   1.717   1.420 -1.1719  0.2577  0.2135
  863MOL0     C16376   7.643   1.760   1.484  0.7236  0.6593  0.1544
  863MOL0     C16377   7.642   1.878   1.547 -0.2051 -0.2088 -0.5049
  863MOL0     O16378   7.771   1.935   1.564  0.2756  0.6887 -0.0479
  863MOL0     C16379   7.791   2.075   1.577 -0.1674  0.5487  0.1850
  863MOL0     C16380   7.931   2.101   1.605 -0.5816 -0.4411  0.9411
  863MOL0     C16381   7.967   2.033   1.745  0.7427 -0.3404 -0.5873
  863MOL0     C16382   8.110   2.046   1.771 -0.2221 -0.4679  0.5527
  863MOL0     C16383   8.149   1.960   1.888  0.6431 -0.0801  0.5137
  863MOL0     C16384   8.208   1.827   1.845  1.0538  0.0823 -0.7039
  863MOL0     C16385   8.250   1.763   1.977  0.4127 -0.2985  0.4505
  863MOL0     C16386   8.281   1.611   1.949 -0.9247  0.4319 -0.3854
  863MOL0     N16387   8.415   1.583   1.905 -0.2908  0.4327  0.4464
  863MOL0     C16388   8.482   1.466   1.918 -0.1058 -0.2767  0.9034
  863MOL0     C16389   8.610   1.481   1.886 -0.7678  0.1160  0.1179
  863MOL0     C16390   8.717   1.372   1.902  0.8850  0.2885 -0.5304
  863MOL0     C16391   8.791   1.331   1.771  0.6903  0.1230 -0.4687
  863MOL0     C16392   8.904   1.432   1.738 -0.1900  0.1269 -0.3509
  863MOL0     C16393   9.019   1.417   1.834  0.5642  0.5919 -0.4105
  863MOL0     O16394   9.072   1.283   1.812  0.9958 -0.5810  0.6418
  863MOL0     C16395   9.185   1.248   1.877  0.0883  0.8167 -1.0942
  863MOL0     C16396   9.200   1.106   1.856 -0.2447  0.0490 -0.6995
  863MOL0     C16397   9.320   1.043   1.897  0.0512  0.2695 -0.4428
  863MOL0     C16398   9.430   1.116   1.945  0.8859 -0.3363  0.1666
  863MOL0     C16399   9.552   1.038   1.972  0.2299  0.4274  0.2094
  863MOL0     O16400   9.541   0.922   2.053  0.2806  0.2117 -0.4607
  863MOL0     C16401   9.649   0.835   2.055 -0.2775  0.6941  0.1296
  863MOL0     C16402   9.655   0.743   2.162 -1.2615  0.5702  0.4968
  863MOL0     C16403   9.765   0.658   2.182  0.5573  0.4608 -0.0212
  863MOL0     C16404   9.877   0.653   2.095 -1.1701  0.7024 -1.1246
  863MOL0     O16405   9.977   0.560   2.117 -0.3148 -0.4280 -0.2763
  863MOL0     C16406  10.094   0.561   2.033  0.1517  0.0720  0.3042
  863MOL0     C16407  10.208   0.494   2.093  0.6341  0.5268 -0.0261
  863MOL0     C16408  10.260   0.553   2.224  0.0692 -0.6534 -0.7646
  863MOL0     C16409  10.362   0.471   2.312  0.6855  0.4444  0.3808
  863MOL0     C16410  10.420   0.542   2.436 -0.0076  0.5621  0.3975
  863MOL0     C16411  10.478   0.437   2.536  0.2331  0.3164  0.7317
  863MOL0     C16412  10.606   0.358   2.499  0.3927 -0.0034 -0.7335
  863MOL0     C16413  10.579   0.206   2.476  0.1023 -0.3783  0.1695
  863MOL0    Cl16414  10.746   0.145   2.428 -0.3089 -0.1058  0.1858
  863MOL0     C16415   9.870   0.735   1.988 -0.0576  0.4235  0.2949
  863MOL0     C16416   9.762   0.822   1.966  0.1768  0.7161  0.3541
  863MOL0     O16417   9.657   1.088   1.949 -0.2129 -0.2291  0.4677
  863MOL0     C16418   9.417   1.256   1.953 -0.8526  0.6529 -0.4143
  863MOL0     C16419   9.300   1.322   1.921  0.5000 -0.0773 -0.3346
  863MOL0     N16420   8.627   1.612   1.844  0.3247 -0.4071  0.5488
  863MOL0     N16421   8.506   1.668   1.845  0.1241 -0.8565  0.1547
  863MOL0     C16422   7.527   1.953   1.568  0.5530 -0.1873 -0.7223
  863MOL0     C16423   7.405   1.899   1.520  0.4193 -1.0585 -0.7141
  863MOL0     C16424   7.079   1.736   1.281 -0.2827  1.3075  0.2429
  863MOL0     C16425   6.965   1.822   1.267  0.7377  0.3816 -0.5830
  863MOL0     C16426   6.838   1.777   1.225 -0.0765  0.0342 -0.2804
  863MOL0     C16427   6.829   1.645   1.185 -0.0427  0.5153 -0.5706
  863MOL0     O16428   6.708   1.604   1.127 -1.0896 -0.8083 -0.4680
  863MOL0     C16429   6.675   1.464   1.145 -0.5092  0.0121  0.2857
  863MOL0     C16430   6.524   1.441   1.161  0.0438  0.2952  0.1641
  863MOL0     C16431   6.443   1.526   1.056 -0.4657 -0.0892 -0.0671
  863MOL0     C16432   6.296   1.505   1.054 -0.1830  0.4197 -0.1605
  863MOL0     C16433   6.224   1.506   1.180  0.7866  0.5770  0.4332
  863MOL0     C16434   6.176   1.511   1.291 -0.1590  0.5476 -0.0670
  863MOL0     C16435   6.938   1.560   1.211 -0.9985 -0.2602 -0.3568
  863MOL0     C16436   7.059   1.606   1.250  0.3429  0.2141 -0.6456
  863MOL0     C16437   7.165   1.501   1.275  0.2315 -0.2483 -0.4835
  863MOL0     H16438   7.521   1.634   1.351  1.4110  1.4666 -1.6748
  863MOL0     H16439   7.731   1.708   1.446 -0.3281  0.0486 -1.5597
  863MOL0     H16440   7.761   2.126   1.485 -0.4976  0.2537  0.1265
  863MOL0     H16441   7.744   2.126   1.661 -1.1867  1.8485 -1.1408
  863MOL0     H16442   7.943   2.208   1.623  1.5585 -0.3241 -0.8623
  863MOL0     H16443   7.997   2.064   1.527 -0.2339  1.2116  0.4244
  863MOL0     H16444   7.942   1.927   1.751  0.3598 -0.4217 -2.8877
  863MOL0     H16445   7.915   2.078   1.830 -0.5845 -3.7196  0.5497
  863MOL0     H16446   8.164   2.035   1.677 -2.6707  1.6701 -1.2591
  863MOL0     H16447   8.135   2.146   1.805 -2.0772  0.0705  0.4712
  863MOL0     H16448   8.230   2.008   1.943  2.1767 -1.8475 -0.0904
  863MOL0     H16449   8.065   1.937   1.953 -3.0500  1.5238 -3.2550
  863MOL0     H16450   8.139   1.758   1.796  1.7769 -3.0952  2.4121
  863MOL0     H16451   8.297   1.836   1.781  1.8536  2.1243  0.5657
  863MOL0     H16452   8.169   1.791   2.045 -1.3017  2.6155 -2.4701
  863MOL0     H16453   8.343   1.806   2.014  0.0247  0.8131  0.1677
  863MOL0     H16454   8.262   1.552   2.038  1.0019 -2.3223 -1.6547
  863MOL0     H16455   8.210   1.582   1.871 -0.6965 -1.3550  0.0282
  863MOL0     H16456   8.443   1.371   1.953 -2.1416 -0.8201 -2.3820
  863MOL0     H16457   8.781   1.415   1.979  0.8287  0.6026 -0.6577
  863MOL0     H16458   8.680   1.279   1.947 -0.1162  1.3338  0.8516
  863MOL0     H16459   8.836   1.233   1.790 -2.4128 -1.3197 -0.0544
  863MOL0     H16460   8.723   1.312   1.688 -0.1713  0.6697  0.1038
  863MOL0     H16461   8.868   1.535   1.738  1.9626  0.9853 -2.4014
  863MOL0     H16462   8.942   1.402   1.639 -0.2413 -1.5947  0.1069
  863MOL0     H16463   8.986   1.418   1.938 -1.4968 -0.0843 -1.0131
  863MOL0     H16464   9.092   1.498   1.831 -0.8453  1.8627 -2.1795
  863MOL0     H16465   9.122   1.046   1.810 -2.8023 -1.1556  4.4263
  863MOL0     H16466   9.317   0.940   1.863 -3.6123  0.7708 -2.0803
  863MOL0     H16467   9.576   0.753   2.236  1.9775 -0.0826  4.4401
  863MOL0     H16468   9.766   0.592   2.269  0.8501  2.8083  1.8696
  863MOL0     H16469  10.068   0.508   1.940 -1.6767  1.2127  0.1103
  863MOL0     H16470  10.133   0.659   2.004  5.6385 -1.2800  2.0156
  863MOL0     H16471  10.187   0.390   2.117  1.4538  0.3572 -0.0068
  863MOL0     H16472  10.294   0.497   2.026 -0.1535  1.9253 -1.0233
  863MOL0     H16473  10.303   0.653   2.217  1.3490 -1.2589 -2.2066
  863MOL0     H16474  10.172   0.564   2.287  1.0471 -4.4318  1.6209
  863MOL0     H16475  10.447   0.442   2.249  1.0940  0.4982  0.8919
  863MOL0     H16476  10.315   0.378   2.347 -0.4388  1.7240  2.4718
  863MOL0     H16477  10.335   0.599   2.475  1.3666  2.2807  0.9799
  863MOL0     H16478  10.492   0.613   2.393  1.4775 -1.5091 -0.6704
  863MOL0     H16479  10.502   0.494   2.627  1.8528  0.3716  0.3008
  863MOL0     H16480  10.392   0.375   2.560 -1.5617  2.7370  1.0139
  863MOL0     H16481  10.681   0.370   2.577 -0.0935 -2.1815  0.1284
  863MOL0     H16482  10.641   0.391   2.400  0.5711  0.3589 -0.5532
  863MOL0     H16483  10.564   0.161   2.575 -0.2795  1.3109  0.9064
  863MOL0     H16484  10.495   0.191   2.408 -1.5502  3.1988  1.1964
  863MOL0     H16485   9.956   0.739   1.922  0.4188  1.5942  0.9492
  863MOL0     H16486   9.768   0.882   1.875 -2.6389  0.2592 -0.2424
  863MOL0     H16487   9.511   1.297   1.989 -0.6175  0.3600 -0.6819
  863MOL0     H16488   9.290   1.427   1.947 -2.3282 -0.6519  1.2910
  863MOL0     H16489   7.530   2.038   1.635 -0.4826 -1.0658  0.4881
  863MOL0     H16490   7.310   1.950   1.532  0.8807 -0.0806 -1.0653
  863MOL0     H16491   6.976   1.927   1.290 -2.0462  1.1070 -2.0683
  863MOL0     H16492   6.751   1.841   1.214 -0.0096 -0.1374 -2.1633
  863MOL0     H16493   6.729   1.422   1.230  1.9014  1.7337 -0.2794
  863MOL0     H16494   6.710   1.412   1.056 -1.8602 -1.3378  0.5094
  863MOL0     H16495   6.488   1.472   1.259 -1.8628 -2.3470  0.4204
  863MOL0     H16496   6.502   1.334   1.151  0.9331  0.0514  0.7669
  863MOL0     H16497   6.481   1.496   0.958 -0.0532 -1.9869  0.6241
  863MOL0     H16498   6.472   1.631   1.061 -0.4849 -0.0138 -1.1860
  863MOL0     H16499   6.270   1.595   0.996  1.1588  1.3342  0.6099
  863MOL0     H16500   6.267   1.419   0.994  0.8791 -0.3942  0.4678
  863MOL0     H16501   6.139   1.513   1.392  1.0819 -1.4884  0.4790
  863MOL0     H16502   6.927   1.453   1.193  0.6812 -0.3463 -0.9870
  863MOL0     H16503   7.138   1.401   1.239  0.7392 -0.2805 -0.7880
  863MOL0     H16504   7.258   1.524   1.223  0.0188 -1.1067 -1.2805
  863MOL0     H16505   7.182   1.490   1.382  0.4109 -1.4118 -0.6228
  864MOL0     O16506   9.827   7.810  11.022 -0.5263 -0.5487 -0.5282
  864MOL0     C16507   9.755   7.796  10.920 -0.3579  0.7903  0.3647
  864MOL0     O16508   9.786   7.853  10.793  1.1037  0.1997 -0.0198
  864MOL0     C16509   9.867   7.960  10.778  0.5261  0.1846 -0.2774
  864MOL0     C16510   9.970   7.992  10.867  0.2170  0.2123 -0.4630
  864MOL0     C16511  10.035   8.116  10.869 -0.3735 -0.9793 -0.0839
  864MOL0     C16512  10.011   8.216  10.768 -0.0547  0.2706  0.8596
  864MOL0     O16513  10.077   8.334  10.769  0.4210 -0.3677 -0.6987
  864MOL0     C16514  10.066   8.427  10.656 -0.1643  0.0355  0.7782
  864MOL0     C16515  10.179   8.526  10.669  0.6792 -0.1525  0.6898
  864MOL0     C16516  10.150   8.623  10.783  0.6126  0.1393 -0.0766
  864MOL0     C16517  10.285   8.689  10.824 -0.1705 -0.4320 -0.1377
  864MOL0     C16518  10.260   8.828  10.890  0.8227 -0.1751  0.0010
  864MOL0     C16519  10.389   8.913  10.901 -0.2431 -0.5923 -0.0196
  864MOL0     C16520  10.479   8.854  11.010 -0.9932  0.6527 -0.8187
  864MOL0     C16521  10.576   8.959  11.069 -0.3369  0.1211 -0.1307
  864MOL0     N16522  10.702   9.002  11.007  0.1179  0.2592  1.3505
  864MOL0     C16523  10.812   9.038  11.082 -1.0953 -0.9525  0.1616
  864MOL0     C16524  10.901   9.079  10.997  0.2943 -0.3145 -0.2708
  864MOL0     C16525  11.035   9.134  11.034 -0.2571 -0.3027 -0.3956
  864MOL0     C16526  11.025   9.281  11.067  0.1073 -0.0779  0.2061
  864MOL0     C16527  10.945   9.330  11.191 -0.0824 -0.0626  0.1500
  864MOL0     C16528  10.964   9.255  11.322 -0.5035 -0.0608 -0.9805
  864MOL0     O16529  11.078   9.173  11.324 -0.1777 -0.0469 -0.6266
  864MOL0     C16530  11.202   9.225  11.356  0.2001  0.5149  0.5086
  864MOL0     C16531  11.236   9.354  11.392  0.1806 -0.2528  0.0675
  864MOL0     C16532  11.370   9.396  11.411 -0.6334  0.1793 -0.1013
  864MOL0     C16533  11.475   9.301  11.377  0.3814  0.4268 -1.2158
  864MOL0     C16534  11.614   9.340  11.378  0.6896  0.3167 -0.7466
  864MOL0     O16535  11.709   9.248  11.343 -0.1104  0.4610  0.3395
  864MOL0     C16536  11.843   9.274  11.340  0.7370 -0.2430  0.2148
  864MOL0     C16537  11.924   9.237  11.451 -0.0731 -1.3678 -0.5926
  864MOL0     C16538  12.066   9.250  11.438 -0.0773  0.2229  0.4170
  864MOL0     C16539  12.125   9.296  11.323  0.1066  0.3471  0.0497
  864MOL0     O16540  12.264   9.316  11.317 -0.8636  0.1934 -0.1716
  864MOL0     C16541  12.319   9.326  11.183  0.4882  0.0137 -1.4522
  864MOL0     C16542  12.465   9.286  11.208 -0.3959 -0.3716  0.4623
  864MOL0     C16543  12.557   9.303  11.088 -0.2742 -0.6892  0.9363
  864MOL0     C16544  12.540   9.195  10.980 -0.3097  0.6227  0.2681
  864MOL0     C16545  12.624   9.213  10.856  1.0557 -1.0770  0.6601
  864MOL0     C16546  12.772   9.199  10.881 -0.9563 -0.1786  0.9701
  864MOL0     C16547  12.855   9.255  10.756 -0.0702  0.5867 -0.2576
  864MOL0     C16548  13.005   9.220  10.771  0.0845 -0.2677  0.0834
  864MOL0    Cl16549  13.018   9.047  10.715 -0.1880 -0.4680  0.0861
  864MOL0     C16550  12.038   9.323  11.207 -0.0259  0.0732  0.0871
  864MOL0     C16551  11.907   9.322  11.225  0.4166 -0.0125  0.1681
  864MOL0     O16552  11.634   9.450  11.427  0.3942  0.0386 -0.0867
  864MOL0     C16553  11.441   9.165  11.356  0.1903 -0.3771  1.0058
  864MOL0     C16554  11.306   9.135  11.346 -0.3703 -0.2492  0.4464
  864MOL0     N16555  10.851   9.054  10.866 -0.0095 -0.4092  1.0053
  864MOL0     N16556  10.733   8.999  10.876 -0.4053  0.4176 -0.5271
  864MOL0     C16557   9.919   8.177  10.674  0.2606  0.2077  0.8877
  864MOL0     C16558   9.849   8.054  10.677 -0.1196  0.4678  0.5023
  864MOL0     C16559   9.646   7.700  10.918 -0.2246  0.6371  0.0759
  864MOL0     C16560   9.565   7.701  10.805 -0.5163 -0.1547  0.6096
  864MOL0     C16561   9.456   7.615  10.806  0.2930  0.2578  0.3348
  864MOL0     C16562   9.415   7.541  10.910 -0.5066 -0.3866  0.4814
  864MOL0     O16563   9.308   7.458  10.885 -0.2547  0.8870  0.0929
  864MOL0     C16564   9.263   7.365  10.986 -0.8349 -0.0266  0.2646
  864MOL0     C16565   9.136   7.301  10.947  0.6537 -0.4076  0.2281
  864MOL0     C16566   9.098   7.209  11.066  0.3479 -0.4087  0.1982
  864MOL0     C16567   8.953   7.156  11.053 -0.5782 -0.3621 -0.0762
  864MOL0     C16568   8.899   7.105  11.182 -0.6743  0.0880 -0.0493
  864MOL0     C16569   8.845   7.059  11.274  0.5562  0.7918 -0.5546
  864MOL0     C16570   9.495   7.550  11.027 -0.6807  0.3042 -1.2391
  864MOL0     C16571   9.605   7.625  11.036 -0.6895 -0.1494  1.1152
  864MOL0     C16572   9.669   7.621  11.165  0.1773  0.1021  0.2947
  864MOL0     H16573  10.002   7.910  10.931 -2.1216 -1.5659 -1.4598
  864MOL0     H16574  10.103   8.155  10.944 -0.8123 -0.8486  0.2559
  864MOL0     H16575  10.064   8.367  10.565  2.0459  0.7674  0.1904
  864MOL0     H16576   9.970   8.479  10.662 -0.6143 -0.8725  2.3282
  864MOL0     H16577  10.181   8.587  10.578  2.1491  0.2155  0.9301
  864MOL0     H16578  10.275   8.476  10.688  1.7397  0.8990 -1.5549
  864MOL0     H16579  10.094   8.570  10.861 -1.3451  2.2200  0.0461
  864MOL0     H16580  10.086   8.702  10.742  0.5092 -0.1080 -0.3921
  864MOL0     H16581  10.341   8.625  10.894  1.6672  1.2931  0.0749
  864MOL0     H16582  10.345   8.706  10.734  1.0822 -3.5692 -0.0675
  864MOL0     H16583  10.177   8.876  10.837  0.6458 -1.6371 -1.1095
  864MOL0     H16584  10.216   8.821  10.990 -0.1174  0.6584 -0.3390
  864MOL0     H16585  10.450   8.920  10.811  1.0498 -1.3689  0.7660
  864MOL0     H16586  10.360   9.015  10.930  0.0843 -0.8927  1.4104
  864MOL0     H16587  10.543   8.777  10.967  0.0413 -0.1691  1.9960
  864MOL0     H16588  10.424   8.809  11.093  0.6257  0.3582  0.1211
  864MOL0     H16589  10.525   9.055  11.081  2.9967  1.9836  0.3952
  864MOL0     H16590  10.609   8.933  11.170  1.1633  1.7095 -0.1820
  864MOL0     H16591  10.817   9.038  11.191 -2.6998 -2.5083  0.2741
  864MOL0     H16592  11.076   9.069  11.112 -0.1697  0.0469 -0.1472
  864MOL0     H16593  11.088   9.125  10.939  1.6009 -0.6198  0.6257
  864MOL0     H16594  11.131   9.308  11.067  0.4348 -1.2141  1.8274
  864MOL0     H16595  10.979   9.321  10.976  1.6080 -1.6465 -1.3131
  864MOL0     H16596  10.843   9.316  11.154  0.1608 -0.5669 -0.3359
  864MOL0     H16597  10.961   9.434  11.220  0.3504 -0.5818  1.8993
  864MOL0     H16598  10.877   9.189  11.332 -0.2416 -0.2024  0.6023
  864MOL0     H16599  10.966   9.323  11.408  0.7630 -0.5159 -0.6238
  864MOL0     H16600  11.157   9.427  11.404 -2.0431 -2.0066 -2.7446
  864MOL0     H16601  11.398   9.498  11.438  0.9542 -0.7589  2.1022
  864MOL0     H16602  11.891   9.201  11.549  1.5238 -3.0956 -0.6229
  864MOL0     H16603  12.131   9.226  11.522  0.3091 -1.1199 -0.2438
  864MOL0     H16604  12.283   9.266  11.100 -0.8743  0.1347 -0.9645
  864MOL0     H16605  12.312   9.432  11.155 -1.1670  0.2567 -0.2275
  864MOL0     H16606  12.510   9.346  11.288  2.2207  0.2543 -1.3197
  864MOL0     H16607  12.472   9.178  11.227  0.3456 -0.4206 -0.0036
  864MOL0     H16608  12.536   9.402  11.046  2.6514  0.2609  1.4722
  864MOL0     H16609  12.662   9.303  11.121 -1.2828  1.5257  4.7997
  864MOL0     H16610  12.436   9.189  10.947 -0.1316 -0.8916 -0.1034
  864MOL0     H16611  12.575   9.102  11.027 -1.2757  0.8278  1.4436
  864MOL0     H16612  12.599   9.312  10.818  1.6147 -1.4933 -0.9131
  864MOL0     H16613  12.592   9.130  10.792 -1.6099  0.3038  0.0798
  864MOL0     H16614  12.801   9.246  10.975  1.2393 -0.3260  0.4185
  864MOL0     H16615  12.804   9.097  10.904  1.2389 -0.1438 -1.3601
  864MOL0     H16616  12.844   9.363  10.770 -0.2599  0.2306  3.2094
  864MOL0     H16617  12.823   9.210  10.662 -2.3035  0.8904  0.3052
  864MOL0     H16618  13.075   9.278  10.709 -0.9806 -0.3531 -1.2427
  864MOL0     H16619  13.040   9.231  10.874  2.5114 -1.4859 -0.5283
  864MOL0     H16620  12.069   9.352  11.107 -1.4416 -1.6943 -0.9145
  864MOL0     H16621  11.838   9.327  11.142 -0.8455 -0.9548  1.1136
  864MOL0     H16622  11.512   9.085  11.338 -0.3314 -0.0520 -3.9620
  864MOL0     H16623  11.283   9.039  11.301 -0.4046 -0.5530  1.1101
  864MOL0     H16624   9.879   8.243  10.598  1.0695  0.4937  0.7026
  864MOL0     H16625   9.773   8.028  10.604  1.3955 -0.9729 -0.6564
  864MOL0     H16626   9.569   7.762  10.715  1.0897  0.6145  1.1629
  864MOL0     H16627   9.398   7.605  10.715 -0.3363 -1.9742  0.9024
  864MOL0     H16628   9.235   7.425  11.073 -0.7015  2.1819 -1.1508
  864MOL0     H16629   9.351   7.304  11.009  0.3923 -0.0991 -3.8870
  864MOL0     H16630   9.145   7.250  10.850 -0.8951  0.9910 -0.7152
  864MOL0     H16631   9.057   7.375  10.932  0.7519 -0.0877  1.2197
  864MOL0     H16632   9.111   7.262  11.161 -1.0469  1.1769 -0.4415
  864MOL0     H16633   9.155   7.116  11.062 -1.8077 -1.8926  1.7016
  864MOL0     H16634   8.887   7.240  11.027 -1.0463 -0.6835  0.0561
  864MOL0     H16635   8.930   7.084  10.974 -2.0002  1.1790 -1.1391
  864MOL0     H16636   8.802   7.034  11.369 -0.4894  2.8985 -0.4058
  864MOL0     H16637   9.460   7.496  11.114 -1.3046  0.4692 -1.3756
  864MOL0     H16638   9.643   7.534  11.226  3.8898 -1.3563  0.0184
  864MOL0     H16639   9.777   7.619  11.151 -0.0994 -0.5838 -2.2754
  864MOL0     H16640   9.642   7.711  11.222 -0.9098 -0.7967  1.2553
  865MOL0     O16641   8.980   8.931   7.609 -0.0209 -0.1998  0.5775
  865MOL0     C16642   8.983   8.918   7.731  0.4765  1.1868 -1.6418
  865MOL0     O16643   9.073   8.844   7.807  0.4988 -0.5183  0.0024
  865MOL0     C16644   9.183   8.776   7.752  0.6651 -0.2862  0.5435
  865MOL0     C16645   9.232   8.663   7.818  0.2526 -0.8639 -0.4877
  865MOL0     C16646   9.347   8.590   7.779 -0.6355 -0.0208 -0.2148
  865MOL0     C16647   9.414   8.633   7.668 -0.5965  1.0743  0.2370
  865MOL0     O16648   9.534   8.566   7.632  0.1091 -0.2990  0.6058
  865MOL0     C16649   9.596   8.483   7.721  0.3245  0.0700  0.1857
  865MOL0     C16650   9.735   8.443   7.671  0.7072 -0.9545 -0.2362
  865MOL0     C16651   9.729   8.381   7.535  0.8329  0.6193  0.2324
  865MOL0     C16652   9.864   8.361   7.476 -0.5406 -0.5809 -0.3220
  865MOL0     C16653   9.956   8.272   7.566 -0.1387 -0.0016 -0.0575
  865MOL0     C16654  10.085   8.222   7.480  0.2746  0.6593 -0.9475
  865MOL0     C16655  10.174   8.340   7.437 -0.2794 -0.2158  0.0425
  865MOL0     C16656  10.276   8.294   7.324  0.3790  0.6211  0.9252
  865MOL0     N16657  10.328   8.409   7.244 -0.5930  0.6436 -0.5291
  865MOL0     C16658  10.444   8.476   7.268  0.1953 -0.0569 -0.1793
  865MOL0     C16659  10.452   8.578   7.176  0.0612  0.4565 -0.8332
  865MOL0     C16660  10.557   8.679   7.159  0.1168 -0.3680  0.1970
  865MOL0     C16661  10.695   8.626   7.189  0.1114  0.4602 -0.3073
  865MOL0     C16662  10.755   8.558   7.070 -0.3294 -0.0237  0.4685
  865MOL0     C16663  10.902   8.506   7.101  0.0577 -0.3585 -0.9896
  865MOL0     O16664  10.995   8.614   7.134 -0.5621  0.2639 -0.0154
  865MOL0     C16665  11.130   8.590   7.120 -1.0120 -0.2199 -0.9431
  865MOL0     C16666  11.220   8.697   7.107  0.0734  0.1311 -0.1408
  865MOL0     C16667  11.360   8.675   7.088 -0.6342 -0.2321  0.7164
  865MOL0     C16668  11.411   8.540   7.094 -0.7164 -0.4481  0.1056
  865MOL0     C16669  11.553   8.520   7.076 -0.0142  0.2204  0.8473
  865MOL0     O16670  11.599   8.396   7.115 -0.2273  0.4425 -0.1410
  865MOL0     C16671  11.740   8.370   7.099  0.5746  0.3566  0.1348
  865MOL0     C16672  11.797   8.316   6.979 -0.0796  0.5556 -0.4794
  865MOL0     C16673  11.934   8.269   6.974 -0.5711 -1.1514 -0.7605
  865MOL0     C16674  12.021   8.302   7.080 -0.3803 -0.3881 -0.1068
  865MOL0     O16675  12.152   8.301   7.060 -0.4132  0.4869  0.0912
  865MOL0     C16676  12.210   8.174   7.090 -0.6215  0.1056  0.0092
  865MOL0     C16677  12.349   8.162   7.028 -0.0888  0.0078  0.3783
  865MOL0     C16678  12.405   8.012   7.036 -0.3970 -0.0376  0.4823
  865MOL0     C16679  12.549   7.986   6.984  0.3560 -0.7940  0.0540
  865MOL0     C16680  12.659   8.070   7.062 -0.0908 -0.3339 -0.3317
  865MOL0     C16681  12.798   8.029   7.003  0.2884 -0.4233  0.0048
  865MOL0     C16682  12.904   8.112   7.061 -0.1051  0.3196  0.4346
  865MOL0     C16683  13.037   8.098   6.982  0.0484  0.2998 -0.5912
  865MOL0    Cl16684  13.151   8.226   7.038 -0.2882 -0.4377  0.3680
  865MOL0     C16685  11.967   8.360   7.198 -0.0740  0.0762  0.1208
  865MOL0     C16686  11.825   8.378   7.204 -0.2214 -0.9479  0.2616
  865MOL0     O16687  11.625   8.615   7.041 -0.5943 -0.1259 -0.0277
  865MOL0     C16688  11.320   8.441   7.122  0.0848  0.6484  0.6566
  865MOL0     C16689  11.185   8.459   7.131  0.3196  0.2338  0.5528
  865MOL0     N16690  10.340   8.564   7.104  0.5710 -0.4643  0.4735
  865MOL0     N16691  10.261   8.468   7.144  0.0616 -0.7210 -0.8909
  865MOL0     C16692   9.376   8.746   7.599  0.3991 -0.4625  0.0063
  865MOL0     C16693   9.257   8.817   7.636 -0.6489  0.6163 -0.4124
  865MOL0     C16694   8.888   8.997   7.814  0.1009  0.9269 -0.2287
  865MOL0     C16695   8.855   8.945   7.936 -0.1046  0.2785 -0.0068
  865MOL0     C16696   8.763   9.003   8.022 -0.6959  0.1880  0.7228
  865MOL0     C16697   8.703   9.122   7.983  0.6428  0.6801 -0.0789
  865MOL0     O16698   8.608   9.182   8.073 -0.5762  0.0037  0.0850
  865MOL0     C16699   8.507   9.273   8.022 -0.1261 -0.4720 -0.5575
  865MOL0     C16700   8.374   9.286   8.101  0.3406  0.5639  0.0494
  865MOL0     C16701   8.375   9.330   8.248  0.2153  0.3660 -0.3063
  865MOL0     C16702   8.400   9.479   8.260  0.3254 -0.7987 -0.1090
  865MOL0     C16703   8.289   9.575   8.217  0.0996  0.1361 -0.1672
  865MOL0     C16704   8.191   9.636   8.192  0.2032 -0.8716  0.5377
  865MOL0     C16705   8.740   9.176   7.859  0.2204 -0.0087  1.0000
  865MOL0     C16706   8.828   9.114   7.772  0.2798 -0.2343 -0.1496
  865MOL0     C16707   8.840   9.179   7.635  0.5851  0.2126  0.7221
  865MOL0     H16708   9.176   8.615   7.897 -1.1083 -0.8026 -1.3810
  865MOL0     H16709   9.388   8.507   7.836  0.3280 -0.7615 -1.9170
  865MOL0     H16710   9.606   8.531   7.819 -1.0731  0.0689  0.3493
  865MOL0     H16711   9.536   8.393   7.734  1.5890 -0.7156  0.7427
  865MOL0     H16712   9.779   8.382   7.751  0.0764  1.7703  2.3767
  865MOL0     H16713   9.787   8.538   7.658 -1.0663  0.1632  0.4944
  865MOL0     H16714   9.682   8.441   7.456 -1.1341 -0.6283  0.3984
  865MOL0     H16715   9.674   8.288   7.547  1.4715 -0.1484 -2.3128
  865MOL0     H16716   9.860   8.327   7.373  0.7886 -0.7786 -0.3241
  865MOL0     H16717   9.912   8.459   7.471 -0.1413 -0.8363 -2.9917
  865MOL0     H16718   9.987   8.327   7.655  0.0825  0.4765 -0.4193
  865MOL0     H16719   9.902   8.184   7.601 -2.2084  1.0418 -0.4680
  865MOL0     H16720  10.132   8.148   7.546  0.0678  0.8722 -0.5585
  865MOL0     H16721  10.041   8.174   7.393 -2.0556  1.3198 -0.2122
  865MOL0     H16722  10.232   8.382   7.520 -0.1302  0.8224 -0.5664
  865MOL0     H16723  10.111   8.419   7.394 -2.2334 -1.7908 -0.1459
  865MOL0     H16724  10.347   8.220   7.364  2.8484  1.3585 -1.7677
  865MOL0     H16725  10.214   8.242   7.250 -0.4267  0.6279  1.5823
  865MOL0     H16726  10.505   8.440   7.350 -0.3558 -0.9035 -0.1264
  865MOL0     H16727  10.550   8.715   7.056 -1.9089 -3.6114 -0.9295
  865MOL0     H16728  10.544   8.769   7.219  0.6506  1.2078 -1.9326
  865MOL0     H16729  10.763   8.706   7.219 -0.6403  0.3683  1.8142
  865MOL0     H16730  10.693   8.556   7.274 -2.7875 -1.6856 -1.9338
  865MOL0     H16731  10.770   8.627   6.986 -2.2187  1.6012  1.3942
  865MOL0     H16732  10.690   8.478   7.035 -0.2978  0.0261  0.2916
  865MOL0     H16733  10.935   8.446   7.016  1.9968  0.1554 -0.6640
  865MOL0     H16734  10.912   8.435   7.184  0.1978  1.6158  0.7766
  865MOL0     H16735  11.183   8.799   7.105  0.5927  0.3382  0.6671
  865MOL0     H16736  11.417   8.763   7.060 -1.4235 -0.0649 -0.4151
  865MOL0     H16737  11.735   8.295   6.893 -0.9379 -0.7902  0.4445
  865MOL0     H16738  11.979   8.220   6.887  1.6719  0.2651 -0.4832
  865MOL0     H16739  12.223   8.169   7.198  2.7522  2.4610 -0.1120
  865MOL0     H16740  12.160   8.086   7.048 -0.0685 -0.7746  1.1282
  865MOL0     H16741  12.344   8.195   6.924 -2.4608  0.3409  0.5458
  865MOL0     H16742  12.417   8.232   7.076 -0.8104  0.2545  1.0546
  865MOL0     H16743  12.405   7.971   7.137  3.1229 -1.8210 -0.0856
  865MOL0     H16744  12.336   7.955   6.974  0.7346  0.3910 -1.2358
  865MOL0     H16745  12.545   8.014   6.878 -1.8849  0.5675  0.4151
  865MOL0     H16746  12.576   7.882   7.004  1.1694 -0.5319  0.3360
  865MOL0     H16747  12.664   8.049   7.169  0.3483 -4.6470 -1.0009
  865MOL0     H16748  12.638   8.175   7.043 -1.8500 -0.7078 -0.6549
  865MOL0     H16749  12.811   7.923   7.023 -0.6219 -0.1655  2.1718
  865MOL0     H16750  12.785   8.053   6.897  1.9671  0.5062 -0.0217
  865MOL0     H16751  12.925   8.089   7.166  0.4657 -1.2948 -0.0012
  865MOL0     H16752  12.876   8.218   7.063  1.9286  0.9516 -1.3991
  865MOL0     H16753  13.077   7.999   7.003 -0.7237  0.2475  0.7380
  865MOL0     H16754  13.028   8.111   6.874 -2.9789  2.9698 -0.1746
  865MOL0     H16755  12.036   8.390   7.276  4.0006  0.0526 -3.1363
  865MOL0     H16756  11.785   8.425   7.293 -0.1296  0.3580 -0.3520
  865MOL0     H16757  11.365   8.342   7.125  0.2035  0.5480 -1.9573
  865MOL0     H16758  11.119   8.375   7.149  0.7728 -0.5707 -1.2800
  865MOL0     H16759   9.423   8.796   7.515 -1.7000  0.7077 -0.5417
  865MOL0     H16760   9.230   8.907   7.582 -1.3400  1.1646  0.8212
  865MOL0     H16761   8.894   8.847   7.962  1.3594  1.1761  1.3016
  865MOL0     H16762   8.739   8.963   8.120 -1.7064  0.7052  0.7086
  865MOL0     H16763   8.475   9.243   7.922  0.3710 -1.5490 -0.4024
  865MOL0     H16764   8.551   9.373   8.018 -2.6973  0.8558  0.9902
  865MOL0     H16765   8.362   9.177   8.095  1.0530  0.4760  0.1628
  865MOL0     H16766   8.301   9.351   8.052 -0.7939 -0.1554  0.7532
  865MOL0     H16767   8.435   9.270   8.318 -0.1912 -0.1694 -0.4035
  865MOL0     H16768   8.272   9.321   8.284  0.3847 -0.9915 -0.1007
  865MOL0     H16769   8.409   9.496   8.368 -1.7899 -1.9230  0.3145
  865MOL0     H16770   8.495   9.501   8.212  0.4624 -1.7353 -0.2746
  865MOL0     H16771   8.096   9.678   8.165  0.6056 -1.1859 -1.5737
  865MOL0     H16772   8.694   9.272   7.839  3.1253  1.4636  0.8836
  865MOL0     H16773   8.940   9.211   7.605 -0.0264  0.8763 -0.7110
  865MOL0     H16774   8.804   9.107   7.561  3.9526  1.0799 -1.9927
  865MOL0     H16775   8.782   9.271   7.631 -1.1182 -0.8463 -0.7565
  866MOL0     O16776   7.281  10.499   5.134  0.4629 -0.2286  0.6367
  866MOL0     C16777   7.320  10.544   5.237 -1.1473 -0.2976  0.1168
  866MOL0     O16778   7.450  10.569   5.263  0.4131  0.5347  0.2088
  866MOL0     C16779   7.548  10.532   5.173 -0.2850 -0.1006  0.1510
  866MOL0     C16780   7.575  10.395   5.148  0.4957 -0.5074  0.3421
  866MOL0     C16781   7.659  10.369   5.041 -0.2712 -0.1652  0.5918
  866MOL0     C16782   7.750  10.468   4.986 -0.3557  0.7785  0.1336
  866MOL0     O16783   7.839  10.419   4.897  0.3094 -0.2845  0.4338
  866MOL0     C16784   7.952  10.499   4.864 -0.8201  1.0669  0.1370
  866MOL0     C16785   8.039  10.413   4.779 -0.5000 -0.3941  0.9825
  866MOL0     C16786   8.156  10.496   4.717 -0.7101 -0.1224 -0.3414
  866MOL0     C16787   8.274  10.522   4.810  0.8352 -0.5243 -0.7257
  866MOL0     C16788   8.399  10.570   4.739  0.1988  0.1071  0.1478
  866MOL0     C16789   8.460  10.458   4.652 -0.4804 -0.4924  0.0137
  866MOL0     C16790   8.615  10.479   4.635  0.5474 -0.3676  0.2774
  866MOL0     C16791   8.695  10.457   4.764  0.5232  0.9144  1.0375
  866MOL0     N16792   8.839  10.477   4.751  0.1501  0.3657  0.3709
  866MOL0     C16793   8.904  10.568   4.658 -0.6213  0.6737  1.0164
  866MOL0     C16794   9.038  10.541   4.677  0.4015 -0.4645 -0.2409
  866MOL0     C16795   9.153  10.606   4.618  1.0592 -0.4646  0.5277
  866MOL0     C16796   9.197  10.733   4.685  0.3266 -0.4700 -0.5972
  866MOL0     C16797   9.286  10.825   4.594 -0.8464  0.2427 -0.1419
  866MOL0     C16798   9.438  10.795   4.605  0.0120 -0.0705  0.8309
  866MOL0     O16799   9.511  10.883   4.519 -0.0505 -0.4686 -0.1996
  866MOL0     C16800   9.642  10.896   4.530 -0.3885 -0.7382 -0.4254
  866MOL0     C16801   9.716  10.854   4.644 -0.1199  0.2920 -0.3824
  866MOL0     C16802   9.850  10.886   4.661 -0.4940  1.6396  0.8508
  866MOL0     C16803   9.918  10.956   4.546  0.9417 -0.5368 -0.8323
  866MOL0     C16804  10.068  10.969   4.541 -0.0928  0.1336  0.2166
  866MOL0     O16805  10.140  10.926   4.653 -0.3985 -0.3664  0.6233
  866MOL0     C16806  10.275  10.945   4.661  0.0270 -0.2903 -0.2674
  866MOL0     C16807  10.353  10.843   4.722 -0.4569  1.0610 -0.2894
  866MOL0     C16808  10.494  10.853   4.731  0.4322 -0.6485  0.1642
  866MOL0     C16809  10.562  10.967   4.693  0.5235 -1.2597  0.5848
  866MOL0     O16810  10.697  10.964   4.700  0.6998 -0.0673  0.1035
  866MOL0     C16811  10.764  10.979   4.574  0.3897 -0.3447 -0.7068
  866MOL0     C16812  10.916  10.959   4.607 -0.1391 -0.4681  0.3876
  866MOL0     C16813  10.968  11.080   4.688 -0.3325  0.7483 -0.3998
  866MOL0     C16814  11.035  11.196   4.599 -1.1875 -0.6920 -0.0509
  866MOL0     C16815  11.107  11.313   4.683 -0.8321 -0.1983  1.0718
  866MOL0     C16816  11.253  11.268   4.714 -0.0508  0.8101  0.2939
  866MOL0     C16817  11.348  11.374   4.781  0.7937 -0.2187  0.0419
  866MOL0     C16818  11.439  11.310   4.887 -0.4523 -0.0030  0.0075
  866MOL0    Cl16819  11.513  11.164   4.825 -0.1320  0.1896  0.1279
  866MOL0     C16820  10.485  11.059   4.623  0.0997 -0.7877 -0.2189
  866MOL0     C16821  10.345  11.056   4.608 -0.0509 -0.5597  0.4808
  866MOL0     O16822  10.121  11.005   4.432  0.1486 -0.0705  0.2469
  866MOL0     C16823   9.841  10.999   4.438 -0.2356 -0.1740 -0.2672
  866MOL0     C16824   9.700  10.973   4.425 -0.9980  0.0036 -0.3618
  866MOL0     N16825   9.050  10.444   4.772  0.1439 -0.2478 -0.7046
  866MOL0     N16826   8.935  10.398   4.808  0.0042  0.2060 -0.1662
  866MOL0     C16827   7.737  10.604   5.041 -0.0658  0.3950  1.0693
  866MOL0     C16828   7.634  10.640   5.131 -0.8921  0.4030  0.4430
  866MOL0     C16829   7.212  10.553   5.341 -0.8131 -0.2465  0.1647
  866MOL0     C16830   7.089  10.484   5.313  0.1146 -0.0814 -0.9447
  866MOL0     C16831   6.981  10.487   5.411 -0.3145 -0.0338 -0.2658
  866MOL0     C16832   7.001  10.537   5.536  0.8312  1.0204 -0.9084
  866MOL0     O16833   6.909  10.518   5.639  0.4927  0.0544 -0.6666
  866MOL0     C16834   6.859  10.637   5.710  0.1062  0.0029  0.4191
  866MOL0     C16835   6.710  10.621   5.741  0.9500 -0.2993  0.6051
  866MOL0     C16836   6.652  10.718   5.847 -0.3953 -0.4248  0.0688
  866MOL0     C16837   6.693  10.868   5.808 -0.4797  0.5120  0.3219
  866MOL0     C16838   6.613  10.953   5.896 -0.7668 -0.7277 -0.9979
  866MOL0     C16839   6.564  11.025   5.980 -0.0572  0.1374 -0.9925
  866MOL0     C16840   7.113  10.602   5.556  0.1371 -0.6141 -0.5204
  866MOL0     C16841   7.218  10.616   5.471 -0.6002 -0.2403 -0.7721
  866MOL0     C16842   7.328  10.700   5.527 -0.5344 -0.6994  0.7751
  866MOL0     H16843   7.533  10.310   5.200  2.8479 -0.7408  2.0579
  866MOL0     H16844   7.697  10.272   5.011 -0.2219 -0.2059  0.7891
  866MOL0     H16845   7.927  10.585   4.801 -0.2016  0.4235 -1.0141
  866MOL0     H16846   8.000  10.524   4.959  0.3474  0.0251 -0.1633
  866MOL0     H16847   7.985  10.362   4.699  0.9161 -1.3466  0.6023
  866MOL0     H16848   8.088  10.338   4.841  1.3806 -0.0425 -0.0233
  866MOL0     H16849   8.119  10.594   4.686 -1.3424 -0.4907 -0.7598
  866MOL0     H16850   8.195  10.441   4.631  1.7698 -0.0908  0.6565
  866MOL0     H16851   8.265  10.583   4.901  1.5704 -1.1886 -0.1992
  866MOL0     H16852   8.295  10.422   4.848  0.9777 -0.2046  0.0698
  866MOL0     H16853   8.377  10.663   4.687 -2.5891  0.3971  1.6375
  866MOL0     H16854   8.465  10.594   4.823 -0.8955 -3.1270  2.1263
  866MOL0     H16855   8.440  10.359   4.695  1.1791 -1.3237 -1.0264
  866MOL0     H16856   8.418  10.446   4.552  2.9526  0.1915 -1.6380
  866MOL0     H16857   8.642  10.579   4.600  1.2848 -0.2923  1.0414
  866MOL0     H16858   8.646  10.403   4.562 -0.1241 -1.1809  0.8181
  866MOL0     H16859   8.655  10.539   4.824 -0.1429  0.7288  0.8524
  866MOL0     H16860   8.664  10.361   4.805 -1.5701  1.8007  1.6702
  866MOL0     H16861   8.849  10.639   4.597 -1.8850 -0.2467  1.0373
  866MOL0     H16862   9.232  10.530   4.618  1.0132 -0.5745 -1.7972
  866MOL0     H16863   9.128  10.612   4.512 -2.2415  1.9163  1.2878
  866MOL0     H16864   9.111  10.800   4.697 -1.1871 -2.5412  1.1260
  866MOL0     H16865   9.250  10.724   4.780  2.1425  0.4703 -1.4746
  866MOL0     H16866   9.265  10.928   4.623  0.8363  0.3293  0.9101
  866MOL0     H16867   9.271  10.804   4.488  2.4726 -1.0671 -0.4776
  866MOL0     H16868   9.456  10.692   4.572  1.2328  1.1510 -2.8448
  866MOL0     H16869   9.461  10.805   4.711 -1.1578 -2.1922  1.3419
  866MOL0     H16870   9.667  10.795   4.720 -1.2522 -0.0384 -1.3352
  866MOL0     H16871   9.895  10.832   4.744 -0.6413  0.3702  0.1211
  866MOL0     H16872  10.297  10.758   4.761  3.4039 -0.8364  1.7419
  866MOL0     H16873  10.564  10.780   4.768  0.1399 -1.3840 -0.6860
  866MOL0     H16874  10.722  10.914   4.497  0.3531  2.2653 -3.0025
  866MOL0     H16875  10.755  11.083   4.544  0.8540  0.0521  0.4645
  866MOL0     H16876  10.927  10.868   4.667  4.1402 -1.2329 -1.2366
  866MOL0     H16877  10.966  10.950   4.511 -1.6678 -0.4960 -0.4352
  866MOL0     H16878  10.887  11.117   4.751 -0.9424 -0.2868 -0.5506
  866MOL0     H16879  11.036  11.041   4.765 -0.4050  0.2130 -0.5980
  866MOL0     H16880  10.957  11.248   4.543  0.3229 -1.1991 -2.8016
  866MOL0     H16881  11.098  11.151   4.522  0.9690  2.4355 -0.3323
  866MOL0     H16882  11.055  11.350   4.771 -0.7978 -2.0100  1.8986
  866MOL0     H16883  11.120  11.389   4.605  1.6445 -1.1442  0.4652
  866MOL0     H16884  11.242  11.175   4.771  0.4870  0.1562 -0.6242
  866MOL0     H16885  11.299  11.228   4.623  2.1124 -1.7237  2.3249
  866MOL0     H16886  11.292  11.456   4.826  1.8536  1.0162 -0.8121
  866MOL0     H16887  11.410  11.409   4.698 -1.4533 -2.3641 -2.7387
  866MOL0     H16888  11.499  11.387   4.937 -0.3629  0.9801 -1.5538
  866MOL0     H16889  11.362  11.272   4.955 -0.2638 -0.2155  0.1037
  866MOL0     H16890  10.530  11.154   4.596  0.2223 -0.7155  0.2274
  866MOL0     H16891  10.277  11.130   4.566 -1.7849 -0.8596  2.5958
  866MOL0     H16892   9.884  11.021   4.341  0.7951 -1.3760 -0.1093
  866MOL0     H16893   9.646  11.007   4.337  0.9243  2.9814 -0.5405
  866MOL0     H16894   7.803  10.684   5.009 -0.9491  1.0121  0.7413
  866MOL0     H16895   7.617  10.743   5.160  0.8915  0.5491  1.0953
  866MOL0     H16896   7.073  10.415   5.230  4.7664  0.4589 -2.6333
  866MOL0     H16897   6.904  10.417   5.381 -0.6270  0.1135  0.1875
  866MOL0     H16898   6.885  10.726   5.652  0.7143  0.4581  1.3597
  866MOL0     H16899   6.915  10.658   5.802  0.5664  2.1006 -0.2771
  866MOL0     H16900   6.706  10.523   5.788  2.2848 -1.1410 -0.9705
  866MOL0     H16901   6.651  10.622   5.649  0.7992  0.5274  0.7022
  866MOL0     H16902   6.684  10.695   5.949 -1.4516  1.1056  0.7698
  866MOL0     H16903   6.545  10.697   5.847 -0.3786 -0.9656 -2.9792
  866MOL0     H16904   6.799  10.891   5.821 -0.5556  2.1309 -1.5159
  866MOL0     H16905   6.663  10.891   5.706  2.1235  2.9289 -0.0194
  866MOL0     H16906   6.521  11.091   6.051  2.9273 -0.9582  2.1290
  866MOL0     H16907   7.123  10.635   5.660 -1.1602  1.1430 -0.9086
  866MOL0     H16908   7.377  10.749   5.442 -1.2470 -0.8107  0.2934
  866MOL0     H16909   7.301  10.784   5.591  1.7389  1.7874 -1.2984
  866MOL0     H16910   7.404  10.644   5.582 -1.8238 -0.7540  2.5819
  867MOL0     O16911   7.134   2.903   3.806 -0.3830  0.3185 -0.2479
  867MOL0     C16912   7.099   2.783   3.827  0.4580 -0.4960 -0.6103
  867MOL0     O16913   7.155   2.686   3.905  0.0372  0.4410  0.1245
  867MOL0     C16914   7.268   2.725   3.972  0.6213 -0.3466 -0.0897
  867MOL0     C16915   7.385   2.752   3.901 -0.0361 -0.5071  0.2203
  867MOL0     C16916   7.499   2.782   3.980 -0.6639 -0.3389  0.3034
  867MOL0     C16917   7.496   2.797   4.118  0.1102 -0.1724  0.5682
  867MOL0     O16918   7.614   2.833   4.187 -0.0290 -0.3542 -0.5148
  867MOL0     C16919   7.697   2.946   4.139 -0.2645  0.2591 -0.2585
  867MOL0     C16920   7.800   2.974   4.250 -0.0397 -0.4781 -0.2841
  867MOL0     C16921   7.888   3.094   4.214  0.5423  0.0188  0.6396
  867MOL0     C16922   7.995   3.114   4.304 -0.3257 -0.0970  0.4409
  867MOL0     C16923   8.068   3.248   4.276  0.1218 -0.5772  0.1358
  867MOL0     C16924   8.151   3.309   4.393 -0.3270  0.6683  0.7285
  867MOL0     C16925   8.244   3.421   4.346  0.7188  0.0744  0.3327
  867MOL0     C16926   8.295   3.505   4.466 -0.0819 -0.0078 -0.3440
  867MOL0     N16927   8.425   3.569   4.443 -0.4952 -0.4560  0.2168
  867MOL0     C16928   8.542   3.512   4.389  0.3874 -0.3845 -0.5944
  867MOL0     C16929   8.641   3.609   4.414  0.5664 -0.1085 -0.1169
  867MOL0     C16930   8.792   3.595   4.391  0.3833  0.9450  1.0392
  867MOL0     C16931   8.867   3.637   4.519  0.9567 -0.3876 -0.3585
  867MOL0     C16932   9.018   3.618   4.504  0.6984 -0.5980  0.0714
  867MOL0     C16933   9.066   3.496   4.580 -0.0313  0.6851  0.6982
  867MOL0     O16934   9.048   3.375   4.504  0.5610  0.3509 -0.9062
  867MOL0     C16935   8.930   3.309   4.527 -0.4162  1.6949 -0.5855
  867MOL0     C16936   8.852   3.298   4.638  0.2507  0.5714 -0.7691
  867MOL0     C16937   8.729   3.231   4.635 -0.4821 -0.5428 -0.8876
  867MOL0     C16938   8.684   3.171   4.512 -0.4976 -0.9238 -0.5454
  867MOL0     C16939   8.563   3.085   4.511  0.0362 -0.4231  0.4094
  867MOL0     O16940   8.458   3.116   4.589 -0.0808  0.3406  0.5920
  867MOL0     C16941   8.343   3.057   4.586  0.3761 -0.1349 -0.5311
  867MOL0     C16942   8.256   3.109   4.681  0.6164  0.1523  0.4702
  867MOL0     C16943   8.121   3.072   4.688 -0.9353 -0.0725  0.0180
  867MOL0     C16944   8.075   2.967   4.604 -0.0621 -0.1196 -0.1006
  867MOL0     O16945   7.945   2.912   4.614  0.6616 -0.4184 -0.0951
  867MOL0     C16946   7.873   2.958   4.723  0.0620  0.1418 -0.1595
  867MOL0     C16947   7.736   2.887   4.724  0.1832  0.0204 -0.0412
  867MOL0     C16948   7.653   2.938   4.604 -0.1669  0.3120  0.0578
  867MOL0     C16949   7.500   2.924   4.640 -0.1841 -0.2507 -0.4428
  867MOL0     C16950   7.401   2.961   4.528  0.6202  0.2979  0.0673
  867MOL0     C16951   7.259   2.913   4.567 -1.0109 -0.2944  0.1229
  867MOL0     C16952   7.196   3.011   4.665 -0.1497  0.0623 -0.0487
  867MOL0     C16953   7.041   2.997   4.686 -0.2877  0.5129 -0.3759
  867MOL0    Cl16954   6.955   3.046   4.543  0.5182  0.2506  0.1623
  867MOL0     C16955   8.162   2.913   4.508 -0.5724  0.5756 -0.1346
  867MOL0     C16956   8.293   2.956   4.493 -0.9843  0.1335  0.1600
  867MOL0     O16957   8.561   3.002   4.423 -0.2666  0.0177 -0.2234
  867MOL0     C16958   8.761   3.182   4.396  0.5384  0.4785 -0.2059
  867MOL0     C16959   8.884   3.252   4.403 -0.6360 -0.2462 -0.7899
  867MOL0     N16960   8.579   3.722   4.460  0.0785  0.5839 -0.6347
  867MOL0     N16961   8.449   3.703   4.467  0.0764 -0.3303 -0.2045
  867MOL0     C16962   7.380   2.753   4.183  0.4421 -0.1146 -0.0925
  867MOL0     C16963   7.267   2.712   4.111 -0.5572 -0.6180  0.1761
  867MOL0     C16964   6.966   2.744   3.760 -0.1971 -0.3787  0.3427
  867MOL0     C16965   6.935   2.796   3.629  0.3812 -0.1345  0.1571
  867MOL0     C16966   6.821   2.752   3.556 -0.2202 -0.1290 -0.0247
  867MOL0     C16967   6.732   2.665   3.616 -0.2630 -0.1234 -0.3192
  867MOL0     O16968   6.622   2.633   3.544 -0.0926  0.0456 -0.0965
  867MOL0     C16969   6.521   2.568   3.605  0.3171  0.1328  0.7303
  867MOL0     C16970   6.411   2.563   3.503  0.4802  0.2995  0.3568
  867MOL0     C16971   6.322   2.443   3.525 -0.0855  0.0223 -0.8341
  867MOL0     C16972   6.266   2.384   3.405  0.9847 -0.8420  0.1242
  867MOL0     C16973   6.147   2.464   3.360  0.0717 -0.0893  1.0276
  867MOL0     C16974   6.059   2.542   3.331 -0.6177 -0.0146 -0.5050
  867MOL0     C16975   6.765   2.618   3.742  0.4628 -0.4249  0.1002
  867MOL0     C16976   6.873   2.655   3.819  0.2148  0.2689  0.0946
  867MOL0     C16977   6.886   2.613   3.962 -0.9913  0.3504 -0.2179
  867MOL0     H16978   7.363   2.742   3.795 -2.8409 -3.5515  0.9240
  867MOL0     H16979   7.599   2.785   3.937  0.2244 -0.4146  2.2798
  867MOL0     H16980   7.750   2.923   4.046 -1.8909  0.1039 -1.1830
  867MOL0     H16981   7.636   3.034   4.116 -0.3004  0.3166  0.0464
  867MOL0     H16982   7.855   2.880   4.266 -1.2686 -1.2299 -0.3698
  867MOL0     H16983   7.745   3.002   4.340  2.3710  0.0922  1.1015
  867MOL0     H16984   7.816   3.177   4.218  0.5816  0.1468 -0.6522
  867MOL0     H16985   7.916   3.084   4.108  0.8264  2.3636  0.4518
  867MOL0     H16986   7.952   3.112   4.405 -1.2786 -0.8907  0.0367
  867MOL0     H16987   8.078   3.044   4.292 -1.7407 -1.5723 -1.1159
  867MOL0     H16988   8.123   3.234   4.182 -1.1479  3.0851 -1.3471
  867MOL0     H16989   7.994   3.327   4.264  1.9941  2.0289  3.7945
  867MOL0     H16990   8.075   3.333   4.468 -1.1824 -2.4402  0.9713
  867MOL0     H16991   8.211   3.232   4.442 -0.3217  1.4110  1.9400
  867MOL0     H16992   8.177   3.482   4.285 -2.1351 -0.9313  2.2652
  867MOL0     H16993   8.327   3.377   4.290  0.3166 -1.1142  0.6562
  867MOL0     H16994   8.221   3.579   4.498  1.3091  0.3241  2.3926
  867MOL0     H16995   8.314   3.432   4.545 -1.9848 -1.9871 -1.6241
  867MOL0     H16996   8.554   3.408   4.361  1.0973 -0.0905 -1.4474
  867MOL0     H16997   8.813   3.493   4.357  2.3775  2.3621 -2.5382
  867MOL0     H16998   8.813   3.662   4.307 -1.6968  1.9902  1.2961
  867MOL0     H16999   8.844   3.743   4.530  0.6228 -0.5116  0.1749
  867MOL0     H17000   8.827   3.583   4.605  0.3655 -0.2996 -0.5720
  867MOL0     H17001   9.081   3.697   4.545  1.3918 -0.3871 -1.3710
  867MOL0     H17002   9.041   3.609   4.398 -0.5766  0.2327 -0.3016
  867MOL0     H17003   9.028   3.491   4.683 -0.5224  3.3960  0.7163
  867MOL0     H17004   9.175   3.499   4.582  0.0312  0.6633 -1.3074
  867MOL0     H17005   8.881   3.349   4.729  0.2922 -0.5064 -0.1586
  867MOL0     H17006   8.662   3.227   4.721  0.6222  0.6915  0.0730
  867MOL0     H17007   8.294   3.182   4.751 -0.6018  0.8904  0.3926
  867MOL0     H17008   8.058   3.116   4.764 -1.1518  1.7395 -1.1374
  867MOL0     H17009   7.925   2.940   4.817  2.1208  0.0018 -1.2614
  867MOL0     H17010   7.842   3.063   4.722 -1.3822 -0.2559 -1.5899
  867MOL0     H17011   7.758   2.780   4.720  0.8292  0.1813 -2.9766
  867MOL0     H17012   7.683   2.920   4.814 -1.2302 -1.5122 -0.2696
  867MOL0     H17013   7.668   3.042   4.573  0.5529  0.4789  0.9288
  867MOL0     H17014   7.682   2.871   4.522  0.2995  1.0608 -0.3992
  867MOL0     H17015   7.481   2.969   4.738  2.4188 -1.0454  0.5024
  867MOL0     H17016   7.490   2.818   4.663  2.9048 -0.6117 -0.2930
  867MOL0     H17017   7.439   2.910   4.439 -1.4260 -0.0200 -0.6615
  867MOL0     H17018   7.398   3.069   4.508 -3.7062 -0.0097 -1.9893
  867MOL0     H17019   7.199   2.908   4.476 -1.9536  1.3474  0.6230
  867MOL0     H17020   7.277   2.814   4.611  3.5025  0.8815  1.4413
  867MOL0     H17021   7.202   3.114   4.628  0.0036  0.8936  2.1379
  867MOL0     H17022   7.255   3.003   4.757  1.6078  0.9425 -1.0277
  867MOL0     H17023   7.017   2.892   4.702  0.1739  0.5311  0.5213
  867MOL0     H17024   7.006   3.068   4.762 -0.6071 -1.3743  1.3144
  867MOL0     H17025   8.139   2.837   4.434  1.8487  0.2406 -0.6198
  867MOL0     H17026   8.352   2.906   4.418 -0.3388 -1.8364  1.8800
  867MOL0     H17027   8.737   3.131   4.304 -1.5530 -0.9824  1.0666
  867MOL0     H17028   8.946   3.280   4.318  1.1694  3.7068  1.5371
  867MOL0     H17029   7.385   2.763   4.291 -1.0426  0.2866 -0.0499
  867MOL0     H17030   7.178   2.674   4.160 -1.7193 -0.6152 -1.8268
  867MOL0     H17031   6.996   2.878   3.591 -2.5110  3.4924  2.7148
  867MOL0     H17032   6.798   2.793   3.458 -0.7448 -2.4348 -0.9328
  867MOL0     H17033   6.468   2.611   3.691 -1.5984 -0.9378  0.1426
  867MOL0     H17034   6.557   2.469   3.636  0.6079 -0.8029 -2.3088
  867MOL0     H17035   6.445   2.579   3.400  1.3106  2.3648  0.8876
  867MOL0     H17036   6.351   2.650   3.531 -0.4038 -0.6661  1.5565
  867MOL0     H17037   6.242   2.468   3.595 -0.0785  1.3517 -1.2772
  867MOL0     H17038   6.388   2.369   3.572 -0.0591  2.0897  2.7392
  867MOL0     H17039   6.334   2.378   3.319 -0.6979 -0.6776 -1.2817
  867MOL0     H17040   6.234   2.282   3.430  2.0108 -0.9021  1.3319
  867MOL0     H17041   5.981   2.613   3.314 -0.7935 -0.1687 -0.3555
  867MOL0     H17042   6.692   2.554   3.790 -1.8148  0.7816 -1.5741
  867MOL0     H17043   6.797   2.565   4.003 -0.5619  0.3596  0.7563
  867MOL0     H17044   6.974   2.547   3.969  1.9115  3.9683  1.0056
  867MOL0     H17045   6.910   2.696   4.029 -0.0363  0.7663 -1.0445
  868MOL0     O17046   5.449   5.954   2.048 -0.0956  0.1700 -0.1159
  868MOL0     C17047   5.461   6.035   1.951 -0.1551 -0.2576 -1.1960
  868MOL0     O17048   5.554   6.135   1.934  0.1776  0.0361  0.1980
  868MOL0     C17049   5.647   6.167   2.033 -0.3176 -0.1758 -0.0996
  868MOL0     C17050   5.669   6.301   2.060 -1.0294 -0.2748  0.4986
  868MOL0     C17051   5.779   6.347   2.137 -0.3007 -0.2367  0.3454
  868MOL0     C17052   5.860   6.259   2.203 -0.4973 -0.5953  0.6616
  868MOL0     O17053   5.951   6.318   2.282 -1.0033  0.7610 -0.0181
  868MOL0     C17054   6.057   6.229   2.334  0.7486 -0.6797 -0.0524
  868MOL0     C17055   6.169   6.318   2.381 -0.3409 -0.2521  0.7721
  868MOL0     C17056   6.227   6.426   2.274 -0.1268  0.4793 -0.5860
  868MOL0     C17057   6.341   6.513   2.333 -0.2205  0.3695 -0.1149
  868MOL0     C17058   6.383   6.633   2.242  0.0779 -0.2122  0.3535
  868MOL0     C17059   6.437   6.749   2.321  0.6061  0.2749  0.6754
  868MOL0     C17060   6.480   6.876   2.241 -0.6063 -0.0593  0.3060
  868MOL0     C17061   6.579   6.954   2.326 -0.7565 -0.1011 -0.2299
  868MOL0     N17062   6.720   6.929   2.309 -0.3630 -0.2516  0.2767
  868MOL0     C17063   6.777   6.823   2.237 -0.1621 -0.4735  0.4568
  868MOL0     C17064   6.917   6.830   2.257  0.3936 -0.6683  0.0056
  868MOL0     C17065   7.018   6.732   2.209 -0.4417 -0.0335  0.5764
  868MOL0     C17066   7.155   6.720   2.271  0.0687 -0.9401 -0.0882
  868MOL0     C17067   7.262   6.630   2.213 -0.0088  0.0265  0.1628
  868MOL0     C17068   7.404   6.642   2.269  0.6466  0.9910 -0.7423
  868MOL0     O17069   7.462   6.512   2.257  0.2245  1.1802  0.0496
  868MOL0     C17070   7.596   6.492   2.252  0.4895  0.6587  1.0555
  868MOL0     C17071   7.695   6.584   2.210  0.0136 -0.2959 -0.2338
  868MOL0     C17072   7.835   6.549   2.202  0.6948 -0.8121  0.7064
  868MOL0     C17073   7.882   6.430   2.240  0.5613  0.3332  0.5465
  868MOL0     C17074   8.028   6.401   2.230  0.5002 -0.3879 -1.2572
  868MOL0     O17075   8.091   6.487   2.141 -1.0417 -0.1911  0.3086
  868MOL0     C17076   8.222   6.456   2.108  1.3993  0.5257 -0.1784
  868MOL0     C17077   8.247   6.340   2.042 -0.6756  0.2330 -0.0139
  868MOL0     C17078   8.378   6.299   2.013  0.2842  0.3200 -0.9378
  868MOL0     C17079   8.486   6.384   2.036 -0.2225  0.2551  0.0840
  868MOL0     O17080   8.611   6.342   1.997 -0.2817  0.0236  0.1332
  868MOL0     C17081   8.686   6.424   1.907  0.1849 -1.0767  0.0935
  868MOL0     C17082   8.659   6.396   1.762  0.0415  0.7791 -0.2612
  868MOL0     C17083   8.512   6.437   1.720 -0.2999  0.3083 -0.3332
  868MOL0     C17084   8.491   6.453   1.569  0.3690  0.4639  0.0911
  868MOL0     C17085   8.363   6.525   1.542  0.0276  0.0115  0.0273
  868MOL0     C17086   8.243   6.462   1.607  0.2651 -1.1126 -0.1488
  868MOL0     C17087   8.114   6.542   1.562 -0.2615 -0.0019 -0.3471
  868MOL0     C17088   8.003   6.492   1.667  0.2660 -0.4340  0.0789
  868MOL0    Cl17089   7.844   6.531   1.607  0.3510 -0.2087 -0.2273
  868MOL0     C17090   8.455   6.517   2.090  0.0936  0.1476 -0.6980
  868MOL0     C17091   8.325   6.548   2.125  0.4206 -0.1597 -0.8166
  868MOL0     O17092   8.078   6.295   2.272  0.2755 -0.0939 -0.5472
  868MOL0     C17093   7.790   6.335   2.289  0.9705  0.0632 -0.0880
  868MOL0     C17094   7.651   6.372   2.295 -0.7316  0.7472 -0.3571
  868MOL0     N17095   6.940   6.937   2.343  0.2118  0.6544 -0.1185
  868MOL0     N17096   6.828   6.991   2.371 -0.0027  0.1018 -0.3229
  868MOL0     C17097   5.841   6.123   2.184  0.2353  0.4612 -0.0511
  868MOL0     C17098   5.742   6.078   2.088  0.9708 -0.0072  0.4783
  868MOL0     C17099   5.370   6.007   1.840  0.2809  0.0951  0.6185
  868MOL0     C17100   5.420   6.016   1.705  0.2821  0.0277  0.4972
  868MOL0     C17101   5.339   5.991   1.597  0.4970  0.0478  0.6555
  868MOL0     C17102   5.205   5.942   1.609 -0.8653 -0.8423 -0.4717
  868MOL0     O17103   5.123   5.904   1.510 -0.4776  0.0817  0.1078
  868MOL0     C17104   5.187   5.837   1.398 -0.0409  0.0639 -0.5348
  868MOL0     C17105   5.096   5.737   1.343  0.2875  0.1292 -0.2942
  868MOL0     C17106   4.952   5.796   1.310 -1.2895  0.8714 -0.1371
  868MOL0     C17107   4.859   5.681   1.268  0.5462  0.5486 -0.5982
  868MOL0     C17108   4.746   5.736   1.182 -0.1901  0.0360  1.0446
  868MOL0     C17109   4.645   5.783   1.120  0.4193  0.7316  0.5717
  868MOL0     C17110   5.155   5.931   1.733 -0.1073  0.1436  0.1588
  868MOL0     C17111   5.230   5.963   1.846 -0.3004 -0.3777 -0.0605
  868MOL0     C17112   5.168   5.929   1.983 -0.6529 -0.0317 -0.3561
  868MOL0     H17113   5.602   6.370   2.011  1.3544  4.5484  3.3438
  868MOL0     H17114   5.792   6.454   2.142 -1.1053  0.0383 -2.1525
  868MOL0     H17115   6.014   6.163   2.410  1.7538 -1.3093 -0.0122
  868MOL0     H17116   6.092   6.179   2.243 -1.9163 -3.5633  0.3183
  868MOL0     H17117   6.255   6.252   2.391  1.1716  1.0514 -2.1659
  868MOL0     H17118   6.146   6.382   2.467  2.0908  3.6964 -1.2031
  868MOL0     H17119   6.140   6.482   2.239  0.1145 -0.0721 -2.1460
  868MOL0     H17120   6.273   6.370   2.192  2.1198  0.4023  0.6512
  868MOL0     H17121   6.312   6.558   2.428 -0.0154  0.6713 -0.1933
  868MOL0     H17122   6.425   6.450   2.363 -0.0346  2.4789  4.4948
  868MOL0     H17123   6.465   6.604   2.175  0.4780  1.9585 -0.1887
  868MOL0     H17124   6.297   6.671   2.186  1.0005  0.8801 -0.3696
  868MOL0     H17125   6.363   6.790   2.391 -1.1681  0.0358 -0.9741
  868MOL0     H17126   6.517   6.696   2.373 -0.0284 -0.4586  0.9257
  868MOL0     H17127   6.397   6.945   2.225 -1.3982 -1.3350 -1.3862
  868MOL0     H17128   6.522   6.856   2.142 -1.1152  3.7479 -0.8593
  868MOL0     H17129   6.559   7.058   2.300  0.7766 -0.2389 -2.2565
  868MOL0     H17130   6.559   6.947   2.433  2.6665 -2.3837  0.4570
  868MOL0     H17131   6.732   6.741   2.183  1.6412 -0.8709 -0.5046
  868MOL0     H17132   6.979   6.631   2.197 -1.7797  0.5851 -0.4495
  868MOL0     H17133   7.045   6.752   2.105 -0.1030 -2.1042  0.2305
  868MOL0     H17134   7.207   6.814   2.290 -1.2616 -0.8586  4.1238
  868MOL0     H17135   7.130   6.689   2.372  2.4204  0.0024  0.8498
  868MOL0     H17136   7.266   6.661   2.108  1.4615 -2.4631 -0.6001
  868MOL0     H17137   7.242   6.522   2.209  1.2383 -0.2195  0.2680
  868MOL0     H17138   7.403   6.666   2.375  2.5011 -3.0032  0.3608
  868MOL0     H17139   7.452   6.728   2.221  0.7180  1.1841 -0.3301
  868MOL0     H17140   7.670   6.680   2.166  1.3359  0.6564  1.0382
  868MOL0     H17141   7.902   6.623   2.159 -0.6155 -1.7247 -3.3048
  868MOL0     H17142   8.169   6.268   2.022 -0.4521 -0.1383  0.4271
  868MOL0     H17143   8.400   6.207   1.961  0.7518  0.1565 -0.4626
  868MOL0     H17144   8.672   6.530   1.927  1.2640 -1.1867  1.6289
  868MOL0     H17145   8.791   6.399   1.928 -0.0043 -2.2487 -0.2722
  868MOL0     H17146   8.724   6.460   1.703 -0.1088  0.4910 -0.7486
  868MOL0     H17147   8.676   6.293   1.729  0.3137  1.0729 -1.0651
  868MOL0     H17148   8.443   6.356   1.748  0.4665 -1.1855 -2.5134
  868MOL0     H17149   8.478   6.525   1.776 -2.6854  0.0729 -1.2839
  868MOL0     H17150   8.484   6.351   1.528  2.1613  0.8950 -1.4399
  868MOL0     H17151   8.582   6.497   1.527  0.7636 -0.7962 -0.4269
  868MOL0     H17152   8.342   6.524   1.435  1.4610  2.9974 -0.3940
  868MOL0     H17153   8.371   6.626   1.583 -3.1837  1.6262 -2.8488
  868MOL0     H17154   8.238   6.360   1.568  0.4685 -0.7088 -1.2472
  868MOL0     H17155   8.254   6.467   1.716 -1.3481  3.2013  0.0071
  868MOL0     H17156   8.101   6.518   1.456  1.8291  0.0467 -0.6487
  868MOL0     H17157   8.122   6.650   1.575  1.6173  0.0245 -1.3455
  868MOL0     H17158   8.011   6.383   1.669  0.1354 -0.4341  0.9566
  868MOL0     H17159   8.027   6.533   1.766  1.4000 -2.8002  0.8557
  868MOL0     H17160   8.538   6.584   2.105 -2.4107  3.2836  0.2306
  868MOL0     H17161   8.310   6.640   2.180  0.4336 -1.6339  1.8315
  868MOL0     H17162   7.837   6.242   2.319 -1.8216 -1.7695 -0.9040
  868MOL0     H17163   7.579   6.304   2.338  0.0349 -0.4026 -0.8463
  868MOL0     H17164   5.892   6.045   2.240 -0.7488  0.2039  0.5119
  868MOL0     H17165   5.716   5.975   2.068 -0.9596  0.5085  0.0747
  868MOL0     H17166   5.524   6.047   1.701  0.5443  0.3527  4.9197
  868MOL0     H17167   5.380   6.009   1.499 -1.0721  0.8709  0.1167
  868MOL0     H17168   5.283   5.788   1.418 -0.4836 -0.7041 -0.2889
  868MOL0     H17169   5.208   5.922   1.333 -1.4666  0.5072 -0.4470
  868MOL0     H17170   5.070   5.658   1.414 -1.7723  2.0310  1.2103
  868MOL0     H17171   5.142   5.694   1.253  0.4251  0.6086 -0.4586
  868MOL0     H17172   4.965   5.864   1.226 -0.0627  1.9061  0.8526
  868MOL0     H17173   4.906   5.850   1.393  0.9628  1.7801  0.6041
  868MOL0     H17174   4.926   5.611   1.216 -1.2788 -2.1571  0.4651
  868MOL0     H17175   4.812   5.629   1.352  0.0320 -0.4754 -1.4968
  868MOL0     H17176   4.568   5.821   1.057  1.7834 -0.3198 -1.8622
  868MOL0     H17177   5.050   5.902   1.737 -0.8444  2.6296  1.1206
  868MOL0     H17178   5.183   5.824   2.010 -1.1794 -1.1976 -4.1067
  868MOL0     H17179   5.206   5.990   2.066 -2.1054 -1.4724  1.4788
  868MOL0     H17180   5.060   5.945   1.987 -0.4303  2.7910 -2.6451
  869MOL0     O17181   3.100  10.146   3.235  0.1255 -0.5558 -0.2513
  869MOL0     C17182   3.106  10.224   3.330 -0.4939  0.0551 -0.6768
  869MOL0     O17183   3.222  10.282   3.381  0.1081  0.6119 -0.2241
  869MOL0     C17184   3.350  10.263   3.324  0.1083 -0.3191  0.5807
  869MOL0     C17185   3.423  10.378   3.277  0.0056  0.2641 -0.5054
  869MOL0     C17186   3.551  10.359   3.228 -0.4544 -0.0493 -0.0623
  869MOL0     C17187   3.614  10.239   3.212  0.4498  0.2970  0.1480
  869MOL0     O17188   3.735  10.213   3.145 -0.3912  0.4627 -0.2404
  869MOL0     C17189   3.719  10.239   3.007 -0.1825  0.0414 -0.3744
  869MOL0     C17190   3.801  10.122   2.946  0.4994  0.1561  0.4946
  869MOL0     C17191   3.851  10.163   2.802 -0.2967  0.2894  0.0956
  869MOL0     C17192   3.940  10.055   2.737 -0.6080  0.1061  0.3843
  869MOL0     C17193   3.950  10.085   2.581 -0.0602 -0.2919 -0.3673
  869MOL0     C17194   4.052   9.996   2.505  0.5350 -0.4814 -0.7325
  869MOL0     C17195   4.201  10.012   2.542  0.1007 -0.0421 -0.0399
  869MOL0     C17196   4.275   9.926   2.441  0.4931 -0.2272  0.6792
  869MOL0     N17197   4.419   9.943   2.438  0.0980  0.0742  0.0655
  869MOL0     C17198   4.505   9.837   2.413 -0.0126  0.0414 -0.4570
  869MOL0     C17199   4.610   9.903   2.370  0.1991  0.6825 -0.0425
  869MOL0     C17200   4.744   9.840   2.315  0.1533  0.2854 -0.0538
  869MOL0     C17201   4.788   9.906   2.189  0.1920 -0.3661  0.6979
  869MOL0     C17202   4.902   9.830   2.114  0.5767  0.0463  0.8965
  869MOL0     C17203   4.945   9.902   1.983  0.5186 -0.2927 -0.2954
  869MOL0     O17204   5.048  10.001   2.009 -0.6825  0.0715 -0.2210
  869MOL0     C17205   5.175   9.957   1.985 -0.1911 -0.1821 -1.0132
  869MOL0     C17206   5.234   9.829   2.012  0.7531 -0.1020  0.2253
  869MOL0     C17207   5.357   9.808   1.952 -0.0327  0.4098 -0.5831
  869MOL0     C17208   5.436   9.897   1.876  0.6596 -0.9485  0.9302
  869MOL0     C17209   5.572   9.863   1.832  0.4153  0.1164 -0.0879
  869MOL0     O17210   5.640   9.953   1.765  0.6015 -0.6612 -0.2576
  869MOL0     C17211   5.772   9.934   1.746 -0.5455 -0.4141 -0.1726
  869MOL0     C17212   5.858   9.877   1.835 -0.5358  0.4765 -0.0230
  869MOL0     C17213   5.996   9.861   1.798  0.6719  0.1971  0.1774
  869MOL0     C17214   6.039   9.907   1.674  0.3789 -1.5483 -0.2384
  869MOL0     O17215   6.169   9.894   1.649  0.2019 -0.0885  0.9308
  869MOL0     C17216   6.239   9.990   1.575  0.0995  0.2651  0.1525
  869MOL0     C17217   6.370  10.009   1.628 -0.4595  0.3193 -0.7801
  869MOL0     C17218   6.458   9.879   1.618 -0.1788 -0.1415  0.0390
  869MOL0     C17219   6.613   9.907   1.640  0.0088 -0.5972 -0.0558
  869MOL0     C17220   6.641   9.901   1.793 -0.1779  0.1781 -0.3444
  869MOL0     C17221   6.790   9.848   1.837  0.6023 -0.5290  0.3460
  869MOL0     C17222   6.822   9.857   1.991 -0.1432  0.7971  0.2029
  869MOL0     C17223   6.775   9.739   2.081  0.0695  0.0301  0.4611
  869MOL0    Cl17224   6.865   9.585   2.041  0.1297  0.1353 -0.0345
  869MOL0     C17225   5.947   9.966   1.577  0.2891 -0.5530  0.2087
  869MOL0     C17226   5.805   9.966   1.611 -0.4539  0.4056  0.9008
  869MOL0     O17227   5.611   9.753   1.880  0.2198 -0.7604  0.6467
  869MOL0     C17228   5.369  10.016   1.855 -0.5326 -1.0220 -0.7976
  869MOL0     C17229   5.244  10.046   1.907  0.5478 -0.4304  0.0861
  869MOL0     N17230   4.572  10.036   2.340  0.8400  0.6292 -0.4997
  869MOL0     N17231   4.455  10.060   2.380 -0.3272  0.3906 -0.2631
  869MOL0     C17232   3.544  10.135   3.279 -0.0730 -0.4441 -0.0477
  869MOL0     C17233   3.414  10.139   3.320  0.0372  0.2320  0.0404
  869MOL0     C17234   2.977  10.269   3.394 -0.5485 -0.0694 -0.0938
  869MOL0     C17235   2.870  10.193   3.361 -0.0241  0.9177  0.3080
  869MOL0     C17236   2.737  10.213   3.404 -0.5705 -0.9311  0.3027
  869MOL0     C17237   2.712  10.332   3.480  0.2277 -0.2415 -0.9226
  869MOL0     O17238   2.587  10.355   3.518  0.5969  0.3964  0.2083
  869MOL0     C17239   2.542  10.476   3.575 -1.1515 -0.1341  0.6728
  869MOL0     C17240   2.540  10.466   3.726  0.3277 -0.1808 -0.5689
  869MOL0     C17241   2.551  10.610   3.793 -0.1086  0.7307  0.3931
  869MOL0     C17242   2.418  10.694   3.788 -0.0598 -0.2776  0.0974
  869MOL0     C17243   2.329  10.629   3.884 -0.7402 -0.1538  0.3878
  869MOL0     C17244   2.258  10.570   3.966 -0.0677  0.4603 -0.4853
  869MOL0     C17245   2.821  10.408   3.522 -0.4139 -0.7210  0.3684
  869MOL0     C17246   2.958  10.379   3.481 -0.6920  0.5594  0.2789
  869MOL0     C17247   3.069  10.474   3.532  0.5321  0.6843  0.1469
  869MOL0     H17248   3.395  10.483   3.283  2.9500  1.0708  3.0900
  869MOL0     H17249   3.596  10.451   3.190 -1.3049 -0.3198 -1.8557
  869MOL0     H17250   3.615  10.240   2.975 -0.7639 -5.1068  0.5125
  869MOL0     H17251   3.764  10.335   2.979  0.8149 -0.7908 -1.7870
  869MOL0     H17252   3.735  10.035   2.944  1.2589 -0.6244  3.6325
  869MOL0     H17253   3.880  10.096   3.017  1.2014 -1.3364 -0.7831
  869MOL0     H17254   3.913  10.253   2.815 -0.3432  0.6578 -1.8671
  869MOL0     H17255   3.760  10.190   2.747 -1.4790 -0.7694  1.4711
  869MOL0     H17256   4.041  10.052   2.778 -1.1579 -2.5130  1.7846
  869MOL0     H17257   3.884   9.961   2.743  0.4304 -0.6690 -1.3279
  869MOL0     H17258   3.852  10.064   2.537 -0.2637 -2.1874  0.8754
  869MOL0     H17259   3.979  10.190   2.576 -0.4304  0.0430  2.5024
  869MOL0     H17260   4.024   9.891   2.519 -1.8507  0.3220  1.2422
  869MOL0     H17261   4.044  10.019   2.398  4.2338 -0.9345 -1.2356
  869MOL0     H17262   4.211   9.977   2.645 -2.4345 -0.1946  0.2323
  869MOL0     H17263   4.234  10.115   2.527 -3.5647  1.5253  1.4876
  869MOL0     H17264   4.251   9.822   2.466  2.1212 -0.5152  1.1800
  869MOL0     H17265   4.228   9.949   2.345  0.9495  1.0642  0.7402
  869MOL0     H17266   4.490   9.733   2.443  0.4400 -0.1273 -0.8106
  869MOL0     H17267   4.822   9.851   2.391 -1.4812 -0.9078  1.8496
  869MOL0     H17268   4.726   9.735   2.292 -0.5166  0.8899 -2.7261
  869MOL0     H17269   4.699   9.892   2.126  0.6487  0.1659 -0.0743
  869MOL0     H17270   4.810  10.011   2.208 -1.5847  0.0546  0.6048
  869MOL0     H17271   4.877   9.728   2.084  0.4195  0.1231  0.7677
  869MOL0     H17272   4.977   9.832   2.194  0.2713  2.6352  1.2201
  869MOL0     H17273   4.853   9.950   1.947  1.5376  0.3776 -2.1779
  869MOL0     H17274   4.971   9.830   1.905 -0.5386  0.2389 -1.1656
  869MOL0     H17275   5.196   9.740   2.062  0.4934  2.0372  4.2204
  869MOL0     H17276   5.396   9.711   1.983 -1.6622 -0.5451 -1.3567
  869MOL0     H17277   5.824   9.866   1.937 -1.5076 -1.0550 -0.4761
  869MOL0     H17278   6.066   9.810   1.864  1.8031 -0.7205 -1.6458
  869MOL0     H17279   6.249   9.970   1.468 -1.4820  1.4558 -0.2530
  869MOL0     H17280   6.194  10.089   1.586 -0.3460 -0.0364  1.1452
  869MOL0     H17281   6.422  10.088   1.572  0.5724  0.1307 -0.1342
  869MOL0     H17282   6.376  10.033   1.735 -0.9350 -4.0610  0.3967
  869MOL0     H17283   6.415   9.800   1.681 -4.3099  2.0307  0.2532
  869MOL0     H17284   6.450   9.847   1.514  4.0007 -0.5788 -0.3377
  869MOL0     H17285   6.651   9.991   1.580 -2.6627 -0.8087 -2.2232
  869MOL0     H17286   6.651   9.810   1.607 -3.1180 -1.9034 -0.1645
  869MOL0     H17287   6.564   9.834   1.833  1.6960 -1.5144  0.6351
  869MOL0     H17288   6.620   9.998   1.838 -0.0688  0.3959 -0.7591
  869MOL0     H17289   6.798   9.745   1.802 -1.4517 -0.3507 -0.7918
  869MOL0     H17290   6.861   9.905   1.776  0.6007 -1.3180 -0.4131
  869MOL0     H17291   6.779   9.945   2.040 -3.7263 -0.8121  0.2687
  869MOL0     H17292   6.929   9.856   2.013 -0.0886 -0.8643 -0.0174
  869MOL0     H17293   6.788   9.776   2.183  1.3374 -0.5205  0.5090
  869MOL0     H17294   6.667   9.721   2.072  0.1503  0.1605 -0.9115
  869MOL0     H17295   5.986  10.000   1.481 -0.8355  0.8158  0.2085
  869MOL0     H17296   5.731  10.015   1.549  0.0778  2.7201  1.9617
  869MOL0     H17297   5.418  10.084   1.786 -1.2434  0.9311  0.5067
  869MOL0     H17298   5.189  10.136   1.883 -2.3790 -2.0506  0.1850
  869MOL0     H17299   3.583  10.034   3.277 -1.3127 -0.9300 -0.3246
  869MOL0     H17300   3.362  10.051   3.354  1.2299 -0.6487 -0.3449
  869MOL0     H17301   2.881  10.114   3.289  0.9638  0.6567  0.7269
  869MOL0     H17302   2.656  10.152   3.366 -0.4575 -0.2319 -1.1249
  869MOL0     H17303   2.443  10.500   3.536 -1.4034 -2.6065 -0.4095
  869MOL0     H17304   2.605  10.559   3.541  1.4726 -1.9364  0.8656
  869MOL0     H17305   2.620  10.403   3.764  0.2174  0.8735  1.5317
  869MOL0     H17306   2.446  10.415   3.751 -0.0777  0.1583 -1.3567
  869MOL0     H17307   2.627  10.665   3.737 -0.5553  0.2995 -0.6690
  869MOL0     H17308   2.574  10.612   3.900 -1.2013 -0.4081  0.6776
  869MOL0     H17309   2.448  10.792   3.827  1.4787 -1.2339  1.4706
  869MOL0     H17310   2.374  10.701   3.688 -1.9995 -0.6782  0.8711
  869MOL0     H17311   2.189  10.520   4.032 -0.3160  0.7391 -0.5344
  869MOL0     H17312   2.800  10.488   3.592  0.5024 -1.6653  1.7755
  869MOL0     H17313   3.115  10.532   3.452 -1.7762  1.4228 -0.7460
  869MOL0     H17314   3.025  10.558   3.588 -1.7096  0.6754 -1.4699
  869MOL0     H17315   3.140  10.424   3.598  2.2012  2.7051 -0.0119
  870MOL0     O17316   6.903   2.333   9.053  0.3054  0.2400 -0.6026
  870MOL0     C17317   6.884   2.370   9.169 -0.2564  0.5490 -0.8342
  870MOL0     O17318   6.978   2.437   9.251 -0.1368 -0.2286 -0.0801
  870MOL0     C17319   7.110   2.455   9.205  0.5185  0.8708  0.2001
  870MOL0     C17320   7.200   2.356   9.244  0.1302 -0.0597 -0.0647
  870MOL0     C17321   7.331   2.368   9.213 -0.5357 -0.3966  0.4038
  870MOL0     C17322   7.380   2.484   9.139  0.2449 -0.4898  0.2181
  870MOL0     O17323   7.518   2.498   9.109 -0.3582  0.5973  0.0705
  870MOL0     C17324   7.557   2.634   9.117 -0.3943  0.1414 -1.1390
  870MOL0     C17325   7.713   2.641   9.138 -0.4683  0.0245  0.0127
  870MOL0     C17326   7.758   2.570   9.272  0.3454  0.0037  0.2202
  870MOL0     C17327   7.896   2.607   9.308 -0.1928  0.0132  0.0624
  870MOL0     C17328   7.966   2.476   9.345  0.0313 -0.1913 -1.2763
  870MOL0     C17329   8.113   2.509   9.386  0.1889 -0.0889 -0.1328
  870MOL0     C17330   8.192   2.379   9.422 -0.9502 -0.7025  0.7962
  870MOL0     C17331   8.339   2.414   9.433  1.0136 -0.2660 -0.8293
  870MOL0     N17332   8.421   2.292   9.456  0.1777  0.2440 -0.1724
  870MOL0     C17333   8.490   2.209   9.367 -0.2644 -0.0447  0.4493
  870MOL0     C17334   8.554   2.120   9.440  0.3732  0.9599 -0.0821
  870MOL0     C17335   8.624   2.004   9.377 -0.3444 -0.0698 -0.1834
  870MOL0     C17336   8.768   2.035   9.325  0.4962  0.6444  0.4096
  870MOL0     C17337   8.861   2.113   9.427  1.3726  0.2100 -1.3602
  870MOL0     C17338   9.009   2.107   9.389 -0.2915  0.3007  0.3433
  870MOL0     O17339   9.094   2.162   9.496  0.0658  0.6112  0.0149
  870MOL0     C17340   9.225   2.168   9.454 -0.2823 -0.6766 -0.2022
  870MOL0     C17341   9.296   2.235   9.553  0.7094 -0.0872 -0.6131
  870MOL0     C17342   9.434   2.237   9.556  0.3427 -0.5129  0.0026
  870MOL0     C17343   9.508   2.180   9.447  0.4814  0.3690  0.1474
  870MOL0     C17344   9.657   2.190   9.418 -0.1567  0.2837 -0.8145
  870MOL0     O17345   9.723   2.261   9.517 -0.3962 -0.1505  0.1999
  870MOL0     C17346   9.854   2.291   9.509 -0.5305  1.4693 -0.7891
  870MOL0     C17347   9.906   2.364   9.620 -0.1200 -0.2765 -0.7432
  870MOL0     C17348  10.036   2.414   9.632 -0.6016 -0.4094  0.5179
  870MOL0     C17349  10.120   2.419   9.513  0.3240 -0.0943  0.3035
  870MOL0     O17350  10.251   2.450   9.508  0.8920 -0.4306 -0.0090
  870MOL0     C17351  10.298   2.555   9.603  0.0252 -0.0990  0.3712
  870MOL0     C17352  10.450   2.537   9.607 -0.5626  0.4368  0.7380
  870MOL0     C17353  10.513   2.623   9.702 -0.6220 -0.3399  0.1069
  870MOL0     C17354  10.664   2.628   9.671  0.4916 -0.2457  0.5096
  870MOL0     C17355  10.734   2.703   9.782  0.1064 -0.2713  0.3305
  870MOL0     C17356  10.873   2.753   9.748  0.0486 -0.0571 -0.1891
  870MOL0     C17357  10.976   2.651   9.702  0.3510 -0.5064 -0.3455
  870MOL0     C17358  11.110   2.706   9.717 -0.3223  0.3919  1.0877
  870MOL0    Cl17359  11.166   2.757   9.885  0.1930  0.1824 -0.3015
  870MOL0     C17360  10.065   2.352   9.400 -0.2980 -0.7543 -0.4786
  870MOL0     C17361   9.942   2.287   9.398 -0.4610 -0.0536  0.1564
  870MOL0     O17362   9.708   2.136   9.314 -0.2370 -0.8487  0.6309
  870MOL0     C17363   9.431   2.108   9.347 -0.6109  1.1760  0.0385
  870MOL0     C17364   9.287   2.094   9.359  0.7173 -0.9814  0.9218
  870MOL0     N17365   8.529   2.153   9.571 -0.6824 -0.0477  0.0264
  870MOL0     N17366   8.455   2.257   9.585  0.6122  0.3138  0.3772
  870MOL0     C17367   7.282   2.581   9.102 -0.5206 -0.0419 -0.6424
  870MOL0     C17368   7.146   2.561   9.131 -0.1696 -0.5117 -0.1870
  870MOL0     C17369   6.747   2.361   9.237 -0.5920 -0.5588 -0.3145
  870MOL0     C17370   6.736   2.405   9.377  0.7859 -0.1415  0.2872
  870MOL0     C17371   6.624   2.379   9.447 -0.0995 -0.2732  0.5747
  870MOL0     C17372   6.518   2.305   9.402 -0.2820  0.0741  0.6423
  870MOL0     O17373   6.403   2.266   9.468 -0.1434  0.2970 -0.2253
  870MOL0     C17374   6.392   2.284   9.612  0.4376  0.6129  0.2526
  870MOL0     C17375   6.254   2.236   9.666  0.0264 -0.1085 -0.3080
  870MOL0     C17376   6.230   2.092   9.630 -0.1072  0.5181  0.7268
  870MOL0     C17377   6.083   2.059   9.642  0.0507  0.1414  0.1377
  870MOL0     C17378   6.052   1.923   9.591  0.1750 -0.0270  0.0870
  870MOL0     C17379   6.037   1.815   9.542  0.5214  0.1656 -1.0174
  870MOL0     C17380   6.525   2.266   9.271  0.0736 -0.2306  0.8388
  870MOL0     C17381   6.630   2.300   9.182  1.1904  0.2450 -0.5833
  870MOL0     C17382   6.628   2.245   9.049 -0.5085  0.3466  0.1332
  870MOL0     H17383   7.169   2.258   9.281  3.5495 -0.6783  1.6243
  870MOL0     H17384   7.403   2.290   9.234 -0.2893 -0.5373 -0.9330
  870MOL0     H17385   7.530   2.679   9.021 -0.1383 -0.6083 -1.5744
  870MOL0     H17386   7.499   2.678   9.198  1.2572  0.4955 -0.1085
  870MOL0     H17387   7.738   2.747   9.153  2.1641 -0.6873  1.2323
  870MOL0     H17388   7.772   2.599   9.056  2.6101  2.0616  0.9875
  870MOL0     H17389   7.728   2.465   9.270 -0.0332  0.1095  0.2727
  870MOL0     H17390   7.702   2.619   9.352  2.9016  1.9387  0.9389
  870MOL0     H17391   7.945   2.647   9.219 -1.2891 -1.1477 -1.1086
  870MOL0     H17392   7.888   2.687   9.382 -2.2582  0.2430 -0.3431
  870MOL0     H17393   7.919   2.421   9.427  1.0370 -1.0817 -1.2740
  870MOL0     H17394   7.965   2.409   9.258 -1.4059  0.4604 -1.7936
  870MOL0     H17395   8.172   2.562   9.311  1.5902 -1.0493  0.2228
  870MOL0     H17396   8.118   2.579   9.470  0.8322  4.2840 -3.5030
  870MOL0     H17397   8.174   2.311   9.338 -0.0394  3.0467 -2.7569
  870MOL0     H17398   8.158   2.329   9.513  0.9803 -1.0648  1.3464
  870MOL0     H17399   8.369   2.479   9.350 -0.6951  1.3202 -0.2997
  870MOL0     H17400   8.343   2.466   9.529  0.1695 -0.7384 -0.5240
  870MOL0     H17401   8.490   2.222   9.259 -0.0517  2.0109  0.6583
  870MOL0     H17402   8.623   1.924   9.452 -0.4331  1.6310  1.7165
  870MOL0     H17403   8.559   1.970   9.296  0.2721  2.3751 -1.8000
  870MOL0     H17404   8.808   1.938   9.293  1.0635  1.5138 -1.6845
  870MOL0     H17405   8.776   2.095   9.234  4.3940 -0.1937  0.0204
  870MOL0     H17406   8.844   2.069   9.525  1.6415  1.0755 -0.9183
  870MOL0     H17407   8.830   2.218   9.425 -3.5760 -0.9738 -0.1655
  870MOL0     H17408   9.031   2.145   9.289  1.6454 -1.5906 -0.0294
  870MOL0     H17409   9.029   1.999   9.384 -2.1196 -0.0830  0.7280
  870MOL0     H17410   9.244   2.286   9.633  0.2839  1.7321 -1.9976
  870MOL0     H17411   9.489   2.309   9.616  0.8252 -0.9301  0.0638
  870MOL0     H17412   9.837   2.386   9.701  0.2860  1.2269 -0.7641
  870MOL0     H17413  10.079   2.456   9.721  3.1172 -1.4740 -0.6197
  870MOL0     H17414  10.262   2.654   9.572  1.0142 -0.1635 -1.0455
  870MOL0     H17415  10.265   2.542   9.707  0.7980 -2.0988  0.4141
  870MOL0     H17416  10.478   2.431   9.611  1.3545  0.9249  1.5519
  870MOL0     H17417  10.483   2.564   9.506  0.6583  0.5069  1.1397
  870MOL0     H17418  10.478   2.727   9.704  0.5294  0.3079 -4.0466
  870MOL0     H17419  10.495   2.586   9.803  0.0664 -0.7466  0.0816
  870MOL0     H17420  10.687   2.677   9.576  2.1848  0.0569  1.0441
  870MOL0     H17421  10.699   2.525   9.674  0.4868 -0.3219 -0.9834
  870MOL0     H17422  10.736   2.628   9.862 -0.3564  2.3281  2.9604
  870MOL0     H17423  10.679   2.793   9.812 -1.9931 -0.9485 -1.2733
  870MOL0     H17424  10.860   2.824   9.666 -0.1370  1.7002  1.2929
  870MOL0     H17425  10.917   2.806   9.833  4.5783 -0.3723 -2.0462
  870MOL0     H17426  10.956   2.634   9.596 -0.4124 -1.6929 -0.0299
  870MOL0     H17427  10.976   2.555   9.755 -0.6070 -1.2092 -1.5596
  870MOL0     H17428  11.177   2.634   9.669 -3.2829 -1.4828 -0.4889
  870MOL0     H17429  11.123   2.794   9.653  3.9041 -1.4172 -0.9583
  870MOL0     H17430  10.129   2.339   9.314  2.4051 -0.7380  1.3954
  870MOL0     H17431   9.909   2.243   9.304  0.9789  0.2221 -0.4933
  870MOL0     H17432   9.482   2.057   9.266 -2.0369  1.0539 -0.7972
  870MOL0     H17433   9.232   2.016   9.308  2.5500 -1.3086 -0.6889
  870MOL0     H17434   7.295   2.661   9.030  0.8331  0.9415  0.6328
  870MOL0     H17435   7.078   2.637   9.093 -0.2724 -0.3063  0.3908
  870MOL0     H17436   6.811   2.462   9.432 -1.7828  2.8180  0.9437
  870MOL0     H17437   6.617   2.431   9.542 -2.1818 -2.1767  1.5519
  870MOL0     H17438   6.406   2.390   9.633  0.0499  1.0633 -1.6220
  870MOL0     H17439   6.468   2.226   9.665 -0.9786 -0.1135  1.5677
  870MOL0     H17440   6.173   2.291   9.617 -2.0325 -2.7175 -0.1005
  870MOL0     H17441   6.252   2.253   9.774  0.2653 -0.6091 -0.2243
  870MOL0     H17442   6.288   2.029   9.697  2.5591 -0.3307 -2.1512
  870MOL0     H17443   6.273   2.063   9.534 -0.1644 -1.0856  1.1471
  870MOL0     H17444   6.059   2.063   9.749 -0.9662 -1.6274  0.0139
  870MOL0     H17445   6.016   2.129   9.591 -0.2497 -1.8871 -2.4215
  870MOL0     H17446   6.019   1.714   9.510 -1.7108  0.8697 -2.1635
  870MOL0     H17447   6.443   2.206   9.234  1.2243 -1.9155  0.9123
  870MOL0     H17448   6.689   2.155   9.049  0.0439  0.6510  2.7997
  870MOL0     H17449   6.525   2.217   9.025 -1.8345 -0.5335  5.5682
  870MOL0     H17450   6.673   2.309   8.972  3.4631 -2.8938 -0.5426
  871MOL0     O17451   1.283   3.666   4.030 -0.3714  0.6525  0.0625
  871MOL0     C17452   1.180   3.687   4.097 -1.0405  0.6360 -0.8862
  871MOL0     O17453   1.176   3.768   4.213  0.3772  0.0553 -0.8617
  871MOL0     C17454   1.294   3.812   4.273 -0.2591  0.6289 -0.1321
  871MOL0     C17455   1.302   3.770   4.406 -1.3463  0.9401  0.1327
  871MOL0     C17456   1.397   3.818   4.493 -0.2344 -0.7573 -0.3656
  871MOL0     C17457   1.486   3.909   4.445 -0.3276 -0.2030 -0.3350
  871MOL0     O17458   1.586   3.970   4.518  0.5499 -0.0094  1.4462
  871MOL0     C17459   1.646   3.901   4.629  0.0716  0.9592 -0.2428
  871MOL0     C17460   1.778   3.969   4.662 -0.4019  0.2758  0.4054
  871MOL0     C17461   1.869   3.884   4.750  0.2170 -1.1171  0.2834
  871MOL0     C17462   2.001   3.961   4.768 -0.2954 -0.5295 -0.4870
  871MOL0     C17463   2.126   3.860   4.788  0.1055  0.1447 -0.3013
  871MOL0     C17464   2.164   3.819   4.643  0.8442 -0.4516 -0.1262
  871MOL0     C17465   2.282   3.716   4.669  0.0614 -0.7148  0.8716
  871MOL0     C17466   2.307   3.619   4.550  0.1208  0.2468 -0.9017
  871MOL0     N17467   2.347   3.703   4.438  0.2891 -0.1988  0.5131
  871MOL0     C17468   2.471   3.716   4.376 -0.1829  0.3679 -0.1575
  871MOL0     C17469   2.447   3.762   4.254 -0.2596 -0.0509 -0.0584
  871MOL0     C17470   2.555   3.786   4.153 -0.0042 -0.1449 -0.5220
  871MOL0     C17471   2.597   3.652   4.102  0.5395 -0.6149  0.7261
  871MOL0     C17472   2.725   3.670   4.007 -0.0096 -0.6648  0.0386
  871MOL0     C17473   2.851   3.729   4.067  0.3450 -0.1782 -1.3193
  871MOL0     O17474   2.890   3.663   4.189 -1.2562 -0.0419 -0.2434
  871MOL0     C17475   2.960   3.544   4.193 -0.7394  0.0019  0.2685
  871MOL0     C17476   2.954   3.483   4.311 -0.2949  0.7602 -0.1027
  871MOL0     C17477   3.051   3.382   4.337 -0.5256 -0.4733  0.1611
  871MOL0     C17478   3.143   3.345   4.242 -0.6911  0.2853 -0.3977
  871MOL0     C17479   3.265   3.272   4.273 -1.0038 -0.4395 -0.9368
  871MOL0     O17480   3.239   3.186   4.369 -0.0381 -0.7370 -0.3170
  871MOL0     C17481   3.337   3.109   4.420 -0.3736 -0.1652 -0.0638
  871MOL0     C17482   3.408   3.011   4.345  0.1660  0.1825  0.5397
  871MOL0     C17483   3.508   2.939   4.404 -0.4849  0.2492 -0.8891
  871MOL0     C17484   3.540   2.955   4.537  0.5438  1.6378  0.3100
  871MOL0     O17485   3.636   2.873   4.587  0.2966  0.2719  0.5524
  871MOL0     C17486   3.763   2.850   4.510  0.2811  0.4751 -1.7627
  871MOL0     C17487   3.883   2.822   4.614  0.4013  1.0629  0.9892
  871MOL0     C17488   3.908   2.920   4.716  0.3013 -0.6174  0.4229
  871MOL0     C17489   3.835   2.891   4.846 -0.1359  0.3593 -0.3103
  871MOL0     C17490   3.855   3.003   4.961  0.7190 -0.2002 -0.0059
  871MOL0     C17491   3.993   3.006   5.024  0.1715  0.1353 -0.0756
  871MOL0     C17492   3.990   3.075   5.161  0.2997 -0.7604  0.4298
  871MOL0     C17493   4.126   3.075   5.223 -0.4793  1.3569  1.2296
  871MOL0    Cl17494   4.180   2.912   5.284 -0.0282 -0.0681 -0.1856
  871MOL0     C17495   3.460   3.029   4.621  0.5825 -0.2106  0.9148
  871MOL0     C17496   3.364   3.121   4.558 -0.8540  0.1299  0.1876
  871MOL0     O17497   3.366   3.277   4.206  0.7900 -0.4226 -0.4196
  871MOL0     C17498   3.131   3.390   4.111 -0.3829  0.1074 -0.4859
  871MOL0     C17499   3.032   3.488   4.087 -0.7081 -0.0102 -0.6606
  871MOL0     N17500   2.313   3.794   4.243 -0.2556  1.0445 -0.6029
  871MOL0     N17501   2.257   3.755   4.351  0.3080  0.5456 -0.1759
  871MOL0     C17502   1.472   3.967   4.319  0.2177  0.2177  0.2512
  871MOL0     C17503   1.384   3.914   4.221  1.6496  0.5611  0.0857
  871MOL0     C17504   1.057   3.636   4.043  0.7631 -0.5439  0.0176
  871MOL0     C17505   1.055   3.577   3.919 -0.2258  0.1563 -0.4048
  871MOL0     C17506   0.939   3.528   3.857 -0.6840 -0.4691  0.2336
  871MOL0     C17507   0.818   3.542   3.921  0.7966  0.4586  0.1719
  871MOL0     O17508   0.703   3.504   3.858  0.5313 -0.6882 -0.2185
  871MOL0     C17509   0.574   3.519   3.916 -0.0450  0.1888  0.4119
  871MOL0     C17510   0.487   3.492   3.799 -0.7572  0.3115 -0.1832
  871MOL0     C17511   0.350   3.445   3.849  0.5028  0.5799  1.4576
  871MOL0     C17512   0.249   3.408   3.738 -0.2254 -0.3807  0.9379
  871MOL0     C17513   0.295   3.290   3.661  0.4763  0.1009 -0.0095
  871MOL0     C17514   0.309   3.176   3.619  0.6982 -0.3593  0.0539
  871MOL0     C17515   0.814   3.608   4.051 -0.0135 -0.4130  0.5026
  871MOL0     C17516   0.932   3.643   4.113 -0.1097 -0.2085  0.8008
  871MOL0     C17517   0.916   3.677   4.259  0.3837 -0.1645 -0.3267
  871MOL0     H17518   1.239   3.691   4.445  2.4371 -2.2715  0.4123
  871MOL0     H17519   1.400   3.774   4.592  0.8904  3.3608  1.6489
  871MOL0     H17520   1.576   3.904   4.713  0.5745  1.0574  0.1785
  871MOL0     H17521   1.658   3.794   4.611 -2.3214  0.6737 -0.4602
  871MOL0     H17522   1.760   4.068   4.706  1.2603  0.8819 -0.2077
  871MOL0     H17523   1.820   3.985   4.563  1.5901  1.6008  1.3978
  871MOL0     H17524   1.881   3.789   4.697 -0.6272 -1.7795  1.2287
  871MOL0     H17525   1.820   3.869   4.846  0.9799  2.4244  1.3479
  871MOL0     H17526   2.026   4.024   4.682 -0.0855 -1.6214 -1.2445
  871MOL0     H17527   1.995   4.031   4.852 -1.5509  1.1022 -1.8600
  871MOL0     H17528   2.219   3.908   4.818  1.2078 -0.6394 -2.2764
  871MOL0     H17529   2.091   3.781   4.855 -1.5725  0.2306 -1.0205
  871MOL0     H17530   2.078   3.773   4.592 -0.3751  3.5896 -2.0930
  871MOL0     H17531   2.210   3.903   4.590 -0.2950  1.0802  1.2520
  871MOL0     H17532   2.250   3.664   4.760  0.9055 -1.1575  0.9218
  871MOL0     H17533   2.377   3.765   4.688 -0.8627  1.1961  0.8244
  871MOL0     H17534   2.379   3.545   4.585  0.3389  1.4943  1.5045
  871MOL0     H17535   2.215   3.567   4.520  2.1021 -2.7724 -2.1776
  871MOL0     H17536   2.566   3.689   4.421  1.6274  0.8281 -3.4163
  871MOL0     H17537   2.509   3.848   4.075  0.0466  0.2195 -0.2637
  871MOL0     H17538   2.638   3.834   4.206  1.9304 -2.7337 -1.0478
  871MOL0     H17539   2.613   3.581   4.184  1.7224 -0.4188  0.6822
  871MOL0     H17540   2.520   3.620   4.031 -0.0940 -0.8449  1.4988
  871MOL0     H17541   2.702   3.736   3.923 -0.1371  0.1422  0.6923
  871MOL0     H17542   2.762   3.572   3.976  1.0556 -0.3058  0.1383
  871MOL0     H17543   2.843   3.834   4.095 -0.5994 -0.0418 -2.0771
  871MOL0     H17544   2.932   3.724   3.993 -1.2310 -0.4907 -3.1099
  871MOL0     H17545   2.895   3.531   4.388  0.4115 -0.4371  1.2424
  871MOL0     H17546   3.059   3.357   4.443 -1.0920 -4.2369 -0.5235
  871MOL0     H17547   3.392   3.002   4.238 -1.0134 -0.7919  0.7748
  871MOL0     H17548   3.548   2.862   4.339 -1.0248 -0.5608 -0.2851
  871MOL0     H17549   3.743   2.756   4.457  1.0519 -0.8764  0.2108
  871MOL0     H17550   3.786   2.923   4.433  0.0019  1.4931 -0.9037
  871MOL0     H17551   3.853   2.732   4.668  1.6400  0.3939  0.6153
  871MOL0     H17552   3.971   2.792   4.555  1.0486  1.8033  1.5512
  871MOL0     H17553   4.015   2.922   4.739  0.5689 -3.5124 -0.2116
  871MOL0     H17554   3.880   3.019   4.679 -0.6209 -1.5609 -1.5553
  871MOL0     H17555   3.867   2.794   4.883 -0.0860 -0.4913 -2.4526
  871MOL0     H17556   3.731   2.868   4.820  0.8622 -2.2962 -2.2598
  871MOL0     H17557   3.781   2.985   5.040  1.7814 -1.4767  0.7463
  871MOL0     H17558   3.814   3.095   4.920 -0.8275  0.1960  2.2242
  871MOL0     H17559   4.030   2.907   5.053  0.9809  1.3341  3.5981
  871MOL0     H17560   4.065   3.057   4.959  0.5717 -1.7715 -1.2176
  871MOL0     H17561   3.935   3.009   5.229  2.2104 -3.1999 -0.2517
  871MOL0     H17562   3.951   3.177   5.155 -0.8637 -1.0398  2.5098
  871MOL0     H17563   4.196   3.093   5.141  1.1984  1.5753  2.6484
  871MOL0     H17564   4.141   3.153   5.299  1.7620  0.1774  2.1129
  871MOL0     H17565   3.490   3.031   4.726 -3.7602 -1.1983  2.3520
  871MOL0     H17566   3.301   3.195   4.606 -2.6575 -1.6559  0.7324
  871MOL0     H17567   3.195   3.356   4.030 -2.0873  0.5579 -2.1196
  871MOL0     H17568   3.019   3.531   3.988 -1.4166 -0.8538 -0.9426
  871MOL0     H17569   1.545   4.044   4.292  0.3737  0.0370  0.1560
  871MOL0     H17570   1.367   3.942   4.117 -2.6019  4.5536  1.5057
  871MOL0     H17571   1.143   3.585   3.855  0.6059  1.3623  0.8574
  871MOL0     H17572   0.954   3.513   3.751  1.6305  3.0864 -0.1156
  871MOL0     H17573   0.545   3.616   3.957 -1.0354  0.1504 -0.1720
  871MOL0     H17574   0.566   3.437   3.988  0.2063  1.8072  2.3810
  871MOL0     H17575   0.512   3.410   3.731 -0.7646  0.7555 -0.7164
  871MOL0     H17576   0.493   3.582   3.738  1.0351  0.2982 -0.0970
  871MOL0     H17577   0.314   3.534   3.901  0.0453  1.7834 -0.7609
  871MOL0     H17578   0.364   3.361   3.918 -1.5355  0.4829  1.8094
  871MOL0     H17579   0.162   3.378   3.797 -0.7212  4.3651  3.0679
  871MOL0     H17580   0.223   3.498   3.682 -2.0916 -0.7718  1.1217
  871MOL0     H17581   0.337   3.077   3.590 -0.3014 -0.2994 -1.1853
  871MOL0     H17582   0.722   3.623   4.107 -0.2155  0.7231 -0.0768
  871MOL0     H17583   0.942   3.780   4.285  1.8388  0.0999 -2.5945
  871MOL0     H17584   0.821   3.640   4.298  2.1515 -2.1130  2.5098
  871MOL0     H17585   0.984   3.612   4.314 -0.0960  0.1162  0.6275
  872MOL0     O17586   1.636   3.046   8.263  0.3993 -0.1766  0.0865
  872MOL0     C17587   1.708   2.967   8.323  1.3532  0.0376 -0.5747
  872MOL0     O17588   1.834   2.932   8.282  0.1165  0.3169 -0.9605
  872MOL0     C17589   1.886   2.989   8.165  0.1480 -0.9129 -0.0104
  872MOL0     C17590   1.871   2.934   8.035 -0.8548 -0.1378 -0.0317
  872MOL0     C17591   1.932   3.004   7.935  0.3916  0.0222  0.4414
  872MOL0     C17592   1.998   3.131   7.955  0.3256  0.0259  0.3841
  872MOL0     O17593   2.062   3.189   7.848 -0.5148  0.3270  0.0486
  872MOL0     C17594   2.176   3.271   7.876  0.0723  0.9448  0.2269
  872MOL0     C17595   2.287   3.205   7.951 -0.4296 -0.2818  0.8162
  872MOL0     C17596   2.326   3.077   7.867  0.5054  0.2754 -0.9091
  872MOL0     C17597   2.439   2.997   7.926  0.5178 -0.8493  0.1485
  872MOL0     C17598   2.572   3.068   7.915 -0.3076  0.7904  0.6227
  872MOL0     C17599   2.614   3.053   7.766  0.3524 -0.4975  0.2232
  872MOL0     C17600   2.746   3.105   7.733  0.0343 -0.4053  0.9910
  872MOL0     C17601   2.763   3.257   7.776 -0.1001  0.6594  0.1318
  872MOL0     N17602   2.651   3.347   7.741  0.3332 -0.2974  0.7928
  872MOL0     C17603   2.599   3.359   7.614  0.3757 -0.7343 -0.4362
  872MOL0     C17604   2.504   3.450   7.628 -1.1930 -0.0578 -0.5663
  872MOL0     C17605   2.425   3.501   7.499  0.2307 -0.2507 -0.5095
  872MOL0     C17606   2.279   3.468   7.518 -0.0273 -0.3904  0.3165
  872MOL0     C17607   2.199   3.519   7.394 -0.9699  1.0197  0.2910
  872MOL0     C17608   2.065   3.442   7.385 -0.5390 -0.0993 -0.1702
  872MOL0     O17609   1.989   3.476   7.502 -0.9863 -0.0020 -0.1418
  872MOL0     C17610   1.924   3.372   7.573 -0.8422  0.0224  0.8319
  872MOL0     C17611   1.825   3.417   7.655 -0.2402 -0.1995 -0.6521
  872MOL0     C17612   1.737   3.329   7.724 -0.4501 -0.5125 -0.5752
  872MOL0     C17613   1.753   3.192   7.705  0.4689 -0.2769 -0.1448
  872MOL0     C17614   1.660   3.096   7.768 -0.5509 -0.0618  0.1102
  872MOL0     O17615   1.560   3.134   7.859 -0.2370  0.1981 -0.3657
  872MOL0     C17616   1.461   3.050   7.889 -0.2775  0.0252  0.7303
  872MOL0     C17617   1.330   3.069   7.833  0.6603 -0.0221  0.5169
  872MOL0     C17618   1.229   2.992   7.874  0.5696  0.3855  0.8589
  872MOL0     C17619   1.243   2.888   7.970  0.9276  0.0832 -0.3283
  872MOL0     O17620   1.130   2.818   8.000 -0.1259 -0.2812  0.5176
  872MOL0     C17621   1.109   2.771   8.136 -0.9371  1.0564  0.1687
  872MOL0     C17622   0.975   2.828   8.186  0.1082 -0.4661 -0.1413
  872MOL0     C17623   0.941   2.762   8.323 -0.0696 -0.2266  1.0556
  872MOL0     C17624   0.849   2.855   8.400  0.4421 -0.7822 -0.2161
  872MOL0     C17625   0.701   2.857   8.352 -0.0494 -0.0306  0.0349
  872MOL0     C17626   0.631   2.729   8.401 -0.3891 -0.0237 -1.0571
  872MOL0     C17627   0.478   2.755   8.416 -0.0294 -0.3211  0.2200
  872MOL0     C17628   0.402   2.621   8.389  0.1200 -0.7876 -0.2279
  872MOL0    Cl17629   0.463   2.509   8.520  0.1724  0.1819 -0.2593
  872MOL0     C17630   1.372   2.874   8.027  0.0167  0.4529 -0.7106
  872MOL0     C17631   1.481   2.948   7.986 -0.1736 -0.3425 -0.2445
  872MOL0     O17632   1.673   2.984   7.714 -0.3392  0.1879 -0.0579
  872MOL0     C17633   1.859   3.146   7.621 -0.5363  0.2267 -0.7887
  872MOL0     C17634   1.942   3.237   7.549 -0.2922  0.5015  0.1291
  872MOL0     N17635   2.491   3.484   7.764 -0.8545  0.7681 -0.0470
  872MOL0     N17636   2.573   3.418   7.836 -0.2706 -0.1949 -0.1300
  872MOL0     C17637   1.991   3.196   8.082 -1.0925  0.4767 -0.5604
  872MOL0     C17638   1.937   3.116   8.184  0.3815 -0.2877  0.3376
  872MOL0     C17639   1.669   2.913   8.464 -0.1679  0.2105  0.1061
  872MOL0     C17640   1.761   2.840   8.537 -0.3257  0.0930 -0.2372
  872MOL0     C17641   1.725   2.775   8.659 -0.1314 -0.4669  0.2820
  872MOL0     C17642   1.589   2.793   8.706  0.1478  0.7322  0.6564
  872MOL0     O17643   1.560   2.726   8.819 -0.6653  0.1399 -0.4215
  872MOL0     C17644   1.451   2.790   8.892 -0.6764  0.4273 -0.2609
  872MOL0     C17645   1.325   2.713   8.881 -0.3818 -0.5615  0.3447
  872MOL0     C17646   1.206   2.789   8.959  0.1877  0.1914  0.5022
  872MOL0     C17647   1.122   2.882   8.870 -0.8698  0.9616 -0.4721
  872MOL0     C17648   1.201   2.989   8.803  0.0007  0.3939 -0.1313
  872MOL0     C17649   1.240   3.091   8.748  0.0100  0.0785  0.4055
  872MOL0     C17650   1.494   2.854   8.619 -0.4917 -0.4829  0.3215
  872MOL0     C17651   1.531   2.914   8.505 -1.0929  0.5333  0.0786
  872MOL0     C17652   1.415   2.983   8.425 -0.4354  0.4638 -0.2885
  872MOL0     H17653   1.823   2.842   8.003  2.5583 -1.8397 -0.7160
  872MOL0     H17654   1.939   2.969   7.833  0.6942  2.9523 -0.6277
  872MOL0     H17655   2.214   3.313   7.782  3.4678 -1.0890  0.4967
  872MOL0     H17656   2.141   3.349   7.944 -1.9100  0.3239 -0.0254
  872MOL0     H17657   2.251   3.186   8.052  0.9164 -5.3409  0.6318
  872MOL0     H17658   2.371   3.275   7.951 -1.1360  0.7022 -1.7682
  872MOL0     H17659   2.347   3.119   7.769  0.4928  2.3734 -0.0560
  872MOL0     H17660   2.234   3.018   7.860 -1.1524  2.5403  0.5400
  872MOL0     H17661   2.408   2.989   8.030  0.4796 -1.2592  0.1053
  872MOL0     H17662   2.433   2.903   7.870  0.0942 -0.6974 -0.0590
  872MOL0     H17663   2.564   3.173   7.945 -3.3687  0.6652  0.5673
  872MOL0     H17664   2.637   3.018   7.987 -1.4538  0.1129  1.2130
  872MOL0     H17665   2.620   2.947   7.741  0.5560 -0.5429  0.4556
  872MOL0     H17666   2.540   3.100   7.701  1.2771 -0.1214 -0.5815
  872MOL0     H17667   2.762   3.099   7.625 -0.8242 -0.0545  0.8400
  872MOL0     H17668   2.822   3.037   7.774 -0.3501  0.3115  3.0103
  872MOL0     H17669   2.765   3.257   7.886 -3.0331  1.2268  0.2438
  872MOL0     H17670   2.863   3.290   7.744  0.4772 -1.6837 -0.6716
  872MOL0     H17671   2.624   3.310   7.521 -2.5701 -1.1009 -1.1483
  872MOL0     H17672   2.426   3.608   7.478 -0.6497  0.0263  0.7557
  872MOL0     H17673   2.462   3.442   7.415  0.6382 -2.3315  1.0317
  872MOL0     H17674   2.268   3.363   7.548 -0.5471  0.2816  2.7121
  872MOL0     H17675   2.241   3.527   7.602 -1.1785 -0.5953 -0.0493
  872MOL0     H17676   2.249   3.486   7.302 -0.0451  1.3967  0.6460
  872MOL0     H17677   2.190   3.627   7.405 -0.6091  1.4969 -2.9705
  872MOL0     H17678   2.061   3.340   7.348  0.7263  0.6350 -2.5025
  872MOL0     H17679   2.027   3.484   7.291 -0.1996 -3.3576 -1.8829
  872MOL0     H17680   1.819   3.525   7.671  0.6688 -0.2919  0.4492
  872MOL0     H17681   1.662   3.372   7.790 -1.1220 -1.3228 -0.7978
  872MOL0     H17682   1.320   3.152   7.763  0.1766 -0.5949 -0.1061
  872MOL0     H17683   1.126   3.007   7.844  1.2853 -0.1568 -2.2644
  872MOL0     H17684   1.121   2.664   8.154  1.9724  0.7867 -2.4347
  872MOL0     H17685   1.193   2.818   8.188  0.4481  1.3294 -2.1511
  872MOL0     H17686   0.980   2.935   8.204 -2.0268 -0.5372  1.1514
  872MOL0     H17687   0.902   2.809   8.107 -1.3024 -0.7178  1.1764
  872MOL0     H17688   0.894   2.664   8.312 -0.6731  0.3051 -2.6973
  872MOL0     H17689   1.031   2.746   8.383  1.1257 -0.8119 -0.7714
  872MOL0     H17690   0.891   2.956   8.397  1.0769 -1.0302  0.0891
  872MOL0     H17691   0.861   2.825   8.505  1.6041 -1.7378 -0.6049
  872MOL0     H17692   0.681   2.871   8.245 -0.8803 -2.8487 -0.2714
  872MOL0     H17693   0.645   2.930   8.412 -3.4437 -1.2024 -1.4362
  872MOL0     H17694   0.659   2.654   8.326  1.5014  0.9891 -1.4287
  872MOL0     H17695   0.672   2.695   8.497 -1.2886 -1.8897 -1.2966
  872MOL0     H17696   0.435   2.828   8.346 -1.6198  1.2175  2.6613
  872MOL0     H17697   0.460   2.793   8.517  1.7409  0.4296  0.2915
  872MOL0     H17698   0.295   2.638   8.377  0.2224  0.2340  0.1495
  872MOL0     H17699   0.437   2.600   8.288  1.4278  0.3866 -0.0633
  872MOL0     H17700   1.370   2.792   8.098 -1.4068 -1.5017 -2.8539
  872MOL0     H17701   1.578   2.922   8.029  1.9215  2.6057 -2.7150
  872MOL0     H17702   1.870   3.040   7.601 -0.2017  0.0855  0.0773
  872MOL0     H17703   2.026   3.195   7.494 -0.6034  0.8511 -0.6178
  872MOL0     H17704   2.020   3.296   8.112 -2.8465  0.2654  2.1598
  872MOL0     H17705   1.944   3.151   8.287  0.0970 -4.6499  2.1034
  872MOL0     H17706   1.860   2.819   8.496 -0.8673 -1.5253 -0.8067
  872MOL0     H17707   1.796   2.711   8.710 -2.9160 -1.1785  3.6694
  872MOL0     H17708   1.435   2.895   8.866 -4.8438 -0.4471 -1.9935
  872MOL0     H17709   1.481   2.794   8.997  1.0320 -3.9060 -0.3722
  872MOL0     H17710   1.347   2.617   8.928  1.2657  0.0196  0.8427
  872MOL0     H17711   1.295   2.695   8.778  1.4798 -0.4884 -0.2403
  872MOL0     H17712   1.248   2.835   9.048  0.3807 -0.8377  0.9537
  872MOL0     H17713   1.133   2.717   8.997 -2.3785  3.6902  2.7856
  872MOL0     H17714   1.072   2.815   8.799 -2.0556 -0.8106  1.8662
  872MOL0     H17715   1.048   2.933   8.933  1.2618  1.8734  1.4213
  872MOL0     H17716   1.288   3.179   8.711  1.2023  0.5937  2.9206
  872MOL0     H17717   1.387   2.854   8.638 -0.8128  0.5213 -1.3034
  872MOL0     H17718   1.441   3.086   8.402 -0.2782  0.0254 -2.1943
  872MOL0     H17719   1.395   2.939   8.327 -0.3000  3.4477 -1.7552
  872MOL0     H17720   1.320   2.979   8.478  0.0688 -7.6119  1.2951
  873MOL0     O17721   9.256   0.003   1.767 -0.4051  0.0582 -0.7240
  873MOL0     C17722   9.302  -0.105   1.754  0.0451 -0.8773  0.4568
  873MOL0     O17723   9.221  -0.216   1.734 -0.6571 -0.5952  0.2960
  873MOL0     C17724   9.085  -0.207   1.738  0.3470 -0.5202 -0.7009
  873MOL0     C17725   9.012  -0.272   1.633 -0.3704 -0.7572  0.0433
  873MOL0     C17726   8.875  -0.287   1.631  0.3397 -0.3900  0.2880
  873MOL0     C17727   8.792  -0.219   1.726 -0.3396  0.1841 -0.2726
  873MOL0     O17728   8.659  -0.232   1.735  0.1056  0.8330  0.2348
  873MOL0     C17729   8.600  -0.342   1.670 -0.6362 -0.5090  0.0418
  873MOL0     C17730   8.446  -0.334   1.709  0.3208 -0.2255 -0.2156
  873MOL0     C17731   8.370  -0.262   1.590 -0.1357 -0.4703 -0.3701
  873MOL0     C17732   8.225  -0.281   1.634  0.1223 -0.7330  0.2072
  873MOL0     C17733   8.133  -0.211   1.520  0.9968 -0.4267  0.2099
  873MOL0     C17734   7.992  -0.199   1.581  0.0852  0.2842  0.6619
  873MOL0     C17735   7.895  -0.301   1.515 -0.2458  0.4679  0.2621
  873MOL0     C17736   7.755  -0.295   1.582  0.9200  0.0795 -0.0533
  873MOL0     N17737   7.649  -0.363   1.508 -0.3411  1.0340  0.0251
  873MOL0     C17738   7.534  -0.408   1.554  0.1161  0.0819  0.9003
  873MOL0     C17739   7.479  -0.476   1.455 -0.0587 -0.6231  0.1443
  873MOL0     C17740   7.351  -0.554   1.465 -0.3038  0.7695 -0.7024
  873MOL0     C17741   7.352  -0.637   1.603  0.2201 -0.3230  0.1356
  873MOL0     C17742   7.476  -0.735   1.603 -0.9359 -0.0163 -0.2876
  873MOL0     C17743   7.475  -0.821   1.734  0.2599 -0.2546 -0.4814
  873MOL0     O17744   7.599  -0.891   1.725  0.5876 -0.2928 -0.3098
  873MOL0     C17745   7.720  -0.829   1.758 -0.0234 -0.0814 -0.1449
  873MOL0     C17746   7.746  -0.698   1.805  0.7041 -0.5183 -0.3657
  873MOL0     C17747   7.883  -0.660   1.829  0.9070  0.3237 -0.2379
  873MOL0     C17748   7.986  -0.751   1.815 -0.2214  0.4369 -0.8345
  873MOL0     C17749   8.124  -0.708   1.851 -0.1667 -0.0697  0.5036
  873MOL0     O17750   8.211  -0.801   1.878  0.6605 -0.3275  0.4590
  873MOL0     C17751   8.343  -0.770   1.883  0.0225  0.5310  0.3697
  873MOL0     C17752   8.422  -0.726   1.774 -0.0408  0.8443  0.4341
  873MOL0     C17753   8.555  -0.691   1.775 -1.0593  0.1648  0.3561
  873MOL0     C17754   8.625  -0.700   1.893  0.1255  0.8289 -0.5818
  873MOL0     O17755   8.755  -0.659   1.877  0.1660  0.2216  0.7971
  873MOL0     C17756   8.839  -0.674   1.991  0.9999 -0.3183  0.4830
  873MOL0     C17757   8.943  -0.573   1.958  0.2391  0.8366  0.6907
  873MOL0     C17758   9.065  -0.578   2.050 -0.5250 -0.4649  0.4760
  873MOL0     C17759   9.185  -0.489   2.000 -0.2225  0.4316  0.5910
  873MOL0     C17760   9.296  -0.482   2.107 -1.0575 -0.1661 -0.1186
  873MOL0     C17761   9.400  -0.369   2.093  0.8047 -0.7735 -0.3549
  873MOL0     C17762   9.486  -0.370   2.215  0.1372  0.2395  0.2066
  873MOL0     C17763   9.609  -0.289   2.203  0.1233 -0.2577 -1.3816
  873MOL0    Cl17764   9.583  -0.110   2.199 -0.2208  0.3038  0.4120
  873MOL0     C17765   8.544  -0.728   2.014 -0.9010 -0.2568  0.0652
  873MOL0     C17766   8.408  -0.768   2.002 -0.2561 -0.4278 -0.0854
  873MOL0     O17767   8.154  -0.590   1.833 -0.1746  0.0877  0.6591
  873MOL0     C17768   7.964  -0.873   1.771  0.7521  0.9053 -2.0920
  873MOL0     C17769   7.832  -0.912   1.735  0.2372  0.2842  0.4139
  873MOL0     N17770   7.557  -0.458   1.343  0.2228  0.6262 -0.4431
  873MOL0     N17771   7.663  -0.396   1.374  0.3839  0.6543  0.3092
  873MOL0     C17772   8.857  -0.141   1.821  0.0475  0.1142  0.5884
  873MOL0     C17773   8.996  -0.146   1.830 -0.2146  0.0210  0.0235
  873MOL0     C17774   9.452  -0.125   1.770  0.6682 -0.1238 -0.6665
  873MOL0     C17775   9.506  -0.228   1.702 -0.1847 -0.3379  0.3968
  873MOL0     C17776   9.648  -0.239   1.685  0.2817 -0.4621  0.6455
  873MOL0     C17777   9.732  -0.149   1.750  0.9549  0.0448  0.2401
  873MOL0     O17778   9.866  -0.146   1.732 -0.0967  0.2447  0.1059
  873MOL0     C17779   9.926  -0.174   1.606 -0.1963 -0.1602 -0.7823
  873MOL0     C17780  10.062  -0.097   1.585 -0.4910 -0.1736  0.1042
  873MOL0     C17781  10.105  -0.098   1.439  0.0630  0.2749 -0.1469
  873MOL0     C17782  10.251  -0.044   1.426  0.2188  0.2264 -0.0869
  873MOL0     C17783  10.261   0.003   1.295  0.0967 -0.1029  0.2237
  873MOL0     C17784  10.252   0.042   1.179 -0.7493 -0.0481 -0.2943
  873MOL0     C17785   9.672  -0.065   1.848  0.1140 -0.1026 -0.5523
  873MOL0     C17786   9.529  -0.039   1.848 -0.8506 -0.4298  0.7007
  873MOL0     C17787   9.475   0.072   1.941  0.2022 -0.7947 -0.4251
  873MOL0     H17788   9.059  -0.338   1.560 -1.0412 -0.4817 -0.6558
  873MOL0     H17789   8.846  -0.356   1.553  0.1209 -0.0874  0.0964
  873MOL0     H17790   8.600  -0.336   1.561 -0.6569 -2.5517 -0.1160
  873MOL0     H17791   8.639  -0.436   1.712 -1.3254  0.3894  2.9786
  873MOL0     H17792   8.432  -0.280   1.803 -2.3018  0.2468 -0.7730
  873MOL0     H17793   8.409  -0.437   1.716  0.4932 -0.2575  0.2173
  873MOL0     H17794   8.386  -0.312   1.494 -1.2677 -1.2551 -0.1697
  873MOL0     H17795   8.397  -0.156   1.591  1.0426 -0.6111  3.6875
  873MOL0     H17796   8.184  -0.382   1.639  1.3366 -1.1702  3.6269
  873MOL0     H17797   8.222  -0.233   1.732 -0.9201  1.2245 -0.7093
  873MOL0     H17798   8.166  -0.113   1.486 -1.6826  1.0100  1.4537
  873MOL0     H17799   8.150  -0.272   1.431  2.6758 -1.7246  1.3537
  873MOL0     H17800   7.998  -0.207   1.690 -0.4595  1.6225  0.8131
  873MOL0     H17801   7.949  -0.101   1.561 -3.1139 -1.1783 -0.3089
  873MOL0     H17802   7.938  -0.402   1.518 -0.1342  0.5120  0.1296
  873MOL0     H17803   7.877  -0.269   1.412 -2.7146  0.6550  0.6705
  873MOL0     H17804   7.754  -0.314   1.690 -0.7727  1.7408  0.2744
  873MOL0     H17805   7.714  -0.194   1.576 -0.6738 -0.3598  2.1025
  873MOL0     H17806   7.496  -0.408   1.656  0.4008  0.1080  1.0075
  873MOL0     H17807   7.265  -0.486   1.463 -2.2287 -1.4787  0.8235
  873MOL0     H17808   7.339  -0.629   1.386  0.4030  0.4441 -0.5018
  873MOL0     H17809   7.346  -0.570   1.690 -2.0684 -0.5572  0.2363
  873MOL0     H17810   7.258  -0.694   1.607 -0.8758  1.3493 -0.5878
  873MOL0     H17811   7.575  -0.687   1.602 -0.6663 -0.5330  0.7420
  873MOL0     H17812   7.460  -0.800   1.516  0.1708 -1.2157  0.3741
  873MOL0     H17813   7.395  -0.895   1.727  0.5036 -0.4496 -1.4488
  873MOL0     H17814   7.464  -0.764   1.827 -0.2875  1.1350 -1.3535
  873MOL0     H17815   7.666  -0.630   1.832 -0.4106 -2.7782  2.5448
  873MOL0     H17816   7.906  -0.572   1.889  1.5984 -1.0041  1.5596
  873MOL0     H17817   8.383  -0.714   1.673  0.7411 -1.0300 -0.1463
  873MOL0     H17818   8.593  -0.671   1.675  1.1552 -0.5661  0.9934
  873MOL0     H17819   8.787  -0.651   2.084  0.5658 -1.3362  0.5087
  873MOL0     H17820   8.881  -0.775   1.996  0.9019 -0.3352  1.0241
  873MOL0     H17821   8.978  -0.607   1.861  2.0738 -0.6446  1.8014
  873MOL0     H17822   8.897  -0.474   1.947 -1.9076 -0.0630  1.0133
  873MOL0     H17823   9.034  -0.538   2.147  1.8188  0.9889  0.6971
  873MOL0     H17824   9.088  -0.684   2.069  1.2088  0.0820  1.6608
  873MOL0     H17825   9.145  -0.388   1.986  0.5722  0.6278 -0.3447
  873MOL0     H17826   9.230  -0.523   1.906  0.4459 -3.2633  2.0779
  873MOL0     H17827   9.360  -0.571   2.109 -1.4851 -0.5022 -0.9243
  873MOL0     H17828   9.246  -0.487   2.204 -1.2449  0.0192 -0.2059
  873MOL0     H17829   9.470  -0.377   2.009  1.0380 -2.4324 -0.0421
  873MOL0     H17830   9.355  -0.271   2.080  1.1186 -0.5817 -0.0094
  873MOL0     H17831   9.507  -0.475   2.236 -1.5340  0.0076  0.9346
  873MOL0     H17832   9.427  -0.339   2.302  0.2641  0.3797  0.2442
  873MOL0     H17833   9.676  -0.310   2.288  0.0863  2.0787 -0.6902
  873MOL0     H17834   9.651  -0.318   2.107 -1.3085 -0.0983 -2.0754
  873MOL0     H17835   8.594  -0.724   2.110 -1.0070 -0.9900  0.1576
  873MOL0     H17836   8.353  -0.804   2.089 -1.5115 -0.0325 -0.6940
  873MOL0     H17837   8.038  -0.951   1.783 -2.5471 -2.1491  1.2620
  873MOL0     H17838   7.816  -1.009   1.689  0.6079  1.2781 -2.0034
  873MOL0     H17839   8.787  -0.096   1.891 -0.7429 -2.0343  1.2377
  873MOL0     H17840   9.047  -0.085   1.904  1.5676 -0.3771 -0.8291
  873MOL0     H17841   9.452  -0.305   1.647  1.8795 -1.8508  0.3889
  873MOL0     H17842   9.688  -0.313   1.618 -1.6519  1.1167 -2.5000
  873MOL0     H17843   9.853  -0.142   1.532 -0.9866  0.6541  0.3180
  873MOL0     H17844   9.953  -0.278   1.582  1.7164  0.7709 -3.1201
  873MOL0     H17845  10.143  -0.143   1.642  1.3495  4.0200  1.2649
  873MOL0     H17846  10.054  -0.000   1.636 -0.2012 -0.2865  0.3635
  873MOL0     H17847  10.031  -0.037   1.386 -0.5040 -0.7337 -0.5683
  873MOL0     H17848  10.099  -0.196   1.390  1.4351  0.3351 -0.4745
  873MOL0     H17849  10.275   0.040   1.492  2.2084 -1.2327  1.1614
  873MOL0     H17850  10.321  -0.124   1.448 -0.7019 -1.4949 -2.8969
  873MOL0     H17851  10.251   0.088   1.083 -1.4572 -0.3018 -0.4141
  873MOL0     H17852   9.734   0.006   1.901 -1.7153  1.6703 -0.6573
  873MOL0     H17853   9.404   0.029   2.011 -0.8044  1.3779 -0.0131
  873MOL0     H17854   9.558   0.118   1.995  0.1557 -0.1839 -0.8562
  873MOL0     H17855   9.430   0.158   1.889 -1.7532 -0.6670  1.3543
  874MOL0     O17856   8.841   7.566   5.899 -0.1140  0.4666  0.0491
  874MOL0     C17857   8.878   7.483   5.977 -0.2858 -0.8574  0.2182
  874MOL0     O17858   9.004   7.480   6.037 -0.1239 -0.1669  0.5705
  874MOL0     C17859   9.111   7.575   6.001  0.6358 -0.1643 -0.4095
  874MOL0     C17860   9.165   7.642   6.109 -0.3508  0.0792 -0.3653
  874MOL0     C17861   9.286   7.707   6.083  1.2839  0.0455  0.1691
  874MOL0     C17862   9.347   7.719   5.956  0.5031 -0.3042 -0.0837
  874MOL0     O17863   9.462   7.801   5.952  0.3847  0.7352 -0.1198
  874MOL0     C17864   9.525   7.823   5.824 -0.0302  0.0351 -0.8411
  874MOL0     C17865   9.637   7.920   5.837  0.5003 -0.2156 -0.4958
  874MOL0     C17866   9.688   7.958   5.705  0.1556 -0.0718  1.1110
  874MOL0     C17867   9.794   8.066   5.730 -0.1240 -0.2985  0.8928
  874MOL0     C17868   9.876   8.071   5.598 -0.6431 -0.3566 -0.0177
  874MOL0     C17869   9.953   8.194   5.606 -0.5087  0.5729  0.3381
  874MOL0     C17870  10.059   8.197   5.486 -0.9432  0.0393  0.2296
  874MOL0     C17871  10.123   8.333   5.464  0.7199  0.3812 -0.7595
  874MOL0     N17872  10.212   8.350   5.348  0.6259  0.3783 -0.5249
  874MOL0     C17873  10.164   8.329   5.219 -0.4711 -0.3604  0.7515
  874MOL0     C17874  10.274   8.307   5.144 -0.5480 -0.3140  0.3096
  874MOL0     C17875  10.292   8.256   5.002 -0.0493 -0.3427 -0.4313
  874MOL0     C17876  10.165   8.280   4.928 -0.0624  0.3060  0.4724
  874MOL0     C17877  10.068   8.163   4.926 -0.9150  0.3390 -0.2175
  874MOL0     C17878   9.931   8.185   4.849 -0.2714 -0.3299  0.1597
  874MOL0     O17879   9.837   8.238   4.943  0.3263  0.7209 -0.6892
  874MOL0     C17880   9.708   8.207   4.918 -0.0216 -0.1966  0.0172
  874MOL0     C17881   9.617   8.305   4.880  0.0300  0.3234 -0.5565
  874MOL0     C17882   9.479   8.271   4.865 -0.1991  0.4001 -0.7102
  874MOL0     C17883   9.438   8.143   4.905 -0.4484 -0.3312  0.3530
  874MOL0     C17884   9.291   8.111   4.923 -0.3138  0.5433 -0.1233
  874MOL0     O17885   9.248   8.016   5.012 -0.7233  0.2003  0.6365
  874MOL0     C17886   9.116   7.985   5.018 -0.2462  0.2144  0.6599
  874MOL0     C17887   9.063   7.968   5.151 -0.5092  0.1505  0.4429
  874MOL0     C17888   8.930   7.949   5.179  0.2305  0.0121  0.3754
  874MOL0     C17889   8.840   7.952   5.073 -0.3882 -0.6756  0.3958
  874MOL0     O17890   8.712   7.936   5.117 -0.0527 -0.3383 -0.3012
  874MOL0     C17891   8.608   7.981   5.037  1.4546  0.0580 -0.4182
  874MOL0     C17892   8.491   8.017   5.125  0.2282  0.2574 -0.6947
  874MOL0     C17893   8.363   8.053   5.048  1.0648 -0.4000 -1.2265
  874MOL0     C17894   8.308   7.936   4.955  0.4264 -0.2548 -0.1311
  874MOL0     C17895   8.311   7.796   5.023 -0.0993 -0.0775  0.5433
  874MOL0     C17896   8.249   7.681   4.948 -0.1285 -0.4779  0.1495
  874MOL0     C17897   8.287   7.659   4.802 -0.0033 -0.5409 -0.3861
  874MOL0     C17898   8.248   7.521   4.759  0.4052  0.0807 -0.1423
  874MOL0    Cl17899   8.074   7.487   4.772  0.1137  0.1903 -0.2129
  874MOL0     C17900   8.877   7.968   4.940  0.4551  0.1311 -0.2133
  874MOL0     C17901   9.018   7.983   4.920  0.5519 -0.2480 -0.2794
  874MOL0     O17902   9.221   8.184   4.860 -0.2784 -0.2371  0.3782
  874MOL0     C17903   9.527   8.044   4.941 -0.1423 -1.0039  0.1709
  874MOL0     C17904   9.661   8.079   4.950 -0.5571 -0.4944  0.0781
  874MOL0     N17905  10.386   8.331   5.227  0.8202  0.0064  0.0444
  874MOL0     N17906  10.347   8.355   5.350 -0.1291 -0.7684  0.2985
  874MOL0     C17907   9.281   7.654   5.846 -0.7652  0.5655  0.1513
  874MOL0     C17908   9.165   7.573   5.864  0.2372 -0.4122  0.0575
  874MOL0     C17909   8.774   7.382   6.020 -0.8440 -0.5311  0.1800
  874MOL0     C17910   8.786   7.339   6.157 -0.5794 -0.0245  0.1093
  874MOL0     C17911   8.691   7.251   6.200  0.4876 -0.0462 -0.5719
  874MOL0     C17912   8.581   7.204   6.126  0.3970  0.7351  0.8679
  874MOL0     O17913   8.496   7.111   6.183  0.4867  0.4512 -0.2761
  874MOL0     C17914   8.366   7.080   6.125  0.1425 -0.2155 -0.5584
  874MOL0     C17915   8.290   7.214   6.116 -0.1439  0.5900  0.5586
  874MOL0     C17916   8.263   7.292   6.251  0.2713  0.0893  1.5190
  874MOL0     C17917   8.191   7.209   6.356  0.6085 -0.0776  0.2442
  874MOL0     C17918   8.066   7.137   6.314 -0.7284  0.0286 -0.4138
  874MOL0     C17919   7.968   7.076   6.280 -0.1601 -0.4836 -0.4038
  874MOL0     C17920   8.586   7.239   5.987 -0.2301 -0.1943 -0.0491
  874MOL0     C17921   8.682   7.327   5.931 -0.8083  0.0800 -0.0099
  874MOL0     C17922   8.696   7.337   5.778  0.3382 -0.4755  0.8797
  874MOL0     H17923   9.121   7.620   6.206  1.0036 -3.9172 -0.4776
  874MOL0     H17924   9.345   7.743   6.166  1.8333 -0.4406 -0.0018
  874MOL0     H17925   9.552   7.734   5.766 -1.4187  1.0560 -3.2361
  874MOL0     H17926   9.451   7.869   5.757 -2.4151 -0.5167  1.2801
  874MOL0     H17927   9.709   7.889   5.912 -2.5100 -2.2781  1.7673
  874MOL0     H17928   9.594   8.010   5.883  3.7878 -0.3269  3.3386
  874MOL0     H17929   9.615   8.002   5.636  0.0883 -0.2167  1.0898
  874MOL0     H17930   9.733   7.870   5.657 -0.0379 -0.2617  1.2755
  874MOL0     H17931   9.747   8.164   5.734  0.3260 -0.0324 -0.0723
  874MOL0     H17932   9.862   8.047   5.814 -1.7519  0.1205  2.3512
  874MOL0     H17933   9.935   7.979   5.591 -0.6799 -0.3784 -0.0422
  874MOL0     H17934   9.821   8.065   5.504 -0.4011  0.2525 -0.2109
  874MOL0     H17935   9.882   8.276   5.591  0.0741  0.8205 -1.2025
  874MOL0     H17936  10.016   8.197   5.695  1.9481  1.1625 -1.3130
  874MOL0     H17937  10.009   8.156   5.398 -2.6677 -0.4489  1.3861
  874MOL0     H17938  10.137   8.125   5.513 -1.3968 -1.2144 -1.6368
  874MOL0     H17939  10.037   8.400   5.452  0.1032 -0.5315 -1.5750
  874MOL0     H17940  10.186   8.368   5.547  3.3899  0.6938 -2.7790
  874MOL0     H17941  10.060   8.305   5.198 -0.0524  0.2377 -2.4417
  874MOL0     H17942  10.372   8.312   4.952  1.3452 -0.3330  1.6998
  874MOL0     H17943  10.309   8.149   5.014 -2.4674 -0.4614  3.5950
  874MOL0     H17944  10.112   8.366   4.969  1.4074  1.1896  0.6173
  874MOL0     H17945  10.192   8.303   4.825  0.3758  1.1120  0.7600
  874MOL0     H17946  10.034   8.139   5.027  4.2790 -3.4141  1.0378
  874MOL0     H17947  10.126   8.079   4.887 -0.9500  0.0039  0.4365
  874MOL0     H17948   9.896   8.091   4.804 -0.0687 -0.1157 -0.4537
  874MOL0     H17949   9.953   8.265   4.778  2.3496  0.6740  1.9457
  874MOL0     H17950   9.657   8.402   4.852  1.2137  0.1376  0.4012
  874MOL0     H17951   9.401   8.347   4.861 -1.1044 -0.4046  0.6164
  874MOL0     H17952   9.138   7.957   5.228 -0.9147 -0.7525  0.7257
  874MOL0     H17953   8.888   7.945   5.279  0.8415 -0.3833  0.6219
  874MOL0     H17954   8.631   8.066   4.973 -0.9648  1.3568  0.3311
  874MOL0     H17955   8.572   7.905   4.967  0.3973  0.7444 -0.6392
  874MOL0     H17956   8.478   7.936   5.197 -1.2588 -0.8020 -2.0823
  874MOL0     H17957   8.517   8.102   5.189  0.1657 -0.2302 -0.0058
  874MOL0     H17958   8.287   8.097   5.112  2.0007  0.5898 -0.7507
  874MOL0     H17959   8.395   8.137   4.985 -0.1668  1.2039  0.2143
  874MOL0     H17960   8.366   7.931   4.862  0.0659  1.3896 -0.4676
  874MOL0     H17961   8.207   7.967   4.927  0.1283 -0.7745  0.3621
  874MOL0     H17962   8.262   7.806   5.120 -0.9510 -1.6534  0.3036
  874MOL0     H17963   8.415   7.765   5.034  0.6260  2.0953  0.2794
  874MOL0     H17964   8.269   7.589   5.004 -1.0464 -1.3698 -0.9110
  874MOL0     H17965   8.142   7.705   4.946  0.0863  0.6244  0.9489
  874MOL0     H17966   8.395   7.671   4.790 -0.0409  0.1659 -0.0943
  874MOL0     H17967   8.241   7.726   4.728 -0.2554 -1.2657 -0.8970
  874MOL0     H17968   8.281   7.513   4.655 -0.6726  2.2997 -0.7251
  874MOL0     H17969   8.299   7.445   4.818 -0.9454  0.9446  2.3030
  874MOL0     H17970   8.812   7.967   4.853  0.2983  0.1769 -0.0965
  874MOL0     H17971   9.050   8.012   4.821  0.2723 -1.1520 -0.6453
  874MOL0     H17972   9.493   7.942   4.958 -0.2226 -0.8374  1.0477
  874MOL0     H17973   9.732   8.006   4.987  1.2953  1.0084 -0.3027
  874MOL0     H17974   9.336   7.672   5.753  1.8136 -2.0566  0.9848
  874MOL0     H17975   9.122   7.509   5.788 -0.1092  0.1224 -0.1948
  874MOL0     H17976   8.864   7.377   6.223 -1.8134 -1.3311  2.4262
  874MOL0     H17977   8.701   7.220   6.304  0.5140 -1.1094 -0.8758
  874MOL0     H17978   8.318   7.008   6.193  2.5144  0.6285  2.2324
  874MOL0     H17979   8.369   7.039   6.024 -2.8423 -0.4348 -0.6534
  874MOL0     H17980   8.191   7.189   6.075  0.2733  0.9834 -0.7555
  874MOL0     H17981   8.336   7.287   6.048  1.2143  0.5120  1.3658
  874MOL0     H17982   8.210   7.385   6.230  0.9900  0.5000  1.4718
  874MOL0     H17983   8.362   7.317   6.291  0.6066  1.8692 -0.2172
  874MOL0     H17984   8.264   7.139   6.396 -1.4415 -2.9232 -0.7151
  874MOL0     H17985   8.151   7.280   6.430 -3.7261 -0.5222 -1.3648
  874MOL0     H17986   7.889   7.016   6.240  0.3978  0.9302 -3.9249
  874MOL0     H17987   8.535   7.175   5.915  1.3112 -1.2158 -0.2695
  874MOL0     H17988   8.737   7.434   5.746 -0.0862 -0.4429  0.4264
  874MOL0     H17989   8.769   7.271   5.730 -0.3544  1.5259 -3.4500
  874MOL0     H17990   8.598   7.317   5.734 -0.0371 -0.0222  1.4909
  875MOL0     O17991   6.119   3.481   5.497  0.1271  0.0724 -0.1704
  875MOL0     C17992   6.006   3.494   5.445 -0.6310 -0.4567 -0.6921
  875MOL0     O17993   5.933   3.385   5.379 -0.3897  0.4992  0.3862
  875MOL0     C17994   6.000   3.262   5.389 -0.3304  0.0336 -0.5993
  875MOL0     C17995   5.954   3.149   5.457  0.4314 -0.3256 -0.1118
  875MOL0     C17996   6.033   3.028   5.474  0.4210 -0.6045 -0.7854
  875MOL0     C17997   6.153   3.013   5.418  0.1144  0.2837 -1.2539
  875MOL0     O17998   6.213   2.890   5.436  0.3912  0.0566 -0.1519
  875MOL0     C17999   6.316   2.848   5.350 -0.1528  0.1124  1.0653
  875MOL0     C18000   6.452   2.889   5.400 -0.5728 -0.7623 -0.0179
  875MOL0     C18001   6.571   2.864   5.315  0.2002 -0.5604 -0.3956
  875MOL0     C18002   6.703   2.872   5.385  0.1802 -0.4586 -0.0625
  875MOL0     C18003   6.827   2.884   5.293  0.3990  0.9278  0.3255
  875MOL0     C18004   6.951   2.935   5.367 -0.3264 -0.7507  0.5767
  875MOL0     C18005   7.061   2.962   5.268  0.3819 -0.2484  0.0012
  875MOL0     C18006   7.189   3.041   5.332  0.0207 -0.5885  0.5148
  875MOL0     N18007   7.302   3.041   5.245 -0.3908 -0.1431 -0.4224
  875MOL0     C18008   7.339   3.144   5.167  0.3144  0.4203 -0.3933
  875MOL0     C18009   7.399   3.086   5.062 -0.4638 -0.1884 -0.2663
  875MOL0     C18010   7.426   3.175   4.945 -0.0573  0.3957 -0.1147
  875MOL0     C18011   7.569   3.199   4.909 -0.2254  0.2910 -0.0035
  875MOL0     C18012   7.653   3.305   4.989 -0.4137  0.1140 -0.1087
  875MOL0     C18013   7.698   3.262   5.137  0.1800 -0.0514  0.6962
  875MOL0     O18014   7.773   3.136   5.149 -0.2977 -0.1932  0.0359
  875MOL0     C18015   7.913   3.124   5.130  0.8353  0.2800 -0.3843
  875MOL0     C18016   8.002   3.229   5.123 -0.2010  0.6880 -0.8732
  875MOL0     C18017   8.137   3.202   5.117  0.6756  0.2894  0.0008
  875MOL0     C18018   8.182   3.077   5.092  0.6914  0.3448 -0.3080
  875MOL0     C18019   8.321   3.054   5.063 -0.0546  1.4266 -0.0125
  875MOL0     O18020   8.350   2.936   4.993  0.4712  0.8790  0.6693
  875MOL0     C18021   8.469   2.910   4.938  0.3493  0.5722  0.1507
  875MOL0     C18022   8.590   2.952   4.999  0.0165 -0.2000 -0.3826
  875MOL0     C18023   8.713   2.910   4.948  0.1541  0.1713  0.1948
  875MOL0     C18024   8.730   2.838   4.828  0.2633 -0.3143 -0.0647
  875MOL0     O18025   8.853   2.805   4.780  0.4722  0.8991  0.2727
  875MOL0     C18026   8.897   2.807   4.643  0.5118  0.5744  0.5265
  875MOL0     C18027   9.019   2.900   4.630  1.2058 -0.1083 -0.2968
  875MOL0     C18028   9.039   2.934   4.485  0.5215 -0.3547  0.3059
  875MOL0     C18029   9.182   2.999   4.480  0.1799 -1.0872  1.0539
  875MOL0     C18030   9.204   3.058   4.335  0.1612  0.3234 -0.2517
  875MOL0     C18031   9.352   3.081   4.321  0.7860 -0.2880  0.1706
  875MOL0     C18032   9.391   3.114   4.174 -0.3329 -0.0519  0.2836
  875MOL0     C18033   9.536   3.100   4.167 -0.1227 -0.7966 -0.1423
  875MOL0    Cl18034   9.585   3.126   3.993 -0.6587  0.1274  0.1119
  875MOL0     C18035   8.614   2.808   4.767  0.3074  0.2300 -0.4824
  875MOL0     C18036   8.486   2.830   4.817 -0.3479 -0.5568 -0.0505
  875MOL0     O18037   8.397   3.146   5.088 -0.4609 -0.1250  0.1190
  875MOL0     C18038   8.094   2.970   5.093  0.2846  0.4776 -0.3331
  875MOL0     C18039   7.962   2.994   5.116 -0.0036  0.2280 -0.1668
  875MOL0     N18040   7.417   2.952   5.081  0.0191 -0.0680  0.8836
  875MOL0     N18041   7.362   2.934   5.189  0.9353 -0.3491 -0.1297
  875MOL0     C18042   6.202   3.126   5.350  1.2426  0.1920  0.1319
  875MOL0     C18043   6.128   3.248   5.327 -0.2574  1.1217  0.0902
  875MOL0     C18044   5.925   3.624   5.453  0.8042 -0.1506  0.0707
  875MOL0     C18045   5.790   3.617   5.393 -0.1378  0.2630  0.0745
  875MOL0     C18046   5.710   3.735   5.370  0.2777  0.0520 -0.1844
  875MOL0     C18047   5.753   3.862   5.413 -0.2726 -0.1280 -0.9791
  875MOL0     O18048   5.668   3.973   5.409 -0.8696  0.4954 -0.8169
  875MOL0     C18049   5.687   4.067   5.514 -0.5134 -0.0827 -0.3134
  875MOL0     C18050   5.620   4.000   5.632 -0.3841 -0.3732 -0.3385
  875MOL0     C18051   5.616   4.078   5.765  0.1228 -0.0706 -0.8127
  875MOL0     C18052   5.540   4.015   5.880  0.2660 -1.0648 -0.9067
  875MOL0     C18053   5.397   4.048   5.875 -0.9498  0.2007 -0.2174
  875MOL0     C18054   5.281   4.069   5.877  0.3931 -0.0595  0.7044
  875MOL0     C18055   5.884   3.866   5.469  0.8830 -0.2935  0.2805
  875MOL0     C18056   5.967   3.755   5.486  0.2288  0.1295 -0.5069
  875MOL0     C18057   6.108   3.775   5.536  0.4705 -0.2323  0.0638
  875MOL0     H18058   5.859   3.153   5.508 -0.1615  0.6015 -1.2694
  875MOL0     H18059   5.996   2.953   5.543  0.9862  2.6499  3.5109
  875MOL0     H18060   6.314   2.739   5.351  0.7269  0.0874  0.9483
  875MOL0     H18061   6.299   2.890   5.251 -0.1148  0.3421  1.1551
  875MOL0     H18062   6.456   2.850   5.503  0.7144  1.5555  0.8676
  875MOL0     H18063   6.452   2.996   5.419 -0.6090 -0.9821  1.3321
  875MOL0     H18064   6.561   2.935   5.231 -1.0752  0.2129  0.3709
  875MOL0     H18065   6.568   2.765   5.268 -0.0110 -1.2145  0.9663
  875MOL0     H18066   6.707   2.959   5.451  0.7289  0.6453 -1.4843
  875MOL0     H18067   6.716   2.783   5.447  0.7174  1.8725  3.4881
  875MOL0     H18068   6.855   2.789   5.246 -0.1140  2.0505 -2.4466
  875MOL0     H18069   6.798   2.950   5.211 -5.6108 -0.7241  0.6851
  875MOL0     H18070   6.930   3.024   5.426 -0.1320  1.2134 -2.1371
  875MOL0     H18071   6.984   2.855   5.434  0.1781  0.6752  2.1124
  875MOL0     H18072   7.024   3.023   5.184  0.5442 -1.5655 -1.0699
  875MOL0     H18073   7.077   2.866   5.219  1.1175  0.2907 -0.8502
  875MOL0     H18074   7.166   3.139   5.372  1.4868 -0.3276  0.7933
  875MOL0     H18075   7.226   2.989   5.421  0.3943  0.9705  1.2911
  875MOL0     H18076   7.307   3.247   5.181  0.1486  0.5650 -1.7312
  875MOL0     H18077   7.373   3.124   4.864 -1.3148 -3.0893  2.6536
  875MOL0     H18078   7.386   3.274   4.964  1.1123  0.9607 -0.4857
  875MOL0     H18079   7.625   3.105   4.913  1.9140  1.3271 -2.4735
  875MOL0     H18080   7.574   3.237   4.807  1.6977  2.1430  0.7138
  875MOL0     H18081   7.595   3.397   4.986 -0.6752 -0.0030  0.9517
  875MOL0     H18082   7.747   3.327   4.936 -0.1569 -0.5059  0.0706
  875MOL0     H18083   7.600   3.232   5.177 -1.2561 -1.9420 -3.5571
  875MOL0     H18084   7.738   3.346   5.194  0.5153 -1.7701  3.1199
  875MOL0     H18085   7.971   3.332   5.139  0.7150  1.0174 -1.1611
  875MOL0     H18086   8.200   3.291   5.118  0.0184  0.8144  2.3833
  875MOL0     H18087   8.602   3.008   5.091  2.1569  1.2211 -1.4171
  875MOL0     H18088   8.802   2.960   4.985  0.6732 -0.9236  0.4493
  875MOL0     H18089   8.915   2.701   4.623 -1.5546  0.2910 -0.1398
  875MOL0     H18090   8.820   2.837   4.572 -2.5066  0.6081  3.5363
  875MOL0     H18091   9.006   2.988   4.693  4.7968 -1.0067  2.0251
  875MOL0     H18092   9.106   2.845   4.666 -0.1015 -1.4297  0.9935
  875MOL0     H18093   9.028   2.854   4.411  0.9658  1.1583 -1.4721
  875MOL0     H18094   8.958   3.004   4.463  1.6870  1.0358  0.2283
  875MOL0     H18095   9.250   2.916   4.500  2.4512  0.5391  0.4915
  875MOL0     H18096   9.209   3.076   4.552  1.1409  4.2776 -4.2270
  875MOL0     H18097   9.153   3.155   4.330  1.5379  1.0391 -1.2714
  875MOL0     H18098   9.166   2.994   4.255  1.3264  0.2721 -0.7801
  875MOL0     H18099   9.382   3.160   4.390 -2.2995  0.1042  1.2094
  875MOL0     H18100   9.415   2.995   4.346  2.9137  0.4385 -2.2088
  875MOL0     H18101   9.365   3.214   4.137 -1.8631 -0.9776 -1.2925
  875MOL0     H18102   9.352   3.037   4.107  1.2844  0.1345 -0.9365
  875MOL0     H18103   9.580   3.182   4.223  1.8178  0.1069 -2.7620
  875MOL0     H18104   9.579   3.007   4.206 -2.1435 -2.6052 -1.9361
  875MOL0     H18105   8.625   2.750   4.676 -1.5550 -1.8370  0.5103
  875MOL0     H18106   8.398   2.795   4.764  0.1209 -0.4803 -0.8958
  875MOL0     H18107   8.132   2.870   5.076  0.9482 -0.1689  3.7960
  875MOL0     H18108   7.896   2.909   5.115  0.0997  0.0403  2.2448
  875MOL0     H18109   6.299   3.120   5.303  1.0612 -0.3774 -0.1770
  875MOL0     H18110   6.177   3.325   5.269  1.2221 -0.3498 -0.7052
  875MOL0     H18111   5.754   3.532   5.335 -1.5333  0.8654  0.0034
  875MOL0     H18112   5.611   3.722   5.327 -0.2479  0.9214  0.7218
  875MOL0     H18113   5.650   4.168   5.493  0.5315  0.5220  0.6074
  875MOL0     H18114   5.791   4.087   5.543 -0.7314  2.5607 -1.0200
  875MOL0     H18115   5.682   3.914   5.659  2.6761  2.0186  0.8859
  875MOL0     H18116   5.521   3.973   5.594 -0.3410  0.2749 -0.9419
  875MOL0     H18117   5.573   4.177   5.748  1.8195  0.4202 -2.5946
  875MOL0     H18118   5.723   4.090   5.783  0.2644  0.2848 -1.8361
  875MOL0     H18119   5.558   3.907   5.883  0.2502 -1.1231 -2.1587
  875MOL0     H18120   5.575   4.051   5.977 -0.6422  1.3495 -1.3894
  875MOL0     H18121   5.176   4.090   5.884  0.1112 -1.3028  0.4163
  875MOL0     H18122   5.927   3.965   5.479  1.2156 -0.5558  1.6492
  875MOL0     H18123   6.119   3.726   5.633 -0.9925  2.7697  1.8874
  875MOL0     H18124   6.180   3.761   5.455 -0.2514  2.1391 -1.0897
  875MOL0     H18125   6.127   3.878   5.568  3.8929 -0.9895  0.8820
  876MOL0     O18126   1.883   8.502  10.815 -0.1440  0.9344  0.0301
  876MOL0     C18127   1.885   8.473  10.933  0.5593  0.3040 -0.8385
  876MOL0     O18128   1.796   8.512  11.024  0.5238  0.2942 -0.1213
  876MOL0     C18129   1.681   8.573  10.979 -0.0222 -0.5781  0.2317
  876MOL0     C18130   1.573   8.503  10.921 -0.4336  0.7593 -0.4297
  876MOL0     C18131   1.453   8.569  10.880  0.4505  0.2257  0.5324
  876MOL0     C18132   1.448   8.711  10.902  0.2221  0.2700  0.2856
  876MOL0     O18133   1.337   8.788  10.871  0.0954 -1.1868 -0.1847
  876MOL0     C18134   1.204   8.728  10.848 -0.1751 -0.0217  1.0364
  876MOL0     C18135   1.095   8.827  10.896  0.1699 -0.8726  0.4159
  876MOL0     C18136   0.993   8.766  10.998  0.1102 -0.9496 -0.2439
  876MOL0     C18137   0.897   8.865  11.064 -0.5619  0.1829 -0.2326
  876MOL0     C18138   0.813   8.810  11.176 -0.4105 -0.1294  0.2582
  876MOL0     C18139   0.794   8.908  11.300 -0.8443 -0.1452  0.2243
  876MOL0     C18140   0.703   8.867  11.413 -0.2665  0.5045  0.3250
  876MOL0     C18141   0.747   8.733  11.478  0.8324 -0.8220 -0.7085
  876MOL0     N18142   0.870   8.743  11.539 -0.4160 -0.3787 -0.1466
  876MOL0     C18143   0.898   8.815  11.654  0.0492  0.4344  0.2790
  876MOL0     C18144   1.030   8.794  11.673  0.1280  0.0486  0.3315
  876MOL0     C18145   1.121   8.855  11.776  0.1503  0.1196 -0.0309
  876MOL0     C18146   1.177   8.745  11.872  0.4635  0.6889  0.3867
  876MOL0     C18147   1.249   8.620  11.814  0.4476  1.1192 -0.0578
  876MOL0     C18148   1.371   8.660  11.728 -0.3924 -0.2959 -0.2036
  876MOL0     O18149   1.469   8.732  11.806  0.5254 -0.7909  0.1834
  876MOL0     C18150   1.592   8.751  11.751  0.0795 -0.8749 -0.1519
  876MOL0     C18151   1.632   8.732  11.619 -0.0579  0.7416  0.9485
  876MOL0     C18152   1.757   8.773  11.573 -0.1430 -0.1066 -0.4099
  876MOL0     C18153   1.853   8.814  11.668 -0.2077  0.4991 -0.1390
  876MOL0     C18154   1.990   8.846  11.627 -0.1030  0.2625 -0.3331
  876MOL0     O18155   2.070   8.875  11.734  0.0992  0.4614  0.0064
  876MOL0     C18156   2.208   8.889  11.714  0.0623 -0.3960 -0.8098
  876MOL0     C18157   2.279   9.007  11.712 -0.7468 -0.5614  0.2968
  876MOL0     C18158   2.409   9.018  11.672  0.4502 -0.0421  0.4617
  876MOL0     C18159   2.477   8.904  11.628 -1.1232  0.2051  0.0971
  876MOL0     O18160   2.613   8.919  11.611 -0.0277 -0.0854  0.0180
  876MOL0     C18161   2.683   8.823  11.529  0.8953  0.4834  0.6016
  876MOL0     C18162   2.827   8.864  11.527 -1.0057 -0.0749  0.2777
  876MOL0     C18163   2.875   8.879  11.668  0.5557 -0.6176 -0.4509
  876MOL0     C18164   3.025   8.904  11.695  0.3789  0.2180  0.6309
  876MOL0     C18165   3.058   8.857  11.842  0.3949  0.0760  0.3734
  876MOL0     C18166   3.198   8.895  11.897  0.1134  0.2067 -0.7244
  876MOL0     C18167   3.319   8.865  11.812 -0.1350 -0.2380  0.3635
  876MOL0     C18168   3.442   8.859  11.889 -0.5887  0.4586 -0.3024
  876MOL0    Cl18169   3.565   8.803  11.771  0.6489  0.0633  0.2438
  876MOL0     C18170   2.416   8.783  11.656  0.2253  1.0115  0.0626
  876MOL0     C18171   2.286   8.776  11.699 -0.1884 -0.2442  0.7181
  876MOL0     O18172   2.030   8.836  11.512  0.4323 -0.1079 -0.0264
  876MOL0     C18173   1.814   8.823  11.805  0.2715 -0.2380  0.1148
  876MOL0     C18174   1.682   8.800  11.846 -1.1504  0.4874  0.2501
  876MOL0     N18175   1.078   8.719  11.560  0.4310 -0.2042 -0.3181
  876MOL0     N18176   0.978   8.693  11.481 -0.6970  0.0075  0.0719
  876MOL0     C18177   1.558   8.776  10.950 -1.5988  0.2506  0.2555
  876MOL0     C18178   1.673   8.709  10.983  0.0419 -0.6110 -0.1885
  876MOL0     C18179   2.011   8.401  10.978  0.2785 -0.0302  0.3996
  876MOL0     C18180   2.099   8.455  11.074  0.0156  0.8388 -0.0838
  876MOL0     C18181   2.223   8.388  11.108  0.5337  0.3677 -0.5582
  876MOL0     C18182   2.261   8.276  11.039  0.6176 -0.2470 -0.0296
  876MOL0     O18183   2.378   8.204  11.065 -0.5765 -0.0894  0.1037
  876MOL0     C18184   2.474   8.242  11.170  0.2111 -0.2607 -0.6235
  876MOL0     C18185   2.605   8.150  11.164  0.5051  0.7585 -0.0275
  876MOL0     C18186   2.573   8.005  11.204 -0.0540 -0.3671  0.4322
  876MOL0     C18187   2.672   7.894  11.144 -0.5267  0.9234 -0.3069
  876MOL0     C18188   2.659   7.765  11.219 -0.5877  0.5787 -0.3815
  876MOL0     C18189   2.643   7.655  11.266 -0.3805  0.9975  0.5994
  876MOL0     C18190   2.162   8.222  10.954  0.0792 -0.0675  0.1809
  876MOL0     C18191   2.040   8.279  10.930  0.3495 -0.4557  0.1081
  876MOL0     C18192   1.951   8.191  10.841  0.2031 -0.1274 -0.1509
  876MOL0     H18193   1.576   8.397  10.898 -2.8004  0.7440 -0.9728
  876MOL0     H18194   1.374   8.527  10.819  0.4446  2.4693 -1.1181
  876MOL0     H18195   1.193   8.705  10.742  1.8840 -1.1152  1.0132
  876MOL0     H18196   1.189   8.639  10.910 -0.9282  0.9203  2.2563
  876MOL0     H18197   1.050   8.860  10.802  5.0752  4.0024 -0.7127
  876MOL0     H18198   1.141   8.916  10.939  2.3106 -0.9491 -1.5589
  876MOL0     H18199   1.057   8.717  11.072  0.9430  1.4067  0.6853
  876MOL0     H18200   0.924   8.704  10.940 -0.9370 -1.2433  1.2542
  876MOL0     H18201   0.959   8.943  11.110  1.6572 -2.3291  1.3269
  876MOL0     H18202   0.822   8.913  11.000 -4.1302 -0.9600  2.7362
  876MOL0     H18203   0.714   8.778  11.142 -1.0984  0.3426  1.7061
  876MOL0     H18204   0.861   8.723  11.223  3.2618  1.9106  0.6293
  876MOL0     H18205   0.891   8.926  11.347 -0.4098 -1.5008 -0.0957
  876MOL0     H18206   0.755   9.003  11.263 -1.1452  0.0676  1.0740
  876MOL0     H18207   0.603   8.844  11.375  0.0108  2.1116 -1.5144
  876MOL0     H18208   0.695   8.949  11.484 -0.3534 -0.6701  1.7201
  876MOL0     H18209   0.665   8.714  11.548  1.6833  2.4060  1.3815
  876MOL0     H18210   0.749   8.648  11.409 -1.3486 -0.9163 -0.7327
  876MOL0     H18211   0.820   8.862  11.714 -0.9385 -2.3365  1.3329
  876MOL0     H18212   1.213   8.900  11.737  0.2659 -0.1827 -0.1084
  876MOL0     H18213   1.056   8.931  11.820 -1.5061 -0.0587 -2.0377
  876MOL0     H18214   1.240   8.790  11.949  2.3578  2.1938 -1.8946
  876MOL0     H18215   1.087   8.697  11.914  1.5727 -1.5900  0.3431
  876MOL0     H18216   1.187   8.567  11.740  1.7544  0.1438 -0.5012
  876MOL0     H18217   1.286   8.557  11.895 -0.0186 -0.2205 -0.8495
  876MOL0     H18218   1.333   8.732  11.656  1.4491 -0.0157 -0.9530
  876MOL0     H18219   1.424   8.577  11.681 -1.6736 -1.2348 -0.0539
  876MOL0     H18220   1.567   8.691  11.543  0.6773 -0.1093  0.7588
  876MOL0     H18221   1.773   8.765  11.466 -0.9367  1.2902 -0.6715
  876MOL0     H18222   2.233   9.096  11.755 -2.5311 -1.0715 -0.4650
  876MOL0     H18223   2.464   9.110  11.687  1.0187 -0.1662 -0.7880
  876MOL0     H18224   2.669   8.726  11.577  1.4214  0.1566  0.1150
  876MOL0     H18225   2.648   8.810  11.426 -0.7939 -1.3595  1.3497
  876MOL0     H18226   2.886   8.790  11.472  2.0174  0.5595  2.4556
  876MOL0     H18227   2.841   8.956  11.470 -0.2888 -1.2720 -1.5845
  876MOL0     H18228   2.823   8.964  11.714  3.3068  0.5060  0.8812
  876MOL0     H18229   2.849   8.782  11.711 -0.7605 -0.0874  0.0014
  876MOL0     H18230   3.051   9.010  11.681  2.2298 -0.4082 -1.1588
  876MOL0     H18231   3.087   8.851  11.622  0.6156 -0.7475  1.5198
  876MOL0     H18232   3.044   8.749  11.845 -1.1733  0.2485  0.0909
  876MOL0     H18233   2.988   8.897  11.915  1.6226  1.3622  0.8890
  876MOL0     H18234   3.187   9.001  11.918 -1.0688 -0.3616  1.8710
  876MOL0     H18235   3.209   8.854  11.998  0.7018  2.9570  0.4126
  876MOL0     H18236   3.316   8.945  11.738 -1.7473 -0.7291 -0.1368
  876MOL0     H18237   3.302   8.771  11.758  1.9219 -0.1074 -0.6355
  876MOL0     H18238   3.463   8.954  11.938 -3.6408  0.5290  1.0813
  876MOL0     H18239   3.441   8.777  11.962  3.6570 -0.7656 -1.3129
  876MOL0     H18240   2.471   8.690  11.665 -0.4509  0.6615  0.6845
  876MOL0     H18241   2.230   8.685  11.715 -0.7576  0.1768  1.1909
  876MOL0     H18242   1.877   8.871  11.879 -0.6688  0.7546  0.2901
  876MOL0     H18243   1.646   8.844  11.938  0.9790  1.5230  0.6546
  876MOL0     H18244   1.560   8.883  10.966  4.2820  0.3742  0.7554
  876MOL0     H18245   1.765   8.748  11.024  1.0214 -2.6604 -0.3121
  876MOL0     H18246   2.085   8.545  11.133  2.8135  1.9035 -0.8716
  876MOL0     H18247   2.287   8.435  11.183 -1.9620  2.8899  0.1960
  876MOL0     H18248   2.432   8.240  11.271  0.9828  0.7928 -0.2778
  876MOL0     H18249   2.504   8.345  11.151 -1.0348 -0.3493 -3.8365
  876MOL0     H18250   2.684   8.203  11.218 -0.1136  0.9641  0.6956
  876MOL0     H18251   2.626   8.134  11.058  0.0194  1.6447 -0.2662
  876MOL0     H18252   2.479   7.972  11.160  2.0561 -3.3869 -2.3011
  876MOL0     H18253   2.577   8.004  11.314  1.1673  2.3762  0.5000
  876MOL0     H18254   2.646   7.865  11.042  3.2419  1.6822 -1.6420
  876MOL0     H18255   2.777   7.924  11.143  0.3588 -1.6151  2.2662
  876MOL0     H18256   2.622   7.561  11.314 -1.9335  1.0244  0.0416
  876MOL0     H18257   2.191   8.124  10.918 -1.8875 -0.9756  0.9899
  876MOL0     H18258   1.995   8.091  10.839  3.3687  1.1367  0.5535
  876MOL0     H18259   1.850   8.182  10.882  0.6140 -1.5117  0.6278
  876MOL0     H18260   1.947   8.234  10.740  6.4045  0.1824 -0.6424
  877MOL0     O18261   2.005   1.928   5.141  0.3247 -0.2029  0.2177
  877MOL0     C18262   1.970   1.817   5.094  0.0738  0.1523 -0.5427
  877MOL0     O18263   2.058   1.721   5.038  0.3413  0.0493 -0.1127
  877MOL0     C18264   2.195   1.750   5.017  0.1847  0.3935  0.2934
  877MOL0     C18265   2.257   1.878   5.004  0.5166  0.8016 -0.3478
  877MOL0     C18266   2.399   1.886   5.009  0.6438 -0.3350  0.4432
  877MOL0     C18267   2.478   1.769   5.004 -0.2896  0.1931 -0.2215
  877MOL0     O18268   2.615   1.766   5.004 -0.2604  0.7044  0.4046
  877MOL0     C18269   2.687   1.889   4.988  0.1190 -0.2549 -0.0291
  877MOL0     C18270   2.835   1.868   4.975 -0.7168  0.1036 -0.4661
  877MOL0     C18271   2.896   1.798   5.102  0.7150 -0.0083 -0.3596
  877MOL0     C18272   3.049   1.784   5.095 -0.1020  0.9046 -0.2210
  877MOL0     C18273   3.102   1.726   5.234 -0.4624  0.5420 -0.0895
  877MOL0     C18274   3.076   1.582   5.246 -0.3499 -1.1187  0.7110
  877MOL0     C18275   3.147   1.486   5.149  0.8677 -0.9800  0.0167
  877MOL0     C18276   3.292   1.502   5.142  0.7868 -0.0789  0.1428
  877MOL0     N18277   3.353   1.410   5.054  0.2540 -0.8677 -0.4253
  877MOL0     C18278   3.353   1.271   5.049  0.8952 -0.1345 -0.2395
  877MOL0     C18279   3.431   1.241   4.941 -0.0072  1.0946  0.4281
  877MOL0     C18280   3.442   1.104   4.872  0.0487 -1.3331 -0.9523
  877MOL0     C18281   3.566   1.038   4.919 -0.2325 -1.2734  0.3734
  877MOL0     C18282   3.592   0.917   4.829 -0.1982  0.1574  0.0739
  877MOL0     C18283   3.723   0.844   4.864 -0.0348 -0.1871 -0.2971
  877MOL0     O18284   3.726   0.719   4.789  0.0622  0.8724  0.1464
  877MOL0     C18285   3.833   0.642   4.825  0.6525 -0.1195 -0.0176
  877MOL0     C18286   3.821   0.531   4.901 -0.0503  0.0048 -0.7673
  877MOL0     C18287   3.936   0.457   4.934  0.3225  0.1172 -0.6071
  877MOL0     C18288   4.066   0.496   4.879  0.5033  0.0710 -0.3319
  877MOL0     C18289   4.185   0.417   4.907  0.1918 -0.2145 -0.1776
  877MOL0     O18290   4.297   0.456   4.843 -0.0687 -0.3277 -0.5883
  877MOL0     C18291   4.397   0.359   4.844  0.4871 -0.2987  1.2682
  877MOL0     C18292   4.449   0.331   4.708 -0.3226 -0.3722 -0.1910
  877MOL0     C18293   4.557   0.245   4.694 -0.6522 -0.4570 -0.0504
  877MOL0     C18294   4.619   0.193   4.811 -0.2701 -0.4710  0.9773
  877MOL0     O18295   4.726   0.104   4.781 -0.5795 -0.0021  0.0520
  877MOL0     C18296   4.779   0.017   4.888 -0.4684 -0.0093  0.4811
  877MOL0     C18297   4.891  -0.076   4.845  0.0336 -0.1548 -0.4559
  877MOL0     C18298   5.007   0.010   4.794 -0.6510 -0.2157  0.2313
  877MOL0     C18299   5.123  -0.062   4.715 -0.5880 -0.6967  1.0983
  877MOL0     C18300   5.202  -0.147   4.808 -0.1183  0.3262  0.9555
  877MOL0     C18301   5.332  -0.203   4.746 -0.2301  0.3128  0.6375
  877MOL0     C18302   5.422  -0.272   4.847 -0.8173  0.1499 -0.0593
  877MOL0     C18303   5.494  -0.176   4.948 -0.0198  0.4308  0.5521
  877MOL0    Cl18304   5.531  -0.275   5.096  0.1245 -0.2946 -0.3867
  877MOL0     C18305   4.574   0.236   4.936 -0.1178 -0.0656  0.8256
  877MOL0     C18306   4.461   0.317   4.950 -1.1154 -0.2134  0.5419
  877MOL0     O18307   4.166   0.315   4.974 -0.4421 -0.1366 -0.7207
  877MOL0     C18308   4.075   0.619   4.807 -0.4800 -0.1940  0.6859
  877MOL0     C18309   3.957   0.682   4.779 -0.1667 -0.1305  0.2039
  877MOL0     N18310   3.486   1.362   4.890  0.1196 -0.1886  0.4642
  877MOL0     N18311   3.437   1.461   4.957  0.6368 -0.1534 -0.2180
  877MOL0     C18312   2.415   1.643   5.013 -0.5769 -0.1264  0.0560
  877MOL0     C18313   2.274   1.636   5.016  0.2856 -1.4371 -0.9196
  877MOL0     C18314   1.824   1.782   5.096  0.3978 -0.6721 -0.5516
  877MOL0     C18315   1.793   1.645   5.085  0.5924 -0.1490  0.0535
  877MOL0     C18316   1.662   1.602   5.095 -0.7655 -0.7320  0.2457
  877MOL0     C18317   1.554   1.690   5.104 -0.2414  0.7281 -0.0893
  877MOL0     O18318   1.428   1.628   5.089 -0.3452 -0.6318 -0.4348
  877MOL0     C18319   1.311   1.713   5.094 -0.0737 -0.2810  0.2391
  877MOL0     C18320   1.264   1.748   5.235 -0.1183  0.0778 -0.5057
  877MOL0     C18321   1.222   1.618   5.314  0.4166 -1.3061  0.1948
  877MOL0     C18322   1.150   1.635   5.447 -0.0341  0.2230 -0.1103
  877MOL0     C18323   1.081   1.510   5.481  0.0033 -1.0978 -0.0740
  877MOL0     C18324   1.020   1.414   5.517  0.4794  0.1000  0.1190
  877MOL0     C18325   1.586   1.830   5.100  0.3295  0.3373 -0.5170
  877MOL0     C18326   1.719   1.877   5.103  0.6021  0.6889  0.2085
  877MOL0     C18327   1.744   2.026   5.109  0.3680  1.0770  0.7462
  877MOL0     H18328   2.198   1.969   5.001 -0.2996  0.2454 -2.0802
  877MOL0     H18329   2.442   1.985   5.006 -2.9447  1.3690 -0.8750
  877MOL0     H18330   2.637   1.940   4.905 -1.1452  0.7602  1.3025
  877MOL0     H18331   2.674   1.960   5.070 -1.4860 -0.9560  0.3633
  877MOL0     H18332   2.875   1.968   4.958 -3.9466  1.3840 -1.3183
  877MOL0     H18333   2.855   1.797   4.893 -0.3206  0.5103 -0.7266
  877MOL0     H18334   2.846   1.701   5.106  1.1580 -0.2896 -1.2746
  877MOL0     H18335   2.870   1.853   5.193 -1.3908 -0.0883 -0.8808
  877MOL0     H18336   3.067   1.721   5.007 -0.8642  2.3861 -1.5050
  877MOL0     H18337   3.084   1.886   5.073 -1.0915  1.0976 -0.9837
  877MOL0     H18338   3.211   1.740   5.235 -0.4247  0.2811  1.0339
  877MOL0     H18339   3.058   1.774   5.322  1.9270 -0.0343  1.5168
  877MOL0     H18340   3.092   1.554   5.350 -1.3173  1.5082  1.6330
  877MOL0     H18341   2.968   1.572   5.232 -0.9009  3.1833  0.5191
  877MOL0     H18342   3.096   1.488   5.052 -0.4625  0.3683  0.6922
  877MOL0     H18343   3.126   1.391   5.198 -0.4000 -1.7972 -2.0145
  877MOL0     H18344   3.323   1.602   5.110 -1.2649  0.1199 -1.3957
  877MOL0     H18345   3.327   1.492   5.246  0.8244  0.5583  0.2012
  877MOL0     H18346   3.292   1.200   5.104 -0.8844  0.2884 -1.5764
  877MOL0     H18347   3.345   1.057   4.886 -0.8492  0.9258  1.2415
  877MOL0     H18348   3.442   1.124   4.764 -0.3088 -0.6138 -0.8254
  877MOL0     H18349   3.652   1.100   4.892 -2.7103  1.1047 -2.6170
  877MOL0     H18350   3.557   1.016   5.026  0.2203 -3.5717  0.0003
  877MOL0     H18351   3.598   0.953   4.726  0.3246 -1.4808 -0.4934
  877MOL0     H18352   3.513   0.842   4.841  1.9334 -1.8816  2.2745
  877MOL0     H18353   3.730   0.818   4.971 -2.1537 -2.7014 -0.6735
  877MOL0     H18354   3.801   0.911   4.827  0.0193 -0.3054 -0.3958
  877MOL0     H18355   3.725   0.491   4.933  0.9091  1.5841  5.3246
  877MOL0     H18356   3.931   0.361   4.984  1.8952 -2.0136 -4.1337
  877MOL0     H18357   4.402   0.364   4.616  0.7585 -1.6546 -1.2461
  877MOL0     H18358   4.591   0.224   4.593 -0.9034  0.2605 -0.2938
  877MOL0     H18359   4.801   0.079   4.975 -0.1406  1.0339 -0.3221
  877MOL0     H18360   4.694  -0.042   4.924 -0.4502 -1.1613 -1.2716
  877MOL0     H18361   4.930  -0.136   4.928 -2.6213 -1.0677  0.2499
  877MOL0     H18362   4.855  -0.146   4.768  0.8125  1.5591 -2.4777
  877MOL0     H18363   4.960   0.083   4.728 -2.2271 -1.3909 -0.0011
  877MOL0     H18364   5.059   0.065   4.873 -0.7146 -2.4979  1.9595
  877MOL0     H18365   5.189   0.007   4.661  1.0702 -2.5355  0.6827
  877MOL0     H18366   5.075  -0.123   4.638 -0.5663 -3.4247  3.0890
  877MOL0     H18367   5.141  -0.227   4.849  0.7059 -0.8813 -0.0857
  877MOL0     H18368   5.230  -0.070   4.881  2.5820 -0.6896  1.1057
  877MOL0     H18369   5.317  -0.283   4.672  2.5056 -0.5754  0.9209
  877MOL0     H18370   5.395  -0.121   4.711 -1.0325  0.7100  0.0894
  877MOL0     H18371   5.506  -0.311   4.789  0.4671 -0.2457  2.0017
  877MOL0     H18372   5.374  -0.359   4.892  0.4396  0.3333  1.7365
  877MOL0     H18373   5.590  -0.140   4.910  1.4652 -2.1651  1.5505
  877MOL0     H18374   5.434  -0.089   4.977  1.5773  1.3088  1.3504
  877MOL0     H18375   4.627   0.216   5.029 -1.9819  1.0620  2.1971
  877MOL0     H18376   4.427   0.344   5.049  2.9555 -0.5747  2.2692
  877MOL0     H18377   4.160   0.660   4.753  0.0599 -1.5466  0.4848
  877MOL0     H18378   3.946   0.765   4.710 -3.1555 -1.4793 -1.1178
  877MOL0     H18379   2.477   1.555   4.998 -1.4265 -1.1072  1.9623
  877MOL0     H18380   2.222   1.541   5.010  0.7432 -1.7277 -0.3468
  877MOL0     H18381   1.873   1.572   5.086  0.0786 -0.7358 -0.7701
  877MOL0     H18382   1.646   1.495   5.087  2.2895 -1.2278 -0.3826
  877MOL0     H18383   1.229   1.661   5.045 -0.2350  2.6984 -3.0613
  877MOL0     H18384   1.322   1.808   5.040 -4.5140  0.9455  1.1144
  877MOL0     H18385   1.179   1.816   5.225  1.2679  1.7757 -1.2702
  877MOL0     H18386   1.342   1.799   5.292  0.7708  1.2055 -2.6272
  877MOL0     H18387   1.313   1.558   5.315  1.3214  0.0311  0.9301
  877MOL0     H18388   1.146   1.566   5.255 -1.0861  2.1610 -1.2210
  877MOL0     H18389   1.223   1.664   5.524  2.0704 -5.1255  0.3772
  877MOL0     H18390   1.072   1.711   5.446 -0.9485 -0.6017  1.9789
  877MOL0     H18391   0.990   1.319   5.558 -1.1593  0.1822 -0.7962
  877MOL0     H18392   1.501   1.898   5.104 -0.9118 -1.2004  0.7453
  877MOL0     H18393   1.776   2.067   5.206 -3.2522  2.7523  1.3894
  877MOL0     H18394   1.804   2.064   5.026 -0.7865 -0.5384 -0.8955
  877MOL0     H18395   1.646   2.075   5.102 -0.0240  0.3996  1.4084
  878MOL0     O18396   3.109   1.729   7.430  0.1543  0.2231 -0.5756
  878MOL0     C18397   3.053   1.828   7.482  0.5364 -0.5387  0.6598
  878MOL0     O18398   3.122   1.944   7.524 -0.4526 -0.7304  0.7494
  878MOL0     C18399   3.266   1.932   7.524  0.0160  1.1512 -1.6630
  878MOL0     C18400   3.348   2.003   7.434  0.4009 -0.4710 -0.4511
  878MOL0     C18401   3.491   1.989   7.439  0.6500  1.4043  0.5507
  878MOL0     C18402   3.550   1.889   7.524  0.3397 -0.4647 -0.0657
  878MOL0     O18403   3.678   1.850   7.535  0.1352  0.2279  0.3091
  878MOL0     C18404   3.766   1.901   7.428 -0.2225  0.3813 -0.0643
  878MOL0     C18405   3.890   1.813   7.443 -0.8011  0.6754 -0.5367
  878MOL0     C18406   4.013   1.896   7.413  0.7732 -0.0581  0.9494
  878MOL0     C18407   4.136   1.871   7.485 -0.1673  0.2010  0.5066
  878MOL0     C18408   4.190   1.726   7.490 -0.6806 -0.0222 -0.3795
  878MOL0     C18409   4.247   1.681   7.357 -0.0513 -1.1778  0.9077
  878MOL0     C18410   4.262   1.529   7.344  0.1300  0.0613 -0.1027
  878MOL0     C18411   4.355   1.480   7.449 -0.2513 -0.2200  0.4621
  878MOL0     N18412   4.497   1.520   7.430  0.0926 -0.1097 -0.2610
  878MOL0     C18413   4.578   1.469   7.328  0.1435  1.0774 -0.4547
  878MOL0     C18414   4.692   1.540   7.330 -0.6431 -0.2358  0.6436
  878MOL0     C18415   4.814   1.507   7.250 -0.1797 -1.0168 -0.2658
  878MOL0     C18416   4.923   1.414   7.320  0.7279 -0.0708 -0.1833
  878MOL0     C18417   5.000   1.481   7.440 -0.6114 -0.2561 -0.1953
  878MOL0     C18418   5.115   1.566   7.386  0.8836  0.3828 -0.5384
  878MOL0     O18419   5.212   1.474   7.332  0.2567 -0.5736 -0.1701
  878MOL0     C18420   5.324   1.528   7.276  0.1859  0.6126  0.8248
  878MOL0     C18421   5.373   1.661   7.287  1.1138  0.0918  0.0429
  878MOL0     C18422   5.497   1.692   7.233  0.3027 -0.4617  0.0725
  878MOL0     C18423   5.577   1.599   7.156  0.3980  0.8891  0.6051
  878MOL0     C18424   5.709   1.628   7.108  0.5138 -0.4856 -0.3503
  878MOL0     O18425   5.793   1.705   7.181 -0.8545  0.2659 -0.4088
  878MOL0     C18426   5.933   1.697   7.158 -0.1980 -0.3320 -0.3613
  878MOL0     C18427   6.011   1.804   7.216  0.4941 -0.7936  0.1240
  878MOL0     C18428   6.149   1.820   7.192 -0.0126 -0.0004 -0.4358
  878MOL0     C18429   6.217   1.722   7.117  0.4080 -1.0169 -0.0840
  878MOL0     O18430   6.355   1.727   7.083  0.3245 -0.4958 -0.8371
  878MOL0     C18431   6.448   1.833   7.113  0.5459 -0.3905  0.8910
  878MOL0     C18432   6.590   1.795   7.064 -0.0827  0.1772  0.0421
  878MOL0     C18433   6.652   1.923   6.993 -0.3857  0.7662  0.1470
  878MOL0     C18434   6.785   1.904   6.915 -0.0396 -0.5079  0.2827
  878MOL0     C18435   6.904   1.862   7.007 -0.0209 -0.1256 -0.5764
  878MOL0     C18436   6.932   1.957   7.126  0.1153 -0.6405  0.2610
  878MOL0     C18437   7.059   1.932   7.194 -0.0939 -0.0461 -0.7837
  878MOL0     C18438   7.074   1.997   7.331 -0.2721  0.1857  0.7677
  878MOL0    Cl18439   7.100   2.184   7.326 -0.0568 -0.4816  0.4891
  878MOL0     C18440   6.140   1.607   7.070  0.0127 -0.9814  0.1173
  878MOL0     C18441   6.001   1.603   7.078  0.2230  1.2017 -0.5413
  878MOL0     O18442   5.735   1.576   7.000  0.1367 -0.0626  0.5421
  878MOL0     C18443   5.515   1.472   7.133 -0.3572  0.0199 -0.0287
  878MOL0     C18444   5.391   1.442   7.194  0.7121  0.4791 -0.3677
  878MOL0     N18445   4.683   1.636   7.434  0.1603 -0.2540  0.5741
  878MOL0     N18446   4.570   1.620   7.492  0.7609  0.0217 -0.2363
  878MOL0     C18447   3.465   1.825   7.613  0.1405  0.4210  0.9061
  878MOL0     C18448   3.325   1.837   7.617  0.4017  0.1792  0.1909
  878MOL0     C18449   2.902   1.829   7.490 -0.2310 -0.4483 -0.5621
  878MOL0     C18450   2.824   1.947   7.488  0.2105 -0.1478 -0.4680
  878MOL0     C18451   2.686   1.939   7.475 -0.2106  1.1086 -0.1531
  878MOL0     C18452   2.623   1.821   7.473  0.0448 -0.0168 -0.8460
  878MOL0     O18453   2.491   1.786   7.463  0.0016 -0.4343 -0.2514
  878MOL0     C18454   2.399   1.893   7.435  0.1667 -0.2933  0.1052
  878MOL0     C18455   2.407   1.957   7.298 -0.2736  1.1173 -1.0310
  878MOL0     C18456   2.446   1.854   7.200  0.4073 -0.0441  1.2511
  878MOL0     C18457   2.353   1.722   7.197 -1.4085 -0.0391  0.5131
  878MOL0     C18458   2.251   1.716   7.094  1.1544 -0.8152 -0.4856
  878MOL0     C18459   2.189   1.731   6.989 -0.3538 -0.1867 -0.0680
  878MOL0     C18460   2.700   1.709   7.485  0.8267  0.1949 -0.2618
  878MOL0     C18461   2.838   1.701   7.485 -0.3474 -0.6741 -0.4186
  878MOL0     C18462   2.899   1.562   7.501 -0.8525 -0.4755  0.2638
  878MOL0     H18463   3.299   2.071   7.366  1.5875  3.2490  2.0794
  878MOL0     H18464   3.544   2.057   7.372 -1.3441  0.5464 -2.0585
  878MOL0     H18465   3.724   1.879   7.329  0.9929 -1.6203 -0.2066
  878MOL0     H18466   3.781   2.006   7.451  0.4260  0.6683 -1.6918
  878MOL0     H18467   3.881   1.727   7.376 -2.8589  1.3669 -1.2250
  878MOL0     H18468   3.894   1.775   7.546  2.5689  1.5298 -0.2428
  878MOL0     H18469   4.003   2.003   7.436  0.8195 -0.0741  1.0444
  878MOL0     H18470   4.040   1.879   7.308 -0.8021 -0.7080  0.6273
  878MOL0     H18471   4.211   1.939   7.444  0.9611 -1.1534  0.2680
  878MOL0     H18472   4.113   1.904   7.587 -1.3922 -1.9624  1.0123
  878MOL0     H18473   4.264   1.723   7.571  0.0415 -0.1191 -1.0296
  878MOL0     H18474   4.099   1.674   7.520 -1.9377  1.2719 -1.7581
  878MOL0     H18475   4.180   1.713   7.277 -2.2377  1.0988  3.4567
  878MOL0     H18476   4.334   1.749   7.355 -0.8477 -0.1274  0.9997
  878MOL0     H18477   4.293   1.506   7.242 -1.0338  0.7176 -0.6272
  878MOL0     H18478   4.164   1.480   7.352 -0.3301  0.7898 -1.0600
  878MOL0     H18479   4.319   1.500   7.550 -2.4673 -3.5164  0.4857
  878MOL0     H18480   4.364   1.371   7.448  1.6743 -0.1652 -3.0736
  878MOL0     H18481   4.579   1.378   7.270 -0.8998  0.9710 -0.3181
  878MOL0     H18482   4.776   1.455   7.161 -1.2980 -2.2815  0.8981
  878MOL0     H18483   4.872   1.597   7.228  1.6529 -1.6273  1.7286
  878MOL0     H18484   4.869   1.328   7.361  1.4916 -1.0612 -1.1919
  878MOL0     H18485   4.988   1.368   7.245 -2.6841 -0.2420 -3.3089
  878MOL0     H18486   5.039   1.412   7.515 -1.8721  1.6933  2.4401
  878MOL0     H18487   4.938   1.551   7.497 -1.2989 -0.2910 -0.8841
  878MOL0     H18488   5.160   1.620   7.470 -1.0942 -1.1051  1.6015
  878MOL0     H18489   5.068   1.622   7.305 -0.7579 -0.1230  0.0311
  878MOL0     H18490   5.312   1.732   7.342  0.9169 -1.5024  1.9854
  878MOL0     H18491   5.534   1.794   7.228  2.8650 -1.1631  2.3332
  878MOL0     H18492   5.962   1.882   7.273  2.8184  2.9753 -2.5342
  878MOL0     H18493   6.198   1.908   7.235  1.4414 -1.0476  0.1344
  878MOL0     H18494   6.413   1.926   7.066 -0.8258 -0.9723  0.7207
  878MOL0     H18495   6.470   1.850   7.219  1.9924  1.8121  0.3086
  878MOL0     H18496   6.653   1.762   7.147 -0.2049 -0.9508 -0.3020
  878MOL0     H18497   6.580   1.705   7.003  0.0688  0.5926 -0.6063
  878MOL0     H18498   6.581   1.951   6.914 -1.0530 -1.0315  0.0631
  878MOL0     H18499   6.658   1.990   7.079 -0.4723 -1.9491  2.4108
  878MOL0     H18500   6.805   1.998   6.862 -1.0667 -0.4553 -0.0243
  878MOL0     H18501   6.773   1.831   6.834 -1.9425  0.3705 -0.2729
  878MOL0     H18502   6.992   1.856   6.942  0.0844 -0.5395 -0.3986
  878MOL0     H18503   6.885   1.766   7.055  2.9025 -0.7686 -0.5303
  878MOL0     H18504   6.927   2.063   7.098 -0.6510 -0.7812 -0.1816
  878MOL0     H18505   6.849   1.948   7.196 -1.6669  3.2397 -1.0248
  878MOL0     H18506   7.132   1.981   7.128 -0.5680  1.4512 -0.2221
  878MOL0     H18507   7.073   1.824   7.202 -1.3615 -0.3359 -2.0909
  878MOL0     H18508   6.987   1.980   7.395 -1.3191 -0.0130 -0.6523
  878MOL0     H18509   7.167   1.960   7.373  1.2741 -0.3627 -2.7455
  878MOL0     H18510   6.187   1.531   7.008  1.0701  1.4697 -2.3257
  878MOL0     H18511   5.959   1.511   7.040  1.6484  0.2109  0.1961
  878MOL0     H18512   5.555   1.397   7.066  0.9147 -0.2206  0.9549
  878MOL0     H18513   5.347   1.344   7.176  1.4059 -0.7713  3.7116
  878MOL0     H18514   3.501   1.747   7.679  1.1327 -0.2800 -0.4191
  878MOL0     H18515   3.270   1.779   7.690  0.2497  1.1311  0.8506
  878MOL0     H18516   2.875   2.042   7.491  1.5520 -0.7910 -1.6308
  878MOL0     H18517   2.634   2.033   7.456 -1.2455  0.7421  0.7585
  878MOL0     H18518   2.410   1.974   7.508 -1.6444  0.3270 -0.2562
  878MOL0     H18519   2.296   1.857   7.446  0.3614 -1.1255 -0.7301
  878MOL0     H18520   2.482   2.037   7.291  0.7537  0.2970  0.1717
  878MOL0     H18521   2.312   2.000   7.265 -1.4189 -0.3810  0.1655
  878MOL0     H18522   2.554   1.840   7.199  0.4974  0.4765 -0.8209
  878MOL0     H18523   2.426   1.897   7.101 -0.0263 -0.3900  1.1822
  878MOL0     H18524   2.422   1.639   7.179 -2.2362 -0.5221 -0.5236
  878MOL0     H18525   2.310   1.705   7.297  3.4873 -2.3166  2.5696
  878MOL0     H18526   2.147   1.752   6.893  0.1249 -0.3488 -0.3166
  878MOL0     H18527   2.643   1.618   7.502 -0.4809  1.0495  0.0975
  878MOL0     H18528   2.992   1.576   7.556 -0.9906 -0.0662  0.3993
  878MOL0     H18529   2.834   1.494   7.557  0.5485 -2.8998 -0.9039
  878MOL0     H18530   2.915   1.523   7.400  2.2368 -1.0877  0.9001
  879MOL0     O18531   7.778   2.806   3.106 -0.3013 -0.2383  0.3672
  879MOL0     C18532   7.765   2.771   2.992  0.2044  0.7746  0.5335
  879MOL0     O18533   7.871   2.715   2.922 -0.8031 -0.3642  0.6338
  879MOL0     C18534   7.992   2.709   2.980  0.2881 -0.6067  0.5473
  879MOL0     C18535   8.066   2.812   3.039 -0.7456 -0.2645 -0.1345
  879MOL0     C18536   8.191   2.786   3.107 -0.0670  0.2321 -0.5828
  879MOL0     C18537   8.244   2.656   3.102  0.1202 -0.2992 -0.1201
  879MOL0     O18538   8.357   2.630   3.172 -0.4425  0.1238  0.4213
  879MOL0     C18539   8.464   2.542   3.120 -0.0058  0.7534 -0.3664
  879MOL0     C18540   8.571   2.532   3.226  0.1102 -0.6481 -0.1239
  879MOL0     C18541   8.690   2.434   3.186  0.8386  0.0870  0.5711
  879MOL0     C18542   8.806   2.460   3.279 -0.9868  1.0440 -0.2579
  879MOL0     C18543   8.928   2.378   3.231 -0.3935 -0.1357  0.1672
  879MOL0     C18544   9.032   2.362   3.334 -0.2502  0.0260 -1.1005
  879MOL0     C18545   9.150   2.272   3.277  0.1506 -0.0944 -0.2166
  879MOL0     C18546   9.232   2.332   3.167  0.5739 -0.2601 -0.7107
  879MOL0     N18547   9.359   2.262   3.156 -0.5457 -0.1809 -0.2486
  879MOL0     C18548   9.417   2.224   3.030  0.6720 -0.1101 -0.0852
  879MOL0     C18549   9.523   2.145   3.068  0.3315  1.0231  0.7526
  879MOL0     C18550   9.609   2.064   2.971 -0.1045 -0.1080 -0.3233
  879MOL0     C18551   9.747   2.027   3.034 -0.1128 -0.1825  0.6551
  879MOL0     C18552   9.834   2.132   3.092 -0.5591 -0.1887  0.2317
  879MOL0     C18553   9.969   2.168   3.020  0.1233  0.2480 -0.1537
  879MOL0     O18554  10.057   2.065   2.977 -0.0841  0.4147  0.6554
  879MOL0     C18555  10.189   2.076   2.996 -0.4529  0.3647  0.0369
  879MOL0     C18556  10.258   2.165   3.072 -0.6348  0.1526 -0.6578
  879MOL0     C18557  10.397   2.173   3.084  0.3203  0.0482 -0.0826
  879MOL0     C18558  10.473   2.081   3.020  0.4516 -0.2872  0.1541
  879MOL0     C18559  10.623   2.077   3.052 -0.9256  0.6417  0.7486
  879MOL0     O18560  10.695   1.973   2.992  1.0557  0.5720 -0.6009
  879MOL0     C18561  10.829   1.960   3.000 -0.8031  0.1559  0.1663
  879MOL0     C18562  10.873   1.881   2.895 -0.4167  0.2183 -0.1698
  879MOL0     C18563  11.005   1.844   2.889  0.0246 -0.4915  0.0157
  879MOL0     C18564  11.108   1.907   2.969  0.3998 -0.5850 -0.2544
  879MOL0     O18565  11.247   1.898   2.956 -0.1645  0.2532 -0.3253
  879MOL0     C18566  11.302   1.864   2.830  0.0780  0.6742  0.0212
  879MOL0     C18567  11.453   1.866   2.843 -0.5036  0.5295 -0.3427
  879MOL0     C18568  11.528   1.836   2.713  0.7445  1.2857  0.3100
  879MOL0     C18569  11.680   1.808   2.741 -0.2044  0.2860  0.8418
  879MOL0     C18570  11.760   1.792   2.612  0.7495 -0.5937 -1.3646
  879MOL0     C18571  11.914   1.782   2.637 -0.2803  1.1320  0.1119
  879MOL0     C18572  11.975   1.777   2.499 -0.8579 -0.0020 -0.3874
  879MOL0     C18573  12.119   1.741   2.521  0.6998 -0.3523  1.3074
  879MOL0    Cl18574  12.131   1.570   2.577  0.0227  0.5997  0.6881
  879MOL0     C18575  11.062   1.992   3.077 -0.6303  0.4099 -0.6127
  879MOL0     C18576  10.923   2.017   3.089 -0.3613 -0.3902 -1.0482
  879MOL0     O18577  10.667   2.153   3.132 -0.2607 -0.0945  0.2435
  879MOL0     C18578  10.409   1.979   2.944  0.5456  0.4510  0.0439
  879MOL0     C18579  10.267   1.980   2.931  0.1508  0.1073  0.6179
  879MOL0     N18580   9.526   2.140   3.206  0.2492 -0.4769  1.0279
  879MOL0     N18581   9.437   2.220   3.255 -0.4143  0.3079  0.1155
  879MOL0     C18582   8.181   2.561   3.023  0.2709 -0.0688 -0.0254
  879MOL0     C18583   8.061   2.589   2.964 -0.2543  0.3756  0.4813
  879MOL0     C18584   7.625   2.783   2.932 -0.6455 -0.0346  0.6033
  879MOL0     C18585   7.619   2.738   2.800 -0.4378  0.2214  0.3931
  879MOL0     C18586   7.498   2.735   2.731  0.1967  0.0274  0.3639
  879MOL0     C18587   7.384   2.788   2.790  1.1484  0.8520  0.1139
  879MOL0     O18588   7.274   2.752   2.722  0.3703  0.1060 -0.8596
  879MOL0     C18589   7.157   2.720   2.793 -0.0313  0.2521 -0.3348
  879MOL0     C18590   7.061   2.627   2.727  0.4486  0.0580  0.1425
  879MOL0     C18591   7.035   2.660   2.578 -0.7059  1.0423 -0.6646
  879MOL0     C18592   6.971   2.787   2.567  0.2300 -0.2472  0.4513
  879MOL0     C18593   6.828   2.776   2.611 -0.5568  0.1082 -0.8318
  879MOL0     C18594   6.711   2.782   2.651 -0.1003 -0.3986 -1.1551
  879MOL0     C18595   7.379   2.842   2.920 -0.0965  0.2149  0.2591
  879MOL0     C18596   7.510   2.851   2.992  0.4291 -0.1495  0.5049
  879MOL0     C18597   7.505   2.896   3.134 -0.7599  0.7730 -0.3944
  879MOL0     H18598   8.016   2.907   3.052  0.8797  0.3646  2.1774
  879MOL0     H18599   8.239   2.860   3.170  1.8466 -1.1452 -0.3167
  879MOL0     H18600   8.432   2.439   3.100 -0.2797  1.1768 -2.2637
  879MOL0     H18601   8.499   2.578   3.023  0.4648 -2.1126 -1.3546
  879MOL0     H18602   8.526   2.506   3.322  1.4372 -2.9471 -0.0525
  879MOL0     H18603   8.616   2.632   3.233  0.4409 -0.8156  0.1769
  879MOL0     H18604   8.730   2.448   3.085  0.8945  0.8020  0.6862
  879MOL0     H18605   8.657   2.330   3.194  0.6064  0.2314  1.6260
  879MOL0     H18606   8.823   2.568   3.278  0.3821  0.9142 -3.5507
  879MOL0     H18607   8.788   2.434   3.384  0.6516 -0.5268 -0.3022
  879MOL0     H18608   8.899   2.278   3.196  2.0593 -1.1392  0.7572
  879MOL0     H18609   8.978   2.429   3.148  1.4219 -0.5683  0.9629
  879MOL0     H18610   9.055   2.465   3.363 -0.7701  0.4331 -2.0708
  879MOL0     H18611   8.986   2.318   3.422  2.3678 -0.8782 -0.0915
  879MOL0     H18612   9.116   2.173   3.245 -0.2494 -1.6045  4.1644
  879MOL0     H18613   9.222   2.248   3.356  0.8919 -1.8261 -1.3375
  879MOL0     H18614   9.189   2.331   3.066  1.3078  0.2099 -1.0375
  879MOL0     H18615   9.263   2.434   3.188 -1.1402  0.3830 -1.1801
  879MOL0     H18616   9.388   2.259   2.932 -0.8993  1.6197  0.9333
  879MOL0     H18617   9.562   1.968   2.948 -1.3398 -0.5146  3.2997
  879MOL0     H18618   9.621   2.127   2.882  2.4699  2.9240  1.9457
  879MOL0     H18619   9.720   1.948   3.105 -0.3269 -0.9817 -0.2792
  879MOL0     H18620   9.808   1.978   2.958  1.6095  3.0731 -0.2234
  879MOL0     H18621   9.857   2.100   3.194 -1.2793 -1.0165  0.1480
  879MOL0     H18622   9.779   2.226   3.081 -0.4060 -0.3179 -2.3130
  879MOL0     H18623  10.025   2.246   3.074  1.1401 -0.0412 -0.7678
  879MOL0     H18624   9.935   2.213   2.926  0.5722 -1.6562 -1.2680
  879MOL0     H18625  10.204   2.246   3.119 -1.3235 -0.1034 -0.9864
  879MOL0     H18626  10.441   2.254   3.141 -0.5469  1.0532 -0.7989
  879MOL0     H18627  10.807   1.856   2.813 -0.8231  0.6437  0.0189
  879MOL0     H18628  11.028   1.780   2.805 -0.1562 -0.0673 -0.3628
  879MOL0     H18629  11.269   1.761   2.815 -0.8811  0.6563  1.8333
  879MOL0     H18630  11.261   1.920   2.745 -0.9043 -0.2303 -0.1216
  879MOL0     H18631  11.484   1.964   2.878  0.9192 -0.0990  0.2297
  879MOL0     H18632  11.479   1.787   2.914 -1.6379 -0.0378 -0.5226
  879MOL0     H18633  11.477   1.750   2.668 -1.5133  2.8862 -0.3442
  879MOL0     H18634  11.518   1.931   2.660  0.1822  1.5006  0.7952
  879MOL0     H18635  11.699   1.720   2.802 -0.6171 -1.0645 -0.9105
  879MOL0     H18636  11.709   1.897   2.798 -3.7733  0.9475  1.8822
  879MOL0     H18637  11.732   1.881   2.556  0.3954  0.7595  0.8347
  879MOL0     H18638  11.718   1.702   2.566  0.4553  0.0688 -2.4086
  879MOL0     H18639  11.941   1.873   2.690 -4.1197  1.0110  2.7515
  879MOL0     H18640  11.940   1.691   2.691  3.7687  0.2535 -2.9098
  879MOL0     H18641  11.961   1.874   2.451 -0.3059  0.1444 -0.2628
  879MOL0     H18642  11.926   1.704   2.434 -2.5783  3.1442 -2.9141
  879MOL0     H18643  12.175   1.763   2.429 -0.9665 -0.0589  0.3332
  879MOL0     H18644  12.151   1.815   2.596  1.8073  1.9170 -1.2331
  879MOL0     H18645  11.133   2.030   3.150 -1.4437  1.2028 -0.2234
  879MOL0     H18646  10.888   2.073   3.175 -0.7230 -1.1348 -0.7039
  879MOL0     H18647  10.474   1.900   2.907 -0.4670 -0.4470  0.1418
  879MOL0     H18648  10.215   1.898   2.882  0.6805  0.3337 -0.3382
  879MOL0     H18649   8.217   2.461   3.001  0.1953 -0.0255 -0.3539
  879MOL0     H18650   7.995   2.520   2.914 -0.3826 -1.7269  3.3346
  879MOL0     H18651   7.703   2.693   2.748  0.4857  1.0657  1.1116
  879MOL0     H18652   7.492   2.687   2.634 -2.3291 -0.9405  0.9243
  879MOL0     H18653   7.097   2.811   2.805 -3.3457 -1.9189  1.1989
  879MOL0     H18654   7.177   2.683   2.894 -1.1555 -0.1037 -0.2269
  879MOL0     H18655   6.970   2.620   2.788  0.7510  2.5309  0.9683
  879MOL0     H18656   7.117   2.533   2.731 -1.5920 -1.2061  2.7339
  879MOL0     H18657   6.984   2.583   2.521  1.4893 -1.0861  0.0610
  879MOL0     H18658   7.133   2.676   2.533 -0.5345  0.0816 -0.6533
  879MOL0     H18659   7.006   2.876   2.619 -4.0870  0.4637  2.6252
  879MOL0     H18660   6.963   2.801   2.459 -2.7511  2.9596  0.9230
  879MOL0     H18661   6.609   2.799   2.679  0.1508 -2.6802  1.6631
  879MOL0     H18662   7.292   2.877   2.974  0.4888  1.9394  0.1442
  879MOL0     H18663   7.495   2.818   3.209 -2.2308 -1.4444 -2.7217
  879MOL0     H18664   7.594   2.951   3.168  0.9089 -2.9545  1.8550
  879MOL0     H18665   7.423   2.967   3.147 -1.0945  0.1135  1.3198
  880MOL0     O18666   5.152  11.254   9.676  0.0002 -0.3668  0.6705
  880MOL0     C18667   5.196  11.194   9.775  0.7502 -0.3080 -0.4839
  880MOL0     O18668   5.312  11.223   9.837  0.1564 -0.3565 -0.1045
  880MOL0     C18669   5.395  11.317   9.774 -0.4042  0.6835  0.3535
  880MOL0     C18670   5.356  11.451   9.748  0.3419 -0.1712  0.2114
  880MOL0     C18671   5.440  11.548   9.695  0.2699  0.0269  0.2805
  880MOL0     C18672   5.581  11.515   9.677  0.9756  0.6712 -0.1263
  880MOL0     O18673   5.664  11.614   9.636  0.1111  0.5054  0.1313
  880MOL0     C18674   5.789  11.612   9.688 -0.1119  0.6048  0.1713
  880MOL0     C18675   5.853  11.744   9.635  0.4655  0.5611  0.4547
  880MOL0     C18676   5.804  11.859   9.723 -0.6521 -0.3967  1.2276
  880MOL0     C18677   5.824  11.986   9.632 -0.5376  0.3766  0.3285
  880MOL0     C18678   5.817  12.112   9.720 -0.2318  0.5788 -0.0984
  880MOL0     C18679   5.870  12.239   9.648 -0.2962  0.8780  0.1994
  880MOL0     C18680   5.805  12.271   9.512  1.2634  0.5216  0.2563
  880MOL0     C18681   5.892  12.381   9.439 -0.0853  0.3234 -0.7929
  880MOL0     N18682   6.020  12.336   9.373  0.0181  0.0508  0.0965
  880MOL0     C18683   6.038  12.262   9.261 -0.5072 -0.2037 -0.4337
  880MOL0     C18684   6.164  12.271   9.228  0.3266 -0.3213  0.6164
  880MOL0     C18685   6.237  12.234   9.108  0.5687 -0.3151  0.4846
  880MOL0     C18686   6.362  12.160   9.144  0.0993 -0.0717  0.6210
  880MOL0     C18687   6.470  12.144   9.034  0.4818 -0.4697  0.5365
  880MOL0     C18688   6.582  12.044   9.063 -0.1104  0.5835  0.8539
  880MOL0     O18689   6.708  12.074   9.006  1.1343  0.3011 -0.3802
  880MOL0     C18690   6.817  12.002   9.040  1.2144  0.1393 -0.6531
  880MOL0     C18691   6.829  11.933   9.163  0.2564  0.1587 -0.1105
  880MOL0     C18692   6.934  11.844   9.183 -0.1009  0.4596 -0.6152
  880MOL0     C18693   7.046  11.835   9.096  0.1471  0.4310 -0.2581
  880MOL0     C18694   7.165  11.749   9.122  0.2277  0.1543 -0.6634
  880MOL0     O18695   7.257  11.728   9.025 -0.2792 -0.2097 -0.9823
  880MOL0     C18696   7.356  11.632   9.036 -0.2833  0.0230  0.7873
  880MOL0     C18697   7.481  11.654   9.099 -0.1844 -0.0821  0.3227
  880MOL0     C18698   7.581  11.559   9.099 -0.2365  0.5272 -0.2597
  880MOL0     C18699   7.567  11.441   9.032  0.2400 -0.7132  0.4018
  880MOL0     O18700   7.672  11.359   9.047  0.4989  0.5999  0.2392
  880MOL0     C18701   7.669  11.224   8.989  0.4634  0.0500 -0.5236
  880MOL0     C18702   7.793  11.156   9.045 -0.7895  0.0406 -0.1570
  880MOL0     C18703   7.830  11.035   8.954  0.1259  0.2265 -0.7144
  880MOL0     C18704   7.969  10.969   8.985 -0.0298 -0.4581  1.0073
  880MOL0     C18705   8.081  11.072   8.965  0.7730 -0.6026 -0.2165
  880MOL0     C18706   8.218  11.004   8.941 -0.0178  0.2421  0.4886
  880MOL0     C18707   8.328  11.102   8.904 -0.6942 -0.5250  0.3328
  880MOL0     C18708   8.462  11.030   8.908  1.4996 -0.3254 -0.3064
  880MOL0    Cl18709   8.585  11.144   8.856 -0.4023  0.0826  0.3305
  880MOL0     C18710   7.444  11.416   8.962  0.4983 -0.0522  0.5875
  880MOL0     C18711   7.346  11.515   8.959 -0.1833 -0.7550 -0.3638
  880MOL0     O18712   7.171  11.697   9.236 -0.6326 -0.6555 -0.0106
  880MOL0     C18713   7.039  11.919   8.986 -0.7056  1.0187  0.0242
  880MOL0     C18714   6.923  11.994   8.958  0.1385  0.2634  0.7298
  880MOL0     N18715   6.226  12.336   9.329  0.6484 -0.0357 -0.9836
  880MOL0     N18716   6.146  12.366   9.423 -0.6726  0.3822 -0.1724
  880MOL0     C18717   5.619  11.374   9.700  1.1361  0.2407 -0.4018
  880MOL0     C18718   5.531  11.287   9.753 -0.3160 -0.2956 -0.5734
  880MOL0     C18719   5.106  11.103   9.847  1.1865 -0.3502  0.1604
  880MOL0     C18720   4.976  11.087   9.791 -0.3297 -0.3224  0.2036
  880MOL0     C18721   4.885  11.001   9.847  0.9968  1.2828  0.7991
  880MOL0     C18722   4.908  10.930   9.963  0.5479  0.3524  0.0027
  880MOL0     O18723   4.806  10.866  10.017  0.0446  0.0630 -0.6042
  880MOL0     C18724   4.826  10.808  10.146 -0.2754  0.8283 -0.1031
  880MOL0     C18725   4.711  10.722  10.186  0.6493  0.4126 -0.8360
  880MOL0     C18726   4.567  10.789  10.180  0.0318 -0.0102 -0.3428
  880MOL0     C18727   4.455  10.736  10.276 -0.9149 -0.4911 -0.8306
  880MOL0     C18728   4.363  10.846  10.301  0.2362  0.4854  0.0996
  880MOL0     C18729   4.272  10.925  10.309  0.1955 -0.6295 -0.6511
  880MOL0     C18730   5.029  10.954  10.024 -0.2403 -0.1389  0.0456
  880MOL0     C18731   5.131  11.041   9.967  0.5842 -0.0058  0.1894
  880MOL0     C18732   5.260  11.060  10.049  0.0170 -0.1263  0.6728
  880MOL0     H18733   5.259  11.482   9.786  0.4974  2.4932 -1.3323
  880MOL0     H18734   5.407  11.651   9.694 -0.1483 -0.0555  1.9956
  880MOL0     H18735   5.790  11.609   9.797  0.5324  2.0959  0.2291
  880MOL0     H18736   5.846  11.522   9.662 -1.4695 -0.8374  1.8892
  880MOL0     H18737   5.853  11.754   9.526  1.1174 -0.1768  0.3765
  880MOL0     H18738   5.958  11.735   9.665  0.5969 -0.0538 -0.1720
  880MOL0     H18739   5.868  11.882   9.809 -3.0217  0.3921  2.8752
  880MOL0     H18740   5.704  11.864   9.766 -1.3055  3.4641 -0.2924
  880MOL0     H18741   5.921  11.993   9.580 -0.9886  0.2120 -0.5483
  880MOL0     H18742   5.749  11.982   9.553  0.4216  2.0298 -0.7348
  880MOL0     H18743   5.715  12.130   9.755  0.1994  0.2288  1.4130
  880MOL0     H18744   5.888  12.104   9.803 -1.7587  0.4748  1.2525
  880MOL0     H18745   5.869  12.323   9.717 -0.9586  3.2889 -2.5527
  880MOL0     H18746   5.977  12.226   9.630 -0.0597  0.0217  2.0075
  880MOL0     H18747   5.703  12.309   9.525  1.2002  0.0389  1.3312
  880MOL0     H18748   5.816  12.189   9.441 -0.5207  1.3807 -1.0954
  880MOL0     H18749   5.827  12.418   9.359 -0.8203  0.1793 -0.2702
  880MOL0     H18750   5.927  12.454   9.513 -3.0569  1.6230 -0.5428
  880MOL0     H18751   5.952  12.223   9.207 -0.3451 -2.0568  0.5654
  880MOL0     H18752   6.167  12.170   9.053  1.6509 -1.0328 -0.0826
  880MOL0     H18753   6.263  12.318   9.042 -2.3610  0.4176  0.0916
  880MOL0     H18754   6.414  12.230   9.211 -1.3705  1.2586  0.4298
  880MOL0     H18755   6.339  12.068   9.198  2.7864 -0.9975  0.3653
  880MOL0     H18756   6.511  12.244   9.018  0.2227 -0.6487 -1.5341
  880MOL0     H18757   6.427  12.107   8.941  0.6081 -0.1544  0.3506
  880MOL0     H18758   6.547  11.948   9.022 -1.1176  2.2424 -2.6114
  880MOL0     H18759   6.588  12.041   9.172 -4.5365  3.6686  1.4515
  880MOL0     H18760   6.751  11.947   9.237  1.6813 -0.8967  1.6706
  880MOL0     H18761   6.940  11.788   9.275  0.1096  0.6226 -0.5290
  880MOL0     H18762   7.494  11.753   9.142  3.0378  0.8349 -2.3211
  880MOL0     H18763   7.676  11.572   9.149  2.6871 -2.5782 -4.3266
  880MOL0     H18764   7.580  11.167   9.017  0.6058 -0.4114 -0.9992
  880MOL0     H18765   7.669  11.229   8.880  3.3950  1.7771 -0.5539
  880MOL0     H18766   7.866  11.237   9.042 -1.6119  1.0036  2.5179
  880MOL0     H18767   7.784  11.123   9.149  1.0378  1.6092  0.5704
  880MOL0     H18768   7.763  10.952   8.976 -0.8672  0.8465 -1.3096
  880MOL0     H18769   7.841  11.054   8.847 -0.5449  1.2434 -0.6206
  880MOL0     H18770   7.989  10.888   8.914 -1.6384 -0.4937  0.5641
  880MOL0     H18771   7.977  10.937   9.089  1.6571 -0.4013  0.9270
  880MOL0     H18772   8.078  11.142   9.049 -0.0565 -3.0024  1.8767
  880MOL0     H18773   8.060  11.144   8.885  2.3636  2.6534  2.1092
  880MOL0     H18774   8.233  10.933   9.023 -2.8398 -0.1483  0.7705
  880MOL0     H18775   8.220  10.935   8.855  0.6505  0.3417  0.4190
  880MOL0     H18776   8.323  11.188   8.970 -2.3967  0.8720 -1.4768
  880MOL0     H18777   8.318  11.137   8.801  1.6293  2.7072  1.0580
  880MOL0     H18778   8.489  10.988   9.005  0.6054  0.3089  0.2338
  880MOL0     H18779   8.464  10.955   8.829  0.6459  1.0535 -1.7007
  880MOL0     H18780   7.420  11.321   8.915  3.1917 -0.1870 -0.6930
  880MOL0     H18781   7.257  11.502   8.897  0.1520 -1.1149 -0.7737
  880MOL0     H18782   7.125  11.915   8.921  0.9475  0.7746  2.1283
  880MOL0     H18783   6.913  12.060   8.873  0.0272  0.8682  1.2068
  880MOL0     H18784   5.724  11.347   9.691  1.4022  0.2998  2.0431
  880MOL0     H18785   5.566  11.188   9.781 -1.5462  0.0518  2.6391
  880MOL0     H18786   4.951  11.130   9.695  1.7093  3.1334  1.0806
  880MOL0     H18787   4.791  10.983   9.797  1.5813 -0.3124  0.2045
  880MOL0     H18788   4.830  10.893  10.214  0.0421  2.9421 -2.5876
  880MOL0     H18789   4.914  10.744  10.158 -1.3832 -0.2250  4.0812
  880MOL0     H18790   4.729  10.689  10.288  0.4288  4.3164  0.6455
  880MOL0     H18791   4.719  10.640  10.114  1.5928  1.5076 -2.0264
  880MOL0     H18792   4.533  10.779  10.077  6.6179  0.1897 -2.9677
  880MOL0     H18793   4.581  10.896  10.200 -2.3599  0.6244 -1.6864
  880MOL0     H18794   4.395  10.663  10.221  0.4313 -1.9235 -0.4530
  880MOL0     H18795   4.491  10.687  10.367 -1.5638 -3.6483 -2.1725
  880MOL0     H18796   4.208  11.010  10.320  0.3914 -0.3727 -1.4845
  880MOL0     H18797   5.040  10.924  10.127  1.7135  1.0255  0.2341
  880MOL0     H18798   5.263  11.160  10.093  0.6807 -0.8635  2.3968
  880MOL0     H18799   5.253  11.002  10.142 -1.4082  1.1722  1.4275
  880MOL0     H18800   5.353  11.034   9.999 -0.6826  1.1361 -1.3914
  881MOL0     O18801   5.574   6.446  10.176 -0.0173  0.5026 -0.0756
  881MOL0     C18802   5.517   6.543  10.120  1.2960  0.4954 -0.4512
  881MOL0     O18803   5.570   6.667  10.101  0.9838 -0.7679  0.0965
  881MOL0     C18804   5.696   6.696  10.132 -1.1548  0.6588 -0.5086
  881MOL0     C18805   5.777   6.735  10.031 -0.1815 -0.2467  0.1794
  881MOL0     C18806   5.895   6.803  10.056 -1.2002  0.1578 -0.6212
  881MOL0     C18807   5.954   6.777  10.181 -0.8043 -0.2972  0.2291
  881MOL0     O18808   6.082   6.811  10.213  0.6113 -1.0022 -0.2461
  881MOL0     C18809   6.091   6.949  10.249  0.8789  0.4823  0.1896
  881MOL0     C18810   6.234   6.999  10.221  0.1600  0.6852 -0.2259
  881MOL0     C18811   6.244   7.149  10.196 -0.6440  0.1036 -0.0540
  881MOL0     C18812   6.381   7.164  10.125  0.4522 -0.3926 -0.0424
  881MOL0     C18813   6.378   7.314  10.085 -0.3453  0.5123  0.2850
  881MOL0     C18814   6.497   7.359  10.002  0.7845  0.1339 -0.5660
  881MOL0     C18815   6.616   7.390  10.095  0.4235  0.2958  0.6023
  881MOL0     C18816   6.738   7.440  10.008  0.1076 -0.7332 -0.1952
  881MOL0     N18817   6.835   7.502  10.092  0.1404  0.1435 -0.4644
  881MOL0     C18818   6.888   7.442  10.197 -0.6697  0.2910 -0.4972
  881MOL0     C18819   6.965   7.535  10.259  0.6124  1.3500  0.1617
  881MOL0     C18820   7.049   7.495  10.381  0.0745  0.6371 -0.0450
  881MOL0     C18821   7.192   7.551  10.354  0.0252 -0.1149  0.0603
  881MOL0     C18822   7.267   7.548  10.483 -0.3626  1.0041  0.2740
  881MOL0     C18823   7.394   7.630  10.469 -0.0086 -0.1817  0.6155
  881MOL0     O18824   7.483   7.573  10.372 -0.2001 -0.2530 -0.3386
  881MOL0     C18825   7.571   7.663  10.318  0.7877  0.6728  0.9483
  881MOL0     C18826   7.660   7.753  10.389  0.4856 -0.4699  0.5087
  881MOL0     C18827   7.743   7.841  10.314  0.0825 -0.1270 -0.0511
  881MOL0     C18828   7.738   7.832  10.167  0.4558 -0.2270  0.7250
  881MOL0     C18829   7.814   7.924  10.077 -0.8612  0.5508 -0.1465
  881MOL0     O18830   7.890   8.018  10.138 -0.0358  0.3180 -0.0135
  881MOL0     C18831   7.938   8.134  10.080 -0.2199  0.2244  0.1190
  881MOL0     C18832   7.969   8.236  10.166  0.8470 -0.4032  0.4796
  881MOL0     C18833   8.040   8.351  10.116  0.1060 -0.5534 -0.3880
  881MOL0     C18834   8.083   8.363   9.988  0.0647  0.4721 -1.2150
  881MOL0     O18835   8.162   8.466   9.970 -0.2800 -0.5525  0.9448
  881MOL0     C18836   8.268   8.439   9.877 -0.2772 -1.3425  0.0015
  881MOL0     C18837   8.351   8.558   9.860  0.1155 -0.8648 -0.0509
  881MOL0     C18838   8.434   8.556   9.728 -0.6366  1.0615 -0.9211
  881MOL0     C18839   8.539   8.443   9.725  0.0145  0.1891 -0.8680
  881MOL0     C18840   8.630   8.434   9.597  0.3850 -1.2173 -0.6283
  881MOL0     C18841   8.760   8.358   9.612 -0.4871  0.4068 -1.3927
  881MOL0     C18842   8.848   8.341   9.491 -0.9387 -0.7042  0.1654
  881MOL0     C18843   8.807   8.218   9.402 -0.1592 -0.7098 -0.4551
  881MOL0    Cl18844   8.640   8.210   9.327 -0.0255 -0.0212 -0.2696
  881MOL0     C18845   8.037   8.263   9.902 -0.0934 -0.1763  0.7174
  881MOL0     C18846   7.973   8.149   9.947 -1.1293 -0.9309 -0.6196
  881MOL0     O18847   7.822   7.905   9.960 -0.8397 -0.7698  0.2912
  881MOL0     C18848   7.657   7.741  10.109  0.4676  0.6253  0.5755
  881MOL0     C18849   7.579   7.650  10.178  0.4106 -0.7526 -0.3472
  881MOL0     N18850   6.949   7.653  10.183 -0.3758  0.2815  0.0021
  881MOL0     N18851   6.875   7.635  10.080  0.1177  0.4147 -0.1585
  881MOL0     C18852   5.882   6.719  10.288  0.0280  0.0507  0.0742
  881MOL0     C18853   5.741   6.688  10.270 -0.9024 -0.3579  0.0367
  881MOL0     C18854   5.381   6.521  10.082  0.0862  0.0796  0.2355
  881MOL0     C18855   5.314   6.632  10.049 -0.1385 -0.4310 -0.6663
  881MOL0     C18856   5.180   6.640  10.017  0.4852 -0.1856 -0.6728
  881MOL0     C18857   5.105   6.521  10.006 -0.4312  0.3327  0.6875
  881MOL0     O18858   4.969   6.523   9.975  0.0885  0.4500  0.4010
  881MOL0     C18859   4.883   6.445  10.058  0.5974 -1.0167 -0.5041
  881MOL0     C18860   4.742   6.506  10.053  1.4133 -0.3496  0.4784
  881MOL0     C18861   4.643   6.406  10.124 -0.2329  0.0793 -0.6365
  881MOL0     C18862   4.552   6.340  10.021  0.2878  0.3439  0.0595
  881MOL0     C18863   4.447   6.278  10.100  0.3970 -0.4538  0.4875
  881MOL0     C18864   4.355   6.236  10.165 -0.0811  0.4454 -0.2810
  881MOL0     C18865   5.174   6.400  10.024 -0.0721  0.6109  0.6417
  881MOL0     C18866   5.307   6.397  10.070  0.5935 -0.5697  1.0531
  881MOL0     C18867   5.373   6.257  10.089 -0.2186  0.1162  0.1904
  881MOL0     H18868   5.724   6.733   9.936  1.0645 -2.6221 -0.5405
  881MOL0     H18869   5.957   6.846   9.977 -0.6520 -0.4111 -0.5073
  881MOL0     H18870   6.025   7.011  10.187  0.6409 -1.1849 -1.3177
  881MOL0     H18871   6.069   6.964  10.355 -1.7791 -2.4074  0.1792
  881MOL0     H18872   6.259   6.946  10.129 -0.4763 -0.4299  0.2325
  881MOL0     H18873   6.300   6.959  10.298 -0.1088 -3.7399 -2.0419
  881MOL0     H18874   6.236   7.210  10.286 -4.0965 -0.5107  0.1774
  881MOL0     H18875   6.161   7.180  10.133 -0.9709  0.2584  0.4508
  881MOL0     H18876   6.460   7.137  10.196 -0.1955  0.3792  1.0029
  881MOL0     H18877   6.376   7.097  10.039 -2.5429  0.9074 -0.9862
  881MOL0     H18878   6.291   7.330  10.021  1.8079  0.1850 -2.9816
  881MOL0     H18879   6.370   7.375  10.175  0.3864 -0.1984  0.8467
  881MOL0     H18880   6.525   7.282   9.929 -1.0320 -0.7112 -0.4478
  881MOL0     H18881   6.466   7.458   9.968  2.2678  1.1176  0.8094
  881MOL0     H18882   6.655   7.309  10.158  2.6355 -0.1522 -1.2155
  881MOL0     H18883   6.575   7.464  10.165 -0.7537  2.0227 -1.7809
  881MOL0     H18884   6.779   7.360   9.946 -2.7178 -1.8263 -0.8102
  881MOL0     H18885   6.695   7.512   9.938 -0.9341 -0.7319  0.4175
  881MOL0     H18886   6.897   7.338  10.226  0.5402  0.5721  0.2072
  881MOL0     H18887   6.996   7.543  10.464 -0.3499 -2.2874  1.4827
  881MOL0     H18888   7.050   7.390  10.409  1.5809  1.2746  2.6151
  881MOL0     H18889   7.249   7.509  10.270 -1.5754  1.6692 -2.0335
  881MOL0     H18890   7.185   7.655  10.321  5.6236  0.3783 -0.6774
  881MOL0     H18891   7.296   7.450  10.520  1.8779  1.3813 -0.3597
  881MOL0     H18892   7.195   7.587  10.556 -2.7365  0.2883 -1.5252
  881MOL0     H18893   7.437   7.638  10.570  0.5482  3.2735  0.2262
  881MOL0     H18894   7.364   7.730  10.438  0.0858 -1.1644 -3.1597
  881MOL0     H18895   7.645   7.745  10.496 -1.6185 -4.2973  0.1368
  881MOL0     H18896   7.807   7.909  10.369 -2.4163  0.0591  2.9245
  881MOL0     H18897   7.935   8.242  10.269 -2.3108  1.5409 -0.5291
  881MOL0     H18898   8.061   8.434  10.183  1.7751 -1.9568  0.9228
  881MOL0     H18899   8.333   8.363   9.920  1.2132 -1.8347 -2.8648
  881MOL0     H18900   8.222   8.407   9.783 -2.7730  0.5865  0.4336
  881MOL0     H18901   8.292   8.651   9.863  1.7687  0.2025  1.0508
  881MOL0     H18902   8.410   8.576   9.950 -1.8535 -0.9166  1.3092
  881MOL0     H18903   8.374   8.540   9.637 -0.9594 -0.5939 -0.4579
  881MOL0     H18904   8.479   8.654   9.713 -1.5238  1.5935 -0.1921
  881MOL0     H18905   8.499   8.344   9.749  2.1477  0.0296  2.9564
  881MOL0     H18906   8.606   8.465   9.809  0.3529  1.3705 -1.4259
  881MOL0     H18907   8.657   8.534   9.563  4.4192 -1.8699  0.1175
  881MOL0     H18908   8.570   8.392   9.516  0.3939 -1.2559 -0.6148
  881MOL0     H18909   8.821   8.412   9.685  0.5489  0.1232 -2.0285
  881MOL0     H18910   8.737   8.255   9.640  0.8658  0.1878 -0.9943
  881MOL0     H18911   8.952   8.324   9.518 -0.6801  1.4624  0.7432
  881MOL0     H18912   8.858   8.433   9.432  0.3683 -0.6738  0.4168
  881MOL0     H18913   8.875   8.214   9.316 -1.2484  0.4463 -1.4111
  881MOL0     H18914   8.825   8.135   9.470  0.4256 -0.4255 -0.2516
  881MOL0     H18915   8.069   8.266   9.799  2.3294 -1.5176  1.3549
  881MOL0     H18916   7.963   8.077   9.866  1.2134  1.9446 -3.7513
  881MOL0     H18917   7.641   7.751  10.002 -1.3679  0.4193  0.7989
  881MOL0     H18918   7.523   7.578  10.118 -1.5413 -0.1463  0.6755
  881MOL0     H18919   5.924   6.701  10.387  2.6507 -2.9266 -1.4378
  881MOL0     H18920   5.678   6.660  10.354 -0.4426  2.9886  1.6411
  881MOL0     H18921   5.361   6.730  10.044  0.7281 -0.8853 -1.4328
  881MOL0     H18922   5.132   6.737  10.007 -0.5471 -0.8225 -2.2304
  881MOL0     H18923   4.930   6.446  10.156  1.7586  2.2345 -0.9668
  881MOL0     H18924   4.858   6.344  10.022 -2.1286 -1.3451  1.9848
  881MOL0     H18925   4.704   6.542   9.957 -1.7984 -0.9476  1.4061
  881MOL0     H18926   4.745   6.595  10.117 -0.1210  0.6183 -0.7274
  881MOL0     H18927   4.585   6.462  10.198  1.7628 -0.3202  1.3384
  881MOL0     H18928   4.688   6.326  10.184 -2.3169 -1.4977 -1.0710
  881MOL0     H18929   4.510   6.419   9.958 -0.3964 -0.2957 -0.3083
  881MOL0     H18930   4.601   6.271   9.952 -0.8737  0.2483 -0.7158
  881MOL0     H18931   4.276   6.211  10.233 -0.6631  0.6895 -0.8482
  881MOL0     H18932   5.127   6.308   9.990 -1.0918  1.1137  0.6723
  881MOL0     H18933   5.284   6.193  10.089 -2.7515  3.3581  0.5921
  881MOL0     H18934   5.451   6.250  10.012 -0.0503 -0.2107  0.3937
  881MOL0     H18935   5.419   6.251  10.188 -0.1466  3.2057  0.4565
  882MOL0     O18936   8.344   3.725   3.259  0.3267  0.3798  0.3449
  882MOL0     C18937   8.274   3.745   3.356 -0.3501 -0.3624  0.3550
  882MOL0     O18938   8.324   3.792   3.474 -0.5291 -0.7691 -0.1557
  882MOL0     C18939   8.458   3.800   3.493  0.0569 -0.2388 -0.1267
  882MOL0     C18940   8.567   3.745   3.423 -0.5925  0.3869  0.2234
  882MOL0     C18941   8.696   3.750   3.475 -0.7457 -0.4833  0.1371
  882MOL0     C18942   8.716   3.807   3.601  0.4081 -0.0188  0.5415
  882MOL0     O18943   8.836   3.805   3.668 -0.0544  0.1175  0.5039
  882MOL0     C18944   8.959   3.793   3.586  0.0802  0.2952  0.2534
  882MOL0     C18945   8.971   3.934   3.524 -0.2330  1.0425 -0.3921
  882MOL0     C18946   9.127   3.955   3.514  0.2941 -0.2124 -0.4200
  882MOL0     C18947   9.158   4.100   3.461  0.2858  1.1004 -0.4466
  882MOL0     C18948   9.308   4.112   3.439  0.3777 -0.4919 -0.0077
  882MOL0     C18949   9.354   4.248   3.383 -0.0168  0.0375  0.5260
  882MOL0     C18950   9.511   4.267   3.388 -1.0366 -0.4494  0.3271
  882MOL0     C18951   9.582   4.189   3.273  0.1184  0.5965  0.6850
  882MOL0     N18952   9.730   4.198   3.264 -0.4349 -0.3916 -0.1452
  882MOL0     C18953   9.817   4.153   3.353 -0.0582  0.9174 -0.5975
  882MOL0     C18954   9.943   4.200   3.313  0.1363 -0.7552  0.3180
  882MOL0     C18955  10.067   4.180   3.402  0.1050  0.7736  0.3457
  882MOL0     C18956  10.208   4.197   3.342  0.2152  0.3695 -0.1804
  882MOL0     C18957  10.240   4.082   3.243  0.2345  0.3221 -1.3414
  882MOL0     C18958  10.399   4.070   3.228  1.0212 -0.0231  0.1720
  882MOL0     O18959  10.457   4.014   3.349 -0.1742 -0.1938  0.7421
  882MOL0     C18960  10.582   3.977   3.347 -0.6088  0.1233 -0.1497
  882MOL0     C18961  10.669   4.011   3.235  0.2213  0.3037 -0.2153
  882MOL0     C18962  10.797   3.961   3.232  0.2500 -0.8842 -0.1811
  882MOL0     C18963  10.848   3.887   3.335  0.3135  0.4730 -0.2054
  882MOL0     C18964  10.989   3.848   3.347 -0.2883 -0.5038 -0.2032
  882MOL0     O18965  11.071   3.873   3.242 -0.3084 -0.3070 -0.4517
  882MOL0     C18966  11.201   3.836   3.266  0.2774 -0.3524 -1.1428
  882MOL0     C18967  11.288   3.935   3.318  0.0242 -0.4502  0.1613
  882MOL0     C18968  11.419   3.894   3.356 -0.6722 -0.8698  0.4835
  882MOL0     C18969  11.465   3.767   3.340 -0.1283  0.1407  0.0087
  882MOL0     O18970  11.597   3.743   3.371  0.4039 -0.1743 -0.3668
  882MOL0     C18971  11.642   3.602   3.350  0.5951 -0.1664  0.0999
  882MOL0     C18972  11.779   3.598   3.406 -1.0649  0.1533 -0.8166
  882MOL0     C18973  11.857   3.474   3.376 -0.0648 -0.4909  0.9490
  882MOL0     C18974  11.993   3.468   3.440 -0.0134  0.6436  0.0770
  882MOL0     C18975  12.036   3.325   3.480  0.0173 -0.1062  1.0327
  882MOL0     C18976  12.076   3.242   3.356 -0.2915 -0.7065 -1.2796
  882MOL0     C18977  12.075   3.094   3.384  0.0307  0.6822  0.6369
  882MOL0     C18978  12.177   3.050   3.496 -0.0130 -1.0265 -0.5012
  882MOL0    Cl18979  12.112   3.010   3.658  0.7108 -0.2100  0.2511
  882MOL0     C18980  11.379   3.671   3.282  0.1005  0.6566  0.2740
  882MOL0     C18981  11.250   3.707   3.242  0.0512 -0.5519  0.1614
  882MOL0     O18982  11.025   3.784   3.444  0.2358 -0.3271 -0.4649
  882MOL0     C18983  10.756   3.854   3.441 -0.1055  0.3022  0.0972
  882MOL0     C18984  10.629   3.896   3.437 -0.3608 -0.1520  0.6752
  882MOL0     N18985   9.920   4.258   3.190 -0.3163  0.8711  0.3070
  882MOL0     N18986   9.796   4.242   3.152 -0.0457 -0.0978  0.4230
  882MOL0     C18987   8.607   3.856   3.676 -0.5335  0.1638  0.2658
  882MOL0     C18988   8.481   3.857   3.613 -0.4738 -0.2264  0.3279
  882MOL0     C18989   8.127   3.744   3.335  0.0468  0.3597  0.4573
  882MOL0     C18990   8.053   3.836   3.411  0.3203 -0.6815  0.1927
  882MOL0     C18991   7.917   3.842   3.406 -0.0132  0.5891 -0.1146
  882MOL0     C18992   7.841   3.748   3.345  1.0845  0.3813  0.8823
  882MOL0     O18993   7.703   3.737   3.351 -0.0704 -0.9492 -0.2121
  882MOL0     C18994   7.645   3.795   3.472 -0.1810  1.1497 -0.1637
  882MOL0     C18995   7.500   3.730   3.481  0.1541  0.3794 -0.4616
  882MOL0     C18996   7.534   3.578   3.495  1.0654 -0.0784 -0.1860
  882MOL0     C18997   7.420   3.494   3.538  0.5532  0.4077 -0.1439
  882MOL0     C18998   7.305   3.510   3.440  0.8111  1.0602 -0.1354
  882MOL0     C18999   7.218   3.535   3.356 -0.0900  0.4918  0.0220
  882MOL0     C19000   7.909   3.656   3.265 -0.0353 -0.6373 -0.2893
  882MOL0     C19001   8.053   3.661   3.246  0.0387 -0.0080  0.4145
  882MOL0     C19002   8.116   3.581   3.139 -1.1478  0.0273 -0.1915
  882MOL0     H19003   8.555   3.687   3.332  1.7746  0.8360 -0.4524
  882MOL0     H19004   8.766   3.706   3.405 -1.3063  0.2351 -0.8996
  882MOL0     H19005   9.040   3.770   3.656 -1.3688 -0.0265  1.8757
  882MOL0     H19006   8.956   3.712   3.512 -1.6045  0.9829 -0.4702
  882MOL0     H19007   8.919   4.013   3.579 -1.5050  0.3646 -0.5856
  882MOL0     H19008   8.928   3.926   3.423 -1.4486  0.9007  0.1225
  882MOL0     H19009   9.176   3.892   3.439  0.0383  0.7789 -1.4436
  882MOL0     H19010   9.183   3.933   3.606 -0.8672  2.0338  0.9253
  882MOL0     H19011   9.101   4.113   3.368 -0.0868 -0.5093 -0.4815
  882MOL0     H19012   9.122   4.163   3.543 -1.3641 -2.9526  2.2679
  882MOL0     H19013   9.345   4.106   3.542 -0.9382  0.7929  0.5871
  882MOL0     H19014   9.335   4.026   3.378  4.1544 -0.7980  1.7715
  882MOL0     H19015   9.322   4.258   3.279  0.1700 -4.0135 -0.0544
  882MOL0     H19016   9.307   4.326   3.443 -2.5129 -1.2961  0.4447
  882MOL0     H19017   9.555   4.228   3.480  2.1339 -0.1991 -0.9720
  882MOL0     H19018   9.537   4.373   3.387  1.1839 -0.9393  0.8047
  882MOL0     H19019   9.562   4.082   3.287 -2.0992  0.8768  0.1350
  882MOL0     H19020   9.550   4.222   3.173  1.0473 -2.4276 -0.7623
  882MOL0     H19021   9.801   4.093   3.442 -2.9399 -1.4531 -2.5173
  882MOL0     H19022  10.070   4.252   3.484 -2.0387 -1.2512  2.3382
  882MOL0     H19023  10.068   4.078   3.442 -1.9597  0.7346  0.3695
  882MOL0     H19024  10.211   4.289   3.283 -1.9496  0.9436  0.4961
  882MOL0     H19025  10.277   4.217   3.424  0.0164 -0.3353  0.1613
  882MOL0     H19026  10.190   4.109   3.150 -0.7520  1.8395 -0.3973
  882MOL0     H19027  10.216   3.977   3.265  0.8393 -1.0157 -5.8535
  882MOL0     H19028  10.436   4.170   3.207  0.0903  0.3106  0.0760
  882MOL0     H19029  10.411   4.007   3.139 -0.0358 -1.6992  1.1594
  882MOL0     H19030  10.643   4.066   3.145 -1.7699 -1.8319 -1.0492
  882MOL0     H19031  10.851   4.005   3.149  1.6711  2.6714  2.3732
  882MOL0     H19032  11.271   4.042   3.311  3.4110  0.0991 -1.2301
  882MOL0     H19033  11.480   3.974   3.395 -0.8135 -1.4757  2.0389
  882MOL0     H19034  11.577   3.541   3.414  3.3553 -0.1325  3.1688
  882MOL0     H19035  11.628   3.577   3.244 -3.3768 -0.9265  0.6276
  882MOL0     H19036  11.840   3.677   3.361 -1.2940  2.1675  2.1288
  882MOL0     H19037  11.772   3.617   3.514  0.5556  0.5392 -0.7522
  882MOL0     H19038  11.799   3.400   3.432  1.4399 -0.4938  2.6119
  882MOL0     H19039  11.870   3.457   3.269  0.7728 -0.2419  1.0018
  882MOL0     H19040  12.003   3.531   3.528  2.3863  0.7673 -0.2180
  882MOL0     H19041  12.053   3.512   3.360 -1.7040 -0.8495 -2.1691
  882MOL0     H19042  11.956   3.271   3.532 -0.6706  1.1742  1.3551
  882MOL0     H19043  12.115   3.338   3.555  1.7487  0.2383 -0.7761
  882MOL0     H19044  12.006   3.270   3.277  0.3174  3.8144 -0.5193
  882MOL0     H19045  12.172   3.273   3.315 -0.6799 -0.2759 -1.8746
  882MOL0     H19046  12.104   3.041   3.293  0.0896 -0.1487  1.1338
  882MOL0     H19047  11.979   3.054   3.417 -0.0634 -1.0370 -1.4790
  882MOL0     H19048  12.225   2.958   3.459 -0.1051 -1.2694 -0.0131
  882MOL0     H19049  12.255   3.126   3.504 -0.5827 -0.4966  0.0607
  882MOL0     H19050  11.409   3.569   3.260 -0.2152  0.9806 -1.9113
  882MOL0     H19051  11.176   3.642   3.195  0.7028 -0.8918 -0.4163
  882MOL0     H19052  10.793   3.796   3.525  0.4170  0.7921  0.2062
  882MOL0     H19053  10.565   3.852   3.512  0.2181 -4.1129 -0.9211
  882MOL0     H19054   8.627   3.899   3.774 -0.3084 -0.3524  0.4469
  882MOL0     H19055   8.408   3.899   3.681 -0.6296  2.5435 -1.3642
  882MOL0     H19056   8.100   3.915   3.468 -0.1613 -0.6337  0.5270
  882MOL0     H19057   7.871   3.917   3.469  0.8171  0.1977  0.9864
  882MOL0     H19058   7.646   3.904   3.468 -0.8845  1.4457  3.7191
  882MOL0     H19059   7.713   3.765   3.552  0.2493  0.1736 -0.8785
  882MOL0     H19060   7.435   3.755   3.397 -1.0413 -1.4069 -0.1294
  882MOL0     H19061   7.451   3.769   3.571  0.4827  2.1891 -1.0398
  882MOL0     H19062   7.623   3.561   3.556 -0.7383 -1.9382  2.0886
  882MOL0     H19063   7.564   3.541   3.396 -1.2645  0.6427 -1.2561
  882MOL0     H19064   7.444   3.388   3.528 -2.2025 -0.2113 -1.1180
  882MOL0     H19065   7.397   3.510   3.644  1.8774 -0.6751  0.3229
  882MOL0     H19066   7.137   3.554   3.289 -0.4985  2.1812  0.9168
  882MOL0     H19067   7.860   3.575   3.211  0.1182  0.1200 -1.6051
  882MOL0     H19068   8.180   3.634   3.067 -0.5038  1.0538  1.0937
  882MOL0     H19069   8.169   3.498   3.187 -1.3056 -0.9719 -1.6790
  882MOL0     H19070   8.037   3.541   3.075 -0.3727  1.8347 -2.3973
  883MOL0     O19071   7.958   7.959   6.600 -0.0969  0.2725  0.4646
  883MOL0     C19072   7.970   8.059   6.528  0.7503  0.0191 -0.8639
  883MOL0     O19073   8.087   8.109   6.483 -0.1895 -0.5600  0.0134
  883MOL0     C19074   8.207   8.047   6.498 -0.4225  0.0354  0.9582
  883MOL0     C19075   8.308   8.083   6.411  0.1448  0.8808  0.6181
  883MOL0     C19076   8.438   8.035   6.427  0.5961 -0.2938 -0.2757
  883MOL0     C19077   8.477   7.947   6.527 -0.7219  0.7800  0.7464
  883MOL0     O19078   8.593   7.869   6.535  0.1992  0.6067 -0.2023
  883MOL0     C19079   8.710   7.902   6.462 -0.1246 -0.8550 -0.7030
  883MOL0     C19080   8.826   7.808   6.467 -0.0986  0.6731  0.3538
  883MOL0     C19081   8.952   7.851   6.394  0.1599  0.1018 -0.6748
  883MOL0     C19082   9.039   7.970   6.454 -0.2204 -0.5556 -0.2907
  883MOL0     C19083   9.059   8.093   6.361  0.0992 -0.2626 -0.2966
  883MOL0     C19084   9.152   8.085   6.245  0.1021  0.8460 -0.0888
  883MOL0     C19085   9.299   8.053   6.296 -0.3807  0.1556  0.0550
  883MOL0     C19086   9.399   8.119   6.193  0.5139  0.2465  0.2349
  883MOL0     N19087   9.535   8.125   6.250  0.1103 -0.2468 -0.4964
  883MOL0     C19088   9.570   8.237   6.326 -0.5883  0.5770  0.1010
  883MOL0     C19089   9.700   8.212   6.339 -0.0519 -0.6935 -0.4617
  883MOL0     C19090   9.793   8.317   6.388 -0.7634 -0.2827  1.0411
  883MOL0     C19091   9.888   8.271   6.502 -0.2265 -0.5810  0.2026
  883MOL0     C19092  10.005   8.367   6.515 -0.1821  0.0642 -0.7189
  883MOL0     C19093  10.094   8.347   6.640  0.3210  0.0704 -0.4402
  883MOL0     O19094  10.166   8.223   6.626 -0.6450 -0.1133  0.1567
  883MOL0     C19095  10.275   8.204   6.708  0.3963  0.5627 -0.0970
  883MOL0     C19096  10.364   8.103   6.690  0.4167  0.3505 -0.0778
  883MOL0     C19097  10.471   8.081   6.768  0.9010  0.4677 -0.2389
  883MOL0     C19098  10.500   8.165   6.874 -0.0189 -0.1479  0.1254
  883MOL0     C19099  10.621   8.148   6.956 -0.7387 -0.3464 -0.3993
  883MOL0     O19100  10.729   8.091   6.892  0.0451  0.1336 -0.0998
  883MOL0     C19101  10.859   8.088   6.945 -0.4318  0.2294 -1.1225
  883MOL0     C19102  10.961   8.062   6.854  0.1379 -0.7924 -0.6566
  883MOL0     C19103  11.093   8.052   6.902 -0.4896 -1.2235 -0.3280
  883MOL0     C19104  11.121   8.051   7.037  0.1505  0.2898 -0.1938
  883MOL0     O19105  11.245   8.040   7.090 -0.1970 -0.1962  0.5683
  883MOL0     C19106  11.346   7.978   7.008  0.1891 -0.4325 -0.6845
  883MOL0     C19107  11.480   7.989   7.080 -1.3518 -0.0714 -0.2466
  883MOL0     C19108  11.598   7.992   6.983 -0.8043  0.2035  0.5747
  883MOL0     C19109  11.734   7.978   7.040 -0.3291 -0.1485 -0.4591
  883MOL0     C19110  11.750   7.860   7.129 -0.1118  0.4728 -0.0411
  883MOL0     C19111  11.893   7.848   7.169  0.1917 -0.4637 -0.2959
  883MOL0     C19112  11.922   7.736   7.275 -0.6481 -0.5001  0.5642
  883MOL0     C19113  12.070   7.692   7.273  0.0318 -0.9194 -0.4247
  883MOL0    Cl19114  12.176   7.829   7.329  0.2042  0.1290  0.1394
  883MOL0     C19115  11.019   8.077   7.122  0.5942 -0.2351  0.5572
  883MOL0     C19116  10.887   8.111   7.082 -0.3245  2.0365  0.2074
  883MOL0     O19117  10.616   8.194   7.073 -0.2599 -0.0124 -0.0915
  883MOL0     C19118  10.411   8.266   6.905 -0.5934  0.3445 -0.1721
  883MOL0     C19119  10.304   8.284   6.818 -0.1371  0.4449 -0.5103
  883MOL0     N19120   9.746   8.098   6.275 -0.4227 -0.3528 -0.1629
  883MOL0     N19121   9.643   8.041   6.226 -0.0618 -0.0414  0.1918
  883MOL0     C19122   8.375   7.904   6.609 -0.3940  0.7482 -0.0656
  883MOL0     C19123   8.244   7.957   6.599 -0.2510  0.0281  1.0054
  883MOL0     C19124   7.840   8.136   6.514 -0.1440 -0.7133 -0.1291
  883MOL0     C19125   7.846   8.253   6.436 -0.5671 -0.5561  0.7563
  883MOL0     C19126   7.730   8.319   6.404 -0.0405 -0.9091 -0.0152
  883MOL0     C19127   7.599   8.276   6.440 -1.0778  0.4290 -0.0072
  883MOL0     O19128   7.506   8.370   6.405  0.1689 -0.5203  0.5322
  883MOL0     C19129   7.385   8.370   6.484  0.4876  0.5164 -0.7066
  883MOL0     C19130   7.274   8.292   6.411 -0.8736 -0.4245  0.2489
  883MOL0     C19131   7.229   8.356   6.273 -0.1537  0.8000  1.1040
  883MOL0     C19132   7.175   8.238   6.192 -0.4660 -0.8277 -0.3265
  883MOL0     C19133   7.058   8.184   6.263 -0.8338 -0.1133 -0.3691
  883MOL0     C19134   6.961   8.134   6.318  0.0735  0.2522 -0.1395
  883MOL0     C19135   7.596   8.159   6.522 -0.4225  0.0767 -0.2537
  883MOL0     C19136   7.711   8.098   6.571  0.2867 -0.2620 -0.2553
  883MOL0     C19137   7.683   7.976   6.668  0.3384 -0.3902 -0.6117
  883MOL0     H19138   8.293   8.159   6.335  3.1793  0.1516 -0.8953
  883MOL0     H19139   8.513   8.069   6.357  1.5032  2.4697  1.8623
  883MOL0     H19140   8.689   7.921   6.356  1.5269  0.3424 -0.8618
  883MOL0     H19141   8.739   7.997   6.508 -0.6083 -1.8225  1.7489
  883MOL0     H19142   8.799   7.710   6.427 -2.7790  1.1499  0.7818
  883MOL0     H19143   8.844   7.800   6.574  0.0559 -0.3707  0.2645
  883MOL0     H19144   8.910   7.885   6.299 -2.4426  0.1752  0.4164
  883MOL0     H19145   9.011   7.761   6.376  0.6177 -0.0583  1.4027
  883MOL0     H19146   9.003   8.006   6.551 -0.9079 -1.0636 -0.3494
  883MOL0     H19147   9.137   7.930   6.479 -0.3056 -0.5840 -0.0015
  883MOL0     H19148   8.960   8.107   6.317  1.1303  3.9767 -1.8209
  883MOL0     H19149   9.088   8.181   6.419  1.1335  0.3225 -1.6331
  883MOL0     H19150   9.132   8.005   6.173  0.9349  0.6928 -0.1605
  883MOL0     H19151   9.156   8.166   6.173  1.6141 -0.2931 -1.3438
  883MOL0     H19152   9.315   7.945   6.310  3.7460  0.0955 -3.0622
  883MOL0     H19153   9.321   8.108   6.388  3.2212 -0.8455 -0.0390
  883MOL0     H19154   9.392   8.070   6.096  0.6066  1.3836 -0.3722
  883MOL0     H19155   9.371   8.224   6.180 -0.9760 -0.3331 -1.7131
  883MOL0     H19156   9.510   8.321   6.360  0.6661  2.1162 -1.2893
  883MOL0     H19157   9.859   8.353   6.308  0.4502  0.2512  2.2370
  883MOL0     H19158   9.743   8.411   6.414 -2.4890 -1.6517  3.0667
  883MOL0     H19159   9.819   8.276   6.587 -0.0083  0.0811  0.3457
  883MOL0     H19160   9.916   8.166   6.495  2.6768 -0.2951  3.9773
  883MOL0     H19161   9.957   8.462   6.539  2.6965  1.2791  0.7234
  883MOL0     H19162  10.057   8.383   6.420 -0.9078  1.1037 -0.9465
  883MOL0     H19163  10.029   8.346   6.728  1.4937  0.8094  0.4582
  883MOL0     H19164  10.160   8.433   6.647 -0.7421  0.8518  0.3087
  883MOL0     H19165  10.351   8.031   6.609  0.7386 -1.5407  1.4670
  883MOL0     H19166  10.530   7.990   6.757 -1.6182 -1.4214  0.9031
  883MOL0     H19167  10.936   8.069   6.749 -1.2952  2.0860 -0.2378
  883MOL0     H19168  11.158   8.060   6.816 -1.5907  1.0398 -1.0265
  883MOL0     H19169  11.318   7.878   6.975  2.3071 -1.3328  0.0573
  883MOL0     H19170  11.357   8.037   6.916 -0.5405  0.7502 -0.0504
  883MOL0     H19171  11.489   8.080   7.140  0.9500  0.8153 -1.7810
  883MOL0     H19172  11.485   7.896   7.138  0.2507  0.7486  1.0405
  883MOL0     H19173  11.601   7.920   6.901  1.0554 -1.2309  1.8065
  883MOL0     H19174  11.586   8.088   6.931 -0.9178 -0.5334 -0.7995
  883MOL0     H19175  11.746   8.073   7.094 -2.8102 -0.6545  1.1052
  883MOL0     H19176  11.812   7.980   6.963  0.7597  2.5986  0.5748
  883MOL0     H19177  11.722   7.767   7.078 -1.8505  0.7162  0.4214
  883MOL0     H19178  11.690   7.868   7.220  1.9096  0.2675  1.3735
  883MOL0     H19179  11.938   7.821   7.073 -2.1332 -1.3046 -1.2167
  883MOL0     H19180  11.934   7.941   7.208  0.5178 -0.2366 -1.1580
  883MOL0     H19181  11.856   7.650   7.257 -1.2763  0.0219  0.3133
  883MOL0     H19182  11.898   7.774   7.375 -1.2258 -0.1465  0.3030
  883MOL0     H19183  12.076   7.604   7.337 -3.8137 -0.2354  1.1417
  883MOL0     H19184  12.094   7.661   7.171 -0.1945  1.4222 -1.2463
  883MOL0     H19185  11.044   8.080   7.228 -0.9432 -1.2064  0.9903
  883MOL0     H19186  10.817   8.133   7.162 -1.2140  1.3084 -0.3571
  883MOL0     H19187  10.435   8.328   6.991  2.0506  2.0771 -2.0129
  883MOL0     H19188  10.235   8.362   6.851 -1.5766 -0.3394 -1.5450
  883MOL0     H19189   8.395   7.843   6.696 -0.7655  2.8285  1.5594
  883MOL0     H19190   8.168   7.936   6.674 -0.4795  0.2160  0.8306
  883MOL0     H19191   7.942   8.279   6.393 -1.9478  2.9246 -0.5653
  883MOL0     H19192   7.753   8.411   6.351 -3.1814 -0.8000 -1.3944
  883MOL0     H19193   7.349   8.473   6.492  0.9634  0.6199  0.2118
  883MOL0     H19194   7.398   8.320   6.580 -0.5260  2.2189  0.3695
  883MOL0     H19195   7.187   8.298   6.477 -0.9842 -1.0100  0.1616
  883MOL0     H19196   7.311   8.189   6.402  1.9524  0.6162 -1.3590
  883MOL0     H19197   7.298   8.407   6.205 -3.3658  3.0706 -0.7810
  883MOL0     H19198   7.153   8.431   6.297 -0.7936  0.8064 -0.7618
  883MOL0     H19199   7.124   8.268   6.099  0.6909  0.9946 -0.4231
  883MOL0     H19200   7.256   8.172   6.159  2.2522  2.1672 -0.2516
  883MOL0     H19201   6.870   8.104   6.367 -0.3355 -0.1111 -1.0928
  883MOL0     H19202   7.503   8.123   6.563  1.0567 -4.5410 -0.4362
  883MOL0     H19203   7.731   7.981   6.766 -1.8057 -1.2247  0.5581
  883MOL0     H19204   7.575   7.969   6.684  0.3883 -0.7022 -0.3918
  883MOL0     H19205   7.712   7.884   6.617  0.1014  0.5580 -2.5531
  884MOL0     O19206   2.902   6.866   8.284  0.1735  1.2472  0.7867
  884MOL0     C19207   2.925   6.753   8.325 -0.1956 -0.2583 -0.2120
  884MOL0     O19208   3.016   6.726   8.426 -0.5466 -0.3703 -0.1796
  884MOL0     C19209   3.091   6.823   8.471 -0.1235 -1.0315 -0.1621
  884MOL0     C19210   3.054   6.906   8.568  0.5521 -1.3019 -0.1370
  884MOL0     C19211   3.128   7.011   8.617 -0.6332 -0.0739 -0.1588
  884MOL0     C19212   3.264   7.020   8.578  0.8797  0.6311 -0.1177
  884MOL0     O19213   3.352   7.127   8.596 -0.8660 -0.0302  0.4290
  884MOL0     C19214   3.337   7.197   8.724 -0.0179 -0.2274 -0.3220
  884MOL0     C19215   3.462   7.279   8.758  0.1491 -0.1186  0.2414
  884MOL0     C19216   3.491   7.401   8.663 -0.5028  0.3596 -0.2522
  884MOL0     C19217   3.639   7.457   8.689  0.6755 -1.0058  1.0501
  884MOL0     C19218   3.660   7.589   8.612  0.0581 -0.5081 -0.3020
  884MOL0     C19219   3.787   7.661   8.663 -0.8662  0.6692 -0.4985
  884MOL0     C19220   3.918   7.589   8.615 -0.4851  0.3674 -0.4147
  884MOL0     C19221   4.036   7.686   8.638 -0.3779 -0.2987 -0.7779
  884MOL0     N19222   4.157   7.653   8.562 -0.0512 -0.1561 -0.6153
  884MOL0     C19223   4.271   7.602   8.616  0.3910 -0.0076 -0.2908
  884MOL0     C19224   4.368   7.617   8.524  0.1247  0.5534  0.4234
  884MOL0     C19225   4.511   7.564   8.531  0.2816  0.9691  0.7536
  884MOL0     C19226   4.599   7.662   8.599 -0.6723 -0.8451 -0.2316
  884MOL0     C19227   4.747   7.650   8.569 -0.5424  0.5355  0.5437
  884MOL0     C19228   4.848   7.729   8.662  0.9069  0.0192  0.1678
  884MOL0     O19229   4.832   7.694   8.797  0.0933 -0.2667 -0.3771
  884MOL0     C19230   4.898   7.754   8.899  0.7379  1.3720 -0.6046
  884MOL0     C19231   4.956   7.885   8.882 -1.6925  0.4630  0.8769
  884MOL0     C19232   5.029   7.944   8.983  0.1477 -0.5314  0.2356
  884MOL0     C19233   5.060   7.864   9.097  0.1294  0.5577 -0.3673
  884MOL0     C19234   5.151   7.913   9.206  0.1810 -0.8335  0.1601
  884MOL0     O19235   5.195   7.822   9.294 -0.1133  0.0506 -0.0278
  884MOL0     C19236   5.311   7.852   9.369 -0.1357  0.4075 -0.3369
  884MOL0     C19237   5.308   7.906   9.500  0.5511 -1.0866  0.5510
  884MOL0     C19238   5.428   7.947   9.564 -1.0931 -0.8026 -0.5755
  884MOL0     C19239   5.554   7.923   9.501  0.2206  0.0028  0.4120
  884MOL0     O19240   5.660   7.957   9.575  0.0198 -0.4097  0.3437
  884MOL0     C19241   5.769   7.997   9.489 -0.5845 -0.0649  0.1041
  884MOL0     C19242   5.878   8.070   9.576  0.1307  0.4516  0.2539
  884MOL0     C19243   5.925   7.980   9.685 -0.2178  0.1506 -0.3249
  884MOL0     C19244   6.036   8.043   9.775 -0.3305  0.3911 -0.6993
  884MOL0     C19245   6.053   7.974   9.912  0.1607 -0.7866 -0.1653
  884MOL0     C19246   6.196   7.990   9.977  0.1017 -0.2119  0.3680
  884MOL0     C19247   6.219   8.136  10.014 -0.1052  0.1443 -0.5279
  884MOL0     C19248   6.343   8.143  10.101 -0.9780 -0.0413  0.2451
  884MOL0    Cl19249   6.404   8.308  10.109  0.3445 -0.2452 -0.1623
  884MOL0     C19250   5.557   7.859   9.377 -0.2318 -0.5663  0.8015
  884MOL0     C19251   5.438   7.832   9.306  0.3025 -0.3316  0.4095
  884MOL0     O19252   5.186   8.032   9.196 -0.1392 -0.1046  0.3204
  884MOL0     C19253   4.991   7.744   9.120 -0.3050  0.8499 -0.9591
  884MOL0     C19254   4.916   7.682   9.020  0.1439  0.0969 -0.0103
  884MOL0     N19255   4.305   7.649   8.407 -0.2410  0.0654 -0.7430
  884MOL0     N19256   4.179   7.677   8.432 -0.0931 -0.4713  0.3107
  884MOL0     C19257   3.312   6.923   8.487 -0.9405 -0.3623 -0.2834
  884MOL0     C19258   3.228   6.819   8.442  0.8042 -0.5468 -0.2709
  884MOL0     C19259   2.862   6.636   8.263  0.1740 -0.0962  0.6455
  884MOL0     C19260   2.928   6.593   8.149  0.1917 -0.0871  0.6210
  884MOL0     C19261   2.885   6.474   8.093 -0.3371  0.3195 -0.2690
  884MOL0     C19262   2.770   6.408   8.142  0.2076  0.3688 -0.0033
  884MOL0     O19263   2.717   6.302   8.081 -0.4205  0.0362  0.3300
  884MOL0     C19264   2.747   6.178   8.136 -0.1995  0.0733  0.1053
  884MOL0     C19265   2.626   6.096   8.110 -0.9085  0.1311  0.4617
  884MOL0     C19266   2.650   6.020   7.974 -1.2993 -0.5321  0.7741
  884MOL0     C19267   2.556   5.894   7.945  0.6732 -0.0082 -0.2723
  884MOL0     C19268   2.579   5.774   8.030 -0.6152  0.3583  0.9845
  884MOL0     C19269   2.617   5.671   8.089  0.5697  0.7604  0.3154
  884MOL0     C19270   2.704   6.454   8.261  0.0565  0.2099 -0.3267
  884MOL0     C19271   2.750   6.573   8.324  0.0006 -0.2008  0.2530
  884MOL0     C19272   2.692   6.630   8.451 -0.0304  0.1356  0.3876
  884MOL0     H19273   2.957   6.886   8.611  1.1579 -3.6372  0.2839
  884MOL0     H19274   3.085   7.086   8.682  0.4166 -0.5152  1.0983
  884MOL0     H19275   3.251   7.264   8.726 -0.2429 -0.5283  0.3369
  884MOL0     H19276   3.317   7.128   8.806  0.2366  1.0215  0.8185
  884MOL0     H19277   3.547   7.209   8.760  0.1757 -0.0702  1.4646
  884MOL0     H19278   3.453   7.321   8.858  0.1369  0.6172 -0.0641
  884MOL0     H19279   3.416   7.476   8.688 -0.0722  0.8088 -0.2990
  884MOL0     H19280   3.475   7.360   8.562  1.9226 -0.6906 -0.2714
  884MOL0     H19281   3.669   7.475   8.792  1.0227  1.6699  0.5634
  884MOL0     H19282   3.713   7.384   8.656  1.7055  0.2268  0.5302
  884MOL0     H19283   3.674   7.579   8.504 -0.0694  5.5547 -1.2384
  884MOL0     H19284   3.578   7.660   8.626  1.4494  0.9903  0.6839
  884MOL0     H19285   3.803   7.760   8.620  1.2807 -0.3920 -2.3777
  884MOL0     H19286   3.776   7.679   8.771 -1.1908 -1.5914 -0.1038
  884MOL0     H19287   3.911   7.579   8.506  2.2166  2.8614 -0.9809
  884MOL0     H19288   3.925   7.490   8.661 -0.0100  1.0234  0.9912
  884MOL0     H19289   4.005   7.789   8.620 -4.6347 -0.8514  1.9770
  884MOL0     H19290   4.060   7.676   8.745  1.1355  1.8519 -0.8555
  884MOL0     H19291   4.281   7.564   8.718 -3.3709 -1.2545 -0.2325
  884MOL0     H19292   4.509   7.463   8.572 -0.2531  0.2095 -1.0163
  884MOL0     H19293   4.545   7.556   8.427 -2.3715  2.3646 -0.3236
  884MOL0     H19294   4.577   7.764   8.567  3.6834  1.4023  2.8389
  884MOL0     H19295   4.588   7.658   8.707 -0.6657 -0.0959 -0.1974
  884MOL0     H19296   4.766   7.669   8.463 -0.3965  1.1209  0.6725
  884MOL0     H19297   4.777   7.548   8.595  0.6352  1.3351  2.5189
  884MOL0     H19298   4.833   7.835   8.638 -0.1472  0.1954  1.4474
  884MOL0     H19299   4.947   7.709   8.621  0.6641  3.4829 -2.6951
  884MOL0     H19300   4.954   7.929   8.783 -2.0292 -0.3103  0.5307
  884MOL0     H19301   5.076   8.041   8.971  0.8064 -0.9890 -1.1039
  884MOL0     H19302   5.213   7.916   9.552  1.0384  0.3426  1.2276
  884MOL0     H19303   5.435   7.983   9.666 -1.9683 -0.0514 -0.7661
  884MOL0     H19304   5.817   7.913   9.438  0.1427  1.4913 -1.9027
  884MOL0     H19305   5.733   8.070   9.416  0.9438 -2.0277 -2.7895
  884MOL0     H19306   5.962   8.093   9.510 -1.1045 -1.3252 -2.0897
  884MOL0     H19307   5.839   8.164   9.615 -1.6187 -0.6541  1.3048
  884MOL0     H19308   5.840   7.961   9.750  0.5720  0.2435  0.7719
  884MOL0     H19309   5.956   7.883   9.645 -1.5063 -0.9628  1.2573
  884MOL0     H19310   6.017   8.150   9.786 -0.4093  0.4186 -1.0879
  884MOL0     H19311   6.134   8.021   9.731 -0.3923 -2.6217  0.4763
  884MOL0     H19312   6.031   7.867   9.911  2.1268 -1.2376  0.6818
  884MOL0     H19313   5.978   8.020   9.977  0.1357  2.2745 -2.1290
  884MOL0     H19314   6.196   7.933  10.070  1.4352  0.3621  0.7344
  884MOL0     H19315   6.277   7.950   9.915 -0.0476 -1.7467  1.1216
  884MOL0     H19316   6.140   8.182  10.074  0.4416  0.8941 -0.3693
  884MOL0     H19317   6.234   8.196   9.924  4.8395  2.0910  1.2311
  884MOL0     H19318   6.335   8.086  10.195 -2.2699 -0.9076 -0.3636
  884MOL0     H19319   6.416   8.088  10.041  0.0937 -0.1021  1.5351
  884MOL0     H19320   5.647   7.852   9.316 -0.5160 -0.0103  0.2981
  884MOL0     H19321   5.451   7.823   9.199  1.5828 -1.6668  0.6447
  884MOL0     H19322   4.989   7.706   9.221  2.3938  0.1287 -1.0890
  884MOL0     H19323   4.857   7.592   9.038 -0.3274  0.3866 -0.0787
  884MOL0     H19324   3.417   6.916   8.459 -0.8571 -0.6036  0.0778
  884MOL0     H19325   3.276   6.757   8.367 -1.9473  2.7094 -5.3566
  884MOL0     H19326   3.022   6.643   8.134 -0.4387  1.0248  0.3232
  884MOL0     H19327   2.919   6.435   7.997  0.6614 -0.5883  0.4372
  884MOL0     H19328   2.768   6.187   8.243 -1.5316  3.4869  0.2020
  884MOL0     H19329   2.836   6.132   8.091 -0.7292  0.2667 -1.1767
  884MOL0     H19330   2.534   6.155   8.101  0.3184  2.1539  0.5490
  884MOL0     H19331   2.617   6.028   8.195 -1.0053 -3.0042 -1.8951
  884MOL0     H19332   2.752   5.980   7.964 -1.3598 -0.9040  1.5405
  884MOL0     H19333   2.639   6.083   7.886  2.0151 -1.2804 -0.3083
  884MOL0     H19334   2.451   5.924   7.951  1.2649  2.2691 -0.2400
  884MOL0     H19335   2.578   5.862   7.843 -0.6142 -0.9362 -0.2691
  884MOL0     H19336   2.654   5.585   8.141  3.3090  0.1487 -2.3805
  884MOL0     H19337   2.616   6.409   8.306  0.9955 -0.5366  0.8247
  884MOL0     H19338   2.680   6.739   8.453  0.9340  0.2391  1.6517
  884MOL0     H19339   2.604   6.570   8.476  1.2471 -0.6462  3.5379
  884MOL0     H19340   2.752   6.610   8.541 -1.2446  0.5529  1.3186
  885MOL0     O19341   8.182   9.317   5.507 -0.0112  0.2168 -0.1324
  885MOL0     C19342   8.192   9.436   5.531  0.0446  0.1391  0.2589
  885MOL0     O19343   8.301   9.506   5.499  0.2024  0.4603  0.4791
  885MOL0     C19344   8.422   9.457   5.551  0.1980 -0.1875  0.1149
  885MOL0     C19345   8.449   9.368   5.652 -0.7581 -0.3294  0.0604
  885MOL0     C19346   8.581   9.362   5.704 -0.3982 -0.9014  0.2201
  885MOL0     C19347   8.696   9.421   5.646  0.2162 -0.1944 -0.6246
  885MOL0     O19348   8.828   9.414   5.693  0.0714  0.7995 -0.5334
  885MOL0     C19349   8.867   9.332   5.801 -0.0994  0.0899  0.2424
  885MOL0     C19350   8.878   9.415   5.922 -0.3327 -0.1201 -0.6162
  885MOL0     C19351   8.962   9.357   6.039 -0.4902  0.2205  0.4503
  885MOL0     C19352   8.907   9.231   6.085  0.5301 -0.4443  0.0322
  885MOL0     C19353   8.945   9.174   6.226 -0.3231  0.3097 -0.1433
  885MOL0     C19354   8.921   9.017   6.224 -0.4095  0.2951 -0.4186
  885MOL0     C19355   8.774   8.967   6.233  0.3000  0.1851  0.9318
  885MOL0     C19356   8.757   8.818   6.252 -0.2199  0.1212 -0.1743
  885MOL0     N19357   8.786   8.786   6.397 -0.1229  0.0343 -0.2634
  885MOL0     C19358   8.697   8.818   6.495 -0.0594 -0.1905 -0.2951
  885MOL0     C19359   8.764   8.783   6.608  0.5019  0.2595  0.2420
  885MOL0     C19360   8.712   8.786   6.753  0.6807  0.4494  0.1092
  885MOL0     C19361   8.639   8.918   6.776  0.1950  0.3232  1.1411
  885MOL0     C19362   8.582   8.893   6.917 -0.3955 -0.4808  0.8855
  885MOL0     C19363   8.460   8.975   6.951 -0.2778  0.1593 -0.0393
  885MOL0     O19364   8.360   8.958   6.849 -0.3747 -0.3680 -0.7371
  885MOL0     C19365   8.227   8.986   6.868 -0.2217  0.6785 -0.0423
  885MOL0     C19366   8.176   9.001   6.994  0.1021 -0.4541  0.5000
  885MOL0     C19367   8.042   9.012   7.011 -0.6675 -0.2084 -0.1357
  885MOL0     C19368   7.959   9.027   6.902 -0.1348 -0.6313  0.3908
  885MOL0     C19369   7.815   9.047   6.923  0.1861  0.0729 -0.5305
  885MOL0     O19370   7.730   8.981   6.841 -0.8123 -0.7733  0.1361
  885MOL0     C19371   7.600   8.991   6.869 -0.0403 -0.3197  0.1074
  885MOL0     C19372   7.531   9.111   6.871 -0.9396 -0.8325 -0.1685
  885MOL0     C19373   7.397   9.111   6.885  0.0573 -0.2347 -0.4044
  885MOL0     C19374   7.321   9.000   6.922  0.2292 -0.1163  0.9273
  885MOL0     O19375   7.184   8.992   6.917 -0.3355  0.6538 -0.4857
  885MOL0     C19376   7.108   9.111   6.890  0.8581  0.3738 -0.1863
  885MOL0     C19377   6.962   9.065   6.881 -0.4267 -0.5699 -0.6863
  885MOL0     C19378   6.881   9.147   6.788  0.4254 -0.8210  0.1921
  885MOL0     C19379   6.735   9.099   6.786  0.0443 -0.5300 -0.0579
  885MOL0     C19380   6.630   9.215   6.759 -0.8776  0.1592 -0.1021
  885MOL0     C19381   6.494   9.166   6.770 -0.1755  0.8460  0.8614
  885MOL0     C19382   6.384   9.246   6.700 -0.0842 -0.8021  0.3505
  885MOL0     C19383   6.278   9.167   6.634 -0.8342 -0.3493  0.0429
  885MOL0    Cl19384   6.175   9.275   6.543 -0.2078  0.1454 -0.1955
  885MOL0     C19385   7.389   8.880   6.934  0.1000  0.5502  0.8754
  885MOL0     C19386   7.526   8.876   6.897  0.0313 -0.2759 -0.2142
  885MOL0     O19387   7.778   9.106   7.023  0.1269 -0.5062 -0.0351
  885MOL0     C19388   8.003   9.012   6.768  0.2265 -0.4533  0.4987
  885MOL0     C19389   8.136   8.975   6.758 -1.7428  0.7173 -0.5292
  885MOL0     N19390   8.893   8.721   6.575  0.4926 -1.1517 -0.0041
  885MOL0     N19391   8.896   8.721   6.447  0.2696  0.3206 -1.4264
  885MOL0     C19392   8.668   9.507   5.541  0.2107 -0.4078 -0.3212
  885MOL0     C19393   8.538   9.514   5.488  0.2238 -0.6484  0.3179
  885MOL0     C19394   8.077   9.507   5.576  1.1969 -0.8137 -0.2330
  885MOL0     C19395   8.094   9.607   5.680 -0.3829 -0.4443 -0.5241
  885MOL0     C19396   7.973   9.666   5.733  0.0785  0.4109 -0.5639
  885MOL0     C19397   7.843   9.624   5.691  0.1474  0.5868 -0.3878
  885MOL0     O19398   7.728   9.678   5.736 -0.0714 -0.5647  0.0048
  885MOL0     C19399   7.727   9.746   5.858 -0.0899  0.1903 -0.7027
  885MOL0     C19400   7.588   9.756   5.927 -0.3620  0.0938 -0.8086
  885MOL0     C19401   7.490   9.837   5.834 -0.6231  0.4201 -0.0644
  885MOL0     C19402   7.343   9.789   5.877  0.7281 -0.5945  1.2093
  885MOL0     C19403   7.303   9.855   5.991  0.0945  0.6950 -0.3279
  885MOL0     C19404   7.297   9.909   6.098  0.0287 -1.0488 -0.6159
  885MOL0     C19405   7.840   9.529   5.588  1.0047 -0.8172  0.2863
  885MOL0     C19406   7.948   9.476   5.517  0.2576 -0.0569 -0.6353
  885MOL0     C19407   7.913   9.376   5.404  0.4904  0.0373  0.0210
  885MOL0     H19408   8.373   9.310   5.703 -1.9332  1.9224  1.0066
  885MOL0     H19409   8.579   9.301   5.794 -5.4870 -2.0871 -0.3496
  885MOL0     H19410   8.805   9.243   5.812  0.2148  0.0556  2.1697
  885MOL0     H19411   8.961   9.288   5.767 -1.1876 -2.0517 -0.1844
  885MOL0     H19412   8.781   9.441   5.965 -0.0058  1.9622 -1.0462
  885MOL0     H19413   8.918   9.511   5.889 -2.3062  1.4902  1.3462
  885MOL0     H19414   8.970   9.431   6.119 -0.8406 -0.8000  1.4635
  885MOL0     H19415   9.059   9.329   5.997 -0.0685  3.8538 -1.3597
  885MOL0     H19416   8.798   9.233   6.079  0.6153  0.7018 -1.9452
  885MOL0     H19417   8.946   9.157   6.015 -1.5335  0.2667 -2.0043
  885MOL0     H19418   9.051   9.194   6.243  0.4769 -0.8233 -3.1523
  885MOL0     H19419   8.880   9.220   6.301 -0.5599 -0.1768 -0.0416
  885MOL0     H19420   8.972   8.983   6.133 -0.1468  0.2081 -0.2385
  885MOL0     H19421   8.973   8.969   6.306  2.7773  1.6620 -1.4769
  885MOL0     H19422   8.718   8.986   6.141  1.5695  0.2143  0.1393
  885MOL0     H19423   8.738   9.026   6.318  1.3257 -1.5079  2.5842
  885MOL0     H19424   8.659   8.777   6.227 -0.6541 -0.2448  1.9083
  885MOL0     H19425   8.823   8.767   6.182 -1.1312 -1.8721  0.3539
  885MOL0     H19426   8.594   8.851   6.492  0.5437  1.9014  0.3921
  885MOL0     H19427   8.641   8.703   6.759  0.7628  0.2790 -0.9715
  885MOL0     H19428   8.791   8.769   6.826  0.9750  1.3478  0.0163
  885MOL0     H19429   8.709   9.002   6.766  0.5450 -0.1637 -1.4623
  885MOL0     H19430   8.564   8.930   6.697  3.4352 -0.4635 -2.3769
  885MOL0     H19431   8.659   8.915   6.992 -1.2449  1.4803  1.2267
  885MOL0     H19432   8.542   8.792   6.930 -1.7467 -0.4953 -2.4929
  885MOL0     H19433   8.475   9.083   6.966  0.3628  0.5300 -2.7222
  885MOL0     H19434   8.426   8.944   7.050  0.1896 -0.4151 -0.0548
  885MOL0     H19435   8.241   8.990   7.080  0.0293 -0.5237  0.5453
  885MOL0     H19436   8.014   9.017   7.115  0.8183 -0.2022  0.2888
  885MOL0     H19437   7.570   9.211   6.852 -4.0574  0.2850 -1.2388
  885MOL0     H19438   7.344   9.206   6.876  0.0001  0.0200  1.8596
  885MOL0     H19439   7.114   9.186   6.969 -2.9947  2.9272 -2.0290
  885MOL0     H19440   7.132   9.145   6.789  0.5689 -0.6171 -0.6109
  885MOL0     H19441   6.958   8.961   6.848  0.4000 -1.6687  2.4034
  885MOL0     H19442   6.927   9.066   6.985 -0.8171 -0.1137 -0.8154
  885MOL0     H19443   6.880   9.247   6.832  0.0240 -1.3967  1.5336
  885MOL0     H19444   6.903   9.144   6.681 -4.8027  1.3172 -1.2855
  885MOL0     H19445   6.716   9.068   6.889  1.8672 -2.6227 -0.2676
  885MOL0     H19446   6.747   9.017   6.715  0.1095 -1.6806  1.2492
  885MOL0     H19447   6.654   9.247   6.657 -1.7548 -0.9853 -0.6838
  885MOL0     H19448   6.651   9.302   6.823  0.3629 -1.2927  1.5568
  885MOL0     H19449   6.486   9.065   6.729  1.8461  0.8311  0.4053
  885MOL0     H19450   6.460   9.153   6.873 -1.9962  0.7236  0.2706
  885MOL0     H19451   6.438   9.306   6.625  1.0262 -2.4864 -0.2747
  885MOL0     H19452   6.346   9.311   6.780 -0.6181 -0.4658 -0.1697
  885MOL0     H19453   6.333   9.105   6.563 -1.3468  0.3666 -0.9963
  885MOL0     H19454   6.217   9.111   6.705 -0.3470  0.6394  1.2849
  885MOL0     H19455   7.330   8.791   6.954  1.2489 -0.3743  0.2598
  885MOL0     H19456   7.577   8.780   6.900  2.9311  1.1392 -0.0752
  885MOL0     H19457   7.929   9.012   6.689  1.0006  1.2845 -0.2685
  885MOL0     H19458   8.188   8.948   6.667 -0.0330  0.4887  0.4762
  885MOL0     H19459   8.758   9.550   5.499  0.7730 -0.6112  0.6609
  885MOL0     H19460   8.517   9.583   5.407 -4.2218 -1.3726  0.6053
  885MOL0     H19461   8.190   9.645   5.713 -0.9004 -2.0001  3.1654
  885MOL0     H19462   7.988   9.740   5.811  1.1187 -0.7196  0.3328
  885MOL0     H19463   7.769   9.844   5.835  2.4633 -0.0188  2.3386
  885MOL0     H19464   7.789   9.710   5.941 -2.5961 -1.1040  0.7466
  885MOL0     H19465   7.597   9.800   6.027  0.2796 -3.6349  0.9396
  885MOL0     H19466   7.558   9.652   5.944 -0.0889  0.2831  1.0704
  885MOL0     H19467   7.511   9.798   5.734 -1.5568  0.9941 -0.4909
  885MOL0     H19468   7.499   9.945   5.821 -0.8143  0.3892 -0.4695
  885MOL0     H19469   7.275   9.822   5.798  3.2911  0.6383 -0.6342
  885MOL0     H19470   7.340   9.680   5.881  1.2515 -0.6058  1.3258
  885MOL0     H19471   7.284   9.950   6.196 -0.5134  2.0268 -1.8793
  885MOL0     H19472   7.740   9.501   5.557  0.3083  1.7407  0.0173
  885MOL0     H19473   7.896   9.276   5.444  0.3369  0.0323 -0.0527
  885MOL0     H19474   7.818   9.410   5.361  0.2264  1.1710  1.4463
  885MOL0     H19475   7.984   9.388   5.321  0.5988 -2.2347 -0.2718
  886MOL0     O19476   5.219   7.849   0.046  0.0005  0.9741  0.1557
  886MOL0     C19477   5.235   7.944   0.124 -0.9146  0.4872 -0.6987
  886MOL0     O19478   5.295   7.931   0.246  0.2355  0.3346 -0.4779
  886MOL0     C19479   5.341   7.808   0.290  1.0343 -0.5983 -0.0937
  886MOL0     C19480   5.243   7.703   0.315 -0.6570  0.1440  0.9409
  886MOL0     C19481   5.285   7.574   0.354 -0.0425  0.4654 -0.0741
  886MOL0     C19482   5.422   7.547   0.370  0.2742 -0.6931  0.5599
  886MOL0     O19483   5.464   7.418   0.393 -0.0132 -0.1098  0.4224
  886MOL0     C19484   5.605   7.396   0.433  0.7061  0.2715  0.7600
  886MOL0     C19485   5.633   7.445   0.579  0.6474  0.5100  0.0415
  886MOL0     C19486   5.596   7.331   0.674 -0.0585  0.2766  0.8773
  886MOL0     C19487   5.699   7.218   0.673 -0.1312 -0.3661 -0.7286
  886MOL0     C19488   5.687   7.133   0.800 -0.4001 -0.1508 -0.7295
  886MOL0     C19489   5.733   7.201   0.930 -0.6800 -0.4213 -0.1203
  886MOL0     C19490   5.749   7.096   1.042 -0.3101  1.2188  0.1590
  886MOL0     C19491   5.612   7.069   1.117 -1.1862 -0.9772  0.4174
  886MOL0     N19492   5.610   6.944   1.190 -0.7885  0.1242 -0.8963
  886MOL0     C19493   5.709   6.878   1.260 -0.9848 -0.3054  0.0808
  886MOL0     C19494   5.659   6.781   1.327  0.4206  0.7220  0.0575
  886MOL0     C19495   5.739   6.688   1.415 -0.1027  0.7779  0.9991
  886MOL0     C19496   5.743   6.735   1.567 -0.0008 -0.9971  1.0783
  886MOL0     C19497   5.842   6.658   1.650  0.1586  1.6531 -0.5583
  886MOL0     C19498   5.836   6.709   1.802 -0.0375  0.2919 -0.5925
  886MOL0     O19499   5.967   6.725   1.859  0.0221 -0.2614  0.1184
  886MOL0     C19500   6.031   6.599   1.874 -1.1822 -0.9564  0.5833
  886MOL0     C19501   6.170   6.601   1.909  0.1440 -0.1601 -0.0534
  886MOL0     C19502   6.236   6.478   1.938  0.7430  0.2162 -0.7791
  886MOL0     C19503   6.171   6.353   1.931  0.4900  1.3196 -0.0672
  886MOL0     C19504   6.238   6.225   1.951 -0.5322  0.3339  0.0040
  886MOL0     O19505   6.374   6.221   1.941  0.6334 -0.1402  0.2814
  886MOL0     C19506   6.441   6.101   1.941 -0.3427  0.0920 -0.6259
  886MOL0     C19507   6.562   6.080   2.011  0.1662 -0.1663  0.7631
  886MOL0     C19508   6.646   5.966   1.981 -0.1317  0.2197  0.4822
  886MOL0     C19509   6.605   5.867   1.891 -0.0019 -0.0924  0.8738
  886MOL0     O19510   6.669   5.756   1.853 -0.1366  0.1208  0.6982
  886MOL0     C19511   6.811   5.774   1.818  0.4728 -0.1477  0.3201
  886MOL0     C19512   6.870   5.639   1.783  0.7161  0.1897  0.3307
  886MOL0     C19513   7.030   5.638   1.782 -0.3159  0.8326 -0.1976
  886MOL0     C19514   7.082   5.725   1.667 -0.0292 -0.4040 -0.3611
  886MOL0     C19515   7.233   5.717   1.654  0.3757 -0.1551  0.3487
  886MOL0     C19516   7.289   5.828   1.562 -0.4742 -0.9095  0.0994
  886MOL0     C19517   7.245   5.836   1.408 -0.1309  0.4444 -1.3187
  886MOL0     C19518   7.246   5.708   1.329 -0.1050 -0.0612 -0.5377
  886MOL0    Cl19519   7.391   5.609   1.331  0.8126 -0.4454  0.5388
  886MOL0     C19520   6.482   5.888   1.830  0.1805 -0.7980  0.5920
  886MOL0     C19521   6.401   6.000   1.851  0.4628  0.2290 -0.3099
  886MOL0     O19522   6.172   6.132   1.989  0.6837  0.4042 -0.8500
  886MOL0     C19523   6.026   6.354   1.910 -0.1748  0.3900 -0.2809
  886MOL0     C19524   5.955   6.472   1.875  0.1519  0.5625 -0.6767
  886MOL0     N19525   5.518   6.782   1.292 -0.6031  1.0054 -0.2075
  886MOL0     N19526   5.492   6.887   1.227 -0.6141 -0.2005 -0.1049
  886MOL0     C19527   5.514   7.654   0.362  0.5266 -0.2373 -0.0598
  886MOL0     C19528   5.472   7.780   0.310  0.0446  0.3326 -0.4460
  886MOL0     C19529   5.175   8.065   0.082 -0.0872 -0.4541 -0.4930
  886MOL0     C19530   5.257   8.164   0.040 -0.2428 -1.0315  0.7208
  886MOL0     C19531   5.203   8.286  -0.011  0.3222 -0.4227  0.3746
  886MOL0     C19532   5.065   8.301  -0.007  0.4235 -0.2997  0.1536
  886MOL0     O19533   5.015   8.416  -0.072 -0.1652  0.2870 -0.5272
  886MOL0     C19534   4.879   8.460  -0.062  0.4545  0.0003 -0.2917
  886MOL0     C19535   4.813   8.388  -0.188  0.7431  0.1559 -0.1335
  886MOL0     C19536   4.674   8.415  -0.220  0.4395 -0.6180  0.3104
  886MOL0     C19537   4.615   8.290  -0.294 -0.7306 -0.7482 -0.7447
  886MOL0     C19538   4.589   8.171  -0.213  0.4303  0.5355 -0.3586
  886MOL0     C19539   4.561   8.074  -0.142 -0.4631  0.3946  0.4907
  886MOL0     C19540   4.980   8.201   0.046  0.2897  0.1894  0.0661
  886MOL0     C19541   5.038   8.086   0.090 -0.2403  0.0226  0.5582
  886MOL0     C19542   4.948   7.971   0.119 -0.4368  0.3243 -0.6300
  886MOL0     H19543   5.140   7.720   0.289 -1.0742 -2.5582  0.4944
  886MOL0     H19544   5.204   7.502   0.351 -0.0603  0.4945 -0.3151
  886MOL0     H19545   5.626   7.290   0.418  0.9676  0.1153  2.1452
  886MOL0     H19546   5.671   7.449   0.364  1.3002 -3.3505 -1.7088
  886MOL0     H19547   5.562   7.526   0.597  0.8341  0.7150 -0.1445
  886MOL0     H19548   5.736   7.478   0.592  1.1712 -0.3575 -1.5921
  886MOL0     H19549   5.497   7.290   0.650  0.7072 -1.2414  0.1782
  886MOL0     H19550   5.580   7.379   0.771 -2.3755  1.3280  0.0612
  886MOL0     H19551   5.678   7.161   0.582 -0.6461  1.5810 -1.9186
  886MOL0     H19552   5.803   7.251   0.670  0.0127 -0.7148  0.1182
  886MOL0     H19553   5.586   7.090   0.796 -0.4419 -0.0173 -1.1377
  886MOL0     H19554   5.745   7.041   0.787  0.8414  0.8803 -3.1140
  886MOL0     H19555   5.831   7.245   0.910 -1.1065  1.0936  1.0142
  886MOL0     H19556   5.664   7.276   0.967 -0.6041 -1.4944  2.3897
  886MOL0     H19557   5.814   7.150   1.113  0.1054  1.0227 -0.0694
  886MOL0     H19558   5.805   7.006   1.016  1.5623  3.0106 -2.6896
  886MOL0     H19559   5.583   7.147   1.188 -2.9641 -3.0410  2.1364
  886MOL0     H19560   5.536   7.057   1.040  0.3208 -0.7367 -1.1577
  886MOL0     H19561   5.814   6.906   1.265 -1.3012  0.9340  0.3103
  886MOL0     H19562   5.706   6.584   1.406 -0.7358  1.0319  0.3001
  886MOL0     H19563   5.838   6.682   1.369 -1.0810 -0.7930 -1.0647
  886MOL0     H19564   5.777   6.839   1.559 -0.6952 -0.6301  2.5965
  886MOL0     H19565   5.638   6.725   1.597 -1.2051 -0.6048 -2.5274
  886MOL0     H19566   5.942   6.652   1.607  0.0274 -1.7930 -0.6379
  886MOL0     H19567   5.807   6.554   1.646  1.3340  0.7769  4.4189
  886MOL0     H19568   5.772   6.638   1.856  0.7387 -1.4401 -1.8648
  886MOL0     H19569   5.783   6.805   1.807  0.5254  0.5652  0.8288
  886MOL0     H19570   6.226   6.693   1.913  0.6207 -0.4796  2.2466
  886MOL0     H19571   6.340   6.481   1.967 -0.2955  0.4907  3.5879
  886MOL0     H19572   6.604   6.159   2.072  0.0863  0.3795  0.1304
  886MOL0     H19573   6.741   5.974   2.034 -0.7541  1.1954  1.4741
  886MOL0     H19574   6.825   5.848   1.740  1.9485 -0.7869 -0.0486
  886MOL0     H19575   6.873   5.792   1.906  2.2765 -3.6166 -0.0796
  886MOL0     H19576   6.842   5.577   1.868  0.1578  0.3495  0.2638
  886MOL0     H19577   6.829   5.603   1.688  0.5877  0.0994  0.4214
  886MOL0     H19578   7.065   5.676   1.878  1.7595 -0.6224 -0.3186
  886MOL0     H19579   7.070   5.537   1.765  0.6149  0.7171  2.3129
  886MOL0     H19580   7.054   5.830   1.673 -1.3524 -0.7593  0.0484
  886MOL0     H19581   7.033   5.679   1.580  2.4464 -2.6610 -0.6875
  886MOL0     H19582   7.275   5.630   1.603  0.2173  1.2106 -2.2792
  886MOL0     H19583   7.278   5.722   1.753  0.0480  0.9014  0.4646
  886MOL0     H19584   7.281   5.925   1.611  2.1608  0.9132 -2.6508
  886MOL0     H19585   7.398   5.814   1.565 -0.4719 -2.8588 -3.5188
  886MOL0     H19586   7.313   5.903   1.353  1.2683  0.5368  0.4485
  886MOL0     H19587   7.149   5.888   1.411 -0.3950 -0.0812 -0.6213
  886MOL0     H19588   7.169   5.641   1.369  0.6531 -1.2821 -1.0556
  886MOL0     H19589   7.202   5.717   1.230  1.1682  0.3749 -1.0786
  886MOL0     H19590   6.446   5.803   1.773 -1.4186  0.3100 -0.1541
  886MOL0     H19591   6.301   5.998   1.807  0.2297 -1.2117  0.2391
  886MOL0     H19592   5.970   6.261   1.919 -0.3971  0.3564 -1.7790
  886MOL0     H19593   5.847   6.467   1.872  0.0193  0.9606  1.5748
  886MOL0     H19594   5.616   7.646   0.399  1.2214 -0.2378 -1.9000
  886MOL0     H19595   5.536   7.867   0.298 -0.7626  0.9090 -0.6207
  886MOL0     H19596   5.365   8.149   0.034 -0.0334  0.9171 -2.6496
  886MOL0     H19597   5.271   8.364  -0.045 -0.7177  0.5181  0.3897
  886MOL0     H19598   4.884   8.568  -0.079  1.7869  0.5898  3.1248
  886MOL0     H19599   4.836   8.441   0.036 -1.1642  1.4609 -0.6673
  886MOL0     H19600   4.829   8.283  -0.160  3.2622  0.6002  0.3869
  886MOL0     H19601   4.883   8.409  -0.269  0.1828 -0.5267 -0.8105
  886MOL0     H19602   4.679   8.498  -0.292 -2.0052  0.6734  1.5079
  886MOL0     H19603   4.608   8.441  -0.137 -1.2664 -0.1815 -1.1168
  886MOL0     H19604   4.520   8.318  -0.341 -1.4544 -1.8904 -0.0163
  886MOL0     H19605   4.683   8.263  -0.376 -0.2870  1.1212 -1.0402
  886MOL0     H19606   4.552   7.995  -0.070 -0.9583  1.6543  1.8614
  886MOL0     H19607   4.873   8.218   0.059  0.0070  0.7534 -2.4349
  886MOL0     H19608   4.903   7.972   0.219 -2.6363  2.2321 -1.5223
  886MOL0     H19609   4.864   7.961   0.050 -1.7951  0.3260  0.9398
  886MOL0     H19610   4.998   7.874   0.116  2.1379  1.5145  0.6643
  887MOL0     O19611   9.031   8.821   0.707  0.0922  0.4175  0.1453
  887MOL0     C19612   8.906   8.796   0.722 -0.0383 -0.5170  0.1555
  887MOL0     O19613   8.851   8.705   0.817  0.3114  0.1606  0.0986
  887MOL0     C19614   8.934   8.665   0.916 -0.0479 -0.1863 -0.1967
  887MOL0     C19615   9.019   8.750   0.981 -0.2398  0.4286  0.1531
  887MOL0     C19616   9.103   8.708   1.084  0.4305  1.0646 -0.3618
  887MOL0     C19617   9.109   8.575   1.123  0.0734 -0.0660 -0.8216
  887MOL0     O19618   9.195   8.522   1.221  0.5424  0.1798 -0.1005
  887MOL0     C19619   9.297   8.598   1.270 -0.3482 -0.1435 -0.2449
  887MOL0     C19620   9.252   8.688   1.382  0.0195  1.3285  0.6459
  887MOL0     C19621   9.383   8.724   1.454 -0.3913 -0.5812 -0.9810
  887MOL0     C19622   9.358   8.820   1.576 -0.0193 -0.2842  0.0149
  887MOL0     C19623   9.306   8.771   1.701  0.5864  0.4786 -0.4120
  887MOL0     C19624   9.298   8.869   1.819 -0.2835 -0.4065  0.5225
  887MOL0     C19625   9.214   8.815   1.939  0.0082 -1.5520 -0.1010
  887MOL0     C19626   9.214   8.910   2.057 -0.8060 -0.5019  0.5394
  887MOL0     N19627   9.340   8.951   2.126  0.0991  0.2922 -0.2218
  887MOL0     C19628   9.434   9.046   2.094 -0.5724  0.5634 -0.0968
  887MOL0     C19629   9.527   9.029   2.193 -0.1976 -0.2853  0.2798
  887MOL0     C19630   9.647   9.125   2.211  0.1907  0.6583 -0.5123
  887MOL0     C19631   9.599   9.265   2.258 -0.0384 -0.9881 -0.0687
  887MOL0     C19632   9.717   9.360   2.250 -0.4508 -0.2897 -0.5011
  887MOL0     C19633   9.828   9.314   2.353 -0.0140  0.1071  0.3990
  887MOL0     O19634   9.948   9.385   2.319 -0.2619  0.3020 -0.5965
  887MOL0     C19635  10.052   9.378   2.406  0.5842  0.0179 -0.2818
  887MOL0     C19636  10.063   9.305   2.533  0.2524  0.8949  1.0490
  887MOL0     C19637  10.176   9.325   2.608  0.7896  0.4706 -0.3746
  887MOL0     C19638  10.273   9.426   2.579 -0.0861  0.4666  0.1807
  887MOL0     C19639  10.401   9.450   2.653  0.0742 -0.3999  0.2198
  887MOL0     O19640  10.487   9.535   2.607 -0.5153  0.6343  0.2492
  887MOL0     C19641  10.607   9.581   2.667 -0.1279  0.0856 -0.6240
  887MOL0     C19642  10.672   9.512   2.775  0.2949 -0.5137  0.3922
  887MOL0     C19643  10.787   9.564   2.843  0.2607  0.2635  0.4963
  887MOL0     C19644  10.827   9.691   2.803 -0.1731 -0.3966 -1.1755
  887MOL0     O19645  10.941   9.760   2.843  0.2574  0.7580  0.7544
  887MOL0     C19646  11.041   9.678   2.916  0.0313  0.1005  0.4148
  887MOL0     C19647  11.177   9.755   2.938  0.3006  0.1585 -0.6110
  887MOL0     C19648  11.276   9.733   2.825 -1.0088  0.0668  0.1998
  887MOL0     C19649  11.396   9.828   2.851  0.6962  0.1971 -0.0146
  887MOL0     C19650  11.535   9.767   2.814 -0.1567  0.4432  0.5070
  887MOL0     C19651  11.646   9.846   2.871  0.4681  0.6375  0.3941
  887MOL0     C19652  11.769   9.766   2.859 -0.5857 -0.6566  1.0094
  887MOL0     C19653  11.896   9.836   2.924  0.8694  0.1540 -0.2664
  887MOL0    Cl19654  11.893  10.009   2.871  0.0665 -0.4124  0.2630
  887MOL0     C19655  10.767   9.753   2.698  1.1060  0.2450 -0.5499
  887MOL0     C19656  10.651   9.702   2.627  0.2690 -0.9358 -0.8232
  887MOL0     O19657  10.418   9.366   2.739 -0.3218 -0.0806 -0.1756
  887MOL0     C19658  10.250   9.490   2.450 -0.9458  0.3305 -0.4614
  887MOL0     C19659  10.142   9.471   2.372  0.9469  0.0677 -0.2542
  887MOL0     N19660   9.491   8.926   2.273  0.1309  0.3172 -0.6889
  887MOL0     N19661   9.384   8.874   2.231  0.8924  0.3707 -0.2756
  887MOL0     C19662   9.029   8.483   1.054 -0.5928 -0.0857  0.2993
  887MOL0     C19663   8.939   8.530   0.960 -0.3118 -0.1144  0.1803
  887MOL0     C19664   8.814   8.864   0.626  0.6472 -0.1975 -0.1757
  887MOL0     C19665   8.684   8.808   0.597 -0.1983  0.1426  0.6705
  887MOL0     C19666   8.599   8.870   0.505 -0.3211  0.3342 -0.1845
  887MOL0     C19667   8.629   8.988   0.444  0.8013  0.5135  0.0767
  887MOL0     O19668   8.532   9.059   0.373 -0.2100 -0.0803 -0.7106
  887MOL0     C19669   8.577   9.161   0.284 -0.1352 -0.2101 -0.0614
  887MOL0     C19670   8.474   9.227   0.202  0.3367 -0.3090  0.4082
  887MOL0     C19671   8.413   9.132   0.090  0.3973 -0.9070 -0.7519
  887MOL0     C19672   8.316   9.212  -0.004 -0.1050 -0.1505 -0.1249
  887MOL0     C19673   8.369   9.329  -0.069 -0.0459 -0.4809  0.2880
  887MOL0     C19674   8.413   9.426  -0.129  0.0470 -0.8488  0.2510
  887MOL0     C19675   8.755   9.037   0.464 -0.0481  0.0328 -0.4353
  887MOL0     C19676   8.846   8.979   0.556 -0.4684  0.1075 -0.2934
  887MOL0     C19677   8.964   9.071   0.576 -0.7053 -1.3870  0.3311
  887MOL0     H19678   9.025   8.854   0.949  3.6855  0.5474  0.6901
  887MOL0     H19679   9.167   8.782   1.132  1.4509  0.0519 -0.1186
  887MOL0     H19680   9.362   8.517   1.306 -0.5523 -0.1548  0.1067
  887MOL0     H19681   9.359   8.656   1.201 -2.8121  2.1630 -0.6836
  887MOL0     H19682   9.189   8.630   1.450 -0.0093  1.1417  0.4642
  887MOL0     H19683   9.202   8.778   1.348  0.9654  1.7619  0.3602
  887MOL0     H19684   9.446   8.778   1.383  0.6429 -1.0538 -0.4579
  887MOL0     H19685   9.436   8.630   1.475  0.4705  0.1992  0.5148
  887MOL0     H19686   9.461   8.851   1.597 -0.1436  0.0617  0.1213
  887MOL0     H19687   9.301   8.909   1.547  0.8656  0.6089  0.9482
  887MOL0     H19688   9.211   8.727   1.671  0.1566  1.5488 -0.6630
  887MOL0     H19689   9.358   8.688   1.749 -0.5277 -0.0809 -0.1314
  887MOL0     H19690   9.402   8.895   1.841 -0.2456 -0.3785  0.3169
  887MOL0     H19691   9.251   8.961   1.784  0.7331 -1.0782 -3.0870
  887MOL0     H19692   9.261   8.723   1.975  4.0497 -0.1565 -1.2932
  887MOL0     H19693   9.113   8.795   1.904 -0.0769  0.6064 -1.2761
  887MOL0     H19694   9.160   9.002   2.033  1.7483  0.5445 -1.7351
  887MOL0     H19695   9.157   8.860   2.136 -0.5828 -3.4303 -0.9932
  887MOL0     H19696   9.428   9.118   2.013 -2.2803  0.8205  0.2294
  887MOL0     H19697   9.706   9.073   2.287  0.3013  0.3176 -0.8269
  887MOL0     H19698   9.701   9.143   2.117 -1.9039  1.3346 -1.6670
  887MOL0     H19699   9.529   9.310   2.187  0.8975 -0.3373 -0.5944
  887MOL0     H19700   9.545   9.268   2.354 -0.1565  0.4601 -0.1622
  887MOL0     H19701   9.686   9.465   2.255  0.5232  0.0252 -0.8477
  887MOL0     H19702   9.769   9.357   2.154  2.0594 -1.7775  0.8231
  887MOL0     H19703   9.855   9.208   2.340 -0.0041  0.2541 -0.9399
  887MOL0     H19704   9.797   9.325   2.457  0.2138 -0.7067  0.5671
  887MOL0     H19705   9.987   9.229   2.547 -0.3739  1.8532  3.2446
  887MOL0     H19706  10.184   9.273   2.704  0.6482  0.3041 -0.4522
  887MOL0     H19707  10.629   9.416   2.801  0.6796 -1.4407 -2.1552
  887MOL0     H19708  10.830   9.507   2.925 -1.7388  0.0420  1.4332
  887MOL0     H19709  10.998   9.643   3.010 -0.0864 -2.6824 -0.5704
  887MOL0     H19710  11.061   9.591   2.851 -1.9388  1.2386 -1.8789
  887MOL0     H19711  11.158   9.860   2.962  3.9190  0.5419  1.2278
  887MOL0     H19712  11.225   9.704   3.022  0.9361 -2.1723 -2.2712
  887MOL0     H19713  11.309   9.629   2.817 -3.9229 -0.7967 -3.8665
  887MOL0     H19714  11.230   9.756   2.729 -2.8496  0.3008  1.0839
  887MOL0     H19715  11.400   9.868   2.953  2.3311 -0.5877  0.2569
  887MOL0     H19716  11.390   9.909   2.777  3.6907  0.4081 -0.1481
  887MOL0     H19717  11.549   9.752   2.707 -0.3061  1.5792  0.3107
  887MOL0     H19718  11.533   9.666   2.856  0.6820  0.2233  0.0392
  887MOL0     H19719  11.646   9.939   2.813 -0.7410 -1.4328 -3.2452
  887MOL0     H19720  11.629   9.861   2.978 -1.8289 -0.6543  0.2911
  887MOL0     H19721  11.782   9.751   2.751 -0.6723  0.5397  0.8236
  887MOL0     H19722  11.763   9.668   2.907 -0.4177 -2.3617 -2.1629
  887MOL0     H19723  11.901   9.827   3.033  0.0949 -0.0972 -0.2510
  887MOL0     H19724  11.983   9.781   2.888  1.7092  0.6498  0.9248
  887MOL0     H19725  10.812   9.843   2.656  1.5283  1.4356  2.2647
  887MOL0     H19726  10.607   9.761   2.547 -0.5035 -1.1743 -0.5882
  887MOL0     H19727  10.329   9.551   2.408  0.2752 -0.9375 -0.0478
  887MOL0     H19728  10.131   9.531   2.283 -0.8325 -1.6749 -1.2894
  887MOL0     H19729   9.047   8.377   1.072 -2.7278 -0.0724  3.3695
  887MOL0     H19730   8.873   8.455   0.916 -0.3947 -2.4093  3.8220
  887MOL0     H19731   8.674   8.709   0.640  4.1497 -0.8786 -0.2313
  887MOL0     H19732   8.498   8.831   0.498  0.1225 -0.6381 -1.5749
  887MOL0     H19733   8.657   9.128   0.218 -0.3523  0.1263 -0.4945
  887MOL0     H19734   8.615   9.242   0.347 -1.3814 -1.3407  2.3112
  887MOL0     H19735   8.521   9.316   0.159  1.5408 -0.6310  1.0168
  887MOL0     H19736   8.394   9.263   0.267 -2.2338 -0.5041 -2.4084
  887MOL0     H19737   8.358   9.047   0.132  2.8992 -2.0754  0.3770
  887MOL0     H19738   8.501   9.090   0.039  3.5929 -0.1117  3.4929
  887MOL0     H19739   8.281   9.132  -0.070 -0.9244 -0.8646  1.1329
  887MOL0     H19740   8.237   9.256   0.058 -0.3698  0.2750 -0.7623
  887MOL0     H19741   8.432   9.521  -0.175 -0.5834 -1.1880 -0.7467
  887MOL0     H19742   8.784   9.132   0.420 -0.1056  0.7171  0.9580
  887MOL0     H19743   8.969   9.113   0.677 -0.4259 -0.8961  0.1129
  887MOL0     H19744   9.051   9.011   0.549  0.4281 -0.1782  1.2036
  887MOL0     H19745   8.964   9.152   0.503 -0.1843 -1.2680  0.4600
  888MOL0     O19746   3.993   8.353   6.675  0.2188 -0.1119  0.0721
  888MOL0     C19747   4.040   8.378   6.566 -0.8300  0.6342 -0.2207
  888MOL0     O19748   4.177   8.389   6.536 -0.1746  0.0305  0.1560
  888MOL0     C19749   4.270   8.363   6.635 -0.1223 -0.3394  0.2822
  888MOL0     C19750   4.258   8.248   6.718  0.1120  0.1298  0.0435
  888MOL0     C19751   4.340   8.217   6.825 -0.3752  0.5188  0.4546
  888MOL0     C19752   4.462   8.288   6.841  0.8672 -0.3448 -0.0751
  888MOL0     O19753   4.546   8.260   6.942  0.2020 -0.0914 -0.2785
  888MOL0     C19754   4.668   8.340   6.972  0.0186  0.1051 -0.7914
  888MOL0     C19755   4.775   8.266   7.043 -0.1054 -0.4540 -0.2311
  888MOL0     C19756   4.874   8.352   7.120  0.8143  1.0670 -0.1285
  888MOL0     C19757   4.977   8.271   7.195 -0.5851  0.2989  0.8118
  888MOL0     C19758   5.066   8.377   7.265 -0.6761  0.4794  0.0046
  888MOL0     C19759   5.182   8.304   7.322  0.0227  0.3618 -0.6516
  888MOL0     C19760   5.291   8.408   7.355 -0.2362  0.2943 -1.4922
  888MOL0     C19761   5.268   8.504   7.463  0.4899 -0.4791 -0.2111
  888MOL0     N19762   5.251   8.450   7.600 -0.3636  0.1389 -0.5933
  888MOL0     C19763   5.350   8.475   7.694 -0.0872  0.4516 -0.1565
  888MOL0     C19764   5.292   8.438   7.808  0.0893  0.3454  0.8714
  888MOL0     C19765   5.334   8.437   7.947  0.5282 -0.1008 -0.3840
  888MOL0     C19766   5.462   8.520   7.978  0.0888 -0.1457 -0.6287
  888MOL0     C19767   5.425   8.655   8.028 -0.1952  0.3920  0.4182
  888MOL0     C19768   5.541   8.743   8.091  0.4062  0.1597  0.0364
  888MOL0     O19769   5.647   8.762   7.999  0.2744 -0.9465  0.8762
  888MOL0     C19770   5.764   8.832   8.026 -0.2091  0.5156  0.0332
  888MOL0     C19771   5.847   8.839   7.911  0.0472  1.0808  0.9285
  888MOL0     C19772   5.956   8.923   7.907  0.6819  0.2863  0.9497
  888MOL0     C19773   5.990   8.985   8.027 -0.4515 -0.2431 -0.1521
  888MOL0     C19774   6.120   9.070   8.044  0.0717  0.6832 -0.4978
  888MOL0     O19775   6.134   9.149   8.160  0.2473 -0.2341 -0.7059
  888MOL0     C19776   6.255   9.206   8.169 -1.3918  0.0069 -0.0365
  888MOL0     C19777   6.283   9.339   8.146  0.5437 -0.4212  0.2129
  888MOL0     C19778   6.412   9.392   8.180  0.0028  0.8211 -0.2529
  888MOL0     C19779   6.514   9.302   8.225 -0.1094 -1.2087 -1.1625
  888MOL0     O19780   6.641   9.353   8.235  0.6223  0.0773  0.5452
  888MOL0     C19781   6.699   9.334   8.359 -1.0782  0.3032  0.2604
  888MOL0     C19782   6.815   9.430   8.365  0.6105 -0.6065 -0.4240
  888MOL0     C19783   6.868   9.457   8.512  0.3433 -1.7141 -0.5619
  888MOL0     C19784   6.949   9.588   8.509 -0.5241 -0.0476 -0.0225
  888MOL0     C19785   7.081   9.577   8.596  0.2161  0.6872  0.3114
  888MOL0     C19786   7.182   9.462   8.549  0.3138  0.2751 -0.6097
  888MOL0     C19787   7.288   9.427   8.655 -0.3421 -0.7435  0.2709
  888MOL0     C19788   7.365   9.552   8.701  0.0417  0.6922 -0.6329
  888MOL0    Cl19789   7.507   9.490   8.802  0.2803 -0.1830 -0.4231
  888MOL0     C19790   6.493   9.169   8.231  0.5216 -0.3044 -0.5529
  888MOL0     C19791   6.361   9.126   8.213  0.0811  0.3675  0.3515
  888MOL0     O19792   6.204   9.064   7.954 -0.1191 -0.1214 -0.2585
  888MOL0     C19793   5.907   8.974   8.137  1.1092  0.5766 -1.2227
  888MOL0     C19794   5.789   8.903   8.137 -0.3128  0.2699 -0.9280
  888MOL0     N19795   5.164   8.385   7.781 -0.4050  0.5312  0.1204
  888MOL0     N19796   5.142   8.394   7.652  0.1955 -0.0123  0.3835
  888MOL0     C19797   4.478   8.402   6.760  0.4815  0.2661 -0.2098
  888MOL0     C19798   4.381   8.443   6.666 -0.0841  0.0877 -0.8458
  888MOL0     C19799   3.941   8.394   6.452 -0.1624 -0.6474  0.3464
  888MOL0     C19800   3.980   8.493   6.358  0.6144 -0.2929  0.1986
  888MOL0     C19801   3.878   8.537   6.267  0.2633 -1.0733 -0.0144
  888MOL0     C19802   3.746   8.479   6.258 -0.1120  0.2429  0.3653
  888MOL0     O19803   3.662   8.526   6.162 -0.3736 -0.4961  0.2919
  888MOL0     C19804   3.528   8.478   6.162  0.7225  0.1416  0.2363
  888MOL0     C19805   3.452   8.552   6.048  1.0621 -0.9792 -0.3037
  888MOL0     C19806   3.304   8.500   6.042  0.7807 -0.1128  0.0748
  888MOL0     C19807   3.225   8.559   5.921  0.7923 -0.0190  0.3444
  888MOL0     C19808   3.280   8.492   5.798  0.2195 -0.3328 -0.9610
  888MOL0     C19809   3.331   8.439   5.709  0.3156  0.3088  0.3773
  888MOL0     C19810   3.722   8.376   6.347  0.0564  0.2198  0.7787
  888MOL0     C19811   3.803   8.344   6.453 -1.2513 -0.2317 -0.3170
  888MOL0     C19812   3.763   8.223   6.534 -0.0665 -1.2736 -0.5151
  888MOL0     H19813   4.174   8.185   6.691  0.0794 -1.4112  3.3376
  888MOL0     H19814   4.335   8.137   6.898  4.1329  0.3175  0.7964
  888MOL0     H19815   4.711   8.387   6.883  2.5627  1.1253  0.8668
  888MOL0     H19816   4.636   8.418   7.042 -1.8940 -0.6244 -0.7930
  888MOL0     H19817   4.820   8.215   6.957 -1.1328  3.1132 -3.1535
  888MOL0     H19818   4.730   8.191   7.109  3.2078 -3.0466 -0.6448
  888MOL0     H19819   4.808   8.404   7.191  2.3866 -0.2162  2.4293
  888MOL0     H19820   4.913   8.426   7.050  0.5639 -0.2341 -1.6757
  888MOL0     H19821   4.944   8.195   7.267  1.9322 -2.0743 -0.3578
  888MOL0     H19822   5.042   8.216   7.127 -2.1083  1.2398 -1.5721
  888MOL0     H19823   5.105   8.448   7.191  2.1852 -1.0515 -0.0979
  888MOL0     H19824   5.009   8.417   7.350 -1.4113 -1.1086  0.2899
  888MOL0     H19825   5.149   8.251   7.412 -3.7756  2.8996 -0.3265
  888MOL0     H19826   5.230   8.223   7.267  1.6260 -0.8056  2.2065
  888MOL0     H19827   5.331   8.456   7.265  0.6687  0.8024 -0.8322
  888MOL0     H19828   5.382   8.356   7.388 -0.9234  0.0460  0.1040
  888MOL0     H19829   5.354   8.571   7.462 -0.6999  1.0879 -0.7271
  888MOL0     H19830   5.186   8.572   7.437  0.2854 -1.8281 -3.4744
  888MOL0     H19831   5.454   8.505   7.687  0.3420 -1.0263 -0.2886
  888MOL0     H19832   5.251   8.444   8.018 -0.5482 -0.7100 -1.5302
  888MOL0     H19833   5.360   8.331   7.956 -2.2364 -0.9824 -1.5499
  888MOL0     H19834   5.513   8.473   8.063 -2.7340  0.4571  1.5397
  888MOL0     H19835   5.522   8.522   7.886  1.4716  1.3341  0.2576
  888MOL0     H19836   5.336   8.656   8.091 -1.7730  1.7756 -1.6823
  888MOL0     H19837   5.395   8.705   7.936  1.7230 -0.4036 -0.6972
  888MOL0     H19838   5.583   8.696   8.181  1.0748 -1.3612 -1.0287
  888MOL0     H19839   5.506   8.843   8.118  0.6687 -0.3194  2.4138
  888MOL0     H19840   5.833   8.780   7.821  0.1941  2.7321 -0.2107
  888MOL0     H19841   6.023   8.944   7.824 -0.3846 -1.4053 -0.4121
  888MOL0     H19842   6.209   9.409   8.109  3.0713  0.9076 -2.8975
  888MOL0     H19843   6.435   9.497   8.172 -0.3572  0.9791  0.6969
  888MOL0     H19844   6.623   9.376   8.426 -1.8692  0.8822 -0.9598
  888MOL0     H19845   6.733   9.233   8.383  2.9826  1.4538  0.1055
  888MOL0     H19846   6.900   9.398   8.303  0.7998  1.5697 -1.3843
  888MOL0     H19847   6.778   9.528   8.331 -1.3226 -1.1818 -0.0755
  888MOL0     H19848   6.784   9.463   8.582 -1.1041  1.8576 -2.3265
  888MOL0     H19849   6.922   9.368   8.545 -0.0097 -0.7722  2.9480
  888MOL0     H19850   6.882   9.672   8.528 -1.5761 -1.2010  1.6773
  888MOL0     H19851   6.995   9.596   8.410  1.3006 -1.1252  0.6882
  888MOL0     H19852   7.050   9.549   8.697  1.1861 -1.1368  0.1333
  888MOL0     H19853   7.140   9.669   8.585 -0.0787  0.8889  0.4020
  888MOL0     H19854   7.133   9.367   8.524  0.1444  0.5114 -1.1916
  888MOL0     H19855   7.236   9.493   8.459  0.8717 -0.3268 -0.4918
  888MOL0     H19856   7.353   9.352   8.607  0.0515  0.3299 -0.9420
  888MOL0     H19857   7.249   9.383   8.747  0.1449 -2.2807 -0.2332
  888MOL0     H19858   7.402   9.624   8.628  1.2050  2.3423  1.4720
  888MOL0     H19859   7.298   9.623   8.751  1.6192  1.8136 -0.0324
  888MOL0     H19860   6.579   9.106   8.247  0.2700 -0.0341  2.2719
  888MOL0     H19861   6.339   9.019   8.219  1.9971  0.0099  1.7119
  888MOL0     H19862   5.926   9.021   8.233 -0.9004  0.3926 -0.6754
  888MOL0     H19863   5.724   8.902   8.223  0.2325  1.6845 -0.4627
  888MOL0     H19864   4.571   8.457   6.775  1.3213 -0.7425 -1.4812
  888MOL0     H19865   4.400   8.538   6.617 -0.6596  2.3412  2.8954
  888MOL0     H19866   4.079   8.538   6.358  0.5367 -0.1216  0.3969
  888MOL0     H19867   3.902   8.616   6.196 -0.5467 -0.5762  0.2527
  888MOL0     H19868   3.476   8.494   6.257  3.0067 -0.3175  1.6459
  888MOL0     H19869   3.524   8.371   6.140 -1.2649  0.3966 -0.8418
  888MOL0     H19870   3.489   8.511   5.953 -0.4920 -0.3863 -1.2052
  888MOL0     H19871   3.467   8.661   6.041  2.0084 -1.1291 -0.8477
  888MOL0     H19872   3.240   8.530   6.125 -0.3543  1.8648 -1.4277
  888MOL0     H19873   3.295   8.391   6.035 -1.1384 -0.0058  0.3590
  888MOL0     H19874   3.120   8.531   5.929  0.8730 -0.4671 -0.1252
  888MOL0     H19875   3.235   8.668   5.924  1.6154 -0.0557 -0.5350
  888MOL0     H19876   3.378   8.378   5.634  1.7901 -1.2026  2.4456
  888MOL0     H19877   3.625   8.326   6.348 -0.4302  0.9917 -1.3479
  888MOL0     H19878   3.765   8.253   6.639 -1.3015  6.0002 -2.0143
  888MOL0     H19879   3.663   8.188   6.506 -0.9056  0.1801  0.5143
  888MOL0     H19880   3.826   8.140   6.502  1.2993 -0.6367  0.4238
  889MOL0     O19881   3.933   4.393   7.050 -1.0012  0.1367  0.7010
  889MOL0     C19882   3.847   4.482   7.066 -0.6030 -0.5911  0.7762
  889MOL0     O19883   3.880   4.615   7.075  0.2044  0.3971  1.3625
  889MOL0     C19884   4.014   4.648   7.081 -0.5374 -0.5477  0.3803
  889MOL0     C19885   4.084   4.631   7.204  0.3224 -0.2087 -0.0521
  889MOL0     C19886   4.207   4.690   7.216  0.3188  0.5557 -0.7892
  889MOL0     C19887   4.269   4.770   7.112  0.7613  0.3749 -0.6246
  889MOL0     O19888   4.389   4.827   7.125 -0.5912  0.8312  0.0436
  889MOL0     C19889   4.463   4.802   7.252 -0.3831 -0.4419  0.5322
  889MOL0     C19890   4.601   4.862   7.247 -0.2553  0.7818  0.0126
  889MOL0     C19891   4.699   4.801   7.148  0.4046  0.0448 -0.0975
  889MOL0     C19892   4.822   4.892   7.143 -0.4622 -0.6051  0.3754
  889MOL0     C19893   4.936   4.844   7.051  0.0309 -0.1196 -0.6891
  889MOL0     C19894   5.037   4.964   7.029  0.0280  0.0941  0.2861
  889MOL0     C19895   5.125   5.013   7.148  0.2548 -0.2343 -0.4362
  889MOL0     C19896   5.234   4.906   7.181 -0.1453 -0.2510 -0.5534
  889MOL0     N19897   5.338   4.971   7.265  0.8366  0.6024 -0.7774
  889MOL0     C19898   5.428   5.059   7.213  0.7687  0.2262 -0.1028
  889MOL0     C19899   5.482   5.126   7.321 -0.3441 -0.0734  0.3700
  889MOL0     C19900   5.582   5.237   7.306  0.4890 -0.4884  0.6385
  889MOL0     C19901   5.728   5.193   7.281  0.0776  0.5137  0.1257
  889MOL0     C19902   5.772   5.064   7.361  1.0368  0.1828  0.0021
  889MOL0     C19903   5.920   5.044   7.367  0.0714  0.3892  0.3787
  889MOL0     O19904   5.987   5.089   7.476  0.3437 -0.2046  0.2375
  889MOL0     C19905   6.127   5.090   7.470  0.2881  0.2005  0.0132
  889MOL0     C19906   6.197   5.160   7.568  1.1382 -0.1079 -0.2855
  889MOL0     C19907   6.333   5.182   7.572 -0.9672  0.5903  0.3451
  889MOL0     C19908   6.421   5.155   7.460 -0.0366  0.8319 -0.4525
  889MOL0     C19909   6.565   5.188   7.452 -0.2120  0.3730  0.1843
  889MOL0     O19910   6.613   5.253   7.563  0.2489  0.6289 -0.3424
  889MOL0     C19911   6.747   5.275   7.574 -0.0550 -0.6830 -0.6058
  889MOL0     C19912   6.802   5.389   7.519  0.3582 -0.1101  0.5606
  889MOL0     C19913   6.939   5.413   7.510 -0.2327  0.1827 -0.5016
  889MOL0     C19914   7.034   5.319   7.558  0.2695 -0.2716 -0.0643
  889MOL0     O19915   7.168   5.335   7.560  0.4958  0.1708  0.0400
  889MOL0     C19916   7.236   5.434   7.485  0.6201  1.0302  0.0726
  889MOL0     C19917   7.382   5.402   7.484 -0.5303  0.1815 -0.3279
  889MOL0     C19918   7.446   5.414   7.619  0.2854  1.0831  0.2288
  889MOL0     C19919   7.600   5.391   7.611  0.5827 -1.0439  0.9794
  889MOL0     C19920   7.683   5.515   7.579 -0.4814  0.2216 -0.7049
  889MOL0     C19921   7.835   5.483   7.613  0.0323  0.3576  0.2137
  889MOL0     C19922   7.913   5.612   7.625 -1.2149  0.8866  0.3290
  889MOL0     C19923   8.063   5.601   7.675 -0.6258  0.8318 -0.2415
  889MOL0    Cl19924   8.144   5.519   7.546  0.2171  0.2097  0.3017
  889MOL0     C19925   6.977   5.207   7.620  0.1147 -0.3316 -0.1966
  889MOL0     C19926   6.834   5.182   7.631 -0.6151 -0.3572  0.6773
  889MOL0     O19927   6.646   5.140   7.370 -0.3693  0.8561  0.0990
  889MOL0     C19928   6.356   5.086   7.353  0.9716 -0.2095  0.2002
  889MOL0     C19929   6.213   5.055   7.361 -0.5309  0.2736 -0.4997
  889MOL0     N19930   5.408   5.094   7.428  0.5631  0.1849  0.1967
  889MOL0     N19931   5.315   5.005   7.395 -0.2092 -0.0761  0.0412
  889MOL0     C19932   4.191   4.780   6.993 -0.3047  0.3457 -0.1552
  889MOL0     C19933   4.067   4.720   6.976  0.3580 -0.0152 -0.3765
  889MOL0     C19934   3.701   4.464   7.065  0.2459 -0.0328  0.5616
  889MOL0     C19935   3.624   4.548   7.156 -0.6716 -0.6068  0.4431
  889MOL0     C19936   3.485   4.532   7.161  0.6073 -0.1789 -0.3540
  889MOL0     C19937   3.434   4.422   7.095  0.6718  0.5286  0.5681
  889MOL0     O19938   3.297   4.401   7.104  0.5323  0.6482  0.0761
  889MOL0     C19939   3.234   4.292   7.040 -0.3617 -0.8074  0.6451
  889MOL0     C19940   3.249   4.167   7.121  0.0346  0.3893  0.0819
  889MOL0     C19941   3.159   4.054   7.055  0.3048  0.0332  0.1225
  889MOL0     C19942   3.231   3.908   7.073  0.5587 -0.6469 -0.3808
  889MOL0     C19943   3.226   3.852   7.212 -0.0800  0.1017 -0.8498
  889MOL0     C19944   3.240   3.792   7.317 -0.2775 -0.4071  0.5111
  889MOL0     C19945   3.514   4.333   7.021  0.4713  0.1620  0.3918
  889MOL0     C19946   3.649   4.355   6.997  0.0945  0.3811 -0.1245
  889MOL0     C19947   3.725   4.276   6.883 -0.1591 -0.9770 -0.6159
  889MOL0     H19948   4.039   4.578   7.288 -1.4909  0.3844 -0.6039
  889MOL0     H19949   4.249   4.667   7.313  0.8953 -1.0268 -1.3782
  889MOL0     H19950   4.417   4.853   7.337 -0.1011  0.0460  0.3912
  889MOL0     H19951   4.479   4.694   7.264  4.3212  0.1493  1.5845
  889MOL0     H19952   4.641   4.861   7.349  0.4872  2.0704 -0.2431
  889MOL0     H19953   4.588   4.968   7.225 -2.2337  0.5062 -0.3263
  889MOL0     H19954   4.649   4.799   7.051 -2.1339  1.3303  1.0757
  889MOL0     H19955   4.729   4.699   7.177 -1.3662 -1.0099 -1.7408
  889MOL0     H19956   4.795   4.990   7.102  1.8740  0.1455  0.4886
  889MOL0     H19957   4.874   4.905   7.238  3.3044 -3.0887 -1.0912
  889MOL0     H19958   4.990   4.768   7.108 -1.6619  1.2047  3.0661
  889MOL0     H19959   4.912   4.814   6.948 -0.0043 -0.1248 -0.6799
  889MOL0     H19960   5.108   4.932   6.952  4.3860  0.6613  3.7024
  889MOL0     H19961   4.968   5.044   6.998 -1.2864 -0.4019  1.7999
  889MOL0     H19962   5.060   5.039   7.233  0.0627  0.0005 -0.6541
  889MOL0     H19963   5.184   5.101   7.124  1.5674 -1.3138 -1.2798
  889MOL0     H19964   5.188   4.825   7.238  2.0642 -2.1660 -1.3222
  889MOL0     H19965   5.283   4.865   7.092 -0.8371 -0.7606 -0.7016
  889MOL0     H19966   5.465   5.082   7.113  1.0493 -0.9948 -0.2986
  889MOL0     H19967   5.550   5.303   7.225 -3.1478 -0.9561  1.5021
  889MOL0     H19968   5.574   5.305   7.391 -0.5490  0.0659  0.1210
  889MOL0     H19969   5.736   5.165   7.176  2.2311 -0.9218  0.5868
  889MOL0     H19970   5.800   5.273   7.301  1.0700  0.3284 -2.3688
  889MOL0     H19971   5.736   4.979   7.303 -1.5246  0.2526  1.3222
  889MOL0     H19972   5.738   5.073   7.465  1.9600  3.5561  0.1146
  889MOL0     H19973   5.961   5.071   7.270 -0.8627 -1.2022 -0.5224
  889MOL0     H19974   5.946   4.938   7.354 -2.3873 -0.0130 -2.4204
  889MOL0     H19975   6.151   5.217   7.648  2.9519  0.5860  0.3356
  889MOL0     H19976   6.378   5.240   7.652  1.9232  0.0489 -0.7903
  889MOL0     H19977   6.733   5.462   7.477  1.7831 -0.3722 -2.5098
  889MOL0     H19978   6.972   5.511   7.475  1.0218 -0.5510 -1.4565
  889MOL0     H19979   7.205   5.428   7.381  2.6582 -0.1016 -0.5367
  889MOL0     H19980   7.219   5.532   7.531 -3.1088 -0.0516  1.2794
  889MOL0     H19981   7.400   5.300   7.449 -0.9397  0.5917 -1.7955
  889MOL0     H19982   7.431   5.474   7.418  0.6619 -2.7356 -2.8913
  889MOL0     H19983   7.422   5.513   7.660  0.9988  1.2472  0.2562
  889MOL0     H19984   7.411   5.344   7.694 -2.2609  2.6879  0.6854
  889MOL0     H19985   7.636   5.323   7.533  2.6240  0.4382  0.5352
  889MOL0     H19986   7.630   5.347   7.707 -0.5002 -0.9558  1.3715
  889MOL0     H19987   7.670   5.597   7.649 -0.3819 -1.0847  0.9191
  889MOL0     H19988   7.675   5.542   7.473 -2.4688  1.0109 -0.3933
  889MOL0     H19989   7.846   5.415   7.697  2.3008  0.6294  0.2018
  889MOL0     H19990   7.877   5.423   7.532  0.8199 -0.4654  1.2043
  889MOL0     H19991   7.858   5.682   7.688 -1.6236  2.0521 -1.2688
  889MOL0     H19992   7.903   5.656   7.526 -0.9104  0.2209 -0.0057
  889MOL0     H19993   8.095   5.705   7.689 -2.2061  0.9300  3.9414
  889MOL0     H19994   8.073   5.557   7.774 -0.2733 -0.0876 -0.6773
  889MOL0     H19995   7.052   5.154   7.678  1.3101  2.5273  1.0524
  889MOL0     H19996   6.793   5.090   7.670 -0.6546  0.0034  1.4917
  889MOL0     H19997   6.414   5.072   7.263  1.9972 -0.8100  0.9366
  889MOL0     H19998   6.166   5.004   7.278  0.8005 -0.3453 -0.8855
  889MOL0     H19999   4.235   4.841   6.914 -0.4595  2.3064  1.1801
  889MOL0     H20000   4.013   4.749   6.886  2.8566 -0.0637 -1.9720
  889MOL0     H20001   3.680   4.633   7.194  0.0431 -0.2822 -1.2290
  889MOL0     H20002   3.418   4.596   7.218  2.3906  2.1392 -0.7200
  889MOL0     H20003   3.268   4.282   6.936 -0.6958  5.3015 -0.4130
  889MOL0     H20004   3.125   4.300   7.038 -0.6467 -1.6805  4.4415
  889MOL0     H20005   3.232   4.195   7.225 -1.7665  1.5265 -0.4738
  889MOL0     H20006   3.354   4.136   7.112  1.2718  4.0888  0.0085
  889MOL0     H20007   3.135   4.081   6.952 -1.0463 -1.5707 -0.0211
  889MOL0     H20008   3.066   4.047   7.113  0.6437  2.1148  1.0152
  889MOL0     H20009   3.182   3.830   7.013 -2.1050  1.1713 -0.7399
  889MOL0     H20010   3.337   3.922   7.048  0.8125 -0.7024  0.6072
  889MOL0     H20011   3.245   3.724   7.400 -0.9590 -0.8417  0.2072
  889MOL0     H20012   3.462   4.251   6.972  2.2841 -1.6986  1.4595
  889MOL0     H20013   3.795   4.344   6.834 -1.5164 -0.0112 -1.2880
  889MOL0     H20014   3.780   4.194   6.930 -0.0597 -1.1654 -1.0617
  889MOL0     H20015   3.654   4.243   6.807  0.9035 -1.4655 -1.4073
  890MOL0     O20016   8.052   7.215   2.439 -0.2264  0.6624  0.0298
  890MOL0     C20017   8.001   7.118   2.381  0.3082 -0.6301  0.3940
  890MOL0     O20018   8.078   7.044   2.290  0.5229  0.1170  0.9463
  890MOL0     C20019   8.186   7.090   2.235  0.7333  0.6288 -0.5493
  890MOL0     C20020   8.194   7.137   2.105  0.0334  0.0489 -0.6114
  890MOL0     C20021   8.316   7.180   2.053  0.9699 -0.5557  0.2649
  890MOL0     C20022   8.434   7.189   2.130 -0.1052 -0.6040 -0.2364
  890MOL0     O20023   8.551   7.250   2.079 -0.1275 -0.7711  0.1379
  890MOL0     C20024   8.676   7.190   2.118 -0.4554  0.0098  0.8284
  890MOL0     C20025   8.782   7.274   2.035 -1.1071  0.0871  0.6050
  890MOL0     C20026   8.923   7.227   2.073  0.0154  0.0999  0.4599
  890MOL0     C20027   9.024   7.307   1.984 -0.1117  0.2830 -0.5066
  890MOL0     C20028   9.170   7.263   2.005  0.1924  0.0080  0.7438
  890MOL0     C20029   9.274   7.367   1.946 -0.2305 -0.2497 -0.4000
  890MOL0     C20030   9.405   7.376   2.025 -0.3139 -0.3215  0.5096
  890MOL0     C20031   9.485   7.494   1.978 -0.4872 -0.8944 -0.0071
  890MOL0     N20032   9.586   7.528   2.079  0.9579 -0.1206 -0.2369
  890MOL0     C20033   9.612   7.663   2.123 -0.9850 -0.1458  0.1399
  890MOL0     C20034   9.725   7.638   2.195  0.2930 -0.7635 -0.4599
  890MOL0     C20035   9.778   7.743   2.295  0.4132  0.6541  0.5631
  890MOL0     C20036   9.835   7.687   2.429  0.5367 -0.0521  0.3024
  890MOL0     C20037   9.731   7.674   2.539  0.0208 -0.2341 -0.2832
  890MOL0     C20038   9.768   7.552   2.625  0.1158  0.3403  0.6272
  890MOL0     O20039   9.665   7.536   2.725  0.6146 -0.0240 -0.1204
  890MOL0     C20040   9.533   7.511   2.666  0.4543 -0.2955 -0.2531
  890MOL0     C20041   9.503   7.461   2.536 -0.4442  1.2414 -0.0553
  890MOL0     C20042   9.373   7.439   2.496  0.0162  0.1503  0.3929
  890MOL0     C20043   9.262   7.458   2.593 -0.3130 -0.8096 -0.3560
  890MOL0     C20044   9.121   7.421   2.556  0.1703  0.2764 -0.1523
  890MOL0     O20045   9.030   7.427   2.648 -0.2683 -0.8398 -0.5096
  890MOL0     C20046   8.900   7.389   2.621  0.0130  0.3559 -0.2579
  890MOL0     C20047   8.826   7.342   2.738  0.4689  0.4927  0.4369
  890MOL0     C20048   8.690   7.316   2.730  0.1143 -0.2283 -0.0961
  890MOL0     C20049   8.612   7.349   2.615 -0.6343  0.9197 -0.3912
  890MOL0     O20050   8.477   7.331   2.631  0.3759  0.4506  0.5987
  890MOL0     C20051   8.387   7.376   2.530  0.4510  0.2218 -0.8364
  890MOL0     C20052   8.323   7.514   2.559  0.8176  0.2308 -0.2535
  890MOL0     C20053   8.201   7.534   2.457 -0.3896  0.3970  0.3551
  890MOL0     C20054   8.135   7.673   2.480  0.3899 -0.2451 -1.1007
  890MOL0     C20055   8.017   7.699   2.382 -0.1009 -0.6577 -0.0277
  890MOL0     C20056   8.077   7.761   2.249 -0.1972 -0.5549  0.0386
  890MOL0     C20057   7.981   7.781   2.140 -0.7136 -0.2245 -0.1003
  890MOL0     C20058   8.051   7.820   2.016 -0.3985  0.4588  0.2070
  890MOL0    Cl20059   8.127   7.672   1.942  0.3061  0.2915 -0.4444
  890MOL0     C20060   8.683   7.393   2.501  0.0381 -0.0192  0.3330
  890MOL0     C20061   8.824   7.412   2.500  0.2405  0.2281 -0.0226
  890MOL0     O20062   9.108   7.390   2.439 -0.0169 -0.4892  0.1482
  890MOL0     C20063   9.284   7.515   2.710 -0.9315  0.2357  0.2583
  890MOL0     C20064   9.412   7.544   2.745 -0.3491 -0.2070 -0.3187
  890MOL0     N20065   9.764   7.510   2.193 -0.1108 -0.1536 -0.2119
  890MOL0     N20066   9.687   7.443   2.116 -0.1769 -0.7243 -0.4581
  890MOL0     C20067   8.426   7.139   2.262  0.8313 -0.7217  0.1739
  890MOL0     C20068   8.302   7.094   2.313 -0.1815 -0.3402 -0.7024
  890MOL0     C20069   7.864   7.066   2.417 -0.4172 -0.4267 -0.3843
  890MOL0     C20070   7.832   6.929   2.395  1.0163 -0.8250 -0.3320
  890MOL0     C20071   7.701   6.882   2.413  0.6067 -0.8330 -0.0331
  890MOL0     C20072   7.588   6.962   2.448 -0.5512  0.1700  0.4244
  890MOL0     O20073   7.463   6.910   2.469 -0.0135  0.2545  0.2029
  890MOL0     C20074   7.444   6.858   2.597  0.2561 -0.3473  0.1463
  890MOL0     C20075   7.379   6.953   2.695  0.2551  0.5709 -0.0679
  890MOL0     C20076   7.226   6.971   2.668 -0.2106  0.3007  1.3170
  890MOL0     C20077   7.174   7.093   2.738 -0.1603 -0.4519 -0.2478
  890MOL0     C20078   7.032   7.131   2.718 -0.4696  0.3338 -0.0755
  890MOL0     C20079   6.916   7.157   2.720  0.1062  0.3608  0.4281
  890MOL0     C20080   7.624   7.097   2.476  0.6641  0.3639 -0.3058
  890MOL0     C20081   7.757   7.149   2.466 -0.2029 -0.0695  0.3826
  890MOL0     C20082   7.768   7.297   2.478 -0.3789 -0.1292 -0.5339
  890MOL0     H20083   8.111   7.126   2.036 -0.6607 -3.7580  0.5485
  890MOL0     H20084   8.320   7.200   1.947  4.2475 -2.4238 -0.0904
  890MOL0     H20085   8.701   7.218   2.221 -1.4562  3.5741  0.2221
  890MOL0     H20086   8.691   7.085   2.091  0.5424 -0.2512  2.2736
  890MOL0     H20087   8.783   7.381   2.057  2.1410  0.5514 -1.2132
  890MOL0     H20088   8.757   7.258   1.930  2.6748  2.3085 -0.8332
  890MOL0     H20089   8.947   7.120   2.073  1.1795  0.3114  2.4093
  890MOL0     H20090   8.938   7.259   2.177  1.6002  1.7206 -0.2251
  890MOL0     H20091   8.988   7.311   1.881  0.1545  1.9414 -0.5680
  890MOL0     H20092   9.026   7.409   2.023  1.5068 -0.2447  0.9295
  890MOL0     H20093   9.190   7.250   2.112 -1.4594  3.3110  1.5923
  890MOL0     H20094   9.181   7.167   1.953 -1.2143  0.5943 -0.6948
  890MOL0     H20095   9.297   7.332   1.845  0.0331 -1.1252 -0.0485
  890MOL0     H20096   9.229   7.467   1.945 -1.4519 -0.7689 -1.6699
  890MOL0     H20097   9.465   7.286   2.009  1.4756  1.0511 -0.9601
  890MOL0     H20098   9.379   7.387   2.131 -0.3229  0.2117  0.4574
  890MOL0     H20099   9.546   7.484   1.888  1.0725  0.3088  0.8457
  890MOL0     H20100   9.424   7.583   1.963  0.8227  0.0373  0.0475
  890MOL0     H20101   9.553   7.752   2.106 -2.2316 -0.6295  1.6829
  890MOL0     H20102   9.856   7.794   2.238  4.0342 -2.8704  1.9491
  890MOL0     H20103   9.697   7.814   2.317 -1.1078 -0.8982  0.2458
  890MOL0     H20104   9.888   7.594   2.407 -2.7340 -1.5295 -2.3443
  890MOL0     H20105   9.905   7.761   2.469  1.0667 -0.3095 -0.1270
  890MOL0     H20106   9.635   7.667   2.489  0.3178 -0.1873 -0.8670
  890MOL0     H20107   9.728   7.759   2.608 -1.1650 -2.1873  2.2772
  890MOL0     H20108   9.862   7.574   2.677  0.6585  0.9027 -0.5480
  890MOL0     H20109   9.775   7.459   2.569 -0.3378 -0.3766  1.7354
  890MOL0     H20110   9.586   7.444   2.468  0.4928  4.4330  0.1493
  890MOL0     H20111   9.350   7.429   2.391 -0.6485  1.2480  0.4198
  890MOL0     H20112   8.880   7.331   2.832  0.7144  0.7792  0.3283
  890MOL0     H20113   8.631   7.280   2.813  0.2572  0.8106  0.4726
  890MOL0     H20114   8.432   7.382   2.431  0.2604 -0.5533 -0.9781
  890MOL0     H20115   8.300   7.309   2.521  0.6050 -0.4366  1.7491
  890MOL0     H20116   8.278   7.514   2.658  2.6500  1.5133  0.6184
  890MOL0     H20117   8.382   7.604   2.541  1.6152  0.1342  1.7403
  890MOL0     H20118   8.224   7.512   2.353 -0.8347 -1.2954  0.5788
  890MOL0     H20119   8.138   7.449   2.485 -0.3311  0.5556  0.9885
  890MOL0     H20120   8.215   7.747   2.467  4.4207 -3.1297  3.5289
  890MOL0     H20121   8.092   7.672   2.581 -0.7002  2.3288 -1.4710
  890MOL0     H20122   7.944   7.770   2.423  1.0475  2.2276 -2.5416
  890MOL0     H20123   7.959   7.608   2.366 -0.4002 -0.6098  0.7481
  890MOL0     H20124   8.111   7.861   2.276  0.7271 -1.0550  0.7667
  890MOL0     H20125   8.172   7.718   2.215  0.9404  2.1866 -0.5365
  890MOL0     H20126   7.919   7.866   2.168  5.0924  5.0887 -1.2509
  890MOL0     H20127   7.919   7.694   2.116 -2.7018  0.9356  0.5989
  890MOL0     H20128   7.980   7.852   1.940 -0.2189 -0.7950 -0.5231
  890MOL0     H20129   8.127   7.893   2.047 -1.7273  2.6776 -1.4408
  890MOL0     H20130   8.637   7.427   2.409 -0.7216 -0.8659  0.3825
  890MOL0     H20131   8.883   7.449   2.416  2.3807 -1.5459  0.6156
  890MOL0     H20132   9.207   7.541   2.782  0.3690  0.3963  1.6598
  890MOL0     H20133   9.435   7.599   2.836  0.6371  0.9504 -1.2148
  890MOL0     H20134   8.512   7.157   2.325  1.0714 -0.6752 -0.1688
  890MOL0     H20135   8.305   7.057   2.415 -0.8678 -1.1458 -0.9658
  890MOL0     H20136   7.909   6.867   2.350  3.1332  1.0161  0.5276
  890MOL0     H20137   7.687   6.778   2.387  0.1919 -0.9916  0.8029
  890MOL0     H20138   7.530   6.805   2.641 -1.5181 -4.0219 -0.4026
  890MOL0     H20139   7.379   6.770   2.596 -1.7982  1.1214  0.0492
  890MOL0     H20140   7.437   7.045   2.683  1.4041  0.0256  1.0420
  890MOL0     H20141   7.400   6.911   2.794  0.8938 -2.9939 -1.5550
  890MOL0     H20142   7.165   6.888   2.705 -0.8673 -0.9689 -2.2666
  890MOL0     H20143   7.209   6.963   2.560  1.6285 -1.9310  1.1286
  890MOL0     H20144   7.195   7.084   2.845 -0.1612 -1.7888 -0.3413
  890MOL0     H20145   7.229   7.173   2.687 -0.2596 -1.5307 -2.1442
  890MOL0     H20146   6.811   7.172   2.727 -0.4439 -3.0639  0.8354
  890MOL0     H20147   7.544   7.166   2.498  0.2343  0.4150 -1.9067
  890MOL0     H20148   7.671   7.348   2.477  0.5326  1.8480  1.9243
  890MOL0     H20149   7.810   7.305   2.578  0.2131 -3.9076 -0.3547
  890MOL0     H20150   7.836   7.344   2.405  3.7703 -0.8091  2.5627
  891MOL0     O20151   8.067   3.537   0.323 -0.4186  0.8019  0.3648
  891MOL0     C20152   7.954   3.572   0.329 -0.2748 -0.5217  0.7109
  891MOL0     O20153   7.870   3.503   0.412  0.3070 -0.7342  0.1982
  891MOL0     C20154   7.919   3.392   0.481  0.0040 -0.3529  0.3863
  891MOL0     C20155   7.957   3.397   0.619  0.6412  0.2883  0.3026
  891MOL0     C20156   7.985   3.277   0.685  0.2633  0.0339 -0.3637
  891MOL0     C20157   7.980   3.148   0.617  0.4362  0.5085 -0.0714
  891MOL0     O20158   8.013   3.038   0.696 -0.1940 -0.2026 -0.2951
  891MOL0     C20159   7.970   2.904   0.653  0.6220 -0.8497 -0.0575
  891MOL0     C20160   7.987   2.799   0.766 -0.3250 -0.4856 -0.8129
  891MOL0     C20161   8.127   2.785   0.818  0.3561 -1.0393  0.2931
  891MOL0     C20162   8.128   2.693   0.936  0.3665 -0.0802  1.0472
  891MOL0     C20163   8.260   2.673   1.003 -0.1652  0.2091  0.1800
  891MOL0     C20164   8.374   2.598   0.927  0.4133  0.1798  0.6550
  891MOL0     C20165   8.504   2.591   1.017 -0.3944  0.5665 -0.1035
  891MOL0     C20166   8.560   2.731   1.058  0.6097  0.4590  0.4805
  891MOL0     N20167   8.677   2.724   1.148  0.5133 -0.7917 -0.6080
  891MOL0     C20168   8.811   2.741   1.107  0.0973 -0.3859  0.2840
  891MOL0     C20169   8.882   2.678   1.198  0.1834  0.4015  0.6361
  891MOL0     C20170   9.029   2.637   1.214  0.5738 -0.6379  0.4913
  891MOL0     C20171   9.095   2.706   1.340 -0.6815 -0.0885  0.4458
  891MOL0     C20172   9.250   2.694   1.351 -0.1211 -0.5962  0.6305
  891MOL0     C20173   9.291   2.546   1.365  0.3562  0.0709  0.1435
  891MOL0     O20174   9.436   2.536   1.363 -0.1211  0.3022 -0.3925
  891MOL0     C20175   9.486   2.539   1.492 -0.8846  0.2228 -0.3987
  891MOL0     C20176   9.523   2.666   1.535 -1.4089  0.5185 -0.1244
  891MOL0     C20177   9.603   2.690   1.654 -0.6060  0.0519  1.2834
  891MOL0     C20178   9.656   2.583   1.725 -0.0153  0.6698  0.5736
  891MOL0     C20179   9.745   2.609   1.840  0.1049  0.5308 -0.2907
  891MOL0     O20180   9.779   2.740   1.861  1.0174  0.6058  0.1166
  891MOL0     C20181   9.889   2.773   1.941 -0.1763 -0.3290  0.4012
  891MOL0     C20182   9.872   2.887   2.019  0.1211  0.1217 -0.0089
  891MOL0     C20183   9.973   2.934   2.110  0.3231  0.5512  0.5147
  891MOL0     C20184  10.093   2.860   2.117  0.5248  0.1953 -0.3872
  891MOL0     O20185  10.186   2.915   2.206  0.1952  0.4551  0.6199
  891MOL0     C20186  10.303   2.983   2.161 -0.0609  0.5298  0.1073
  891MOL0     C20187  10.296   3.132   2.187 -0.7014  0.4380  0.3313
  891MOL0     C20188  10.440   3.186   2.160 -0.7404 -0.7697 -0.0583
  891MOL0     C20189  10.450   3.337   2.162  0.0311  0.5412  0.4402
  891MOL0     C20190  10.596   3.400   2.186  0.1349 -1.2318  0.0729
  891MOL0     C20191  10.627   3.371   2.337  0.1691  0.4119  0.2501
  891MOL0     C20192  10.757   3.434   2.388 -0.2188 -0.2622 -0.7591
  891MOL0     C20193  10.756   3.438   2.536  0.3307 -0.2496 -0.2914
  891MOL0    Cl20194  10.807   3.270   2.595 -0.1906 -0.4420 -0.4092
  891MOL0     C20195  10.123   2.760   2.025  0.2469  0.2498 -0.1103
  891MOL0     C20196  10.022   2.721   1.929  0.0914 -0.4883  0.0298
  891MOL0     O20197   9.805   2.509   1.884  0.1300  0.5478  0.0950
  891MOL0     C20198   9.608   2.455   1.687 -0.7469 -0.2644  1.1439
  891MOL0     C20199   9.522   2.431   1.576 -0.1351 -0.2334 -0.1492
  891MOL0     N20200   8.796   2.622   1.288  0.0052  0.2639 -0.5815
  891MOL0     N20201   8.672   2.660   1.267 -0.4248 -0.3572 -0.0403
  891MOL0     C20202   7.943   3.142   0.485  0.2058  0.4507 -0.1356
  891MOL0     C20203   7.912   3.262   0.421  0.1107 -0.4248  0.2547
  891MOL0     C20204   7.906   3.685   0.243  0.4093  0.4395  0.3080
  891MOL0     C20205   7.766   3.718   0.253 -0.3366  0.4265  0.8923
  891MOL0     C20206   7.707   3.818   0.178 -0.6246 -0.0945  0.6084
  891MOL0     C20207   7.790   3.891   0.086  0.3531 -0.9333  0.9430
  891MOL0     O20208   7.724   3.981   0.001  0.1063  0.4238 -0.0392
  891MOL0     C20209   7.752   4.122   0.014 -0.0908  0.1457 -0.0592
  891MOL0     C20210   7.658   4.213  -0.062  0.1623 -0.1627 -0.4220
  891MOL0     C20211   7.725   4.352  -0.082 -1.0836 -0.3071 -0.2703
  891MOL0     C20212   7.826   4.344  -0.203 -0.9699 -1.1666 -0.5818
  891MOL0     C20213   7.856   4.469  -0.279  0.0566 -0.2365 -0.6027
  891MOL0     C20214   7.890   4.570  -0.337  0.3806 -0.1773 -0.1502
  891MOL0     C20215   7.922   3.854   0.072 -0.2984 -0.3857 -0.7387
  891MOL0     C20216   7.985   3.750   0.142  0.0233  0.0970  0.3778
  891MOL0     C20217   8.118   3.709   0.086 -0.3204  0.4576  0.5990
  891MOL0     H20218   7.955   3.492   0.672 -0.5687  1.6309 -1.9644
  891MOL0     H20219   7.999   3.282   0.793 -0.1654  0.2974 -0.3187
  891MOL0     H20220   7.863   2.898   0.632  0.5929 -1.2151  0.1737
  891MOL0     H20221   8.026   2.871   0.565 -2.0915 -1.5837 -1.6344
  891MOL0     H20222   7.949   2.704   0.726 -0.7178 -0.6884  0.0223
  891MOL0     H20223   7.936   2.844   0.851  3.6638  3.7894 -0.2660
  891MOL0     H20224   8.163   2.883   0.849  3.7105 -1.7438 -0.9895
  891MOL0     H20225   8.195   2.748   0.741 -0.4482  0.3233 -1.1424
  891MOL0     H20226   8.059   2.741   1.005  1.4939  1.6429  1.0205
  891MOL0     H20227   8.093   2.596   0.897 -0.3245  0.2098  0.9350
  891MOL0     H20228   8.283   2.775   1.033 -1.8481  1.5235 -2.6474
  891MOL0     H20229   8.245   2.620   1.098 -0.7359 -2.1844 -1.1523
  891MOL0     H20230   8.334   2.501   0.896 -1.4676  0.0385  3.2384
  891MOL0     H20231   8.399   2.658   0.839  1.7434 -3.0167 -1.3416
  891MOL0     H20232   8.590   2.543   0.968 -1.0402 -2.7282  1.7581
  891MOL0     H20233   8.489   2.524   1.102 -0.9677 -0.8661 -1.2868
  891MOL0     H20234   8.598   2.791   0.975 -2.8309  1.9609 -0.1856
  891MOL0     H20235   8.479   2.792   1.101  1.7186  2.7298 -0.4835
  891MOL0     H20236   8.845   2.799   1.022  1.8038  2.2948  2.6422
  891MOL0     H20237   9.027   2.527   1.213 -2.4027 -0.6540 -0.4489
  891MOL0     H20238   9.082   2.681   1.129 -0.9063 -0.7316 -0.5171
  891MOL0     H20239   9.068   2.811   1.348 -0.6561  0.2550 -2.9058
  891MOL0     H20240   9.052   2.673   1.436 -2.2549  1.4527  0.3033
  891MOL0     H20241   9.282   2.743   1.443 -0.6390  0.0528  0.4706
  891MOL0     H20242   9.297   2.746   1.266  0.4782  0.0261  1.3249
  891MOL0     H20243   9.258   2.475   1.289 -0.4374 -0.7481  1.2334
  891MOL0     H20244   9.246   2.498   1.453 -4.3014  2.2442 -0.7439
  891MOL0     H20245   9.518   2.751   1.468  1.4276  0.3942 -0.6175
  891MOL0     H20246   9.636   2.791   1.676 -2.8115  1.7395 -2.2689
  891MOL0     H20247   9.780   2.944   2.026  0.6336  1.2195 -1.5903
  891MOL0     H20248   9.962   3.022   2.172  0.7025 -0.3049  1.8297
  891MOL0     H20249  10.395   2.936   2.197  0.6417  2.3630  0.7630
  891MOL0     H20250  10.305   2.974   2.052 -1.0763  2.9698 -0.1610
  891MOL0     H20251  10.226   3.185   2.121  1.1461  0.9265 -1.3140
  891MOL0     H20252  10.247   3.149   2.284 -4.6496 -1.4767 -1.0949
  891MOL0     H20253  10.508   3.151   2.239  2.8935 -0.0809 -2.6259
  891MOL0     H20254  10.481   3.147   2.067 -0.7870  1.7331 -1.2032
  891MOL0     H20255  10.380   3.376   2.237  1.0675  2.8965  0.2599
  891MOL0     H20256  10.415   3.367   2.063  1.6013  0.2878 -0.2034
  891MOL0     H20257  10.584   3.506   2.166 -0.2854 -1.6220 -1.8616
  891MOL0     H20258  10.670   3.367   2.112 -0.8134  1.5920 -2.3167
  891MOL0     H20259  10.535   3.407   2.385 -2.2639 -0.9549 -3.0139
  891MOL0     H20260  10.634   3.263   2.351  2.3426  0.4277 -0.3446
  891MOL0     H20261  10.752   3.536   2.348 -2.7007 -0.9084 -2.3254
  891MOL0     H20262  10.840   3.376   2.346  0.1857 -0.1065 -0.1804
  891MOL0     H20263  10.824   3.514   2.575 -0.2037  0.2546 -0.3386
  891MOL0     H20264  10.655   3.461   2.571 -0.1731 -1.8066 -0.6495
  891MOL0     H20265  10.217   2.706   2.023  0.4493  0.6016  0.0620
  891MOL0     H20266  10.043   2.642   1.856  1.9902 -0.4392  0.4808
  891MOL0     H20267   9.651   2.370   1.738 -0.9321 -0.7119  0.5660
  891MOL0     H20268   9.489   2.333   1.542 -1.1984  0.4090 -1.0579
  891MOL0     H20269   7.945   3.043   0.442  1.4496  1.2481 -2.0540
  891MOL0     H20270   7.866   3.252   0.323  0.4366  0.9715 -0.0533
  891MOL0     H20271   7.703   3.658   0.317 -2.9606 -1.7672 -3.3565
  891MOL0     H20272   7.602   3.843   0.174 -0.7631 -0.5564 -3.6402
  891MOL0     H20273   7.855   4.137  -0.019  1.0097 -1.4844  2.3806
  891MOL0     H20274   7.746   4.154   0.118 -2.5101 -1.8474  0.5194
  891MOL0     H20275   7.563   4.230  -0.012 -0.8198  2.2362 -2.8744
  891MOL0     H20276   7.633   4.154  -0.151 -3.1885  2.3316 -1.2994
  891MOL0     H20277   7.758   4.394   0.013 -2.1477 -0.4377  0.1658
  891MOL0     H20278   7.644   4.419  -0.111 -1.4101 -1.2592 -1.6551
  891MOL0     H20279   7.923   4.312  -0.163 -0.9313 -1.0939 -0.6166
  891MOL0     H20280   7.784   4.266  -0.267 -0.2756 -0.8296 -1.4658
  891MOL0     H20281   7.925   4.659  -0.384  1.1157 -0.8608 -0.9327
  891MOL0     H20282   7.971   3.912  -0.005 -3.4400  3.6863 -0.0249
  891MOL0     H20283   8.199   3.730   0.156  0.3088 -0.9802  0.3556
  891MOL0     H20284   8.123   3.601   0.069  0.5869  0.7158 -1.0358
  891MOL0     H20285   8.152   3.749  -0.010  2.3502 -1.6822  0.5223
  892MOL0     O20286   7.296   2.007  10.455  0.8585 -0.0063 -0.0834
  892MOL0     C20287   7.293   1.906  10.516 -0.5193  0.7001  0.2815
  892MOL0     O20288   7.380   1.878  10.621 -0.1372  0.7103 -0.0254
  892MOL0     C20289   7.479   1.976  10.652  0.5240  0.3278 -0.2008
  892MOL0     C20290   7.545   2.053  10.562  0.5689 -0.1929 -0.4613
  892MOL0     C20291   7.648   2.143  10.596  0.4375 -0.4298  0.4634
  892MOL0     C20292   7.676   2.160  10.735 -0.3327  0.4557  1.0480
  892MOL0     O20293   7.756   2.249  10.795 -0.4638  0.4970 -0.0286
  892MOL0     C20294   7.796   2.367  10.723  0.9386 -0.1896  0.5858
  892MOL0     C20295   7.681   2.466  10.740 -0.4266 -0.1577 -0.2386
  892MOL0     C20296   7.646   2.491  10.883  0.0758 -0.4066  0.6986
  892MOL0     C20297   7.521   2.583  10.916  0.3647  0.6643 -0.0698
  892MOL0     C20298   7.479   2.598  11.061  0.4298 -0.2962  0.4130
  892MOL0     C20299   7.588   2.679  11.142 -0.0759 -0.1472  0.7467
  892MOL0     C20300   7.530   2.690  11.284 -0.1933  0.5964  0.0646
  892MOL0     C20301   7.622   2.731  11.405  0.1463 -0.6369  0.2932
  892MOL0     N20302   7.697   2.853  11.368 -0.3314 -0.5319 -0.3195
  892MOL0     C20303   7.835   2.854  11.370 -0.5081  0.1695 -0.9415
  892MOL0     C20304   7.865   2.983  11.338  0.3584  0.2806  0.1420
  892MOL0     C20305   7.998   3.042  11.345 -0.4294  0.1936 -0.0337
  892MOL0     C20306   8.024   3.104  11.482 -0.4454 -0.6793 -0.7029
  892MOL0     C20307   8.156   3.182  11.479  0.1575 -0.3283  0.4855
  892MOL0     C20308   8.213   3.222  11.614  0.3263 -0.4321  0.7291
  892MOL0     O20309   8.273   3.108  11.677 -0.1298 -0.1088 -0.1544
  892MOL0     C20310   8.317   3.128  11.802 -0.9866  0.7266 -0.3115
  892MOL0     C20311   8.408   3.232  11.835  0.3383  0.3099 -0.2476
  892MOL0     C20312   8.462   3.248  11.958  0.2969 -0.4396  0.4058
  892MOL0     C20313   8.435   3.156  12.057 -0.2509 -0.2497 -0.4315
  892MOL0     C20314   8.490   3.168  12.197  1.0239 -0.3837  0.3995
  892MOL0     O20315   8.408   3.136  12.307  0.2974 -0.4146  0.1570
  892MOL0     C20316   8.466   3.134  12.428 -0.2167 -0.4573  0.2284
  892MOL0     C20317   8.593   3.076  12.444 -1.1066  1.2712  0.8678
  892MOL0     C20318   8.644   3.041  12.565  0.5542 -0.4470  0.4011
  892MOL0     C20319   8.569   3.063  12.681 -0.2960  0.2284 -0.3381
  892MOL0     O20320   8.608   3.034  12.816  0.6548  0.2385 -0.0942
  892MOL0     C20321   8.737   2.980  12.823  0.5707  0.5909  0.6801
  892MOL0     C20322   8.796   2.978  12.966 -0.3768 -0.4233  0.4301
  892MOL0     C20323   8.928   2.909  12.951  0.3267  0.4782 -0.8543
  892MOL0     C20324   8.995   2.905  13.092  0.2178  0.5056 -0.0838
  892MOL0     C20325   9.129   2.835  13.087  0.3862 -0.1039  0.5100
  892MOL0     C20326   9.200   2.836  13.227  0.4727  0.4928  0.2158
  892MOL0     C20327   9.344   2.804  13.212 -0.4163  1.1221 -0.7878
  892MOL0     C20328   9.411   2.780  13.347  0.2324  0.0410  0.3972
  892MOL0    Cl20329   9.451   2.933  13.434  0.3711 -0.8318 -0.0667
  892MOL0     C20330   8.453   3.142  12.661  0.1646  0.2143 -0.0014
  892MOL0     C20331   8.399   3.180  12.539  0.2384  0.2141  0.1611
  892MOL0     O20332   8.605   3.206  12.206 -0.2211  0.1385 -0.0536
  892MOL0     C20333   8.351   3.044  12.023 -0.3938  0.1133 -0.6867
  892MOL0     C20334   8.296   3.025  11.894  0.5548 -0.3363 -1.1438
  892MOL0     N20335   7.753   3.063  11.310  0.9323  0.1900  0.3551
  892MOL0     N20336   7.657   2.982  11.330  0.9150 -0.0237  0.7162
  892MOL0     C20337   7.590   2.093  10.825 -0.6037 -0.0557 -0.1450
  892MOL0     C20338   7.495   1.997  10.782 -0.8981 -0.2988 -0.5087
  892MOL0     C20339   7.197   1.808  10.475 -0.0783  0.6426  0.3405
  892MOL0     C20340   7.083   1.840  10.408  0.0478 -0.9577  0.3260
  892MOL0     C20341   6.986   1.748  10.367 -0.1912 -0.2286 -0.4521
  892MOL0     C20342   7.009   1.612  10.380  1.1116 -0.1287  0.7618
  892MOL0     O20343   6.911   1.533  10.330 -0.1020 -0.3983 -0.5276
  892MOL0     C20344   6.940   1.398  10.292  0.3303 -0.4600 -0.1623
  892MOL0     C20345   6.820   1.344  10.223  0.8059  0.6844 -0.0353
  892MOL0     C20346   6.796   1.421  10.093 -1.0583 -0.5064  0.5583
  892MOL0     C20347   6.696   1.353   9.993 -0.8008  0.0965  0.8388
  892MOL0     C20348   6.566   1.363  10.053  0.7810 -0.2139 -0.2800
  892MOL0     C20349   6.455   1.379  10.107 -0.3486  1.2526 -0.4338
  892MOL0     C20350   7.117   1.575  10.443  0.3061 -0.3016 -0.2728
  892MOL0     C20351   7.212   1.661  10.496 -0.0613 -0.3334 -0.3488
  892MOL0     C20352   7.329   1.601  10.561 -0.8108  1.2506 -0.3663
  892MOL0     H20353   7.537   2.023  10.457  1.7738 -0.6538 -0.4378
  892MOL0     H20354   7.707   2.196  10.523  2.5342 -0.4538  2.0501
  892MOL0     H20355   7.888   2.403  10.769  0.5143  0.8045  0.6875
  892MOL0     H20356   7.818   2.355  10.617  1.6990  0.4012  0.6695
  892MOL0     H20357   7.594   2.438  10.680 -1.4803 -0.9205  1.5471
  892MOL0     H20358   7.712   2.567  10.711 -0.3546  0.2537  1.1785
  892MOL0     H20359   7.731   2.540  10.931  0.5007  0.1319 -0.5607
  892MOL0     H20360   7.630   2.393  10.929 -1.2175 -1.3226 -1.5727
  892MOL0     H20361   7.537   2.678  10.864 -0.3891  0.6010 -0.4395
  892MOL0     H20362   7.438   2.528  10.869  0.7032 -0.9613  1.1481
  892MOL0     H20363   7.379   2.641  11.067 -0.9117 -3.0564 -0.4932
  892MOL0     H20364   7.468   2.496  11.101  2.0011 -0.9246 -0.6309
  892MOL0     H20365   7.686   2.631  11.146  0.0051 -0.0065  0.4336
  892MOL0     H20366   7.611   2.775  11.095  1.3905 -0.3414  1.0001
  892MOL0     H20367   7.486   2.592  11.305 -2.8473  1.0220 -2.8138
  892MOL0     H20368   7.452   2.766  11.286 -1.5918 -0.6604 -2.4789
  892MOL0     H20369   7.559   2.746  11.493 -0.5477 -2.4256  0.1505
  892MOL0     H20370   7.691   2.648  11.423  2.0222  0.1733 -2.4040
  892MOL0     H20371   7.901   2.778  11.411 -1.6140  1.6071  4.3440
  892MOL0     H20372   8.068   2.963  11.314 -1.3686 -0.2477 -1.0697
  892MOL0     H20373   8.010   3.122  11.272  1.5949  3.3759  3.4477
  892MOL0     H20374   7.945   3.177  11.501 -0.6719 -0.3279 -2.7647
  892MOL0     H20375   8.020   3.033  11.565  0.7609  1.4863  1.3290
  892MOL0     H20376   8.128   3.269  11.419 -1.9464  0.0191  1.8825
  892MOL0     H20377   8.230   3.112  11.438  1.2730 -0.3606  2.4273
  892MOL0     H20378   8.129   3.263  11.671 -0.3564 -1.2269  0.3199
  892MOL0     H20379   8.282   3.306  11.605  2.5825 -2.2502  0.2259
  892MOL0     H20380   8.430   3.306  11.758 -4.9314  2.5881  0.0437
  892MOL0     H20381   8.536   3.323  11.983 -0.3954 -0.4000  2.5082
  892MOL0     H20382   8.648   3.028  12.364 -1.2522  0.2079  1.3878
  892MOL0     H20383   8.745   3.003  12.576  1.0570 -0.2811 -2.6138
  892MOL0     H20384   8.730   2.879  12.780 -1.8783  1.3036 -0.7972
  892MOL0     H20385   8.811   3.038  12.767  1.7963 -0.3223  1.3296
  892MOL0     H20386   8.812   3.081  12.997  0.5360  0.3074 -2.1790
  892MOL0     H20387   8.730   2.922  13.034  0.2178 -0.2716  1.1397
  892MOL0     H20388   8.921   2.806  12.914 -1.0627 -0.1682  1.0294
  892MOL0     H20389   8.988   2.967  12.880  0.5694  0.9128 -0.2977
  892MOL0     H20390   8.933   2.850  13.163 -0.5217 -1.2617 -2.0233
  892MOL0     H20391   9.019   3.007  13.124  1.8507  0.5480 -1.2816
  892MOL0     H20392   9.191   2.888  13.014  0.2873 -0.4569  0.1651
  892MOL0     H20393   9.113   2.736  13.043 -1.1127  1.4171 -2.7380
  892MOL0     H20394   9.194   2.931  13.279  2.5760  0.6813  0.1882
  892MOL0     H20395   9.142   2.771  13.294 -2.1016 -0.1841 -2.4577
  892MOL0     H20396   9.397   2.888  13.167  0.5669  1.6747  1.3127
  892MOL0     H20397   9.354   2.710  13.156  1.0393  0.8399 -0.0950
  892MOL0     H20398   9.339   2.716  13.400  0.5573 -0.8177 -0.1790
  892MOL0     H20399   9.510   2.734  13.341  1.6049  2.7233  0.9235
  892MOL0     H20400   8.397   3.173  12.749  1.3260 -0.2811  0.9341
  892MOL0     H20401   8.314   3.242  12.515  0.7759  1.1139  0.5136
  892MOL0     H20402   8.337   2.978  12.108 -0.8358  0.6863 -0.3045
  892MOL0     H20403   8.244   2.931  11.878  1.0690 -0.7755 -0.2977
  892MOL0     H20404   7.592   2.110  10.932  0.6577 -4.5116  0.7466
  892MOL0     H20405   7.425   1.941  10.843  1.8115 -1.8134  1.4908
  892MOL0     H20406   7.063   1.945  10.391 -0.1099 -1.6089 -4.9067
  892MOL0     H20407   6.908   1.804  10.316  0.8804  0.5012 -1.3490
  892MOL0     H20408   6.970   1.329  10.371  2.7539  0.5266 -0.1363
  892MOL0     H20409   7.022   1.406  10.220  0.6013  1.8039  0.3123
  892MOL0     H20410   6.737   1.368  10.290 -0.6737 -0.1958 -1.4923
  892MOL0     H20411   6.828   1.236  10.209  0.7803  0.7839 -0.8251
  892MOL0     H20412   6.891   1.433  10.039 -2.4236  1.9134 -1.4750
  892MOL0     H20413   6.755   1.521  10.108 -1.7228 -0.9023  1.4173
  892MOL0     H20414   6.685   1.403   9.896 -0.3761  3.1895  2.2642
  892MOL0     H20415   6.728   1.251   9.971  2.5970  1.5481 -2.1707
  892MOL0     H20416   6.357   1.378  10.151 -0.2542 -1.1731 -0.1437
  892MOL0     H20417   7.131   1.469  10.464  1.3076 -0.3170 -0.9381
  892MOL0     H20418   7.340   1.492  10.551 -1.3081  0.7217  3.4875
  892MOL0     H20419   7.425   1.625  10.515  0.0125  0.8984  1.1099
  892MOL0     H20420   7.326   1.634  10.665  0.6976 -1.2820  0.5763
  893MOL0     O20421  10.929   5.439   3.065 -0.1971 -0.2937 -0.4160
  893MOL0     C20422  10.886   5.507   2.974  0.4447 -0.3571  0.0818
  893MOL0     O20423  10.930   5.627   2.940 -0.2921  0.1295  0.4499
  893MOL0     C20424  11.055   5.657   2.978 -0.3903  0.2535 -0.6051
  893MOL0     C20425  11.171   5.587   2.929  0.0656 -0.8968  0.0899
  893MOL0     C20426  11.294   5.616   2.987 -0.3412  0.3093  0.5439
  893MOL0     C20427  11.298   5.702   3.092 -0.0437  0.0100  0.3212
  893MOL0     O20428  11.413   5.748   3.160  0.8466  0.6067  0.3362
  893MOL0     C20429  11.530   5.728   3.084 -0.0637  0.1344  0.0885
  893MOL0     C20430  11.643   5.790   3.177  0.4752  0.0797  1.0197
  893MOL0     C20431  11.790   5.783   3.117 -0.2500 -0.3934 -0.7571
  893MOL0     C20432  11.889   5.804   3.234 -0.0734  0.1769 -0.5616
  893MOL0     C20433  12.032   5.815   3.191  0.0604 -0.1119 -0.7278
  893MOL0     C20434  12.135   5.844   3.302  0.5006 -0.6145  0.4196
  893MOL0     C20435  12.263   5.894   3.245 -0.0886  0.0624  0.2558
  893MOL0     C20436  12.345   5.976   3.345 -0.2629  0.6083  0.5504
  893MOL0     N20437  12.489   5.974   3.316  0.4503 -0.9697  0.4738
  893MOL0     C20438  12.563   6.069   3.248  0.3089  0.2402  0.3662
  893MOL0     C20439  12.691   6.029   3.254  0.5067  1.1269  0.0383
  893MOL0     C20440  12.809   6.090   3.189  0.5821 -0.9658  0.3736
  893MOL0     C20441  12.882   6.000   3.092 -0.0552 -0.3393 -0.0790
  893MOL0     C20442  12.984   6.076   2.999 -0.3077 -0.3103 -0.5256
  893MOL0     C20443  13.112   6.101   3.080  0.0256 -0.2858  0.3816
  893MOL0     O20444  13.217   6.108   2.987  0.0613 -0.1620 -0.0871
  893MOL0     C20445  13.346   6.090   3.023 -0.1246  0.4432 -0.4446
  893MOL0     C20446  13.383   6.094   3.160  0.2658 -0.1530  0.5655
  893MOL0     C20447  13.517   6.098   3.186  0.1959  0.2276 -0.2619
  893MOL0     C20448  13.618   6.084   3.084 -1.1918 -0.5528  0.4823
  893MOL0     C20449  13.765   6.080   3.104 -0.0946  0.3870  0.0134
  893MOL0     O20450  13.804   6.064   3.237 -0.2834 -0.0299  0.8335
  893MOL0     C20451  13.931   6.053   3.277  0.7122  0.4061  0.2648
  893MOL0     C20452  13.942   5.970   3.387  0.7464 -0.0629  0.3160
  893MOL0     C20453  14.062   5.941   3.446  0.1879  0.3013  0.9394
  893MOL0     C20454  14.183   5.983   3.382  0.9278 -0.0276  0.4564
  893MOL0     O20455  14.304   5.942   3.421 -0.4119  0.0588 -0.0484
  893MOL0     C20456  14.318   5.803   3.448 -0.5963 -1.0111 -0.7569
  893MOL0     C20457  14.468   5.757   3.473  1.0347 -0.1872  0.1606
  893MOL0     C20458  14.503   5.827   3.603 -0.1836  0.0757  0.0843
  893MOL0     C20459  14.651   5.802   3.635 -0.3206  0.3378 -1.0320
  893MOL0     C20460  14.684   5.662   3.695  0.5512 -0.3004  0.3311
  893MOL0     C20461  14.833   5.660   3.727  0.2987 -1.0851  0.3866
  893MOL0     C20462  14.870   5.528   3.795  0.0686  0.1424 -0.8254
  893MOL0     C20463  14.932   5.412   3.720 -0.3583  0.5837  0.3268
  893MOL0    Cl20464  14.848   5.369   3.571 -0.0190 -0.2440  0.2789
  893MOL0     C20465  14.181   6.075   3.278  0.2626 -0.6282  0.1037
  893MOL0     C20466  14.047   6.110   3.216  0.7300  0.0525  0.5861
  893MOL0     O20467  13.834   6.088   3.007  0.2311 -0.7196 -0.7586
  893MOL0     C20468  13.571   6.064   2.956 -0.0937 -0.2716 -0.1438
  893MOL0     C20469  13.437   6.073   2.923  0.1876  0.7991  0.2112
  893MOL0     N20470  12.693   5.910   3.329  0.0109 -1.1726  0.1378
  893MOL0     N20471  12.569   5.878   3.361 -0.6896  0.0163  0.0242
  893MOL0     C20472  11.183   5.754   3.149 -0.6269  0.7901 -0.1791
  893MOL0     C20473  11.063   5.744   3.086 -0.2747 -0.4896 -0.5694
  893MOL0     C20474  10.781   5.446   2.892  0.2026  0.8176  0.7826
  893MOL0     C20475  10.667   5.522   2.875  0.6450  0.4939 -0.2229
  893MOL0     C20476  10.561   5.461   2.802 -0.3450  0.7016 -0.3132
  893MOL0     C20477  10.558   5.330   2.763 -0.7735  0.9002 -0.3975
  893MOL0     O20478  10.455   5.265   2.691 -0.0912  0.2547 -0.4686
  893MOL0     C20479  10.329   5.313   2.729  0.0182 -0.5250  0.7746
  893MOL0     C20480  10.221   5.203   2.686  0.0804 -0.3752  0.5846
  893MOL0     C20481  10.197   5.210   2.532 -0.0376  0.6036 -1.1334
  893MOL0     C20482  10.040   5.196   2.502  0.7048 -0.0049 -0.1882
  893MOL0     C20483   9.955   5.303   2.553  0.6332  0.1513 -0.0174
  893MOL0     C20484   9.885   5.385   2.607  0.5344  0.2120 -0.1851
  893MOL0     C20485  10.680   5.258   2.774  0.0875 -0.0777 -0.0151
  893MOL0     C20486  10.793   5.312   2.839 -0.0069  0.1280 -0.1366
  893MOL0     C20487  10.919   5.237   2.843  0.6948 -0.5163  0.9516
  893MOL0     H20488  11.154   5.512   2.852  0.9586 -0.1296 -0.8941
  893MOL0     H20489  11.378   5.565   2.940 -1.5558 -0.9998 -0.2722
  893MOL0     H20490  11.545   5.621   3.065 -2.2964 -0.7279  2.5885
  893MOL0     H20491  11.527   5.774   2.985  0.3844 -1.3502 -0.6414
  893MOL0     H20492  11.641   5.753   3.280  3.2299 -2.1906  0.3939
  893MOL0     H20493  11.627   5.897   3.192  0.5194  0.8856 -3.2080
  893MOL0     H20494  11.805   5.861   3.042 -1.0227  1.6449  1.1070
  893MOL0     H20495  11.803   5.685   3.070 -0.8537 -0.6853 -0.3350
  893MOL0     H20496  11.866   5.904   3.272  0.0720  0.5987 -1.5571
  893MOL0     H20497  11.880   5.722   3.306 -0.8285  0.3947 -0.4061
  893MOL0     H20498  12.062   5.720   3.145  0.6081  0.2046 -1.0329
  893MOL0     H20499  12.032   5.894   3.116 -0.9086  0.4812 -0.1264
  893MOL0     H20500  12.099   5.929   3.360  1.3633  2.4430 -3.0952
  893MOL0     H20501  12.152   5.758   3.366  2.8688 -0.9397 -0.5268
  893MOL0     H20502  12.236   5.961   3.163  2.9679 -0.6892 -1.5021
  893MOL0     H20503  12.320   5.809   3.207  1.5028 -0.3057  3.1583
  893MOL0     H20504  12.321   6.082   3.334 -1.1028  0.8022  3.3359
  893MOL0     H20505  12.337   5.938   3.448  2.3153 -1.2343  0.1766
  893MOL0     H20506  12.528   6.143   3.177  1.5403 -0.4890 -1.0560
  893MOL0     H20507  12.765   6.171   3.129  4.4137  0.0282 -1.3661
  893MOL0     H20508  12.879   6.130   3.263  0.1781  2.3347 -0.8430
  893MOL0     H20509  12.931   5.915   3.139 -2.1602 -3.2740 -2.7558
  893MOL0     H20510  12.809   5.950   3.028 -1.6719  0.9701  0.6636
  893MOL0     H20511  12.953   6.175   2.965  0.1342 -0.7569 -2.2869
  893MOL0     H20512  13.004   6.022   2.906 -3.2686 -0.9213 -0.9083
  893MOL0     H20513  13.125   6.018   3.151 -0.0713  1.0895  2.0684
  893MOL0     H20514  13.101   6.195   3.135 -1.1662 -0.4019  0.3751
  893MOL0     H20515  13.317   6.106   3.246  1.1548 -0.7600  1.3600
  893MOL0     H20516  13.549   6.090   3.290  2.3132 -2.9065 -1.0258
  893MOL0     H20517  13.845   5.935   3.420  0.3312  1.2810  0.5464
  893MOL0     H20518  14.067   5.869   3.527  0.0582 -1.2790 -0.3952
  893MOL0     H20519  14.279   5.779   3.547  0.1970 -0.0074 -0.1879
  893MOL0     H20520  14.273   5.748   3.364  2.6665  0.4158 -3.7023
  893MOL0     H20521  14.456   5.649   3.472 -3.4843  0.0678  1.9225
  893MOL0     H20522  14.529   5.798   3.392  0.4275  4.4616  1.7205
  893MOL0     H20523  14.489   5.935   3.587  1.4023  0.6914  2.2796
  893MOL0     H20524  14.450   5.791   3.692  0.9166 -0.9779  0.3427
  893MOL0     H20525  14.676   5.872   3.714 -0.8085 -0.0765 -0.5023
  893MOL0     H20526  14.711   5.822   3.545  2.4765 -0.2042  0.6012
  893MOL0     H20527  14.660   5.591   3.616 -2.5745  1.8428 -0.8054
  893MOL0     H20528  14.612   5.636   3.773  0.6010 -1.9144 -0.1155
  893MOL0     H20529  14.890   5.697   3.641 -1.7028  3.5580  0.7878
  893MOL0     H20530  14.843   5.739   3.802  3.2771  1.1131 -2.0640
  893MOL0     H20531  14.779   5.492   3.845 -0.3136 -1.5567 -2.6673
  893MOL0     H20532  14.946   5.557   3.869 -0.8596  1.4383 -0.3445
  893MOL0     H20533  15.038   5.430   3.697 -0.3482  2.1422  1.4703
  893MOL0     H20534  14.929   5.318   3.777  0.0487  0.5045  0.2260
  893MOL0     H20535  14.277   6.114   3.246  0.7884 -1.8284  0.1574
  893MOL0     H20536  14.031   6.190   3.145 -2.9301 -1.6534 -0.7636
  893MOL0     H20537  13.644   6.058   2.876  0.8854 -0.5611  0.7492
  893MOL0     H20538  13.397   6.081   2.822 -2.3677  3.7125  1.2923
  893MOL0     H20539  11.188   5.816   3.239  1.5426 -0.4716  0.6472
  893MOL0     H20540  10.973   5.793   3.122  0.9465 -0.4116  2.6708
  893MOL0     H20541  10.657   5.622   2.915 -0.3712  0.0121  0.7871
  893MOL0     H20542  10.476   5.527   2.789  1.0012  2.4332 -0.7084
  893MOL0     H20543  10.310   5.403   2.669  2.5348 -0.3533  0.1311
  893MOL0     H20544  10.326   5.338   2.835 -1.9295  2.3450  0.1447
  893MOL0     H20545  10.137   5.241   2.744  0.4547  0.6499  0.4662
  893MOL0     H20546  10.248   5.100   2.710  2.3591 -0.1081 -0.5226
  893MOL0     H20547  10.259   5.127   2.497 -0.5849  0.0553 -0.8223
  893MOL0     H20548  10.230   5.304   2.487 -0.8868  0.6140 -1.7693
  893MOL0     H20549  10.036   5.194   2.393  1.2219  1.9990 -0.2883
  893MOL0     H20550  10.001   5.103   2.545 -0.8613  0.3433 -0.7871
  893MOL0     H20551   9.826   5.466   2.645 -0.6801  0.6569 -2.8355
  893MOL0     H20552  10.672   5.157   2.735 -0.0865  0.0110 -0.2127
  893MOL0     H20553  11.004   5.305   2.829 -0.2476  0.3553 -0.9219
  893MOL0     H20554  10.930   5.184   2.938  0.7076 -1.2544  0.5440
  893MOL0     H20555  10.928   5.160   2.766 -1.6700  3.1719 -3.5524
  894MOL0     O20556   1.339   7.398   3.846  0.5756 -0.1669  0.5716
  894MOL0     C20557   1.339   7.468   3.747  0.0271 -0.2130 -0.0934
  894MOL0     O20558   1.425   7.566   3.733 -0.1479  0.6209  0.4306
  894MOL0     C20559   1.525   7.584   3.824 -0.5935  0.2229  0.3891
  894MOL0     C20560   1.633   7.497   3.818  0.6346  0.2125  0.1614
  894MOL0     C20561   1.741   7.511   3.900  0.7178  1.1867 -0.4255
  894MOL0     C20562   1.744   7.618   3.994  0.0963 -0.5747  0.3381
  894MOL0     O20563   1.855   7.652   4.070 -0.5526 -0.4951 -0.9295
  894MOL0     C20564   1.981   7.584   4.042  0.5587  0.5264 -0.3876
  894MOL0     C20565   2.090   7.640   4.128 -0.6600  0.2515 -0.9699
  894MOL0     C20566   2.124   7.789   4.103  0.7517  0.4590 -0.4619
  894MOL0     C20567   2.248   7.839   4.183  0.1177 -0.2970 -0.5957
  894MOL0     C20568   2.383   7.800   4.114  0.1756 -0.3432 -0.9552
  894MOL0     C20569   2.504   7.847   4.195  0.1844 -0.2611  0.3205
  894MOL0     C20570   2.631   7.801   4.119  0.9618  0.7378 -0.4131
  894MOL0     C20571   2.763   7.834   4.196  0.0198  0.2216  0.1079
  894MOL0     N20572   2.887   7.790   4.128  0.2775 -0.0857 -0.7906
  894MOL0     C20573   3.020   7.798   4.189  0.5752  0.7260  0.1129
  894MOL0     C20574   3.102   7.759   4.084  0.6049  0.0018 -0.1189
  894MOL0     C20575   3.249   7.743   4.099  0.3014 -0.9460  1.3223
  894MOL0     C20576   3.313   7.875   4.073 -0.3563 -0.9338 -0.2398
  894MOL0     C20577   3.366   7.878   3.925 -0.0062  0.1069  0.0225
  894MOL0     C20578   3.467   7.983   3.888 -0.8315 -0.6115 -0.4509
  894MOL0     O20579   3.590   7.949   3.953  0.1666 -0.1783  0.0018
  894MOL0     C20580   3.707   8.000   3.905  0.2635 -0.6503 -0.4506
  894MOL0     C20581   3.823   7.928   3.929 -0.8710  1.4300 -0.4561
  894MOL0     C20582   3.948   7.981   3.915  0.0880  0.1442  0.3224
  894MOL0     C20583   3.964   8.106   3.862  0.4078 -0.0805 -0.3469
  894MOL0     C20584   4.093   8.176   3.877 -1.8735 -1.2268  0.0478
  894MOL0     O20585   4.102   8.296   3.809 -0.2887  0.1723 -0.0213
  894MOL0     C20586   4.213   8.383   3.827  0.1929 -0.5208 -0.4283
  894MOL0     C20587   4.346   8.339   3.826 -0.2278 -0.7610 -0.4991
  894MOL0     C20588   4.450   8.432   3.844  0.1695 -0.4151  0.5682
  894MOL0     C20589   4.416   8.568   3.874 -0.5773  0.0174 -0.0867
  894MOL0     O20590   4.520   8.660   3.880 -0.6867  0.0192  0.0190
  894MOL0     C20591   4.492   8.796   3.902  0.2295 -0.4573  0.1365
  894MOL0     C20592   4.618   8.870   3.929  0.0244 -1.2260 -0.1729
  894MOL0     C20593   4.599   9.021   3.905  0.3380  0.1657  0.6594
  894MOL0     C20594   4.713   9.097   3.967 -0.2078 -0.4849 -0.8432
  894MOL0     C20595   4.849   9.080   3.896  0.0289 -1.1541 -0.0047
  894MOL0     C20596   4.854   9.182   3.775  1.6797 -0.1772  0.0812
  894MOL0     C20597   4.997   9.179   3.713  0.9165 -0.6545 -0.4374
  894MOL0     C20598   5.009   9.281   3.607  0.1771  0.1765 -0.1848
  894MOL0    Cl20599   5.175   9.316   3.595 -0.1995  0.0783  0.0031
  894MOL0     C20600   4.280   8.608   3.872 -0.0425  0.1679 -0.0330
  894MOL0     C20601   4.175   8.518   3.846 -0.4814  0.4506 -0.5175
  894MOL0     O20602   4.173   8.132   3.958 -0.0858  0.3998 -0.0018
  894MOL0     C20603   3.847   8.171   3.823  0.6621  0.4712 -0.1007
  894MOL0     C20604   3.717   8.126   3.855  0.1403 -0.6597  0.3442
  894MOL0     N20605   3.025   7.722   3.982 -0.6194  0.1145 -0.4246
  894MOL0     N20606   2.898   7.744   3.998 -0.5684  0.1607 -0.4049
  894MOL0     C20607   1.631   7.689   4.015  0.0567  0.1782  0.2737
  894MOL0     C20608   1.522   7.674   3.927  0.1104 -0.3755  0.2452
  894MOL0     C20609   1.230   7.464   3.652  0.9317  0.3901 -0.1062
  894MOL0     C20610   1.214   7.577   3.570 -0.0955 -0.0799 -0.4902
  894MOL0     C20611   1.103   7.587   3.479  0.4668 -1.1796  0.1117
  894MOL0     C20612   1.014   7.481   3.473 -0.0804 -0.6392  0.1256
  894MOL0     O20613   0.899   7.479   3.398 -0.3807 -1.0642 -0.4616
  894MOL0     C20614   0.784   7.488   3.489 -0.3029  0.0975  0.4368
  894MOL0     C20615   0.725   7.633   3.456  0.0832 -0.1914  0.3406
  894MOL0     C20616   0.582   7.610   3.506  0.0091 -0.2559  0.6116
  894MOL0     C20617   0.494   7.720   3.465  0.3250 -0.0642  1.0217
  894MOL0     C20618   0.524   7.845   3.539  0.6749 -0.1640 -0.3933
  894MOL0     C20619   0.541   7.944   3.612 -0.1630 -0.5246  0.3421
  894MOL0     C20620   1.048   7.366   3.541 -0.5420  0.6212 -0.0316
  894MOL0     C20621   1.151   7.347   3.623 -0.5072 -0.1092  0.1687
  894MOL0     C20622   1.173   7.212   3.692  0.3014 -0.0917  0.1166
  894MOL0     H20623   1.633   7.407   3.757  0.2595 -0.4448  1.1003
  894MOL0     H20624   1.810   7.428   3.894 -2.3583 -1.8645  1.9378
  894MOL0     H20625   1.971   7.479   4.068  1.3342  0.2441 -1.1866
  894MOL0     H20626   2.013   7.606   3.939  0.9722  0.6664 -0.2316
  894MOL0     H20627   2.181   7.580   4.113 -1.2404 -1.1095  0.6139
  894MOL0     H20628   2.059   7.633   4.232  0.9968 -0.3234 -0.4720
  894MOL0     H20629   2.040   7.844   4.147 -1.0377 -0.7747 -2.1822
  894MOL0     H20630   2.133   7.816   3.997 -2.8800  1.1357 -0.7439
  894MOL0     H20631   2.243   7.948   4.190 -0.5458 -0.3241 -0.6414
  894MOL0     H20632   2.244   7.797   4.283  1.9388 -1.2159 -0.8626
  894MOL0     H20633   2.394   7.691   4.105  0.4225 -0.3095 -1.0584
  894MOL0     H20634   2.376   7.853   4.019 -4.6786 -0.8957 -1.1856
  894MOL0     H20635   2.506   7.957   4.193 -4.4547  0.0196 -1.1162
  894MOL0     H20636   2.504   7.808   4.297 -0.9839  1.7403  1.1507
  894MOL0     H20637   2.640   7.856   4.026  3.8477  1.5728  0.2604
  894MOL0     H20638   2.631   7.691   4.115  0.3257  0.6011  1.7830
  894MOL0     H20639   2.769   7.938   4.227 -1.4959  0.6505 -0.9323
  894MOL0     H20640   2.752   7.766   4.281  0.3922 -1.4064 -1.0995
  894MOL0     H20641   3.049   7.823   4.290  0.5294 -0.1221  0.3434
  894MOL0     H20642   3.280   7.697   4.193 -0.2611 -2.1577  0.9337
  894MOL0     H20643   3.278   7.671   4.022  0.4164 -1.9893  2.3076
  894MOL0     H20644   3.241   7.955   4.091  1.3769  0.7473 -0.3608
  894MOL0     H20645   3.385   7.900   4.152 -0.1214 -2.2963  0.0014
  894MOL0     H20646   3.275   7.892   3.866 -0.5188 -0.0926  0.7491
  894MOL0     H20647   3.404   7.779   3.897 -2.6970 -0.4333 -2.1905
  894MOL0     H20648   3.426   8.080   3.919 -2.0523 -1.4199  0.5612
  894MOL0     H20649   3.484   7.987   3.780  0.7475 -1.9522 -0.2871
  894MOL0     H20650   3.821   7.826   3.966  1.9082  1.9008  1.2829
  894MOL0     H20651   4.038   7.921   3.929 -0.7474 -1.5947 -1.2147
  894MOL0     H20652   4.377   8.238   3.803 -1.0758 -1.2312  0.3840
  894MOL0     H20653   4.552   8.398   3.829  0.0999 -0.2880 -0.1867
  894MOL0     H20654   4.449   8.842   3.812  0.8280 -0.6777 -0.2619
  894MOL0     H20655   4.417   8.804   3.982  1.2393 -1.3613  1.2062
  894MOL0     H20656   4.650   8.861   4.033 -1.4831  4.9524  1.2024
  894MOL0     H20657   4.702   8.842   3.864  0.5742  0.7286 -0.3599
  894MOL0     H20658   4.580   9.038   3.799 -0.0847 -0.1636  0.6786
  894MOL0     H20659   4.504   9.040   3.956 -0.2004 -3.7995  1.4896
  894MOL0     H20660   4.724   9.064   4.071  3.7567 -2.4894 -1.7268
  894MOL0     H20661   4.693   9.204   3.980  0.8680 -0.2866 -0.7624
  894MOL0     H20662   4.882   8.979   3.872 -1.2318 -1.2647 -1.4512
  894MOL0     H20663   4.919   9.118   3.971 -2.9161  0.7361  2.0115
  894MOL0     H20664   4.784   9.157   3.695  1.5822 -2.6066  0.8467
  894MOL0     H20665   4.820   9.282   3.804 -1.4982 -2.1489  4.2355
  894MOL0     H20666   5.010   9.083   3.663 -0.3394 -0.0224 -2.0485
  894MOL0     H20667   5.066   9.209   3.793 -2.4657  0.7631  2.2447
  894MOL0     H20668   4.975   9.233   3.514  0.4535 -1.2350  0.4086
  894MOL0     H20669   4.952   9.371   3.632  0.8673  0.2861  1.0604
  894MOL0     H20670   4.254   8.711   3.895 -1.0851 -0.1313  0.2064
  894MOL0     H20671   4.074   8.547   3.871 -0.6461 -2.9358  3.9798
  894MOL0     H20672   3.854   8.274   3.790 -0.0513  0.2330 -1.0635
  894MOL0     H20673   3.624   8.180   3.842  1.0330  0.9942  0.5429
  894MOL0     H20674   1.633   7.767   4.091 -2.3347 -0.1196  0.7263
  894MOL0     H20675   1.430   7.728   3.942  0.9639  1.2822 -0.2477
  894MOL0     H20676   1.278   7.665   3.565 -0.8254  0.4199 -1.3452
  894MOL0     H20677   1.075   7.673   3.419  2.1649 -0.5076  0.1980
  894MOL0     H20678   0.805   7.487   3.596 -1.6541 -0.3159  0.7212
  894MOL0     H20679   0.714   7.410   3.455  1.8879 -0.7242 -2.6350
  894MOL0     H20680   0.716   7.661   3.350 -3.6933 -0.4351  0.4738
  894MOL0     H20681   0.781   7.710   3.510  0.6344 -1.0098  0.9637
  894MOL0     H20682   0.582   7.594   3.614 -2.2963 -2.3959  0.3812
  894MOL0     H20683   0.528   7.522   3.469 -2.2034  1.3852 -0.2582
  894MOL0     H20684   0.500   7.742   3.358  1.3450 -2.1143  0.6092
  894MOL0     H20685   0.392   7.691   3.490 -0.4611  1.5999 -0.1215
  894MOL0     H20686   0.551   8.025   3.681 -0.3823 -0.9042  0.8286
  894MOL0     H20687   0.975   7.287   3.527 -2.6449  1.7135  3.5243
  894MOL0     H20688   1.280   7.191   3.700  0.1804 -0.1016  2.8523
  894MOL0     H20689   1.151   7.220   3.799  2.8015  2.1962  0.5884
  894MOL0     H20690   1.105   7.141   3.646 -0.4495  2.2869 -2.7382
  895MOL0     O20691   7.812   9.065   2.367  0.5491 -0.5292 -0.5066
  895MOL0     C20692   7.771   9.038   2.258  0.1739  0.0986 -0.3294
  895MOL0     O20693   7.851   9.007   2.147 -0.1060 -0.3852 -0.2354
  895MOL0     C20694   7.985   9.018   2.162  0.8254 -0.5661  0.1104
  895MOL0     C20695   8.048   9.138   2.120  0.2631  0.8074  0.0486
  895MOL0     C20696   8.179   9.164   2.142 -0.3562 -1.3093  0.3486
  895MOL0     C20697   8.268   9.070   2.187  0.4065  0.4017 -1.2112
  895MOL0     O20698   8.401   9.081   2.221 -0.1906 -0.5294 -0.5103
  895MOL0     C20699   8.476   9.203   2.190  1.2789 -0.3047 -0.0549
  895MOL0     C20700   8.619   9.200   2.218 -0.2612 -0.5913 -0.8069
  895MOL0     C20701   8.705   9.156   2.103  0.4467  0.4817  0.0633
  895MOL0     C20702   8.851   9.202   2.104  0.4735  0.6605  0.5410
  895MOL0     C20703   8.887   9.201   1.957 -0.4224 -0.4493  0.6250
  895MOL0     C20704   9.009   9.281   1.928  0.0722 -0.5434  0.5768
  895MOL0     C20705   9.043   9.264   1.777 -0.0109 -0.5240  0.3581
  895MOL0     C20706   9.163   9.341   1.723 -0.3481 -0.9678 -0.5861
  895MOL0     N20707   9.287   9.331   1.797 -0.1514 -0.6911 -0.0625
  895MOL0     C20708   9.355   9.437   1.845 -0.2505  0.3561 -0.1578
  895MOL0     C20709   9.477   9.393   1.866 -0.4397  1.0717 -0.9999
  895MOL0     C20710   9.602   9.468   1.906  0.1883 -0.1087  0.0965
  895MOL0     C20711   9.625   9.584   1.803 -0.6900 -0.4818 -0.2665
  895MOL0     C20712   9.568   9.719   1.853 -0.0579 -0.9300 -0.2662
  895MOL0     C20713   9.670   9.809   1.912 -0.1184  0.0062  0.8850
  895MOL0     O20714   9.741   9.745   2.015  0.0578 -0.0633 -0.4092
  895MOL0     C20715   9.873   9.780   2.043  0.2174  0.5514 -0.2854
  895MOL0     C20716   9.922   9.719   2.158  0.3087 -0.7532  0.6195
  895MOL0     C20717  10.041   9.776   2.210  0.0549  1.1270  0.2027
  895MOL0     C20718  10.127   9.859   2.134 -0.4009  0.7689 -0.8210
  895MOL0     C20719  10.261   9.904   2.178  0.1395 -0.3264  0.0540
  895MOL0     O20720  10.274   9.925   2.305 -0.4379 -0.3844  0.3168
  895MOL0     C20721  10.386   9.989   2.367 -0.3321 -0.5226  0.0832
  895MOL0     C20722  10.363  10.062   2.481 -1.0300  0.4345 -0.9316
  895MOL0     C20723  10.474  10.134   2.536 -0.0688  0.3307 -0.6748
  895MOL0     C20724  10.597  10.126   2.482 -0.1578  0.4594  0.1371
  895MOL0     O20725  10.714  10.191   2.528  0.4911 -0.5018  0.1882
  895MOL0     C20726  10.725  10.234   2.659 -0.1368  0.0337 -0.6583
  895MOL0     C20727  10.743  10.385   2.665 -0.3118  1.0181  0.3408
  895MOL0     C20728  10.881  10.422   2.617  0.9567 -0.2039  0.1401
  895MOL0     C20729  10.900  10.573   2.603 -0.4005 -0.0448 -0.4424
  895MOL0     C20730  11.042  10.607   2.582  0.7339 -0.0013  1.2231
  895MOL0     C20731  11.071  10.762   2.589  0.4840  0.4981 -0.2743
  895MOL0     C20732  11.216  10.793   2.596 -0.8919  0.1409 -0.1508
  895MOL0     C20733  11.309  10.758   2.476 -0.2109  0.0083 -0.4513
  895MOL0    Cl20734  11.322  10.579   2.439 -0.0894 -0.2067  0.1543
  895MOL0     C20735  10.623  10.045   2.369  0.2717  0.0818 -1.5073
  895MOL0     C20736  10.517   9.979   2.316  0.4968 -0.1104  0.7775
  895MOL0     O20737  10.341   9.948   2.092 -0.4486  0.1095  0.3091
  895MOL0     C20738  10.085   9.899   2.008  0.7708  0.2132  0.4806
  895MOL0     C20739   9.955   9.866   1.967 -0.1260 -0.2940 -0.1988
  895MOL0     N20740   9.474   9.258   1.838 -0.1741 -0.1547 -0.0245
  895MOL0     N20741   9.365   9.220   1.792  0.1536  0.2429  0.0401
  895MOL0     C20742   8.211   8.953   2.233  0.2676 -0.0176 -0.6313
  895MOL0     C20743   8.072   8.927   2.225 -0.6530 -1.0451  0.1579
  895MOL0     C20744   7.621   9.000   2.247  0.3535 -0.8227 -0.9974
  895MOL0     C20745   7.587   8.914   2.147 -1.1651 -0.4295  0.1421
  895MOL0     C20746   7.459   8.861   2.135  0.0312 -0.0089 -0.1576
  895MOL0     C20747   7.356   8.889   2.220  0.3628  0.6739 -0.6714
  895MOL0     O20748   7.233   8.842   2.189 -0.4648  0.2529  0.1084
  895MOL0     C20749   7.122   8.893   2.265 -0.0894 -0.0525 -0.0503
  895MOL0     C20750   6.998   8.809   2.225 -0.1726 -0.1364 -1.1508
  895MOL0     C20751   7.017   8.666   2.284 -0.2470 -0.3296  0.6134
  895MOL0     C20752   6.885   8.594   2.294 -0.0406  0.4464 -0.1273
  895MOL0     C20753   6.920   8.452   2.326 -0.4571 -0.5901  0.3035
  895MOL0     C20754   6.948   8.340   2.362 -0.1512  1.2551  0.6716
  895MOL0     C20755   7.391   8.982   2.324  0.2612  1.0126  0.8979
  895MOL0     C20756   7.517   9.043   2.336  0.9527 -0.6146  0.3696
  895MOL0     C20757   7.532   9.163   2.427 -0.7663  0.0970 -0.1757
  895MOL0     H20758   7.992   9.213   2.064  0.9538  0.6897 -0.8194
  895MOL0     H20759   8.224   9.259   2.115  3.5276 -1.6968  4.1639
  895MOL0     H20760   8.468   9.235   2.086  1.1572  1.2472  0.4171
  895MOL0     H20761   8.431   9.287   2.243 -1.7090 -1.8285  0.0519
  895MOL0     H20762   8.641   9.150   2.314  1.0127  1.5058  0.0672
  895MOL0     H20763   8.644   9.306   2.227 -0.3264 -0.7423  2.9402
  895MOL0     H20764   8.652   9.183   2.012  0.3828 -2.4934 -0.8971
  895MOL0     H20765   8.702   9.047   2.110  0.2329  0.5356  0.9767
  895MOL0     H20766   8.844   9.300   2.150 -2.0065  0.6056  0.4437
  895MOL0     H20767   8.922   9.144   2.163 -0.0165  0.1681  0.6568
  895MOL0     H20768   8.891   9.097   1.923 -1.2694 -0.2584 -0.0937
  895MOL0     H20769   8.809   9.256   1.903  0.0834 -1.1738 -0.9073
  895MOL0     H20770   8.998   9.388   1.948 -1.6676 -0.2031 -1.7876
  895MOL0     H20771   9.092   9.240   1.986  0.8461 -0.3428 -0.3571
  895MOL0     H20772   8.960   9.300   1.716  1.5264 -1.1064 -2.2425
  895MOL0     H20773   9.058   9.157   1.761 -2.3038 -0.4985 -2.9822
  895MOL0     H20774   9.189   9.296   1.627 -3.3991 -0.4858 -1.7225
  895MOL0     H20775   9.128   9.444   1.725 -1.7022 -1.4022 -0.9102
  895MOL0     H20776   9.336   9.541   1.871  1.6942  0.4085  1.3037
  895MOL0     H20777   9.600   9.503   2.010  0.8918 -1.9673  0.7768
  895MOL0     H20778   9.677   9.389   1.890 -0.3059 -0.0066 -3.4655
  895MOL0     H20779   9.734   9.596   1.803 -0.7808  0.4992  0.8766
  895MOL0     H20780   9.590   9.557   1.703 -3.8331 -1.0572  0.8855
  895MOL0     H20781   9.482   9.718   1.920 -0.0444 -1.1223 -0.2505
  895MOL0     H20782   9.532   9.774   1.766 -0.2087  2.0830  1.5505
  895MOL0     H20783   9.632   9.906   1.944  1.9542  0.4752  2.1126
  895MOL0     H20784   9.732   9.832   1.824  1.3857 -3.3055  0.9190
  895MOL0     H20785   9.852   9.653   2.207 -0.2682  0.5471  1.6094
  895MOL0     H20786  10.076   9.748   2.309  2.4676 -0.3768 -0.9596
  895MOL0     H20787  10.262  10.075   2.520 -1.2184 -2.4348 -0.2627
  895MOL0     H20788  10.466  10.182   2.633 -0.2263 -2.1738  0.6330
  895MOL0     H20789  10.636  10.216   2.720 -1.1143 -0.3341 -2.1271
  895MOL0     H20790  10.805  10.182   2.712  0.8001 -0.0708 -2.1063
  895MOL0     H20791  10.670  10.436   2.602 -0.8506 -0.8634 -0.6336
  895MOL0     H20792  10.730  10.418   2.769  1.7942  0.2273  0.9081
  895MOL0     H20793  10.946  10.369   2.687  0.3439 -2.2442 -0.7717
  895MOL0     H20794  10.906  10.384   2.518  1.8342  2.7581 -0.9019
  895MOL0     H20795  10.867  10.616   2.697 -0.2190 -1.8958  0.5150
  895MOL0     H20796  10.844  10.603   2.514  1.3922 -2.0235 -2.3596
  895MOL0     H20797  11.070  10.565   2.485  3.4331  1.4307  1.2863
  895MOL0     H20798  11.096  10.542   2.652 -0.2102 -0.0070  1.9649
  895MOL0     H20799  11.023  10.810   2.503 -2.7819 -0.8678  0.6191
  895MOL0     H20800  11.016  10.791   2.679 -1.1230 -2.2798 -0.2384
  895MOL0     H20801  11.260  10.743   2.682 -1.2896  0.7569  0.4264
  895MOL0     H20802  11.223  10.899   2.623  1.3930  0.0162 -0.0507
  895MOL0     H20803  11.261  10.808   2.392  0.2005 -0.3883 -0.9264
  895MOL0     H20804  11.414  10.786   2.480  0.1677 -1.3053 -0.7397
  895MOL0     H20805  10.724  10.033   2.332  0.8271 -3.1496  0.6810
  895MOL0     H20806  10.531   9.906   2.237  0.3438 -0.0712  0.7138
  895MOL0     H20807  10.151   9.955   1.943 -0.2205  0.2140 -0.5619
  895MOL0     H20808   9.914   9.917   1.882 -1.1648 -0.4334  0.2058
  895MOL0     H20809   8.277   8.872   2.263  2.6532  2.1176  0.2756
  895MOL0     H20810   8.030   8.833   2.260 -1.2585  0.1205  2.8185
  895MOL0     H20811   7.651   8.868   2.074  0.4937  1.1907  0.5099
  895MOL0     H20812   7.444   8.798   2.049 -2.4215  2.2537 -1.5393
  895MOL0     H20813   7.114   9.001   2.252  0.0736  0.0067  0.3248
  895MOL0     H20814   7.147   8.872   2.369  3.6106 -0.2228 -0.8164
  895MOL0     H20815   6.985   8.810   2.117  0.4845 -0.3624 -1.2373
  895MOL0     H20816   6.911   8.856   2.273  0.9149 -0.0421  0.8610
  895MOL0     H20817   7.056   8.666   2.386  3.3351  0.1719 -0.6447
  895MOL0     H20818   7.089   8.608   2.226 -0.3759 -0.4028  0.5237
  895MOL0     H20819   6.826   8.633   2.377  0.9306  0.5233  0.5431
  895MOL0     H20820   6.825   8.611   2.204 -1.3007  1.0441  0.8097
  895MOL0     H20821   6.973   8.241   2.394  3.1522  2.4349  2.3164
  895MOL0     H20822   7.313   9.011   2.392 -0.9566 -2.8551  1.4370
  895MOL0     H20823   7.443   9.226   2.422  0.3393  1.5877 -3.1145
  895MOL0     H20824   7.560   9.134   2.529 -0.8681  2.0097  0.4365
  895MOL0     H20825   7.612   9.231   2.398  0.2151 -1.1143 -0.4032
  896MOL0     O20826   3.439   4.393  10.023 -0.1396 -0.5820 -0.7008
  896MOL0     C20827   3.374   4.494  10.051  0.3434 -0.1458  0.5641
  896MOL0     O20828   3.411   4.587  10.142  0.1171  0.2113  0.1215
  896MOL0     C20829   3.549   4.604  10.157  0.1636 -1.4783 -0.2444
  896MOL0     C20830   3.608   4.725  10.112  0.4878  0.2519 -0.3282
  896MOL0     C20831   3.749   4.736  10.109  0.0212 -0.1001 -0.2999
  896MOL0     C20832   3.825   4.635  10.172  0.6660 -0.0162 -0.5080
  896MOL0     O20833   3.958   4.648  10.161 -0.6863  0.6112 -0.3064
  896MOL0     C20834   4.053   4.558  10.230 -1.0694  0.0006  0.7425
  896MOL0     C20835   4.196   4.595  10.179  0.3109 -0.2283  0.2000
  896MOL0     C20836   4.296   4.476  10.210  0.2926 -0.0526 -0.2822
  896MOL0     C20837   4.441   4.520  10.228 -0.4450 -0.1688  1.1914
  896MOL0     C20838   4.543   4.464  10.130 -0.2936 -0.2096 -0.1051
  896MOL0     C20839   4.690   4.513  10.151  0.4305  0.2460 -0.4661
  896MOL0     C20840   4.772   4.481  10.027  0.0048 -0.0128  0.4642
  896MOL0     C20841   4.900   4.413  10.055 -1.0324 -0.1731 -0.4735
  896MOL0     N20842   5.013   4.503  10.107 -0.8968  0.4830 -0.8090
  896MOL0     C20843   5.077   4.594  10.034  0.0909  0.4871  0.3981
  896MOL0     C20844   5.168   4.648  10.110  0.6532  1.4152  0.5837
  896MOL0     C20845   5.270   4.753  10.086  0.3374  0.1403  0.3677
  896MOL0     C20846   5.248   4.879  10.167 -0.3361  0.1653 -0.0905
  896MOL0     C20847   5.354   4.982  10.132 -0.1097 -0.3387  0.0722
  896MOL0     C20848   5.489   4.955  10.190  0.5504  0.5220 -0.4695
  896MOL0     O20849   5.552   5.077  10.214 -0.0143  0.4119 -0.5507
  896MOL0     C20850   5.659   5.085  10.302 -0.4577  0.2214  0.4024
  896MOL0     C20851   5.726   4.972  10.353 -0.6250  0.0522  0.4307
  896MOL0     C20852   5.847   4.984  10.415  0.0350 -0.0249 -0.8443
  896MOL0     C20853   5.901   5.109  10.451  0.3380 -0.0141  0.7287
  896MOL0     C20854   6.017   5.121  10.533  0.0089  0.2597 -0.9225
  896MOL0     O20855   6.081   5.246  10.544  0.8908 -0.2103 -0.0333
  896MOL0     C20856   6.128   5.291  10.662 -0.1913 -0.1899  0.9012
  896MOL0     C20857   6.238   5.382  10.658  0.4057  0.2560 -0.4858
  896MOL0     C20858   6.288   5.435  10.782 -0.5997 -0.0901 -0.9490
  896MOL0     C20859   6.223   5.407  10.908 -0.1562  0.1011 -0.0718
  896MOL0     O20860   6.258   5.453  11.034 -0.1591 -0.2630  0.1724
  896MOL0     C20861   6.343   5.572  11.049 -0.4279 -0.6233 -0.2254
  896MOL0     C20862   6.284   5.696  10.979  0.7505  0.1302 -1.4865
  896MOL0     C20863   6.373   5.811  11.012 -0.7112  0.3352 -0.1740
  896MOL0     C20864   6.319   5.937  10.942 -0.3781 -0.1354  0.0897
  896MOL0     C20865   6.392   6.063  10.984  0.6296 -0.1330 -0.0425
  896MOL0     C20866   6.365   6.183  10.907  0.0432 -1.2567  0.1587
  896MOL0     C20867   6.221   6.234  10.866  0.2065  0.4703 -0.0837
  896MOL0     C20868   6.211   6.361  10.778 -0.1290  0.7878  0.0115
  896MOL0    Cl20869   6.270   6.506  10.871  0.0452  0.0795  0.5790
  896MOL0     C20870   6.103   5.334  10.905  0.0664 -0.4083 -0.4358
  896MOL0     C20871   6.054   5.284  10.783 -0.7977 -0.0777 -0.3448
  896MOL0     O20872   6.042   5.027  10.601  0.7327 -0.0585 -0.0300
  896MOL0     C20873   5.842   5.224  10.391  0.2670  0.8722  0.7838
  896MOL0     C20874   5.714   5.207  10.327  0.4050  0.1317  0.9012
  896MOL0     N20875   5.149   4.597  10.234  0.1486  0.7087 -0.2311
  896MOL0     N20876   5.061   4.513  10.230  0.8102  0.2732 -0.3623
  896MOL0     C20877   3.760   4.516  10.218  0.6361 -0.1250  0.8138
  896MOL0     C20878   3.628   4.501  10.206  0.2853 -0.7718 -0.0428
  896MOL0     C20879   3.238   4.498   9.991  1.1500 -0.4634 -0.7818
  896MOL0     C20880   3.157   4.618  10.017  0.4511  0.5732 -0.2168
  896MOL0     C20881   3.024   4.622   9.970  0.8690 -0.9163  0.9599
  896MOL0     C20882   2.963   4.518   9.901 -0.5724  0.5085 -0.4246
  896MOL0     O20883   2.837   4.510   9.862  0.6322 -0.1560 -0.1180
  896MOL0     C20884   2.749   4.616   9.909 -0.3712 -0.5313  0.7981
  896MOL0     C20885   2.605   4.569   9.882  0.6185 -0.3309  0.6577
  896MOL0     C20886   2.576   4.564   9.729 -0.4276 -0.1869  0.3966
  896MOL0     C20887   2.429   4.550   9.690 -0.4894 -0.3574 -0.1269
  896MOL0     C20888   2.368   4.681   9.682  0.1004  0.4116  0.1220
  896MOL0     C20889   2.312   4.786   9.676  0.1564  0.9855  0.2928
  896MOL0     C20890   3.039   4.408   9.873 -0.0537 -0.0107 -0.1629
  896MOL0     C20891   3.180   4.402   9.910  0.9393 -0.0814  0.1017
  896MOL0     C20892   3.239   4.274   9.851  0.3532  0.8430 -0.1445
  896MOL0     H20893   3.536   4.792  10.065  2.0973  0.6954 -2.2932
  896MOL0     H20894   3.795   4.827  10.073 -1.8927  1.9214  2.0132
  896MOL0     H20895   4.037   4.570  10.338 -1.9048  3.1142  0.3868
  896MOL0     H20896   4.026   4.459  10.195  0.6115 -0.3425  0.3116
  896MOL0     H20897   4.216   4.682  10.242 -1.6064  1.2179 -1.0990
  896MOL0     H20898   4.211   4.614  10.072 -0.3617 -1.1338 -0.0645
  896MOL0     H20899   4.283   4.403  10.129  1.0070  1.2483 -1.6246
  896MOL0     H20900   4.264   4.437  10.307  0.0719  2.3565  0.6936
  896MOL0     H20901   4.442   4.629  10.219 -0.3287 -0.2219  0.5421
  896MOL0     H20902   4.468   4.483  10.327 -0.0608 -1.1814  0.7175
  896MOL0     H20903   4.541   4.355  10.129  0.9355 -0.2637  0.7216
  896MOL0     H20904   4.516   4.509  10.034  3.2825  2.2659 -0.1615
  896MOL0     H20905   4.691   4.621  10.168 -0.4234  0.1749  0.0479
  896MOL0     H20906   4.732   4.465  10.240  2.9691 -0.0781 -1.7287
  896MOL0     H20907   4.780   4.580   9.982 -4.2977  1.3294  2.2206
  896MOL0     H20908   4.715   4.416   9.961 -1.2836 -1.4144  2.8211
  896MOL0     H20909   4.903   4.326  10.122  2.4309 -2.4408 -3.2619
  896MOL0     H20910   4.946   4.373   9.964  2.2418  1.2491  0.4170
  896MOL0     H20911   5.075   4.601   9.926  1.9337  0.4537  0.3273
  896MOL0     H20912   5.366   4.712  10.117  0.1269  2.0201  4.0622
  896MOL0     H20913   5.290   4.766   9.979 -0.1895  1.2345  0.3858
  896MOL0     H20914   5.163   4.929  10.118 -0.1692  0.5081 -0.0324
  896MOL0     H20915   5.219   4.878  10.272 -0.6952 -2.1590 -0.1506
  896MOL0     H20916   5.315   5.072  10.181 -0.4288 -0.1487 -0.5283
  896MOL0     H20917   5.362   4.997  10.024  0.1719 -0.0418  0.1309
  896MOL0     H20918   5.546   4.885  10.128  1.5934  0.1247  0.8670
  896MOL0     H20919   5.464   4.896  10.278 -1.7361 -3.2473 -3.3722
  896MOL0     H20920   5.673   4.879  10.333  0.4729  0.0745 -3.2221
  896MOL0     H20921   5.909   4.900  10.446  1.1757  0.9054 -0.5715
  896MOL0     H20922   6.289   5.413  10.567  1.1064  0.7624  0.0588
  896MOL0     H20923   6.379   5.493  10.792 -0.5250 -0.5478  1.5968
  896MOL0     H20924   6.362   5.592  11.155  2.2587  1.8456 -1.0495
  896MOL0     H20925   6.436   5.549  10.996  0.2567 -0.6084  0.9420
  896MOL0     H20926   6.292   5.680  10.871 -1.7053  0.8765 -1.8500
  896MOL0     H20927   6.182   5.715  11.015  0.9006 -1.0433 -0.4030
  896MOL0     H20928   6.402   5.821  11.117 -0.4623 -0.3589 -0.1726
  896MOL0     H20929   6.472   5.791  10.969 -1.0046  0.2373 -0.8115
  896MOL0     H20930   6.212   5.941  10.964 -0.4908 -0.6299 -0.3511
  896MOL0     H20931   6.327   5.925  10.834 -0.2098  0.2008  0.0636
  896MOL0     H20932   6.499   6.042  10.980  0.7516  0.4587  0.0158
  896MOL0     H20933   6.358   6.087  11.085 -0.0708 -0.3916 -0.2058
  896MOL0     H20934   6.413   6.269  10.956 -0.0431 -1.9236  1.4836
  896MOL0     H20935   6.441   6.170  10.830  2.4805  1.9420  1.7657
  896MOL0     H20936   6.174   6.264  10.961 -1.9190 -0.9945 -0.5961
  896MOL0     H20937   6.161   6.159  10.814  0.0944  0.4549  0.0670
  896MOL0     H20938   6.258   6.336  10.682  0.4163 -1.6408  0.8427
  896MOL0     H20939   6.105   6.369  10.755 -0.2552 -1.6392 -0.5651
  896MOL0     H20940   6.058   5.335  11.004  2.4255  1.5535  0.7154
  896MOL0     H20941   5.958   5.236  10.772  0.1079 -1.6395 -2.1955
  896MOL0     H20942   5.884   5.323  10.410  1.8651 -0.0583  2.4091
  896MOL0     H20943   5.656   5.284  10.277 -0.8643 -0.5433  1.2904
  896MOL0     H20944   3.817   4.440  10.271  1.1009  0.9545  1.9041
  896MOL0     H20945   3.578   4.409  10.232  2.1496 -1.7046  0.4392
  896MOL0     H20946   3.212   4.699  10.063  1.5986  0.7995 -1.8762
  896MOL0     H20947   2.963   4.706  10.000 -1.7695 -2.0627 -0.8188
  896MOL0     H20948   2.770   4.710   9.857  0.5223 -0.7558  0.7384
  896MOL0     H20949   2.756   4.635  10.017  1.4705  1.0900  0.4579
  896MOL0     H20950   2.538   4.644   9.926 -0.5705 -0.1295 -1.3521
  896MOL0     H20951   2.572   4.473   9.922 -0.4322 -1.1494 -1.9878
  896MOL0     H20952   2.628   4.481   9.680  0.1535  1.2811 -1.6262
  896MOL0     H20953   2.625   4.650   9.683  1.6495 -0.2638  2.3012
  896MOL0     H20954   2.414   4.519   9.586 -0.2339 -2.5888  0.4492
  896MOL0     H20955   2.379   4.486   9.764 -1.1418  0.5971  0.2741
  896MOL0     H20956   2.264   4.882   9.675  0.4638  1.1896 -2.9442
  896MOL0     H20957   2.985   4.342   9.806 -1.9302  1.4817 -0.2267
  896MOL0     H20958   3.291   4.213   9.925 -1.0381  0.1744  0.3141
  896MOL0     H20959   3.156   4.218   9.807 -1.5071  1.6317  2.1270
  896MOL0     H20960   3.316   4.299   9.777  0.0168 -0.5981 -0.9988
  897MOL0     O20961   8.633   9.617   3.080  0.5263 -0.4632  0.0343
  897MOL0     C20962   8.610   9.538   3.173 -0.0250  0.8704  0.5835
  897MOL0     O20963   8.488   9.477   3.199 -0.7440  0.0261 -0.0700
  897MOL0     C20964   8.373   9.510   3.131  0.6794  0.3424 -0.1394
  897MOL0     C20965   8.357   9.497   2.988 -0.2942  1.3363 -0.5163
  897MOL0     C20966   8.232   9.519   2.928  0.1421 -0.7362 -0.9668
  897MOL0     C20967   8.125   9.558   3.015 -0.2242  0.9762  0.3168
  897MOL0     O20968   8.000   9.583   2.954  0.4209 -0.3496 -0.0905
  897MOL0     C20969   7.901   9.477   2.963  0.5250 -0.0136 -0.3328
  897MOL0     C20970   7.926   9.381   2.846 -0.6155 -0.2651  0.3984
  897MOL0     C20971   7.821   9.266   2.842  0.5202  0.3669 -0.2728
  897MOL0     C20972   7.676   9.302   2.783  0.3579  0.3637 -0.9433
  897MOL0     C20973   7.565   9.332   2.895  0.5346 -0.1788  0.0834
  897MOL0     C20974   7.422   9.332   2.838 -0.9079  0.5577 -0.0258
  897MOL0     C20975   7.338   9.199   2.849 -0.7508  0.4208 -0.0376
  897MOL0     C20976   7.192   9.228   2.814 -0.1614 -0.2873 -0.0678
  897MOL0     N20977   7.167   9.264   2.671 -0.1033  0.5476  0.3134
  897MOL0     C20978   7.143   9.382   2.619 -0.0402  0.8920 -0.6429
  897MOL0     C20979   7.127   9.368   2.490  0.1046 -0.6126  0.4515
  897MOL0     C20980   7.097   9.474   2.380 -0.6834  0.5453  0.0219
  897MOL0     C20981   7.218   9.578   2.377  0.5903 -0.0460  0.2127
  897MOL0     C20982   7.345   9.516   2.316  0.6800 -0.5209  0.3959
  897MOL0     C20983   7.471   9.604   2.334  0.0717 -0.3371  0.1243
  897MOL0     O20984   7.582   9.535   2.267 -0.8132  0.4143  0.8819
  897MOL0     C20985   7.704   9.552   2.323  0.4554 -1.0421 -0.3275
  897MOL0     C20986   7.792   9.444   2.319  0.2729  0.6681  0.1616
  897MOL0     C20987   7.922   9.452   2.368 -0.7901  0.3483 -0.3435
  897MOL0     C20988   7.960   9.578   2.426  0.3108  0.2229 -1.0401
  897MOL0     C20989   8.095   9.585   2.507  0.1765 -0.1798  0.8532
  897MOL0     O20990   8.188   9.500   2.472  0.0675 -0.3093  0.5372
  897MOL0     C20991   8.315   9.499   2.527 -0.1844  0.8296 -0.1209
  897MOL0     C20992   8.389   9.387   2.496  0.8624  1.6247 -1.4076
  897MOL0     C20993   8.520   9.375   2.547 -0.1982 -0.0588  0.6264
  897MOL0     C20994   8.584   9.481   2.606  0.2149 -0.0046 -0.0191
  897MOL0     O20995   8.706   9.451   2.658  0.0271  0.5474 -0.2676
  897MOL0     C20996   8.786   9.537   2.736  0.1454 -0.5607  0.4914
  897MOL0     C20997   8.856   9.649   2.658  0.1388 -1.0285  1.0979
  897MOL0     C20998   8.920   9.759   2.745  0.5308 -0.5681  0.0427
  897MOL0     C20999   9.055   9.727   2.801 -0.8210 -1.2672 -0.4708
  897MOL0     C21000   9.103   9.844   2.900 -0.3376 -0.3934  0.0662
  897MOL0     C21001   9.246   9.810   2.931  0.2249  0.2320 -0.8275
  897MOL0     C21002   9.309   9.887   3.049  0.1029  0.3967 -0.3939
  897MOL0     C21003   9.460   9.884   3.041 -0.3209 -0.3527  0.3486
  897MOL0    Cl21004   9.537  10.010   3.139  0.2004 -0.8287  0.3730
  897MOL0     C21005   8.516   9.600   2.632  0.4392  0.3484 -0.1726
  897MOL0     C21006   8.377   9.608   2.600 -1.1480 -0.4341 -0.4223
  897MOL0     O21007   8.099   9.673   2.598  1.0675 -0.0055  0.6977
  897MOL0     C21008   7.879   9.690   2.422 -0.1927 -0.7330  0.5437
  897MOL0     C21009   7.750   9.674   2.386  0.3080  0.4201  0.4135
  897MOL0     N21010   7.157   9.236   2.459  0.1228 -0.5759 -0.5383
  897MOL0     N21011   7.172   9.174   2.573 -0.3830 -0.3060  0.1770
  897MOL0     C21012   8.138   9.567   3.151 -0.0770  0.3733 -0.8937
  897MOL0     C21013   8.262   9.542   3.210  0.3098  0.1532  0.3810
  897MOL0     C21014   8.716   9.517   3.274 -1.7720 -0.1962 -0.0727
  897MOL0     C21015   8.684   9.472   3.395  0.4376 -0.3358  0.2631
  897MOL0     C21016   8.776   9.449   3.501  0.1275 -0.3739  0.4109
  897MOL0     C21017   8.908   9.478   3.468 -0.4035 -0.3370 -0.4899
  897MOL0     O21018   8.992   9.465   3.577 -0.6679  0.1799 -0.5849
  897MOL0     C21019   9.071   9.336   3.587 -0.0473 -0.8205 -0.2519
  897MOL0     C21020   9.197   9.360   3.511  0.5486 -0.5791  0.5602
  897MOL0     C21021   9.282   9.234   3.516  0.4789 -0.4361 -0.0471
  897MOL0     C21022   9.417   9.257   3.454 -0.5363 -0.2023  0.0490
  897MOL0     C21023   9.411   9.307   3.318  0.1742  0.0857 -0.1257
  897MOL0     C21024   9.378   9.341   3.205 -0.5140 -0.7172 -1.0531
  897MOL0     C21025   8.943   9.530   3.349 -0.4307  0.2100 -0.2862
  897MOL0     C21026   8.849   9.557   3.248 -0.2502  0.9284  0.1458
  897MOL0     C21027   8.909   9.618   3.124 -1.3066  0.0024  0.4186
  897MOL0     H21028   8.444   9.463   2.934 -1.0983 -0.9205 -0.4996
  897MOL0     H21029   8.219   9.514   2.821  0.4146  0.0078 -1.0381
  897MOL0     H21030   7.909   9.434   3.063  1.0653  0.2699 -0.2491
  897MOL0     H21031   7.801   9.520   2.947  0.8204  0.3198 -1.3731
  897MOL0     H21032   8.028   9.341   2.858 -1.3674 -2.2706  0.4424
  897MOL0     H21033   7.930   9.428   2.747 -0.3053  1.4139  1.1826
  897MOL0     H21034   7.796   9.232   2.943 -2.9524  0.8213 -0.8718
  897MOL0     H21035   7.863   9.181   2.788 -0.5067  0.0841 -0.6552
  897MOL0     H21036   7.685   9.384   2.711 -0.7582  1.6774  0.3538
  897MOL0     H21037   7.641   9.218   2.724 -0.8167 -1.6335  2.3664
  897MOL0     H21038   7.562   9.250   2.967 -4.6727  1.1655  1.9242
  897MOL0     H21039   7.584   9.428   2.944 -2.2642  0.7687 -0.4878
  897MOL0     H21040   7.369   9.406   2.899  1.4959  1.3549  1.2245
  897MOL0     H21041   7.423   9.361   2.732  1.0967  1.1422  0.1075
  897MOL0     H21042   7.360   9.168   2.952 -1.5579 -1.0866 -0.2831
  897MOL0     H21043   7.382   9.116   2.793 -1.2840  1.3368 -1.8549
  897MOL0     H21044   7.134   9.137   2.832  0.7039 -0.8158  0.1382
  897MOL0     H21045   7.153   9.306   2.879 -2.3458 -2.6054  1.6228
  897MOL0     H21046   7.122   9.472   2.676 -0.5606  0.2001  0.2975
  897MOL0     H21047   7.065   9.419   2.291  0.9044 -1.3763  0.5499
  897MOL0     H21048   7.002   9.516   2.415 -1.7529 -2.2184  0.7366
  897MOL0     H21049   7.201   9.670   2.321 -0.6649 -1.4790 -1.8992
  897MOL0     H21050   7.243   9.604   2.480 -1.6911  0.0720  0.7829
  897MOL0     H21051   7.326   9.500   2.209  0.9959  1.1354  0.0612
  897MOL0     H21052   7.375   9.421   2.359  5.0216  0.0330 -0.9030
  897MOL0     H21053   7.487   9.625   2.440  4.6427  3.6145 -0.9658
  897MOL0     H21054   7.457   9.695   2.274  1.2661 -2.3194 -3.4263
  897MOL0     H21055   7.763   9.349   2.276  2.2309  0.1811 -0.1707
  897MOL0     H21056   7.996   9.373   2.365  1.4341  2.3210 -1.0988
  897MOL0     H21057   8.338   9.304   2.449  0.1026  0.1555  1.7993
  897MOL0     H21058   8.575   9.281   2.544  0.2136  0.1497  1.2963
  897MOL0     H21059   8.728   9.580   2.818 -2.3681 -3.8773  0.6695
  897MOL0     H21060   8.869   9.483   2.783  0.0171 -0.4517  0.8458
  897MOL0     H21061   8.925   9.600   2.588  0.5734 -0.1139  0.8709
  897MOL0     H21062   8.775   9.696   2.602  1.2775 -0.8251 -0.4403
  897MOL0     H21063   8.959   9.843   2.687  1.5303 -1.3622 -0.4668
  897MOL0     H21064   8.852   9.795   2.823  0.6273 -2.5848  1.1331
  897MOL0     H21065   9.124   9.703   2.719  2.8581 -0.7825  2.2487
  897MOL0     H21066   9.061   9.641   2.869 -0.3197  0.0183  1.1424
  897MOL0     H21067   9.043   9.827   2.990  2.5902 -1.2449  1.9889
  897MOL0     H21068   9.076   9.945   2.869 -0.6614  0.4496  2.8365
  897MOL0     H21069   9.250   9.702   2.950 -2.0837  0.5357  1.9655
  897MOL0     H21070   9.290   9.823   2.832  1.4614  1.7858 -0.1288
  897MOL0     H21071   9.280   9.832   3.139 -2.0105  4.2834  1.5707
  897MOL0     H21072   9.275   9.991   3.058  0.3189  0.4665 -0.3840
  897MOL0     H21073   9.487   9.783   3.072 -0.2921 -0.2220  0.7655
  897MOL0     H21074   9.488   9.908   2.938 -2.7274  0.1203 -0.2538
  897MOL0     H21075   8.564   9.676   2.693  1.1677 -0.5572  0.4077
  897MOL0     H21076   8.326   9.700   2.628  0.0127  0.4379 -1.0938
  897MOL0     H21077   7.903   9.788   2.462  0.5376 -0.9672  0.6882
  897MOL0     H21078   7.688   9.761   2.407  1.6826  0.8325  3.1604
  897MOL0     H21079   8.046   9.586   3.206  0.4221 -2.1412  0.9549
  897MOL0     H21080   8.272   9.552   3.317 -0.7666 -3.0537  0.8769
  897MOL0     H21081   8.578   9.472   3.418 -0.9135 -2.6059 -4.4957
  897MOL0     H21082   8.751   9.435   3.606  0.4604  0.0321  0.5471
  897MOL0     H21083   9.016   9.249   3.552  1.2110 -0.3089 -3.9489
  897MOL0     H21084   9.104   9.325   3.691 -0.5204  3.8624  0.6442
  897MOL0     H21085   9.249   9.452   3.541 -1.9909  2.0167 -2.2983
  897MOL0     H21086   9.166   9.360   3.406 -0.4029 -1.0686  0.8362
  897MOL0     H21087   9.236   9.140   3.482  3.2647 -2.2357  0.8054
  897MOL0     H21088   9.290   9.209   3.622 -3.3939 -1.7078  0.1327
  897MOL0     H21089   9.471   9.318   3.528 -0.5547 -1.7205  1.3669
  897MOL0     H21090   9.470   9.162   3.444 -0.3354 -0.0855  0.0020
  897MOL0     H21091   9.352   9.371   3.105 -0.4446  1.0228 -0.5896
  897MOL0     H21092   9.050   9.545   3.335 -0.0756 -2.0055 -0.3012
  897MOL0     H21093   8.877   9.566   3.033 -0.2752 -2.5517  1.4117
  897MOL0     H21094   8.880   9.723   3.117 -1.3309  0.0850  1.5933
  897MOL0     H21095   9.018   9.634   3.126 -1.1422 -0.8801 -0.4258
  898MOL0     O21096   7.167   2.627   0.277 -0.7369  0.0318  0.3675
  898MOL0     C21097   7.086   2.711   0.236 -0.4961 -0.0971  0.1974
  898MOL0     O21098   7.075   2.838   0.290 -0.1215  0.1351 -0.2672
  898MOL0     C21099   7.154   2.852   0.400  1.4802 -0.8321 -0.2153
  898MOL0     C21100   7.087   2.882   0.515  0.3721  0.0081  0.8621
  898MOL0     C21101   7.159   2.933   0.628 -0.7523 -1.0304  0.5872
  898MOL0     C21102   7.298   2.960   0.621 -0.4733  0.1814 -0.2076
  898MOL0     O21103   7.356   3.024   0.730  0.5088  0.2814  0.5246
  898MOL0     C21104   7.501   3.034   0.746  1.4736  0.1869 -0.2763
  898MOL0     C21105   7.523   3.075   0.890  0.5896 -0.1405 -0.7754
  898MOL0     C21106   7.665   3.093   0.923  0.0907  0.1230 -1.0327
  898MOL0     C21107   7.685   3.171   1.057  0.4436  0.2474 -0.2368
  898MOL0     C21108   7.653   3.325   1.026 -0.2428 -0.7095 -0.5350
  898MOL0     C21109   7.710   3.423   1.128 -0.0451  0.0267 -0.5594
  898MOL0     C21110   7.637   3.543   1.129 -0.0156 -0.5359  0.2195
  898MOL0     C21111   7.664   3.633   1.015  0.1835  0.4467  0.5701
  898MOL0     N21112   7.619   3.770   1.020  0.6568 -0.4501 -0.5604
  898MOL0     C21113   7.653   3.857   1.117 -0.4075 -0.1825 -0.3972
  898MOL0     C21114   7.560   3.959   1.109 -0.1880  0.3850 -0.7075
  898MOL0     C21115   7.557   4.084   1.193 -0.8669 -0.3854 -1.0768
  898MOL0     C21116   7.425   4.154   1.221  0.4455 -0.0749 -0.4517
  898MOL0     C21117   7.444   4.273   1.325 -0.5099  0.6445  0.0292
  898MOL0     C21118   7.311   4.351   1.349  1.2857  0.0588 -0.2541
  898MOL0     O21119   7.319   4.419   1.477 -0.7597 -0.0042  0.3568
  898MOL0     C21120   7.217   4.482   1.530  0.0337  0.0876  0.6891
  898MOL0     C21121   7.084   4.468   1.481 -0.0709  0.1307 -0.3467
  898MOL0     C21122   6.978   4.540   1.538 -0.9059 -1.1582 -0.1263
  898MOL0     C21123   7.009   4.607   1.660 -0.3044  0.2724 -0.0510
  898MOL0     C21124   6.901   4.684   1.728  0.5850 -0.3329 -0.0985
  898MOL0     O21125   6.770   4.644   1.706 -0.7191 -0.0806  0.4679
  898MOL0     C21126   6.662   4.715   1.756 -0.5471  0.6781  0.2844
  898MOL0     C21127   6.541   4.642   1.759 -0.8201 -0.1362  0.5222
  898MOL0     C21128   6.423   4.692   1.808  1.0120  0.1232 -0.2422
  898MOL0     C21129   6.408   4.829   1.840 -0.5135  0.4224 -0.0973
  898MOL0     O21130   6.288   4.877   1.887 -0.6912 -0.4096  0.3513
  898MOL0     C21131   6.264   5.016   1.927 -0.2161  0.4413  0.8864
  898MOL0     C21132   6.117   5.039   1.980  0.5001  0.0256 -0.1791
  898MOL0     C21133   6.107   5.181   2.051 -0.4116 -0.4871 -0.3152
  898MOL0     C21134   5.969   5.202   2.113  0.1240  0.7554 -0.3538
  898MOL0     C21135   5.971   5.329   2.207 -0.0492  0.1291 -0.3436
  898MOL0     C21136   5.836   5.335   2.280 -0.9326  0.4515  0.2145
  898MOL0     C21137   5.826   5.466   2.373  0.1167  0.2924 -0.8948
  898MOL0     C21138   5.798   5.581   2.288 -0.7793  0.4016 -0.6598
  898MOL0    Cl21139   5.753   5.710   2.407  0.2423 -0.5557  0.1799
  898MOL0     C21140   6.531   4.905   1.826  0.9325  0.5018 -0.7598
  898MOL0     C21141   6.657   4.852   1.778 -1.3464  0.1176 -0.1555
  898MOL0     O21142   6.933   4.777   1.796 -0.7136 -0.5251  0.4262
  898MOL0     C21143   7.145   4.619   1.700 -0.2857  0.1595 -0.3465
  898MOL0     C21144   7.253   4.559   1.632 -0.5526  0.4242 -0.6224
  898MOL0     N21145   7.467   3.923   1.004  0.1570  0.4761  0.4463
  898MOL0     N21146   7.505   3.808   0.952  0.4601 -0.5215 -1.0162
  898MOL0     C21147   7.366   2.923   0.502 -0.4730 -0.1016 -0.2629
  898MOL0     C21148   7.293   2.879   0.390 -1.0543 -0.3043 -0.5466
  898MOL0     C21149   6.979   2.652   0.154  0.1782  0.1726  0.3971
  898MOL0     C21150   6.849   2.671   0.204  0.6640 -0.8997 -0.1885
  898MOL0     C21151   6.746   2.625   0.121 -0.1648  0.8045 -0.4030
  898MOL0     C21152   6.763   2.543   0.013 -0.3492  0.1841 -0.0133
  898MOL0     O21153   6.659   2.497  -0.063  0.1180 -0.2928 -0.0173
  898MOL0     C21154   6.524   2.517  -0.009  0.0786 -0.4173 -0.3547
  898MOL0     C21155   6.431   2.418  -0.086 -0.2194  0.1213 -0.5044
  898MOL0     C21156   6.430   2.431  -0.235 -0.1671  0.2928 -0.3357
  898MOL0     C21157   6.417   2.574  -0.296  0.7624  0.0665 -0.0127
  898MOL0     C21158   6.297   2.650  -0.247  0.0903 -0.6221  0.1197
  898MOL0     C21159   6.204   2.708  -0.201  0.6046 -0.1401 -0.0412
  898MOL0     C21160   6.894   2.518  -0.031 -0.8601  0.0467 -0.3706
  898MOL0     C21161   7.004   2.583   0.032 -0.5220 -0.4009  0.2346
  898MOL0     C21162   7.129   2.586  -0.046  0.4412  0.1679  0.8706
  898MOL0     H21163   6.979   2.870   0.522  0.1740  0.5131 -0.8875
  898MOL0     H21164   7.113   2.974   0.718  3.2523  0.8293  1.9935
  898MOL0     H21165   7.549   2.940   0.717 -0.5370 -1.5614  1.6372
  898MOL0     H21166   7.541   3.123   0.697  0.3539 -0.2900 -2.1587
  898MOL0     H21167   7.482   3.002   0.960  0.6357 -0.6031 -1.2256
  898MOL0     H21168   7.474   3.172   0.904  2.0922  0.3700  1.6637
  898MOL0     H21169   7.708   3.158   0.845 -0.1311  1.1368 -0.3239
  898MOL0     H21170   7.721   2.999   0.930 -0.1733  0.0859  1.1828
  898MOL0     H21171   7.619   3.141   1.140  0.6772  3.4599  1.2593
  898MOL0     H21172   7.790   3.178   1.087  1.2332 -1.3199 -2.4227
  898MOL0     H21173   7.676   3.350   0.922 -1.7696 -0.1723 -0.7680
  898MOL0     H21174   7.544   3.336   1.026 -0.2122 -0.2268  0.7545
  898MOL0     H21175   7.690   3.369   1.221 -0.2694 -0.2130 -0.7453
  898MOL0     H21176   7.818   3.428   1.111  0.5316 -0.0869  2.4634
  898MOL0     H21177   7.664   3.599   1.219 -0.5956  1.0831 -0.5617
  898MOL0     H21178   7.528   3.536   1.129 -0.4642  3.6854  0.6508
  898MOL0     H21179   7.773   3.627   1.005  0.0701  0.6932 -1.0615
  898MOL0     H21180   7.624   3.592   0.922  0.0903  0.7346  0.4834
  898MOL0     H21181   7.736   3.847   1.187 -0.5847 -0.6373 -0.2468
  898MOL0     H21182   7.608   4.054   1.285  0.5681  1.1233 -1.3452
  898MOL0     H21183   7.618   4.159   1.143  1.1032 -0.5188  0.9783
  898MOL0     H21184   7.382   4.189   1.127 -4.1377 -0.5930  1.1816
  898MOL0     H21185   7.360   4.083   1.273  2.4090 -1.5511  0.1362
  898MOL0     H21186   7.517   4.343   1.284  1.9380 -2.2201 -0.9051
  898MOL0     H21187   7.486   4.233   1.418 -0.7813 -0.0817 -0.1526
  898MOL0     H21188   7.238   4.270   1.362  0.5764 -0.0886 -3.9071
  898MOL0     H21189   7.284   4.410   1.261  1.8848 -0.1040 -0.5558
  898MOL0     H21190   7.061   4.393   1.406 -2.6405 -0.9234  1.3148
  898MOL0     H21191   6.876   4.549   1.502 -1.3931  1.7186  1.6646
  898MOL0     H21192   6.543   4.534   1.747 -0.4369 -0.2223  1.2906
  898MOL0     H21193   6.341   4.622   1.820  1.6024 -0.2809  1.9338
  898MOL0     H21194   6.343   5.041   1.998  1.0101  0.3673 -0.3861
  898MOL0     H21195   6.282   5.073   1.835 -1.5089 -1.0046 -0.3234
  898MOL0     H21196   6.045   5.028   1.897  0.5536  2.5085 -0.6207
  898MOL0     H21197   6.099   4.960   2.054 -1.9872 -0.0691 -0.7771
  898MOL0     H21198   6.179   5.191   2.132  1.2927  0.1187 -1.8220
  898MOL0     H21199   6.124   5.264   1.981 -0.7353 -0.6174 -0.5512
  898MOL0     H21200   5.940   5.116   2.176  0.1963  0.0105 -1.3125
  898MOL0     H21201   5.889   5.195   2.039  0.6641  0.6082 -0.9388
  898MOL0     H21202   5.975   5.414   2.138  1.1396 -0.1808 -0.6896
  898MOL0     H21203   6.052   5.328   2.281  2.4434  1.2027 -2.8377
  898MOL0     H21204   5.757   5.333   2.204 -1.5482  1.0793  0.8274
  898MOL0     H21205   5.837   5.244   2.341 -1.8676 -0.0409 -0.4709
  898MOL0     H21206   5.919   5.477   2.430  1.6106 -0.7103 -3.0238
  898MOL0     H21207   5.744   5.446   2.442 -0.1963 -0.8502 -1.5671
  898MOL0     H21208   5.883   5.605   2.223 -0.3476 -3.6915 -1.8697
  898MOL0     H21209   5.714   5.563   2.220  0.1594 -0.7606 -1.5578
  898MOL0     H21210   6.529   5.013   1.835  0.8926  0.5561 -1.3721
  898MOL0     H21211   6.738   4.911   1.734  0.3775 -1.4873  0.7478
  898MOL0     H21212   7.177   4.667   1.792  0.5471 -2.5864  0.8972
  898MOL0     H21213   7.354   4.578   1.666 -0.6968  3.0621 -1.4802
  898MOL0     H21214   7.468   2.957   0.485 -1.3219  1.2713 -3.2020
  898MOL0     H21215   7.341   2.861   0.295  0.4975  1.7275 -0.2179
  898MOL0     H21216   6.828   2.737   0.287 -1.3966 -1.0803 -0.5000
  898MOL0     H21217   6.649   2.636   0.170  0.1635  0.5404  0.3222
  898MOL0     H21218   6.482   2.616  -0.027  1.6676  0.6011  1.1498
  898MOL0     H21219   6.511   2.499   0.098  1.9700 -1.6569 -0.2655
  898MOL0     H21220   6.326   2.428  -0.054  0.6140 -1.4381  3.1718
  898MOL0     H21221   6.454   2.315  -0.057 -2.0608 -0.0633  0.4600
  898MOL0     H21222   6.336   2.385  -0.267  0.3140 -1.5340  0.7742
  898MOL0     H21223   6.514   2.380  -0.283 -1.1720 -0.1459 -1.6982
  898MOL0     H21224   6.502   2.640  -0.282  0.0118  0.6181  2.4355
  898MOL0     H21225   6.399   2.555  -0.402 -1.7218  1.1958  0.1360
  898MOL0     H21226   6.109   2.746  -0.170  0.1816 -2.2062  1.3926
  898MOL0     H21227   6.898   2.464  -0.125  6.4028 -1.4041  0.2276
  898MOL0     H21228   7.162   2.488  -0.082 -1.1568 -0.8448  1.9995
  898MOL0     H21229   7.126   2.658  -0.127  1.0124 -1.1424 -0.3639
  898MOL0     H21230   7.211   2.626   0.014 -0.0061 -1.0327  2.3571
  899MOL0     O21231   2.136   1.576   8.298  0.7564 -0.2545  0.6729
  899MOL0     C21232   2.088   1.689   8.277 -0.0299  0.6332 -0.5593
  899MOL0     O21233   2.090   1.748   8.159  1.0512 -0.9998  0.4070
  899MOL0     C21234   2.147   1.686   8.044 -0.5442 -0.0551  0.0695
  899MOL0     C21235   2.260   1.605   8.047  0.0961 -0.4413  0.6115
  899MOL0     C21236   2.308   1.541   7.932 -0.0223 -0.9241  0.0180
  899MOL0     C21237   2.249   1.564   7.806  0.6736 -0.0339  0.7793
  899MOL0     O21238   2.280   1.489   7.689  0.5822  0.0260 -0.2415
  899MOL0     C21239   2.351   1.545   7.583 -0.6934  0.1474  0.4091
  899MOL0     C21240   2.399   1.436   7.486  0.2645 -0.1736  0.5334
  899MOL0     C21241   2.297   1.343   7.437 -0.5528 -0.4272 -0.0399
  899MOL0     C21242   2.349   1.267   7.318 -0.4547  0.3384 -0.5292
  899MOL0     C21243   2.234   1.170   7.271 -0.3323  0.4112  0.4684
  899MOL0     C21244   2.270   1.094   7.145 -0.0547  0.3071  0.4651
  899MOL0     C21245   2.275   1.181   7.018  0.2130  1.2624  0.7450
  899MOL0     C21246   2.278   1.098   6.885  0.4695 -0.2244 -0.5046
  899MOL0     N21247   2.422   1.076   6.850  0.8850 -0.5583 -0.0883
  899MOL0     C21248   2.512   1.172   6.800 -0.3901 -0.3342 -0.6013
  899MOL0     C21249   2.631   1.100   6.796 -0.3613 -1.0341  0.1513
  899MOL0     C21250   2.759   1.156   6.748 -0.0972 -0.2892 -0.3464
  899MOL0     C21251   2.824   1.047   6.657 -0.4474  0.1649  0.2547
  899MOL0     C21252   2.964   1.082   6.609 -0.2687 -0.4042 -0.3863
  899MOL0     C21253   3.007   0.974   6.514  0.2779  0.1859  0.6918
  899MOL0     O21254   3.149   0.982   6.475 -0.4140 -0.6523  0.1236
  899MOL0     C21255   3.248   0.917   6.547 -0.1516 -0.0424  0.0387
  899MOL0     C21256   3.234   0.845   6.659 -0.9979 -0.0007 -0.5257
  899MOL0     C21257   3.346   0.801   6.730  0.3387 -0.6127 -0.8459
  899MOL0     C21258   3.474   0.808   6.678  0.3810  0.3991  0.3323
  899MOL0     C21259   3.592   0.755   6.749 -0.4704 -0.8323 -0.4532
  899MOL0     O21260   3.722   0.745   6.683  0.2821  0.3184  0.1840
  899MOL0     C21261   3.821   0.680   6.745 -0.1605 -0.2118  0.5549
  899MOL0     C21262   3.828   0.643   6.884  0.2821  0.1691 -0.3032
  899MOL0     C21263   3.948   0.584   6.937  0.0646  0.8254  0.2375
  899MOL0     C21264   4.050   0.554   6.846 -0.5261 -0.3531 -0.5391
  899MOL0     O21265   4.175   0.514   6.898  0.4352 -0.3083 -0.6245
  899MOL0     C21266   4.275   0.462   6.812  0.3903 -0.2762 -0.0081
  899MOL0     C21267   4.350   0.366   6.906 -1.1563 -0.8153  0.0576
  899MOL0     C21268   4.465   0.276   6.835  0.4014  0.4541 -1.0469
  899MOL0     C21269   4.579   0.361   6.772 -0.0296  0.1716 -0.4684
  899MOL0     C21270   4.679   0.270   6.705  0.5989 -0.5155 -0.0219
  899MOL0     C21271   4.801   0.355   6.666 -0.3351  0.0111 -0.2352
  899MOL0     C21272   4.918   0.272   6.599  0.5907 -0.8412 -0.2448
  899MOL0     C21273   4.908   0.269   6.442  0.5290 -0.3031 -1.5175
  899MOL0    Cl21274   5.057   0.232   6.371 -0.6212  0.0108  0.2430
  899MOL0     C21275   4.044   0.595   6.711  0.5192  0.2307  0.2645
  899MOL0     C21276   3.929   0.658   6.664 -0.2609 -0.2673  0.5812
  899MOL0     O21277   3.571   0.739   6.873 -0.3614 -0.3143 -0.1206
  899MOL0     C21278   3.486   0.881   6.556 -0.4997  0.5347 -0.0224
  899MOL0     C21279   3.376   0.930   6.495  0.4163  0.3508 -0.2176
  899MOL0     N21280   2.606   0.977   6.844 -0.5880 -0.2544 -0.0477
  899MOL0     N21281   2.488   0.959   6.872 -0.5561  0.0332 -0.5746
  899MOL0     C21282   2.135   1.650   7.803 -0.6230  0.7730 -0.1881
  899MOL0     C21283   2.081   1.712   7.918 -0.0686 -0.1077 -1.2513
  899MOL0     C21284   2.012   1.769   8.377  0.3686 -0.0721 -0.0637
  899MOL0     C21285   1.909   1.852   8.331 -0.1559  0.0390  0.2695
  899MOL0     C21286   1.829   1.924   8.416  0.3400  1.6348 -0.5172
  899MOL0     C21287   1.840   1.911   8.551  0.6246 -0.1776 -0.1269
  899MOL0     O21288   1.753   1.985   8.627 -0.0774  0.5346  0.7532
  899MOL0     C21289   1.785   2.014   8.763  0.6536  0.4705 -0.3369
  899MOL0     C21290   1.678   2.108   8.815 -0.3075  0.9193  0.7997
  899MOL0     C21291   1.725   2.258   8.815 -0.4280  0.6926 -0.1123
  899MOL0     C21292   1.619   2.373   8.812 -0.6206  0.0667 -0.7839
  899MOL0     C21293   1.536   2.380   8.930 -0.1155  0.9164 -0.0425
  899MOL0     C21294   1.469   2.379   9.029  0.5023 -0.5320  0.0026
  899MOL0     C21295   1.949   1.831   8.603 -0.5135 -0.1679  0.9866
  899MOL0     C21296   2.025   1.753   8.516 -0.5986  0.1924 -0.3547
  899MOL0     C21297   2.134   1.677   8.575 -0.1641  0.5112  0.7098
  899MOL0     H21298   2.313   1.574   8.137  2.0600  1.4775  0.1805
  899MOL0     H21299   2.394   1.475   7.938  0.6218 -0.1623 -0.4438
  899MOL0     H21300   2.284   1.605   7.521 -0.5389  0.8679  0.9243
  899MOL0     H21301   2.437   1.596   7.628  0.3434 -1.6404  0.5496
  899MOL0     H21302   2.480   1.379   7.532  2.4052 -0.5437 -3.2676
  899MOL0     H21303   2.442   1.482   7.396 -1.3850 -2.6509 -1.6586
  899MOL0     H21304   2.208   1.402   7.415  0.1978  0.4633 -0.8087
  899MOL0     H21305   2.277   1.284   7.526  2.1817  0.3720  1.2307
  899MOL0     H21306   2.384   1.335   7.240  0.3409 -1.7188 -2.0633
  899MOL0     H21307   2.437   1.214   7.355  0.8626  1.1386 -2.4058
  899MOL0     H21308   2.191   1.110   7.351 -0.9897  2.1093  1.4583
  899MOL0     H21309   2.152   1.235   7.238 -2.4772 -1.8259  1.1498
  899MOL0     H21310   2.363   1.039   7.160  0.8942  2.0710  1.4180
  899MOL0     H21311   2.195   1.017   7.128 -0.7523  1.5372 -3.0477
  899MOL0     H21312   2.357   1.252   7.028  0.0932  2.4476 -4.2118
  899MOL0     H21313   2.176   1.227   7.013 -1.2907 -1.6356 -4.9403
  899MOL0     H21314   2.231   0.999   6.889  0.5995 -0.2499  1.8909
  899MOL0     H21315   2.215   1.147   6.810 -1.1422  0.4160  1.1827
  899MOL0     H21316   2.482   1.273   6.776 -0.9642 -0.3070  0.1903
  899MOL0     H21317   2.752   1.245   6.684  1.5959 -0.7983 -1.2982
  899MOL0     H21318   2.822   1.185   6.832  1.3042  0.2452 -1.5457
  899MOL0     H21319   2.839   0.953   6.711 -0.4537  1.9200  3.5493
  899MOL0     H21320   2.758   1.031   6.571 -3.9059  3.1927  2.0701
  899MOL0     H21321   3.033   1.082   6.694 -1.5764 -0.0681  0.7161
  899MOL0     H21322   2.973   1.178   6.559  1.5351 -0.6464 -0.5950
  899MOL0     H21323   2.956   0.983   6.417  0.3721 -1.8777  0.4075
  899MOL0     H21324   2.988   0.872   6.549 -1.6653 -0.5327 -2.0830
  899MOL0     H21325   3.139   0.820   6.706  0.2551  0.6145  2.5711
  899MOL0     H21326   3.332   0.737   6.816  3.4501  0.6912  0.7790
  899MOL0     H21327   3.750   0.657   6.959  0.4467 -0.0605 -0.0879
  899MOL0     H21328   3.966   0.572   7.043  1.2300 -2.8416 -0.2237
  899MOL0     H21329   4.231   0.392   6.741  1.0388  0.0317 -0.7366
  899MOL0     H21330   4.342   0.536   6.765 -1.8182  1.1576 -1.0493
  899MOL0     H21331   4.390   0.425   6.989  0.1223 -3.0549  1.1465
  899MOL0     H21332   4.278   0.296   6.949 -0.8633 -0.0152  1.9524
  899MOL0     H21333   4.507   0.217   6.918 -0.1429 -1.2953 -1.9770
  899MOL0     H21334   4.415   0.211   6.764  0.0800 -1.4523  0.8254
  899MOL0     H21335   4.627   0.426   6.845  0.4720 -0.4186 -0.2640
  899MOL0     H21336   4.539   0.432   6.699  0.6893  2.4314  1.2194
  899MOL0     H21337   4.637   0.233   6.611  1.7911  0.1660 -0.8410
  899MOL0     H21338   4.704   0.182   6.766  2.4718  1.5857  2.4845
  899MOL0     H21339   4.767   0.432   6.597 -1.6459  3.0431  3.4113
  899MOL0     H21340   4.844   0.406   6.753 -1.9785  0.6825  0.2100
  899MOL0     H21341   4.914   0.172   6.641  2.5595  0.0398  2.2910
  899MOL0     H21342   5.016   0.306   6.633 -1.4227  2.8856  2.7191
  899MOL0     H21343   4.837   0.194   6.407  0.2687 -0.4668 -0.6629
  899MOL0     H21344   4.881   0.368   6.407 -1.1848 -1.2292 -2.9377
  899MOL0     H21345   4.134   0.591   6.651 -1.0946 -1.9375 -2.2387
  899MOL0     H21346   3.918   0.692   6.561 -3.0277  0.0868  0.9246
  899MOL0     H21347   3.582   0.884   6.506 -0.6675 -2.1288 -0.6287
  899MOL0     H21348   3.381   0.976   6.397 -4.1331 -0.7928 -1.2144
  899MOL0     H21349   2.101   1.660   7.701  2.0736 -2.7158 -1.6319
  899MOL0     H21350   2.004   1.789   7.919  3.4755  3.8354 -1.3890
  899MOL0     H21351   1.874   1.836   8.230  1.7077 -2.5589 -0.0758
  899MOL0     H21352   1.749   1.984   8.374  0.0021  0.2182 -1.9909
  899MOL0     H21353   1.883   2.061   8.774  0.0674  1.7425 -0.3894
  899MOL0     H21354   1.779   1.918   8.817  1.3300  0.6298  0.0382
  899MOL0     H21355   1.644   2.079   8.915 -1.4715 -0.5111  0.0298
  899MOL0     H21356   1.596   2.103   8.743 -0.3349  2.7724  0.6640
  899MOL0     H21357   1.785   2.277   8.725  0.6695  1.5020  0.7617
  899MOL0     H21358   1.776   2.279   8.909  1.2639  0.9785 -1.0524
  899MOL0     H21359   1.683   2.462   8.806  1.7106 -1.3582  0.8429
  899MOL0     H21360   1.561   2.359   8.721 -1.2247  0.0924 -0.4044
  899MOL0     H21361   1.419   2.389   9.123 -0.1634  1.4441 -0.5245
  899MOL0     H21362   1.969   1.812   8.708  0.0380 -2.0753  0.5938
  899MOL0     H21363   2.220   1.678   8.507  1.4129  0.6331  2.6019
  899MOL0     H21364   2.178   1.718   8.667  1.9714 -0.9535  0.4106
  899MOL0     H21365   2.098   1.575   8.590 -1.2340  0.5888 -1.0911
  900MOL0     O21366   2.791   0.111   2.148 -0.3461  0.9451  1.0263
  900MOL0     C21367   2.900   0.160   2.177  0.2180  0.0664  0.3962
  900MOL0     O21368   2.911   0.286   2.232 -0.5710  0.0795  0.1056
  900MOL0     C21369   2.792   0.361   2.206  0.0772  0.4120 -0.6913
  900MOL0     C21370   2.697   0.366   2.307  0.8453  0.0176  0.3899
  900MOL0     C21371   2.594   0.459   2.290  0.0326 -0.8404 -0.5387
  900MOL0     C21372   2.564   0.523   2.168 -0.3160  0.6745  1.7751
  900MOL0     O21373   2.459   0.611   2.170  0.2469  0.3163  0.3424
  900MOL0     C21374   2.452   0.713   2.068  0.0842  0.6628  0.0920
  900MOL0     C21375   2.303   0.757   2.070  0.1382 -0.2083  0.3466
  900MOL0     C21376   2.210   0.630   2.049 -0.2828 -0.5986  0.6522
  900MOL0     C21377   2.062   0.681   2.051  0.0403  0.0470  1.3808
  900MOL0     C21378   1.975   0.572   1.997  0.6408  0.7115  0.4103
  900MOL0     C21379   1.830   0.616   1.974  0.2528  0.1517  0.4073
  900MOL0     C21380   1.742   0.494   1.944  0.3258  0.3450 -0.3831
  900MOL0     C21381   1.592   0.523   1.913  0.4024  0.3988  0.2313
  900MOL0     N21382   1.584   0.607   1.793  0.3149 -0.1977  0.0584
  900MOL0     C21383   1.575   0.742   1.794 -1.1616  0.1164 -0.2641
  900MOL0     C21384   1.519   0.774   1.673 -0.4968  0.6050  0.3442
  900MOL0     C21385   1.462   0.911   1.654  0.0822  0.1032  0.1323
  900MOL0     C21386   1.571   1.022   1.635 -0.7513 -0.2278 -0.0027
  900MOL0     C21387   1.673   0.992   1.523  0.2875  0.4705  0.1880
  900MOL0     C21388   1.791   1.097   1.502  0.3993  0.1844  0.7608
  900MOL0     O21389   1.877   1.074   1.610  0.6263  0.2788 -0.7253
  900MOL0     C21390   2.011   1.037   1.599 -0.5546  0.4376 -0.3106
  900MOL0     C21391   2.080   1.038   1.475 -0.6051  0.8444  0.0203
  900MOL0     C21392   2.216   0.995   1.474  0.3163 -0.3725  0.7586
  900MOL0     C21393   2.273   0.947   1.596 -0.4439 -0.4404 -0.2794
  900MOL0     C21394   2.410   0.895   1.598 -1.1213 -0.4576  0.3870
  900MOL0     O21395   2.475   0.877   1.717  0.3785 -0.2795 -0.3623
  900MOL0     C21396   2.602   0.819   1.732  0.8509 -0.5887  0.1152
  900MOL0     C21397   2.677   0.860   1.840  0.4062 -0.1491 -1.0303
  900MOL0     C21398   2.795   0.799   1.881  0.3965 -0.4802 -0.1746
  900MOL0     C21399   2.849   0.693   1.810  0.4522 -0.1475 -0.3397
  900MOL0     O21400   2.951   0.632   1.858 -0.1860 -0.2234 -0.6260
  900MOL0     C21401   3.059   0.595   1.775 -0.1260 -0.1271  0.7853
  900MOL0     C21402   3.178   0.540   1.857 -0.0186  0.2456 -0.1585
  900MOL0     C21403   3.309   0.519   1.774  0.3292 -0.6813 -0.0585
  900MOL0     C21404   3.427   0.477   1.860 -0.6458 -0.4969  0.0660
  900MOL0     C21405   3.543   0.434   1.774 -0.0801 -0.5244  1.0126
  900MOL0     C21406   3.652   0.365   1.856  0.8625  0.6476  0.0974
  900MOL0     C21407   3.763   0.320   1.764  0.3419 -0.1225 -0.5959
  900MOL0     C21408   3.862   0.247   1.853  0.0854 -0.9827  0.3465
  900MOL0    Cl21409   3.999   0.201   1.751  0.0500  0.0837  0.4817
  900MOL0     C21410   2.771   0.649   1.696 -0.5701 -0.4360 -0.2586
  900MOL0     C21411   2.653   0.710   1.660  0.5743  1.4985 -0.2785
  900MOL0     O21412   2.471   0.885   1.489  0.2059 -0.5372 -0.5931
  900MOL0     C21413   2.209   0.969   1.718 -0.5729  0.1805 -0.1325
  900MOL0     C21414   2.077   1.011   1.722 -0.3722  1.0727  0.4928
  900MOL0     N21415   1.511   0.666   1.598  0.6119  0.7027 -0.5401
  900MOL0     N21416   1.548   0.564   1.666  0.9770 -0.0612 -1.2769
  900MOL0     C21417   2.657   0.495   2.059  0.1119 -0.7915  0.1888
  900MOL0     C21418   2.774   0.423   2.085 -0.8375 -0.0434  0.4231
  900MOL0     C21419   3.024   0.078   2.161 -0.1430  0.4823  0.4890
  900MOL0     C21420   3.148   0.146   2.196 -0.0183 -0.3784 -0.3875
  900MOL0     C21421   3.273   0.083   2.203 -0.2716  0.4451 -0.6094
  900MOL0     C21422   3.280  -0.053   2.170 -0.7104  0.6612  0.4244
  900MOL0     O21423   3.400  -0.131   2.164 -0.2392 -0.5908 -0.5591
  900MOL0     C21424   3.527  -0.077   2.201 -0.2292 -0.2772 -0.1463
  900MOL0     C21425   3.627  -0.189   2.167 -0.2190  0.6494 -0.1632
  900MOL0     C21426   3.627  -0.240   2.017 -0.5168 -0.1682 -0.9526
  900MOL0     C21427   3.493  -0.321   1.981  0.0894 -0.0526 -0.3344
  900MOL0     C21428   3.522  -0.423   1.885 -0.1243  0.9557  0.2830
  900MOL0     C21429   3.554  -0.499   1.806 -0.6125  0.3850  0.0873
  900MOL0     C21430   3.162  -0.116   2.128  0.2198  0.0942 -0.6015
  900MOL0     C21431   3.030  -0.060   2.120 -0.0065 -0.0547 -0.6756
  900MOL0     C21432   2.916  -0.149   2.067  0.0735  0.3444 -0.2440
  900MOL0     H21433   2.708   0.312   2.401  1.8375 -1.6059 -0.6091
  900MOL0     H21434   2.520   0.477   2.367  1.1340  2.0765 -0.0186
  900MOL0     H21435   2.518   0.796   2.095 -0.0360  1.3005 -1.4577
  900MOL0     H21436   2.469   0.677   1.966  0.4606 -1.7191  0.9404
  900MOL0     H21437   2.282   0.832   1.993 -0.7984 -0.1324  0.6624
  900MOL0     H21438   2.277   0.811   2.161  0.3396 -0.6653  0.6796
  900MOL0     H21439   2.209   0.567   2.138 -1.4644 -1.4567  0.0570
  900MOL0     H21440   2.232   0.568   1.962 -0.9401 -0.9118  0.7036
  900MOL0     H21441   2.028   0.701   2.153 -1.0199 -1.4737  1.3548
  900MOL0     H21442   2.057   0.764   1.979 -0.2342 -1.7971 -0.8241
  900MOL0     H21443   2.017   0.544   1.900 -2.0580 -1.2562 -0.2945
  900MOL0     H21444   1.972   0.482   2.059  0.8358 -0.1055 -0.7497
  900MOL0     H21445   1.791   0.665   2.064 -3.6190 -0.0711 -0.9589
  900MOL0     H21446   1.827   0.683   1.887  0.2891 -0.8814 -0.4111
  900MOL0     H21447   1.738   0.421   2.026  2.3356  0.9399  0.3115
  900MOL0     H21448   1.789   0.441   1.861  1.1211  1.4860 -0.6801
  900MOL0     H21449   1.540   0.426   1.915  2.6075 -0.8696 -0.0472
  900MOL0     H21450   1.549   0.575   1.999  1.1879 -0.2193  1.0299
  900MOL0     H21451   1.603   0.811   1.872  1.2237  0.0541 -0.9920
  900MOL0     H21452   1.400   0.901   1.564  1.3889 -0.9949 -0.6865
  900MOL0     H21453   1.384   0.931   1.728 -0.8674  2.4480 -1.4025
  900MOL0     H21454   1.524   1.111   1.591 -1.4509 -0.8151 -0.4729
  900MOL0     H21455   1.635   1.042   1.721  0.7124 -2.2899 -0.5400
  900MOL0     H21456   1.611   0.989   1.433  0.2435  3.8525 -0.0312
  900MOL0     H21457   1.713   0.894   1.550 -0.1680  0.0515 -0.6448
  900MOL0     H21458   1.752   1.198   1.502  1.9894  0.8444  1.7393
  900MOL0     H21459   1.843   1.077   1.407 -1.4242 -0.8466 -0.0659
  900MOL0     H21460   2.038   1.074   1.382  2.1255 -1.1519 -2.1740
  900MOL0     H21461   2.268   0.995   1.379 -1.3769  3.1924 -0.3580
  900MOL0     H21462   2.664   0.946   1.904 -0.5332 -0.3315 -0.9552
  900MOL0     H21463   2.863   0.838   1.955  1.3230 -0.9463 -0.7595
  900MOL0     H21464   3.031   0.512   1.709  0.9949 -0.2652  0.4651
  900MOL0     H21465   3.096   0.677   1.713 -2.6839 -1.7415 -3.3754
  900MOL0     H21466   3.185   0.614   1.938 -0.0976  0.1635 -0.0767
  900MOL0     H21467   3.151   0.449   1.911  3.3790  0.8596  3.0074
  900MOL0     H21468   3.296   0.453   1.687 -2.4487  0.3621 -0.5530
  900MOL0     H21469   3.332   0.618   1.735  0.8086 -1.6177 -2.2705
  900MOL0     H21470   3.396   0.394   1.925 -0.1530 -1.0115 -0.3453
  900MOL0     H21471   3.454   0.567   1.916  0.6853  1.1812 -3.0611
  900MOL0     H21472   3.593   0.517   1.723  2.8625 -3.1995 -0.8075
  900MOL0     H21473   3.509   0.375   1.689  0.0776  1.5435 -0.5756
  900MOL0     H21474   3.698   0.426   1.935 -0.0126 -1.0681  2.0092
  900MOL0     H21475   3.613   0.278   1.910  2.0017  0.1981  0.2287
  900MOL0     H21476   3.809   0.410   1.721 -1.0777  0.1914 -1.4979
  900MOL0     H21477   3.728   0.245   1.693  0.6314 -0.7640 -0.0715
  900MOL0     H21478   3.900   0.315   1.930  2.7884 -0.2780 -1.4750
  900MOL0     H21479   3.818   0.159   1.900 -2.2167  0.2226  0.5991
  900MOL0     H21480   2.798   0.560   1.641 -1.1605 -0.1345 -1.0421
  900MOL0     H21481   2.587   0.675   1.581 -0.6101  1.0210  0.8933
  900MOL0     H21482   2.260   0.953   1.813 -0.1293 -0.5807 -0.4918
  900MOL0     H21483   2.033   1.015   1.821 -2.0139 -0.7588 -0.1008
  900MOL0     H21484   2.646   0.545   1.963 -2.4996 -0.3667  0.6382
  900MOL0     H21485   2.849   0.402   2.009 -1.7959 -0.6298 -0.3963
  900MOL0     H21486   3.152   0.253   2.218  2.4718 -0.2531 -1.1184
  900MOL0     H21487   3.365   0.140   2.208 -1.5464  2.6840 -1.1977
  900MOL0     H21488   3.538  -0.044   2.305  0.3604  1.2362 -0.6568
  900MOL0     H21489   3.551   0.014   2.145  0.7995 -0.6177 -0.2884
  900MOL0     H21490   3.594  -0.279   2.220 -2.1771 -0.1832 -2.6104
  900MOL0     H21491   3.725  -0.153   2.200 -0.9849  2.4510  0.2561
  900MOL0     H21492   3.702  -0.319   2.008 -1.7619 -1.3843 -1.0239
  900MOL0     H21493   3.633  -0.150   1.955 -0.6975  0.4886 -0.0424
  900MOL0     H21494   3.445  -0.375   2.064 -2.2167  0.1590 -1.4476
  900MOL0     H21495   3.414  -0.259   1.937 -2.5234 -0.4821  3.2712
  900MOL0     H21496   3.581  -0.558   1.721  2.0714  2.6982 -0.8601
  900MOL0     H21497   3.166  -0.218   2.089  0.1865  0.5042 -1.7171
  900MOL0     H21498   2.883  -0.108   1.971 -2.4983  4.7930  2.2510
  900MOL0     H21499   2.950  -0.253   2.056  1.9236  0.7868  0.9828
  900MOL0     H21500   2.829  -0.149   2.133  0.2642  0.6180  0.0058
  901MOL0     O21501   8.614   7.897   0.887 -0.2026 -0.0430  0.0884
  901MOL0     C21502   8.693   7.940   0.803  0.3888  0.0225  0.1465
  901MOL0     O21503   8.664   7.958   0.669 -0.4620 -0.0453 -0.2320
  901MOL0     C21504   8.531   7.939   0.650  0.4068  0.0040 -0.4303
  901MOL0     C21505   8.474   7.811   0.664  0.3858  1.3838 -0.2235
  901MOL0     C21506   8.338   7.790   0.634 -0.0029 -0.4456 -0.8797
  901MOL0     C21507   8.253   7.907   0.605 -0.3311  0.2956 -0.3571
  901MOL0     O21508   8.124   7.896   0.573 -0.6523  0.3854  1.3044
  901MOL0     C21509   8.055   7.777   0.613  0.4738 -0.3186 -0.2107
  901MOL0     C21510   7.904   7.798   0.641 -0.0779  0.5308  0.0098
  901MOL0     C21511   7.884   7.867   0.784  1.2539  0.0316  0.0028
  901MOL0     C21512   7.748   7.818   0.839 -0.8790 -0.6680 -0.9166
  901MOL0     C21513   7.757   7.765   0.982  0.3398  0.7451  0.5356
  901MOL0     C21514   7.622   7.728   1.046 -0.4889 -0.7244 -0.2860
  901MOL0     C21515   7.518   7.835   1.081 -0.1566  0.4204 -0.2310
  901MOL0     C21516   7.383   7.756   1.117  0.0671 -0.0179  0.6836
  901MOL0     N21517   7.321   7.681   1.000  0.0481 -0.5542 -0.2112
  901MOL0     C21518   7.231   7.725   0.914  0.3786  0.3867  0.9323
  901MOL0     C21519   7.214   7.618   0.836  0.0490  0.5861 -0.8002
  901MOL0     C21520   7.109   7.602   0.724  0.1115  0.2914 -0.6586
  901MOL0     C21521   6.985   7.516   0.780  0.3721 -0.9874  0.0227
  901MOL0     C21522   7.005   7.365   0.820 -0.2441  0.2926  0.7399
  901MOL0     C21523   7.068   7.275   0.710  0.7220 -0.0545  0.5771
  901MOL0     O21524   7.083   7.144   0.772 -0.0480  0.0462  0.2119
  901MOL0     C21525   7.197   7.083   0.742 -0.7208 -0.0967  0.6007
  901MOL0     C21526   7.283   7.035   0.845 -0.0842  0.2387  0.0239
  901MOL0     C21527   7.410   6.986   0.826 -0.7830  0.7135 -0.0617
  901MOL0     C21528   7.460   6.980   0.702  0.3697 -0.6102 -0.2454
  901MOL0     C21529   7.594   6.942   0.691 -0.2575  0.3646  0.0687
  901MOL0     O21530   7.670   6.978   0.794 -0.1466 -0.1406 -0.0652
  901MOL0     C21531   7.808   6.973   0.772 -0.2128  0.0580  0.0326
  901MOL0     C21532   7.888   6.913   0.878  0.9361 -0.3207  0.4564
  901MOL0     C21533   8.026   6.906   0.863 -0.0901 -0.5891 -0.2120
  901MOL0     C21534   8.085   6.933   0.739 -0.8500 -0.2882 -0.1028
  901MOL0     O21535   8.225   6.917   0.733 -0.3741  0.1089  0.3998
  901MOL0     C21536   8.288   7.019   0.652 -0.6792  0.0674  0.1944
  901MOL0     C21537   8.447   7.001   0.656  0.7771 -0.0348  0.3863
  901MOL0     C21538   8.523   7.067   0.770 -0.2804 -0.6731  0.3417
  901MOL0     C21539   8.543   6.957   0.879  0.1598 -0.9741 -1.2232
  901MOL0     C21540   8.664   7.003   0.970  1.1032  0.0139  0.7601
  901MOL0     C21541   8.799   7.029   0.910  0.5352  0.5690  0.3163
  901MOL0     C21542   8.907   7.027   1.009 -0.4011  0.8095 -0.3026
  901MOL0     C21543   9.042   6.960   0.968 -0.2763  0.2412  0.8947
  901MOL0    Cl21544   9.109   7.055   0.826 -0.3801 -0.1018 -0.2751
  901MOL0     C21545   8.010   6.993   0.647  0.0110 -0.1491  0.0294
  901MOL0     C21546   7.872   7.016   0.653 -0.3604 -0.8628 -0.1343
  901MOL0     O21547   7.634   6.894   0.584  0.1551  1.5254  0.1139
  901MOL0     C21548   7.380   7.007   0.592 -0.2655 -0.0765  0.6357
  901MOL0     C21549   7.250   7.064   0.612 -0.1883  0.6062 -0.3974
  901MOL0     N21550   7.291   7.508   0.876 -0.6275 -0.1874 -0.1261
  901MOL0     N21551   7.351   7.549   0.983 -0.3063  0.2710 -0.1231
  901MOL0     C21552   8.312   8.032   0.599  0.4623 -1.1054 -0.9848
  901MOL0     C21553   8.450   8.046   0.618  0.0689 -0.1142 -0.2481
  901MOL0     C21554   8.827   7.983   0.856  0.3224  0.7841  0.5208
  901MOL0     C21555   8.937   7.971   0.771 -0.4362  0.0047 -0.7560
  901MOL0     C21556   9.061   8.024   0.815  0.2272 -0.5908  0.6633
  901MOL0     C21557   9.084   8.076   0.940  0.6061  0.9701  0.7305
  901MOL0     O21558   9.196   8.122   0.991 -0.1742  1.3416  0.1000
  901MOL0     C21559   9.324   8.082   0.948 -0.6975 -0.3197 -0.0834
  901MOL0     C21560   9.425   8.081   1.065  0.0621 -0.2790 -1.0008
  901MOL0     C21561   9.441   8.217   1.135 -0.9625  0.9105 -0.0850
  901MOL0     C21562   9.559   8.230   1.226 -0.0207  0.8797  0.6730
  901MOL0     C21563   9.624   8.364   1.230  0.5205  0.1353 -0.6437
  901MOL0     C21564   9.664   8.478   1.224  0.4964 -1.2515 -0.4133
  901MOL0     C21565   8.979   8.075   1.027  0.8288 -0.2762 -0.0644
  901MOL0     C21566   8.850   8.038   0.984 -0.2544  0.4815  0.2203
  901MOL0     C21567   8.738   8.050   1.084 -0.0038  0.6485 -0.3134
  901MOL0     H21568   8.540   7.730   0.692 -2.2031 -1.5423 -1.9251
  901MOL0     H21569   8.299   7.688   0.634  0.6924 -0.8926  3.4801
  901MOL0     H21570   8.064   7.707   0.529  0.7256  1.2285 -1.5114
  901MOL0     H21571   8.089   7.730   0.706 -1.5621 -3.3047 -0.8192
  901MOL0     H21572   7.855   7.701   0.632  0.9652  0.1124 -1.6302
  901MOL0     H21573   7.862   7.863   0.563  1.4444  0.0833 -1.2254
  901MOL0     H21574   7.910   7.973   0.779 -2.4918  1.0652 -0.7853
  901MOL0     H21575   7.956   7.829   0.857  1.0357  1.5432  1.0550
  901MOL0     H21576   7.681   7.905   0.838  0.5608  0.5012 -0.1693
  901MOL0     H21577   7.707   7.741   0.773  1.6887 -1.4061 -1.7314
  901MOL0     H21578   7.815   7.672   0.979 -0.7223  0.0681 -1.8917
  901MOL0     H21579   7.793   7.844   1.049 -0.4257  2.1676 -0.6659
  901MOL0     H21580   7.575   7.667   0.968  2.0884 -1.9144 -1.0089
  901MOL0     H21581   7.634   7.661   1.131  0.0465  0.7461  0.8433
  901MOL0     H21582   7.504   7.910   1.004  0.6746  1.7240  0.8483
  901MOL0     H21583   7.561   7.884   1.169  4.1096  0.8616 -2.3349
  901MOL0     H21584   7.387   7.685   1.200 -0.4618  1.1685  1.7585
  901MOL0     H21585   7.308   7.826   1.157  0.6863 -0.0539  1.9516
  901MOL0     H21586   7.176   7.818   0.920  0.3539  0.2863  3.6859
  901MOL0     H21587   7.067   7.700   0.701 -1.3444 -0.3571 -0.8994
  901MOL0     H21588   7.164   7.559   0.639  0.6692  1.7745 -1.0831
  901MOL0     H21589   6.934   7.572   0.859  0.7545  0.0611 -0.4604
  901MOL0     H21590   6.900   7.522   0.710 -0.0112  0.0094  0.5532
  901MOL0     H21591   6.907   7.323   0.843 -0.1887 -0.0958  0.2905
  901MOL0     H21592   7.058   7.348   0.914 -1.6886 -1.0028  1.3555
  901MOL0     H21593   7.167   7.320   0.696  1.6988 -2.2081  0.0581
  901MOL0     H21594   7.003   7.278   0.623 -0.4990 -1.6626  1.3702
  901MOL0     H21595   7.240   7.056   0.942 -1.5725  0.8235 -0.7341
  901MOL0     H21596   7.473   6.953   0.909  1.5440 -2.1923 -2.7490
  901MOL0     H21597   7.834   6.889   0.970 -0.9106 -3.4481 -1.2755
  901MOL0     H21598   8.086   6.874   0.947  0.8087  0.4884 -0.4155
  901MOL0     H21599   8.259   7.007   0.547  0.9214 -0.4290 -0.2293
  901MOL0     H21600   8.255   7.119   0.682 -4.2421 -1.5581  2.2812
  901MOL0     H21601   8.459   6.893   0.652  1.4481  0.0854 -2.4753
  901MOL0     H21602   8.492   7.035   0.562 -0.1741 -3.6469 -1.5372
  901MOL0     H21603   8.618   7.106   0.733  1.7556 -2.0946  3.6697
  901MOL0     H21604   8.479   7.158   0.812  0.2641 -0.5923  0.7414
  901MOL0     H21605   8.579   6.860   0.844 -0.3210 -1.5509 -0.1648
  901MOL0     H21606   8.456   6.946   0.943  0.8269 -0.8633 -0.2827
  901MOL0     H21607   8.668   6.934   1.055 -2.0523 -0.5395  0.6055
  901MOL0     H21608   8.628   7.097   1.015 -0.7623  0.3921 -1.3349
  901MOL0     H21609   8.826   6.952   0.837 -0.5964  0.2504  0.2198
  901MOL0     H21610   8.797   7.134   0.880 -0.2999  0.1497 -1.1689
  901MOL0     H21611   8.879   6.969   1.098  0.5315 -1.3813 -1.3741
  901MOL0     H21612   8.932   7.129   1.038  2.4526  0.0107  0.4056
  901MOL0     H21613   9.104   6.954   1.058 -1.5361  1.9406  1.9492
  901MOL0     H21614   9.029   6.856   0.939 -0.3302  0.2053  1.0478
  901MOL0     H21615   8.052   7.009   0.548  1.3071 -1.7479  0.2965
  901MOL0     H21616   7.817   7.046   0.564 -0.3071 -2.2214 -0.6611
  901MOL0     H21617   7.434   6.994   0.499  1.0712  3.4550  0.7818
  901MOL0     H21618   7.183   7.091   0.531 -1.6503 -3.7384 -0.8670
  901MOL0     H21619   8.243   8.114   0.583  1.8177  0.7906  1.9491
  901MOL0     H21620   8.489   8.146   0.601  2.5401 -0.6796  1.4370
  901MOL0     H21621   8.926   7.938   0.668  1.8322 -3.1931 -0.1227
  901MOL0     H21622   9.136   8.038   0.738 -1.0038  3.0756 -0.0930
  901MOL0     H21623   9.352   8.152   0.869  1.1398 -1.7160 -0.7531
  901MOL0     H21624   9.333   7.980   0.908  1.2225 -0.2701  0.1191
  901MOL0     H21625   9.521   8.040   1.030  0.1052 -2.2005  1.0871
  901MOL0     H21626   9.394   8.006   1.139  1.3921 -0.6157 -0.7502
  901MOL0     H21627   9.352   8.253   1.188 -1.9567  0.0443 -1.1126
  901MOL0     H21628   9.440   8.297   1.059 -1.9185  0.4748 -0.5551
  901MOL0     H21629   9.529   8.187   1.322  0.9068 -0.4247  0.4060
  901MOL0     H21630   9.641   8.171   1.184  0.3057  2.8053 -1.6546
  901MOL0     H21631   9.690   8.580   1.205 -1.0263 -0.8961 -0.7289
  901MOL0     H21632   8.999   8.110   1.127  0.0501 -0.5040  0.1735
  901MOL0     H21633   8.669   8.131   1.060  1.7652  2.4965  0.5992
  901MOL0     H21634   8.683   7.958   1.104  0.3601  0.8529  1.7851
  901MOL0     H21635   8.768   8.069   1.187 -3.7876  0.4116  0.9774
  902MOL0     O21636   2.316   5.554  10.894  0.0551  0.2243  0.9442
  902MOL0     C21637   2.259   5.522  10.789 -0.7375  0.1305  0.4401
  902MOL0     O21638   2.320   5.435  10.705  0.4041 -0.2242  0.7398
  902MOL0     C21639   2.453   5.409  10.729 -0.8001  0.1602  0.3580
  902MOL0     C21640   2.551   5.513  10.693  0.8165  0.2315 -0.4024
  902MOL0     C21641   2.685   5.492  10.722 -0.5581 -0.1492  0.5061
  902MOL0     C21642   2.725   5.368  10.787  0.5066  0.5525 -0.2698
  902MOL0     O21643   2.857   5.337  10.816 -0.1930 -0.6248  0.1862
  902MOL0     C21644   2.963   5.432  10.811 -1.1362  0.2384 -0.1334
  902MOL0     C21645   3.096   5.370  10.850  0.0340  0.8770  0.9560
  902MOL0     C21646   3.218   5.452  10.814 -1.3496  0.1958 -0.9558
  902MOL0     C21647   3.352   5.390  10.864  0.5592  0.1700 -0.1939
  902MOL0     C21648   3.479   5.466  10.825  0.2979  0.4130 -0.4676
  902MOL0     C21649   3.559   5.404  10.710  0.3868  0.8843  0.8080
  902MOL0     C21650   3.487   5.420  10.569 -0.9556 -0.2594 -0.0175
  902MOL0     C21651   3.557   5.350  10.449  0.6148 -0.0740 -0.1967
  902MOL0     N21652   3.691   5.392  10.431 -0.0935  0.1699 -0.0104
  902MOL0     C21653   3.809   5.329  10.444 -0.0731  0.1208  0.1758
  902MOL0     C21654   3.903   5.413  10.395  0.8420  0.0465  0.4525
  902MOL0     C21655   4.052   5.388  10.399  0.6439 -0.5304  0.1819
  902MOL0     C21656   4.101   5.323  10.264 -0.4056  0.0647 -0.3173
  902MOL0     C21657   4.083   5.414  10.144  0.0018 -0.0808  0.0802
  902MOL0     C21658   4.213   5.465  10.086  0.5447  0.1979  0.4627
  902MOL0     O21659   4.288   5.366  10.015 -0.3035  0.8209 -1.6306
  902MOL0     C21660   4.411   5.395   9.974  0.0975 -0.9623 -0.2608
  902MOL0     C21661   4.495   5.290   9.935 -0.7918  0.3291  0.3530
  902MOL0     C21662   4.619   5.302   9.873 -0.3931 -1.0003 -0.3532
  902MOL0     C21663   4.659   5.437   9.862 -0.2452 -0.7191 -0.1602
  902MOL0     C21664   4.785   5.469   9.787  0.0377 -0.9979  0.0503
  902MOL0     O21665   4.795   5.600   9.735 -0.8696 -0.1399  0.4763
  902MOL0     C21666   4.919   5.629   9.679  0.2683  0.0038  0.0374
  902MOL0     C21667   5.029   5.635   9.759  0.2219  0.2720  0.0309
  902MOL0     C21668   5.152   5.664   9.711  0.4687 -0.6375  0.5178
  902MOL0     C21669   5.161   5.700   9.575  0.4911 -0.2828 -0.1388
  902MOL0     O21670   5.283   5.733   9.513  0.4277  0.7680  0.1905
  902MOL0     C21671   5.388   5.636   9.534  0.3621  0.0854  0.4570
  902MOL0     C21672   5.465   5.631   9.399  1.0425 -0.0308 -0.8541
  902MOL0     C21673   5.583   5.532   9.400  0.1656  0.4788 -0.7095
  902MOL0     C21674   5.659   5.541   9.272  0.2451 -0.2044 -0.1556
  902MOL0     C21675   5.762   5.656   9.273  0.4176  0.1726  0.2376
  902MOL0     C21676   5.833   5.645   9.135 -0.0795  0.5804  0.0630
  902MOL0     C21677   5.957   5.738   9.144  0.0285  0.0853  0.7847
  902MOL0     C21678   6.064   5.698   9.039  0.8483  0.1891 -0.2059
  902MOL0    Cl21679   6.230   5.728   9.104  0.3808 -0.2843 -0.2295
  902MOL0     C21680   5.051   5.706   9.492  0.6049 -1.0531 -0.0361
  902MOL0     C21681   4.926   5.672   9.546 -0.0257  0.7059  0.1861
  902MOL0     O21682   4.869   5.381   9.766 -0.4154  0.1711  0.6025
  902MOL0     C21683   4.582   5.552   9.896 -1.0879  0.9706  0.6232
  902MOL0     C21684   4.464   5.521   9.960  0.2255 -0.5824 -0.0021
  902MOL0     N21685   3.850   5.527  10.348 -0.1111  0.1191  0.4412
  902MOL0     N21686   3.719   5.518  10.369  0.3718 -0.1415 -0.1413
  902MOL0     C21687   2.624   5.264  10.812 -1.4489 -0.0945 -0.6649
  902MOL0     C21688   2.493   5.286  10.782 -0.5827  0.1101  0.3568
  902MOL0     C21689   2.129   5.567  10.755  0.1835 -0.9065  0.1114
  902MOL0     C21690   2.103   5.597  10.619  1.3632 -0.4311 -0.2880
  902MOL0     C21691   1.976   5.632  10.581  0.2476  0.7861  0.2045
  902MOL0     C21692   1.872   5.661  10.672 -0.5033 -0.6927  0.5081
  902MOL0     O21693   1.752   5.720  10.635 -0.5942 -0.0486  0.4777
  902MOL0     C21694   1.704   5.697  10.502  0.3505  0.0475 -0.3164
  902MOL0     C21695   1.559   5.739  10.484  0.6683 -0.8321  0.4483
  902MOL0     C21696   1.503   5.867  10.551  0.0719  0.4357  0.1753
  902MOL0     C21697   1.527   5.992  10.465 -0.2153  1.0090 -0.0552
  902MOL0     C21698   1.502   5.977  10.319  0.0100 -0.6000 -0.3992
  902MOL0     C21699   1.502   5.966  10.198  0.1141  1.0908  0.0843
  902MOL0     C21700   1.906   5.643  10.809  0.3303  0.6131  1.0483
  902MOL0     C21701   2.033   5.600  10.849 -0.0137 -0.0755 -0.5838
  902MOL0     C21702   2.051   5.593  11.000  0.3869  0.0540  0.4644
  902MOL0     H21703   2.525   5.611  10.655  0.5451  0.5694  0.6074
  902MOL0     H21704   2.745   5.580  10.699 -2.3406  0.1753 -3.9147
  902MOL0     H21705   2.970   5.460  10.705 -1.7955 -0.6795 -0.4393
  902MOL0     H21706   2.949   5.521  10.872  2.7285  1.2970 -0.5546
  902MOL0     H21707   3.108   5.280  10.787 -0.9941  1.2912  0.1271
  902MOL0     H21708   3.097   5.341  10.955 -2.5430  3.8779  1.9373
  902MOL0     H21709   3.223   5.550  10.861 -1.8861 -1.2244  2.3308
  902MOL0     H21710   3.216   5.463  10.705 -5.6592  0.0974 -1.0581
  902MOL0     H21711   3.354   5.391  10.973 -2.7902 -2.2829  0.0633
  902MOL0     H21712   3.362   5.286  10.829  3.3804 -0.2994  1.6667
  902MOL0     H21713   3.457   5.572  10.809  0.8740  0.7095  0.6501
  902MOL0     H21714   3.542   5.458  10.914  0.7324 -0.7682 -0.8577
  902MOL0     H21715   3.660   5.445  10.701  0.4982  0.3621 -0.5823
  902MOL0     H21716   3.571   5.296  10.728 -1.1358  0.3564 -1.0609
  902MOL0     H21717   3.480   5.527  10.547 -0.2734 -0.3982 -0.9527
  902MOL0     H21718   3.385   5.382  10.577  0.2782 -4.1782 -1.0380
  902MOL0     H21719   3.561   5.241  10.458 -3.1749 -0.5854 -2.4305
  902MOL0     H21720   3.500   5.376  10.360 -0.5963 -1.5141  0.1194
  902MOL0     H21721   3.814   5.231  10.490  0.1668  0.7408  1.5324
  902MOL0     H21722   4.093   5.489  10.409 -0.3334 -0.3018  3.2538
  902MOL0     H21723   4.072   5.327  10.488 -2.7575  0.1047  1.5463
  902MOL0     H21724   4.204   5.287  10.268 -1.0166 -1.7598 -0.4345
  902MOL0     H21725   4.049   5.228  10.255 -0.0652 -0.6831  3.7603
  902MOL0     H21726   4.038   5.512  10.163  0.9746  0.1439  1.3735
  902MOL0     H21727   4.041   5.356  10.062  2.5213 -0.5732 -0.9691
  902MOL0     H21728   4.273   5.501  10.171  1.9452  0.0702 -0.4311
  902MOL0     H21729   4.191   5.548  10.019 -0.3866  1.5621  2.3813
  902MOL0     H21730   4.466   5.186   9.931  2.3706 -0.6727 -4.1240
  902MOL0     H21731   4.678   5.219   9.836 -1.2482 -1.5599 -0.5100
  902MOL0     H21732   5.009   5.602   9.860 -0.2129  2.7440  0.8329
  902MOL0     H21733   5.239   5.659   9.776 -0.8101  0.9303  2.4610
  902MOL0     H21734   5.455   5.664   9.616  0.8183 -0.5269  0.3009
  902MOL0     H21735   5.339   5.541   9.559 -1.5690  1.1373  0.8134
  902MOL0     H21736   5.398   5.605   9.316  1.3151  0.8573 -1.3604
  902MOL0     H21737   5.504   5.731   9.379 -1.0038  1.4874  2.1208
  902MOL0     H21738   5.645   5.561   9.486 -0.7441  0.0795  0.1026
  902MOL0     H21739   5.546   5.430   9.410  1.2344 -0.0497 -1.9117
  902MOL0     H21740   5.585   5.552   9.192  2.6049  1.9361 -2.2265
  902MOL0     H21741   5.708   5.446   9.250 -0.5301 -0.4781 -0.7776
  902MOL0     H21742   5.836   5.655   9.353  0.8989 -1.8624 -0.1581
  902MOL0     H21743   5.703   5.746   9.290 -0.6966  0.0271 -2.3849
  902MOL0     H21744   5.866   5.543   9.117  0.6900  1.1534 -1.9802
  902MOL0     H21745   5.769   5.669   9.050 -1.4482 -1.7256  0.3492
  902MOL0     H21746   6.007   5.727   9.240  1.4974  3.5062  0.5644
  902MOL0     H21747   5.915   5.838   9.129 -4.4309 -1.3032  2.3802
  902MOL0     H21748   6.049   5.594   9.008 -0.5358  0.2345  0.2655
  902MOL0     H21749   6.051   5.760   8.949  2.2384  0.3081 -0.3530
  902MOL0     H21750   5.052   5.744   9.390  0.4311 -0.6083  0.1270
  902MOL0     H21751   4.845   5.681   9.474  1.8843 -1.4324 -2.4419
  902MOL0     H21752   4.619   5.652   9.878  5.9582 -1.6394 -3.1600
  902MOL0     H21753   4.394   5.600   9.982 -2.0200 -2.4073 -0.1534
  902MOL0     H21754   2.660   5.170  10.852  2.0055  1.7209  0.9506
  902MOL0     H21755   2.418   5.212  10.807  1.4650 -1.8676  1.0355
  902MOL0     H21756   2.174   5.580  10.539  1.6353 -3.1296  0.4082
  902MOL0     H21757   1.953   5.652  10.477 -1.0999 -0.7552  0.1672
  902MOL0     H21758   1.710   5.591  10.474 -4.1880 -0.6389  0.4607
  902MOL0     H21759   1.758   5.763  10.434  0.4298 -0.2668 -0.5601
  902MOL0     H21760   1.501   5.665  10.540 -1.1864  0.9753  1.0767
  902MOL0     H21761   1.531   5.736  10.378  0.8834 -1.1836  0.4012
  902MOL0     H21762   1.546   5.874  10.652  2.1968 -0.1911 -0.6146
  902MOL0     H21763   1.395   5.855  10.562 -0.1198 -2.2303 -3.1307
  902MOL0     H21764   1.445   6.059  10.493  0.5700  1.4033  1.4594
  902MOL0     H21765   1.625   6.038  10.477  0.1894  0.3497 -0.7361
  902MOL0     H21766   1.486   5.942  10.095  0.3955  0.2269  0.2335
  902MOL0     H21767   1.836   5.682  10.882  1.0256  2.3431  0.8363
  902MOL0     H21768   1.977   5.646  11.060 -0.7674 -1.1184  0.1376
  902MOL0     H21769   2.048   5.485  11.021  0.2350  0.1095  0.7361
  902MOL0     H21770   2.149   5.635  11.027  0.3569  0.0909  0.5164
  903MOL0     O21771   9.774   2.789   7.415 -0.1194  1.0728  0.2188
  903MOL0     C21772   9.845   2.814   7.319  0.0861 -0.5304 -0.0403
  903MOL0     O21773   9.800   2.869   7.202  0.0601 -0.5583  0.0692
  903MOL0     C21774   9.670   2.889   7.182 -0.1004  0.3526 -0.5507
  903MOL0     C21775   9.593   2.775   7.149  0.5952 -0.1254 -0.1495
  903MOL0     C21776   9.454   2.791   7.118  0.1880  0.3573  0.6099
  903MOL0     C21777   9.389   2.915   7.130 -0.6328 -0.7509  0.1810
  903MOL0     O21778   9.256   2.921   7.097  0.4458  0.7330 -0.0005
  903MOL0     C21779   9.211   2.890   6.962 -0.4633 -0.1560  0.9785
  903MOL0     C21780   9.162   2.744   6.941  0.1989 -0.5108 -0.3975
  903MOL0     C21781   9.057   2.694   7.046 -0.3345  0.6781  0.3486
  903MOL0     C21782   9.094   2.705   7.196  0.6917  0.0194 -0.3952
  903MOL0     C21783   8.998   2.611   7.276  0.0300  0.6631 -0.6927
  903MOL0     C21784   9.030   2.620   7.430 -0.3752 -0.0672  0.4347
  903MOL0     C21785   9.170   2.568   7.470  0.2423 -0.3930  0.0148
  903MOL0     C21786   9.193   2.423   7.423  0.1537 -0.3094  0.3007
  903MOL0     N21787   9.113   2.331   7.499  0.0973  0.2132 -0.2791
  903MOL0     C21788   9.141   2.297   7.624 -0.3338  0.6803 -0.6901
  903MOL0     C21789   9.031   2.218   7.658 -1.2573 -0.4487  0.0809
  903MOL0     C21790   9.034   2.148   7.781  0.8230  0.3556 -0.4784
  903MOL0     C21791   8.897   2.142   7.856  0.3212  0.0661 -0.1728
  903MOL0     C21792   8.824   2.019   7.802  0.6519 -0.3044  0.0398
  903MOL0     C21793   8.727   1.967   7.903  0.1311 -0.2267  0.4242
  903MOL0     O21794   8.635   1.866   7.848 -0.8680 -0.1403 -0.5406
  903MOL0     C21795   8.528   1.829   7.926 -0.0262 -0.0866 -0.1225
  903MOL0     C21796   8.416   1.782   7.860  0.1357  0.2392 -0.3814
  903MOL0     C21797   8.302   1.721   7.928  0.9414  0.1892 -0.4198
  903MOL0     C21798   8.297   1.730   8.070 -0.1318  0.6570  1.0638
  903MOL0     C21799   8.174   1.683   8.139  0.8668  0.2315 -0.1778
  903MOL0     O21800   8.106   1.577   8.080 -0.0266  0.2601 -0.8042
  903MOL0     C21801   8.022   1.503   8.162  0.1491 -1.1310 -0.0253
  903MOL0     C21802   7.923   1.443   8.096 -0.0377  0.0183 -0.0493
  903MOL0     C21803   7.854   1.332   8.146  1.0506  0.3831 -0.8428
  903MOL0     C21804   7.872   1.294   8.276  0.2443  0.3977  0.7065
  903MOL0     O21805   7.793   1.200   8.327 -0.0438  0.0432  0.1572
  903MOL0     C21806   7.733   1.232   8.456 -0.4020 -0.0154  0.2291
  903MOL0     C21807   7.626   1.123   8.486 -0.1584  0.3657 -0.1656
  903MOL0     C21808   7.547   1.151   8.616 -0.2520 -0.0762  0.8687
  903MOL0     C21809   7.433   1.249   8.588  0.1657  0.6210  0.1141
  903MOL0     C21810   7.368   1.296   8.712 -0.9278 -0.7514  0.1537
  903MOL0     C21811   7.271   1.420   8.702 -0.2071  0.3393  0.3364
  903MOL0     C21812   7.161   1.388   8.593  0.2213 -0.1004 -1.0710
  903MOL0     C21813   7.077   1.517   8.569  0.3309  0.0127  0.0925
  903MOL0    Cl21814   6.978   1.551   8.708 -0.3185  0.0144  0.6774
  903MOL0     C21815   7.966   1.365   8.352 -0.1901  0.0007 -0.2666
  903MOL0     C21816   8.049   1.463   8.291 -0.0941  0.3336  0.1400
  903MOL0     O21817   8.155   1.726   8.254  0.2602  0.2851  0.0740
  903MOL0     C21818   8.416   1.775   8.137  0.2737 -0.5728  0.4085
  903MOL0     C21819   8.529   1.821   8.068 -0.8191 -0.3435  0.4246
  903MOL0     N21820   8.951   2.199   7.544  0.3230  0.0853 -0.0215
  903MOL0     N21821   9.008   2.260   7.448 -0.3334  0.1058 -0.5506
  903MOL0     C21822   9.474   3.023   7.168  1.1000  0.1236  0.1876
  903MOL0     C21823   9.612   3.010   7.181 -0.2403  0.0186  0.2495
  903MOL0     C21824   9.999   2.789   7.322  1.2996 -0.7320  0.1140
  903MOL0     C21825  10.081   2.876   7.255  0.3022 -0.0592  1.0322
  903MOL0     C21826  10.217   2.881   7.275 -0.4963  1.1163  1.3550
  903MOL0     C21827  10.275   2.780   7.352 -1.1509 -0.0369 -0.6288
  903MOL0     O21828  10.412   2.780   7.378  0.0503  0.6454  0.3872
  903MOL0     C21829  10.509   2.863   7.306 -0.1878 -0.6793 -0.2902
  903MOL0     C21830  10.518   3.005   7.374 -0.0634 -0.0660 -0.6005
  903MOL0     C21831  10.596   3.000   7.511  1.0587  0.6897  0.2170
  903MOL0     C21832  10.740   2.952   7.490 -0.2999  0.4424 -0.0593
  903MOL0     C21833  10.815   3.049   7.411 -0.5809  0.1320 -0.4710
  903MOL0     C21834  10.874   3.118   7.334  0.1597 -1.1277 -0.2639
  903MOL0     C21835  10.192   2.683   7.413 -0.2901 -0.0305  0.0123
  903MOL0     C21836  10.052   2.679   7.400  0.1670 -0.3110 -0.4099
  903MOL0     C21837   9.968   2.572   7.471 -0.7877  0.2223 -0.2670
  903MOL0     H21838   9.634   2.675   7.154 -1.2030 -0.8600  0.8421
  903MOL0     H21839   9.398   2.701   7.092  0.7026 -0.2057  1.3857
  903MOL0     H21840   9.128   2.957   6.938 -1.2102 -0.3334  2.8596
  903MOL0     H21841   9.288   2.905   6.886 -1.4072  0.5499  0.1424
  903MOL0     H21842   9.253   2.683   6.942  0.5478 -0.0279 -1.2856
  903MOL0     H21843   9.117   2.740   6.842  1.0907  0.8681 -0.8975
  903MOL0     H21844   9.018   2.593   7.030  3.6819 -0.9955 -0.1471
  903MOL0     H21845   8.981   2.769   7.026 -1.4262 -0.7800 -1.2865
  903MOL0     H21846   9.190   2.669   7.234 -0.0897 -3.0216 -1.0466
  903MOL0     H21847   9.075   2.806   7.233  0.9837  0.4389 -1.3501
  903MOL0     H21848   8.893   2.632   7.254  0.1934  2.5713  0.0796
  903MOL0     H21849   9.017   2.508   7.246 -1.0651 -0.4717  2.1645
  903MOL0     H21850   9.036   2.725   7.462  0.9389  0.4262 -1.2374
  903MOL0     H21851   8.954   2.573   7.492 -0.9393  0.5746  0.2504
  903MOL0     H21852   9.186   2.585   7.577 -1.3819 -0.6741  0.3362
  903MOL0     H21853   9.247   2.628   7.420 -3.0601  3.5900 -0.8198
  903MOL0     H21854   9.191   2.402   7.316  1.4721 -1.4113  0.4670
  903MOL0     H21855   9.298   2.400   7.445 -0.2106 -2.5978 -0.1777
  903MOL0     H21856   9.228   2.327   7.680 -0.4784  0.0517 -0.1150
  903MOL0     H21857   9.088   2.053   7.776  0.2042 -0.0761  0.6403
  903MOL0     H21858   9.098   2.212   7.843  0.6182 -1.3092  1.5893
  903MOL0     H21859   8.914   2.140   7.964  2.1262  0.1987 -0.4204
  903MOL0     H21860   8.826   2.225   7.847  2.7506  2.2581 -0.1316
  903MOL0     H21861   8.902   1.953   7.764  2.2583  1.8470 -0.6567
  903MOL0     H21862   8.776   2.049   7.707  2.2659  2.2214 -0.0784
  903MOL0     H21863   8.672   2.053   7.942  2.8962  0.9995  1.8816
  903MOL0     H21864   8.783   1.927   7.988  0.4290  1.0658  0.8537
  903MOL0     H21865   8.416   1.778   7.752 -1.0745 -3.0172 -0.3630
  903MOL0     H21866   8.215   1.678   7.879 -1.1550  4.6416 -1.0254
  903MOL0     H21867   7.907   1.474   7.993  0.3363 -2.2723 -0.8507
  903MOL0     H21868   7.774   1.286   8.089 -0.4749  2.4200 -0.4470
  903MOL0     H21869   7.817   1.220   8.524  0.5069 -1.1064 -1.0360
  903MOL0     H21870   7.696   1.335   8.455 -0.6360 -0.0948  0.5909
  903MOL0     H21871   7.560   1.114   8.399 -0.7539 -4.5627  0.4759
  903MOL0     H21872   7.678   1.027   8.486  0.7942  0.8486  2.0175
  903MOL0     H21873   7.512   1.057   8.660  4.9021 -1.5968  2.5291
  903MOL0     H21874   7.620   1.197   8.683  1.1410 -0.7406 -0.1307
  903MOL0     H21875   7.364   1.190   8.526 -1.3542  2.8665 -0.4860
  903MOL0     H21876   7.470   1.330   8.525 -0.9416 -0.0403 -1.4538
  903MOL0     H21877   7.444   1.318   8.788  1.8832 -3.1517 -1.7358
  903MOL0     H21878   7.319   1.208   8.756 -0.4747 -0.2269  1.7696
  903MOL0     H21879   7.224   1.433   8.800 -1.5720 -2.1762  0.1078
  903MOL0     H21880   7.323   1.513   8.680  2.9171 -1.9264 -3.1204
  903MOL0     H21881   7.104   1.309   8.642  0.0829  0.3932 -0.4395
  903MOL0     H21882   7.207   1.356   8.499 -0.7917  1.1322 -2.0250
  903MOL0     H21883   7.144   1.602   8.552 -2.5803  2.8264  1.5733
  903MOL0     H21884   7.016   1.501   8.480 -1.4417  1.1322  1.0596
  903MOL0     H21885   7.977   1.339   8.457  0.3072  1.9098  0.1959
  903MOL0     H21886   8.140   1.494   8.342  1.2625  1.9846 -3.0377
  903MOL0     H21887   8.411   1.781   8.245  1.0713 -0.5714  0.4541
  903MOL0     H21888   8.611   1.865   8.124  1.0719 -1.7711 -1.0661
  903MOL0     H21889   9.422   3.116   7.187 -0.3387 -0.1959 -1.7510
  903MOL0     H21890   9.670   3.096   7.214  0.1576 -1.0522  2.4673
  903MOL0     H21891  10.036   2.948   7.188  0.1121 -0.8878  0.2392
  903MOL0     H21892  10.267   2.962   7.224 -0.3969  0.7457  0.8569
  903MOL0     H21893  10.477   2.897   7.207  1.4302 -0.7477 -0.8569
  903MOL0     H21894  10.602   2.807   7.292  0.9578  0.7584  1.2054
  903MOL0     H21895  10.418   3.050   7.386  0.1844  0.0867  1.3543
  903MOL0     H21896  10.574   3.075   7.312 -0.2149  0.2750 -0.3602
  903MOL0     H21897  10.553   2.922   7.574  1.3663 -0.5529 -1.0604
  903MOL0     H21898  10.595   3.091   7.571  0.3765  0.2186  0.9465
  903MOL0     H21899  10.775   2.938   7.593  0.3005 -0.6932 -0.3962
  903MOL0     H21900  10.750   2.860   7.430  0.5930  2.6324 -3.5908
  903MOL0     H21901  10.925   3.200   7.288  0.6252  1.7554  4.6911
  903MOL0     H21902  10.240   2.601   7.465 -1.1968 -0.9553 -0.5562
  903MOL0     H21903   9.894   2.620   7.535  0.9045  2.4061  0.1770
  903MOL0     H21904   9.923   2.510   7.393 -1.4907  3.8348 -3.0035
  903MOL0     H21905  10.031   2.505   7.532 -3.3972 -2.7454 -0.5818
  904MOL0     O21906   8.450   0.008   0.472  0.6683 -0.2416  0.3248
  904MOL0     C21907   8.456  -0.040   0.587 -0.1255 -0.2327 -0.7333
  904MOL0     O21908   8.572  -0.071   0.661 -0.0100 -0.3534  0.1641
  904MOL0     C21909   8.696  -0.030   0.607  0.7666 -0.4603  0.1924
  904MOL0     C21910   8.813  -0.101   0.625  0.3728  0.6242  1.1778
  904MOL0     C21911   8.936  -0.057   0.571  0.7469 -0.3649  1.0157
  904MOL0     C21912   8.941   0.077   0.507 -0.8191 -0.6703  0.6032
  904MOL0     O21913   9.055   0.141   0.453  0.5057  0.2556 -0.1793
  904MOL0     C21914   9.173   0.068   0.431  0.3425  0.1738 -0.5701
  904MOL0     C21915   9.290   0.161   0.379  0.1394 -0.9703  0.5228
  904MOL0     C21916   9.327   0.269   0.485  1.0520 -0.6769  0.2673
  904MOL0     C21917   9.461   0.230   0.541  0.0203  0.0647 -0.2583
  904MOL0     C21918   9.502   0.341   0.638 -0.0132 -0.0363 -0.4697
  904MOL0     C21919   9.434   0.316   0.775  0.5301  0.9171 -0.3894
  904MOL0     C21920   9.501   0.403   0.887 -0.0086  0.4811  0.0807
  904MOL0     C21921   9.444   0.366   1.025 -0.2454  0.8213  1.2374
  904MOL0     N21922   9.301   0.415   1.027 -1.0472 -0.3785  0.0403
  904MOL0     C21923   9.265   0.549   1.052 -0.3395  0.0118  1.3450
  904MOL0     C21924   9.127   0.548   1.038  0.2392  0.0990 -0.4876
  904MOL0     C21925   9.059   0.683   1.051  0.0346  0.0692  0.0139
  904MOL0     C21926   8.960   0.661   1.156 -0.2055 -0.2975  0.8791
  904MOL0     C21927   8.812   0.640   1.118  0.5198 -0.2420 -0.5345
  904MOL0     C21928   8.712   0.655   1.228  0.2536 -1.0135 -0.3364
  904MOL0     O21929   8.584   0.642   1.166  0.3242 -0.0020  0.6699
  904MOL0     C21930   8.473   0.682   1.238  0.2262  0.2203 -0.0425
  904MOL0     C21931   8.357   0.699   1.166 -0.1006 -0.0077  0.2734
  904MOL0     C21932   8.238   0.734   1.225 -1.3096 -0.3489  0.5992
  904MOL0     C21933   8.233   0.746   1.367  0.6203  0.1483  0.6084
  904MOL0     C21934   8.105   0.784   1.433  0.5136 -0.6814 -0.3429
  904MOL0     O21935   7.993   0.748   1.375 -0.1830  0.4317 -0.8686
  904MOL0     C21936   7.873   0.808   1.408 -0.1868 -0.6931  1.4410
  904MOL0     C21937   7.803   0.789   1.531 -0.4133  1.2179 -0.8856
  904MOL0     C21938   7.688   0.851   1.557  0.7522  0.0254  0.1458
  904MOL0     C21939   7.629   0.939   1.457 -0.1000  0.3062 -0.8538
  904MOL0     O21940   7.509   0.990   1.496  0.5625 -0.0626  0.4072
  904MOL0     C21941   7.468   1.118   1.449 -0.1795  0.3726 -0.0803
  904MOL0     C21942   7.318   1.137   1.444 -0.3594  0.5636  0.2790
  904MOL0     C21943   7.250   1.021   1.361 -0.7829  0.3296  0.0431
  904MOL0     C21944   7.098   1.055   1.334  0.0485  0.7142 -0.2492
  904MOL0     C21945   7.033   0.967   1.232  0.1067 -0.1215 -0.4609
  904MOL0     C21946   6.892   1.011   1.197 -0.1481 -0.4028 -0.3854
  904MOL0     C21947   6.783   0.983   1.302 -0.7921  0.2100  0.1798
  904MOL0     C21948   6.646   1.036   1.246 -0.2016  0.4050 -1.3188
  904MOL0    Cl21949   6.514   0.978   1.364  0.1352 -0.1596  0.5054
  904MOL0     C21950   7.698   0.963   1.339  0.0108 -0.1972  0.3682
  904MOL0     C21951   7.823   0.904   1.317  0.1228 -0.0048 -0.5546
  904MOL0     O21952   8.112   0.852   1.536 -0.2259  0.5862 -0.0278
  904MOL0     C21953   8.350   0.729   1.444  0.5392  0.0429 -0.2503
  904MOL0     C21954   8.470   0.697   1.379  0.2633 -0.2325  0.3205
  904MOL0     N21955   9.081   0.419   1.030  0.4068 -0.8357  0.8096
  904MOL0     N21956   9.186   0.340   1.037  0.0304  0.4830  0.2261
  904MOL0     C21957   8.820   0.142   0.492 -0.3706 -0.3958 -0.0680
  904MOL0     C21958   8.703   0.089   0.540  0.3991 -1.2625  0.5859
  904MOL0     C21959   8.330  -0.082   0.654 -0.4282 -0.4073  0.3188
  904MOL0     C21960   8.328  -0.200   0.717  0.5250  0.2696 -0.0059
  904MOL0     C21961   8.211  -0.264   0.762  1.0295 -0.1341 -0.1748
  904MOL0     C21962   8.089  -0.188   0.754 -0.7185 -0.3789 -1.0996
  904MOL0     O21963   7.971  -0.237   0.808  0.1531 -0.2936  0.1225
  904MOL0     C21964   7.919  -0.354   0.736 -0.7986 -0.0717 -0.8285
  904MOL0     C21965   7.808  -0.313   0.639 -0.2074  0.2229  0.1812
  904MOL0     C21966   7.677  -0.398   0.645  0.1695 -0.5758 -0.0375
  904MOL0     C21967   7.582  -0.357   0.755 -0.3043 -0.0515  0.6335
  904MOL0     C21968   7.645  -0.368   0.892  1.0898  0.6407  0.1315
  904MOL0     C21969   7.690  -0.355   1.001 -0.4819  0.6026 -0.2795
  904MOL0     C21970   8.096  -0.055   0.699  0.1522 -0.6806  0.9281
  904MOL0     C21971   8.215   0.000   0.645 -0.2002  0.5520 -0.0226
  904MOL0     C21972   8.197   0.133   0.573  0.8185 -0.4600  0.5355
  904MOL0     H21973   8.788  -0.195   0.675 -1.5570 -0.8832 -2.2752
  904MOL0     H21974   9.027  -0.116   0.568  0.2737 -1.2675  2.9212
  904MOL0     H21975   9.192   0.005   0.518  1.2088 -0.9972 -1.5739
  904MOL0     H21976   9.153   0.004   0.345  3.0622  1.7948 -2.5524
  904MOL0     H21977   9.258   0.206   0.285  2.3345  1.0645  0.6685
  904MOL0     H21978   9.376   0.098   0.356  2.6997  2.7878 -1.2269
  904MOL0     H21979   9.252   0.287   0.563  1.8531 -1.1653  1.1715
  904MOL0     H21980   9.344   0.365   0.434  0.0511  0.3281  1.7327
  904MOL0     H21981   9.456   0.135   0.595  1.5997 -0.9830 -1.8431
  904MOL0     H21982   9.537   0.217   0.463 -0.8943  0.8538 -1.3098
  904MOL0     H21983   9.608   0.352   0.659 -0.2267  1.6077 -0.0855
  904MOL0     H21984   9.466   0.436   0.598  1.7511  0.2481 -1.4469
  904MOL0     H21985   9.326   0.324   0.784  0.5221  1.3286 -0.8272
  904MOL0     H21986   9.451   0.213   0.810 -0.6805  1.2297  1.2000
  904MOL0     H21987   9.503   0.510   0.864  1.1048  0.0461 -2.0929
  904MOL0     H21988   9.609   0.383   0.881 -0.2595 -0.9418 -0.1153
  904MOL0     H21989   9.450   0.257   1.030  4.1994  0.5451 -2.8094
  904MOL0     H21990   9.518   0.393   1.101  2.1216 -2.0631  0.1407
  904MOL0     H21991   9.321   0.640   1.064 -1.9748  0.9988  1.8193
  904MOL0     H21992   9.137   0.744   1.099  0.8654 -2.1958  1.7045
  904MOL0     H21993   9.013   0.732   0.964  0.9089 -0.9024 -1.0361
  904MOL0     H21994   8.987   0.585   1.231  3.3939  0.0270  0.1093
  904MOL0     H21995   8.949   0.756   1.210 -1.5514  0.0962 -0.0564
  904MOL0     H21996   8.787   0.553   1.056  0.4566 -0.4492 -0.2254
  904MOL0     H21997   8.791   0.724   1.052  1.4015  2.2055  2.1109
  904MOL0     H21998   8.712   0.752   1.278  1.8048 -0.5275 -1.1994
  904MOL0     H21999   8.717   0.577   1.304  0.6582 -1.8475 -1.1865
  904MOL0     H22000   8.353   0.674   1.061 -2.5241  0.5825  0.1756
  904MOL0     H22001   8.152   0.759   1.164 -0.9407 -0.1099  0.1733
  904MOL0     H22002   7.847   0.744   1.619 -0.0839  0.4481 -1.4306
  904MOL0     H22003   7.635   0.833   1.651 -0.7412 -0.5574 -0.7706
  904MOL0     H22004   7.511   1.192   1.517 -0.3739  0.9661 -0.5900
  904MOL0     H22005   7.512   1.133   1.350 -2.9695 -0.4188 -1.5268
  904MOL0     H22006   7.284   1.120   1.546  0.4170  0.1803  0.4781
  904MOL0     H22007   7.297   1.237   1.404  0.2813  0.0152 -1.5468
  904MOL0     H22008   7.309   0.992   1.273  0.0126  1.6582  0.1043
  904MOL0     H22009   7.252   0.929   1.419 -1.8565  1.5492  2.1398
  904MOL0     H22010   7.091   1.155   1.289 -3.4890  1.2874  1.1989
  904MOL0     H22011   7.048   1.059   1.431 -0.2202 -2.5447 -0.1336
  904MOL0     H22012   7.025   0.870   1.280 -0.9096  0.1291 -0.0980
  904MOL0     H22013   7.091   0.962   1.139  0.8256 -2.7202  0.0472
  904MOL0     H22014   6.884   1.115   1.164 -0.8246 -1.0716 -2.4401
  904MOL0     H22015   6.865   0.956   1.107 -2.3827 -3.6106  1.9982
  904MOL0     H22016   6.790   1.027   1.402 -4.2042 -0.2486  0.7769
  904MOL0     H22017   6.790   0.874   1.312  2.8996  0.3713  0.7071
  904MOL0     H22018   6.648   1.145   1.238 -1.8885  0.9135  2.7001
  904MOL0     H22019   6.625   1.001   1.144 -5.9796  1.9060 -0.9801
  904MOL0     H22020   7.660   1.023   1.257  0.9932  1.0344  0.7820
  904MOL0     H22021   7.875   0.918   1.223  3.6279 -2.0670  0.8915
  904MOL0     H22022   8.345   0.744   1.551 -1.0064  0.7772 -0.4008
  904MOL0     H22023   8.563   0.685   1.432 -0.7463  0.1291  2.2466
  904MOL0     H22024   8.806   0.236   0.440 -1.1219 -0.8866 -0.7797
  904MOL0     H22025   8.618   0.156   0.532  2.7692  3.0896  5.6821
  904MOL0     H22026   8.416  -0.263   0.732  1.2997  1.7904  2.3124
  904MOL0     H22027   8.220  -0.362   0.808  2.0744  0.1661  0.3011
  904MOL0     H22028   7.886  -0.429   0.809  0.2517 -2.2600 -2.5022
  904MOL0     H22029   8.001  -0.412   0.693 -1.3205 -0.5811 -1.1408
  904MOL0     H22030   7.839  -0.316   0.534  0.4873  1.4726  0.3286
  904MOL0     H22031   7.781  -0.208   0.651 -0.5019  0.0686  0.9287
  904MOL0     H22032   7.684  -0.506   0.656  0.2474 -0.3949  2.0634
  904MOL0     H22033   7.620  -0.383   0.552  0.8394 -0.3353 -0.4125
  904MOL0     H22034   7.547  -0.254   0.739 -2.3723 -0.6646  0.9493
  904MOL0     H22035   7.504  -0.434   0.755  2.0726 -2.6034  0.0767
  904MOL0     H22036   7.743  -0.352   1.094  1.7694 -3.2223 -1.1961
  904MOL0     H22037   8.011   0.012   0.703 -1.1328 -1.8793 -2.3476
  904MOL0     H22038   8.110   0.188   0.610  0.3088 -1.6678  1.1935
  904MOL0     H22039   8.293   0.185   0.581  0.0340  1.2122 -0.4168
  904MOL0     H22040   8.181   0.108   0.467 -1.2482 -1.8893  1.1238
  905MOL0     O22041   7.013  10.520   6.996 -0.0320 -0.0497 -0.0776
  905MOL0     C22042   6.929  10.437   6.975 -0.7492 -0.7377  0.1790
  905MOL0     O22043   6.924  10.360   6.860  0.1312 -0.5611  0.0187
  905MOL0     C22044   7.019  10.378   6.762 -1.1146  0.2319  1.0280
  905MOL0     C22045   6.982  10.420   6.634  0.1067 -0.8104 -0.3517
  905MOL0     C22046   7.081  10.440   6.533 -0.7297 -0.7790  0.9476
  905MOL0     C22047   7.217  10.421   6.559  0.0565  0.0284 -0.0164
  905MOL0     O22048   7.319  10.418   6.460  0.4915  0.5574 -0.3793
  905MOL0     C22049   7.295  10.409   6.324 -0.0430 -0.1455  0.2149
  905MOL0     C22050   7.427  10.429   6.249  0.8543 -0.6306 -0.3215
  905MOL0     C22051   7.529  10.316   6.268  0.7499 -0.2215  0.9857
  905MOL0     C22052   7.501  10.191   6.179 -0.9648 -0.4578  0.1956
  905MOL0     C22053   7.612  10.084   6.194  0.7988 -0.2662  1.0518
  905MOL0     C22054   7.746  10.127   6.123  1.1857 -0.4700 -0.5152
  905MOL0     C22055   7.861  10.035   6.166  0.8866 -0.0863  0.8276
  905MOL0     C22056   7.985  10.121   6.124 -0.1331  0.3936  0.0973
  905MOL0     N22057   8.059  10.053   6.017 -0.7145 -0.9017  0.3490
  905MOL0     C22058   8.176   9.979   6.036  0.1881 -0.1286  0.0754
  905MOL0     C22059   8.223   9.950   5.908 -0.2251 -0.7868 -0.4093
  905MOL0     C22060   8.355   9.881   5.893  0.4687 -0.1127 -0.0557
  905MOL0     C22061   8.426   9.910   5.770  0.0332 -0.4908 -1.3688
  905MOL0     C22062   8.549   9.826   5.743 -0.9852  0.4134 -0.5846
  905MOL0     C22063   8.619   9.851   5.605 -0.2515  0.0221 -0.4466
  905MOL0     O22064   8.638   9.993   5.588 -0.1586 -0.4058 -0.2746
  905MOL0     C22065   8.769  10.027   5.559  0.5783 -0.2695  1.2360
  905MOL0     C22066   8.835   9.990   5.441  0.6660 -0.5460  0.5413
  905MOL0     C22067   8.968  10.019   5.417  0.0266  0.9224  0.4508
  905MOL0     C22068   9.038  10.101   5.514  0.3969  0.2070  0.4381
  905MOL0     C22069   9.174  10.151   5.494 -0.4077 -0.0255  0.4180
  905MOL0     O22070   9.197  10.264   5.575  0.4486  0.6150  0.6258
  905MOL0     C22071   9.324  10.308   5.583  0.2435  0.0714 -1.0407
  905MOL0     C22072   9.394  10.364   5.476 -0.3440 -0.6690 -1.0436
  905MOL0     C22073   9.531  10.405   5.504  0.8572 -0.1597  0.5738
  905MOL0     C22074   9.586  10.388   5.634 -0.2412  0.5754  0.1734
  905MOL0     O22075   9.720  10.430   5.642 -0.1403  0.6445  0.5084
  905MOL0     C22076   9.791  10.423   5.764  0.5159  0.7367  0.7880
  905MOL0     C22077   9.943  10.429   5.754 -1.1054 -0.0587  1.0499
  905MOL0     C22078   9.994  10.561   5.682  0.7063 -0.4443 -0.0437
  905MOL0     C22079  10.146  10.562   5.661 -0.6309 -0.0253 -0.5859
  905MOL0     C22080  10.195  10.467   5.552 -0.9993  0.6093  0.2464
  905MOL0     C22081  10.323  10.537   5.490 -0.5294 -0.2430  0.2243
  905MOL0     C22082  10.396  10.443   5.395 -0.5888  0.4426  0.8371
  905MOL0     C22083  10.525  10.513   5.349  0.3404 -0.1925  0.5103
  905MOL0    Cl22084  10.668  10.503   5.459 -0.0187  0.3540 -0.0521
  905MOL0     C22085   9.507  10.342   5.742  0.0144  0.5209  0.0724
  905MOL0     C22086   9.377  10.304   5.711  0.7852  0.4764 -0.4754
  905MOL0     O22087   9.256  10.092   5.418 -0.5616  0.7794 -0.3866
  905MOL0     C22088   8.968  10.130   5.635 -0.2139 -0.1232 -0.8615
  905MOL0     C22089   8.840  10.091   5.652  0.9476  0.0518 -0.2635
  905MOL0     N22090   8.131  10.005   5.818 -0.4568  0.3688 -0.0333
  905MOL0     N22091   8.025  10.041   5.885 -0.0111 -0.5066  0.1975
  905MOL0     C22092   7.251  10.385   6.692  0.0732 -0.6698  0.2593
  905MOL0     C22093   7.154  10.366   6.792 -0.7658 -0.3284 -0.2011
  905MOL0     C22094   6.818  10.440   7.060 -0.9524  0.9032 -1.1212
  905MOL0     C22095   6.693  10.434   7.000 -0.2137  0.5177  0.2453
  905MOL0     C22096   6.578  10.440   7.080 -0.5010  0.3797  0.4436
  905MOL0     C22097   6.588  10.442   7.221  0.2351 -0.5684 -0.4397
  905MOL0     O22098   6.477  10.443   7.307 -0.9435 -0.3041 -0.2491
  905MOL0     C22099   6.356  10.383   7.262 -0.3872 -0.6940 -0.3806
  905MOL0     C22100   6.274  10.364   7.386  0.4137 -0.7413 -0.0106
  905MOL0     C22101   6.311  10.248   7.468  0.1523 -0.1687 -0.1533
  905MOL0     C22102   6.242  10.248   7.604  0.6581 -0.4193 -1.1602
  905MOL0     C22103   6.098  10.253   7.610 -0.8449 -0.3875  0.5122
  905MOL0     C22104   5.977  10.246   7.599  0.7540  0.5523 -0.4961
  905MOL0     C22105   6.712  10.438   7.278 -0.1901  0.2148  0.0001
  905MOL0     C22106   6.828  10.442   7.198  0.0648  0.2842  0.3241
  905MOL0     C22107   6.965  10.418   7.272  0.0214 -0.7854  0.5796
  905MOL0     H22108   6.876  10.421   6.612 -0.1608 -0.1182  0.9061
  905MOL0     H22109   7.053  10.467   6.431  3.1656 -0.5420 -0.2470
  905MOL0     H22110   7.245  10.313   6.304 -0.4528  0.0807  0.1440
  905MOL0     H22111   7.234  10.493   6.291 -0.2477 -0.6997 -0.8675
  905MOL0     H22112   7.469  10.523   6.287 -0.4782  0.1316 -0.6643
  905MOL0     H22113   7.402  10.440   6.143 -1.5050 -0.2370  0.2239
  905MOL0     H22114   7.511  10.272   6.367 -1.7504 -2.6842 -0.4060
  905MOL0     H22115   7.628  10.356   6.246  0.5240 -0.7236 -1.1232
  905MOL0     H22116   7.405  10.145   6.204 -1.2802  0.1544  0.1208
  905MOL0     H22117   7.488  10.215   6.073 -0.4530  1.4744  0.5253
  905MOL0     H22118   7.617  10.067   6.302 -0.0840 -0.7421  1.0265
  905MOL0     H22119   7.586   9.994   6.138 -1.0685  1.9501 -1.9922
  905MOL0     H22120   7.727  10.119   6.015 -0.7363 -0.6246 -0.1982
  905MOL0     H22121   7.763  10.232   6.149 -0.3461  0.1260 -1.7292
  905MOL0     H22122   7.864   9.940   6.111  0.2757  0.6619 -0.5605
  905MOL0     H22123   7.859  10.022   6.275 -0.6338  0.9043  0.9588
  905MOL0     H22124   7.968  10.222   6.087  0.2274  0.0034 -1.1820
  905MOL0     H22125   8.045  10.141   6.213  0.1556 -1.3217  0.3237
  905MOL0     H22126   8.221   9.946   6.129 -1.8888 -0.6708  0.9342
  905MOL0     H22127   8.427   9.900   5.973  0.4128  1.1506 -0.2877
  905MOL0     H22128   8.347   9.772   5.885  2.0020 -0.3492  1.0886
  905MOL0     H22129   8.357   9.904   5.686  0.1584 -0.6845 -1.4566
  905MOL0     H22130   8.469  10.010   5.787  1.2907 -1.5408  2.6844
  905MOL0     H22131   8.516   9.723   5.754 -2.5884  0.8838 -0.7112
  905MOL0     H22132   8.613   9.838   5.831 -1.2921 -2.2906  0.0950
  905MOL0     H22133   8.549   9.826   5.525 -0.1605  0.1492 -0.5655
  905MOL0     H22134   8.708   9.788   5.605 -1.1380 -1.3828  1.8492
  905MOL0     H22135   8.764   9.943   5.375 -0.3085 -0.9363  1.8218
  905MOL0     H22136   9.004   9.973   5.325  0.1311 -0.2021  1.0375
  905MOL0     H22137   9.352  10.362   5.376  1.2211 -1.3940 -1.7272
  905MOL0     H22138   9.596  10.438   5.424  0.2601 -1.7501 -0.6270
  905MOL0     H22139   9.753  10.503   5.829 -3.3735  0.8087 -1.3096
  905MOL0     H22140   9.759  10.330   5.811 -0.5074  1.4499  1.5610
  905MOL0     H22141   9.975  10.435   5.859 -2.1428  0.3952  1.3472
  905MOL0     H22142   9.986  10.343   5.701 -0.3074  1.5460 -1.0149
  905MOL0     H22143   9.943  10.580   5.587  0.0772  2.4069  0.7861
  905MOL0     H22144   9.970  10.648   5.744  1.3665 -2.3699  3.1171
  905MOL0     H22145  10.205  10.547   5.752  1.0872  3.9745 -0.8557
  905MOL0     H22146  10.159  10.665   5.629 -1.8948  1.4814  3.1907
  905MOL0     H22147  10.124  10.455   5.470 -1.6354  0.7699  0.7670
  905MOL0     H22148  10.228  10.367   5.583  0.8913  0.9968 -0.3498
  905MOL0     H22149  10.302  10.628   5.434  0.6309  1.9294  3.0448
  905MOL0     H22150  10.401  10.564   5.562 -0.2417  3.5577 -1.2635
  905MOL0     H22151  10.329  10.413   5.313 -1.6197 -0.6483  2.0367
  905MOL0     H22152  10.438  10.354   5.443  2.4115  0.1066 -2.0208
  905MOL0     H22153  10.552  10.473   5.251  2.1595  3.5635 -0.7148
  905MOL0     H22154  10.500  10.617   5.325  1.6310  0.3401  1.4003
  905MOL0     H22155   9.551  10.318   5.838 -0.4331  0.5231  0.2779
  905MOL0     H22156   9.311  10.266   5.788  1.0252  0.8707 -0.0697
  905MOL0     H22157   9.030  10.175   5.711 -0.2493  0.9211 -1.4358
  905MOL0     H22158   8.789  10.110   5.746  1.2142  0.7203 -0.2482
  905MOL0     H22159   7.355  10.383   6.721  0.9593 -0.1302 -2.6428
  905MOL0     H22160   7.185  10.334   6.891 -0.3958 -0.2271 -0.2815
  905MOL0     H22161   6.680  10.431   6.892 -0.0267 -2.2779  0.2425
  905MOL0     H22162   6.482  10.428   7.032  2.0478 -3.3594 -4.6143
  905MOL0     H22163   6.379  10.289   7.211  0.0739  0.8441 -3.2271
  905MOL0     H22164   6.314  10.454   7.190  1.0024  1.5191  0.8805
  905MOL0     H22165   6.175  10.330   7.354 -0.0677 -2.1434  2.6730
  905MOL0     H22166   6.265  10.458   7.442  0.4122 -0.5390 -0.3526
  905MOL0     H22167   6.420  10.255   7.478  0.4019 -1.0008 -1.8339
  905MOL0     H22168   6.292  10.157   7.411 -0.9078  0.7504 -1.3442
  905MOL0     H22169   6.275  10.160   7.661  1.2684 -0.6289 -1.8173
  905MOL0     H22170   6.285  10.336   7.652 -0.1455  1.3492 -3.5151
  905MOL0     H22171   5.871  10.231   7.601  0.3521  2.9264  1.7985
  905MOL0     H22172   6.715  10.431   7.386 -0.4973  1.7183  0.1241
  905MOL0     H22173   7.021  10.511   7.267 -1.3945  0.1042  0.7927
  905MOL0     H22174   6.951  10.397   7.378 -0.0598 -2.0854  0.3303
  905MOL0     H22175   7.017  10.338   7.218  0.3978  2.1201 -3.9273
  906MOL0     O22176   9.813   4.878   8.703 -0.9350 -0.4605  0.0563
  906MOL0     C22177   9.916   4.875   8.771 -1.5008  0.4812  0.0504
  906MOL0     O22178   9.927   4.875   8.911  0.7703  0.6336 -0.0019
  906MOL0     C22179   9.815   4.882   8.986  0.5389  1.2255  0.8523
  906MOL0     C22180   9.825   4.967   9.095  0.5531  0.5310 -0.2443
  906MOL0     C22181   9.713   4.982   9.181  0.2578 -0.7126  0.7059
  906MOL0     C22182   9.586   4.921   9.152  0.3220 -0.1554 -0.0135
  906MOL0     O22183   9.475   4.952   9.228 -0.4230 -0.3564  0.6808
  906MOL0     C22184   9.350   4.874   9.228 -0.0219 -0.3083 -0.1448
  906MOL0     C22185   9.349   4.733   9.296 -0.4863  0.7482  0.2081
  906MOL0     C22186   9.363   4.716   9.446 -1.2631  0.5404  0.4095
  906MOL0     C22187   9.487   4.782   9.516 -0.6695 -0.3788  0.5151
  906MOL0     C22188   9.477   4.780   9.680 -0.9074 -0.1374  1.3193
  906MOL0     C22189   9.438   4.647   9.752  0.3726  0.8230 -0.9789
  906MOL0     C22190   9.450   4.669   9.905 -0.2307  0.5727  0.3003
  906MOL0     C22191   9.411   4.543   9.991  0.3504  0.2673 -0.6126
  906MOL0     N22192   9.380   4.594  10.125 -0.1418 -0.2564 -0.3514
  906MOL0     C22193   9.469   4.660  10.208  0.4380 -0.2130  0.0089
  906MOL0     C22194   9.417   4.657  10.328  0.4348 -0.2357  0.3289
  906MOL0     C22195   9.468   4.713  10.457 -0.2265  0.1724  0.3037
  906MOL0     C22196   9.538   4.600  10.531 -1.2505 -0.1128 -0.6326
  906MOL0     C22197   9.469   4.564  10.668  0.7652  0.2401 -0.1860
  906MOL0     C22198   9.519   4.435  10.730 -0.0390  0.2192  0.0021
  906MOL0     O22199   9.642   4.460  10.807 -0.0454 -0.6581 -0.6064
  906MOL0     C22200   9.707   4.353  10.854 -0.8707 -0.1940  0.8524
  906MOL0     C22201   9.834   4.371  10.910 -0.2678 -0.4477  0.3735
  906MOL0     C22202   9.914   4.269  10.955  0.4660  0.9490  0.4288
  906MOL0     C22203   9.864   4.138  10.960  0.2477 -0.7689 -0.0878
  906MOL0     C22204   9.953   4.020  10.993  0.8931 -0.6946 -0.4878
  906MOL0     O22205   9.890   3.907  10.999 -0.0096  0.0985 -0.1235
  906MOL0     C22206   9.955   3.786  11.002 -0.5257 -1.2839  0.6607
  906MOL0     C22207  10.068   3.756  10.925 -0.4983 -0.0370  0.3303
  906MOL0     C22208  10.130   3.637  10.934  0.5588  0.1356  0.3132
  906MOL0     C22209  10.085   3.537  11.022  0.1622  0.0127  0.1135
  906MOL0     O22210  10.152   3.419  11.007 -0.6121  0.2090  0.1848
  906MOL0     C22211  10.106   3.294  11.064 -0.2622  1.1524 -0.1424
  906MOL0     C22212  10.223   3.195  11.035  0.2898 -0.3003 -0.0685
  906MOL0     C22213  10.356   3.218  11.110 -0.0132  0.0695  0.3781
  906MOL0     C22214  10.476   3.122  11.083 -1.0517 -0.1190  0.1659
  906MOL0     C22215  10.580   3.178  10.989 -0.0244 -0.9301 -0.5929
  906MOL0     C22216  10.679   3.078  10.941 -0.7821 -0.5816 -0.2036
  906MOL0     C22217  10.768   3.026  11.059 -0.0191 -0.7186 -0.4190
  906MOL0     C22218  10.897   2.958  11.030 -0.2678 -0.1293 -0.1340
  906MOL0    Cl22219  10.994   3.058  10.924 -0.2595 -0.1304 -0.0029
  906MOL0     C22220   9.977   3.557  11.103 -0.7305 -0.7514 -0.0520
  906MOL0     C22221   9.920   3.688  11.098 -0.2556  0.2184  0.3570
  906MOL0     O22222  10.074   4.038  10.993 -0.0889 -0.4920  0.2321
  906MOL0     C22223   9.740   4.118  10.910  0.2352 -0.6112 -0.0711
  906MOL0     C22224   9.663   4.222  10.853 -0.2712 -0.2834 -0.4539
  906MOL0     N22225   9.309   4.569  10.322 -0.4456 -0.0520 -0.1655
  906MOL0     N22226   9.280   4.542  10.199  0.2079  0.5107  0.1981
  906MOL0     C22227   9.579   4.829   9.048  0.5383  0.4959  0.4419
  906MOL0     C22228   9.695   4.814   8.970 -0.7479  0.6795 -0.0505
  906MOL0     C22229  10.049   4.875   8.696  0.5289 -0.0740 -0.0190
  906MOL0     C22230  10.177   4.836   8.751  0.6634  0.0828 -0.9209
  906MOL0     C22231  10.301   4.814   8.680  0.4464 -0.5628  0.1741
  906MOL0     C22232  10.303   4.840   8.540 -0.0484 -0.3458  0.2974
  906MOL0     O22233  10.413   4.830   8.462 -0.4325 -0.0001  0.7196
  906MOL0     C22234  10.542   4.793   8.520 -0.2877 -0.1973 -0.1840
  906MOL0     C22235  10.655   4.740   8.421  0.2599 -0.8960  1.0805
  906MOL0     C22236  10.594   4.638   8.311 -0.0274 -0.3838  1.1417
  906MOL0     C22237  10.711   4.593   8.215  0.3423 -0.3274  0.0718
  906MOL0     C22238  10.657   4.505   8.109  0.1136  0.8007 -0.1776
  906MOL0     C22239  10.624   4.427   8.018  0.2827 -0.3142  0.2302
  906MOL0     C22240  10.191   4.893   8.480 -0.5247  0.5878  0.2127
  906MOL0     C22241  10.066   4.908   8.559 -0.6239 -0.1594 -0.4789
  906MOL0     C22242   9.944   4.952   8.482 -1.9731 -0.4317 -0.7439
  906MOL0     H22243   9.915   5.026   9.103  1.3244 -0.5623 -0.6223
  906MOL0     H22244   9.722   5.050   9.265  2.1924  0.4475 -0.3551
  906MOL0     H22245   9.280   4.948   9.269  2.0042  1.2771  0.6602
  906MOL0     H22246   9.317   4.852   9.126 -1.6686 -2.3945  0.7781
  906MOL0     H22247   9.422   4.673   9.240  0.3503  3.0251 -1.2976
  906MOL0     H22248   9.253   4.686   9.274  0.6959 -0.9067 -1.9280
  906MOL0     H22249   9.357   4.610   9.471 -0.9974  0.2892 -0.5265
  906MOL0     H22250   9.271   4.755   9.491  0.0661  1.5584  2.4158
  906MOL0     H22251   9.573   4.722   9.484  0.0776 -0.3438  2.3400
  906MOL0     H22252   9.496   4.884   9.479  1.1545 -0.4040  0.8240
  906MOL0     H22253   9.577   4.808   9.714 -0.3266  2.5282 -1.9909
  906MOL0     H22254   9.405   4.857   9.706 -2.0210 -0.4856 -0.5451
  906MOL0     H22255   9.338   4.620   9.718  0.2206  0.6047 -0.3576
  906MOL0     H22256   9.502   4.560   9.734 -0.9902 -0.4471  0.1166
  906MOL0     H22257   9.382   4.750   9.931  0.6635  0.3269  3.8939
  906MOL0     H22258   9.547   4.699   9.945 -0.3884 -0.4225  1.4913
  906MOL0     H22259   9.329   4.484   9.948 -0.2735 -0.2981  1.2566
  906MOL0     H22260   9.496   4.474   9.998 -0.9067 -1.5723 -2.2810
  906MOL0     H22261   9.560   4.711  10.179  1.8498 -2.5457  0.0527
  906MOL0     H22262   9.521   4.805  10.432 -3.6347  1.5418 -2.7971
  906MOL0     H22263   9.378   4.743  10.512 -1.8649 -1.4596 -1.3528
  906MOL0     H22264   9.548   4.511  10.469  2.8844 -3.1769  3.7163
  906MOL0     H22265   9.642   4.629  10.551 -0.7804 -0.4391 -2.4969
  906MOL0     H22266   9.360   4.561  10.656  0.7702  1.8323 -0.8430
  906MOL0     H22267   9.485   4.647  10.737 -1.0115  0.6761 -0.2610
  906MOL0     H22268   9.532   4.369  10.643 -1.5686  0.3113 -0.3235
  906MOL0     H22269   9.448   4.390  10.800  2.2560 -0.8187  1.8378
  906MOL0     H22270   9.873   4.472  10.911  0.2352 -0.6255  2.1363
  906MOL0     H22271  10.018   4.293  10.975  1.5209  0.2920 -3.5347
  906MOL0     H22272  10.117   3.832  10.864 -0.1632 -0.5611 -0.0548
  906MOL0     H22273  10.209   3.613  10.864  0.6050  0.7843  0.1305
  906MOL0     H22274  10.093   3.308  11.172  0.7988  0.3416  0.1123
  906MOL0     H22275  10.010   3.263  11.024  0.1812  2.6327 -2.5155
  906MOL0     H22276  10.195   3.091  11.057 -2.3515  0.2006 -0.6459
  906MOL0     H22277  10.257   3.200  10.931  1.8096  0.7995  0.4469
  906MOL0     H22278  10.392   3.320  11.096  0.4619 -0.1391  0.0812
  906MOL0     H22279  10.336   3.214  11.218 -1.8012  1.1284  0.1334
  906MOL0     H22280  10.447   3.021  11.054  1.4721  0.3078 -4.8731
  906MOL0     H22281  10.524   3.103  11.179 -3.0706 -2.6552  0.7658
  906MOL0     H22282  10.616   3.269  11.039 -2.6235 -0.7117  1.0906
  906MOL0     H22283  10.531   3.210  10.897 -0.1702  0.0775 -0.1783
  906MOL0     H22284  10.620   2.996  10.899 -0.6692 -1.2156  0.8401
  906MOL0     H22285  10.748   3.121  10.868 -0.1255 -1.3556 -0.0505
  906MOL0     H22286  10.707   2.977  11.135 -0.0223 -1.3414 -0.8212
  906MOL0     H22287  10.804   3.114  11.114 -2.6866 -1.2276  2.4088
  906MOL0     H22288  10.948   2.938  11.125  0.1547 -0.8503 -0.5046
  906MOL0     H22289  10.876   2.871  10.968  0.6008  0.0875 -0.7547
  906MOL0     H22290   9.941   3.480  11.169  2.0975 -3.3217 -1.2718
  906MOL0     H22291   9.835   3.709  11.163 -0.5315  0.7162 -0.1614
  906MOL0     H22292   9.702   4.018  10.897  1.5284 -1.2024  0.5398
  906MOL0     H22293   9.573   4.196  10.798 -0.5239 -1.9928  0.6874
  906MOL0     H22294   9.496   4.765   9.018  1.4821  0.4720 -2.4349
  906MOL0     H22295   9.691   4.750   8.883  0.5773  1.0743 -0.4171
  906MOL0     H22296  10.185   4.805   8.855 -2.2573  1.9076 -0.0396
  906MOL0     H22297  10.389   4.773   8.728  2.1529 -1.1945 -3.2233
  906MOL0     H22298  10.517   4.709   8.585 -1.1852 -1.1287 -1.6777
  906MOL0     H22299  10.586   4.875   8.578 -1.0802 -0.8626  1.4027
  906MOL0     H22300  10.724   4.677   8.479  0.1842  1.7052  4.3118
  906MOL0     H22301  10.694   4.824   8.364  0.6326 -1.0763  1.0682
  906MOL0     H22302  10.508   4.671   8.252 -0.2589 -1.1317  1.0492
  906MOL0     H22303  10.568   4.553   8.374  0.9533 -3.2621 -2.0357
  906MOL0     H22304  10.762   4.679   8.170  0.9985  0.4122  2.1374
  906MOL0     H22305  10.780   4.534   8.275  3.1279  3.8831  1.4508
  906MOL0     H22306  10.582   4.356   7.949 -0.0712 -1.1448  1.2658
  906MOL0     H22307  10.205   4.916   8.375  2.4075 -1.2081  0.1114
  906MOL0     H22308   9.875   4.870   8.461  1.0311 -3.0234 -1.0797
  906MOL0     H22309   9.897   5.027   8.547 -1.7279 -0.3393 -0.6747
  906MOL0     H22310   9.964   5.007   8.389  1.4913  1.3090  0.8632
  907MOL0     O22311   3.158   9.102   7.353  0.0379 -0.4555  0.1396
  907MOL0     C22312   3.040   9.146   7.366  0.5275 -1.2822  0.7660
  907MOL0     O22313   2.992   9.206   7.475  0.4527  0.3369  0.0462
  907MOL0     C22314   3.068   9.217   7.583  0.4008  0.0649  0.0390
  907MOL0     C22315   3.176   9.302   7.588 -0.6108  0.3501  0.5474
  907MOL0     C22316   3.263   9.312   7.702 -0.1342 -0.3540 -0.3016
  907MOL0     C22317   3.243   9.223   7.809  0.3666 -0.0142  0.8828
  907MOL0     O22318   3.329   9.212   7.918 -0.3609  0.2677  0.1450
  907MOL0     C22319   3.449   9.302   7.922 -0.3567 -0.4493  0.3293
  907MOL0     C22320   3.525   9.275   8.051  0.4764 -0.0334  0.3687
  907MOL0     C22321   3.650   9.355   8.034  0.3676 -0.4559  0.5568
  907MOL0     C22322   3.728   9.338   8.163 -0.3063  0.2938  0.3933
  907MOL0     C22323   3.860   9.414   8.177  0.5344  0.2891  0.3304
  907MOL0     C22324   3.919   9.373   8.312  0.1501 -0.0658 -0.6049
  907MOL0     C22325   4.062   9.413   8.344 -0.4078  0.0339  1.2827
  907MOL0     C22326   4.085   9.569   8.352 -0.2434 -0.5986 -0.7554
  907MOL0     N22327   4.219   9.598   8.416  0.5825  0.6523  0.7507
  907MOL0     C22328   4.252   9.621   8.547 -0.0348  0.0892  0.3529
  907MOL0     C22329   4.384   9.653   8.545 -0.1179 -0.4065 -0.9830
  907MOL0     C22330   4.464   9.701   8.663  0.4173 -0.8365  0.2567
  907MOL0     C22331   4.394   9.684   8.800 -0.2821 -0.4775 -0.5701
  907MOL0     C22332   4.396   9.541   8.871 -0.3522 -0.2209  1.2669
  907MOL0     C22333   4.303   9.536   8.984  0.7051  0.9421 -0.1328
  907MOL0     O22334   4.169   9.569   8.942 -0.1205 -0.4160 -0.6374
  907MOL0     C22335   4.107   9.488   8.856  0.6224 -0.4802  0.1465
  907MOL0     C22336   4.147   9.357   8.811 -0.0229 -0.2309 -0.9605
  907MOL0     C22337   4.066   9.283   8.727  0.3122  0.5214 -0.6049
  907MOL0     C22338   3.950   9.335   8.675  0.0871 -0.4961  0.3711
  907MOL0     C22339   3.859   9.245   8.600 -0.1685 -0.0315  0.7343
  907MOL0     O22340   3.735   9.278   8.581 -0.2532 -0.0376 -0.2105
  907MOL0     C22341   3.643   9.217   8.500 -0.7923 -0.0346  0.1713
  907MOL0     C22342   3.509   9.265   8.516 -0.1848 -0.1505 -0.0150
  907MOL0     C22343   3.402   9.209   8.439  0.2688  0.0746 -0.7330
  907MOL0     C22344   3.421   9.110   8.344 -0.5113 -0.4281  0.6558
  907MOL0     O22345   3.324   9.070   8.261  1.0021 -0.2032  0.1216
  907MOL0     C22346   3.267   8.941   8.285  0.5451 -0.1239 -0.4235
  907MOL0     C22347   3.134   8.939   8.201 -0.5207 -0.2208  0.6777
  907MOL0     C22348   3.058   8.799   8.202  0.2622 -0.4530  0.2179
  907MOL0     C22349   2.999   8.757   8.330  0.1229  1.7610 -0.4095
  907MOL0     C22350   2.907   8.639   8.299  0.4254 -0.6556 -0.6918
  907MOL0     C22351   2.783   8.634   8.398  0.3814 -0.0048  0.2211
  907MOL0     C22352   2.683   8.757   8.375 -1.0516  0.1152 -0.2264
  907MOL0     C22353   2.542   8.722   8.435  1.2549  0.5283 -0.5744
  907MOL0    Cl22354   2.477   8.570   8.383 -0.0977  0.1421  0.4199
  907MOL0     C22355   3.559   9.075   8.321 -0.2735 -0.9028 -1.0666
  907MOL0     C22356   3.660   9.112   8.410  0.0139 -0.7630 -0.4702
  907MOL0     O22357   3.919   9.154   8.543  0.2168 -0.2294 -0.1474
  907MOL0     C22358   3.910   9.473   8.712  0.1779  0.9290  0.4201
  907MOL0     C22359   3.994   9.542   8.801 -0.1200  0.9688 -0.1255
  907MOL0     N22360   4.433   9.606   8.427  0.5101  0.0436  0.6509
  907MOL0     N22361   4.332   9.583   8.345 -0.4267 -0.1330  0.2195
  907MOL0     C22362   3.134   9.137   7.799 -0.6307 -0.0073 -0.7299
  907MOL0     C22363   3.054   9.131   7.690  0.0745 -0.2255  0.6328
  907MOL0     C22364   2.938   9.116   7.255 -0.3992  0.2751  0.6274
  907MOL0     C22365   2.808   9.087   7.298 -0.5846 -0.2046 -0.0814
  907MOL0     C22366   2.708   9.070   7.200 -1.3415 -0.1290 -0.3276
  907MOL0     C22367   2.734   9.042   7.063 -0.4331 -0.0887 -0.3760
  907MOL0     O22368   2.625   9.012   6.987  0.5394  1.6871  0.2099
  907MOL0     C22369   2.645   8.951   6.862 -0.4759 -0.2255  0.0755
  907MOL0     C22370   2.508   8.917   6.791  0.2281  0.6281 -0.1971
  907MOL0     C22371   2.435   8.786   6.820  0.2174  0.6917  0.0371
  907MOL0     C22372   2.309   8.745   6.734 -0.0649 -0.6522  0.3264
  907MOL0     C22373   2.240   8.869   6.695 -1.0403  0.3697 -0.0913
  907MOL0     C22374   2.173   8.959   6.667  1.0849  0.2013  0.2177
  907MOL0     C22375   2.866   9.056   7.022  0.0670  0.2877  0.4309
  907MOL0     C22376   2.969   9.093   7.115 -0.0930  0.7731 -0.0862
  907MOL0     C22377   3.104   9.117   7.062 -0.5982 -0.7710  0.4380
  907MOL0     H22378   3.191   9.366   7.502 -1.7443 -0.0643  0.0184
  907MOL0     H22379   3.343   9.385   7.688  1.1371 -1.4408  1.0113
  907MOL0     H22380   3.515   9.273   7.839 -1.1194 -0.5964 -0.2306
  907MOL0     H22381   3.416   9.406   7.921  1.8368  0.4194  3.5591
  907MOL0     H22382   3.562   9.172   8.058  0.6720  0.0502  0.6195
  907MOL0     H22383   3.464   9.301   8.138 -0.3697 -0.9324  0.0604
  907MOL0     H22384   3.633   9.463   8.021  0.5854 -0.6561 -1.8106
  907MOL0     H22385   3.712   9.313   7.954  0.5137 -2.8299  1.8235
  907MOL0     H22386   3.655   9.352   8.244 -1.6340  0.3084 -0.7537
  907MOL0     H22387   3.766   9.236   8.155 -0.9007  0.1583 -1.2320
  907MOL0     H22388   3.914   9.377   8.089 -0.1458  0.2489 -0.0790
  907MOL0     H22389   3.826   9.518   8.172 -1.6865 -0.3150  1.3776
  907MOL0     H22390   3.856   9.422   8.387 -1.1343 -1.7549 -0.5311
  907MOL0     H22391   3.910   9.265   8.320 -0.0849 -0.1463 -1.8740
  907MOL0     H22392   4.130   9.379   8.266 -0.9280  0.2244  0.7380
  907MOL0     H22393   4.093   9.359   8.434 -1.0265 -3.2997 -0.3682
  907MOL0     H22394   4.087   9.627   8.260 -2.1854  0.8913  0.0737
  907MOL0     H22395   4.011   9.617   8.417 -1.0418  0.0936 -2.1549
  907MOL0     H22396   4.189   9.624   8.636 -0.6466 -1.5252  0.0090
  907MOL0     H22397   4.562   9.653   8.671 -0.3047 -2.3813  0.1162
  907MOL0     H22398   4.495   9.802   8.634  5.3797 -2.7226 -2.0006
  907MOL0     H22399   4.442   9.754   8.868 -0.8123 -0.3704 -0.3015
  907MOL0     H22400   4.292   9.719   8.780 -0.3943  1.6954  3.0142
  907MOL0     H22401   4.499   9.519   8.901  0.8569  4.1512  1.0604
  907MOL0     H22402   4.365   9.466   8.798  1.8221 -0.9661  1.0355
  907MOL0     H22403   4.331   9.614   9.055 -1.5804  1.9065 -0.2026
  907MOL0     H22404   4.297   9.441   9.038 -2.7432  0.3981 -1.2090
  907MOL0     H22405   4.232   9.294   8.835  0.0196 -1.0384 -2.9832
  907MOL0     H22406   4.086   9.177   8.723 -1.6331 -0.0044  1.4808
  907MOL0     H22407   3.488   9.350   8.580  0.3769 -0.2433  0.3023
  907MOL0     H22408   3.302   9.245   8.463 -0.8757 -1.0438 -3.3904
  907MOL0     H22409   3.343   8.868   8.257  1.2844 -0.2838  1.7747
  907MOL0     H22410   3.244   8.922   8.390  2.1982  1.0749  0.1996
  907MOL0     H22411   3.065   9.021   8.225  2.1350  1.7415  2.1926
  907MOL0     H22412   3.168   8.954   8.099 -1.1721 -0.6656  0.3921
  907MOL0     H22413   2.989   8.804   8.117  0.2682 -0.4196  0.2145
  907MOL0     H22414   3.135   8.723   8.182 -0.4908 -0.6754 -2.2269
  907MOL0     H22415   2.946   8.844   8.369  0.6485  1.4918  0.9629
  907MOL0     H22416   3.073   8.734   8.407 -0.7375  2.4738  0.6548
  907MOL0     H22417   2.965   8.547   8.302  1.3959 -0.0600 -0.9376
  907MOL0     H22418   2.866   8.641   8.198 -1.4066  0.8703  0.0090
  907MOL0     H22419   2.745   8.533   8.382  4.0910 -1.9149  2.1029
  907MOL0     H22420   2.818   8.640   8.502  0.8357  1.4589 -0.0006
  907MOL0     H22421   2.667   8.764   8.267  1.0034  1.6914 -0.4896
  907MOL0     H22422   2.728   8.851   8.407 -1.1883 -0.4580  1.7645
  907MOL0     H22423   2.557   8.711   8.543 -1.7229  0.3489 -0.0947
  907MOL0     H22424   2.467   8.799   8.416 -1.9089 -2.5921 -1.8813
  907MOL0     H22425   3.589   8.996   8.253 -3.7156 -2.7108 -0.7482
  907MOL0     H22426   3.752   9.058   8.390 -2.1055 -4.4616 -1.1886
  907MOL0     H22427   3.817   9.510   8.671  0.2817 -1.2015 -2.0410
  907MOL0     H22428   3.959   9.638   8.837 -1.5387 -0.0207  1.2925
  907MOL0     H22429   3.122   9.068   7.881  0.3149  1.7990  1.0298
  907MOL0     H22430   2.970   9.062   7.685  1.3687 -1.7818 -3.0147
  907MOL0     H22431   2.775   9.089   7.401  4.8740 -0.5738  1.9904
  907MOL0     H22432   2.606   9.071   7.236 -1.6867 -1.8175 -1.1704
  907MOL0     H22433   2.714   8.866   6.866 -1.0812 -0.7031  0.5016
  907MOL0     H22434   2.700   9.025   6.803 -0.3693  0.3994  0.9517
  907MOL0     H22435   2.518   8.935   6.683  2.3421  0.5312 -0.0547
  907MOL0     H22436   2.443   8.998   6.825  0.0142 -1.1121  4.1161
  907MOL0     H22437   2.406   8.801   6.924  2.0775 -1.1564  0.9004
  907MOL0     H22438   2.500   8.699   6.805  0.4085  0.8190  0.1261
  907MOL0     H22439   2.340   8.691   6.644  1.0220 -1.3695  1.1091
  907MOL0     H22440   2.250   8.672   6.789  0.0825 -0.3523  0.8932
  907MOL0     H22441   2.112   9.040   6.632 -0.5223 -0.3539  1.6225
  907MOL0     H22442   2.903   9.042   6.921  2.3172  1.7009  0.9926
  907MOL0     H22443   3.157   9.021   7.053  2.1713  0.8227 -1.8081
  907MOL0     H22444   3.102   9.162   6.963  0.4098  0.1523  0.8226
  907MOL0     H22445   3.162   9.189   7.120 -3.6234  1.4286  0.9262
  908MOL0     O22446   3.530   9.981   4.287 -0.1586 -0.2853  0.1082
  908MOL0     C22447   3.438   9.934   4.219  0.3741 -0.7227 -0.8740
  908MOL0     O22448   3.451   9.831   4.134  0.1969  0.4072  0.1780
  908MOL0     C22449   3.572   9.771   4.097  0.0037  0.1943  0.2940
  908MOL0     C22450   3.590   9.635   4.103  0.1689  1.5394  0.7699
  908MOL0     C22451   3.715   9.566   4.076 -0.2915  0.4932 -0.8716
  908MOL0     C22452   3.825   9.644   4.031  0.8119 -1.0238  0.4148
  908MOL0     O22453   3.937   9.589   3.988 -0.1592 -0.1506  0.2314
  908MOL0     C22454   3.940   9.448   3.961 -0.5548 -0.4835 -0.5495
  908MOL0     C22455   4.073   9.397   3.914 -0.3344 -0.3899 -0.6151
  908MOL0     C22456   4.111   9.458   3.774 -0.2228 -0.0438  0.1951
  908MOL0     C22457   4.247   9.388   3.739  0.3649  0.1392 -0.1544
  908MOL0     C22458   4.377   9.455   3.783  0.2881  0.7290 -0.3261
  908MOL0     C22459   4.415   9.561   3.678  0.5652  0.2396  0.4078
  908MOL0     C22460   4.482   9.513   3.552 -0.2517  0.1348  0.2607
  908MOL0     C22461   4.636   9.491   3.579  0.1346  0.3336  0.6171
  908MOL0     N22462   4.720   9.455   3.461 -0.0534 -0.3461  0.4015
  908MOL0     C22463   4.796   9.539   3.369 -0.3431  0.4878  0.1257
  908MOL0     C22464   4.845   9.462   3.270 -0.0756 -0.3819 -0.5557
  908MOL0     C22465   4.926   9.505   3.155  0.1470  0.3148 -0.2494
  908MOL0     C22466   5.053   9.578   3.208  0.2012 -0.3426 -0.6336
  908MOL0     C22467   5.160   9.477   3.242  0.4576  0.5272  0.8705
  908MOL0     C22468   5.245   9.534   3.347 -0.7767 -0.1517 -0.4924
  908MOL0     O22469   5.306   9.651   3.292  0.4326  0.0614 -0.1534
  908MOL0     C22470   5.444   9.673   3.302  0.5796  0.0199 -0.2781
  908MOL0     C22471   5.532   9.592   3.366 -0.1487  0.0758  0.8280
  908MOL0     C22472   5.666   9.611   3.357 -0.3364 -0.4106 -0.3668
  908MOL0     C22473   5.718   9.706   3.271  0.0068  0.1375 -0.3706
  908MOL0     C22474   5.865   9.725   3.251 -0.0713  0.5339  0.5689
  908MOL0     O22475   5.901   9.812   3.145 -0.6542  0.1363  0.2831
  908MOL0     C22476   6.038   9.828   3.115 -0.0723  0.9699  0.2058
  908MOL0     C22477   6.087   9.958   3.093 -0.5711 -0.2505 -0.6224
  908MOL0     C22478   6.224   9.971   3.057  1.0505  0.1367 -0.1625
  908MOL0     C22479   6.311   9.858   3.045 -0.2083 -0.6133  0.9359
  908MOL0     O22480   6.439   9.859   3.009 -0.9527 -0.2853  1.4119
  908MOL0     C22481   6.490   9.954   2.908  0.2018  0.0648  0.3454
  908MOL0     C22482   6.641   9.938   2.927 -0.8389 -0.0416  0.3467
  908MOL0     C22483   6.716  10.046   2.843  0.0573  0.2375  0.1390
  908MOL0     C22484   6.866  10.017   2.830  0.1449  0.1646  0.4685
  908MOL0     C22485   6.953  10.135   2.789 -0.3603  0.7559  0.2441
  908MOL0     C22486   6.992  10.215   2.916  0.1174 -0.7159 -0.4663
  908MOL0     C22487   7.128  10.289   2.885  0.2387 -0.1764  0.8455
  908MOL0     C22488   7.216  10.285   3.012 -0.2274 -0.2810  0.1027
  908MOL0    Cl22489   7.264  10.123   3.052 -0.7533 -0.1055  0.1684
  908MOL0     C22490   6.259   9.723   3.070  0.4431  0.0188 -0.3766
  908MOL0     C22491   6.130   9.712   3.099  0.4493  0.2317  0.0070
  908MOL0     O22492   5.938   9.663   3.328  0.3358 -0.0717 -0.4059
  908MOL0     C22493   5.633   9.793   3.210 -1.1969 -0.1239  0.8622
  908MOL0     C22494   5.494   9.780   3.234 -0.9145 -0.3051  0.3496
  908MOL0     N22495   4.793   9.338   3.285  0.0137 -1.2349 -0.2503
  908MOL0     N22496   4.725   9.334   3.399  0.4608 -0.5507 -0.6291
  908MOL0     C22497   3.809   9.780   4.027  0.0374  0.2195  0.2837
  908MOL0     C22498   3.685   9.844   4.066  0.0486 -0.9762 -0.3112
  908MOL0     C22499   3.305  10.002   4.244  0.1759 -0.4688  0.5043
  908MOL0     C22500   3.199   9.976   4.155 -0.0643  0.3587  0.5318
  908MOL0     C22501   3.078  10.046   4.156 -0.1954 -0.3974  0.5961
  908MOL0     C22502   3.047  10.144   4.250 -0.7117 -0.7044 -0.5382
  908MOL0     O22503   2.929  10.208   4.279  0.1293 -0.5037  0.0061
  908MOL0     C22504   2.820  10.122   4.271 -0.3110 -0.0816 -0.5059
  908MOL0     C22505   2.680  10.175   4.315 -0.4090 -1.2008  0.4136
  908MOL0     C22506   2.654  10.322   4.278 -0.1511 -0.2952  0.3041
  908MOL0     C22507   2.654  10.351   4.133  0.2467  0.0442  0.8669
  908MOL0     C22508   2.541  10.291   4.059 -0.6579  0.0107 -0.0968
  908MOL0     C22509   2.455  10.240   3.989 -0.6873  0.4130 -0.1771
  908MOL0     C22510   3.152  10.174   4.345  0.7579  0.0215  0.9376
  908MOL0     C22511   3.269  10.101   4.339 -1.0646 -1.2676  0.0501
  908MOL0     C22512   3.358  10.127   4.460  0.3178  0.1312 -0.7446
  908MOL0     H22513   3.508   9.569   4.128  1.5264 -0.3872  0.3667
  908MOL0     H22514   3.722   9.459   4.091  2.4376  0.4781 -1.7645
  908MOL0     H22515   3.908   9.389   4.048 -1.9420  2.1310  0.8521
  908MOL0     H22516   3.875   9.434   3.875  0.0041 -1.3011 -0.8486
  908MOL0     H22517   4.071   9.288   3.913  0.0920 -0.4037 -0.2485
  908MOL0     H22518   4.146   9.430   3.988 -2.5938 -1.0431  2.0840
  908MOL0     H22519   4.120   9.567   3.768  0.1150 -0.0004  1.2686
  908MOL0     H22520   4.023   9.430   3.716 -0.8325 -0.7642  1.4190
  908MOL0     H22521   4.242   9.288   3.783 -2.5778 -0.0464 -0.6813
  908MOL0     H22522   4.254   9.381   3.630  1.0201  1.4508 -0.2083
  908MOL0     H22523   4.354   9.498   3.881  0.4275  1.1228 -0.4638
  908MOL0     H22524   4.461   9.384   3.789  0.1435  0.6516  1.2459
  908MOL0     H22525   4.323   9.619   3.665 -1.9631 -3.7065 -0.8936
  908MOL0     H22526   4.494   9.618   3.729  0.6487 -0.0940  0.6498
  908MOL0     H22527   4.466   9.597   3.484 -1.3014 -0.2250  0.0449
  908MOL0     H22528   4.442   9.422   3.507  2.0979 -0.3279 -1.0924
  908MOL0     H22529   4.671   9.580   3.632  0.8996  0.2458  0.2661
  908MOL0     H22530   4.649   9.408   3.649  1.2777  0.1006  0.1556
  908MOL0     H22531   4.805   9.647   3.370 -0.2138  0.5083 -1.4007
  908MOL0     H22532   4.949   9.423   3.085 -1.0368  0.1017 -0.4048
  908MOL0     H22533   4.869   9.580   3.099 -0.0615  1.9117  1.9748
  908MOL0     H22534   5.100   9.639   3.130  2.7895  0.4034  1.3842
  908MOL0     H22535   5.036   9.642   3.295  1.8371 -0.4474 -0.2032
  908MOL0     H22536   5.214   9.468   3.147 -2.0367  0.3334 -0.6113
  908MOL0     H22537   5.116   9.379   3.262 -0.6703  0.9448  0.4910
  908MOL0     H22538   5.316   9.459   3.384 -3.3592 -2.0974  0.8465
  908MOL0     H22539   5.188   9.557   3.438  3.4393 -0.2920  2.4960
  908MOL0     H22540   5.505   9.505   3.424  1.5408 -0.8716  0.2653
  908MOL0     H22541   5.723   9.553   3.429 -2.6759 -0.0310  1.9534
  908MOL0     H22542   6.026  10.048   3.090  1.5837  1.2558 -2.2849
  908MOL0     H22543   6.255  10.073   3.036 -0.6586  0.7441  0.1096
  908MOL0     H22544   6.462   9.921   2.808 -1.9687  2.3008  0.1232
  908MOL0     H22545   6.465  10.060   2.919 -2.0127 -0.5610  1.8333
  908MOL0     H22546   6.666   9.940   3.033  0.9503 -1.9720  0.0417
  908MOL0     H22547   6.668   9.842   2.881 -2.5691 -0.7795  0.8101
  908MOL0     H22548   6.675  10.055   2.742 -0.4959  2.6327  0.5113
  908MOL0     H22549   6.695  10.141   2.893 -1.2880 -0.9379  1.8884
  908MOL0     H22550   6.886   9.927   2.771 -1.2390  0.5340 -0.6184
  908MOL0     H22551   6.892   9.989   2.932  0.0074 -0.1320  0.4246
  908MOL0     H22552   6.888  10.192   2.723 -1.6447 -0.1685  0.6648
  908MOL0     H22553   7.038  10.089   2.738  0.3390 -0.0589  2.0381
  908MOL0     H22554   6.922  10.296   2.937  1.1687  0.0905  0.0534
  908MOL0     H22555   7.006  10.149   3.002  4.4197 -0.6475 -0.8716
  908MOL0     H22556   7.114  10.391   2.848 -0.0531 -0.9558 -1.3238
  908MOL0     H22557   7.190  10.245   2.806  0.2006  0.7630  0.2829
  908MOL0     H22558   7.302  10.349   2.993 -0.2762 -0.2248  0.0703
  908MOL0     H22559   7.174  10.326   3.104  3.0863 -0.1334  1.6783
  908MOL0     H22560   6.328   9.639   3.067  1.8843  1.0565  1.4993
  908MOL0     H22561   6.095   9.609   3.100  2.4703 -0.5047  0.2909
  908MOL0     H22562   5.667   9.878   3.152 -0.3507 -0.3536  1.0122
  908MOL0     H22563   5.422   9.839   3.179  1.4780  1.8632 -0.6814
  908MOL0     H22564   3.896   9.814   3.973  1.2165 -1.2830  1.1559
  908MOL0     H22565   3.666   9.950   4.052  0.2760 -1.1921 -2.7726
  908MOL0     H22566   3.216   9.905   4.075  1.3419  0.8959  0.3224
  908MOL0     H22567   2.993  10.015   4.096 -0.7697  0.2341  1.0653
  908MOL0     H22568   2.832  10.028   4.326  0.3832 -0.8497 -1.8980
  908MOL0     H22569   2.807  10.086   4.168 -1.6933 -5.7329  1.2568
  908MOL0     H22570   2.676  10.164   4.424  2.3466 -0.5732  0.6500
  908MOL0     H22571   2.600  10.117   4.267 -2.6391  1.5441  0.5441
  908MOL0     H22572   2.735  10.386   4.313 -1.8577  2.7539 -0.9748
  908MOL0     H22573   2.554  10.351   4.314 -1.0153  0.0291 -2.1957
  908MOL0     H22574   2.655  10.461   4.127  0.2120  0.0523  0.9924
  908MOL0     H22575   2.745  10.309   4.089  0.0294  0.3919  0.0586
  908MOL0     H22576   2.376  10.187   3.939 -1.7536 -0.2033  2.0272
  908MOL0     H22577   3.137  10.253   4.418  2.4420  3.8326 -2.4028
  908MOL0     H22578   3.297  10.174   4.538  0.2724  0.0619 -0.7389
  908MOL0     H22579   3.403  10.035   4.496 -2.8137 -1.6739 -1.1117
  908MOL0     H22580   3.437  10.199   4.435 -0.8473  1.1861 -1.5419
  909MOL0     O22581  10.773   6.896   4.385 -0.6686  0.1157 -0.1654
  909MOL0     C22582  10.790   6.879   4.265  0.9483  0.6304  1.2555
  909MOL0     O22583  10.711   6.793   4.185 -0.0545  0.1944 -0.4709
  909MOL0     C22584  10.579   6.761   4.210 -0.0336  0.1275  0.9790
  909MOL0     C22585  10.497   6.852   4.272 -0.2915  0.4532 -0.0490
  909MOL0     C22586  10.361   6.825   4.257  0.7533  0.6832 -1.1621
  909MOL0     C22587  10.307   6.721   4.177 -0.8710  0.4969 -0.4488
  909MOL0     O22588  10.177   6.714   4.179  0.1487 -0.0318  0.2595
  909MOL0     C22589  10.106   6.611   4.104  0.6858 -0.1194 -0.1147
  909MOL0     C22590  10.095   6.640   3.963 -0.1361  0.3028  0.3718
  909MOL0     C22591  10.075   6.783   3.923  0.2056 -1.2487 -0.2722
  909MOL0     C22592   9.942   6.838   3.973  1.3308 -0.5235  0.5673
  909MOL0     C22593   9.957   6.997   3.988  0.3413  0.1674  0.6464
  909MOL0     C22594   9.984   7.065   3.847  0.3461 -0.0068 -0.4047
  909MOL0     C22595   9.970   7.211   3.848 -0.0947  0.2906 -0.4259
  909MOL0     C22596  10.079   7.291   3.934  0.0933 -0.2385  0.4860
  909MOL0     N22597  10.026   7.370   4.046 -0.3388  0.4122  0.3175
  909MOL0     C22598  10.101   7.421   4.141  0.1656 -0.1932 -0.6027
  909MOL0     C22599  10.018   7.434   4.249  0.1834 -0.5868  1.2304
  909MOL0     C22600  10.052   7.481   4.386 -0.0551  0.3811 -0.4585
  909MOL0     C22601  10.034   7.632   4.402 -0.3525 -0.0701  0.1216
  909MOL0     C22602  10.133   7.720   4.325  0.3030  0.9311  0.1340
  909MOL0     C22603  10.276   7.676   4.340  0.1480 -0.4694 -0.3198
  909MOL0     O22604  10.357   7.787   4.285 -0.4904  0.3877  0.2792
  909MOL0     C22605  10.493   7.765   4.279 -0.9546  0.5313  0.0109
  909MOL0     C22606  10.567   7.857   4.207  0.7271 -0.0216  0.1849
  909MOL0     C22607  10.706   7.849   4.175 -0.0625 -0.0569 -0.7584
  909MOL0     C22608  10.771   7.734   4.213  0.1045 -1.1598  0.8987
  909MOL0     C22609  10.910   7.714   4.187  0.9684 -0.4898 -0.2071
  909MOL0     O22610  10.971   7.615   4.254 -0.3850 -0.1396 -0.5701
  909MOL0     C22611  11.102   7.598   4.228  0.9981  0.7359  0.5794
  909MOL0     C22612  11.199   7.674   4.292  0.2932  0.6334 -1.0641
  909MOL0     C22613  11.333   7.663   4.273 -0.0240 -0.3752 -0.6806
  909MOL0     C22614  11.379   7.575   4.177 -1.1333  0.2147 -0.2066
  909MOL0     O22615  11.509   7.561   4.149 -0.1576  0.0964 -0.4482
  909MOL0     C22616  11.604   7.671   4.149 -0.9978 -0.3216  0.3857
  909MOL0     C22617  11.710   7.622   4.052 -0.4425 -0.1225  0.0259
  909MOL0     C22618  11.835   7.719   4.066 -0.0554  0.2595 -0.3296
  909MOL0     C22619  11.934   7.678   3.963 -0.6522 -0.8993 -0.6713
  909MOL0     C22620  12.053   7.776   3.971 -0.1855  0.5651 -0.1757
  909MOL0     C22621  12.167   7.735   3.882  0.1233 -0.5692 -0.7654
  909MOL0     C22622  12.241   7.614   3.934 -1.0988  0.5067 -0.3020
  909MOL0     C22623  12.390   7.619   3.899  0.3459 -0.1048  0.0498
  909MOL0    Cl22624  12.478   7.745   4.006  0.0568 -0.4063 -0.2621
  909MOL0     C22625  11.285   7.486   4.122 -0.6615  0.0103 -0.7096
  909MOL0     C22626  11.149   7.496   4.140  0.0595 -0.2821 -0.0110
  909MOL0     O22627  10.965   7.786   4.107 -0.1020 -0.5420  0.2796
  909MOL0     C22628  10.699   7.633   4.284  0.5864 -0.2983 -0.1023
  909MOL0     C22629  10.569   7.650   4.322 -0.0555 -0.5209 -1.1768
  909MOL0     N22630   9.889   7.410   4.203  0.9734 -0.9514  0.6916
  909MOL0     N22631   9.897   7.370   4.085 -0.0561 -0.3094  0.3209
  909MOL0     C22632  10.401   6.631   4.129  0.6406  0.6967  0.0565
  909MOL0     C22633  10.537   6.653   4.131 -0.1457 -0.6134  0.1689
  909MOL0     C22634  10.906   6.923   4.200 -0.4321 -0.0901 -0.2873
  909MOL0     C22635  10.992   6.826   4.140 -0.0785  0.6899  1.1860
  909MOL0     C22636  11.119   6.861   4.099 -0.0206  0.4880  0.3245
  909MOL0     C22637  11.164   6.987   4.112 -0.0931  0.2154  0.3898
  909MOL0     O22638  11.297   6.995   4.068 -0.4399  0.2619  0.3224
  909MOL0     C22639  11.357   7.125   4.054  0.2859 -0.0271  0.5808
  909MOL0     C22640  11.466   7.152   4.162 -0.0595  0.1654  0.3226
  909MOL0     C22641  11.574   7.051   4.161 -0.0176  0.3795 -0.2041
  909MOL0     C22642  11.700   7.125   4.110  1.0031  1.0650  0.1949
  909MOL0     C22643  11.803   7.028   4.063 -0.8353  0.2654 -0.5393
  909MOL0     C22644  11.885   6.950   4.010  0.1610 -0.2266 -0.5358
  909MOL0     C22645  11.084   7.082   4.179  0.2806  0.1809  0.5336
  909MOL0     C22646  10.952   7.056   4.212 -0.1552 -0.2129  0.7684
  909MOL0     C22647  10.867   7.165   4.277 -0.5484 -0.2667 -0.4788
  909MOL0     H22648  10.534   6.942   4.319  0.7353  1.5995 -2.8005
  909MOL0     H22649  10.294   6.883   4.320  1.4604  0.4082 -0.1423
  909MOL0     H22650  10.164   6.519   4.121  1.6433  0.7329  1.4654
  909MOL0     H22651  10.010   6.592   4.151  0.9878 -0.3018  0.4392
  909MOL0     H22652  10.013   6.581   3.922  0.7693 -1.0545  0.4762
  909MOL0     H22653  10.194   6.608   3.930 -0.4020 -0.2423  0.1040
  909MOL0     H22654  10.096   6.804   3.818  1.8804  0.3368  0.3268
  909MOL0     H22655  10.159   6.844   3.959 -1.1040  1.2554 -1.2358
  909MOL0     H22656   9.871   6.819   3.891  0.9019  0.2809  0.7313
  909MOL0     H22657   9.904   6.791   4.064 -0.2339  1.2865  0.9385
  909MOL0     H22658   9.861   7.044   4.011 -0.2885 -1.3083  1.1475
  909MOL0     H22659  10.012   7.020   4.080 -0.6095 -2.1548  1.8823
  909MOL0     H22660  10.083   7.043   3.805  0.2758 -1.2234  0.0488
  909MOL0     H22661   9.920   7.016   3.773  3.6862 -2.7462 -1.7747
  909MOL0     H22662   9.867   7.237   3.877  0.5067  0.2251  2.0472
  909MOL0     H22663   9.983   7.248   3.746 -1.2165  2.7972  0.2574
  909MOL0     H22664  10.147   7.218   3.979  0.2447 -1.2326 -1.2699
  909MOL0     H22665  10.133   7.351   3.860 -0.6975 -2.0661 -1.6810
  909MOL0     H22666  10.209   7.426   4.144  0.1140  0.7105  0.9219
  909MOL0     H22667   9.976   7.435   4.450  2.3898 -0.4016  2.0936
  909MOL0     H22668  10.149   7.440   4.418 -0.9059  0.8528  3.1222
  909MOL0     H22669   9.929   7.662   4.389 -0.7033  0.1305  2.7705
  909MOL0     H22670  10.054   7.663   4.505  1.0571  0.6009 -0.3350
  909MOL0     H22671  10.121   7.825   4.352 -1.4709  0.1686  2.6541
  909MOL0     H22672  10.116   7.696   4.220  0.0594 -0.5494  0.4803
  909MOL0     H22673  10.295   7.585   4.283 -3.0591 -1.6747  0.3225
  909MOL0     H22674  10.305   7.655   4.443  0.6556 -2.9272 -0.9053
  909MOL0     H22675  10.526   7.950   4.168  3.8643  1.1742 -0.6372
  909MOL0     H22676  10.752   7.922   4.109 -2.4524  2.2408 -0.1003
  909MOL0     H22677  11.171   7.756   4.358 -0.8130  1.4301 -2.4686
  909MOL0     H22678  11.394   7.732   4.329  0.9392 -0.9701 -0.9634
  909MOL0     H22679  11.544   7.758   4.121 -1.2940  0.3218  2.7980
  909MOL0     H22680  11.646   7.686   4.249  0.9374 -0.9447 -0.2896
  909MOL0     H22681  11.741   7.524   4.090  0.8425  0.0573 -0.5337
  909MOL0     H22682  11.678   7.612   3.948 -0.3356 -1.1544  0.0850
  909MOL0     H22683  11.800   7.823   4.064 -0.9831  0.0271  1.3160
  909MOL0     H22684  11.882   7.719   4.165 -0.5542 -0.7419 -0.0724
  909MOL0     H22685  11.892   7.680   3.862 -0.3991 -1.5549 -0.7925
  909MOL0     H22686  11.971   7.577   3.981 -0.9323 -0.9833 -0.5699
  909MOL0     H22687  12.099   7.782   4.070  1.2014 -0.5782 -0.7198
  909MOL0     H22688  12.031   7.879   3.941  0.9166  0.3680 -1.7591
  909MOL0     H22689  12.124   7.715   3.783 -3.2291 -2.8274  0.9412
  909MOL0     H22690  12.242   7.814   3.872  0.4828 -0.6856  0.7914
  909MOL0     H22691  12.202   7.526   3.882  1.3056 -1.0708  0.4421
  909MOL0     H22692  12.235   7.616   4.043  2.4414  3.3600  0.0262
  909MOL0     H22693  12.439   7.524   3.923  0.2320 -0.0460  0.5276
  909MOL0     H22694  12.401   7.635   3.792 -0.9991 -0.4826 -0.1612
  909MOL0     H22695  11.307   7.410   4.048 -1.5398 -0.2263 -0.7424
  909MOL0     H22696  11.069   7.448   4.083 -2.8371  1.1835  2.5321
  909MOL0     H22697  10.748   7.548   4.330  0.1652 -0.8567 -0.6714
  909MOL0     H22698  10.519   7.581   4.388 -1.1855  1.2628 -0.0752
  909MOL0     H22699  10.370   6.547   4.068  1.3269  2.1067 -2.3502
  909MOL0     H22700  10.603   6.588   4.073 -2.7511 -1.9196 -1.5055
  909MOL0     H22701  10.960   6.729   4.103 -2.3153  2.1545 -1.0759
  909MOL0     H22702  11.176   6.776   4.061 -0.2317 -0.2467  1.6102
  909MOL0     H22703  11.284   7.205   4.067  1.1131  0.6816  1.0087
  909MOL0     H22704  11.402   7.141   3.956  1.3437  2.3084  1.3499
  909MOL0     H22705  11.411   7.151   4.256  0.7784 -1.8881  0.8553
  909MOL0     H22706  11.506   7.253   4.148 -0.3490  0.3644  0.9051
  909MOL0     H22707  11.547   6.972   4.091 -0.2344  0.3142 -0.0456
  909MOL0     H22708  11.583   7.012   4.263 -0.3257 -1.0412 -0.6956
  909MOL0     H22709  11.685   7.190   4.024  0.9958  1.2219  0.3141
  909MOL0     H22710  11.749   7.183   4.189  3.6248  2.4255 -2.2294
  909MOL0     H22711  11.966   6.896   3.966  0.1401 -2.4268  1.8852
  909MOL0     H22712  11.129   7.178   4.205  1.4309 -0.3161  0.4261
  909MOL0     H22713  10.760   7.144   4.282 -0.7680  1.0332  1.4941
  909MOL0     H22714  10.898   7.185   4.380 -1.2021 -2.2740  0.1633
  909MOL0     H22715  10.885   7.251   4.212  0.9309 -1.1446 -1.2898
  910MOL0     O22716   2.537   7.646   4.692 -0.5795  0.2698  0.2370
  910MOL0     C22717   2.455   7.722   4.646 -0.3069 -0.0327  1.0916
  910MOL0     O22718   2.482   7.836   4.581 -1.1940  0.8213 -0.2714
  910MOL0     C22719   2.610   7.885   4.562 -0.1683  0.3845 -0.3205
  910MOL0     C22720   2.619   8.032   4.558 -0.0276 -0.2379  0.1036
  910MOL0     C22721   2.736   8.102   4.528 -0.5191  0.1840  1.0087
  910MOL0     C22722   2.855   8.031   4.488  0.3161  0.7954 -0.4624
  910MOL0     O22723   2.972   8.082   4.433 -0.3695 -0.3250 -0.7330
  910MOL0     C22724   2.974   8.227   4.419 -0.0491 -0.0332 -1.0353
  910MOL0     C22725   3.100   8.262   4.333 -0.1238 -0.0440 -0.4454
  910MOL0     C22726   3.236   8.212   4.397  0.2834  0.2183  0.1588
  910MOL0     C22727   3.349   8.260   4.312 -0.5565 -0.5583 -0.0510
  910MOL0     C22728   3.477   8.223   4.372 -0.0794 -0.5181 -0.1727
  910MOL0     C22729   3.566   8.222   4.249  0.3618  0.0799 -1.2081
  910MOL0     C22730   3.713   8.175   4.263  0.6308  0.4710 -0.9790
  910MOL0     C22731   3.707   8.024   4.292  0.3330  0.0488  0.7343
  910MOL0     N22732   3.835   7.952   4.291  0.0956  0.0339  1.0295
  910MOL0     C22733   3.954   7.990   4.236  0.9392  0.0714  0.7992
  910MOL0     C22734   4.041   7.909   4.285  0.3582 -0.0623 -0.5869
  910MOL0     C22735   4.186   7.933   4.272 -0.1173  0.0942  0.8324
  910MOL0     C22736   4.274   7.846   4.360  1.2466  0.5732 -0.1312
  910MOL0     C22737   4.379   7.756   4.279 -0.1093 -0.4817 -0.5225
  910MOL0     C22738   4.511   7.822   4.260  0.2446  0.2517  1.0095
  910MOL0     O22739   4.601   7.715   4.236  0.3025 -0.9317  0.2344
  910MOL0     C22740   4.734   7.740   4.207  0.4529 -0.7126 -1.0202
  910MOL0     C22741   4.799   7.865   4.213 -0.0993  0.6628  0.3319
  910MOL0     C22742   4.933   7.884   4.184 -0.6588  1.0818  0.0514
  910MOL0     C22743   5.006   7.777   4.136  0.3598  0.0227  0.8123
  910MOL0     C22744   5.145   7.800   4.090  0.1873 -0.1540 -0.0192
  910MOL0     O22745   5.176   7.927   4.044 -0.0206  0.7183 -0.6531
  910MOL0     C22746   5.306   7.969   4.008  0.6644  0.3984  1.7212
  910MOL0     C22747   5.330   8.105   4.039  0.8568 -0.2145 -0.1991
  910MOL0     C22748   5.458   8.164   4.004  0.0923  0.8252  0.8972
  910MOL0     C22749   5.560   8.075   3.956 -1.7252 -0.5187  0.2983
  910MOL0     O22750   5.678   8.139   3.924  0.1719  0.1857  0.6423
  910MOL0     C22751   5.778   8.067   3.848  0.2794 -0.4450  0.0610
  910MOL0     C22752   5.894   8.169   3.817  0.0561 -0.1711 -0.3137
  910MOL0     C22753   5.875   8.266   3.702 -0.2021  0.4329 -0.4752
  910MOL0     C22754   5.992   8.365   3.671 -0.5548 -0.2862 -0.1241
  910MOL0     C22755   5.967   8.440   3.546 -0.6614 -1.1163 -0.8442
  910MOL0     C22756   6.089   8.510   3.487 -0.3455 -0.6490 -0.4829
  910MOL0     C22757   6.201   8.418   3.445  1.0973  0.0955 -0.3143
  910MOL0     C22758   6.160   8.324   3.323  0.2338  0.1526  0.1084
  910MOL0    Cl22759   6.311   8.276   3.231  0.2869 -0.0464 -0.5992
  910MOL0     C22760   5.541   7.941   3.943  0.7502 -0.0884  1.1492
  910MOL0     C22761   5.407   7.896   3.945 -0.4698 -0.3716 -0.2477
  910MOL0     O22762   5.226   7.712   4.097  0.1146 -0.2923  0.3506
  910MOL0     C22763   4.941   7.651   4.115  0.0914 -0.9897 -0.6849
  910MOL0     C22764   4.811   7.639   4.147 -0.5316  0.2440 -0.5552
  910MOL0     N22765   3.977   7.811   4.365  0.0481 -0.0745 -0.1037
  910MOL0     N22766   3.855   7.835   4.362 -0.7716 -0.0615  0.3677
  910MOL0     C22767   2.846   7.889   4.502 -0.5156  0.5901 -0.1833
  910MOL0     C22768   2.729   7.821   4.544 -0.3473  0.3574 -0.0152
  910MOL0     C22769   2.309   7.666   4.628  0.0675  0.0318 -0.7845
  910MOL0     C22770   2.213   7.744   4.564 -0.3122  0.0959  0.1989
  910MOL0     C22771   2.086   7.690   4.531  1.3618 -0.1544 -0.0278
  910MOL0     C22772   2.051   7.568   4.581 -0.5176  0.4665  1.4249
  910MOL0     O22773   1.941   7.494   4.551  0.6631 -0.0406  0.4527
  910MOL0     C22774   1.815   7.560   4.559  0.2972  0.1984  0.1220
  910MOL0     C22775   1.733   7.478   4.656  0.4598  0.1521  0.2830
  910MOL0     C22776   1.787   7.447   4.791 -0.3853  0.2060  0.0028
  910MOL0     C22777   1.853   7.566   4.863  0.5498  0.6431  0.6273
  910MOL0     C22778   1.908   7.524   4.986 -0.0169  0.2552  0.8779
  910MOL0     C22779   1.960   7.494   5.090 -0.6969  0.3390 -0.3970
  910MOL0     C22780   2.138   7.495   4.653 -0.2634  0.0911 -0.3505
  910MOL0     C22781   2.277   7.535   4.679  0.8047 -0.1557  0.1172
  910MOL0     C22782   2.368   7.434   4.742 -0.0959  0.0680  0.6406
  910MOL0     H22783   2.537   8.101   4.575 -0.0371 -0.5178  1.3542
  910MOL0     H22784   2.736   8.210   4.517  2.8074  0.3893  1.9308
  910MOL0     H22785   2.884   8.259   4.365  0.1377 -0.5281 -1.6419
  910MOL0     H22786   2.990   8.279   4.514 -1.8137 -0.7375 -0.3054
  910MOL0     H22787   3.104   8.370   4.312 -1.6066  0.4660  1.6163
  910MOL0     H22788   3.088   8.208   4.238  1.2065 -2.4337  0.6779
  910MOL0     H22789   3.240   8.103   4.388 -1.4296  0.2025 -0.7067
  910MOL0     H22790   3.239   8.235   4.504 -0.9260 -1.1868  0.5323
  910MOL0     H22791   3.321   8.224   4.213 -0.0770 -2.8763  0.5955
  910MOL0     H22792   3.347   8.369   4.302  0.3358 -0.5811 -0.5673
  910MOL0     H22793   3.524   8.284   4.450 -0.8668 -2.3594  1.8480
  910MOL0     H22794   3.476   8.123   4.417 -0.6378 -1.0787 -1.4043
  910MOL0     H22795   3.522   8.154   4.175 -1.1525 -2.6437  1.9229
  910MOL0     H22796   3.566   8.327   4.217 -3.4841  0.8117  0.6105
  910MOL0     H22797   3.767   8.225   4.344  1.1865  0.3687 -1.2787
  910MOL0     H22798   3.763   8.189   4.166 -1.2412  1.7404 -1.8178
  910MOL0     H22799   3.659   8.006   4.389  3.5205 -3.5155  1.8906
  910MOL0     H22800   3.646   7.977   4.215  1.0634  1.4084 -0.7272
  910MOL0     H22801   3.968   8.084   4.185 -0.6498 -0.7766 -1.3767
  910MOL0     H22802   4.210   7.903   4.170 -2.7214 -0.1803  0.2272
  910MOL0     H22803   4.198   8.041   4.285 -4.6340  0.9995 -0.6501
  910MOL0     H22804   4.324   7.908   4.435  0.6658 -1.5261  2.1349
  910MOL0     H22805   4.204   7.783   4.416  1.5218  0.1623 -0.2389
  910MOL0     H22806   4.328   7.722   4.189 -2.1407 -0.9812  0.7439
  910MOL0     H22807   4.383   7.659   4.331  0.3602  0.1251  0.6092
  910MOL0     H22808   4.540   7.882   4.347 -0.9293  1.0767  0.8649
  910MOL0     H22809   4.501   7.886   4.172  3.4549 -2.1043 -1.3168
  910MOL0     H22810   4.735   7.944   4.250 -3.2010 -0.3813 -2.3708
  910MOL0     H22811   4.984   7.979   4.200 -1.0178  1.8282 -2.7180
  910MOL0     H22812   5.252   8.158   4.094  0.1308 -1.7558  0.3001
  910MOL0     H22813   5.474   8.271   4.001 -1.5427  1.0926 -0.0712
  910MOL0     H22814   5.803   7.977   3.905 -1.4380 -0.5483  0.7162
  910MOL0     H22815   5.737   8.045   3.749  1.5591  1.3714 -0.9275
  910MOL0     H22816   5.914   8.234   3.902  1.2836 -0.9093 -0.0024
  910MOL0     H22817   5.978   8.099   3.808  0.3749 -0.3210  2.7888
  910MOL0     H22818   5.843   8.206   3.616  2.0827  0.7284 -1.6119
  910MOL0     H22819   5.784   8.321   3.727 -0.4219  1.1492 -2.6817
  910MOL0     H22820   6.088   8.314   3.674 -0.9909 -1.0993  2.9105
  910MOL0     H22821   6.003   8.440   3.750  1.5714 -1.0574  0.3631
  910MOL0     H22822   5.882   8.508   3.561 -0.7477 -1.5473  0.8619
  910MOL0     H22823   5.942   8.367   3.468 -1.8998 -1.9060  0.2525
  910MOL0     H22824   6.062   8.564   3.396  0.2752  0.0932 -0.2404
  910MOL0     H22825   6.122   8.590   3.555 -1.0897  0.0484 -0.9163
  910MOL0     H22826   6.237   8.347   3.520 -1.6492 -0.0236  1.0268
  910MOL0     H22827   6.287   8.485   3.432 -0.8608  2.9131  0.3720
  910MOL0     H22828   6.106   8.233   3.350  2.0426 -1.3027 -0.9732
  910MOL0     H22829   6.110   8.378   3.242  2.5405  0.6541 -1.0491
  910MOL0     H22830   5.621   7.871   3.920  0.5272  0.4203 -1.5278
  910MOL0     H22831   5.393   7.791   3.919  0.1583 -1.1359  2.1802
  910MOL0     H22832   4.991   7.573   4.058 -0.1313 -0.6547 -1.3431
  910MOL0     H22833   4.774   7.540   4.124  2.3029 -0.4484 -2.7019
  910MOL0     H22834   2.936   7.831   4.479 -0.6562 -0.5400  1.8075
  910MOL0     H22835   2.740   7.714   4.561  0.5803  0.4497  0.0363
  910MOL0     H22836   2.243   7.843   4.529  2.3279  0.0580  2.0125
  910MOL0     H22837   2.017   7.751   4.474 -0.1538 -0.7169  1.1617
  910MOL0     H22838   1.777   7.568   4.457  1.9764  0.6805 -0.4947
  910MOL0     H22839   1.830   7.655   4.611 -1.2819 -1.0021  2.9969
  910MOL0     H22840   1.703   7.385   4.607 -4.6163  0.9773  1.3032
  910MOL0     H22841   1.635   7.523   4.675  0.4410  0.6298 -0.8565
  910MOL0     H22842   1.855   7.364   4.774 -0.9864 -0.7650  1.9982
  910MOL0     H22843   1.702   7.410   4.850 -2.3675  1.9600 -1.5765
  910MOL0     H22844   1.935   7.611   4.807  1.5911  1.0355  2.4125
  910MOL0     H22845   1.778   7.645   4.875  0.3519  0.4309  0.8001
  910MOL0     H22846   2.008   7.476   5.184 -0.1209  0.3864 -0.6830
  910MOL0     H22847   2.110   7.398   4.692 -1.5834  1.8457  3.5218
  910MOL0     H22848   2.453   7.420   4.675 -1.1157 -1.4196 -0.4148
  910MOL0     H22849   2.405   7.472   4.838  2.7653  0.7722 -0.6452
  910MOL0     H22850   2.323   7.335   4.756  1.5024 -0.9534 -1.0206
  911MOL0     O22851   2.402   2.144   5.616  0.3779  0.3624 -0.3683
  911MOL0     C22852   2.348   2.121   5.726  0.2097  0.3906 -0.8419
  911MOL0     O22853   2.394   2.164   5.853 -0.4783  0.4579 -0.6728
  911MOL0     C22854   2.465   2.281   5.864 -0.2908 -0.9467  1.6712
  911MOL0     C22855   2.529   2.307   5.977 -0.0310  0.9208  0.1061
  911MOL0     C22856   2.580   2.429   6.023  0.0710 -0.0435  0.3089
  911MOL0     C22857   2.557   2.543   5.943  0.0488 -0.4433 -0.3194
  911MOL0     O22858   2.585   2.663   5.993  1.2354  0.3143  0.1688
  911MOL0     C22859   2.467   2.741   6.026 -0.1328  0.1027  0.0077
  911MOL0     C22860   2.396   2.700   6.151  0.7110  0.3778 -0.0276
  911MOL0     C22861   2.455   2.768   6.281 -0.1973 -0.1089 -0.1415
  911MOL0     C22862   2.373   2.722   6.404 -0.7569  0.2882 -0.5491
  911MOL0     C22863   2.397   2.576   6.442  1.1527  0.0778  0.4506
  911MOL0     C22864   2.536   2.543   6.486 -0.7390  0.5575 -0.0752
  911MOL0     C22865   2.535   2.394   6.521  0.0948  0.1287 -1.0806
  911MOL0     C22866   2.669   2.338   6.555 -0.0542 -0.7377  0.1856
  911MOL0     N22867   2.768   2.364   6.452  0.6339 -0.0166  0.7068
  911MOL0     C22868   2.768   2.299   6.328 -0.1954  1.0747  1.0666
  911MOL0     C22869   2.861   2.359   6.250  0.0967 -0.4586  1.1369
  911MOL0     C22870   2.884   2.314   6.101 -1.1716  0.1482 -0.1429
  911MOL0     C22871   2.995   2.206   6.084  0.3823  0.2563  0.1441
  911MOL0     C22872   3.119   2.245   6.155 -0.5272 -0.4082  0.3490
  911MOL0     C22873   3.234   2.153   6.112  0.3607  0.0984 -0.0966
  911MOL0     O22874   3.334   2.170   6.214  0.1022  0.6242  0.3978
  911MOL0     C22875   3.459   2.150   6.172 -0.3646  0.5746  0.0312
  911MOL0     C22876   3.514   2.027   6.187  1.0007  0.8112  0.1866
  911MOL0     C22877   3.638   2.000   6.140  0.0674  0.4262 -0.7215
  911MOL0     C22878   3.716   2.097   6.076  0.5291  0.3382  0.4904
  911MOL0     C22879   3.845   2.065   6.016 -0.4677  0.4619  0.1936
  911MOL0     O22880   3.924   2.165   5.953 -0.5658 -0.1870  0.9685
  911MOL0     C22881   4.055   2.133   5.933  0.6019 -0.2244 -0.1784
  911MOL0     C22882   4.113   2.096   5.814  0.7690 -0.3366 -1.1330
  911MOL0     C22883   4.250   2.066   5.793 -1.0164 -0.5961  0.4912
  911MOL0     C22884   4.337   2.062   5.900  0.2122 -1.2701  0.0243
  911MOL0     O22885   4.464   2.021   5.869 -0.7519  0.7227  0.2502
  911MOL0     C22886   4.541   1.962   5.974 -0.2500  0.6438 -1.1654
  911MOL0     C22887   4.670   2.046   5.994 -0.7239 -0.1185 -0.2549
  911MOL0     C22888   4.748   1.992   6.111  0.2803  0.4663 -0.3953
  911MOL0     C22889   4.890   2.061   6.136 -0.1125  0.2488  0.7556
  911MOL0     C22890   4.968   1.971   6.230  0.3967  0.1193  0.2945
  911MOL0     C22891   5.097   2.046   6.282  0.4638 -0.0527  0.6601
  911MOL0     C22892   5.215   2.019   6.188 -0.1271 -0.2108  0.8273
  911MOL0     C22893   5.355   2.057   6.249  0.1962 -1.2883  0.6196
  911MOL0    Cl22894   5.400   1.942   6.366 -0.2233  0.2677  0.2156
  911MOL0     C22895   4.278   2.103   6.024  0.2403 -0.0333 -1.0774
  911MOL0     C22896   4.140   2.134   6.045 -0.1728  0.2952  0.3616
  911MOL0     O22897   3.883   1.946   6.029  1.1160  0.7257  0.7522
  911MOL0     C22898   3.658   2.228   6.067 -1.0543  0.7824  0.4999
  911MOL0     C22899   3.536   2.258   6.119  0.1760 -1.1771 -0.4991
  911MOL0     N22900   2.911   2.465   6.324 -0.0233 -0.1846  0.1426
  911MOL0     N22901   2.858   2.469   6.439  0.1486 -0.4445  0.1807
  911MOL0     C22902   2.511   2.527   5.816  0.0020  0.6334  0.1723
  911MOL0     C22903   2.465   2.396   5.773 -0.1177  0.2363  0.2720
  911MOL0     C22904   2.233   2.022   5.724 -0.3857  0.1525 -0.2222
  911MOL0     C22905   2.228   1.938   5.611 -0.4989  0.3659  0.1255
  911MOL0     C22906   2.116   1.866   5.574  0.4245 -0.5494 -0.3485
  911MOL0     C22907   2.011   1.872   5.665 -0.2248  0.0413 -0.7201
  911MOL0     O22908   1.890   1.811   5.644  0.2449  0.0884  0.2028
  911MOL0     C22909   1.821   1.865   5.525  0.1231  0.6518  0.6707
  911MOL0     C22910   1.745   1.761   5.458 -0.3494  0.9217  0.0580
  911MOL0     C22911   1.674   1.678   5.554  0.2451 -0.3917 -1.2945
  911MOL0     C22912   1.558   1.611   5.495  0.0374  0.8230 -1.4206
  911MOL0     C22913   1.502   1.486   5.554  0.0867  1.0527  0.2872
  911MOL0     C22914   1.434   1.387   5.582 -0.4778 -0.7149  0.2181
  911MOL0     C22915   2.013   1.941   5.785  1.1030  0.8936 -0.4796
  911MOL0     C22916   2.118   2.026   5.808 -1.2051  0.4936  0.1637
  911MOL0     C22917   2.102   2.108   5.933 -0.3881 -0.1228 -0.7416
  911MOL0     H22918   2.530   2.222   6.046  4.8021  0.4035 -0.2142
  911MOL0     H22919   2.622   2.438   6.123  1.0884  0.6077 -0.1573
  911MOL0     H22920   2.487   2.848   6.021 -1.4634  0.3171 -1.9826
  911MOL0     H22921   2.396   2.711   5.948 -0.8342 -2.6651  1.5605
  911MOL0     H22922   2.373   2.593   6.157 -0.8518  0.5725 -1.6709
  911MOL0     H22923   2.292   2.735   6.146  0.4040 -0.5585 -0.3674
  911MOL0     H22924   2.452   2.876   6.271 -1.7467 -0.1224 -0.2003
  911MOL0     H22925   2.560   2.738   6.285 -0.0554 -0.0004 -2.0907
  911MOL0     H22926   2.409   2.784   6.486  0.6357  1.9045 -2.2703
  911MOL0     H22927   2.267   2.734   6.380 -1.3529 -4.5315 -1.4440
  911MOL0     H22928   2.328   2.545   6.521 -2.7277 -0.2627 -2.7779
  911MOL0     H22929   2.355   2.510   6.365 -2.5553 -1.4229  3.4285
  911MOL0     H22930   2.619   2.565   6.419 -0.1446  0.8609  0.7350
  911MOL0     H22931   2.557   2.592   6.582  0.5732 -0.7545  0.3467
  911MOL0     H22932   2.480   2.344   6.441 -1.6345 -0.9186  0.6775
  911MOL0     H22933   2.480   2.371   6.614 -0.7010  1.2007 -1.2586
  911MOL0     H22934   2.710   2.394   6.639  0.8859 -0.5266 -0.4034
  911MOL0     H22935   2.644   2.234   6.579  1.0889 -1.0778 -0.0212
  911MOL0     H22936   2.703   2.216   6.302 -0.2330  0.7490  2.1471
  911MOL0     H22937   2.799   2.258   6.062 -1.7850  1.5380 -0.8775
  911MOL0     H22938   2.901   2.405   6.042  0.0795 -1.4574 -2.4345
  911MOL0     H22939   2.965   2.108   6.121  2.0201 -0.4643 -0.3089
  911MOL0     H22940   3.017   2.184   5.979  2.5254 -1.2426  0.8271
  911MOL0     H22941   3.099   2.243   6.262  1.6668 -0.4349  0.8134
  911MOL0     H22942   3.143   2.351   6.141 -2.8969  0.4839  2.3519
  911MOL0     H22943   3.272   2.179   6.013  0.4888  0.6469  0.0876
  911MOL0     H22944   3.202   2.049   6.107  0.8948 -0.0938  0.3040
  911MOL0     H22945   3.450   1.949   6.227  0.4489  2.0712  1.9094
  911MOL0     H22946   3.675   1.898   6.139 -1.8265 -0.3114 -1.5027
  911MOL0     H22947   4.045   2.092   5.729  0.3133 -1.7473 -0.7264
  911MOL0     H22948   4.283   2.061   5.690 -2.9257  2.2275 -0.3818
  911MOL0     H22949   4.484   1.962   6.068 -2.4141  1.2779 -2.4165
  911MOL0     H22950   4.571   1.860   5.950 -0.4863 -0.0824  1.3681
  911MOL0     H22951   4.734   2.057   5.906 -0.1487  1.9390  0.3584
  911MOL0     H22952   4.630   2.144   6.022  0.1173  0.5667 -1.3805
  911MOL0     H22953   4.686   1.990   6.200  3.4461  2.4739  2.0908
  911MOL0     H22954   4.779   1.891   6.080  0.4007  0.5090 -0.4167
  911MOL0     H22955   4.869   2.164   6.169 -3.0139  1.4161 -3.7874
  911MOL0     H22956   4.937   2.079   6.038 -1.5039 -1.3327 -0.2593
  911MOL0     H22957   4.993   1.883   6.170 -0.7516  0.0950 -0.1644
  911MOL0     H22958   4.911   1.940   6.318  1.6199 -0.2170  0.9955
  911MOL0     H22959   5.061   2.150   6.287  0.8255  0.3038 -2.1767
  911MOL0     H22960   5.115   2.012   6.384  0.4471  1.1990  1.1063
  911MOL0     H22961   5.206   2.079   6.097 -1.7960 -0.0512  1.0595
  911MOL0     H22962   5.223   1.914   6.156  2.9252  1.1670 -4.0807
  911MOL0     H22963   5.437   2.063   6.177  0.3377  2.0842  0.8896
  911MOL0     H22964   5.328   2.159   6.278 -4.0358 -1.6851 -1.1493
  911MOL0     H22965   4.341   2.120   6.111  1.8238  1.4045 -2.4375
  911MOL0     H22966   4.092   2.148   6.141 -0.3370 -0.2699  0.3640
  911MOL0     H22967   3.715   2.309   6.023  3.3240 -1.3841  1.5823
  911MOL0     H22968   3.489   2.356   6.118 -1.3087 -1.8180  0.7408
  911MOL0     H22969   2.516   2.613   5.751 -0.9330  2.0935  1.9398
  911MOL0     H22970   2.437   2.373   5.671  0.4814 -0.3649  0.2376
  911MOL0     H22971   2.310   1.935   5.539 -1.6090  0.5217 -1.1791
  911MOL0     H22972   2.125   1.803   5.486  0.4648 -0.0511 -0.7008
  911MOL0     H22973   1.886   1.927   5.462  1.0429  0.2269  1.1834
  911MOL0     H22974   1.751   1.937   5.569  0.8564  1.9330 -0.1744
  911MOL0     H22975   1.813   1.702   5.395 -1.6649 -0.3543 -0.2256
  911MOL0     H22976   1.673   1.813   5.395  2.5365  4.4301 -0.7030
  911MOL0     H22977   1.647   1.744   5.637 -0.3631  1.3617 -2.8067
  911MOL0     H22978   1.730   1.590   5.588 -0.3063  0.3802  1.9596
  911MOL0     H22979   1.475   1.682   5.501  1.4727  2.4444  1.7526
  911MOL0     H22980   1.575   1.588   5.390 -3.8416  1.4828 -2.3574
  911MOL0     H22981   1.381   1.305   5.627  1.0127 -1.5080  0.5982
  911MOL0     H22982   1.929   1.929   5.854  0.3261 -0.8691 -1.6525
  911MOL0     H22983   2.162   2.198   5.920  4.0328 -2.7545 -0.8046
  911MOL0     H22984   1.997   2.132   5.949  0.0024  1.6350 -0.6787
  911MOL0     H22985   2.138   2.058   6.024  3.1693  1.2758 -1.2080
  912MOL0     O22986   5.558   4.406   3.512  0.2477  0.1306 -0.2366
  912MOL0     C22987   5.571   4.511   3.578 -0.2125  0.2146  0.2561
  912MOL0     O22988   5.506   4.630   3.542  0.8707 -0.3766  0.1257
  912MOL0     C22989   5.412   4.614   3.448  0.5534 -0.2367  0.3513
  912MOL0     C22990   5.407   4.685   3.324  0.0899 -0.3367  0.3890
  912MOL0     C22991   5.305   4.674   3.231  0.4355  0.1019 -0.8916
  912MOL0     C22992   5.206   4.575   3.254 -0.3471  0.7095  0.2672
  912MOL0     O22993   5.104   4.538   3.167  0.5146  0.1726 -0.2799
  912MOL0     C22994   5.117   4.580   3.030 -1.0820 -1.2234  0.6729
  912MOL0     C22995   5.033   4.491   2.940  0.2675  0.4009 -0.1628
  912MOL0     C22996   4.996   4.536   2.803 -0.6469 -0.1550  0.3735
  912MOL0     C22997   4.927   4.429   2.715 -0.0467  0.2803  0.0180
  912MOL0     C22998   4.913   4.468   2.566 -0.8770 -0.7313  0.3582
  912MOL0     C22999   4.842   4.604   2.550 -0.1334 -0.6549  0.1798
  912MOL0     C23000   4.824   4.643   2.395 -0.2856  0.1579  0.2462
  912MOL0     C23001   4.800   4.796   2.373 -0.4247 -1.0290  0.4261
  912MOL0     N23002   4.677   4.846   2.428  0.1932 -0.3576  1.0375
  912MOL0     C23003   4.656   4.926   2.543 -0.7907 -0.5657 -0.6834
  912MOL0     C23004   4.533   4.980   2.525 -0.8464  0.5352  0.0723
  912MOL0     C23005   4.454   5.076   2.603  0.1992 -0.1381 -0.1860
  912MOL0     C23006   4.542   5.191   2.633 -0.5131  0.4404  0.7709
  912MOL0     C23007   4.588   5.248   2.500  0.9463 -0.3754 -0.3867
  912MOL0     C23008   4.655   5.386   2.528 -0.5379 -0.3225 -0.7006
  912MOL0     O23009   4.796   5.371   2.552  0.8232 -0.3317  0.6078
  912MOL0     C23010   4.854   5.474   2.619 -0.5463 -0.2736  0.2804
  912MOL0     C23011   4.806   5.530   2.735 -0.9733  0.3943  0.1824
  912MOL0     C23012   4.867   5.628   2.807  0.4633  0.1383  1.3483
  912MOL0     C23013   4.985   5.686   2.759 -0.6834 -0.5251 -0.7083
  912MOL0     C23014   5.041   5.797   2.834 -0.6080 -0.1650 -0.6872
  912MOL0     O23015   5.167   5.831   2.804 -0.0828 -0.3478 -0.3014
  912MOL0     C23016   5.210   5.936   2.867  0.0400 -0.0609  0.6214
  912MOL0     C23017   5.305   5.928   2.972 -0.4072  0.5178  0.0727
  912MOL0     C23018   5.364   6.048   3.034  0.7213 -0.1157  0.7956
  912MOL0     C23019   5.307   6.172   3.002 -0.2468  0.1420 -0.5307
  912MOL0     O23020   5.332   6.289   3.076  0.9922 -0.1355  0.3198
  912MOL0     C23021   5.472   6.323   3.077 -1.1444 -0.5874 -0.3100
  912MOL0     C23022   5.500   6.441   3.172  0.0570  0.1355 -0.1185
  912MOL0     C23023   5.486   6.412   3.327  0.2620  0.1763  0.8648
  912MOL0     C23024   5.600   6.336   3.386  0.7509  0.2899  0.9280
  912MOL0     C23025   5.569   6.304   3.534 -0.1508 -0.0867  0.0543
  912MOL0     C23026   5.647   6.200   3.602  0.1952  0.2240 -0.0547
  912MOL0     C23027   5.588   6.140   3.724  0.4496  0.2131 -0.9444
  912MOL0     C23028   5.692   6.055   3.797 -0.4194  0.7686  1.2102
  912MOL0    Cl23029   5.739   5.919   3.702  0.0021  0.4172 -0.4014
  912MOL0     C23030   5.213   6.183   2.903  0.0221 -0.5590  0.3537
  912MOL0     C23031   5.175   6.066   2.823 -0.1125 -0.4075  0.3168
  912MOL0     O23032   4.969   5.860   2.912 -0.0145  0.0363 -0.8060
  912MOL0     C23033   5.044   5.634   2.637  0.4837  0.3499  0.5393
  912MOL0     C23034   4.970   5.529   2.570  0.9116 -0.2333 -0.2644
  912MOL0     N23035   4.477   4.941   2.408 -0.3479 -0.0784  0.5559
  912MOL0     N23036   4.559   4.859   2.350  0.3840  1.0347  0.0242
  912MOL0     C23037   5.207   4.503   3.372 -0.8784 -0.9006  0.3269
  912MOL0     C23038   5.311   4.523   3.464  1.1246 -0.0815 -0.2105
  912MOL0     C23039   5.690   4.530   3.667  0.3544  0.6920 -0.6714
  912MOL0     C23040   5.717   4.663   3.711  0.6478  1.2249  0.4557
  912MOL0     C23041   5.823   4.687   3.800 -0.1161  0.3210 -0.1117
  912MOL0     C23042   5.911   4.582   3.833  0.4586  0.8672 -0.2692
  912MOL0     O23043   6.019   4.623   3.916  1.1597 -0.1660  0.6552
  912MOL0     C23044   6.039   4.536   4.031  0.2491  0.4478 -0.2920
  912MOL0     C23045   5.930   4.575   4.139 -0.2872  0.6222  0.8344
  912MOL0     C23046   5.922   4.447   4.233 -0.5718 -0.5322  0.6628
  912MOL0     C23047   6.061   4.424   4.291 -0.1578  0.0731  0.0130
  912MOL0     C23048   6.050   4.335   4.402 -0.1051 -1.2005 -0.0923
  912MOL0     C23049   6.019   4.271   4.494 -0.5169 -0.1968 -0.0849
  912MOL0     C23050   5.887   4.452   3.789 -0.2003  0.1885  0.0643
  912MOL0     C23051   5.777   4.426   3.708 -0.3927 -0.0506  0.2122
  912MOL0     C23052   5.787   4.292   3.648  0.8508 -0.2456 -0.2355
  912MOL0     H23053   5.495   4.748   3.311  0.6751 -0.1569  4.1571
  912MOL0     H23054   5.299   4.748   3.152 -0.4913  2.0569  0.9300
  912MOL0     H23055   5.087   4.685   3.024  0.3752 -0.8013  0.2588
  912MOL0     H23056   5.221   4.579   2.997 -1.5226 -0.5257 -0.8266
  912MOL0     H23057   4.937   4.475   2.989  1.2718  0.1349  1.8448
  912MOL0     H23058   5.084   4.395   2.925 -0.3966  0.3414 -2.3041
  912MOL0     H23059   5.091   4.561   2.755 -1.1584  1.2065  0.0318
  912MOL0     H23060   4.932   4.624   2.807 -0.1083  0.3761 -1.5295
  912MOL0     H23061   4.994   4.342   2.722  2.0447  1.8010 -0.2141
  912MOL0     H23062   4.828   4.416   2.760 -0.6196  1.1063 -0.9624
  912MOL0     H23063   5.014   4.469   2.525 -0.9493  0.4638  0.1868
  912MOL0     H23064   4.871   4.377   2.521  0.9423 -3.2185  3.3230
  912MOL0     H23065   4.745   4.604   2.600 -0.9224 -3.1905 -1.1616
  912MOL0     H23066   4.901   4.682   2.599  0.5158 -0.1085 -1.3790
  912MOL0     H23067   4.737   4.598   2.348  0.7176 -0.5622 -0.9689
  912MOL0     H23068   4.917   4.621   2.342  0.5480 -2.0802  2.4689
  912MOL0     H23069   4.881   4.855   2.418 -2.3315  0.5632  1.9404
  912MOL0     H23070   4.808   4.812   2.265  0.2994 -2.3729  0.2539
  912MOL0     H23071   4.723   4.942   2.627 -2.3641  2.2114  0.1687
  912MOL0     H23072   4.375   5.104   2.533 -1.5254  0.9826  2.0720
  912MOL0     H23073   4.412   5.033   2.694 -0.5860  1.8202  0.4273
  912MOL0     H23074   4.474   5.260   2.684 -0.5293  0.6175  0.5106
  912MOL0     H23075   4.627   5.171   2.699  0.9451  2.0385 -0.5344
  912MOL0     H23076   4.505   5.271   2.433  1.5442  3.4387 -0.0121
  912MOL0     H23077   4.663   5.176   2.465  0.8494 -0.3678 -0.6053
  912MOL0     H23078   4.602   5.426   2.615 -1.3842  1.8683 -2.1341
  912MOL0     H23079   4.651   5.468   2.456 -1.1058 -0.0363 -0.3518
  912MOL0     H23080   4.715   5.495   2.783 -0.2262 -0.2625  1.1836
  912MOL0     H23081   4.816   5.657   2.898  1.0418 -2.3454  2.5635
  912MOL0     H23082   5.325   5.829   3.011 -1.2518  0.8993  1.5594
  912MOL0     H23083   5.422   6.031   3.124 -1.2469 -2.6131  1.6985
  912MOL0     H23084   5.532   6.238   3.110 -0.4728  0.3778  1.0787
  912MOL0     H23085   5.500   6.356   2.977 -0.0763 -2.7797 -0.7928
  912MOL0     H23086   5.600   6.474   3.142 -0.7789  1.3957 -1.7371
  912MOL0     H23087   5.425   6.516   3.141 -0.5753 -0.3167  0.2884
  912MOL0     H23088   5.479   6.509   3.378  2.5351  1.3188 -0.8239
  912MOL0     H23089   5.393   6.359   3.349  0.1308 -0.1123 -0.3090
  912MOL0     H23090   5.692   6.385   3.352 -0.8370  1.4673 -1.9938
  912MOL0     H23091   5.600   6.236   3.341  1.9220  0.7984 -0.2688
  912MOL0     H23092   5.463   6.277   3.533 -0.4569  1.0606 -0.2996
  912MOL0     H23093   5.582   6.398   3.590 -1.5866 -0.9540  1.9610
  912MOL0     H23094   5.651   6.117   3.530 -1.4991  1.8944 -2.2373
  912MOL0     H23095   5.750   6.235   3.615  0.7250 -1.9517  2.3474
  912MOL0     H23096   5.498   6.081   3.701  0.6940 -1.8570  2.6674
  912MOL0     H23097   5.569   6.218   3.799  2.0418 -0.1237 -0.1504
  912MOL0     H23098   5.777   6.113   3.833 -0.8863  0.0875  3.6121
  912MOL0     H23099   5.651   6.019   3.892 -0.2945 -1.9961  0.3219
  912MOL0     H23100   5.165   6.278   2.883  0.0084 -0.0786  2.4238
  912MOL0     H23101   5.122   6.086   2.731  0.9611 -4.0795 -1.2816
  912MOL0     H23102   5.141   5.671   2.607  1.0038 -0.5550  1.0403
  912MOL0     H23103   5.013   5.494   2.476  1.9753  0.7515 -0.1689
  912MOL0     H23104   5.135   4.426   3.395  0.0576 -1.5965  1.0170
  912MOL0     H23105   5.296   4.456   3.549 -0.4920 -2.7042 -2.4137
  912MOL0     H23106   5.653   4.742   3.672 -0.1056  1.2231  1.6469
  912MOL0     H23107   5.826   4.785   3.846 -0.4919 -0.4300  1.5644
  912MOL0     H23108   6.141   4.549   4.069  0.4008 -1.2840 -0.0178
  912MOL0     H23109   6.024   4.429   4.012 -0.6158  0.0950  1.9819
  912MOL0     H23110   5.835   4.588   4.087  0.4842 -1.5148 -1.2799
  912MOL0     H23111   5.955   4.669   4.190 -2.8555  0.6110  2.2614
  912MOL0     H23112   5.883   4.368   4.169  1.1265 -0.1356 -0.9582
  912MOL0     H23113   5.859   4.464   4.321 -1.1978 -2.1285  0.5436
  912MOL0     H23114   6.134   4.367   4.233  0.4544 -0.1925  1.0286
  912MOL0     H23115   6.118   4.512   4.322  2.5861 -0.4362 -2.9950
  912MOL0     H23116   5.994   4.209   4.578 -1.5813  1.1540  0.6345
  912MOL0     H23117   5.951   4.366   3.807  0.6192  0.9621  0.9846
  912MOL0     H23118   5.832   4.215   3.712  0.3006  0.8828  1.5812
  912MOL0     H23119   5.687   4.251   3.632  1.5844 -2.0736 -0.3498
  912MOL0     H23120   5.842   4.301   3.553 -0.8814  0.7207 -1.1829
  913MOL0     O23121   8.950   5.785   0.376  0.1309  0.4520  0.5271
  913MOL0     C23122   8.893   5.770   0.482 -0.1298  0.4430 -0.6040
  913MOL0     O23123   8.956   5.760   0.604 -0.1762 -0.8163 -0.2363
  913MOL0     C23124   9.094   5.744   0.608  0.0074 -0.1791 -0.2161
  913MOL0     C23125   9.137   5.625   0.676  0.1967 -0.5149  0.1625
  913MOL0     C23126   9.273   5.604   0.698  0.8214 -0.1371  0.4300
  913MOL0     C23127   9.368   5.692   0.644  0.5493  0.1834 -0.1251
  913MOL0     O23128   9.505   5.674   0.651 -0.2192  0.0347  0.4072
  913MOL0     C23129   9.559   5.579   0.749  0.2995  0.5811 -0.8705
  913MOL0     C23130   9.710   5.599   0.751 -0.2996 -0.1317  0.0939
  913MOL0     C23131   9.786   5.539   0.870 -0.2910 -0.4260  1.1594
  913MOL0     C23132   9.761   5.587   1.011  0.3523  0.0714  0.3414
  913MOL0     C23133   9.806   5.485   1.113  0.3022 -0.7446  0.0567
  913MOL0     C23134   9.765   5.513   1.263  1.0838 -0.1730 -0.8267
  913MOL0     C23135   9.842   5.419   1.347 -1.1138 -0.6184  1.1300
  913MOL0     C23136   9.807   5.423   1.489  0.7888  0.5018  1.0476
  913MOL0     N23137   9.671   5.389   1.514  0.9496 -0.2352  0.4784
  913MOL0     C23138   9.630   5.274   1.572  0.5257  0.0563  0.2193
  913MOL0     C23139   9.499   5.296   1.595  0.7892  0.0668  0.4227
  913MOL0     C23140   9.425   5.206   1.687 -0.6886  0.0508  0.8073
  913MOL0     C23141   9.439   5.062   1.629  0.5705 -0.3340 -0.7845
  913MOL0     C23142   9.358   4.964   1.716  0.3456  0.0704 -0.4235
  913MOL0     C23143   9.214   4.966   1.688  0.5256 -0.0377  0.6768
  913MOL0     O23144   9.142   4.867   1.759  0.2359  0.2799 -0.2842
  913MOL0     C23145   9.004   4.864   1.746 -0.2978 -0.5575 -0.0723
  913MOL0     C23146   8.930   4.792   1.841  0.6294  0.2557 -0.2569
  913MOL0     C23147   8.791   4.761   1.840 -0.6998 -0.5078  0.7146
  913MOL0     C23148   8.718   4.825   1.736  0.1333  0.1131  0.4343
  913MOL0     C23149   8.568   4.803   1.737  0.2934  0.0432  1.2699
  913MOL0     O23150   8.494   4.842   1.623  0.6558  0.9243  0.4276
  913MOL0     C23151   8.358   4.806   1.608  0.2943 -0.0854 -0.4484
  913MOL0     C23152   8.316   4.746   1.489 -1.2092 -0.4039  0.0970
  913MOL0     C23153   8.175   4.740   1.463  1.0277  0.4578  0.1399
  913MOL0     C23154   8.078   4.785   1.555  0.1772 -0.5481 -0.6211
  913MOL0     O23155   7.940   4.780   1.545 -0.0300 -0.4732 -0.3176
  913MOL0     C23156   7.892   4.756   1.409 -0.0719 -0.6116  0.5022
  913MOL0     C23157   7.868   4.606   1.382  0.3598  0.1015 -0.5206
  913MOL0     C23158   7.817   4.574   1.242 -0.7926  0.1448  0.1275
  913MOL0     C23159   7.673   4.624   1.214 -0.8360  0.2384 -0.2367
  913MOL0     C23160   7.622   4.590   1.082  0.4316 -0.0388  0.0121
  913MOL0     C23161   7.491   4.655   1.046  1.3386 -0.1776  0.0236
  913MOL0     C23162   7.434   4.613   0.906 -1.4067  0.2108 -0.6390
  913MOL0     C23163   7.285   4.591   0.880 -0.9393  0.6091 -0.8020
  913MOL0    Cl23164   7.240   4.467   0.989  0.1451 -0.0006 -0.1080
  913MOL0     C23165   8.122   4.834   1.686  0.5608  0.1048  0.4326
  913MOL0     C23166   8.262   4.846   1.708 -0.4004 -0.6801 -0.0050
  913MOL0     O23167   8.529   4.746   1.838  0.9126 -0.4984 -0.2538
  913MOL0     C23168   8.790   4.896   1.635  0.2559  0.3797  0.7049
  913MOL0     C23169   8.928   4.916   1.643 -0.6250 -0.1147 -0.8880
  913MOL0     N23170   9.461   5.429   1.563 -0.0012  0.8935 -0.0551
  913MOL0     N23171   9.569   5.483   1.521  0.2629  0.5934 -0.4661
  913MOL0     C23172   9.326   5.806   0.577 -0.0081  1.2889  0.4293
  913MOL0     C23173   9.191   5.829   0.552  1.2686  0.4118  0.1623
  913MOL0     C23174   8.745   5.757   0.484 -0.0543  0.1776 -0.5346
  913MOL0     C23175   8.675   5.792   0.604 -1.0857 -0.0832  0.7633
  913MOL0     C23176   8.532   5.795   0.616  0.4865  0.1127  0.1705
  913MOL0     C23177   8.462   5.739   0.508  0.1076 -0.2028  0.0056
  913MOL0     O23178   8.322   5.738   0.499  0.7474  0.7303 -0.2030
  913MOL0     C23179   8.247   5.845   0.565  0.2676  0.5232 -0.3512
  913MOL0     C23180   8.106   5.858   0.501 -0.0152  0.5892 -0.0032
  913MOL0     C23181   8.021   5.740   0.549 -0.1995 -0.8776  0.1340
  913MOL0     C23182   7.883   5.737   0.482  0.5429  0.0058 -0.6215
  913MOL0     C23183   7.799   5.623   0.515  0.4117 -0.4302  0.7329
  913MOL0     C23184   7.719   5.540   0.546  0.5396 -0.3034 -0.4494
  913MOL0     C23185   8.535   5.709   0.397 -0.3373  1.1250  0.2063
  913MOL0     C23186   8.671   5.708   0.380 -1.1808 -0.4288  0.9016
  913MOL0     C23187   8.729   5.650   0.260  0.9359 -0.2571  1.0043
  913MOL0     H23188   9.063   5.557   0.716  0.4547 -0.9387 -0.0683
  913MOL0     H23189   9.311   5.517   0.751  1.0459 -1.5458 -1.8742
  913MOL0     H23190   9.526   5.605   0.850 -1.2390  3.8272 -2.0598
  913MOL0     H23191   9.535   5.475   0.730  0.4505  0.5515 -0.9044
  913MOL0     H23192   9.736   5.706   0.749  0.2437 -0.2372 -2.4164
  913MOL0     H23193   9.753   5.567   0.656 -0.2610  2.1100 -0.6993
  913MOL0     H23194   9.891   5.558   0.848  0.1388 -2.9001  0.7391
  913MOL0     H23195   9.789   5.429   0.865 -1.9546 -0.4862  0.8793
  913MOL0     H23196   9.815   5.680   1.032  0.2027  0.1130  0.5517
  913MOL0     H23197   9.655   5.605   1.029  0.3904 -0.7624  1.5118
  913MOL0     H23198   9.766   5.388   1.083  0.7885 -1.7704  2.5670
  913MOL0     H23199   9.915   5.477   1.102  0.5819  0.5506  1.5759
  913MOL0     H23200   9.803   5.613   1.287 -0.2071 -0.0223  0.7512
  913MOL0     H23201   9.658   5.516   1.286  0.6581 -0.6268 -2.5737
  913MOL0     H23202   9.944   5.460   1.343 -2.6768  3.6331 -1.1642
  913MOL0     H23203   9.827   5.314   1.318 -2.8049 -1.1154  3.5189
  913MOL0     H23204   9.865   5.352   1.548  1.3483 -0.7794 -0.9642
  913MOL0     H23205   9.813   5.525   1.530  2.0913  1.4772 -1.3496
  913MOL0     H23206   9.695   5.193   1.603  1.8092  0.3733 -1.4944
  913MOL0     H23207   9.454   5.226   1.790 -0.4258 -0.1393  0.7730
  913MOL0     H23208   9.319   5.229   1.680 -1.0545 -1.8686 -1.2038
  913MOL0     H23209   9.402   5.044   1.528  1.1781  0.3338 -1.1358
  913MOL0     H23210   9.544   5.032   1.623  1.5579  3.0122 -3.4535
  913MOL0     H23211   9.378   4.975   1.823  0.5234 -1.1939 -0.3220
  913MOL0     H23212   9.401   4.866   1.697 -1.3170 -0.8010  0.1655
  913MOL0     H23213   9.195   4.947   1.582  1.5034 -1.9265  0.8037
  913MOL0     H23214   9.171   5.064   1.710  0.0211  0.0602 -0.6253
  913MOL0     H23215   8.986   4.738   1.917 -1.0139  2.4935  2.7341
  913MOL0     H23216   8.755   4.712   1.930 -4.1603  2.4047  1.1479
  913MOL0     H23217   8.393   4.694   1.434 -1.8213 -0.6687 -0.5190
  913MOL0     H23218   8.163   4.684   1.371  1.4468  0.6165 -0.0150
  913MOL0     H23219   7.797   4.810   1.416 -0.5032 -1.4354  1.0846
  913MOL0     H23220   7.949   4.806   1.330 -2.4675  2.1594  0.3514
  913MOL0     H23221   7.967   4.562   1.395  0.3213 -0.4831 -2.0059
  913MOL0     H23222   7.803   4.564   1.460 -2.3090  3.5554 -0.6336
  913MOL0     H23223   7.879   4.625   1.168 -1.4341  2.1759  0.9284
  913MOL0     H23224   7.817   4.464   1.241 -0.0856  0.1301 -1.7546
  913MOL0     H23225   7.664   4.730   1.237  2.8228  0.4131  1.1012
  913MOL0     H23226   7.605   4.569   1.281 -1.3980  0.4984 -0.5844
  913MOL0     H23227   7.615   4.481   1.078 -1.7272  0.0954 -0.9995
  913MOL0     H23228   7.704   4.613   1.013  1.0889 -0.7810  0.5282
  913MOL0     H23229   7.414   4.619   1.116  2.2165 -2.1252  0.0771
  913MOL0     H23230   7.487   4.764   1.050 -3.2745 -0.0820 -1.2997
  913MOL0     H23231   7.481   4.517   0.884 -0.0982  0.2142  1.7890
  913MOL0     H23232   7.474   4.685   0.833 -2.3946  2.9174  1.3363
  913MOL0     H23233   7.215   4.673   0.897 -2.6635 -0.8265 -0.7611
  913MOL0     H23234   7.278   4.544   0.782 -1.1447 -1.7423  0.2739
  913MOL0     H23235   8.039   4.870   1.745 -0.0013  1.5812 -1.1873
  913MOL0     H23236   8.294   4.901   1.796  1.4937 -0.4482 -0.7774
  913MOL0     H23237   8.729   4.941   1.558  1.4698  0.6538 -0.1085
  913MOL0     H23238   8.975   4.963   1.557  0.6575  3.3642  1.4602
  913MOL0     H23239   9.406   5.867   0.537 -0.7314  3.7592  2.5347
  913MOL0     H23240   9.159   5.920   0.503  0.4280  0.5663  0.9717
  913MOL0     H23241   8.734   5.832   0.686  1.0007 -0.6487 -0.3889
  913MOL0     H23242   8.484   5.823   0.710  1.2600 -1.8587  1.2070
  913MOL0     H23243   8.286   5.948   0.565 -1.3431  1.1801 -1.2885
  913MOL0     H23244   8.248   5.816   0.670 -2.1582  0.6302 -0.2456
  913MOL0     H23245   8.114   5.853   0.392 -1.5628 -2.0809 -0.0898
  913MOL0     H23246   8.057   5.953   0.522 -3.6529 -1.0199 -0.5807
  913MOL0     H23247   8.019   5.733   0.658  0.5438 -1.1287  0.1357
  913MOL0     H23248   8.073   5.651   0.513 -0.3709 -0.2364 -1.8236
  913MOL0     H23249   7.819   5.820   0.512 -1.8944 -1.4952 -1.3445
  913MOL0     H23250   7.890   5.758   0.375  0.9327 -0.8665 -0.7799
  913MOL0     H23251   7.650   5.462   0.573 -1.5837  1.3408 -0.8317
  913MOL0     H23252   8.477   5.668   0.315 -0.2375  0.9888  0.2039
  913MOL0     H23253   8.775   5.733   0.206  0.8955 -0.2653  0.9569
  913MOL0     H23254   8.815   5.587   0.282  1.7903  0.7644  0.6536
  913MOL0     H23255   8.655   5.592   0.203  1.7832 -0.7396  0.3646
  914MOL0     O23256   6.048  10.087   0.440 -0.2694  0.7429  0.1516
  914MOL0     C23257   5.970  10.157   0.377  1.0470 -0.9735 -0.1246
  914MOL0     O23258   5.988  10.195   0.248 -0.4570 -0.1534 -0.0465
  914MOL0     C23259   6.090  10.141   0.181  0.0007 -0.3939  0.3071
  914MOL0     C23260   6.217  10.106   0.233  0.9465 -0.7444  0.7358
  914MOL0     C23261   6.311  10.050   0.145  0.8959 -0.2840  0.5223
  914MOL0     C23262   6.286  10.027   0.007 -0.5828  0.0551  0.6482
  914MOL0     O23263   6.400   9.991  -0.070  0.3519 -0.0231  0.1458
  914MOL0     C23264   6.382   9.994  -0.213 -0.0295  0.1519 -0.5663
  914MOL0     C23265   6.418  10.141  -0.254 -1.0202  0.7313  0.0897
  914MOL0     C23266   6.560  10.194  -0.235 -0.0762 -0.2869 -0.3038
  914MOL0     C23267   6.579  10.334  -0.284  0.7196 -0.1913  0.0536
  914MOL0     C23268   6.729  10.369  -0.282  0.7050 -0.0170 -0.7107
  914MOL0     C23269   6.740  10.502  -0.366  0.6105  0.6949  0.2370
  914MOL0     C23270   6.886  10.549  -0.382 -0.9200 -0.7520 -0.8707
  914MOL0     C23271   6.947  10.609  -0.254 -0.0542 -0.2198  0.3832
  914MOL0     N23272   7.082  10.644  -0.262 -0.5701 -0.7599  0.7659
  914MOL0     C23273   7.134  10.749  -0.335 -0.2752 -0.2392 -0.0209
  914MOL0     C23274   7.266  10.740  -0.330 -0.6869 -0.8296  0.0077
  914MOL0     C23275   7.360  10.816  -0.425 -0.1601 -0.7695  0.1163
  914MOL0     C23276   7.510  10.788  -0.416 -0.4177  0.4824 -0.2192
  914MOL0     C23277   7.577  10.829  -0.283  0.7279 -0.2204  0.4942
  914MOL0     C23278   7.727  10.810  -0.305 -0.0237  1.0660  0.0251
  914MOL0     O23279   7.785  10.850  -0.180 -0.1122 -0.0187  0.0205
  914MOL0     C23280   7.911  10.886  -0.177 -0.5893 -0.2028  0.3487
  914MOL0     C23281   7.998  10.846  -0.284 -0.1991 -0.6598  0.1676
  914MOL0     C23282   8.130  10.895  -0.284  0.5630  0.3393 -0.2300
  914MOL0     C23283   8.185  10.971  -0.186 -0.0908  0.1722 -0.1426
  914MOL0     C23284   8.320  11.028  -0.214 -0.1211 -0.1322 -0.2585
  914MOL0     O23285   8.360  11.050  -0.342 -0.4274 -0.3361  0.1530
  914MOL0     C23286   8.471  11.126  -0.369  0.8768  0.6534  0.1104
  914MOL0     C23287   8.507  11.237  -0.301  0.1477  0.8258 -0.5902
  914MOL0     C23288   8.623  11.305  -0.329 -0.7423  0.9223  1.5711
  914MOL0     C23289   8.698  11.277  -0.448  0.4554 -0.8669 -0.5855
  914MOL0     O23290   8.810  11.353  -0.488  0.2893 -0.0869  0.8174
  914MOL0     C23291   8.810  11.487  -0.425 -0.2615  0.2745 -0.2343
  914MOL0     C23292   8.903  11.565  -0.519  0.1861  0.2237 -1.2562
  914MOL0     C23293   8.919  11.708  -0.473  0.3433 -0.2944  0.0911
  914MOL0     C23294   8.893  11.743  -0.330  0.1078 -0.3249 -0.2625
  914MOL0     C23295   8.909  11.890  -0.290 -1.1090  0.4647  0.5382
  914MOL0     C23296   8.935  11.900  -0.142 -0.5905  0.4243  0.0442
  914MOL0     C23297   8.957  12.047  -0.105  0.9030  0.8688  0.2831
  914MOL0     C23298   9.006  12.079   0.037  0.3041  0.2017  0.3342
  914MOL0    Cl23299   9.014  12.252   0.064  0.0521  0.2948  0.1650
  914MOL0     C23300   8.653  11.173  -0.530 -0.9929 -0.2701 -0.2689
  914MOL0     C23301   8.543  11.095  -0.491  0.0584  0.4515  1.2250
  914MOL0     O23302   8.391  11.044  -0.113 -0.0413  0.4661  0.7380
  914MOL0     C23303   8.105  10.992  -0.072  0.3130 -0.5905  0.4455
  914MOL0     C23304   7.965  10.950  -0.066 -0.3538 -0.4401  0.6969
  914MOL0     N23305   7.292  10.632  -0.244  0.0095 -0.1884  0.2801
  914MOL0     N23306   7.186  10.577  -0.197 -1.3706  0.2847  0.5408
  914MOL0     C23307   6.157  10.043  -0.034  0.7739  0.9154  0.2723
  914MOL0     C23308   6.059  10.098   0.053 -0.2336 -0.2785  0.1347
  914MOL0     C23309   5.847  10.205   0.450 -0.5263 -0.7594  0.0709
  914MOL0     C23310   5.747  10.273   0.368 -0.3185  0.2240 -0.5918
  914MOL0     C23311   5.627  10.326   0.419  0.4767 -0.0048 -0.6510
  914MOL0     C23312   5.596  10.304   0.550 -0.6088  0.4100  0.4433
  914MOL0     O23313   5.470  10.348   0.587  0.0651 -0.4152 -0.4486
  914MOL0     C23314   5.409  10.298   0.709 -0.8165 -0.2344 -0.8181
  914MOL0     C23315   5.379  10.151   0.693 -0.6092  0.0264 -0.3303
  914MOL0     C23316   5.378  10.083   0.830 -0.4446 -0.4109  0.2391
  914MOL0     C23317   5.341   9.938   0.806  0.3154 -0.5242  0.8665
  914MOL0     C23318   5.287   9.870   0.924 -0.2690 -0.8288 -0.2840
  914MOL0     C23319   5.248   9.811   1.022  1.0066  0.2545  0.8906
  914MOL0     C23320   5.693  10.244   0.635  0.3372  0.3189  0.2208
  914MOL0     C23321   5.815  10.191   0.585 -0.5957 -0.6378  0.6390
  914MOL0     C23322   5.901  10.117   0.691  0.6780 -0.2419  1.2139
  914MOL0     H23323   6.259  10.143   0.326  2.6556  0.5296 -0.4849
  914MOL0     H23324   6.418  10.046   0.163  1.2361 -2.2892 -1.4398
  914MOL0     H23325   6.460   9.926  -0.248  1.2529  0.8308  0.8195
  914MOL0     H23326   6.287   9.963  -0.257  0.1382  1.9534 -2.3452
  914MOL0     H23327   6.357  10.216  -0.201 -0.2630  1.3323  0.1323
  914MOL0     H23328   6.395  10.147  -0.361 -0.2208 -0.7658 -0.1768
  914MOL0     H23329   6.634  10.137  -0.291 -0.4695 -0.0617 -1.0553
  914MOL0     H23330   6.573  10.189  -0.126  0.7799 -0.5134 -0.4048
  914MOL0     H23331   6.545  10.338  -0.388 -2.8188  2.9544  1.1031
  914MOL0     H23332   6.510  10.403  -0.235  0.0692 -2.1219  2.0597
  914MOL0     H23333   6.759  10.376  -0.177 -2.5579  1.0699  0.2804
  914MOL0     H23334   6.784  10.294  -0.338 -0.1275  0.0552 -1.6601
  914MOL0     H23335   6.701  10.483  -0.467  0.2190  2.1834  0.0918
  914MOL0     H23336   6.680  10.584  -0.327 -1.9896 -1.1779  0.4055
  914MOL0     H23337   6.890  10.638  -0.446  0.5068  0.3198  0.6380
  914MOL0     H23338   6.960  10.478  -0.420 -0.7104 -1.2054  0.3530
  914MOL0     H23339   6.880  10.685  -0.214  0.0288 -0.1992  0.4824
  914MOL0     H23340   6.944  10.537  -0.172  0.5639 -0.0754  0.5393
  914MOL0     H23341   7.081  10.817  -0.401  1.3118 -1.4952 -2.7377
  914MOL0     H23342   7.335  10.797  -0.529 -0.5576  0.4153 -0.0167
  914MOL0     H23343   7.346  10.923  -0.409 -3.2004 -0.8092 -1.4767
  914MOL0     H23344   7.529  10.684  -0.444  0.7669  1.1612 -2.1173
  914MOL0     H23345   7.556  10.847  -0.495  0.8728  0.8510  0.7720
  914MOL0     H23346   7.542  10.770  -0.198 -1.8155  1.8414  0.9791
  914MOL0     H23347   7.565  10.936  -0.263  1.2305  0.7293 -3.4994
  914MOL0     H23348   7.775  10.871  -0.382  1.6637  0.6808  0.7233
  914MOL0     H23349   7.739  10.705  -0.331 -3.5703  0.9087 -1.3987
  914MOL0     H23350   7.967  10.790  -0.371 -0.1305  2.6742 -2.1837
  914MOL0     H23351   8.189  10.866  -0.370  0.3786 -2.4876  0.4936
  914MOL0     H23352   8.451  11.258  -0.210  0.5982 -1.1403  0.2133
  914MOL0     H23353   8.642  11.372  -0.246 -0.3673  1.1954  1.2707
  914MOL0     H23354   8.717  11.542  -0.416 -0.6050 -0.3666  0.1882
  914MOL0     H23355   8.863  11.477  -0.330 -1.0366 -0.7461  0.1090
  914MOL0     H23356   9.001  11.517  -0.531  0.7026  1.0157 -0.3559
  914MOL0     H23357   8.863  11.564  -0.621 -0.7524 -0.3275 -0.8929
  914MOL0     H23358   9.023  11.741  -0.480  0.7026 -0.8121  2.3241
  914MOL0     H23359   8.860  11.778  -0.534  0.5210 -0.4725 -0.2858
  914MOL0     H23360   8.963  11.678  -0.277 -0.7696  1.0960  2.8883
  914MOL0     H23361   8.791  11.720  -0.296  1.1275  0.1721  3.6585
  914MOL0     H23362   8.818  11.947  -0.311  1.3389  4.4171 -0.3272
  914MOL0     H23363   8.984  11.942  -0.350  0.0999 -0.6576  1.0207
  914MOL0     H23364   8.858  11.845  -0.087  1.2927  0.6020  3.0943
  914MOL0     H23365   9.024  11.840  -0.118  2.1191  2.7390 -3.1682
  914MOL0     H23366   8.865  12.105  -0.122  0.6835  1.5212  3.1939
  914MOL0     H23367   9.032  12.085  -0.175  1.5876  0.2487  0.6651
  914MOL0     H23368   8.941  12.028   0.108 -0.2624 -2.0084 -1.6402
  914MOL0     H23369   9.104  12.038   0.060 -0.3214 -1.1667  0.6387
  914MOL0     H23370   8.711  11.159  -0.621  0.3193 -0.6651  0.6019
  914MOL0     H23371   8.505  11.017  -0.556 -0.8029  2.9330 -1.5039
  914MOL0     H23372   8.153  11.032   0.017  1.6898  1.2817 -1.0317
  914MOL0     H23373   7.900  10.971   0.018 -3.9202  0.0583 -1.9355
  914MOL0     H23374   6.130  10.022  -0.137  2.1452  1.2489 -0.1801
  914MOL0     H23375   5.957  10.103   0.018 -1.7552 -1.8976  3.7481
  914MOL0     H23376   5.776  10.284   0.264  1.4756 -3.1886 -0.6355
  914MOL0     H23377   5.549  10.385   0.373  0.5304 -0.5254 -1.4282
  914MOL0     H23378   5.317  10.357   0.713 -0.0998  0.8212  1.5977
  914MOL0     H23379   5.480  10.328   0.786 -0.0322  0.7087 -1.8689
  914MOL0     H23380   5.443  10.113   0.613 -0.6827  0.0247 -0.3886
  914MOL0     H23381   5.276  10.147   0.658 -1.4258  1.6109  1.6566
  914MOL0     H23382   5.309  10.133   0.899 -0.2957  2.5728 -1.5705
  914MOL0     H23383   5.478  10.082   0.875 -1.0326 -2.1539  1.6050
  914MOL0     H23384   5.266   9.935   0.727  1.2119  0.6132 -0.0656
  914MOL0     H23385   5.425   9.882   0.764 -1.0598 -2.6788  0.8470
  914MOL0     H23386   5.195   9.748   1.090  0.4903 -0.8761 -0.5144
  914MOL0     H23387   5.667  10.219   0.738  0.4185 -1.0643 -0.0808
  914MOL0     H23388   6.000  10.165   0.686  0.5562 -0.1087 -0.2249
  914MOL0     H23389   5.861  10.144   0.789  0.1221  0.3952  0.8262
  914MOL0     H23390   5.914  10.010   0.676  2.7561  0.3203 -1.9508
  915MOL0     O23391   6.868   7.568   3.804  0.6405  0.6640 -0.0245
  915MOL0     C23392   6.862   7.487   3.902  0.3053 -0.2637 -0.4413
  915MOL0     O23393   6.978   7.441   3.962  0.4079 -0.0844 -0.6633
  915MOL0     C23394   7.106   7.500   3.944  0.1996 -1.3215  0.1412
  915MOL0     C23395   7.118   7.638   3.919 -0.4885 -0.1712 -0.4985
  915MOL0     C23396   7.242   7.698   3.877 -0.9779  0.1954 -0.1955
  915MOL0     C23397   7.360   7.616   3.876  0.3033 -0.8274 -0.6995
  915MOL0     O23398   7.474   7.672   3.838  0.4414  0.0333 -0.4331
  915MOL0     C23399   7.567   7.680   3.944 -0.7626  0.0565  0.1656
  915MOL0     C23400   7.693   7.737   3.892  0.7518 -0.8351  1.0505
  915MOL0     C23401   7.807   7.744   3.985  0.1019 -0.0709 -0.5607
  915MOL0     C23402   7.926   7.828   3.950  0.3242  0.1346 -0.0988
  915MOL0     C23403   8.040   7.811   4.058  0.8640  0.8148 -0.2359
  915MOL0     C23404   8.118   7.679   4.046 -0.0288  0.0214  0.0031
  915MOL0     C23405   8.248   7.678   4.134  0.3615 -0.1745  1.0198
  915MOL0     C23406   8.211   7.640   4.277  1.2487  0.4403 -1.0591
  915MOL0     N23407   8.322   7.587   4.354  0.0836  0.9654 -0.8223
  915MOL0     C23408   8.351   7.454   4.380 -0.7807 -0.1069 -0.5219
  915MOL0     C23409   8.458   7.454   4.468 -0.0223  0.1724 -0.9618
  915MOL0     C23410   8.515   7.344   4.550  0.3960 -0.6980 -0.8091
  915MOL0     C23411   8.675   7.337   4.546  0.1311 -0.1745  0.8661
  915MOL0     C23412   8.723   7.251   4.430 -0.9156  0.0577 -0.0838
  915MOL0     C23413   8.871   7.246   4.452 -0.6465  0.9431  0.9980
  915MOL0     O23414   8.921   7.134   4.386  0.6250  0.0081  0.6110
  915MOL0     C23415   9.056   7.093   4.426  0.1045 -0.0140 -0.0629
  915MOL0     C23416   9.099   6.985   4.352  0.1064 -0.2093  0.6804
  915MOL0     C23417   9.222   6.922   4.385  0.0056 -0.1920  0.6711
  915MOL0     C23418   9.307   6.971   4.485  0.1495 -0.2850  0.0165
  915MOL0     C23419   9.436   6.911   4.515 -0.2345  0.1932 -0.0693
  915MOL0     O23420   9.473   6.813   4.431  0.1655 -0.5669  0.1185
  915MOL0     C23421   9.602   6.775   4.451 -0.0979 -0.5479  0.3381
  915MOL0     C23422   9.626   6.682   4.553  0.3350  1.4279 -0.0634
  915MOL0     C23423   9.751   6.632   4.582  0.1665 -0.5928  0.2013
  915MOL0     C23424   9.863   6.662   4.495 -0.4040  0.2660 -0.3974
  915MOL0     O23425   9.991   6.603   4.511  0.7728  0.0021  0.3005
  915MOL0     C23426  10.112   6.674   4.481  0.0650  0.5912  0.6700
  915MOL0     C23427  10.203   6.662   4.608 -1.1073 -0.5913 -0.2138
  915MOL0     C23428  10.141   6.746   4.714 -0.7712 -0.8050 -0.1792
  915MOL0     C23429  10.221   6.742   4.841 -0.1261  0.4817  0.1846
  915MOL0     C23430  10.174   6.835   4.949  0.5420  0.2465  0.5515
  915MOL0     C23431  10.178   6.989   4.920 -0.6905  0.7692 -0.1298
  915MOL0     C23432  10.333   7.036   4.916  0.4716  0.2276 -0.8446
  915MOL0     C23433  10.338   7.193   4.937 -0.7491  0.2221 -0.5190
  915MOL0    Cl23434  10.517   7.231   4.958  0.0813  0.2236 -0.1392
  915MOL0     C23435   9.837   6.759   4.398 -0.6855  0.3504 -0.0743
  915MOL0     C23436   9.707   6.822   4.377  0.1604 -0.6002 -0.1580
  915MOL0     O23437   9.501   6.941   4.619  0.4262 -0.3776 -0.3595
  915MOL0     C23438   9.276   7.100   4.540  1.4465  0.3838 -0.1251
  915MOL0     C23439   9.146   7.153   4.518 -0.3073  0.2540  0.0691
  915MOL0     N23440   8.504   7.587   4.484  0.5623 -0.3295  0.3590
  915MOL0     N23441   8.409   7.669   4.424 -0.7885 -0.0914  0.5307
  915MOL0     C23442   7.349   7.483   3.912 -0.1440  0.6153  0.6915
  915MOL0     C23443   7.223   7.424   3.942  0.2973  0.2141 -0.3815
  915MOL0     C23444   6.732   7.417   3.927  0.2574 -0.7072 -0.2571
  915MOL0     C23445   6.737   7.303   4.020 -0.1463 -0.2541 -0.1609
  915MOL0     C23446   6.620   7.240   4.069  0.0295  0.7392 -0.2546
  915MOL0     C23447   6.502   7.281   4.013  0.3135 -0.0892  0.3057
  915MOL0     O23448   6.385   7.235   4.064  0.8920  0.5105  0.4059
  915MOL0     C23449   6.301   7.171   3.975  0.6114 -0.1008  0.1647
  915MOL0     C23450   6.206   7.088   4.062 -0.0526  0.6466  0.8209
  915MOL0     C23451   6.112   7.173   4.142  0.2520 -0.2222  0.3816
  915MOL0     C23452   6.003   7.093   4.207 -0.2730  0.6621 -0.3725
  915MOL0     C23453   5.900   7.172   4.274  0.7729 -0.5449 -0.0553
  915MOL0     C23454   5.820   7.230   4.353 -0.3995 -0.9132  1.0327
  915MOL0     C23455   6.489   7.377   3.911 -0.4377 -0.3235  0.7134
  915MOL0     C23456   6.599   7.448   3.867 -0.0595  0.4870  0.0993
  915MOL0     C23457   6.574   7.570   3.780  0.2268 -1.1075 -0.6100
  915MOL0     H23458   7.027   7.696   3.913 -1.8374 -2.3272 -3.6749
  915MOL0     H23459   7.249   7.803   3.853 -2.5111  0.2836 -0.3423
  915MOL0     H23460   7.527   7.746   4.022 -0.4530 -1.3942  1.6059
  915MOL0     H23461   7.594   7.584   3.989 -3.0928  0.7553  3.4556
  915MOL0     H23462   7.673   7.844   3.877  4.2795 -0.4062 -1.9196
  915MOL0     H23463   7.719   7.690   3.797  1.2936 -0.5247  1.0438
  915MOL0     H23464   7.825   7.639   4.011 -1.1005 -0.0377  0.4821
  915MOL0     H23465   7.774   7.792   4.077 -1.7052 -1.1488 -0.5943
  915MOL0     H23466   7.952   7.788   3.851  1.0196  0.9367 -0.2593
  915MOL0     H23467   7.903   7.935   3.938  4.1424  0.8768 -2.4639
  915MOL0     H23468   8.099   7.901   4.038  0.3116  1.1390 -0.4355
  915MOL0     H23469   7.995   7.826   4.157 -0.3060 -0.6269 -0.5168
  915MOL0     H23470   8.044   7.602   4.071  0.3497 -1.0211 -1.8708
  915MOL0     H23471   8.138   7.672   3.938 -1.7181 -1.6888 -0.2590
  915MOL0     H23472   8.300   7.775   4.130  0.2863 -0.1611  0.2949
  915MOL0     H23473   8.318   7.608   4.088  0.4743  1.4531 -1.4871
  915MOL0     H23474   8.161   7.724   4.327  0.6345 -1.0903  1.0845
  915MOL0     H23475   8.147   7.551   4.274  1.0300  0.3574  2.1727
  915MOL0     H23476   8.288   7.367   4.361  1.7245 -2.0639 -0.4162
  915MOL0     H23477   8.477   7.364   4.651 -2.5834  0.2493 -1.9968
  915MOL0     H23478   8.460   7.252   4.528 -1.9553  0.3135  0.4330
  915MOL0     H23479   8.715   7.438   4.534  1.9625 -1.1549 -3.0765
  915MOL0     H23480   8.699   7.287   4.640  1.5958 -0.0860  0.5537
  915MOL0     H23481   8.696   7.280   4.328 -0.0510  0.6463 -0.1525
  915MOL0     H23482   8.683   7.153   4.457  0.3808 -0.7374 -0.9444
  915MOL0     H23483   8.895   7.232   4.558  0.8560  0.5875  0.6365
  915MOL0     H23484   8.923   7.333   4.411 -2.0583  1.1354 -0.4826
  915MOL0     H23485   9.031   6.945   4.277 -1.0332  2.8193 -0.0624
  915MOL0     H23486   9.243   6.828   4.335  0.1066  1.2239 -2.1927
  915MOL0     H23487   9.550   6.638   4.617  0.3291  1.9147  0.2663
  915MOL0     H23488   9.770   6.562   4.664  2.0636 -0.4979 -0.1056
  915MOL0     H23489  10.152   6.621   4.394  0.7558  0.9004  0.7917
  915MOL0     H23490  10.110   6.781   4.456  1.6490 -0.0463 -2.7439
  915MOL0     H23491  10.212   6.556   4.635 -0.8664 -1.4438 -3.2684
  915MOL0     H23492  10.305   6.698   4.591 -1.2536  0.5798  1.1800
  915MOL0     H23493  10.140   6.851   4.683 -1.2572 -0.8849 -0.4359
  915MOL0     H23494  10.041   6.711   4.741 -1.6207  1.7779  0.2586
  915MOL0     H23495  10.324   6.768   4.817 -0.6210  4.4516  1.5232
  915MOL0     H23496  10.213   6.644   4.889 -0.8359  0.2780 -0.3333
  915MOL0     H23497  10.220   6.816   5.046  0.5013 -0.5474  0.4272
  915MOL0     H23498  10.070   6.811   4.973  0.3945 -0.3370 -0.5788
  915MOL0     H23499  10.128   7.016   4.826 -3.0612 -1.1888  0.4642
  915MOL0     H23500  10.119   7.037   4.999 -0.6736  0.8646 -0.1744
  915MOL0     H23501  10.378   7.017   4.818  4.5562  1.1982  0.6108
  915MOL0     H23502  10.394   6.983   4.990 -0.5328 -0.5260 -0.5522
  915MOL0     H23503  10.287   7.251   4.860 -0.9057  1.4753  0.4984
  915MOL0     H23504  10.288   7.219   5.031 -0.7059  2.1699 -0.9940
  915MOL0     H23505   9.924   6.797   4.345  0.8374  3.0617  3.8583
  915MOL0     H23506   9.702   6.911   4.314  3.5771  0.7313  1.1886
  915MOL0     H23507   9.334   7.146   4.620  0.0662  1.8321  0.0870
  915MOL0     H23508   9.127   7.243   4.576  0.5132 -0.2190  1.1037
  915MOL0     H23509   7.431   7.412   3.909  3.7679  4.7535 -1.6210
  915MOL0     H23510   7.223   7.322   3.980  1.5870  0.2770 -0.1626
  915MOL0     H23511   6.824   7.253   4.062 -1.0491 -0.6939  1.2726
  915MOL0     H23512   6.616   7.166   4.148  1.2827  0.4005 -0.4775
  915MOL0     H23513   6.354   7.102   3.909 -3.2866 -0.2481 -3.2323
  915MOL0     H23514   6.240   7.236   3.911 -0.6123 -1.0663  0.3088
  915MOL0     H23515   6.270   7.038   4.135  0.5011  0.6471  0.3378
  915MOL0     H23516   6.156   7.018   3.994  2.5625 -0.6385  0.1144
  915MOL0     H23517   6.067   7.249   4.078  0.1488 -0.2362  0.4381
  915MOL0     H23518   6.175   7.218   4.219  0.0392 -1.4134  1.2718
  915MOL0     H23519   5.963   7.016   4.141 -0.4098 -0.8150  1.3608
  915MOL0     H23520   6.055   7.039   4.286  1.3006  1.2983 -0.9168
  915MOL0     H23521   5.747   7.282   4.411 -0.3414  0.2048  0.1348
  915MOL0     H23522   6.394   7.401   3.863  0.4998  1.5850 -0.3117
  915MOL0     H23523   6.609   7.556   3.677  0.7163  0.6770 -0.7244
  915MOL0     H23524   6.474   7.613   3.780  1.2727  1.7389  2.3559
  915MOL0     H23525   6.634   7.648   3.828 -1.4983 -0.8492  1.2647
  916MOL0     O23526   2.450   7.686   7.629  0.1230  0.1221  0.1829
  916MOL0     C23527   2.360   7.754   7.670  0.1469 -0.2004 -0.3028
  916MOL0     O23528   2.367   7.895   7.688  0.1266  0.2064  0.7556
  916MOL0     C23529   2.486   7.967   7.675  0.8341 -0.2427 -0.2096
  916MOL0     C23530   2.617   7.918   7.662  0.2578 -0.3515 -0.7110
  916MOL0     C23531   2.732   8.000   7.661  0.1917  0.3688 -1.0777
  916MOL0     C23532   2.721   8.138   7.674  0.2800 -0.6814  0.1201
  916MOL0     O23533   2.829   8.226   7.684 -0.0539  0.1617 -0.4307
  916MOL0     C23534   2.959   8.187   7.630  0.3071 -0.9075 -0.0754
  916MOL0     C23535   3.069   8.260   7.704  0.6844  0.3600  0.3289
  916MOL0     C23536   3.211   8.219   7.661  0.2457 -0.2040 -0.1005
  916MOL0     C23537   3.272   8.122   7.759  0.2325 -0.3564 -0.3000
  916MOL0     C23538   3.390   8.046   7.701 -0.3532 -1.1886  0.0136
  916MOL0     C23539   3.508   8.135   7.695 -0.5804  0.5184 -0.8325
  916MOL0     C23540   3.631   8.087   7.616  0.0759 -0.8503 -0.2104
  916MOL0     C23541   3.692   7.968   7.688  1.0524  1.1365  0.3281
  916MOL0     N23542   3.803   7.909   7.608 -0.0846 -0.2866 -0.0006
  916MOL0     C23543   3.805   7.905   7.467  0.3305 -0.0361 -0.6373
  916MOL0     C23544   3.935   7.866   7.445  0.1072  0.2760  0.0247
  916MOL0     C23545   3.985   7.834   7.302  0.2487  0.3755 -0.9982
  916MOL0     C23546   4.123   7.890   7.274  0.8135  0.2078 -0.7439
  916MOL0     C23547   4.192   7.830   7.155  0.9285  0.6957  0.3943
  916MOL0     C23548   4.341   7.881   7.158 -0.0613  0.5239  1.1720
  916MOL0     O23549   4.416   7.827   7.050 -0.0044 -0.1962 -0.1519
  916MOL0     C23550   4.549   7.838   7.038  0.4320 -0.6410  0.0613
  916MOL0     C23551   4.633   7.925   7.111  1.2452  0.9958  0.2597
  916MOL0     C23552   4.770   7.938   7.085  1.1879 -0.2903 -0.5952
  916MOL0     C23553   4.824   7.855   6.985 -0.2130 -0.1805 -0.2867
  916MOL0     C23554   4.972   7.864   6.969 -0.3901  0.0490  0.2265
  916MOL0     O23555   5.041   7.955   7.048  0.4040 -1.0115 -0.6053
  916MOL0     C23556   5.164   7.991   6.999  0.2747 -0.2061 -0.1419
  916MOL0     C23557   5.186   8.110   6.927  0.0456 -0.1842  0.8411
  916MOL0     C23558   5.318   8.157   6.907  0.7328 -0.0040  0.6921
  916MOL0     C23559   5.428   8.074   6.945 -0.1205 -0.1929 -0.3636
  916MOL0     O23560   5.562   8.120   6.939  0.0125 -0.5517  0.3981
  916MOL0     C23561   5.590   8.257   6.983 -1.1508  0.0693  0.0080
  916MOL0     C23562   5.583   8.285   7.130 -0.4669 -0.3363  0.0752
  916MOL0     C23563   5.710   8.255   7.209  0.4624  0.7801 -0.5512
  916MOL0     C23564   5.694   8.301   7.361  0.7356 -0.2224 -0.6414
  916MOL0     C23565   5.824   8.362   7.425  0.0698 -0.1489 -1.3434
  916MOL0     C23566   5.960   8.300   7.382 -0.0835  0.5801 -0.5085
  916MOL0     C23567   6.064   8.334   7.497  0.2566  0.0640 -0.2996
  916MOL0     C23568   6.165   8.214   7.483 -0.8547 -0.6267  0.4555
  916MOL0    Cl23569   6.315   8.276   7.570 -0.0564  0.0918 -0.3672
  916MOL0     C23570   5.401   7.950   7.014  0.3352 -0.8590  0.5534
  916MOL0     C23571   5.270   7.910   7.030  0.3187  0.6925 -0.3750
  916MOL0     O23572   5.027   7.787   6.885  0.3920  0.6077 -0.0087
  916MOL0     C23573   4.739   7.770   6.905 -0.8389 -0.3547 -0.8419
  916MOL0     C23574   4.604   7.765   6.938 -0.2000 -0.5883  0.1816
  916MOL0     N23575   4.009   7.856   7.560 -1.9817  0.4679 -0.3440
  916MOL0     N23576   3.929   7.881   7.660 -0.1909 -0.0919  0.0051
  916MOL0     C23577   2.594   8.190   7.690  0.6820  0.3445 -0.9909
  916MOL0     C23578   2.475   8.107   7.692  0.7652 -1.1757  0.2181
  916MOL0     C23579   2.225   7.692   7.708  0.0153 -0.1331 -0.6477
  916MOL0     C23580   2.124   7.771   7.766  0.4522 -0.4070  0.4947
  916MOL0     C23581   1.998   7.712   7.789 -0.6641 -1.3035  0.2104
  916MOL0     C23582   1.965   7.581   7.757  0.2312  0.4873  0.1065
  916MOL0     O23583   1.832   7.530   7.767 -0.0136 -0.2940  1.0424
  916MOL0     C23584   1.785   7.435   7.671 -0.3086  0.5954  0.7648
  916MOL0     C23585   1.753   7.301   7.745 -0.4558 -0.1919  0.7060
  916MOL0     C23586   1.709   7.189   7.649  0.3249 -0.6747 -0.0920
  916MOL0     C23587   1.695   7.056   7.725  0.3991 -0.5490 -0.4012
  916MOL0     C23588   1.594   6.983   7.651  0.2270  0.1424  0.6255
  916MOL0     C23589   1.524   6.913   7.585  0.3612  0.5835  0.4463
  916MOL0     C23590   2.060   7.508   7.693 -1.0838 -0.1209  0.3785
  916MOL0     C23591   2.188   7.556   7.671 -0.3146  0.3459 -1.0423
  916MOL0     C23592   2.285   7.456   7.598  0.2868 -0.0067  0.7284
  916MOL0     H23593   2.642   7.813   7.657  0.0887 -0.4479  0.2280
  916MOL0     H23594   2.829   7.954   7.667 -0.8818 -1.8942  2.8517
  916MOL0     H23595   2.974   8.081   7.654  1.2106  0.0257  4.2661
  916MOL0     H23596   2.969   8.202   7.522 -2.0636  2.4418  0.0287
  916MOL0     H23597   3.050   8.241   7.810 -0.2809 -3.4057 -0.3572
  916MOL0     H23598   3.059   8.367   7.684  0.6461  0.5639  1.3674
  916MOL0     H23599   3.269   8.311   7.672 -2.3361  1.1349  4.9176
  916MOL0     H23600   3.216   8.190   7.555 -0.8044 -1.3036  0.1236
  916MOL0     H23601   3.294   8.176   7.852  0.7199 -0.4293 -0.3731
  916MOL0     H23602   3.200   8.046   7.790  0.4703  0.5938  2.9878
  916MOL0     H23603   3.408   7.960   7.767  0.2159  0.1578  1.6998
  916MOL0     H23604   3.361   8.009   7.603  0.8948 -0.5360 -0.6235
  916MOL0     H23605   3.482   8.232   7.649 -0.1543  1.0732  0.0725
  916MOL0     H23606   3.543   8.150   7.797 -0.1367  0.5223 -0.9844
  916MOL0     H23607   3.709   8.163   7.606  0.7918 -1.5717 -0.2152
  916MOL0     H23608   3.613   8.059   7.512  2.7169 -1.6737 -0.5304
  916MOL0     H23609   3.730   7.987   7.789 -0.7588  1.3423  1.0122
  916MOL0     H23610   3.616   7.889   7.686  0.8368  1.3468  0.2388
  916MOL0     H23611   3.724   7.923   7.397  0.6059  1.1145 -0.6790
  916MOL0     H23612   3.992   7.725   7.294 -0.6189  0.3422 -1.4772
  916MOL0     H23613   3.915   7.865   7.224  2.9893 -0.9637 -4.2495
  916MOL0     H23614   4.108   7.997   7.255  0.4327 -0.0739 -2.1458
  916MOL0     H23615   4.190   7.872   7.358  3.6785 -0.3699 -2.9957
  916MOL0     H23616   4.143   7.852   7.060  2.1399 -2.6922 -1.1745
  916MOL0     H23617   4.190   7.721   7.161 -0.3079  0.5451 -1.7759
  916MOL0     H23618   4.391   7.848   7.250  0.6162  1.3496  1.1235
  916MOL0     H23619   4.338   7.990   7.155  0.4506  0.5390 -2.0407
  916MOL0     H23620   4.603   7.978   7.201 -0.9398  2.2978 -1.1392
  916MOL0     H23621   4.830   8.010   7.140  2.1737 -2.1085  0.8122
  916MOL0     H23622   5.096   8.165   6.902 -0.0383 -0.0697  1.3888
  916MOL0     H23623   5.331   8.256   6.862 -1.2789  0.7136  1.5871
  916MOL0     H23624   5.688   8.280   6.940 -2.1417  1.5053 -1.6231
  916MOL0     H23625   5.520   8.323   6.931 -1.5640 -0.7951 -0.5608
  916MOL0     H23626   5.560   8.391   7.142 -2.5910 -0.7690  0.1796
  916MOL0     H23627   5.497   8.235   7.175 -1.2069 -0.4120 -1.3637
  916MOL0     H23628   5.739   8.149   7.206  4.6369  1.7058  0.5956
  916MOL0     H23629   5.797   8.309   7.170  0.5862  1.4792  0.6364
  916MOL0     H23630   5.665   8.212   7.418 -0.9321  0.3875 -0.4751
  916MOL0     H23631   5.612   8.373   7.373  1.1901  0.5652 -2.1264
  916MOL0     H23632   5.813   8.366   7.533  0.3102  1.5732 -1.3497
  916MOL0     H23633   5.820   8.465   7.389 -0.3416  0.2262 -0.2568
  916MOL0     H23634   5.942   8.192   7.383  0.7566  0.3992  1.7459
  916MOL0     H23635   6.003   8.335   7.287  2.1103  3.1167  1.2557
  916MOL0     H23636   6.016   8.320   7.594 -0.2932  2.3971 -0.1898
  916MOL0     H23637   6.116   8.429   7.488  0.7781 -0.2810 -1.1055
  916MOL0     H23638   6.123   8.133   7.543 -3.2117  0.8762  0.9357
  916MOL0     H23639   6.184   8.169   7.384  1.5199  0.3942  0.3766
  916MOL0     H23640   5.490   7.902   7.053  0.8235 -0.5677 -0.1610
  916MOL0     H23641   5.263   7.815   7.083  1.3934  0.0604 -1.3202
  916MOL0     H23642   4.786   7.701   6.836  3.5332 -0.2950  1.6804
  916MOL0     H23643   4.547   7.686   6.892  3.2158 -2.4276 -1.2328
  916MOL0     H23644   2.597   8.299   7.690  1.2956  0.3475  0.4357
  916MOL0     H23645   2.379   8.156   7.698  2.3054  2.1419  0.0860
  916MOL0     H23646   2.139   7.878   7.778  0.4337 -0.4923  1.3360
  916MOL0     H23647   1.927   7.788   7.821  2.3835  2.3198 -0.8788
  916MOL0     H23648   1.854   7.410   7.590  2.1967 -1.0359  3.1895
  916MOL0     H23649   1.688   7.467   7.633 -0.9611 -1.7149  0.3183
  916MOL0     H23650   1.670   7.316   7.814 -2.2504 -1.4223 -1.1051
  916MOL0     H23651   1.843   7.269   7.800  0.7196  0.9216 -0.4916
  916MOL0     H23652   1.776   7.177   7.564  1.1261  0.6583  0.3240
  916MOL0     H23653   1.613   7.217   7.605  1.3051 -3.5913 -4.7182
  916MOL0     H23654   1.790   7.004   7.709  2.0357  1.6109  1.5723
  916MOL0     H23655   1.676   7.073   7.831  1.3329  0.1231 -0.3228
  916MOL0     H23656   1.455   6.839   7.549  1.7437  0.4060 -2.0493
  916MOL0     H23657   2.040   7.406   7.663  0.8603 -1.0876  2.0792
  916MOL0     H23658   2.263   7.350   7.609 -1.0017  0.2403  0.6691
  916MOL0     H23659   2.273   7.470   7.490  2.5202 -0.5004  0.3537
  916MOL0     H23660   2.392   7.450   7.619  0.0438 -2.8582  1.5584
  917MOL0     O23661   0.084   4.110   7.508 -0.5505 -0.0434 -0.0678
  917MOL0     C23662  -0.044   4.109   7.505 -0.7080  0.2289 -0.2524
  917MOL0     O23663  -0.126   4.157   7.409  0.5876 -0.5733  0.0096
  917MOL0     C23664  -0.081   4.231   7.305 -0.6226  0.2766  0.1898
  917MOL0     C23665  -0.033   4.367   7.315  0.6659  0.7783 -0.0914
  917MOL0     C23666  -0.003   4.439   7.201 -0.2968  0.7218  0.1591
  917MOL0     C23667  -0.022   4.398   7.072 -0.6395 -0.9834  0.9770
  917MOL0     O23668   0.011   4.489   6.970 -0.3350 -0.6705 -0.2055
  917MOL0     C23669   0.045   4.424   6.849  0.0252  0.5969  0.3975
  917MOL0     C23670   0.128   4.524   6.758  0.5986  0.4690  0.5260
  917MOL0     C23671   0.256   4.554   6.836  0.5173 -0.1439  0.3246
  917MOL0     C23672   0.336   4.653   6.759  0.2099 -0.2321  1.7017
  917MOL0     C23673   0.468   4.715   6.819 -1.0818 -0.7547 -0.8024
  917MOL0     C23674   0.522   4.843   6.753  0.2045 -0.4985 -0.0888
  917MOL0     C23675   0.662   4.874   6.803 -0.0220 -0.3254 -0.5188
  917MOL0     C23676   0.685   4.873   6.963  0.3141  0.2702 -0.4975
  917MOL0     N23677   0.822   4.903   6.993 -0.2953  0.0903 -0.0643
  917MOL0     C23678   0.919   4.820   7.033  0.0519  0.1995 -0.6931
  917MOL0     C23679   1.031   4.895   7.033 -0.4280 -0.6013 -0.2388
  917MOL0     C23680   1.163   4.838   7.080  0.8963  0.5441  0.3503
  917MOL0     C23681   1.263   4.823   6.961  1.1246 -0.0853 -1.0011
  917MOL0     C23682   1.221   4.730   6.848  0.1820 -0.4366  0.3017
  917MOL0     C23683   1.172   4.601   6.894 -0.0562  0.7469 -0.5583
  917MOL0     O23684   1.257   4.536   6.984  0.1180  0.5506  0.6136
  917MOL0     C23685   1.203   4.455   7.086 -0.9565  0.5942  0.1933
  917MOL0     C23686   1.081   4.395   7.065  0.1580  0.5399 -0.3264
  917MOL0     C23687   1.015   4.316   7.161  0.1359  0.0659 -0.9687
  917MOL0     C23688   1.083   4.286   7.287  0.5607 -0.1786  0.6895
  917MOL0     C23689   1.005   4.215   7.393  0.4511  0.5614  0.0836
  917MOL0     O23690   0.897   4.143   7.358 -0.2588  0.4306 -0.0610
  917MOL0     C23691   0.807   4.085   7.451  0.4139  0.1666  0.5922
  917MOL0     C23692   0.667   4.081   7.411  0.0024  0.3567  0.2445
  917MOL0     C23693   0.566   4.039   7.493  0.3108 -0.9230 -0.2612
  917MOL0     C23694   0.602   4.008   7.626  0.1100  0.7312 -0.5259
  917MOL0     O23695   0.518   3.980   7.735 -0.3400 -0.1943  0.8164
  917MOL0     C23696   0.390   4.049   7.734 -0.8564 -0.7566  0.7885
  917MOL0     C23697   0.330   4.041   7.865 -0.7243 -0.0700 -0.2847
  917MOL0     C23698   0.394   4.129   7.971 -1.2921 -0.4307 -0.5007
  917MOL0     C23699   0.458   4.030   8.079 -0.3862  0.1044 -0.1766
  917MOL0     C23700   0.567   4.102   8.167  0.2529  0.1168  0.7828
  917MOL0     C23701   0.641   4.013   8.264  0.0024  0.4133 -0.4137
  917MOL0     C23702   0.726   4.094   8.365  0.9124 -0.1554 -0.2661
  917MOL0     C23703   0.650   4.188   8.472  0.0707 -0.5751  0.1689
  917MOL0    Cl23704   0.523   4.093   8.560  0.3038  0.3030  0.5810
  917MOL0     C23705   0.741   4.002   7.660  0.8022  1.0685  0.0609
  917MOL0     C23706   0.836   4.042   7.574  0.0034  0.2592  0.4209
  917MOL0     O23707   1.045   4.227   7.506 -0.0902  0.1637 -0.2099
  917MOL0     C23708   1.214   4.333   7.300 -0.4503  0.8464 -0.8551
  917MOL0     C23709   1.274   4.411   7.198 -0.5011  0.4068  0.1435
  917MOL0     N23710   1.011   5.020   6.980  0.8933  0.8285 -0.0592
  917MOL0     N23711   0.883   5.025   6.960  0.0253 -0.8178  0.5913
  917MOL0     C23712  -0.076   4.266   7.062 -0.1083 -0.7085 -0.4801
  917MOL0     C23713  -0.115   4.187   7.178 -0.1563 -0.0507 -0.2082
  917MOL0     C23714  -0.106   4.047   7.627 -0.1363 -0.0206 -0.5236
  917MOL0     C23715  -0.073   4.096   7.751  0.8040 -0.2228  0.0555
  917MOL0     C23716  -0.128   4.044   7.865 -0.2574 -0.4115  0.7609
  917MOL0     C23717  -0.231   3.948   7.862 -0.2244  0.7613 -0.4750
  917MOL0     O23718  -0.264   3.891   7.985  0.1479 -0.0080  0.0221
  917MOL0     C23719  -0.389   3.819   7.980  0.3570  0.2157 -0.7784
  917MOL0     C23720  -0.389   3.768   8.123  0.0840 -0.2458 -1.1225
  917MOL0     C23721  -0.530   3.694   8.164  0.2375 -0.7545 -0.3741
  917MOL0     C23722  -0.524   3.613   8.290  0.7327 -0.3702  1.1337
  917MOL0     C23723  -0.511   3.681   8.419  0.4408 -0.2172 -0.3059
  917MOL0     C23724  -0.493   3.737   8.521 -0.1111 -0.7432 -0.1750
  917MOL0     C23725  -0.282   3.921   7.729 -0.3948  0.1742  0.1138
  917MOL0     C23726  -0.219   3.967   7.618  1.1171  0.2324  0.3701
  917MOL0     C23727  -0.277   3.915   7.487  0.3419  0.3733 -0.0535
  917MOL0     H23728  -0.014   4.411   7.413 -3.4816  1.1594  0.7212
  917MOL0     H23729   0.030   4.540   7.225 -4.0901  1.8802  1.0870
  917MOL0     H23730   0.114   4.340   6.854  2.0805  2.1413 -0.7116
  917MOL0     H23731  -0.044   4.388   6.797  1.1293 -1.3108 -0.2473
  917MOL0     H23732   0.091   4.622   6.728  1.4230 -0.1002 -2.7598
  917MOL0     H23733   0.153   4.472   6.665 -0.9585 -0.1421  0.4225
  917MOL0     H23734   0.314   4.471   6.878 -0.4144 -0.3610  1.2177
  917MOL0     H23735   0.223   4.615   6.920 -0.5320 -0.7111  0.3477
  917MOL0     H23736   0.359   4.605   6.664 -0.6442  2.7314 -0.1551
  917MOL0     H23737   0.272   4.737   6.731  0.8703  0.4428  2.1764
  917MOL0     H23738   0.468   4.726   6.928 -0.1126 -2.5811 -0.5757
  917MOL0     H23739   0.547   4.641   6.801  1.1900  1.1796  0.5959
  917MOL0     H23740   0.531   4.821   6.647  2.8230 -4.5325  0.6991
  917MOL0     H23741   0.453   4.925   6.771  3.5211  2.0561  2.3985
  917MOL0     H23742   0.697   4.967   6.757 -1.6651 -0.6630 -2.5890
  917MOL0     H23743   0.731   4.801   6.761  1.2058  1.5561 -1.9458
  917MOL0     H23744   0.616   4.942   7.013 -1.2491 -1.6314  0.0837
  917MOL0     H23745   0.656   4.775   7.001  2.3703 -0.3082 -0.2758
  917MOL0     H23746   0.903   4.715   7.056 -1.6259  0.4192 -0.6875
  917MOL0     H23747   1.194   4.909   7.157  3.2169 -1.0517  1.0036
  917MOL0     H23748   1.136   4.739   7.119  0.5660 -0.1185 -1.4483
  917MOL0     H23749   1.268   4.924   6.921 -1.6023  0.1850 -0.8953
  917MOL0     H23750   1.359   4.790   7.001 -0.0527 -5.7210 -1.8673
  917MOL0     H23751   1.308   4.701   6.787  1.8950 -2.4153  3.3993
  917MOL0     H23752   1.143   4.776   6.787  0.5063  0.1813  0.3427
  917MOL0     H23753   1.148   4.536   6.809 -0.8716 -2.8659  2.1931
  917MOL0     H23754   1.072   4.621   6.933 -0.6998 -1.1231 -1.1329
  917MOL0     H23755   1.036   4.401   6.966 -0.7467  0.1527  0.0510
  917MOL0     H23756   0.916   4.274   7.143 -1.3239  2.7860  0.1466
  917MOL0     H23757   0.633   4.120   7.315 -0.3739  1.3022  0.7405
  917MOL0     H23758   0.464   4.047   7.457  0.8367 -0.8628 -1.8107
  917MOL0     H23759   0.415   4.150   7.698 -0.0243 -0.9648  0.7665
  917MOL0     H23760   0.317   4.000   7.669 -3.7065  3.3971  0.4406
  917MOL0     H23761   0.226   4.077   7.865  0.3955  3.5995 -0.7857
  917MOL0     H23762   0.326   3.937   7.899  0.5454  0.3307  1.2076
  917MOL0     H23763   0.474   4.192   7.932  0.9320 -2.1468  1.0191
  917MOL0     H23764   0.309   4.179   8.020 -0.1445  0.2727  0.8492
  917MOL0     H23765   0.505   3.943   8.032  1.2803  0.9214 -0.1266
  917MOL0     H23766   0.377   4.003   8.146  0.0201  2.5311  1.4166
  917MOL0     H23767   0.520   4.190   8.212 -1.8222  0.4039 -1.7239
  917MOL0     H23768   0.646   4.121   8.095 -0.9336 -1.6145 -1.0615
  917MOL0     H23769   0.574   3.953   8.326  2.0067  0.7011  2.2658
  917MOL0     H23770   0.714   3.951   8.211 -0.8277 -0.8510 -0.1333
  917MOL0     H23771   0.799   4.155   8.310  0.6663  0.1532 -0.2516
  917MOL0     H23772   0.772   4.005   8.409 -3.8201 -3.3187 -0.9504
  917MOL0     H23773   0.722   4.215   8.549  1.1381  2.0172 -1.5891
  917MOL0     H23774   0.601   4.271   8.420 -0.0908 -1.9717 -2.0514
  917MOL0     H23775   0.762   3.982   7.764 -0.0158 -0.3281 -0.0108
  917MOL0     H23776   0.939   4.034   7.608  0.1933 -0.8492 -0.3785
  917MOL0     H23777   1.277   4.297   7.381 -1.2066 -1.0022 -1.0416
  917MOL0     H23778   1.376   4.447   7.210 -0.8155  1.3300  0.1514
  917MOL0     H23779  -0.088   4.216   6.966 -0.4746 -1.3823 -0.0960
  917MOL0     H23780  -0.148   4.085   7.165  0.3809 -0.3245  0.5503
  917MOL0     H23781   0.015   4.158   7.769  2.6338 -2.8444  0.7644
  917MOL0     H23782  -0.081   4.071   7.959  1.1760 -3.4252  1.0483
  917MOL0     H23783  -0.389   3.734   7.911 -1.1668 -0.3438 -0.1373
  917MOL0     H23784  -0.477   3.880   7.959  0.0350  0.1810  0.3983
  917MOL0     H23785  -0.362   3.851   8.189 -0.5261  0.7234 -2.0550
  917MOL0     H23786  -0.308   3.696   8.138  0.6703  0.7615  0.9055
  917MOL0     H23787  -0.549   3.631   8.077  0.7380 -0.7734 -0.4741
  917MOL0     H23788  -0.618   3.759   8.171  2.5712  2.5145  1.5657
  917MOL0     H23789  -0.608   3.543   8.295 -0.5942  1.0059 -0.7426
  917MOL0     H23790  -0.431   3.558   8.272  0.3900 -0.7758  0.5753
  917MOL0     H23791  -0.481   3.789   8.614 -3.3763 -1.2795  0.6452
  917MOL0     H23792  -0.373   3.862   7.726  0.5036 -1.3674  1.6112
  917MOL0     H23793  -0.351   3.835   7.496  1.7211 -0.9205  0.2121
  917MOL0     H23794  -0.311   3.995   7.420  1.3804  0.8898  0.0018
  917MOL0     H23795  -0.189   3.870   7.440 -0.0054 -1.1581  0.7123
  918MOL0     O23796   2.076   4.596   5.371  0.2066  0.0573 -0.0543
  918MOL0     C23797   2.062   4.480   5.396  0.4606  0.5912  0.2450
  918MOL0     O23798   2.111   4.387   5.326  0.3251  0.6686  0.2608
  918MOL0     C23799   2.225   4.412   5.270  0.5001  0.7601 -0.2319
  918MOL0     C23800   2.244   4.461   5.132 -0.9778  0.1356 -0.0999
  918MOL0     C23801   2.366   4.500   5.086 -0.3854  0.8114  0.4815
  918MOL0     C23802   2.481   4.480   5.171 -0.5829  0.8201  0.4313
  918MOL0     O23803   2.602   4.501   5.104 -0.6785 -0.4558 -0.1587
  918MOL0     C23804   2.717   4.507   5.202  0.3718 -0.3014  1.0991
  918MOL0     C23805   2.826   4.543   5.101 -0.6528  0.0671 -0.3179
  918MOL0     C23806   2.934   4.596   5.190 -0.1821 -0.6775 -0.7955
  918MOL0     C23807   2.925   4.747   5.201 -0.1300 -0.1365 -1.0192
  918MOL0     C23808   3.044   4.804   5.274  0.5053  0.4391  0.0973
  918MOL0     C23809   3.025   4.956   5.290  0.1813 -0.1029 -0.1296
  918MOL0     C23810   3.152   5.023   5.340  0.3255  0.1036 -0.1257
  918MOL0     C23811   3.121   5.174   5.359  0.4294 -0.0487  0.2679
  918MOL0     N23812   3.025   5.213   5.467  0.6930 -0.4420  0.8232
  918MOL0     C23813   2.901   5.264   5.447  0.1681 -0.8430 -0.2808
  918MOL0     C23814   2.850   5.288   5.577 -0.1359 -0.6544 -0.0081
  918MOL0     C23815   2.720   5.348   5.625  0.1936  0.5851  0.2357
  918MOL0     C23816   2.601   5.348   5.516 -0.6640  0.5397 -0.2621
  918MOL0     C23817   2.554   5.212   5.459  0.2917  0.1968  0.2992
  918MOL0     C23818   2.465   5.224   5.330  0.2686 -1.4486 -0.3033
  918MOL0     O23819   2.535   5.299   5.233 -0.3077  0.0608 -0.2535
  918MOL0     C23820   2.635   5.237   5.159  0.7064 -0.5266 -0.2888
  918MOL0     C23821   2.642   5.091   5.137 -0.0143  0.1709  0.6522
  918MOL0     C23822   2.744   5.039   5.052  0.6392  0.6206 -0.0164
  918MOL0     C23823   2.841   5.125   4.986  0.2879 -0.8423  0.6318
  918MOL0     C23824   2.949   5.068   4.909 -1.4197 -0.0784  0.3842
  918MOL0     O23825   3.047   5.152   4.864 -0.0735  0.1007  0.6417
  918MOL0     C23826   3.179   5.105   4.853  0.2969  0.5145 -0.0205
  918MOL0     C23827   3.232   5.003   4.927  0.4293 -0.2333  0.3721
  918MOL0     C23828   3.362   4.961   4.901  0.3020  0.8899 -0.0436
  918MOL0     C23829   3.453   5.026   4.821 -0.7219 -0.1838 -0.8060
  918MOL0     O23830   3.583   4.993   4.837 -0.1639  0.1471 -0.7774
  918MOL0     C23831   3.675   5.046   4.743 -0.0627  0.1557 -0.2854
  918MOL0     C23832   3.804   4.955   4.733 -0.2292 -0.9963 -0.6882
  918MOL0     C23833   3.870   4.942   4.871 -0.2157 -0.2559 -0.2516
  918MOL0     C23834   4.004   4.900   4.853 -0.0931  0.0860  0.1829
  918MOL0     C23835   4.085   4.868   4.985  0.5533 -0.4384 -0.3822
  918MOL0     C23836   4.222   4.809   4.970  0.3490 -0.9649  0.6311
  918MOL0     C23837   4.285   4.762   5.095 -0.3322  0.6453  0.3613
  918MOL0     C23838   4.430   4.748   5.073 -0.8407  0.9552  0.0909
  918MOL0    Cl23839   4.487   4.607   5.159  0.0675 -0.0208 -0.0828
  918MOL0     C23840   3.405   5.138   4.749 -0.0816  0.6446 -1.1449
  918MOL0     C23841   3.268   5.168   4.757  0.6410 -0.0879  1.1940
  918MOL0     O23842   2.948   4.943   4.894  0.5407 -1.1453 -0.3907
  918MOL0     C23843   2.821   5.265   5.007  0.4135 -0.3473 -0.5394
  918MOL0     C23844   2.724   5.320   5.094  0.5647 -0.2205 -0.0556
  918MOL0     N23845   2.942   5.230   5.663 -0.3075  0.1877  0.1975
  918MOL0     N23846   3.046   5.192   5.597 -0.3433  0.1923 -0.3588
  918MOL0     C23847   2.462   4.415   5.295  0.1270 -0.1792  0.0596
  918MOL0     C23848   2.338   4.400   5.350  0.5828 -0.0724 -0.2654
  918MOL0     C23849   1.963   4.460   5.506  0.4783  0.1087  0.5492
  918MOL0     C23850   1.905   4.337   5.508 -0.2984 -0.8375 -0.5465
  918MOL0     C23851   1.783   4.306   5.586  0.0446 -0.2734  0.7540
  918MOL0     C23852   1.741   4.397   5.681 -0.2824  0.1236 -0.3993
  918MOL0     O23853   1.632   4.381   5.763  0.0790  0.0201 -0.9503
  918MOL0     C23854   1.553   4.265   5.749  0.2681 -0.5934  0.6674
  918MOL0     C23855   1.431   4.285   5.826 -0.1410  0.0801  1.4069
  918MOL0     C23856   1.331   4.372   5.746  0.8315  0.0768 -0.4325
  918MOL0     C23857   1.241   4.295   5.646  0.8450  1.4553  0.2968
  918MOL0     C23858   1.140   4.216   5.717  0.5427 -0.1766 -1.0851
  918MOL0     C23859   1.075   4.129   5.773 -0.5328 -0.3608  0.3683
  918MOL0     C23860   1.822   4.512   5.698  0.2414  0.5319 -0.4124
  918MOL0     C23861   1.924   4.548   5.603  0.8385 -0.3967  0.0270
  918MOL0     C23862   2.000   4.679   5.630  0.7794 -0.3557 -0.1932
  918MOL0     H23863   2.170   4.464   5.053  2.4959  1.7464 -3.5653
  918MOL0     H23864   2.374   4.535   4.984 -1.6372 -1.0750 -0.3305
  918MOL0     H23865   2.703   4.585   5.278 -1.3612  1.6144 -1.0578
  918MOL0     H23866   2.730   4.410   5.251 -0.8802 -0.1746  1.7254
  918MOL0     H23867   2.795   4.630   5.043  3.3251  2.5521  0.9507
  918MOL0     H23868   2.856   4.468   5.026  1.2435  1.3432 -0.9108
  918MOL0     H23869   3.032   4.566   5.151  1.0837  0.1751  1.4909
  918MOL0     H23870   2.936   4.559   5.293  1.2445  3.9861  1.1821
  918MOL0     H23871   2.934   4.786   5.099 -0.7556 -0.7965 -1.3349
  918MOL0     H23872   2.830   4.769   5.251 -0.3451  3.1372 -2.6227
  918MOL0     H23873   3.042   4.764   5.376  0.7127  0.5068  0.1296
  918MOL0     H23874   3.140   4.772   5.231 -0.1996 -2.7964  0.7157
  918MOL0     H23875   2.994   5.005   5.197  2.1780  0.4738 -0.5473
  918MOL0     H23876   2.943   4.974   5.359 -0.0331 -0.9490 -0.1515
  918MOL0     H23877   3.233   5.014   5.267  0.9315  0.1495  0.5353
  918MOL0     H23878   3.182   4.975   5.434 -3.5213 -1.0286  0.6881
  918MOL0     H23879   3.217   5.221   5.385  1.3232 -2.1028  0.8993
  918MOL0     H23880   3.089   5.226   5.268 -0.9276  3.4200  2.5041
  918MOL0     H23881   2.837   5.269   5.359 -2.7142  0.8189  1.7135
  918MOL0     H23882   2.677   5.298   5.713 -1.4669  0.2820 -0.7060
  918MOL0     H23883   2.742   5.451   5.655 -0.8062  0.7488  0.4511
  918MOL0     H23884   2.511   5.393   5.558 -1.3363 -2.4970  1.9253
  918MOL0     H23885   2.632   5.418   5.438  1.4234  0.7010  0.6362
  918MOL0     H23886   2.501   5.158   5.538 -0.1526 -0.3211 -0.3342
  918MOL0     H23887   2.641   5.152   5.433  0.4216  0.3675  0.3437
  918MOL0     H23888   2.378   5.281   5.363  2.6882  2.1371  0.5243
  918MOL0     H23889   2.437   5.125   5.296  1.0914 -1.8853  0.2462
  918MOL0     H23890   2.570   5.021   5.179  1.0007 -0.9496  0.5515
  918MOL0     H23891   2.741   4.930   5.049 -1.6002  0.6333  0.4437
  918MOL0     H23892   3.168   4.956   5.001 -2.9319  1.2759 -1.3214
  918MOL0     H23893   3.414   4.889   4.965  3.0749  1.5774 -1.3639
  918MOL0     H23894   3.638   5.053   4.640  0.8310 -1.9144 -0.7881
  918MOL0     H23895   3.687   5.152   4.765 -0.0836  0.4672 -1.6556
  918MOL0     H23896   3.780   4.853   4.703 -0.0997 -1.1728 -0.2010
  918MOL0     H23897   3.877   4.997   4.663  0.4107  1.3390  1.2338
  918MOL0     H23898   3.869   5.022   4.945  2.8814 -0.3536  0.0375
  918MOL0     H23899   3.816   4.864   4.925 -0.3914  0.7908  1.1420
  918MOL0     H23900   4.049   4.989   4.808  0.4436 -1.2739 -2.0695
  918MOL0     H23901   4.027   4.825   4.777  2.1766  0.7632  0.1441
  918MOL0     H23902   4.033   4.799   5.052 -0.2581  0.3502 -0.1876
  918MOL0     H23903   4.103   4.958   5.043 -0.1678 -0.9515  0.6693
  918MOL0     H23904   4.217   4.731   4.893 -2.4739 -0.3916  0.1076
  918MOL0     H23905   4.275   4.892   4.922 -0.2479 -0.6798  0.4620
  918MOL0     H23906   4.243   4.664   5.117 -1.8965  0.8984 -1.2308
  918MOL0     H23907   4.269   4.838   5.172  0.5958  1.3031 -0.0856
  918MOL0     H23908   4.449   4.731   4.967 -0.2392 -0.9261  0.4602
  918MOL0     H23909   4.505   4.825   5.094  0.2523  0.1431 -0.7029
  918MOL0     H23910   3.468   5.195   4.681 -0.5432  1.8470 -0.5979
  918MOL0     H23911   3.230   5.246   4.691 -1.5844  1.0822  3.6649
  918MOL0     H23912   2.890   5.334   4.959  2.4091 -0.4953  1.9595
  918MOL0     H23913   2.736   5.428   5.091 -1.0701 -0.0171 -2.2958
  918MOL0     H23914   2.541   4.373   5.357 -1.3781 -2.2104  0.6794
  918MOL0     H23915   2.315   4.367   5.451  0.4436  0.9412  0.0458
  918MOL0     H23916   1.927   4.256   5.439  1.3213 -1.7252  0.9427
  918MOL0     H23917   1.738   4.211   5.558 -0.3226  0.3848 -1.0126
  918MOL0     H23918   1.601   4.171   5.777  0.2447 -0.7564  0.1725
  918MOL0     H23919   1.533   4.262   5.641  2.8126  5.0780 -0.2794
  918MOL0     H23920   1.457   4.341   5.917  0.3364  0.8070  0.8300
  918MOL0     H23921   1.385   4.189   5.854 -0.3036  0.3469  2.0766
  918MOL0     H23922   1.375   4.456   5.691 -0.6847  0.2782 -1.3934
  918MOL0     H23923   1.274   4.432   5.818 -1.2337  1.8028 -3.2940
  918MOL0     H23924   1.190   4.360   5.574 -1.8686  1.6560  2.2312
  918MOL0     H23925   1.295   4.215   5.594 -0.7857 -2.4150  3.8830
  918MOL0     H23926   1.006   4.060   5.817  0.5928 -2.0502 -0.4231
  918MOL0     H23927   1.776   4.574   5.774 -2.6579 -1.2506 -0.5490
  918MOL0     H23928   1.954   4.760   5.572  1.5301  0.7334  0.6838
  918MOL0     H23929   1.980   4.711   5.733  1.5538  2.8030 -0.9122
  918MOL0     H23930   2.107   4.672   5.609  0.2347 -2.4787 -2.7618
  919MOL0     O23931   1.662   8.026   9.450 -0.5105  0.4550 -0.5105
  919MOL0     C23932   1.626   8.145   9.438 -0.0265  0.0519 -0.0855
  919MOL0     O23933   1.712   8.252   9.446 -0.1539  0.4253 -0.8955
  919MOL0     C23934   1.845   8.240   9.449  0.2725  0.5572  0.0773
  919MOL0     C23935   1.900   8.136   9.374 -0.5436  0.6019  1.3669
  919MOL0     C23936   2.036   8.108   9.381 -0.2096 -0.1351  0.6573
  919MOL0     C23937   2.119   8.191   9.459  0.2768 -0.0739  0.2815
  919MOL0     O23938   2.254   8.181   9.484 -0.1192  0.5924 -0.5007
  919MOL0     C23939   2.321   8.059   9.428 -0.4523  0.4823 -1.0262
  919MOL0     C23940   2.467   8.045   9.479  0.0495 -0.2153 -0.2929
  919MOL0     C23941   2.544   8.166   9.442 -1.0130 -0.0608  0.7644
  919MOL0     C23942   2.691   8.146   9.502 -0.0609  0.0493 -0.2700
  919MOL0     C23943   2.794   8.240   9.441 -0.4783 -0.5734  0.4432
  919MOL0     C23944   2.931   8.217   9.510 -1.1860 -0.1424 -0.6483
  919MOL0     C23945   3.051   8.295   9.451  0.0468 -0.0729 -0.5053
  919MOL0     C23946   3.110   8.243   9.321  0.2593  0.2603  0.7859
  919MOL0     N23947   3.225   8.318   9.269 -0.3211 -0.6385 -0.6687
  919MOL0     C23948   3.256   8.451   9.232  0.4089  0.2259  0.3216
  919MOL0     C23949   3.396   8.445   9.203  0.0563 -0.2464 -0.8273
  919MOL0     C23950   3.496   8.563   9.176 -0.2568  0.1369  0.0584
  919MOL0     C23951   3.430   8.693   9.113 -0.2394  0.3951  0.2488
  919MOL0     C23952   3.535   8.802   9.078 -0.1383 -0.4666 -0.5029
  919MOL0     C23953   3.663   8.825   9.163  0.6047  0.0347 -0.1709
  919MOL0     O23954   3.628   8.829   9.299 -0.1455 -0.2645  0.1999
  919MOL0     C23955   3.661   8.945   9.359 -0.9798  0.0963 -0.1911
  919MOL0     C23956   3.789   8.995   9.404 -0.1344 -0.3549  0.1165
  919MOL0     C23957   3.812   9.127   9.456  0.3787 -0.5719  0.4040
  919MOL0     C23958   3.697   9.205   9.487 -0.5336  0.0205  0.7957
  919MOL0     C23959   3.716   9.335   9.552 -0.0361 -0.3585 -0.5534
  919MOL0     O23960   3.846   9.389   9.540  0.1996 -0.3924 -0.8946
  919MOL0     C23961   3.868   9.505   9.613  0.6365 -0.2760  0.2766
  919MOL0     C23962   3.889   9.496   9.751  0.4401  0.1441  0.3727
  919MOL0     C23963   3.914   9.617   9.819  0.8598 -0.9048  0.3220
  919MOL0     C23964   3.917   9.745   9.763  0.1996 -0.0340 -0.4426
  919MOL0     O23965   3.918   9.856   9.848 -0.4043 -0.0737  0.1797
  919MOL0     C23966   3.934   9.981   9.788  0.6291 -0.3116  0.8817
  919MOL0     C23967   3.977  10.089   9.888  0.3227  0.1943 -0.0086
  919MOL0     C23968   4.123  10.059   9.929 -0.9648 -0.3615 -0.9087
  919MOL0     C23969   4.173  10.172  10.025  0.0948 -0.2808  0.0087
  919MOL0     C23970   4.319  10.163  10.061 -0.3266  0.7764  0.3936
  919MOL0     C23971   4.364  10.260  10.176 -0.1228  0.1695  0.2970
  919MOL0     C23972   4.510  10.250  10.184 -0.4919 -0.5470 -0.1833
  919MOL0     C23973   4.568  10.348  10.095 -0.0093  0.0230  0.1778
  919MOL0    Cl23974   4.735  10.390  10.158  0.2079 -0.0720 -0.0353
  919MOL0     C23975   3.893   9.746   9.625  0.1046  0.0356  0.4414
  919MOL0     C23976   3.882   9.627   9.555 -0.1611 -0.0949  0.3988
  919MOL0     O23977   3.614   9.380   9.617 -1.3320 -0.1759 -0.8499
  919MOL0     C23978   3.571   9.141   9.467 -0.7774  0.8075 -0.1153
  919MOL0     C23979   3.557   9.026   9.393  1.5473 -0.1697  0.1493
  919MOL0     N23980   3.435   8.306   9.221  0.4401  0.0666  0.3569
  919MOL0     N23981   3.337   8.241   9.251  1.1483  0.1569 -0.7413
  919MOL0     C23982   2.060   8.299   9.534  0.2695 -0.6322  0.5835
  919MOL0     C23983   1.923   8.314   9.535 -0.4729 -0.2129 -0.1208
  919MOL0     C23984   1.476   8.166   9.420  0.3228  0.0193  0.2391
  919MOL0     C23985   1.394   8.057   9.441 -0.2957  0.1803 -0.7965
  919MOL0     C23986   1.254   8.060   9.428  0.0005 -0.3300  0.0307
  919MOL0     C23987   1.193   8.180   9.388  0.9164 -0.5594 -0.2543
  919MOL0     O23988   1.063   8.188   9.361  0.6181  0.8356 -0.8056
  919MOL0     C23989   1.018   8.122   9.242 -0.1579  0.2265  0.2836
  919MOL0     C23990   0.942   8.215   9.155 -0.1634 -0.2963  0.1845
  919MOL0     C23991   1.020   8.338   9.110  1.2784 -0.4682  0.1318
  919MOL0     C23992   1.148   8.313   9.033 -0.1639 -0.3618 -0.9190
  919MOL0     C23993   1.130   8.235   8.908  0.1061 -0.3660  0.0303
  919MOL0     C23994   1.105   8.170   8.803 -0.3011  0.8989 -0.5835
  919MOL0     C23995   1.271   8.293   9.373 -0.0195  0.7784  0.7198
  919MOL0     C23996   1.414   8.285   9.390 -0.0237  0.3517  0.2863
  919MOL0     C23997   1.501   8.410   9.363 -0.1379  0.8666 -0.0340
  919MOL0     H23998   1.856   8.069   9.301  1.5137  0.7878 -0.1241
  919MOL0     H23999   2.059   8.017   9.326 -0.4560  0.4601 -0.4611
  919MOL0     H24000   2.280   7.965   9.465  1.8329  0.5432  2.0428
  919MOL0     H24001   2.327   8.051   9.319  3.7154 -0.7778 -0.8523
  919MOL0     H24002   2.521   7.964   9.431 -1.1361  0.3712 -2.7363
  919MOL0     H24003   2.470   8.040   9.589  1.1285  1.6330 -0.1899
  919MOL0     H24004   2.498   8.260   9.477 -0.6277  0.3692  0.1322
  919MOL0     H24005   2.555   8.173   9.334  3.2209  2.5856  1.1142
  919MOL0     H24006   2.692   8.175   9.607  2.4866 -0.7316  0.0084
  919MOL0     H24007   2.718   8.040   9.495 -1.1182 -0.5557  3.0382
  919MOL0     H24008   2.806   8.208   9.337 -1.1113 -3.1804  1.0921
  919MOL0     H24009   2.761   8.344   9.444 -1.6506 -0.8360 -1.5962
  919MOL0     H24010   2.918   8.258   9.611  0.1785  0.3406 -0.6361
  919MOL0     H24011   2.968   8.115   9.521  2.8951  1.3653  3.2405
  919MOL0     H24012   3.128   8.307   9.528  0.9091  0.5073 -1.4272
  919MOL0     H24013   3.022   8.396   9.420  1.8893 -0.3611 -3.6064
  919MOL0     H24014   3.128   8.136   9.332 -0.9433 -0.3285 -2.0173
  919MOL0     H24015   3.030   8.253   9.246 -0.1340 -2.5950  0.7386
  919MOL0     H24016   3.195   8.540   9.226 -1.3047 -0.9980 -1.8611
  919MOL0     H24017   3.535   8.590   9.274  2.8148  0.8128 -1.2250
  919MOL0     H24018   3.582   8.529   9.118 -1.7568 -1.6475 -1.2659
  919MOL0     H24019   3.371   8.672   9.024 -1.1436  2.7263  0.2277
  919MOL0     H24020   3.351   8.732   9.179 -0.8722 -3.9955  2.4477
  919MOL0     H24021   3.480   8.897   9.073 -1.2620 -1.1075 -0.4726
  919MOL0     H24022   3.572   8.785   8.976  1.4180 -1.2139  0.1684
  919MOL0     H24023   3.709   8.917   9.126  5.2935 -1.7076  0.6168
  919MOL0     H24024   3.733   8.741   9.158  1.9021  1.0649  0.1154
  919MOL0     H24025   3.875   8.929   9.393  1.4617  1.2815  2.1791
  919MOL0     H24026   3.916   9.151   9.475 -0.5711  2.2051  3.0163
  919MOL0     H24027   3.889   9.398   9.797  2.2895 -0.3093 -0.5000
  919MOL0     H24028   3.932   9.624   9.926  0.9178  1.9288  0.1967
  919MOL0     H24029   3.992   9.973   9.696  0.4614 -0.5497  0.7948
  919MOL0     H24030   3.838  10.017   9.750  0.2896 -0.7122  1.3451
  919MOL0     H24031   3.983  10.186   9.838  1.4381 -0.2787 -0.8370
  919MOL0     H24032   3.918  10.091   9.980 -0.3456  2.6204 -0.4116
  919MOL0     H24033   4.121   9.963   9.981  0.2438 -1.3080 -2.5074
  919MOL0     H24034   4.189  10.056   9.842 -1.7778 -0.9489 -1.5173
  919MOL0     H24035   4.101  10.174  10.107 -0.1524 -1.1773 -0.1733
  919MOL0     H24036   4.163  10.266   9.971 -2.6536 -0.1118  0.6610
  919MOL0     H24037   4.373  10.183   9.968 -1.1274  0.9145 -0.0519
  919MOL0     H24038   4.348  10.062  10.089  1.9219  1.5060  0.9345
  919MOL0     H24039   4.323  10.358  10.152 -4.9773 -1.2275  1.7290
  919MOL0     H24040   4.311  10.238  10.269 -0.7784  0.2494 -0.0503
  919MOL0     H24041   4.552  10.150  10.172  2.2594  0.3936  0.8626
  919MOL0     H24042   4.539  10.277  10.286 -2.3879 -0.8451  0.4839
  919MOL0     H24043   4.577  10.321   9.989  0.8053  1.5770 -0.1768
  919MOL0     H24044   4.506  10.438  10.103  1.9705  1.2768  3.2669
  919MOL0     H24045   3.890   9.846   9.581  2.5041  1.6102  3.4060
  919MOL0     H24046   3.876   9.636   9.447 -0.9633  1.1465  0.5347
  919MOL0     H24047   3.481   9.190   9.502 -0.3520 -0.1054  2.4775
  919MOL0     H24048   3.459   8.992   9.362  0.4697  2.2028  0.6905
  919MOL0     H24049   2.119   8.360   9.602  1.8906 -0.8044 -0.6195
  919MOL0     H24050   1.868   8.388   9.593 -3.0746  0.5558 -3.2605
  919MOL0     H24051   1.437   7.962   9.471  0.2163  1.2964  2.2771
  919MOL0     H24052   1.201   7.966   9.442  2.3219 -1.3558  3.0336
  919MOL0     H24053   0.945   8.047   9.274 -0.8929  0.9288  0.2912
  919MOL0     H24054   1.107   8.076   9.198  0.6337  0.1828  1.8472
  919MOL0     H24055   0.850   8.241   9.208  1.0790  0.3979  2.1271
  919MOL0     H24056   0.919   8.159   9.064  1.9657 -1.9475  0.5679
  919MOL0     H24057   1.041   8.400   9.198 -1.2498  0.4608  0.1476
  919MOL0     H24058   0.949   8.391   9.045 -0.9990 -1.8593  1.3560
  919MOL0     H24059   1.181   8.413   9.003  2.5160 -1.2424 -1.1456
  919MOL0     H24060   1.231   8.280   9.096 -0.6925 -1.5345 -0.8196
  919MOL0     H24061   1.080   8.114   8.715  0.4576 -1.4177  0.6242
  919MOL0     H24062   1.228   8.390   9.350 -1.3535 -0.0969 -0.7022
  919MOL0     H24063   1.545   8.447   9.456  0.4148 -1.3155  0.6109
  919MOL0     H24064   1.582   8.403   9.290  0.5854 -3.0827  0.9398
  919MOL0     H24065   1.432   8.487   9.327 -0.6356 -0.0603 -1.1268
  920MOL0     O24066   8.218  10.308   1.342  0.0352 -0.2431  0.6608
  920MOL0     C24067   8.197  10.234   1.250 -0.8411 -0.3895 -0.2520
  920MOL0     O24068   8.301  10.193   1.168  0.0091 -0.1856  0.0573
  920MOL0     C24069   8.432  10.195   1.204 -0.0273  1.0294 -0.4612
  920MOL0     C24070   8.518  10.198   1.092 -0.0678 -0.7073 -0.6202
  920MOL0     C24071   8.660  10.193   1.119 -0.2076  0.7464  0.7831
  920MOL0     C24072   8.706  10.183   1.240 -0.3896  0.2296 -1.2957
  920MOL0     O24073   8.835  10.153   1.276 -0.3229 -0.1898  0.5373
  920MOL0     C24074   8.925  10.090   1.175 -1.2257  0.3614  0.4366
  920MOL0     C24075   9.062  10.079   1.244  0.3857  0.1369 -0.4553
  920MOL0     C24076   9.113  10.204   1.300  0.0683  0.2837  0.0406
  920MOL0     C24077   9.136  10.307   1.193 -0.2655 -0.3771  0.0137
  920MOL0     C24078   9.249  10.402   1.244  0.1342 -0.2590  0.6904
  920MOL0     C24079   9.392  10.350   1.241 -0.2643 -1.8322 -0.9962
  920MOL0     C24080   9.469  10.446   1.338  0.5678  0.7825  0.4022
  920MOL0     C24081   9.616  10.426   1.335 -1.0204  0.3271 -0.6413
  920MOL0     N24082   9.692  10.522   1.414 -0.2000  0.4629  0.3890
  920MOL0     C24083   9.725  10.644   1.363 -1.2805 -0.1060  0.0673
  920MOL0     C24084   9.791  10.712   1.461  0.1631  0.5614  0.4316
  920MOL0     C24085   9.857  10.852   1.458  0.7354 -0.0642 -0.9286
  920MOL0     C24086  10.014  10.858   1.447 -0.2992  0.1230  0.2171
  920MOL0     C24087  10.074  10.765   1.342  0.0880 -0.5429  1.1375
  920MOL0     C24088  10.223  10.782   1.333  0.0298  0.4950 -0.0440
  920MOL0     O24089  10.251  10.885   1.241  0.5067 -0.5758  0.0645
  920MOL0     C24090  10.383  10.924   1.228  0.5361  0.2076  0.6758
  920MOL0     C24091  10.498  10.839   1.235 -0.0218  0.6296  0.2024
  920MOL0     C24092  10.633  10.887   1.230 -0.0000 -1.1118 -1.3064
  920MOL0     C24093  10.648  11.024   1.223 -0.5747 -0.3305 -0.7077
  920MOL0     C24094  10.779  11.083   1.231 -1.2663  0.3821  0.2558
  920MOL0     O24095  10.886  11.016   1.173 -0.3668  0.2603  0.0542
  920MOL0     C24096  10.999  11.079   1.154 -0.2551 -0.3928 -0.1863
  920MOL0     C24097  11.110  11.041   1.228 -0.2140  0.3815 -0.2543
  920MOL0     C24098  11.233  11.101   1.205  0.7061 -0.4292 -0.8831
  920MOL0     C24099  11.240  11.204   1.110  0.9741 -0.6356  0.5265
  920MOL0     O24100  11.364  11.267   1.096  0.0855 -0.4609  0.5547
  920MOL0     C24101  11.386  11.349   0.971  0.6659 -0.5098 -0.3417
  920MOL0     C24102  11.523  11.414   0.974 -0.1549  0.3332 -0.0678
  920MOL0     C24103  11.632  11.303   0.959  0.4958  0.2254 -0.4329
  920MOL0     C24104  11.764  11.357   0.895  0.5185  0.0865 -0.8309
  920MOL0     C24105  11.884  11.270   0.873  0.1277  0.1785  0.0532
  920MOL0     C24106  12.008  11.356   0.833 -0.8586 -0.7545  0.7255
  920MOL0     C24107  12.138  11.271   0.823  0.3914 -0.2233 -0.6187
  920MOL0     C24108  12.254  11.351   0.776 -0.2670 -0.5735  0.2931
  920MOL0    Cl24109  12.286  11.508   0.862 -0.1012 -0.4766 -0.0869
  920MOL0     C24110  11.122  11.241   1.037  0.4612 -0.2880  0.6291
  920MOL0     C24111  11.002  11.184   1.065  0.5973  1.1622 -0.3070
  920MOL0     O24112  10.791  11.191   1.288  0.5122  0.1220 -0.1715
  920MOL0     C24113  10.533  11.108   1.229  0.1353 -0.0208 -0.3540
  920MOL0     C24114  10.402  11.061   1.233 -0.3083 -0.0826  0.5994
  920MOL0     N24115   9.784  10.631   1.574 -0.1172  0.1976 -0.2984
  920MOL0     N24116   9.736  10.515   1.540  0.7195  0.0016  0.1612
  920MOL0     C24117   8.619  10.178   1.350 -1.4735 -0.6733 -0.6960
  920MOL0     C24118   8.487  10.193   1.331 -0.0968 -0.1252 -0.0086
  920MOL0     C24119   8.068  10.166   1.228  0.5453 -1.1675  0.8025
  920MOL0     C24120   8.066  10.054   1.133  0.6000 -0.6549  0.0232
  920MOL0     C24121   7.947   9.990   1.102  0.5454  0.0089 -0.5287
  920MOL0     C24122   7.827  10.035   1.164 -0.7465 -0.0354 -0.4825
  920MOL0     O24123   7.712   9.954   1.166  0.6088 -0.0949  0.5470
  920MOL0     C24124   7.686   9.841   1.083 -0.1874 -0.6351 -0.1606
  920MOL0     C24125   7.765   9.720   1.134  0.2249 -0.1185  0.1798
  920MOL0     C24126   7.693   9.673   1.263 -0.7958  0.5910  0.0750
  920MOL0     C24127   7.766   9.545   1.314  0.3542 -0.2832 -0.5603
  920MOL0     C24128   7.774   9.435   1.213 -0.3531  0.3282 -0.2599
  920MOL0     C24129   7.770   9.344   1.137  0.2408 -0.1063  0.6899
  920MOL0     C24130   7.832  10.140   1.255  0.0447  0.2295 -1.4036
  920MOL0     C24131   7.943  10.211   1.285  0.2067 -0.2506  0.1241
  920MOL0     C24132   7.935  10.342   1.365 -0.5654 -0.1432  0.1150
  920MOL0     H24133   8.470  10.194   0.994 -0.3944  2.7647 -0.7299
  920MOL0     H24134   8.725  10.194   1.032 -1.1280  1.6649  0.0779
  920MOL0     H24135   8.896   9.989   1.147  0.3339  0.0465 -0.1575
  920MOL0     H24136   8.925  10.137   1.076 -0.4850  1.7334  1.0594
  920MOL0     H24137   9.136  10.032   1.179  0.8259 -0.4431  0.4492
  920MOL0     H24138   9.046  10.015   1.331  2.8898  0.8379  0.6070
  920MOL0     H24139   9.206  10.178   1.351  1.9285  3.4177 -1.4679
  920MOL0     H24140   9.045  10.245   1.376  0.3241  0.3652  0.2268
  920MOL0     H24141   9.157  10.258   1.097  2.5536 -0.0276  0.3715
  920MOL0     H24142   9.049  10.372   1.180 -1.9814 -2.5624  0.0264
  920MOL0     H24143   9.248  10.498   1.193  0.8050 -0.5350  0.1330
  920MOL0     H24144   9.223  10.433   1.346  1.3407  0.6910  0.7327
  920MOL0     H24145   9.399  10.248   1.278  0.6013 -0.8353  1.8690
  920MOL0     H24146   9.432  10.359   1.139 -1.1253  1.7937 -1.1826
  920MOL0     H24147   9.435  10.440   1.442 -0.5711 -3.2285 -0.0666
  920MOL0     H24148   9.459  10.549   1.300  1.1399  1.3134  1.6412
  920MOL0     H24149   9.634  10.326   1.375 -2.5006  1.3879  3.1399
  920MOL0     H24150   9.651  10.415   1.232  0.8482  2.0301 -0.2436
  920MOL0     H24151   9.693  10.695   1.272  1.2940  1.2947 -0.1545
  920MOL0     H24152   9.814  10.904   1.372  1.5395  2.1027 -0.0803
  920MOL0     H24153   9.824  10.911   1.544 -0.8257 -0.1432 -1.4390
  920MOL0     H24154  10.051  10.957   1.417  0.9753 -0.9902 -2.1861
  920MOL0     H24155  10.059  10.831   1.543  2.5143 -1.6740 -1.4545
  920MOL0     H24156  10.037  10.787   1.241 -0.1205 -0.8396  1.1490
  920MOL0     H24157  10.053  10.658   1.351  1.1110 -0.9977 -1.1912
  920MOL0     H24158  10.269  10.692   1.290  0.0734  0.1670  0.6739
  920MOL0     H24159  10.266  10.799   1.432 -1.9198  0.6233  0.8267
  920MOL0     H24160  10.496  10.730   1.236  1.3605  0.5770  0.2115
  920MOL0     H24161  10.712  10.816   1.250 -1.1214 -2.3036 -0.9621
  920MOL0     H24162  11.104  10.955   1.294  0.7988  1.0018  0.6728
  920MOL0     H24163  11.322  11.076   1.262  0.7175 -0.2052 -0.8029
  920MOL0     H24164  11.371  11.287   0.882  2.1006  1.8795 -2.3776
  920MOL0     H24165  11.313  11.429   0.973 -0.1049 -1.1596 -1.6100
  920MOL0     H24166  11.536  11.481   0.889  1.6829 -0.3077 -0.3362
  920MOL0     H24167  11.541  11.482   1.058 -0.0685  1.0756 -0.6792
  920MOL0     H24168  11.656  11.255   1.055 -0.7006  1.9497  0.7752
  920MOL0     H24169  11.589  11.221   0.900 -0.1164 -2.6107  3.4746
  920MOL0     H24170  11.780  11.433   0.972 -2.5244  0.6107 -0.5909
  920MOL0     H24171  11.732  11.413   0.807 -1.9231 -0.6045 -0.4526
  920MOL0     H24172  11.862  11.190   0.801 -2.4606  2.1124 -1.4764
  920MOL0     H24173  11.909  11.225   0.969  2.0799  1.3872  0.1674
  920MOL0     H24174  12.000  11.411   0.739  2.6815 -0.6913  0.3441
  920MOL0     H24175  12.023  11.437   0.904 -0.7069  0.1998 -0.3679
  920MOL0     H24176  12.114  11.188   0.755 -1.1683 -0.3671  0.0721
  920MOL0     H24177  12.147  11.233   0.925  1.0418  2.5394  0.4536
  920MOL0     H24178  12.346  11.291   0.774 -0.9107 -1.5672  0.0852
  920MOL0     H24179  12.231  11.383   0.675 -0.7719 -1.7747  0.0081
  920MOL0     H24180  11.126  11.325   0.969  4.0088  0.5921  1.7004
  920MOL0     H24181  10.911  11.211   1.011  0.2570 -0.2543 -0.4659
  920MOL0     H24182  10.558  11.213   1.232 -1.9006  0.4983 -0.1647
  920MOL0     H24183  10.315  11.126   1.238 -0.1784  0.2329 -0.8359
  920MOL0     H24184   8.663  10.171   1.449  0.0906  0.5054 -1.2495
  920MOL0     H24185   8.420  10.181   1.416  1.2763 -1.5807  0.9426
  920MOL0     H24186   8.158  10.017   1.089 -0.7871 -0.1290 -3.6551
  920MOL0     H24187   7.944   9.906   1.033 -0.3334 -0.5921  0.2055
  920MOL0     H24188   7.709   9.869   0.980 -3.7278  0.8493 -0.6833
  920MOL0     H24189   7.577   9.834   1.087 -0.2951  0.5394 -0.5349
  920MOL0     H24190   7.870   9.745   1.151  0.8829 -3.0014  0.7936
  920MOL0     H24191   7.756   9.654   1.047 -0.2139  2.5531 -1.9215
  920MOL0     H24192   7.591   9.639   1.244 -0.0192 -2.3366  0.5825
  920MOL0     H24193   7.702   9.756   1.333  1.6748  1.1053 -0.7466
  920MOL0     H24194   7.865   9.563   1.355  1.1663 -2.9299 -1.1488
  920MOL0     H24195   7.698   9.506   1.391  2.0367 -0.0296  1.1307
  920MOL0     H24196   7.764   9.271   1.058  2.7173 -0.6238  0.8910
  920MOL0     H24197   7.738  10.161   1.305  1.4112  1.5946  0.7421
  920MOL0     H24198   7.832  10.375   1.379 -0.6994 -0.2717 -0.5373
  920MOL0     H24199   7.976  10.314   1.462  1.8236 -0.6467 -0.9799
  920MOL0     H24200   7.987  10.424   1.316 -2.4459  0.4900 -0.9187
  921MOL0     O24201   5.820  11.137   9.148  0.2467 -0.1263 -0.9074
  921MOL0     C24202   5.740  11.233   9.151  0.1529  0.1928 -0.3119
  921MOL0     O24203   5.770  11.360   9.187  0.1286 -0.9739  1.3500
  921MOL0     C24204   5.885  11.392   9.258 -0.4758 -0.0466 -0.0848
  921MOL0     C24205   5.879  11.396   9.401 -0.8500  0.0314  0.4970
  921MOL0     C24206   5.998  11.432   9.468 -0.1636 -0.4152 -1.1964
  921MOL0     C24207   6.116  11.473   9.407  0.3885  0.9640 -0.2496
  921MOL0     O24208   6.214  11.512   9.494  0.5148  0.5749 -0.1496
  921MOL0     C24209   6.340  11.546   9.428  0.5314  0.7615 -0.2747
  921MOL0     C24210   6.450  11.557   9.543 -0.5083 -0.0763  0.6418
  921MOL0     C24211   6.587  11.620   9.496 -0.3778 -0.3686 -0.8885
  921MOL0     C24212   6.699  11.629   9.601  0.6348  0.1262 -0.0819
  921MOL0     C24213   6.841  11.649   9.536  1.0391 -0.0813 -0.6338
  921MOL0     C24214   6.944  11.613   9.641  0.0736  0.2464 -0.5562
  921MOL0     C24215   7.079  11.681   9.597 -0.2703  0.2202  0.7351
  921MOL0     C24216   7.180  11.681   9.710  0.6389 -1.1413  0.3654
  921MOL0     N24217   7.305  11.739   9.671 -0.9348 -0.5264 -0.5570
  921MOL0     C24218   7.352  11.775   9.541  0.2920 -0.3016  0.4420
  921MOL0     C24219   7.477  11.814   9.556 -0.2218 -0.7556  0.9727
  921MOL0     C24220   7.551  11.882   9.443  0.5095 -0.8727 -0.2933
  921MOL0     C24221   7.696  11.827   9.434 -0.3183  0.5156  0.1120
  921MOL0     C24222   7.790  11.844   9.561 -0.3782  0.3214  0.1855
  921MOL0     C24223   7.930  11.891   9.512 -0.2135 -0.6648  0.6104
  921MOL0     O24224   7.930  12.022   9.452 -0.0959  0.7145 -0.2316
  921MOL0     C24225   8.044  12.093   9.444 -0.8438 -0.3470  1.8182
  921MOL0     C24226   8.043  12.212   9.507 -0.2472  0.0858 -0.0432
  921MOL0     C24227   8.145  12.302   9.501  0.3894 -0.7449 -0.1732
  921MOL0     C24228   8.264  12.275   9.432  0.0248  0.2277  0.2041
  921MOL0     C24229   8.375  12.374   9.413  0.1249 -0.5636  0.0650
  921MOL0     O24230   8.450  12.362   9.299 -0.2603  0.3699  0.0570
  921MOL0     C24231   8.560  12.438   9.269 -0.5228  0.2250 -0.4528
  921MOL0     C24232   8.627  12.533   9.355  0.6073  0.0189  0.6630
  921MOL0     C24233   8.752  12.584   9.312  0.7066  0.2055 -0.1831
  921MOL0     C24234   8.807  12.548   9.188 -0.5746 -0.2583  0.3652
  921MOL0     O24235   8.933  12.581   9.148 -0.1858 -0.7859  0.0102
  921MOL0     C24236   9.000  12.686   9.211  0.1980 -0.5980 -0.6467
  921MOL0     C24237   9.153  12.690   9.167  0.5615  0.6905  0.4325
  921MOL0     C24238   9.164  12.671   9.016  0.6424  0.5192 -0.3678
  921MOL0     C24239   9.298  12.695   8.966  0.6106  0.4121  0.0149
  921MOL0     C24240   9.283  12.757   8.828 -0.0652  0.4209  1.4677
  921MOL0     C24241   9.405  12.744   8.731 -0.0028 -0.2405  0.6383
  921MOL0     C24242   9.498  12.874   8.742  0.1306  0.5327 -0.1270
  921MOL0     C24243   9.553  12.887   8.604  0.4263 -0.1114  0.5931
  921MOL0    Cl24244   9.696  12.793   8.603 -0.4081 -0.3592 -0.2350
  921MOL0     C24245   8.739  12.460   9.108 -0.2803  0.6242  0.3157
  921MOL0     C24246   8.611  12.409   9.146  0.0785 -0.2872 -0.0395
  921MOL0     O24247   8.365  12.471   9.484  0.4717 -0.3080 -0.8075
  921MOL0     C24248   8.263  12.142   9.369  0.3946  0.1688 -0.3160
  921MOL0     C24249   8.161  12.052   9.380  0.5700 -0.1800 -1.1204
  921MOL0     N24250   7.517  11.793   9.693  0.4418  0.2074  0.0770
  921MOL0     N24251   7.412  11.751   9.759  0.0214  0.8074  0.0601
  921MOL0     C24252   6.109  11.472   9.263 -0.6540 -0.3772 -0.1226
  921MOL0     C24253   6.000  11.414   9.187 -0.3536 -0.6760 -0.1978
  921MOL0     C24254   5.588  11.211   9.118  0.0539  0.0851 -0.0808
  921MOL0     C24255   5.499  11.321   9.135 -0.1487  0.7513  0.0499
  921MOL0     C24256   5.371  11.312   9.117 -0.4400 -0.1064  0.7661
  921MOL0     C24257   5.312  11.199   9.057  0.0003 -0.1536  0.6389
  921MOL0     O24258   5.181  11.208   9.038  0.2337  0.2925  0.8866
  921MOL0     C24259   5.117  11.087   8.998  0.3126  0.1859 -0.5517
  921MOL0     C24260   4.970  11.098   9.045 -0.5754  0.3906  0.3090
  921MOL0     C24261   4.888  11.215   8.986 -0.7191  0.1607 -0.2674
  921MOL0     C24262   4.768  11.220   9.067 -0.6287  0.2069 -0.6317
  921MOL0     C24263   4.683  11.313   8.996  0.6185 -0.7334 -0.8131
  921MOL0     C24264   4.626  11.397   8.928 -0.5772 -0.4104  0.0804
  921MOL0     C24265   5.396  11.092   9.025 -0.3571 -0.9121 -0.2018
  921MOL0     C24266   5.531  11.094   9.056 -0.0918  0.2593  0.5159
  921MOL0     C24267   5.620  10.990   8.996  0.5091  0.0302  0.4504
  921MOL0     H24268   5.792  11.357   9.452 -0.9804 -0.3356  0.0051
  921MOL0     H24269   6.010  11.429   9.576  0.1531  0.1250 -1.2105
  921MOL0     H24270   6.366  11.469   9.354  1.1921 -0.1156  0.8447
  921MOL0     H24271   6.330  11.640   9.373 -0.8911  1.8151  1.6783
  921MOL0     H24272   6.461  11.458   9.587  0.8412 -0.5649 -0.7078
  921MOL0     H24273   6.430  11.627   9.625  3.6531  3.1906 -0.7583
  921MOL0     H24274   6.567  11.725   9.473 -0.7608 -0.1268  0.4612
  921MOL0     H24275   6.617  11.568   9.404  0.3001  0.8451 -1.3746
  921MOL0     H24276   6.682  11.704   9.678  2.0189  2.1904 -1.6836
  921MOL0     H24277   6.688  11.527   9.640  0.4452  0.0688 -0.2838
  921MOL0     H24278   6.853  11.582   9.451  1.3203 -1.3184  0.3499
  921MOL0     H24279   6.848  11.756   9.512 -0.4011  0.1858  0.0050
  921MOL0     H24280   6.918  11.649   9.741  1.0494 -0.1478 -0.1557
  921MOL0     H24281   6.947  11.504   9.644  1.5089  0.1718  4.3712
  921MOL0     H24282   7.050  11.773   9.546 -1.6476 -1.3104 -1.4127
  921MOL0     H24283   7.118  11.623   9.513 -0.0733  1.2506  0.0959
  921MOL0     H24284   7.149  11.719   9.808  2.5951 -0.8659  0.9269
  921MOL0     H24285   7.204  11.580   9.743 -1.2478 -1.1783  1.8425
  921MOL0     H24286   7.293  11.766   9.451  0.2846  1.5015  0.2275
  921MOL0     H24287   7.514  11.854   9.344 -1.2046 -0.5400  0.2292
  921MOL0     H24288   7.558  11.991   9.448  0.8171 -0.9307  0.8090
  921MOL0     H24289   7.686  11.722   9.405 -3.6596  1.4093 -2.6910
  921MOL0     H24290   7.743  11.885   9.354 -1.6836  2.7411  0.8159
  921MOL0     H24291   7.805  11.740   9.592  0.1464 -1.0193 -3.8808
  921MOL0     H24292   7.749  11.913   9.635  1.2328  0.9076  0.5708
  921MOL0     H24293   7.960  11.819   9.435 -3.3897  0.7679 -2.2826
  921MOL0     H24294   8.009  11.889   9.587 -0.3437 -1.9297  0.7423
  921MOL0     H24295   7.949  12.241   9.552  0.7784  1.4236  1.3524
  921MOL0     H24296   8.135  12.399   9.547  6.4988  0.2880 -0.2851
  921MOL0     H24297   8.580  12.566   9.447  0.7409 -0.5089  0.9263
  921MOL0     H24298   8.804  12.643   9.386  1.0039 -0.2499 -0.0229
  921MOL0     H24299   8.947  12.780   9.190 -0.5338 -0.4534  1.5323
  921MOL0     H24300   8.997  12.679   9.320  4.1170  0.4972 -0.3469
  921MOL0     H24301   9.203  12.783   9.196 -1.1648  1.9715 -0.5107
  921MOL0     H24302   9.211  12.615   9.223 -0.7203  0.3241  1.3129
  921MOL0     H24303   9.133  12.572   8.981  0.4344  0.3243  0.3497
  921MOL0     H24304   9.095  12.743   8.972 -1.6530 -2.4557 -1.9909
  921MOL0     H24305   9.346  12.598   8.949  2.4624  1.2958 -0.0416
  921MOL0     H24306   9.357  12.764   9.028  0.4082 -0.1559  0.8588
  921MOL0     H24307   9.259  12.863   8.837  2.1734  0.8632  3.1418
  921MOL0     H24308   9.205  12.706   8.772 -0.7328 -0.0246  2.7433
  921MOL0     H24309   9.476  12.667   8.763  0.2725  0.6644  2.3339
  921MOL0     H24310   9.364  12.722   8.632 -2.2172 -2.0084  1.8704
  921MOL0     H24311   9.577  12.867   8.818 -2.1744  2.6048  2.6711
  921MOL0     H24312   9.442  12.960   8.780  0.2133 -0.0085  1.3169
  921MOL0     H24313   9.476  12.869   8.528  0.0464 -2.7932  1.5203
  921MOL0     H24314   9.599  12.986   8.595  0.3624 -0.2742 -2.9798
  921MOL0     H24315   8.793  12.432   9.018 -1.0907  0.9539 -0.2852
  921MOL0     H24316   8.560  12.347   9.073 -1.3052  0.2714  0.4160
  921MOL0     H24317   8.348  12.122   9.305  0.7415  0.7888 -0.0581
  921MOL0     H24318   8.159  11.955   9.331 -1.8106 -0.3460 -0.8324
  921MOL0     H24319   6.176  11.534   9.204 -1.1147  1.1938  0.9405
  921MOL0     H24320   5.997  11.414   9.078  0.8478 -1.4637 -0.2521
  921MOL0     H24321   5.547  11.412   9.167  2.3264 -0.9100  1.4106
  921MOL0     H24322   5.313  11.403   9.125 -0.6714 -0.3085  1.4807
  921MOL0     H24323   5.155  10.997   9.047 -0.4994  1.6304  3.0525
  921MOL0     H24324   5.125  11.068   8.891 -1.1582  0.0223 -0.6441
  921MOL0     H24325   4.966  11.113   9.153 -5.0465  2.0769  0.1306
  921MOL0     H24326   4.918  11.007   9.014  0.6722  0.1208 -1.1510
  921MOL0     H24327   4.865  11.193   8.882 -1.9637  2.2449 -0.4754
  921MOL0     H24328   4.954  11.301   9.001 -1.1113  0.2836  0.8599
  921MOL0     H24329   4.711  11.127   9.077  0.0328 -0.0055  1.8660
  921MOL0     H24330   4.784  11.244   9.173 -1.5868 -1.7753  0.0091
  921MOL0     H24331   4.587  11.477   8.869  1.9785 -0.5975 -2.0209
  921MOL0     H24332   5.363  11.006   8.968 -4.4735  1.8045 -2.4498
  921MOL0     H24333   5.566  10.910   8.945  0.5330 -0.1719  0.7391
  921MOL0     H24334   5.709  11.025   8.943  0.2267  1.6393  0.9865
  921MOL0     H24335   5.667  10.931   9.075 -2.2020 -2.9669  0.0224
  922MOL0     O24336   5.886  10.054   5.817  0.1575  0.1098 -0.6674
  922MOL0     C24337   5.850   9.958   5.889  0.9574  1.0521 -0.1396
  922MOL0     O24338   5.732   9.937   5.956 -0.1491  0.0543  0.2129
  922MOL0     C24339   5.634  10.034   5.970 -0.1022 -0.6412  0.5617
  922MOL0     C24340   5.501   9.995   6.021  0.2432 -0.0548 -0.1372
  922MOL0     C24341   5.414  10.095   6.069  1.4264  0.5576  0.1132
  922MOL0     C24342   5.436  10.233   6.054  0.1896 -0.3871  0.3923
  922MOL0     O24343   5.334  10.332   6.075 -0.2046  0.3538 -0.9808
  922MOL0     C24344   5.205  10.287   6.017 -0.6408 -0.3709  0.4195
  922MOL0     C24345   5.117  10.415   5.995 -0.7826  0.4292  0.9865
  922MOL0     C24346   4.974  10.395   6.056 -0.0028 -0.0424  0.1483
  922MOL0     C24347   4.885  10.519   6.045  0.1195  0.1631 -0.2623
  922MOL0     C24348   4.760  10.494   6.133 -1.4356  0.2171 -1.7520
  922MOL0     C24349   4.661  10.599   6.117  0.4522 -0.6431  0.9961
  922MOL0     C24350   4.553  10.579   6.227  0.3855 -0.7248 -0.3109
  922MOL0     C24351   4.467  10.701   6.242 -0.3530 -0.3428  0.2429
  922MOL0     N24352   4.377  10.688   6.360  0.3049  1.1899  0.4843
  922MOL0     C24353   4.325  10.778   6.448 -0.5278 -0.9890 -0.2088
  922MOL0     C24354   4.251  10.718   6.542 -0.3962  1.1568  0.3553
  922MOL0     C24355   4.160  10.783   6.646  0.2682 -0.3924 -0.5101
  922MOL0     C24356   4.174  10.741   6.792  0.0294  0.1480 -0.0842
  922MOL0     C24357   4.056  10.668   6.852  0.6985  0.0678  0.7444
  922MOL0     C24358   3.927  10.743   6.850 -0.5642 -1.1683  0.2273
  922MOL0     O24359   3.946  10.872   6.901  0.5582 -1.2121  0.1098
  922MOL0     C24360   3.843  10.958   6.922 -0.6714 -0.0724 -0.3306
  922MOL0     C24361   3.877  11.074   6.991 -1.8810 -0.3611 -0.2066
  922MOL0     C24362   3.782  11.178   7.019  0.4747  0.6414  0.9666
  922MOL0     C24363   3.642  11.149   7.001 -0.4949 -0.6979  0.0865
  922MOL0     C24364   3.538  11.238   7.060  0.4827 -0.4559  1.2002
  922MOL0     O24365   3.401  11.200   7.041  0.6425  0.9898 -0.3480
  922MOL0     C24366   3.309  11.276   7.104 -0.3740  0.2336  0.3987
  922MOL0     C24367   3.222  11.225   7.206 -0.3458 -0.7623  0.3757
  922MOL0     C24368   3.130  11.317   7.261  0.9220  1.0659  0.4183
  922MOL0     C24369   3.122  11.451   7.210 -0.2849  0.0204  0.8342
  922MOL0     O24370   3.035  11.550   7.261 -0.9772  0.4967  0.1114
  922MOL0     C24371   2.938  11.506   7.361  0.2345 -0.0369 -0.4606
  922MOL0     C24372   2.989  11.493   7.505  0.2679 -0.1672 -0.4649
  922MOL0     C24373   2.970  11.600   7.597  0.4834  0.1811 -0.8083
  922MOL0     C24374   2.826  11.613   7.660 -0.2061 -0.2142  0.5977
  922MOL0     C24375   2.795  11.744   7.737 -0.5036  0.2074 -0.4175
  922MOL0     C24376   2.650  11.734   7.798 -0.3373  0.0978  0.1049
  922MOL0     C24377   2.604  11.844   7.888  0.4123  0.0016  0.3654
  922MOL0     C24378   2.633  11.985   7.845 -0.1300  0.0158  0.2057
  922MOL0    Cl24379   2.561  12.113   7.961  0.2505 -0.2559  0.1417
  922MOL0     C24380   3.206  11.498   7.113 -0.1934 -0.1396 -0.6609
  922MOL0     C24381   3.289  11.403   7.047 -0.2499  0.8573 -0.0143
  922MOL0     O24382   3.577  11.339   7.120  0.7112 -0.7028 -0.2362
  922MOL0     C24383   3.607  11.033   6.934  0.3298 -1.0369 -0.4722
  922MOL0     C24384   3.704  10.942   6.893 -0.7536 -0.4675  0.0320
  922MOL0     N24385   4.256  10.583   6.501  0.9791  0.8876  0.2560
  922MOL0     N24386   4.327  10.569   6.398 -0.5135  0.3067  0.5704
  922MOL0     C24387   5.553  10.273   5.983  0.5776  0.6157 -0.5950
  922MOL0     C24388   5.653  10.175   5.960 -0.7806  0.8228  0.2226
  922MOL0     C24389   5.956   9.859   5.908 -0.2921 -0.0999  1.1344
  922MOL0     C24390   6.090   9.898   5.878  0.5513 -0.0980  0.0743
  922MOL0     C24391   6.197   9.803   5.882  0.4004  0.4927 -0.0296
  922MOL0     C24392   6.174   9.671   5.929  0.4294  0.3211  0.0433
  922MOL0     O24393   6.269   9.564   5.934 -0.2637 -0.0024  0.4495
  922MOL0     C24394   6.408   9.599   5.929 -0.1768  0.3699  0.0709
  922MOL0     C24395   6.480   9.583   5.799 -0.3557 -1.1057 -0.0790
  922MOL0     C24396   6.427   9.467   5.726 -0.8968  0.5769 -0.0504
  922MOL0     C24397   6.480   9.444   5.583 -0.0608 -0.5128  0.5385
  922MOL0     C24398   6.609   9.376   5.558 -0.4635  0.0846  0.1036
  922MOL0     C24399   6.715   9.313   5.554  0.9084  0.6522 -1.0821
  922MOL0     C24400   6.040   9.638   5.955 -0.0924 -0.3232  0.9335
  922MOL0     C24401   5.937   9.729   5.951 -0.3787 -0.3197 -0.4001
  922MOL0     C24402   5.804   9.666   5.987  0.5488 -0.7304  0.1615
  922MOL0     H24403   5.483   9.893   6.052  1.5577 -0.2960 -0.0877
  922MOL0     H24404   5.325  10.067   6.124  0.4476  1.6775 -0.8272
  922MOL0     H24405   5.225  10.248   5.917 -4.0307  1.6231 -1.2006
  922MOL0     H24406   5.169  10.209   6.084 -0.6630  0.2797  1.1755
  922MOL0     H24407   5.112  10.441   5.889  1.7233  0.4085  0.7999
  922MOL0     H24408   5.165  10.496   6.050  0.0989 -0.8661  2.1777
  922MOL0     H24409   4.990  10.373   6.162 -1.0916  3.2267  1.0789
  922MOL0     H24410   4.926  10.304   6.018  0.3240  0.4688 -1.5867
  922MOL0     H24411   4.930  10.616   6.069  0.1104  0.3086 -0.8143
  922MOL0     H24412   4.845  10.522   5.943 -3.1653  0.1068  0.8998
  922MOL0     H24413   4.722  10.395   6.107  0.4201 -0.3238 -2.5574
  922MOL0     H24414   4.795  10.492   6.237  0.3770 -0.8523 -2.3509
  922MOL0     H24415   4.695  10.703   6.121 -2.6096  0.4127  1.6702
  922MOL0     H24416   4.627  10.579   6.015  1.5505  0.5479  0.3594
  922MOL0     H24417   4.615  10.571   6.318  0.9184 -1.6873 -0.7364
  922MOL0     H24418   4.492  10.491   6.204 -1.9395  0.5082  0.8670
  922MOL0     H24419   4.531  10.789   6.245 -2.1356  1.2492 -3.1452
  922MOL0     H24420   4.406  10.703   6.151  2.0801 -1.7219 -1.5161
  922MOL0     H24421   4.344  10.885   6.447  0.1321 -1.0206  2.4035
  922MOL0     H24422   4.179  10.891   6.645 -2.4054  0.3560  4.0539
  922MOL0     H24423   4.061  10.770   6.601  0.2846  0.4536 -0.8067
  922MOL0     H24424   4.265  10.683   6.808 -0.7144 -0.3169  3.4429
  922MOL0     H24425   4.197  10.818   6.867  1.4345 -2.0367  1.8612
  922MOL0     H24426   4.075  10.635   6.954 -0.3274 -1.0857  0.5904
  922MOL0     H24427   4.038  10.577   6.793  0.0456  1.1814 -0.8734
  922MOL0     H24428   3.849  10.694   6.909  1.6229 -0.1812  4.4124
  922MOL0     H24429   3.897  10.738   6.745  1.7397  0.5278 -0.6013
  922MOL0     H24430   3.983  11.085   7.012 -1.9960 -1.0277  0.7719
  922MOL0     H24431   3.805  11.272   7.067  1.3322 -0.1446  2.1567
  922MOL0     H24432   3.228  11.127   7.252 -1.0005 -0.9197  0.1341
  922MOL0     H24433   3.059  11.285   7.336 -2.0977  0.5957 -2.4347
  922MOL0     H24434   2.865  11.587   7.366  0.0978  0.0399 -2.9012
  922MOL0     H24435   2.883  11.415   7.338 -0.9673  1.2900 -3.2250
  922MOL0     H24436   2.937  11.404   7.541 -1.2933 -0.3170 -2.8411
  922MOL0     H24437   3.093  11.460   7.507  0.4110  0.3196  1.3500
  922MOL0     H24438   3.039  11.589   7.681 -0.3078  0.9789 -0.0358
  922MOL0     H24439   2.989  11.698   7.552  2.7002  0.5715  0.8206
  922MOL0     H24440   2.795  11.526   7.719 -2.5702 -0.7041 -1.1988
  922MOL0     H24441   2.743  11.605   7.589 -1.2951 -0.2615  1.8459
  922MOL0     H24442   2.802  11.819   7.658  0.5977 -0.2147 -0.7427
  922MOL0     H24443   2.869  11.764   7.815 -0.6922 -1.3314  0.1834
  922MOL0     H24444   2.572  11.711   7.726 -0.2322  3.2562 -1.1674
  922MOL0     H24445   2.649  11.649   7.867  0.5649  0.2754  0.3589
  922MOL0     H24446   2.650  11.841   7.987  2.3919 -2.6450 -0.5020
  922MOL0     H24447   2.497  11.836   7.906  0.9812 -1.1115  4.0507
  922MOL0     H24448   2.742  11.996   7.842 -0.0639 -0.1561  1.4949
  922MOL0     H24449   2.590  12.014   7.748 -2.0371 -0.6606  0.8087
  922MOL0     H24450   3.192  11.604   7.093 -0.9459 -0.1666 -0.2999
  922MOL0     H24451   3.363  11.427   6.971 -0.0480  2.5069  0.6342
  922MOL0     H24452   3.504  11.000   6.921 -0.2484  0.1207  0.7936
  922MOL0     H24453   3.680  10.847   6.846  2.1733 -0.3995 -1.8560
  922MOL0     H24454   5.561  10.379   5.964 -4.0614  1.2436 -0.3385
  922MOL0     H24455   5.752  10.203   5.927  0.6098 -0.6775  2.8314
  922MOL0     H24456   6.105  10.004   5.860 -2.5303  0.5992  0.9504
  922MOL0     H24457   6.298   9.837   5.863 -0.0141  1.3444 -0.8506
  922MOL0     H24458   6.454   9.531   6.002 -1.9341  1.6549  2.5351
  922MOL0     H24459   6.419   9.690   5.989 -2.1238 -1.0017  2.7379
  922MOL0     H24460   6.587   9.570   5.818 -0.0443 -1.8243 -2.0677
  922MOL0     H24461   6.460   9.667   5.732 -0.4243 -1.5612 -0.6448
  922MOL0     H24462   6.321   9.488   5.707 -0.2135  2.0712 -2.6632
  922MOL0     H24463   6.439   9.383   5.795 -1.0128  0.9694  0.4537
  922MOL0     H24464   6.404   9.378   5.539 -0.2324  0.6738 -1.0462
  922MOL0     H24465   6.491   9.532   5.520 -0.0412 -1.4320 -0.7999
  922MOL0     H24466   6.801   9.250   5.553  0.0355 -0.5889 -2.5689
  922MOL0     H24467   6.006   9.539   5.984  0.5200 -0.3007  1.7607
  922MOL0     H24468   5.795   9.559   5.970 -0.7605 -0.3073 -2.1865
  922MOL0     H24469   5.779   9.689   6.092 -1.0672  1.4544 -0.6150
  922MOL0     H24470   5.721   9.703   5.926  3.0351  3.1600 -1.1831
  923MOL0     O24471   9.603   3.387   9.815 -0.0212  0.3785  0.3693
  923MOL0     C24472   9.521   3.341   9.735  0.1724 -0.7993 -0.0572
  923MOL0     O24473   9.540   3.303   9.609  0.0617 -0.2024 -0.5305
  923MOL0     C24474   9.664   3.329   9.556  0.4216 -0.8017  0.8029
  923MOL0     C24475   9.755   3.227   9.552  0.5407 -1.2671  0.8426
  923MOL0     C24476   9.875   3.232   9.492 -0.8989 -0.3735 -0.7760
  923MOL0     C24477   9.906   3.351   9.430 -0.6786  0.4513 -0.1288
  923MOL0     O24478  10.020   3.360   9.348  0.4281  0.1145 -0.2816
  923MOL0     C24479  10.147   3.313   9.411 -0.2993 -0.0847 -0.5347
  923MOL0     C24480  10.207   3.200   9.326 -0.7013  0.6119  0.1525
  923MOL0     C24481  10.297   3.258   9.212 -0.9129  0.5336  0.2565
  923MOL0     C24482  10.407   3.152   9.171  0.2336  0.0613  0.1542
  923MOL0     C24483  10.505   3.221   9.075 -0.1050 -0.1106  0.4202
  923MOL0     C24484  10.637   3.136   9.064 -0.2159  0.7345 -0.4567
  923MOL0     C24485  10.739   3.195   8.972 -0.0775  0.4206 -0.0914
  923MOL0     C24486  10.854   3.104   8.938  0.2607 -0.6900  0.4562
  923MOL0     N24487  10.792   2.973   8.892  0.1540  0.1756 -1.0411
  923MOL0     C24488  10.807   2.854   8.963 -0.2487  0.0045  0.1921
  923MOL0     C24489  10.738   2.761   8.890  0.2160  0.3526  0.1653
  923MOL0     C24490  10.717   2.619   8.941  0.1861  0.5390 -0.4188
  923MOL0     C24491  10.733   2.515   8.834 -0.0890  0.8972 -0.5616
  923MOL0     C24492  10.843   2.539   8.723  0.6399 -0.2156 -0.4010
  923MOL0     C24493  10.990   2.509   8.752 -0.1085 -0.2750 -0.6704
  923MOL0     O24494  11.034   2.574   8.877  0.6844 -0.1638  0.2630
  923MOL0     C24495  11.104   2.697   8.860 -0.4660  0.7768  0.0716
  923MOL0     C24496  11.205   2.711   8.954 -0.3823  0.0868 -0.6609
  923MOL0     C24497  11.264   2.836   8.969  0.2632 -0.7828 -0.1971
  923MOL0     C24498  11.232   2.946   8.890  0.5513 -0.3560  0.5110
  923MOL0     C24499  11.299   3.077   8.900  0.1785 -0.5616  0.1627
  923MOL0     O24500  11.401   3.084   8.988 -0.4572 -0.0938 -0.4079
  923MOL0     C24501  11.498   3.182   8.988 -0.1748 -0.1686  1.0139
  923MOL0     C24502  11.519   3.294   8.902 -0.4688 -0.3539 -0.8897
  923MOL0     C24503  11.621   3.378   8.930  1.2816 -0.2700 -0.3900
  923MOL0     C24504  11.705   3.359   9.042 -0.2440 -0.1567 -0.3244
  923MOL0     O24505  11.794   3.457   9.078 -0.4111 -0.7382  0.6881
  923MOL0     C24506  11.879   3.504   8.973 -0.6557  0.0757 -0.0855
  923MOL0     C24507  11.994   3.403   8.968 -0.6469  0.2146 -0.3213
  923MOL0     C24508  12.100   3.439   8.866 -0.1929 -0.4232  0.6093
  923MOL0     C24509  12.170   3.324   8.805 -0.3816 -0.0001 -0.1547
  923MOL0     C24510  12.103   3.253   8.693 -0.7035 -0.0126 -0.5072
  923MOL0     C24511  12.178   3.132   8.629  0.1743  0.4216  0.1909
  923MOL0     C24512  12.211   3.013   8.722  0.5530 -0.8135 -0.5727
  923MOL0     C24513  12.090   2.948   8.769 -0.8450 -0.0417  0.0692
  923MOL0    Cl24514  12.139   2.808   8.869  0.2211 -0.4228  0.1113
  923MOL0     C24515  11.676   3.256   9.134  0.2128 -0.1536  0.8967
  923MOL0     C24516  11.574   3.162   9.103 -0.7520  0.1151 -0.8654
  923MOL0     O24517  11.256   3.167   8.824 -0.7983 -0.1373 -0.3492
  923MOL0     C24518  11.135   2.927   8.781 -0.1863  0.2221 -0.7663
  923MOL0     C24519  11.070   2.805   8.776  0.4818  0.6700 -0.0838
  923MOL0     N24520  10.682   2.817   8.780  0.0404 -0.6792  0.4492
  923MOL0     N24521  10.708   2.946   8.783  0.3553 -0.1540 -1.1939
  923MOL0     C24522   9.820   3.458   9.429 -0.3566 -0.5528  0.4292
  923MOL0     C24523   9.697   3.453   9.493 -0.1736 -0.5384 -0.0829
  923MOL0     C24524   9.377   3.319   9.788  0.7849  0.7424  0.2171
  923MOL0     C24525   9.298   3.240   9.701  0.4129  0.5874 -0.0284
  923MOL0     C24526   9.170   3.199   9.742  0.3719 -0.3161  0.4154
  923MOL0     C24527   9.111   3.249   9.858  0.5339 -0.6669 -0.2105
  923MOL0     O24528   8.986   3.219   9.902  0.0332 -0.3171  0.4468
  923MOL0     C24529   8.885   3.152   9.827  0.3094 -0.4402 -0.2311
  923MOL0     C24530   8.783   3.123   9.934 -1.0303  0.3536  1.6516
  923MOL0     C24531   8.705   3.006   9.872 -0.2708  0.4201  0.0872
  923MOL0     C24532   8.606   2.951   9.979 -0.3190 -0.6845  0.5245
  923MOL0     C24533   8.487   3.022  10.023  0.0259 -0.1876 -0.0478
  923MOL0     C24534   8.387   3.081  10.060  0.4743 -0.0324  0.2277
  923MOL0     C24535   9.191   3.324   9.942 -0.2639  0.2767 -0.3782
  923MOL0     C24536   9.323   3.358   9.914 -0.1739  0.9367 -0.6628
  923MOL0     C24537   9.401   3.440  10.011 -0.1912 -1.1576  0.5894
  923MOL0     H24538   9.723   3.125   9.568  1.3839 -2.0868 -2.0085
  923MOL0     H24539   9.939   3.145   9.486 -1.4173 -0.7662 -0.6837
  923MOL0     H24540  10.221   3.393   9.422 -0.2811 -0.3326  1.5855
  923MOL0     H24541  10.136   3.269   9.510  0.3280  0.7317 -0.0881
  923MOL0     H24542  10.132   3.132   9.284 -0.0013 -0.0371 -0.0603
  923MOL0     H24543  10.265   3.134   9.391 -1.2481 -2.9024 -2.6153
  923MOL0     H24544  10.342   3.355   9.239 -1.4088  2.4215 -4.5677
  923MOL0     H24545  10.234   3.273   9.124 -0.2451 -3.2673 -1.0590
  923MOL0     H24546  10.445   3.102   9.260 -4.3576 -1.7230  1.4425
  923MOL0     H24547  10.361   3.073   9.110 -0.4785  2.1810 -2.2170
  923MOL0     H24548  10.461   3.226   8.975  1.8021  0.2486 -0.4387
  923MOL0     H24549  10.530   3.322   9.108 -1.0422 -0.4722  2.4421
  923MOL0     H24550  10.689   3.136   9.161 -0.1657  1.2729 -0.4817
  923MOL0     H24551  10.607   3.033   9.047  0.3585 -0.2436  3.4029
  923MOL0     H24552  10.780   3.291   9.003 -2.7765  1.1113  1.6462
  923MOL0     H24553  10.690   3.211   8.875 -2.5729  0.4789  1.1215
  923MOL0     H24554  10.907   3.145   8.852  0.1936  2.1588  1.6750
  923MOL0     H24555  10.914   3.105   9.029  1.5209  1.5226 -0.3200
  923MOL0     H24556  10.865   2.844   9.054 -1.0473 -1.2970  0.5789
  923MOL0     H24557  10.776   2.587   9.027  0.7326  0.1482 -0.9299
  923MOL0     H24558  10.613   2.620   8.976  0.2822  0.2501 -0.1209
  923MOL0     H24559  10.755   2.419   8.882 -0.0171 -0.0521 -2.4070
  923MOL0     H24560  10.640   2.500   8.777  1.2885 -0.2210 -2.6313
  923MOL0     H24561  10.822   2.639   8.683 -1.7003  0.4390  2.1386
  923MOL0     H24562  10.811   2.472   8.643  1.5637 -0.2988 -0.7065
  923MOL0     H24563  11.063   2.532   8.674  1.6944 -2.8712  0.1202
  923MOL0     H24564  10.987   2.401   8.768 -0.0681 -0.0538  1.0966
  923MOL0     H24565  11.225   2.637   9.031 -0.8697  0.1134 -0.5074
  923MOL0     H24566  11.323   2.871   9.053  0.7683  0.8895 -1.2048
  923MOL0     H24567  11.454   3.323   8.820 -2.1289  0.7837  0.7348
  923MOL0     H24568  11.626   3.463   8.863  2.8862  0.3237  0.4283
  923MOL0     H24569  11.825   3.522   8.880  0.2923  1.2379 -0.4383
  923MOL0     H24570  11.928   3.596   9.004  0.0310 -0.4221  0.3594
  923MOL0     H24571  12.038   3.391   9.068  0.7368 -0.0722 -0.9377
  923MOL0     H24572  11.952   3.311   8.926  0.2153 -0.0506 -0.6361
  923MOL0     H24573  12.063   3.500   8.783 -2.0969 -0.7619  1.1527
  923MOL0     H24574  12.178   3.495   8.918  0.0058 -1.0817  1.0369
  923MOL0     H24575  12.195   3.252   8.883  2.8920  2.1476  0.9926
  923MOL0     H24576  12.273   3.351   8.777  0.2403 -2.4898 -0.5238
  923MOL0     H24577  12.101   3.323   8.609 -1.9996 -2.0532 -2.3048
  923MOL0     H24578  12.001   3.222   8.719 -1.6356  1.9524 -1.6132
  923MOL0     H24579  12.108   3.090   8.557 -3.5248  1.3951  2.8936
  923MOL0     H24580  12.264   3.161   8.569 -1.2657  1.7911 -1.3344
  923MOL0     H24581  12.268   3.054   8.807  2.6205  1.2546 -2.7903
  923MOL0     H24582  12.285   2.948   8.674  0.2962 -1.2272 -0.4103
  923MOL0     H24583  12.020   3.006   8.830 -2.0613 -2.0244  0.6776
  923MOL0     H24584  12.028   2.909   8.688 -2.6677 -1.2243  1.9244
  923MOL0     H24585  11.734   3.246   9.225 -0.8011  3.4910  2.1300
  923MOL0     H24586  11.547   3.088   9.178 -3.0421  1.4526 -0.2463
  923MOL0     H24587  11.121   3.005   8.706  0.0090  0.3716 -0.6515
  923MOL0     H24588  10.989   2.792   8.704  0.1328 -1.0806  0.5709
  923MOL0     H24589   9.858   3.538   9.366 -2.5095 -0.8256 -1.3227
  923MOL0     H24590   9.611   3.518   9.476 -1.9839 -3.1396 -1.4398
  923MOL0     H24591   9.327   3.205   9.603 -0.3824 -0.1470 -0.0085
  923MOL0     H24592   9.096   3.153   9.677 -0.7264  2.8504 -0.7706
  923MOL0     H24593   8.922   3.059   9.783 -1.2511 -0.8140 -0.7920
  923MOL0     H24594   8.840   3.210   9.746 -0.9939  0.5997  1.1844
  923MOL0     H24595   8.710   3.204   9.940 -2.2179 -0.3807 -1.1622
  923MOL0     H24596   8.831   3.097  10.028  1.6662 -3.2594 -0.4354
  923MOL0     H24597   8.767   2.917   9.854 -1.5464 -0.3676 -0.5553
  923MOL0     H24598   8.649   3.030   9.781 -0.7706  0.7406  0.4789
  923MOL0     H24599   8.573   2.856   9.937 -1.6137  0.3072 -0.8301
  923MOL0     H24600   8.653   2.929  10.075 -1.1812  0.3926  1.2173
  923MOL0     H24601   8.309   3.141  10.101  0.6893  0.4894 -0.1161
  923MOL0     H24602   9.137   3.351  10.032  0.7643  0.7062  0.1298
  923MOL0     H24603   9.340   3.482  10.092  0.1468 -1.0653  0.7987
  923MOL0     H24604   9.468   3.375  10.069  0.1104  0.4689  2.1671
  923MOL0     H24605   9.454   3.525   9.968  0.7786  0.0201  3.8016
  924MOL0     O24606   2.970   8.401  10.316 -0.1653 -0.1496 -0.8448
  924MOL0     C24607   2.874   8.411  10.390  0.1597  0.3676  0.4408
  924MOL0     O24608   2.872   8.378  10.526  0.0169 -0.6459 -0.3263
  924MOL0     C24609   2.991   8.342  10.576 -0.3862 -0.1368  0.0537
  924MOL0     C24610   3.080   8.429  10.634 -0.3512 -0.1615 -0.4279
  924MOL0     C24611   3.197   8.387  10.695 -0.3362 -0.7495 -0.1271
  924MOL0     C24612   3.236   8.255  10.690 -0.2774  0.2934  0.9676
  924MOL0     O24613   3.349   8.207  10.738  0.3482  0.1523 -0.7315
  924MOL0     C24614   3.440   8.285  10.814 -1.3025 -0.2119 -0.0185
  924MOL0     C24615   3.533   8.179  10.887  0.4007  0.0989 -0.3770
  924MOL0     C24616   3.662   8.250  10.949  0.0018 -0.7963 -0.4731
  924MOL0     C24617   3.759   8.300  10.847 -0.3895 -0.4770  0.1197
  924MOL0     C24618   3.886   8.358  10.917  0.1453 -0.0597 -0.6064
  924MOL0     C24619   3.964   8.249  10.996 -0.9341 -0.9926 -0.6433
  924MOL0     C24620   4.108   8.312  11.026 -0.5994  0.1665 -0.2963
  924MOL0     C24621   4.204   8.211  11.090  0.2646 -0.3509 -0.3757
  924MOL0     N24622   4.272   8.122  10.993 -0.3674  0.3541 -0.0143
  924MOL0     C24623   4.341   8.156  10.880  0.5943  0.5942  0.1602
  924MOL0     C24624   4.408   8.046  10.842  0.9978  0.5323  0.2637
  924MOL0     C24625   4.493   8.044  10.719  0.8919  0.0347 -0.1736
  924MOL0     C24626   4.644   8.041  10.758 -0.5637  0.2265 -0.3027
  924MOL0     C24627   4.731   8.023  10.635 -0.1164 -1.1371 -0.5527
  924MOL0     C24628   4.881   8.042  10.680 -0.1299 -0.2573  0.3534
  924MOL0     O24629   4.913   8.180  10.722  0.4822 -0.3336  0.1182
  924MOL0     C24630   5.025   8.177  10.799  0.0879 -0.0740  0.2443
  924MOL0     C24631   5.142   8.196  10.729 -0.7257 -0.4613  0.3257
  924MOL0     C24632   5.261   8.207  10.804 -0.3147 -0.0002 -0.1244
  924MOL0     C24633   5.267   8.195  10.937  0.1186 -0.3784 -0.4282
  924MOL0     C24634   5.393   8.213  11.006 -0.0629 -0.0820  0.4992
  924MOL0     O24635   5.412   8.138  11.116  0.3739  0.8291 -0.2009
  924MOL0     C24636   5.513   8.162  11.204  0.0238  0.0109  0.3518
  924MOL0     C24637   5.577   8.280  11.245 -0.4384 -0.0355  0.6283
  924MOL0     C24638   5.686   8.280  11.344  0.0671 -0.4153  0.0940
  924MOL0     C24639   5.730   8.156  11.394  0.3146  0.3394 -0.5382
  924MOL0     O24640   5.840   8.157  11.480  0.4429  0.4568 -0.3525
  924MOL0     C24641   5.893   8.035  11.529  0.0768 -0.2109  0.1682
  924MOL0     C24642   5.985   8.056  11.652  0.0441  0.8341 -0.6114
  924MOL0     C24643   6.121   8.122  11.628 -0.0112 -0.9613  0.8849
  924MOL0     C24644   6.233   8.026  11.585 -0.6859  0.3737 -1.1904
  924MOL0     C24645   6.244   7.908  11.690 -0.1512  0.2324 -0.5196
  924MOL0     C24646   6.387   7.854  11.678  0.4151 -0.2341  0.0951
  924MOL0     C24647   6.430   7.773  11.794  0.8688 -0.6711 -0.2472
  924MOL0     C24648   6.570   7.724  11.778  0.3514 -0.0115  0.3862
  924MOL0    Cl24649   6.588   7.614  11.643  0.1928 -0.1938 -0.2842
  924MOL0     C24650   5.665   8.038  11.351  0.3556 -0.5406 -0.2773
  924MOL0     C24651   5.559   8.044  11.261 -0.0452 -0.3135  0.0264
  924MOL0     O24652   5.479   8.293  10.964  0.0996  0.0506 -0.8458
  924MOL0     C24653   5.148   8.182  11.007  0.6644 -0.2873  0.3366
  924MOL0     C24654   5.028   8.165  10.939  0.7870  0.4271 -1.0922
  924MOL0     N24655   4.367   7.933  10.910 -0.0765 -0.0740  0.2636
  924MOL0     N24656   4.282   7.987  11.000 -0.7715 -0.0527  0.1200
  924MOL0     C24657   3.146   8.165  10.636  0.2959 -0.3117 -0.0359
  924MOL0     C24658   3.033   8.201  10.579  0.0492  0.6233  0.5007
  924MOL0     C24659   2.739   8.449  10.330  0.9036  0.5695  0.2939
  924MOL0     C24660   2.616   8.388  10.374 -0.9790  0.6301  0.2134
  924MOL0     C24661   2.495   8.415  10.322  0.3377  0.0305 -1.1218
  924MOL0     C24662   2.483   8.509  10.219  0.1119  0.4965  0.4352
  924MOL0     O24663   2.359   8.567  10.181 -0.9956 -0.6170  0.3213
  924MOL0     C24664   2.237   8.514  10.226  0.0986  0.1635 -0.2604
  924MOL0     C24665   2.134   8.601  10.151  1.1774 -0.6373  0.1885
  924MOL0     C24666   2.105   8.735  10.217  0.3303 -0.4922  1.1276
  924MOL0     C24667   2.170   8.867  10.163  0.0851  0.7058  1.3316
  924MOL0     C24668   2.318   8.880  10.178  0.3396  0.4469 -0.1358
  924MOL0     C24669   2.441   8.881  10.191 -0.2473 -0.0739  0.1352
  924MOL0     C24670   2.601   8.570  10.168  0.7835 -1.7921 -0.4282
  924MOL0     C24671   2.724   8.546  10.224  0.5056 -0.6815  0.1206
  924MOL0     C24672   2.823   8.647  10.192  0.2450 -0.6195  0.2315
  924MOL0     H24673   3.053   8.532  10.653  4.3404  1.2254 -0.0095
  924MOL0     H24674   3.256   8.469  10.735 -1.0780 -0.3380  0.1488
  924MOL0     H24675   3.492   8.351  10.744  2.3566 -1.0949  1.6339
  924MOL0     H24676   3.394   8.347  10.891  1.1926  0.3310  1.1528
  924MOL0     H24677   3.574   8.103  10.820 -0.8361 -0.9769  0.0524
  924MOL0     H24678   3.474   8.132  10.966 -1.9487 -1.0111 -2.6658
  924MOL0     H24679   3.719   8.180  11.011  0.2059 -0.1116  0.1226
  924MOL0     H24680   3.622   8.336  11.002  1.4202  0.2784 -1.0642
  924MOL0     H24681   3.786   8.215  10.785 -1.6461 -0.5812 -0.3038
  924MOL0     H24682   3.713   8.375  10.781 -0.4702  0.1869  0.9078
  924MOL0     H24683   3.947   8.408  10.842 -0.8161  0.9841 -0.7240
  924MOL0     H24684   3.850   8.430  10.992  0.7544 -1.8288  1.4972
  924MOL0     H24685   3.913   8.219  11.087  2.0620 -1.6212  0.9588
  924MOL0     H24686   3.979   8.169  10.923  2.5416 -1.0617 -0.0198
  924MOL0     H24687   4.097   8.398  11.092 -0.4884 -0.4102  0.4858
  924MOL0     H24688   4.150   8.352  10.933  2.9991 -0.8673  0.7479
  924MOL0     H24689   4.281   8.270  11.140 -0.0582  0.9962 -1.4173
  924MOL0     H24690   4.150   8.148  11.161 -1.1385 -0.6259 -1.6429
  924MOL0     H24691   4.361   8.250  10.830  1.6117 -1.1685 -3.0233
  924MOL0     H24692   4.463   7.957  10.660 -0.7038 -1.0008  2.0319
  924MOL0     H24693   4.475   8.137  10.664 -2.5662  0.2454  1.0550
  924MOL0     H24694   4.666   8.135  10.809 -1.1458  0.3725 -0.3054
  924MOL0     H24695   4.647   7.959  10.831 -0.9457  1.7847  1.5323
  924MOL0     H24696   4.705   8.101  10.564  0.9095 -0.3554 -0.0969
  924MOL0     H24697   4.726   7.921  10.595  1.3203 -1.0774 -0.9578
  924MOL0     H24698   4.944   8.019  10.594 -2.0975  1.1021 -1.5530
  924MOL0     H24699   4.908   7.972  10.760  0.1784 -3.4002 -2.2906
  924MOL0     H24700   5.132   8.204  10.622 -4.2167 -2.0632  0.3862
  924MOL0     H24701   5.353   8.202  10.746 -0.7298  1.6604 -1.0059
  924MOL0     H24702   5.545   8.377  11.208  1.8068 -0.4861 -2.9789
  924MOL0     H24703   5.724   8.376  11.376 -1.6063 -0.7834  3.5825
  924MOL0     H24704   5.807   7.979  11.565 -0.8122  1.3682  0.5970
  924MOL0     H24705   5.947   7.978  11.452 -0.3777 -2.9576  1.7533
  924MOL0     H24706   5.937   8.133  11.714  1.1726  2.1311 -1.2892
  924MOL0     H24707   5.995   7.962  11.706  1.8249  0.4523 -1.5301
  924MOL0     H24708   6.126   8.192  11.543 -0.6457 -0.8900  0.9048
  924MOL0     H24709   6.143   8.183  11.716 -2.6481  1.6409 -0.1025
  924MOL0     H24710   6.326   8.083  11.578  1.0468 -1.5454  2.8807
  924MOL0     H24711   6.226   7.980  11.486  1.1011  3.0925 -2.6853
  924MOL0     H24712   6.176   7.830  11.656 -2.1890  1.6278  0.1713
  924MOL0     H24713   6.215   7.945  11.789  0.1082 -2.7160  0.7598
  924MOL0     H24714   6.387   7.789  11.590  0.0151 -1.2827  0.8422
  924MOL0     H24715   6.463   7.932  11.666  1.3042 -1.1605 -0.4622
  924MOL0     H24716   6.363   7.688  11.810 -1.0325  0.2107 -2.8569
  924MOL0     H24717   6.432   7.847  11.875  0.4843 -0.3464 -0.5289
  924MOL0     H24718   6.642   7.804  11.757 -0.6371  0.5770 -0.9192
  924MOL0     H24719   6.598   7.674  11.871  0.3696 -2.9277 -1.0689
  924MOL0     H24720   5.675   7.937  11.389 -2.4505 -1.1774 -0.9916
  924MOL0     H24721   5.506   7.952  11.235 -2.2315  1.0566 -0.6493
  924MOL0     H24722   5.156   8.178  11.116 -0.2885 -3.2095  0.3808
  924MOL0     H24723   4.943   8.139  11.001  2.6083 -2.7358  0.2911
  924MOL0     H24724   3.170   8.059  10.629  1.8086 -0.1312  1.6581
  924MOL0     H24725   2.957   8.139  10.532 -0.7228  3.2930 -2.1227
  924MOL0     H24726   2.622   8.310  10.449 -0.0429 -1.6740 -2.0724
  924MOL0     H24727   2.416   8.361  10.373  2.1469 -0.6684  1.1224
  924MOL0     H24728   2.223   8.519  10.335  0.5481  2.6270 -0.2722
  924MOL0     H24729   2.216   8.409  10.204  0.4317  0.0511 -0.0523
  924MOL0     H24730   2.043   8.543  10.133  1.6983 -0.8006 -2.2826
  924MOL0     H24731   2.173   8.622  10.051  1.4368  1.0446  0.6212
  924MOL0     H24732   2.133   8.729  10.322  2.8267 -1.2681  0.4866
  924MOL0     H24733   1.996   8.747  10.210  0.4036 -0.6881 -1.3247
  924MOL0     H24734   2.147   8.876  10.057 -1.6877 -2.9517  1.2668
  924MOL0     H24735   2.132   8.952  10.221  0.7987  1.5599  0.5798
  924MOL0     H24736   2.548   8.868  10.187  0.1749  2.2240  1.5114
  924MOL0     H24737   2.582   8.650  10.096 -2.5897 -0.1987  1.9913
  924MOL0     H24738   2.781   8.747  10.178  0.3591 -0.8902 -2.5183
  924MOL0     H24739   2.911   8.661  10.256  1.8214  3.9484 -2.5088
  924MOL0     H24740   2.876   8.610  10.104  0.4103 -1.6603  0.7395
  925MOL0     O24741  10.042   9.847   2.936 -0.1025  0.2607  0.0601
  925MOL0     C24742   9.949   9.924   2.892 -0.3272  0.1023 -0.6119
  925MOL0     O24743   9.897  10.035   2.957  0.1327  0.2818  0.5707
  925MOL0     C24744   9.956  10.103   3.065  0.4791 -0.0382  0.1839
  925MOL0     C24745   9.875  10.199   3.134 -0.6959  0.7444 -0.5371
  925MOL0     C24746   9.935  10.295   3.214 -0.4015  0.1149 -0.1005
  925MOL0     C24747  10.082  10.290   3.236  0.0268 -0.1230  0.7870
  925MOL0     O24748  10.151  10.366   3.329  0.6294  0.1644  0.3237
  925MOL0     C24749  10.156  10.506   3.313  0.0284  0.0123  0.6308
  925MOL0     C24750  10.296  10.566   3.300 -1.1879 -0.2423  0.8833
  925MOL0     C24751  10.377  10.531   3.420 -0.4986 -0.7544  0.9613
  925MOL0     C24752  10.528  10.579   3.399  0.7313  0.9865  0.0909
  925MOL0     C24753  10.619  10.542   3.517 -0.7950 -0.8396  0.4116
  925MOL0     C24754  10.616  10.649   3.620 -0.7231 -0.7517  0.7903
  925MOL0     C24755  10.720  10.626   3.733 -0.1896 -0.1791 -0.0735
  925MOL0     C24756  10.865  10.607   3.676  0.0403 -0.2519 -0.3823
  925MOL0     N24757  10.968  10.655   3.773  0.2775  0.5035  0.6132
  925MOL0     C24758  10.985  10.598   3.893 -0.3674 -0.1289  0.3890
  925MOL0     C24759  11.095  10.663   3.932 -0.3075 -0.5380 -0.2472
  925MOL0     C24760  11.174  10.636   4.057 -0.1643 -0.3699 -0.2157
  925MOL0     C24761  11.249  10.510   4.030 -0.7304  0.8003  0.2657
  925MOL0     C24762  11.282  10.446   4.168  0.0970 -0.1026 -0.2265
  925MOL0     C24763  11.331  10.304   4.149 -0.7725 -0.0581 -0.0136
  925MOL0     O24764  11.469  10.308   4.099  0.3119  0.1967 -0.5314
  925MOL0     C24765  11.553  10.201   4.118  0.3127  0.1183 -0.7582
  925MOL0     C24766  11.686  10.232   4.122 -0.2099 -0.1429  0.2801
  925MOL0     C24767  11.788  10.131   4.125 -0.0444  0.2248  1.2863
  925MOL0     C24768  11.743  10.000   4.168  1.1017 -0.7829  0.2033
  925MOL0     C24769  11.851   9.906   4.193  0.0088  1.3967  1.1313
  925MOL0     O24770  11.975   9.929   4.138  0.0087  0.6351  0.3821
  925MOL0     C24771  12.094   9.865   4.168 -0.2299 -0.6716  0.0188
  925MOL0     C24772  12.106   9.736   4.230  0.3986 -0.3712 -0.2287
  925MOL0     C24773  12.226   9.677   4.251  0.3284  0.3891  0.7440
  925MOL0     C24774  12.341   9.755   4.224 -0.0067  0.3147  0.6819
  925MOL0     O24775  12.473   9.717   4.249  0.5566 -0.3775 -0.4440
  925MOL0     C24776  12.499   9.578   4.232 -0.8074  0.2175 -0.2162
  925MOL0     C24777  12.646   9.544   4.274  0.3898  0.4758 -0.4574
  925MOL0     C24778  12.687   9.398   4.238  0.4443  0.2751  0.4415
  925MOL0     C24779  12.828   9.377   4.286  0.6267 -0.5588 -0.2013
  925MOL0     C24780  12.889   9.242   4.252 -0.6538  1.5377  0.9806
  925MOL0     C24781  12.984   9.190   4.352  0.2525  0.0233 -0.2171
  925MOL0     C24782  13.031   9.050   4.315  0.2660  0.8350  0.2904
  925MOL0     C24783  13.134   8.984   4.407  0.4224 -0.2648  0.6260
  925MOL0    Cl24784  13.162   8.810   4.382 -0.0860  0.8403 -0.2248
  925MOL0     C24785  12.333   9.884   4.172 -0.2878 -0.5869 -0.1389
  925MOL0     C24786  12.210   9.941   4.140  0.0929 -0.1921  0.2508
  925MOL0     O24787  11.813   9.811   4.258  0.1655  0.7577  0.3928
  925MOL0     C24788  11.605   9.972   4.181  0.8594 -0.2675 -0.2225
  925MOL0     C24789  11.511  10.075   4.155 -0.2730 -0.1618  0.3163
  925MOL0     N24790  11.125  10.768   3.855 -0.7769 -0.0018  0.3633
  925MOL0     N24791  11.063  10.758   3.746 -0.0883  0.3629 -0.0517
  925MOL0     C24792  10.156  10.184   3.181 -0.1052 -0.3381  0.2402
  925MOL0     C24793  10.091  10.093   3.098 -0.4438 -0.2392 -0.7880
  925MOL0     C24794   9.865   9.881   2.779 -0.1947 -0.4339 -0.7427
  925MOL0     C24795   9.730   9.940   2.762 -0.1254 -1.0212 -0.0947
  925MOL0     C24796   9.645   9.900   2.652  0.2336  0.1331  0.0561
  925MOL0     C24797   9.697   9.808   2.560  0.6516  0.6623 -0.5772
  925MOL0     O24798   9.640   9.762   2.446  0.4786 -0.0682  0.4575
  925MOL0     C24799   9.491   9.767   2.450 -0.5181 -0.0834  0.5673
  925MOL0     C24800   9.441   9.649   2.360  0.6057 -0.3318  0.6403
  925MOL0     C24801   9.293   9.672   2.330 -0.0437 -0.6917  0.1145
  925MOL0     C24802   9.251   9.597   2.196 -0.1761 -0.1937 -0.9097
  925MOL0     C24803   9.226   9.456   2.236  0.3997 -0.1747  0.8374
  925MOL0     C24804   9.195   9.343   2.269 -0.2551 -0.9628  0.6210
  925MOL0     C24805   9.830   9.772   2.565  0.2629 -0.8901 -0.2096
  925MOL0     C24806   9.913   9.807   2.668 -0.6940  0.8082 -0.4359
  925MOL0     C24807  10.057   9.758   2.664 -0.5588 -0.6375 -0.3716
  925MOL0     H24808   9.771  10.219   3.111 -1.2037 -1.1152 -0.0203
  925MOL0     H24809   9.888  10.382   3.260 -0.7700 -0.4567  0.6352
  925MOL0     H24810  10.106  10.538   3.220  0.6800  0.3376  0.3901
  925MOL0     H24811  10.111  10.565   3.394 -0.7276  0.6110 -0.1978
  925MOL0     H24812  10.284  10.673   3.279 -0.5132  0.0165  1.7709
  925MOL0     H24813  10.348  10.524   3.214 -0.8937 -3.6152  2.5808
  925MOL0     H24814  10.380  10.422   3.420 -0.8222 -0.8030 -1.4088
  925MOL0     H24815  10.336  10.573   3.513  0.6267  1.2010  0.6272
  925MOL0     H24816  10.569  10.533   3.308 -0.0154 -2.6360  1.3881
  925MOL0     H24817  10.524  10.686   3.381 -1.8638  0.9378  0.1157
  925MOL0     H24818  10.601  10.439   3.549 -1.5161 -0.0345  2.8459
  925MOL0     H24819  10.723  10.542   3.485 -0.0327 -1.2465  2.7029
  925MOL0     H24820  10.643  10.736   3.560 -3.8394  0.7378  1.3537
  925MOL0     H24821  10.517  10.674   3.660 -1.1616  4.3092 -2.5266
  925MOL0     H24822  10.690  10.534   3.784 -2.0608  0.4899  0.1380
  925MOL0     H24823  10.723  10.710   3.802  2.2638  0.6073 -1.0480
  925MOL0     H24824  10.892  10.502   3.661 -1.1457 -0.9152  1.7445
  925MOL0     H24825  10.882  10.655   3.579 -0.7415 -0.1909 -0.4951
  925MOL0     H24826  10.937  10.515   3.943  3.5823 -2.1416  1.2959
  925MOL0     H24827  11.241  10.717   4.083 -0.7394  0.0450  0.0011
  925MOL0     H24828  11.103  10.635   4.141 -1.0920 -0.3928 -0.9737
  925MOL0     H24829  11.186  10.444   3.969  1.3867 -1.2594  0.1835
  925MOL0     H24830  11.342  10.526   3.974  0.4339 -0.2321  1.8570
  925MOL0     H24831  11.195  10.449   4.235 -0.6571 -1.9001 -1.0734
  925MOL0     H24832  11.363  10.502   4.218  0.9685 -0.2517 -1.4300
  925MOL0     H24833  11.256  10.255   4.087 -2.7688  1.1984  1.3115
  925MOL0     H24834  11.342  10.269   4.252 -0.1586  1.8578  0.6130
  925MOL0     H24835  11.696  10.335   4.091 -2.6367 -0.0175 -0.2923
  925MOL0     H24836  11.890  10.159   4.099  0.4144 -4.0358 -2.9119
  925MOL0     H24837  12.014   9.694   4.270  0.3112 -0.5177 -0.5729
  925MOL0     H24838  12.227   9.578   4.296 -1.0606  0.0521  0.0853
  925MOL0     H24839  12.430   9.527   4.299  0.1772 -0.7243  0.1149
  925MOL0     H24840  12.482   9.558   4.126 -1.4030 -0.9412  0.0782
  925MOL0     H24841  12.713   9.620   4.234  0.5633  1.3856  1.4429
  925MOL0     H24842  12.657   9.558   4.382  1.7489  2.3375 -0.7869
  925MOL0     H24843  12.615   9.329   4.283 -1.0817 -0.3763 -2.6786
  925MOL0     H24844  12.687   9.384   4.129 -1.7417  2.4582  0.0689
  925MOL0     H24845  12.833   9.392   4.394 -0.9385 -0.5200 -0.1166
  925MOL0     H24846  12.902   9.446   4.243 -0.0216  1.2723  1.4871
  925MOL0     H24847  12.941   9.240   4.156 -1.4692 -0.0240  0.5442
  925MOL0     H24848  12.807   9.171   4.240  0.7740 -0.1090  0.6875
  925MOL0     H24849  13.073   9.253   4.358  0.6320 -0.5205  0.0210
  925MOL0     H24850  12.947   9.191   4.455  1.3270  1.7483  0.1919
  925MOL0     H24851  13.075   9.053   4.215  2.4606  0.3031  1.1812
  925MOL0     H24852  12.940   8.991   4.324  2.2648 -2.7229 -1.0351
  925MOL0     H24853  13.226   9.038   4.383 -0.2605  0.9645  0.6833
  925MOL0     H24854  13.118   9.003   4.513  0.5159  1.8818  0.3064
  925MOL0     H24855  12.421   9.941   4.145 -0.5848 -1.3382 -3.0648
  925MOL0     H24856  12.205  10.040   4.096  2.8354  0.7074  1.7037
  925MOL0     H24857  11.576   9.880   4.231  2.0094  0.0135  1.0032
  925MOL0     H24858  11.406  10.054   4.173 -0.8407  2.0048 -0.1385
  925MOL0     H24859  10.264  10.187   3.188 -0.0090 -1.5224 -0.3760
  925MOL0     H24860  10.152  10.016   3.051 -0.8793 -1.1199  0.0602
  925MOL0     H24861   9.702  10.011   2.839  1.9939 -1.0935  0.8077
  925MOL0     H24862   9.545   9.943   2.647  0.1104  0.1299  1.9021
  925MOL0     H24863   9.456   9.860   2.404  0.4701  0.0654  0.0980
  925MOL0     H24864   9.442   9.753   2.547  0.9883  0.4200  1.4345
  925MOL0     H24865   9.453   9.558   2.419  2.7497 -0.0685  0.7058
  925MOL0     H24866   9.499   9.646   2.267  0.6786  0.6341  0.6387
  925MOL0     H24867   9.287   9.779   2.308  4.1205 -0.0669  1.2861
  925MOL0     H24868   9.233   9.646   2.417  1.2506 -0.2763  1.1565
  925MOL0     H24869   9.165   9.654   2.160  0.2396  2.2686  1.6865
  925MOL0     H24870   9.333   9.601   2.124  0.2687  1.7607 -0.3618
  925MOL0     H24871   9.147   9.257   2.311 -3.0545 -0.4032 -1.1453
  925MOL0     H24872   9.867   9.708   2.485 -1.5938 -3.5097  0.8542
  925MOL0     H24873  10.124   9.843   2.650 -1.5425  0.0844 -0.8649
  925MOL0     H24874  10.087   9.698   2.750  0.2559 -1.8399 -1.4563
  925MOL0     H24875  10.067   9.687   2.581  1.6550  0.0779 -0.7784
  926MOL0     O24876   1.293   6.348   5.966 -0.1876  0.2413  0.3869
  926MOL0     C24877   1.322   6.249   5.905 -0.3312 -0.9850  0.2103
  926MOL0     O24878   1.384   6.247   5.779  0.6351  0.0876 -0.0957
  926MOL0     C24879   1.416   6.370   5.719  0.1192 -0.1698  0.7963
  926MOL0     C24880   1.532   6.378   5.652 -1.4467  0.2531 -0.2741
  926MOL0     C24881   1.562   6.483   5.576 -0.5848  0.9833 -0.6704
  926MOL0     C24882   1.478   6.590   5.560 -0.2281  0.4568  0.2231
  926MOL0     O24883   1.504   6.695   5.473  0.6910  0.8780 -0.3355
  926MOL0     C24884   1.607   6.690   5.374 -0.2933 -0.4444  0.0978
  926MOL0     C24885   1.607   6.805   5.278  0.3831 -0.6415 -0.3437
  926MOL0     C24886   1.639   6.945   5.349  0.1485  0.0664 -0.0423
  926MOL0     C24887   1.621   7.061   5.254 -0.1769  0.0553  0.5611
  926MOL0     C24888   1.689   7.188   5.300  0.6990  1.4614 -0.3394
  926MOL0     C24889   1.612   7.319   5.258  0.2956  0.1493 -0.3525
  926MOL0     C24890   1.616   7.337   5.109 -0.5642 -0.4102 -0.8886
  926MOL0     C24891   1.545   7.465   5.068 -0.2383  0.1209  0.0707
  926MOL0     N24892   1.432   7.511   5.151  0.0281  0.7302  0.5045
  926MOL0     C24893   1.305   7.456   5.150  0.5499  0.2734  0.3550
  926MOL0     C24894   1.231   7.512   5.241 -0.4867 -0.7066  0.1979
  926MOL0     C24895   1.089   7.476   5.277 -0.8334 -0.2809 -0.4066
  926MOL0     C24896   0.977   7.561   5.239 -0.4465  0.4442 -0.4959
  926MOL0     C24897   0.855   7.522   5.332 -0.1195  0.4075 -0.4765
  926MOL0     C24898   0.736   7.609   5.302 -0.3033 -0.1971 -0.0691
  926MOL0     O24899   0.627   7.574   5.384 -0.0225 -0.0679 -0.6343
  926MOL0     C24900   0.532   7.491   5.343 -0.9236  0.1374  0.1781
  926MOL0     C24901   0.536   7.403   5.236 -0.3106 -0.2724 -0.3971
  926MOL0     C24902   0.423   7.328   5.211  0.5814 -0.1621 -0.0302
  926MOL0     C24903   0.300   7.335   5.287  0.0527 -0.1854 -1.0145
  926MOL0     C24904   0.184   7.252   5.258  0.4394 -0.2310 -0.1106
  926MOL0     O24905   0.091   7.233   5.353  0.0569  0.1213  0.1192
  926MOL0     C24906  -0.016   7.139   5.343 -0.3512 -0.2466 -0.5591
  926MOL0     C24907  -0.001   7.011   5.281 -0.0924  0.9071 -0.2640
  926MOL0     C24908  -0.097   6.913   5.288 -0.3781 -0.2718 -0.3665
  926MOL0     C24909  -0.214   6.942   5.366  0.2225  0.8004 -0.8343
  926MOL0     O24910  -0.317   6.852   5.396  0.1899  0.0313  0.2164
  926MOL0     C24911  -0.335   6.753   5.291  0.1501 -0.1489 -0.1689
  926MOL0     C24912  -0.479   6.691   5.299  0.4768 -0.0249 -0.1917
  926MOL0     C24913  -0.542   6.695   5.441  0.3291 -0.4442 -0.1667
  926MOL0     C24914  -0.674   6.631   5.455 -0.2619 -0.3625  0.1093
  926MOL0     C24915  -0.742   6.645   5.587 -0.2373  0.4924  0.9019
  926MOL0     C24916  -0.876   6.568   5.585 -0.3890 -0.6037  0.0635
  926MOL0     C24917  -0.990   6.655   5.530  0.3789 -0.0316  0.3485
  926MOL0     C24918  -1.099   6.575   5.460  0.1798  0.2830  0.2698
  926MOL0    Cl24919  -1.038   6.560   5.292  0.0039 -0.4802 -0.0091
  926MOL0     C24920  -0.227   7.064   5.433 -0.5106  0.5511 -0.0897
  926MOL0     C24921  -0.135   7.158   5.417  0.1812 -0.2342 -0.3803
  926MOL0     O24922   0.174   7.210   5.141 -0.1797 -0.1732  0.3709
  926MOL0     C24923   0.309   7.404   5.405 -0.3141 -0.6056 -0.5393
  926MOL0     C24924   0.426   7.483   5.434 -0.1673  0.7419 -0.0479
  926MOL0     N24925   1.316   7.603   5.312  0.4934  0.2467  0.7210
  926MOL0     N24926   1.437   7.596   5.258  0.1385  0.1407 -0.6232
  926MOL0     C24927   1.350   6.588   5.627 -0.4814  0.3992  0.6572
  926MOL0     C24928   1.319   6.472   5.704 -0.8963  0.4383 -0.1007
  926MOL0     C24929   1.285   6.124   5.980  0.2541 -0.3096 -0.0146
  926MOL0     C24930   1.257   6.134   6.115 -0.7149 -0.4060 -0.3491
  926MOL0     C24931   1.243   6.027   6.195 -0.3906 -0.1352 -0.6004
  926MOL0     C24932   1.240   5.898   6.142  0.2988  0.6164 -0.0856
  926MOL0     O24933   1.241   5.796   6.227  0.4059 -0.2235 -0.3406
  926MOL0     C24934   1.254   5.661   6.192 -0.6803  0.3793 -0.3439
  926MOL0     C24935   1.405   5.625   6.149  0.0355 -0.7356 -0.9346
  926MOL0     C24936   1.410   5.478   6.197  0.5692 -0.5151  0.2448
  926MOL0     C24937   1.549   5.421   6.171  0.2603 -0.3909  0.9697
  926MOL0     C24938   1.565   5.277   6.204 -0.3887  0.1019 -0.2678
  926MOL0     C24939   1.571   5.158   6.231  0.0231  0.0417  0.2242
  926MOL0     C24940   1.247   5.882   6.005 -0.3590 -0.2904  0.3052
  926MOL0     C24941   1.273   5.997   5.926  0.3476  0.4768 -0.4968
  926MOL0     C24942   1.272   5.970   5.776  0.3288  0.6313 -0.6063
  926MOL0     H24943   1.606   6.299   5.655 -0.4682  1.1621  0.4547
  926MOL0     H24944   1.651   6.478   5.513 -1.7397 -1.0936 -2.2505
  926MOL0     H24945   1.702   6.692   5.429 -1.0184  2.8310  1.5221
  926MOL0     H24946   1.609   6.608   5.303  0.3124  0.9232 -1.5423
  926MOL0     H24947   1.512   6.824   5.229  0.9790  0.7855 -1.0246
  926MOL0     H24948   1.683   6.779   5.203  2.1350 -0.9474  1.4493
  926MOL0     H24949   1.739   6.948   5.394 -0.3838 -0.7025  1.2233
  926MOL0     H24950   1.570   6.963   5.432 -0.9651 -2.2188 -0.3977
  926MOL0     H24951   1.673   7.027   5.164  1.9611  1.4732  1.1795
  926MOL0     H24952   1.513   7.074   5.240  0.0939  0.4186 -1.4164
  926MOL0     H24953   1.692   7.179   5.409  4.6516  0.3810 -0.3616
  926MOL0     H24954   1.791   7.181   5.260  0.7146 -1.7409 -0.0124
  926MOL0     H24955   1.509   7.314   5.297  0.6542 -0.6968  0.5329
  926MOL0     H24956   1.651   7.406   5.312 -1.2182  0.0666  0.9655
  926MOL0     H24957   1.559   7.254   5.066 -0.0590 -0.0828 -2.2544
  926MOL0     H24958   1.723   7.339   5.088  0.3076 -3.6617  2.2286
  926MOL0     H24959   1.613   7.549   5.049  0.0630 -0.5722 -2.2468
  926MOL0     H24960   1.502   7.437   4.971  2.0888  0.9297 -1.2766
  926MOL0     H24961   1.258   7.377   5.093 -0.5363  1.3016 -0.2293
  926MOL0     H24962   1.075   7.371   5.247 -1.3402 -0.0977 -0.8380
  926MOL0     H24963   1.087   7.479   5.387  0.0245 -0.8542 -0.3682
  926MOL0     H24964   0.992   7.669   5.248 -1.4809  0.5013  1.0656
  926MOL0     H24965   0.945   7.526   5.141 -1.1824 -5.1942  1.4029
  926MOL0     H24966   0.873   7.532   5.440 -2.6255  1.1870 -0.0726
  926MOL0     H24967   0.822   7.421   5.304  0.6215 -0.0627  0.2924
  926MOL0     H24968   0.711   7.609   5.195 -0.0920 -1.1054 -0.1260
  926MOL0     H24969   0.766   7.712   5.322  1.9214 -1.1317  2.0507
  926MOL0     H24970   0.618   7.404   5.164  0.7695 -0.5019  0.7762
  926MOL0     H24971   0.419   7.266   5.122  2.4039  0.7927 -0.8360
  926MOL0     H24972   0.084   6.995   5.215 -0.0081  1.6803 -0.3570
  926MOL0     H24973  -0.087   6.820   5.232  1.8086  0.1209 -0.7021
  926MOL0     H24974  -0.325   6.790   5.189 -0.9635  1.2097  0.1807
  926MOL0     H24975  -0.268   6.668   5.305 -2.6579 -2.2627  1.7198
  926MOL0     H24976  -0.536   6.759   5.234  0.0241  0.3797  0.6067
  926MOL0     H24977  -0.487   6.592   5.253 -1.1178  0.4797 -1.0932
  926MOL0     H24978  -0.480   6.637   5.509 -2.6837  0.5092  3.8033
  926MOL0     H24979  -0.538   6.794   5.488 -0.1599 -0.7694  0.5920
  926MOL0     H24980  -0.668   6.524   5.431 -2.3737 -1.0197  2.1609
  926MOL0     H24981  -0.738   6.673   5.377 -0.2467  0.6324  0.6275
  926MOL0     H24982  -0.771   6.750   5.600 -1.7206  0.0461  1.3888
  926MOL0     H24983  -0.677   6.603   5.664  0.2357  1.4847  1.0695
  926MOL0     H24984  -0.871   6.474   5.530 -0.9295  0.1858 -1.4026
  926MOL0     H24985  -0.901   6.554   5.690  2.2445 -1.4491  0.6467
  926MOL0     H24986  -0.941   6.730   5.467  2.8384 -2.6495 -1.0641
  926MOL0     H24987  -1.034   6.710   5.614  2.9750  0.0402  1.7696
  926MOL0     H24988  -1.117   6.477   5.506 -0.8145  0.5000  0.3643
  926MOL0     H24989  -1.201   6.614   5.465 -0.3166 -1.1185  3.8512
  926MOL0     H24990  -0.322   7.073   5.485 -0.8152  1.6398 -0.7886
  926MOL0     H24991  -0.140   7.246   5.480 -0.4805 -1.3288  1.1366
  926MOL0     H24992   0.227   7.395   5.476  1.0994 -0.3757  1.2077
  926MOL0     H24993   0.418   7.531   5.531 -2.6490  0.8631 -0.2426
  926MOL0     H24994   1.304   6.686   5.633 -1.5740 -0.1173  0.9414
  926MOL0     H24995   1.220   6.448   5.742 -0.5368 -0.1436  0.4971
  926MOL0     H24996   1.258   6.235   6.156 -0.5926  0.0058 -1.3476
  926MOL0     H24997   1.246   6.053   6.301 -0.2320  1.5416 -0.9872
  926MOL0     H24998   1.183   5.626   6.117 -2.6173  1.3654  0.9593
  926MOL0     H24999   1.220   5.598   6.275 -0.7076  1.0975  0.1981
  926MOL0     H25000   1.478   5.684   6.203 -2.7010  0.1839  2.0896
  926MOL0     H25001   1.422   5.639   6.042 -3.1021  2.1409 -1.2405
  926MOL0     H25002   1.331   5.420   6.148 -0.3311  0.6940  0.2262
  926MOL0     H25003   1.390   5.476   6.305  0.0605 -1.4367  0.1396
  926MOL0     H25004   1.577   5.435   6.066  0.7995  1.4054  1.3240
  926MOL0     H25005   1.610   5.486   6.234  1.2288 -0.1304 -0.1822
  926MOL0     H25006   1.578   5.054   6.255 -1.0411  0.0403  0.5674
  926MOL0     H25007   1.241   5.783   5.960 -1.1063 -1.1073  2.0973
  926MOL0     H25008   1.222   5.873   5.764 -1.1010  1.2337  0.3007
  926MOL0     H25009   1.213   6.049   5.729  0.9316  1.8879  0.7047
  926MOL0     H25010   1.374   5.968   5.735  0.6520  1.1117  0.1651
  927MOL0     O25011   0.927   3.203   7.968 -0.5331 -0.1845  0.4273
  927MOL0     C25012   0.918   3.196   8.086  1.0725  0.1073  0.1308
  927MOL0     O25013   1.021   3.204   8.172  0.1316  0.1534  0.0589
  927MOL0     C25014   1.144   3.257   8.134 -0.4841 -0.1116 -0.3061
  927MOL0     C25015   1.154   3.380   8.064  0.7025 -0.3653 -0.1494
  927MOL0     C25016   1.287   3.437   8.054  0.7041  0.0425  0.3052
  927MOL0     C25017   1.399   3.386   8.111  0.1166  0.1652 -0.1192
  927MOL0     O25018   1.521   3.445   8.085  0.4022 -0.6548  0.0271
  927MOL0     C25019   1.645   3.396   8.138 -0.6807  0.0537  0.5688
  927MOL0     C25020   1.762   3.495   8.130 -0.0117  0.4954 -0.0024
  927MOL0     C25021   1.822   3.529   7.990 -0.6161 -0.0050 -0.1412
  927MOL0     C25022   1.908   3.660   8.003 -0.0178  0.1066  0.6260
  927MOL0     C25023   2.010   3.656   7.884  0.2860 -0.2377 -0.9717
  927MOL0     C25024   2.090   3.783   7.872  0.1022 -0.1210  0.0342
  927MOL0     C25025   2.188   3.816   7.987 -0.0239  0.0575  1.1016
  927MOL0     C25026   2.297   3.705   7.998  0.5374  0.5920 -0.2363
  927MOL0     N25027   2.410   3.750   8.083 -0.3015  0.8027  0.3271
  927MOL0     C25028   2.530   3.690   8.085 -0.3725 -0.4457  0.9841
  927MOL0     C25029   2.601   3.763   8.180 -0.1114  0.1584  0.2855
  927MOL0     C25030   2.747   3.739   8.216  0.0080  0.0100 -0.1704
  927MOL0     C25031   2.830   3.840   8.127  0.1842  0.2722  0.5567
  927MOL0     C25032   2.982   3.843   8.154  0.0353 -0.6677  0.4654
  927MOL0     C25033   3.055   3.950   8.073 -0.3494 -0.3197  0.1514
  927MOL0     O25034   3.193   3.971   8.111 -0.3586  0.7696  0.1142
  927MOL0     C25035   3.293   3.880   8.090  0.0989 -0.0244 -0.8651
  927MOL0     C25036   3.411   3.923   8.149 -0.3605  0.2043 -0.4441
  927MOL0     C25037   3.535   3.853   8.130 -0.1523  0.1326  0.6956
  927MOL0     C25038   3.535   3.744   8.040  0.0843  0.6669 -0.5956
  927MOL0     C25039   3.653   3.661   7.998  0.3896  0.6379  0.1571
  927MOL0     O25040   3.651   3.576   7.888  0.4205 -0.1639  0.0887
  927MOL0     C25041   3.765   3.507   7.854 -0.3950 -0.2329  0.1398
  927MOL0     C25042   3.762   3.376   7.870  0.3631 -0.1144  1.5030
  927MOL0     C25043   3.873   3.299   7.842  0.0550  0.2147 -0.5225
  927MOL0     C25044   3.994   3.363   7.791 -0.1794  0.3066 -0.3890
  927MOL0     O25045   4.105   3.286   7.764 -0.7200  0.1704  1.1188
  927MOL0     C25046   4.097   3.247   7.628 -1.4529 -0.1843 -0.9064
  927MOL0     C25047   4.232   3.183   7.617  0.4623 -0.9318 -0.0738
  927MOL0     C25048   4.252   3.111   7.484 -0.4489  0.8447 -0.3730
  927MOL0     C25049   4.371   3.015   7.496 -0.5013  0.6389  0.5995
  927MOL0     C25050   4.415   2.965   7.358  0.6600 -0.2348 -0.2421
  927MOL0     C25051   4.545   2.894   7.369 -0.2933 -0.0347  0.2778
  927MOL0     C25052   4.666   2.978   7.398 -0.1613 -0.4952 -0.5501
  927MOL0     C25053   4.790   2.890   7.430  0.3708 -0.0959 -0.8103
  927MOL0    Cl25054   4.849   2.825   7.275  0.1848  0.5565  0.2120
  927MOL0     C25055   3.993   3.504   7.785 -0.9428  0.2306  0.4534
  927MOL0     C25056   3.877   3.574   7.817  0.3145 -0.9202 -0.3821
  927MOL0     O25057   3.751   3.689   8.060 -0.1371  0.7282 -0.7201
  927MOL0     C25058   3.408   3.700   7.998  0.2629  0.5728 -0.3505
  927MOL0     C25059   3.283   3.773   8.014 -0.3086  2.0637  0.5770
  927MOL0     N25060   2.516   3.868   8.224  0.6969  0.1264  0.2786
  927MOL0     N25061   2.403   3.847   8.166  0.2006  0.3261 -0.4067
  927MOL0     C25062   1.385   3.270   8.175  0.3585  0.1199 -1.2446
  927MOL0     C25063   1.258   3.202   8.194 -0.3733  0.2496  0.2663
  927MOL0     C25064   0.772   3.164   8.124 -0.8211  0.2517 -0.0505
  927MOL0     C25065   0.742   3.189   8.264  0.0932 -0.3026 -0.3146
  927MOL0     C25066   0.615   3.164   8.322  0.7692 -0.5334 -0.3228
  927MOL0     C25067   0.507   3.125   8.239  0.2423 -0.4727  0.3044
  927MOL0     O25068   0.384   3.105   8.293 -0.4247 -0.0035 -0.3167
  927MOL0     C25069   0.269   3.065   8.211  0.0640  0.5152 -0.2227
  927MOL0     C25070   0.143   3.110   8.291 -0.1643  0.5575 -0.5228
  927MOL0     C25071   0.130   3.028   8.413  0.1196  0.3654 -0.8495
  927MOL0     C25072  -0.010   3.050   8.475 -0.0829 -0.5818  0.3066
  927MOL0     C25073  -0.121   2.983   8.394  0.4175 -0.4183  0.1145
  927MOL0     C25074  -0.224   2.952   8.331 -0.2953 -0.3256 -0.2224
  927MOL0     C25075   0.540   3.108   8.100  0.3603 -0.4770 -0.2200
  927MOL0     C25076   0.666   3.126   8.038 -0.1044  0.0111 -0.2869
  927MOL0     C25077   0.664   3.119   7.893 -0.4442  0.6045  0.4644
  927MOL0     H25078   1.064   3.429   8.029  1.6246  1.9686  0.5122
  927MOL0     H25079   1.293   3.530   7.998 -1.2671  1.0459  1.6062
  927MOL0     H25080   1.644   3.378   8.246 -1.0614  1.5795  0.8492
  927MOL0     H25081   1.671   3.310   8.076  0.0435  1.9023 -1.8444
  927MOL0     H25082   1.847   3.461   8.190 -1.2501 -1.2695  0.8580
  927MOL0     H25083   1.725   3.586   8.177  2.1835  0.6936  1.5134
  927MOL0     H25084   1.753   3.558   7.910  0.1335  1.9301 -0.1346
  927MOL0     H25085   1.873   3.441   7.950 -1.0059  0.2259 -1.1934
  927MOL0     H25086   1.841   3.746   8.009 -0.9392 -0.3983 -1.3488
  927MOL0     H25087   1.953   3.655   8.102  2.4337  0.2783 -0.3925
  927MOL0     H25088   2.069   3.566   7.905  1.9250  0.6225 -1.7766
  927MOL0     H25089   1.961   3.649   7.786 -0.2469  1.7087 -0.8738
  927MOL0     H25090   2.144   3.785   7.777  0.6666  0.6577  0.3672
  927MOL0     H25091   2.018   3.866   7.869 -3.2830 -2.8143 -1.9691
  927MOL0     H25092   2.129   3.815   8.079 -1.7786  1.9553  0.0922
  927MOL0     H25093   2.234   3.913   7.966  2.2607 -0.5496  3.0271
  927MOL0     H25094   2.261   3.611   8.041  1.1846 -0.9201 -2.7982
  927MOL0     H25095   2.334   3.693   7.896 -1.6333  1.9340 -1.2429
  927MOL0     H25096   2.568   3.609   8.023  1.4087  0.0065  1.4418
  927MOL0     H25097   2.774   3.750   8.321  1.8700  0.6707 -0.6824
  927MOL0     H25098   2.768   3.639   8.177 -1.1302 -0.0439 -0.6933
  927MOL0     H25099   2.812   3.807   8.024  1.2522 -1.4357  0.8855
  927MOL0     H25100   2.791   3.943   8.131 -2.8819 -0.6183 -1.9588
  927MOL0     H25101   3.006   3.745   8.111 -2.9529 -1.1477 -0.3868
  927MOL0     H25102   3.006   3.855   8.260  0.9045 -4.3188  0.8062
  927MOL0     H25103   3.003   4.046   8.081  0.3412 -0.0420  1.7317
  927MOL0     H25104   3.047   3.925   7.967  2.2957 -1.3405  0.1354
  927MOL0     H25105   3.419   4.014   8.207 -0.4629  0.5374 -0.9423
  927MOL0     H25106   3.627   3.887   8.177  0.3967 -1.2360  0.6702
  927MOL0     H25107   3.664   3.336   7.893 -1.9467 -0.0575 -5.8533
  927MOL0     H25108   3.869   3.191   7.857  1.6229  0.2325  0.2696
  927MOL0     H25109   4.015   3.178   7.607 -2.8088  1.0628  0.1551
  927MOL0     H25110   4.091   3.332   7.560 -1.5367  1.4765  1.0668
  927MOL0     H25111   4.299   3.269   7.625 -1.9114  1.0810 -0.5886
  927MOL0     H25112   4.240   3.114   7.702 -0.5822 -1.7303 -0.5997
  927MOL0     H25113   4.165   3.052   7.456 -0.5345  0.4540  0.6589
  927MOL0     H25114   4.272   3.181   7.402  5.1723 -0.9178 -0.9353
  927MOL0     H25115   4.345   2.927   7.556  0.7089  0.5505  1.0144
  927MOL0     H25116   4.445   3.069   7.555  1.6918 -0.0304 -1.3897
  927MOL0     H25117   4.432   3.051   7.292 -1.1164  0.5252  0.2120
  927MOL0     H25118   4.343   2.902   7.306  1.3463 -0.9306 -0.3634
  927MOL0     H25119   4.546   2.822   7.450 -3.2039  0.6794  1.0904
  927MOL0     H25120   4.567   2.838   7.277  0.9460 -1.1158  1.1976
  927MOL0     H25121   4.647   3.039   7.486  1.3511 -2.9320  1.6063
  927MOL0     H25122   4.693   3.040   7.312 -2.0166  1.3798  0.1086
  927MOL0     H25123   4.862   2.945   7.491 -0.3659  3.1310 -2.6144
  927MOL0     H25124   4.756   2.797   7.477 -3.1807  0.6479 -1.5808
  927MOL0     H25125   4.072   3.556   7.731 -1.5064 -1.4767 -2.2023
  927MOL0     H25126   3.865   3.680   7.793  1.0058 -1.1567 -1.9481
  927MOL0     H25127   3.402   3.605   7.947 -0.3549  0.8469 -0.8026
  927MOL0     H25128   3.198   3.728   7.963  2.4932 -2.7633 -0.4526
  927MOL0     H25129   1.468   3.221   8.225 -1.7818 -0.8909  1.5803
  927MOL0     H25130   1.257   3.110   8.251  1.0658 -0.0987 -0.2272
  927MOL0     H25131   0.817   3.210   8.340  0.0928  1.4294 -0.7422
  927MOL0     H25132   0.588   3.171   8.427 -0.4955 -0.5992 -0.6249
  927MOL0     H25133   0.279   2.959   8.188  1.7161  0.3142  1.2141
  927MOL0     H25134   0.268   3.113   8.113  2.0180 -2.6512 -1.9539
  927MOL0     H25135   0.054   3.123   8.228 -0.7293  2.5977  0.5926
  927MOL0     H25136   0.157   3.216   8.316 -0.7625  1.0762 -2.2224
  927MOL0     H25137   0.203   3.066   8.484 -1.0969 -0.0306  0.6836
  927MOL0     H25138   0.162   2.926   8.392  1.5810  0.5691  0.2967
  927MOL0     H25139  -0.012   3.021   8.581  3.3742 -0.4984  0.4942
  927MOL0     H25140  -0.041   3.155   8.472 -1.0221 -0.7666  1.9205
  927MOL0     H25141  -0.314   2.918   8.283 -0.4842  1.8532 -1.5459
  927MOL0     H25142   0.462   3.074   8.033  1.3723  0.4323 -1.9177
  927MOL0     H25143   0.762   3.080   7.863 -1.5556 -2.4390  0.5352
  927MOL0     H25144   0.596   3.042   7.856 -0.9909  0.9656  0.6969
  927MOL0     H25145   0.646   3.218   7.849  0.9712  0.2621 -0.9752
  928MOL0     O25146   8.673   2.336   0.789  0.8484 -0.9561  0.0750
  928MOL0     C25147   8.574   2.297   0.851 -0.0020  0.2122 -0.9319
  928MOL0     O25148   8.579   2.246   0.975  0.1195  0.3382 -1.1451
  928MOL0     C25149   8.707   2.225   1.033  0.1646 -0.2202 -0.6238
  928MOL0     C25150   8.790   2.115   0.998 -0.5668 -0.5330  0.0785
  928MOL0     C25151   8.899   2.073   1.076 -0.2838 -0.8941 -0.6440
  928MOL0     C25152   8.935   2.156   1.188  0.0330  0.2942  0.2836
  928MOL0     O25153   9.058   2.142   1.247  0.1796  0.6842 -1.0968
  928MOL0     C25154   9.091   2.208   1.373  1.6490 -0.0935 -0.4675
  928MOL0     C25155   9.231   2.161   1.434  0.7176  0.1865  0.5704
  928MOL0     C25156   9.227   2.016   1.494  1.1535 -0.6385  0.0922
  928MOL0     C25157   9.323   1.993   1.605 -0.4507 -0.4091  0.9039
  928MOL0     C25158   9.449   1.914   1.555  1.0764  0.3557 -0.2765
  928MOL0     C25159   9.554   2.015   1.508 -0.3130  0.1905 -0.0878
  928MOL0     C25160   9.673   1.939   1.451  0.0814 -0.2187  0.0162
  928MOL0     C25161   9.738   2.013   1.330 -0.4928  0.9282  0.6474
  928MOL0     N25162   9.830   2.110   1.381 -0.0996 -0.2515 -0.2991
  928MOL0     C25163   9.826   2.243   1.363  0.1800  0.8583  0.8416
  928MOL0     C25164   9.950   2.291   1.388 -0.6050  0.2314  0.6555
  928MOL0     C25165  10.002   2.435   1.362  0.4045  0.3976  0.2127
  928MOL0     C25166   9.955   2.526   1.467  0.7036 -0.6531 -0.4860
  928MOL0     C25167  10.033   2.650   1.483 -0.1720  0.4185 -0.4210
  928MOL0     C25168  10.036   2.743   1.363 -0.5835 -0.9483 -0.5947
  928MOL0     O25169  10.148   2.843   1.387 -0.0539 -0.2152 -0.0071
  928MOL0     C25170  10.272   2.820   1.330 -0.4616  0.6829  0.3729
  928MOL0     C25171  10.317   2.696   1.291 -0.4315  0.2300 -0.6178
  928MOL0     C25172  10.444   2.684   1.237  0.2482  0.5478  0.4344
  928MOL0     C25173  10.526   2.795   1.213 -0.1560  0.4681 -0.5460
  928MOL0     C25174  10.666   2.766   1.165  0.2966 -1.4752  0.4864
  928MOL0     O25175  10.732   2.874   1.104  0.3545 -0.4003  0.1105
  928MOL0     C25176  10.856   2.865   1.046 -0.1826 -0.0837 -0.2092
  928MOL0     C25177  10.949   2.758   1.053  0.0567  0.3149  0.2711
  928MOL0     C25178  11.070   2.761   0.990 -0.7015  0.6172  0.2590
  928MOL0     C25179  11.106   2.875   0.911 -0.2530  0.9806  0.1507
  928MOL0     O25180  11.223   2.908   0.852  0.0596  0.0188  0.4338
  928MOL0     C25181  11.323   2.807   0.860 -1.0130  0.2394  0.2322
  928MOL0     C25182  11.425   2.830   0.749  0.6855 -0.5481 -0.4890
  928MOL0     C25183  11.562   2.788   0.774 -0.1828 -0.1931  0.5893
  928MOL0     C25184  11.650   2.774   0.654 -0.0104  0.3098  0.0189
  928MOL0     C25185  11.798   2.743   0.708 -0.3540  0.0292 -0.1264
  928MOL0     C25186  11.905   2.741   0.596  0.0970  0.1462  0.2803
  928MOL0     C25187  12.032   2.667   0.641 -0.6085 -1.2956 -0.0146
  928MOL0     C25188  12.139   2.690   0.532  0.2269 -0.0332  0.4223
  928MOL0    Cl25189  12.280   2.601   0.575 -0.5186 -0.6852  0.3623
  928MOL0     C25190  11.010   2.976   0.903  0.1185  1.1552 -0.1871
  928MOL0     C25191  10.888   2.980   0.974  0.2879 -0.0566 -0.3504
  928MOL0     O25192  10.714   2.661   1.172  0.9480  0.0848 -0.8752
  928MOL0     C25193  10.475   2.921   1.235  0.3923 -0.0325 -0.2623
  928MOL0     C25194  10.355   2.927   1.304  0.3506  0.3047 -1.4390
  928MOL0     N25195  10.028   2.176   1.407 -0.3449 -0.7283  0.5268
  928MOL0     N25196   9.951   2.075   1.408  0.4938  0.0554  0.7970
  928MOL0     C25197   8.862   2.268   1.218  0.5651  0.2605 -0.2816
  928MOL0     C25198   8.747   2.308   1.135  0.0249 -0.2943  0.5385
  928MOL0     C25199   8.439   2.293   0.781  0.0580 -0.8895  0.3762
  928MOL0     C25200   8.435   2.355   0.657  0.4687 -0.8353 -0.2106
  928MOL0     C25201   8.324   2.361   0.583  1.2259 -0.3327  0.0131
  928MOL0     C25202   8.198   2.317   0.639 -0.2049 -0.1191  0.6119
  928MOL0     O25203   8.078   2.320   0.579  0.3633  0.7039  0.2950
  928MOL0     C25204   8.051   2.390   0.453  0.8380  1.0921 -0.3871
  928MOL0     C25205   8.049   2.541   0.481  0.7155  0.1217 -0.7267
  928MOL0     C25206   7.981   2.623   0.366  0.7983  0.2282  0.0549
  928MOL0     C25207   7.823   2.641   0.371  0.5393  0.0409  0.1524
  928MOL0     C25208   7.766   2.770   0.344  0.0744 -0.5951 -0.5004
  928MOL0     C25209   7.699   2.870   0.340  0.5925 -0.3490 -0.0996
  928MOL0     C25210   8.203   2.257   0.755  0.5503 -0.6421  0.6647
  928MOL0     C25211   8.318   2.243   0.831  0.6413 -0.3158 -0.7201
  928MOL0     C25212   8.307   2.167   0.962 -0.2645  0.6931  0.2345
  928MOL0     H25213   8.757   2.053   0.915  1.3889  2.1097 -2.8965
  928MOL0     H25214   8.971   1.995   1.054 -0.3661 -1.1506 -0.0125
  928MOL0     H25215   9.084   2.316   1.358  1.2652 -0.0725 -0.1454
  928MOL0     H25216   9.015   2.184   1.447 -0.9051  0.6035 -2.7081
  928MOL0     H25217   9.263   2.235   1.508  1.0697  1.1321 -0.5034
  928MOL0     H25218   9.288   2.154   1.341 -0.0810 -1.4231  0.1611
  928MOL0     H25219   9.247   1.946   1.412  0.2138  0.8738 -1.5153
  928MOL0     H25220   9.131   2.000   1.544  1.6411 -2.7728  0.4455
  928MOL0     H25221   9.357   2.080   1.663 -0.2159 -0.8334  1.4163
  928MOL0     H25222   9.259   1.946   1.681 -0.1244  1.0137  2.1091
  928MOL0     H25223   9.481   1.863   1.647  1.0668  1.2130  0.2102
  928MOL0     H25224   9.419   1.844   1.476 -2.9986  1.2505  0.2793
  928MOL0     H25225   9.505   2.080   1.435 -1.5481 -0.2914  0.2862
  928MOL0     H25226   9.583   2.074   1.595 -0.3151 -1.4689  1.0826
  928MOL0     H25227   9.643   1.838   1.420  0.0747  0.1151 -1.0997
  928MOL0     H25228   9.740   1.912   1.533 -2.2961  0.1288  2.2280
  928MOL0     H25229   9.783   1.937   1.266 -1.5628 -1.3623  2.4581
  928MOL0     H25230   9.653   2.066   1.285 -0.0586  1.0673 -0.0242
  928MOL0     H25231   9.755   2.314   1.323  2.8469  1.5731 -3.2245
  928MOL0     H25232  10.110   2.418   1.365  0.0228 -3.0025 -1.1427
  928MOL0     H25233   9.975   2.477   1.264  1.8983  2.3154  0.5552
  928MOL0     H25234   9.850   2.557   1.457  1.1404  1.0000 -0.2145
  928MOL0     H25235   9.962   2.467   1.559  0.1316  1.9850  1.3724
  928MOL0     H25236  10.134   2.618   1.511 -1.1663 -1.1420  1.5587
  928MOL0     H25237   9.986   2.702   1.567  0.1623  1.2731 -0.7442
  928MOL0     H25238   9.939   2.793   1.357 -1.0281 -1.5650  0.8756
  928MOL0     H25239  10.044   2.699   1.264  3.1472 -0.5794 -0.6063
  928MOL0     H25240  10.254   2.607   1.292 -0.4769  0.2481  0.6186
  928MOL0     H25241  10.469   2.582   1.213  1.6461  1.1850 -1.0161
  928MOL0     H25242  10.926   2.665   1.104 -0.6720  0.8289  0.9166
  928MOL0     H25243  11.137   2.679   1.012 -1.5991  0.3539  2.3110
  928MOL0     H25244  11.378   2.798   0.954  1.2140 -0.5136 -1.0729
  928MOL0     H25245  11.283   2.706   0.842  0.3944  0.2290 -3.8871
  928MOL0     H25246  11.389   2.766   0.668 -0.0226  1.1703 -1.6107
  928MOL0     H25247  11.422   2.936   0.721 -0.6252 -0.2088  0.8002
  928MOL0     H25248  11.607   2.864   0.838  1.2430 -0.1718 -0.4114
  928MOL0     H25249  11.562   2.693   0.829  0.2956 -0.1139  0.7271
  928MOL0     H25250  11.659   2.865   0.594 -3.6760  1.4870  1.0145
  928MOL0     H25251  11.603   2.693   0.598  0.0805 -0.2174  0.6902
  928MOL0     H25252  11.795   2.646   0.758 -0.7167 -1.1023 -2.2614
  928MOL0     H25253  11.842   2.813   0.780 -0.9063 -0.9869  1.2660
  928MOL0     H25254  11.852   2.695   0.511 -2.4094  1.3697  1.0642
  928MOL0     H25255  11.925   2.848   0.593  0.5274  0.1407  2.0488
  928MOL0     H25256  12.005   2.563   0.661  1.4045 -1.7530  0.5427
  928MOL0     H25257  12.065   2.710   0.736  0.3175 -1.8230 -0.0857
  928MOL0     H25258  12.111   2.653   0.433 -1.2578 -2.6211  1.7112
  928MOL0     H25259  12.164   2.795   0.517  1.0931 -0.5368 -2.1478
  928MOL0     H25260  11.033   3.063   0.841 -2.8146  4.3066  2.7214
  928MOL0     H25261  10.824   3.067   0.983  0.8830  0.3496 -0.0477
  928MOL0     H25262  10.525   3.015   1.210  1.8847  0.7161  4.4883
  928MOL0     H25263  10.328   3.025   1.341 -1.2794 -1.2248  1.7782
  928MOL0     H25264   8.881   2.327   1.307 -0.3576 -1.1578  0.9004
  928MOL0     H25265   8.683   2.386   1.174 -1.0415 -1.3217  0.8814
  928MOL0     H25266   8.520   2.405   0.613  0.1827 -1.0016 -0.9692
  928MOL0     H25267   8.320   2.395   0.480  0.7652  0.8496  0.4001
  928MOL0     H25268   7.957   2.345   0.419 -0.7234 -1.0697  5.5066
  928MOL0     H25269   8.132   2.364   0.385  0.7907 -1.7009  0.5096
  928MOL0     H25270   8.154   2.570   0.485  0.9350 -0.7785  1.4377
  928MOL0     H25271   7.995   2.566   0.573 -0.0427 -1.7858 -0.6041
  928MOL0     H25272   8.005   2.577   0.270  0.6691 -1.9198  0.9879
  928MOL0     H25273   8.033   2.719   0.374 -1.5166  1.5737 -0.2808
  928MOL0     H25274   7.786   2.572   0.294  0.4436  1.0154 -0.6928
  928MOL0     H25275   7.794   2.606   0.471 -1.2993  0.3964 -0.2182
  928MOL0     H25276   7.640   2.958   0.325  0.6755  0.2728  2.6937
  928MOL0     H25277   8.110   2.217   0.795 -1.4199  1.2898 -1.6641
  928MOL0     H25278   8.201   2.144   0.981 -0.5197  2.9387  1.9727
  928MOL0     H25279   8.365   2.074   0.956  1.8484  1.9042  0.8637
  928MOL0     H25280   8.340   2.218   1.053 -1.8158 -1.9326  2.4217
  929MOL0     O25281   8.119   8.213  11.283  0.1278  0.3145 -0.4090
  929MOL0     C25282   8.107   8.138  11.191 -0.3781 -0.3255  0.0075
  929MOL0     O25283   8.183   8.138  11.078 -0.3246 -0.6535 -0.5874
  929MOL0     C25284   8.270   8.248  11.061 -0.9181 -0.6054  0.8435
  929MOL0     C25285   8.261   8.311  10.938 -0.1477 -0.3406 -0.2398
  929MOL0     C25286   8.353   8.419  10.910 -0.1605  0.5134 -0.0685
  929MOL0     C25287   8.449   8.456  10.994  0.0036  0.7596 -0.1355
  929MOL0     O25288   8.546   8.549  10.955 -0.2017 -0.1585 -0.7855
  929MOL0     C25289   8.544   8.667  11.030 -0.4326 -0.2475  0.1725
  929MOL0     C25290   8.692   8.713  11.054 -0.2607  0.5469  0.0487
  929MOL0     C25291   8.802   8.703  10.942 -0.1407  0.0323 -0.3441
  929MOL0     C25292   8.747   8.770  10.812  0.6051  0.3551  0.3780
  929MOL0     C25293   8.860   8.779  10.705  0.5496 -0.3236 -1.0418
  929MOL0     C25294   8.827   8.881  10.590 -1.1045 -0.1386  0.1438
  929MOL0     C25295   8.935   8.889  10.483 -0.3112  1.3509 -1.0716
  929MOL0     C25296   8.893   8.992  10.373  0.0295  0.0493 -0.0161
  929MOL0     N25297   8.997   9.018  10.278 -0.1588 -0.7090 -0.3949
  929MOL0     C25298   9.103   9.099  10.317 -0.3379 -0.1023 -0.2874
  929MOL0     C25299   9.181   9.121  10.206 -0.2157 -0.4522 -0.1232
  929MOL0     C25300   9.314   9.188  10.195 -0.1178  0.0071 -0.3025
  929MOL0     C25301   9.315   9.350  10.198  0.1621  0.0352 -0.7376
  929MOL0     C25302   9.457   9.403  10.191  0.2885  0.2614  0.2597
  929MOL0     C25303   9.553   9.351  10.302  0.9396  0.3186  0.8793
  929MOL0     O25304   9.687   9.407  10.284  0.1795  1.0767 -0.6081
  929MOL0     C25305   9.759   9.379  10.182 -0.2489  0.6047  0.1864
  929MOL0     C25306   9.829   9.485  10.124 -0.3510 -0.0306  0.2164
  929MOL0     C25307   9.920   9.473  10.014  0.5857 -0.7585 -0.5143
  929MOL0     C25308   9.956   9.345   9.965 -0.1290  0.1644  0.4128
  929MOL0     C25309  10.070   9.333   9.866  1.3921  0.7013 -0.5551
  929MOL0     O25310  10.092   9.445   9.793 -0.7639  0.0217  0.7593
  929MOL0     C25311  10.219   9.474   9.766 -0.1113 -0.1226 -0.2545
  929MOL0     C25312  10.333   9.407   9.800 -0.6710 -0.0322 -0.2256
  929MOL0     C25313  10.454   9.449   9.753 -0.5200 -0.2008 -0.7351
  929MOL0     C25314  10.471   9.568   9.679  0.5267  0.0975 -0.5019
  929MOL0     O25315  10.589   9.621   9.630 -0.0215 -0.4242  0.3000
  929MOL0     C25316  10.709   9.537   9.638 -0.3411 -0.5684  0.2544
  929MOL0     C25317  10.805   9.581   9.529  0.3840 -0.3898  0.5248
  929MOL0     C25318  10.919   9.665   9.586  0.6578  0.7415 -0.3498
  929MOL0     C25319  11.027   9.654   9.479 -0.5464 -0.9112  0.2332
  929MOL0     C25320  11.169   9.711   9.524 -0.0966  0.3664 -1.4954
  929MOL0     C25321  11.164   9.864   9.543  0.3831  0.4881 -0.6898
  929MOL0     C25322  11.287   9.937   9.597  0.0093 -0.2608  0.5792
  929MOL0     C25323  11.322   9.913   9.741  0.6046 -0.5922  0.9281
  929MOL0    Cl25324  11.182   9.944   9.854 -0.1966  0.1947  0.5867
  929MOL0     C25325  10.356   9.635   9.637 -0.6780 -0.3061 -0.1259
  929MOL0     C25326  10.230   9.590   9.681  0.2505  0.1484 -0.0387
  929MOL0     O25327  10.112   9.219   9.841 -0.4287 -0.2442  0.2366
  929MOL0     C25328   9.896   9.236  10.026  0.5695  0.0919 -0.5200
  929MOL0     C25329   9.799   9.252  10.128  0.0922  0.1963 -0.5364
  929MOL0     N25330   9.131   9.035  10.103  0.5493 -0.5635 -0.3297
  929MOL0     N25331   9.021   8.978  10.148 -0.4122  1.0589 -0.4630
  929MOL0     C25332   8.455   8.387  11.110 -0.8980 -0.6827 -0.6290
  929MOL0     C25333   8.374   8.286  11.144  0.8579 -0.0602 -0.4040
  929MOL0     C25334   8.007   8.011  11.192 -0.0494  0.0186  0.0304
  929MOL0     C25335   7.967   7.957  11.067  0.4973 -0.0022 -0.3290
  929MOL0     C25336   7.865   7.861  11.051 -1.5422  0.0399 -0.8445
  929MOL0     C25337   7.808   7.810  11.171  0.4579  0.3736 -0.3296
  929MOL0     O25338   7.712   7.708  11.172  0.5839  0.8292  0.5696
  929MOL0     C25339   7.610   7.698  11.067  0.1826  0.7561 -0.2363
  929MOL0     C25340   7.501   7.605  11.101  1.2236  0.7960 -0.0172
  929MOL0     C25341   7.554   7.459  11.103  0.2554 -0.2792 -0.1688
  929MOL0     C25342   7.430   7.378  11.154  0.4053 -1.0307 -0.0466
  929MOL0     C25343   7.453   7.232  11.157 -0.9451  0.0113 -1.2951
  929MOL0     C25344   7.478   7.117  11.179 -0.0504 -0.6772  1.1669
  929MOL0     C25345   7.841   7.867  11.296  0.2445  0.7694  0.3982
  929MOL0     C25346   7.939   7.970  11.308  0.3538  0.0627 -0.2293
  929MOL0     C25347   7.962   8.028  11.444  0.6346 -0.0600 -0.1936
  929MOL0     H25348   8.185   8.281  10.866  0.1385 -1.9426  0.0801
  929MOL0     H25349   8.350   8.474  10.817 -0.4272  0.4595 -0.0902
  929MOL0     H25350   8.482   8.739  10.975  1.2583  0.9948 -0.1805
  929MOL0     H25351   8.489   8.651  11.123 -0.3441 -2.5864 -0.1103
  929MOL0     H25352   8.713   8.653  11.143  0.1875 -1.0503 -1.0893
  929MOL0     H25353   8.696   8.815  11.094  3.0033  0.2966  0.6408
  929MOL0     H25354   8.837   8.603  10.915 -0.5594  0.5184 -2.9795
  929MOL0     H25355   8.892   8.761  10.966 -1.7826  2.2473  0.8047
  929MOL0     H25356   8.658   8.721  10.771  1.5892  0.4118 -2.0192
  929MOL0     H25357   8.721   8.875  10.830 -1.1731 -0.0256  0.2231
  929MOL0     H25358   8.954   8.816  10.748 -1.6070  3.6607  0.7825
  929MOL0     H25359   8.877   8.677  10.669  0.2092 -0.6046 -0.4268
  929MOL0     H25360   8.732   8.858  10.541 -2.2557  2.6218  0.8597
  929MOL0     H25361   8.819   8.981  10.633 -1.3619 -0.6116  1.2217
  929MOL0     H25362   8.950   8.790  10.441  0.0698  0.0619  1.8526
  929MOL0     H25363   9.024   8.929  10.533 -0.6383  3.0691 -1.7698
  929MOL0     H25364   8.806   8.956  10.318  0.0184  0.4874 -0.2892
  929MOL0     H25365   8.871   9.084  10.427 -1.3594 -0.2813  0.0149
  929MOL0     H25366   9.117   9.143  10.415  1.8415 -1.8881  0.2827
  929MOL0     H25367   9.360   9.155  10.288 -1.4113  0.7596  0.6377
  929MOL0     H25368   9.372   9.149  10.111  0.7488  0.9580 -0.1629
  929MOL0     H25369   9.255   9.398  10.121 -0.0418  2.6732  0.9477
  929MOL0     H25370   9.276   9.367  10.299  0.0975  1.2660 -0.9596
  929MOL0     H25371   9.459   9.512  10.181  0.9348  0.1397 -1.3019
  929MOL0     H25372   9.501   9.361  10.100  2.4601  1.6150  0.6331
  929MOL0     H25373   9.558   9.243  10.286  2.4723  0.8565 -3.8652
  929MOL0     H25374   9.523   9.374  10.404  3.4882  0.1241  1.7473
  929MOL0     H25375   9.794   9.578  10.170 -1.4764 -0.7554  0.8891
  929MOL0     H25376   9.961   9.563   9.969 -0.6295 -0.5343 -1.2259
  929MOL0     H25377  10.334   9.310   9.848 -2.2151  0.3775  0.7023
  929MOL0     H25378  10.547   9.396   9.775 -0.2975  0.3717 -0.2510
  929MOL0     H25379  10.755   9.534   9.737  1.0737  1.3402 -0.2966
  929MOL0     H25380  10.681   9.439   9.598 -0.9323  0.6844 -2.6669
  929MOL0     H25381  10.839   9.488   9.481  1.2464  0.2105 -0.0521
  929MOL0     H25382  10.756   9.644   9.455 -1.8900 -1.9849  0.5629
  929MOL0     H25383  10.879   9.766   9.594 -1.5290 -0.0822 -0.2093
  929MOL0     H25384  10.954   9.646   9.688 -4.5967  0.4934  1.7016
  929MOL0     H25385  11.000   9.709   9.388 -0.3634  2.1469  1.9053
  929MOL0     H25386  11.061   9.553   9.453  0.1673 -0.4625 -0.6445
  929MOL0     H25387  11.241   9.691   9.445  2.0786 -1.9119  0.8766
  929MOL0     H25388  11.212   9.677   9.619  0.0320  3.5516 -0.2640
  929MOL0     H25389  11.149   9.893   9.439 -1.1623  0.8371 -0.3992
  929MOL0     H25390  11.080   9.898   9.604  2.9420  2.7039  1.8924
  929MOL0     H25391  11.268  10.043   9.575  0.4586 -0.4130 -0.6506
  929MOL0     H25392  11.372   9.901   9.539 -1.4411 -2.6797 -0.1981
  929MOL0     H25393  11.359   9.810   9.744  1.6052 -0.3051 -0.5780
  929MOL0     H25394  11.412   9.966   9.773 -1.2977  3.1851  0.5449
  929MOL0     H25395  10.366   9.726   9.579  1.5524 -0.4770 -0.1089
  929MOL0     H25396  10.145   9.647   9.645 -1.3954 -2.4487 -0.5895
  929MOL0     H25397   9.904   9.137   9.981 -0.8570  0.6505 -2.1481
  929MOL0     H25398   9.745   9.172  10.178 -3.1226  1.9511 -0.9949
  929MOL0     H25399   8.538   8.413  11.175 -2.4360 -0.0256  1.1408
  929MOL0     H25400   8.371   8.229  11.237 -1.5139  0.8815  0.1800
  929MOL0     H25401   8.019   7.999  10.982  2.3755 -0.1534  0.6891
  929MOL0     H25402   7.849   7.813  10.955  0.3111  0.4472 -1.3880
  929MOL0     H25403   7.647   7.667  10.969 -0.3649  3.6189 -1.4633
  929MOL0     H25404   7.566   7.796  11.045 -2.3495 -0.7755 -2.5556
  929MOL0     H25405   7.418   7.618  11.031  0.2966 -2.1104  0.4367
  929MOL0     H25406   7.464   7.638  11.199 -0.9869 -1.6189  0.0537
  929MOL0     H25407   7.633   7.453  11.179  0.4806  2.2653 -0.1331
  929MOL0     H25408   7.578   7.419  11.004 -4.6737 -1.4352 -1.1530
  929MOL0     H25409   7.416   7.420  11.254  0.8011 -1.0725  0.0265
  929MOL0     H25410   7.342   7.389  11.089  1.6462 -0.3589 -1.7110
  929MOL0     H25411   7.492   7.014  11.206 -0.7975 -0.1347  4.0050
  929MOL0     H25412   7.802   7.838  11.394  1.1896  0.7970  0.7935
  929MOL0     H25413   8.065   8.016  11.479 -0.7809 -0.2896  4.4957
  929MOL0     H25414   7.947   8.135  11.434  0.7341  0.3607  3.0584
  929MOL0     H25415   7.890   7.996  11.520  0.3934  0.3579 -0.2473
  930MOL0     O25416   0.204   7.004   9.634  0.0790  0.3167  0.0911
  930MOL0     C25417   0.178   7.115   9.677  0.5050 -0.0616 -0.9140
  930MOL0     O25418   0.253   7.181   9.766 -0.7642 -0.2881 -0.5974
  930MOL0     C25419   0.359   7.117   9.804 -0.1953 -0.2555 -0.6670
  930MOL0     C25420   0.371   7.074   9.939  0.4357  1.0075  0.5211
  930MOL0     C25421   0.483   6.996   9.979  1.0183 -0.0051 -0.3590
  930MOL0     C25422   0.594   6.981   9.887 -0.2611 -0.4959 -0.4509
  930MOL0     O25423   0.714   6.917   9.908  0.8566  0.2588  0.1208
  930MOL0     C25424   0.705   6.797   9.990  0.6139  0.1656  0.0999
  930MOL0     C25425   0.798   6.677   9.940 -0.1534 -0.7289  1.2288
  930MOL0     C25426   0.928   6.683  10.014 -0.8160  0.6020 -0.5411
  930MOL0     C25427   1.039   6.575   9.983 -0.2323 -0.0331 -0.9678
  930MOL0     C25428   1.172   6.609  10.047  0.8017 -0.3527  0.1759
  930MOL0     C25429   1.241   6.739  10.010  0.4588 -0.7962 -0.0911
  930MOL0     C25430   1.365   6.774  10.083 -0.1795  1.1335 -0.5416
  930MOL0     C25431   1.405   6.915  10.084  0.2019 -0.9537 -0.2951
  930MOL0     N25432   1.545   6.932  10.056 -0.0552  0.8957  0.2409
  930MOL0     C25433   1.595   6.926   9.927 -0.4219  0.3678 -0.0532
  930MOL0     C25434   1.738   6.914   9.944  0.2296  0.5222  1.0648
  930MOL0     C25435   1.836   6.906   9.833 -0.3561 -1.1429  0.0927
  930MOL0     C25436   1.859   6.764   9.777  0.3350  0.0344 -0.1231
  930MOL0     C25437   1.965   6.742   9.669 -0.0235 -0.4400 -0.3344
  930MOL0     C25438   2.109   6.786   9.708 -0.2911  0.4535 -0.9159
  930MOL0     O25439   2.174   6.832   9.593  0.6436 -0.5109 -0.1030
  930MOL0     C25440   2.309   6.865   9.598  0.1400 -0.3908  0.0811
  930MOL0     C25441   2.399   6.861   9.705  0.0242  0.9036  1.0175
  930MOL0     C25442   2.529   6.908   9.692  0.6477 -0.8592 -0.3149
  930MOL0     C25443   2.585   6.951   9.566  0.9370 -0.1920 -1.1471
  930MOL0     C25444   2.719   7.020   9.563  0.4163  0.2450  0.1221
  930MOL0     O25445   2.782   7.032   9.436  0.1446  0.2920 -0.2023
  930MOL0     C25446   2.906   7.091   9.440 -0.0453 -0.3465  0.3953
  930MOL0     C25447   3.024   7.025   9.423 -0.0067  0.2707 -0.3652
  930MOL0     C25448   3.144   7.081   9.430 -0.7473  0.5526 -0.2961
  930MOL0     C25449   3.148   7.221   9.432 -0.1283  0.6030 -0.4921
  930MOL0     O25450   3.264   7.284   9.400 -0.8343  0.3983  0.5129
  930MOL0     C25451   3.306   7.384   9.495  0.2065  0.9483 -0.0420
  930MOL0     C25452   3.441   7.346   9.566 -0.5397  0.1917 -0.3782
  930MOL0     C25453   3.546   7.326   9.463 -0.4471  0.5701 -0.1312
  930MOL0     C25454   3.688   7.270   9.516 -0.9954  0.0926 -0.4126
  930MOL0     C25455   3.803   7.319   9.423 -0.0555 -0.4510  0.1073
  930MOL0     C25456   3.942   7.277   9.444  0.3512  0.1108  0.8580
  930MOL0     C25457   4.037   7.346   9.348  0.7925 -0.0401  0.1471
  930MOL0     C25458   4.180   7.295   9.348 -0.9994  0.6137 -0.3089
  930MOL0    Cl25459   4.214   7.140   9.266 -0.1609  0.0979 -0.0466
  930MOL0     C25460   3.032   7.299   9.445 -0.6620 -0.1723 -0.4320
  930MOL0     C25461   2.911   7.235   9.447  0.0856  0.0916 -0.0621
  930MOL0     O25462   2.770   7.033   9.676  0.0299  0.0792  0.1103
  930MOL0     C25463   2.494   6.955   9.458  0.2795  0.4378 -0.1297
  930MOL0     C25464   2.360   6.912   9.472  0.4719  0.5871 -0.0776
  930MOL0     N25465   1.761   6.913  10.083 -0.0716  0.0156  0.2094
  930MOL0     N25466   1.649   6.918  10.145 -0.9174  0.5925 -0.4293
  930MOL0     C25467   0.580   7.028   9.752  0.3734 -0.3330 -0.8669
  930MOL0     C25468   0.464   7.106   9.717  0.1929  0.0622 -0.6158
  930MOL0     C25469   0.051   7.175   9.633  0.1900 -0.1791 -0.6466
  930MOL0     C25470   0.017   7.299   9.679 -0.3828  0.6568  0.1705
  930MOL0     C25471  -0.107   7.351   9.650 -1.2444 -0.0417 -0.4298
  930MOL0     C25472  -0.198   7.288   9.568  0.2918 -0.0907  1.0816
  930MOL0     O25473  -0.318   7.338   9.562  1.2666 -0.2623  0.1346
  930MOL0     C25474  -0.392   7.302   9.441  0.4763  0.1911 -0.1287
  930MOL0     C25475  -0.499   7.414   9.407  0.9848  0.5808  0.2323
  930MOL0     C25476  -0.585   7.472   9.522  0.4628 -0.7038 -0.2538
  930MOL0     C25477  -0.708   7.385   9.538  0.5018  0.0645 -0.5085
  930MOL0     C25478  -0.703   7.243   9.559 -0.2915 -0.1015 -0.0752
  930MOL0     C25479  -0.700   7.127   9.585 -0.0182 -0.3969  0.0468
  930MOL0     C25480  -0.166   7.161   9.521  0.2681 -0.8238 -0.2583
  930MOL0     C25481  -0.040   7.107   9.558  0.1242 -0.5701  0.8899
  930MOL0     C25482  -0.018   6.972   9.488  0.8419  0.5289 -0.3871
  930MOL0     H25483   0.280   7.080   9.997 -1.4286  0.7660 -2.1650
  930MOL0     H25484   0.485   6.937  10.070 -1.1338 -1.2535 -1.0504
  930MOL0     H25485   0.729   6.826  10.093  1.1764  3.8478 -0.8971
  930MOL0     H25486   0.601   6.762   9.993  0.0763  1.2228 -2.6463
  930MOL0     H25487   0.818   6.692   9.833  0.3808  0.6783  1.5024
  930MOL0     H25488   0.749   6.580   9.948  1.8498 -2.0485 -1.0416
  930MOL0     H25489   0.906   6.675  10.121 -0.4296 -2.9202 -0.6256
  930MOL0     H25490   0.984   6.774   9.991  1.2124 -0.1010  1.3157
  930MOL0     H25491   1.013   6.477  10.024  1.9241  0.0287  0.7305
  930MOL0     H25492   1.052   6.571   9.874 -2.6171 -1.8615 -1.2570
  930MOL0     H25493   1.182   6.607  10.156 -1.6910  1.1272  0.5215
  930MOL0     H25494   1.234   6.532  10.002 -0.7176 -1.8092  0.4532
  930MOL0     H25495   1.245   6.757   9.902  1.5109  1.6119  0.2806
  930MOL0     H25496   1.178   6.824  10.039 -0.4873 -1.4014 -0.3327
  930MOL0     H25497   1.437   6.702  10.043 -1.8157 -1.9315  1.6054
  930MOL0     H25498   1.356   6.746  10.189 -1.0213  3.0853 -0.0486
  930MOL0     H25499   1.343   6.980  10.022  0.1681  0.6040  1.3040
  930MOL0     H25500   1.401   6.951  10.187  4.0900  1.0821 -0.6501
  930MOL0     H25501   1.548   6.933   9.829  0.0471  1.3629 -0.2227
  930MOL0     H25502   1.806   6.982   9.760  2.2798 -0.7078 -0.6637
  930MOL0     H25503   1.931   6.934   9.879 -0.2752 -1.4626  0.1205
  930MOL0     H25504   1.883   6.695   9.858  1.4661  0.1923 -0.3088
  930MOL0     H25505   1.764   6.735   9.730  1.9097 -3.1924 -1.6300
  930MOL0     H25506   1.933   6.802   9.584 -2.9614  1.4114  1.8737
  930MOL0     H25507   1.966   6.636   9.644  0.1983 -0.2987 -0.9523
  930MOL0     H25508   2.163   6.708   9.764 -0.8266  0.6591 -0.1057
  930MOL0     H25509   2.111   6.877   9.768  0.0564  1.2548 -2.1178
  930MOL0     H25510   2.360   6.830   9.801 -1.6942  1.0464  0.3984
  930MOL0     H25511   2.585   6.912   9.785 -0.2735 -4.4451  0.5295
  930MOL0     H25512   3.001   6.922   9.399 -2.8402  1.3674 -2.9567
  930MOL0     H25513   3.228   7.015   9.408 -0.4184  0.7070  0.4698
  930MOL0     H25514   3.310   7.479   9.440 -0.3916  1.6612  1.1111
  930MOL0     H25515   3.241   7.399   9.581  3.1540  2.1982  2.1099
  930MOL0     H25516   3.468   7.427   9.634  3.1262 -1.4207  0.3556
  930MOL0     H25517   3.431   7.253   9.623 -0.5654  0.5726  0.2457
  930MOL0     H25518   3.506   7.244   9.402  0.8422  0.5456 -0.9823
  930MOL0     H25519   3.566   7.418   9.407 -3.1783  1.0567 -0.4578
  930MOL0     H25520   3.685   7.163   9.533  2.2628 -0.0359 -0.0755
  930MOL0     H25521   3.703   7.313   9.616  0.5963 -2.1729  0.4108
  930MOL0     H25522   3.810   7.427   9.433 -1.5828 -0.0325 -2.5327
  930MOL0     H25523   3.770   7.302   9.321 -0.9367  3.9636 -0.5448
  930MOL0     H25524   3.970   7.305   9.546 -1.5426 -0.3238  1.5372
  930MOL0     H25525   3.934   7.168   9.438 -0.3683  0.1726  0.6237
  930MOL0     H25526   4.041   7.454   9.366  0.4159 -0.3468  2.3964
  930MOL0     H25527   4.000   7.336   9.245  0.6847  3.2839 -0.2655
  930MOL0     H25528   4.243   7.373   9.304 -1.1698  0.1911 -1.3232
  930MOL0     H25529   4.224   7.294   9.448  0.4496  0.2029 -0.9215
  930MOL0     H25530   3.038   7.407   9.453  1.7835 -0.3615  1.9325
  930MOL0     H25531   2.821   7.295   9.455  0.8488  1.0953  1.3204
  930MOL0     H25532   2.517   6.998   9.361 -1.1640 -0.9823 -1.1595
  930MOL0     H25533   2.296   6.915   9.385 -1.4024  3.0574  1.2546
  930MOL0     H25534   0.645   7.013   9.667  1.3006  0.1768 -0.2658
  930MOL0     H25535   0.451   7.145   9.617 -1.4030 -2.6762 -1.5749
  930MOL0     H25536   0.072   7.358   9.752 -4.0814  1.9775  2.1821
  930MOL0     H25537  -0.124   7.450   9.691 -0.6290 -0.8070  1.7946
  930MOL0     H25538  -0.447   7.209   9.455  2.4449 -0.8964  0.7585
  930MOL0     H25539  -0.328   7.290   9.353 -0.2785 -0.9354 -0.5473
  930MOL0     H25540  -0.562   7.370   9.329  0.7279  1.0069  0.1963
  930MOL0     H25541  -0.440   7.493   9.360  0.8386 -0.2870 -1.4703
  930MOL0     H25542  -0.610   7.576   9.503 -0.2777 -0.5515  1.3969
  930MOL0     H25543  -0.530   7.468   9.617  0.1652 -4.1342 -0.0937
  930MOL0     H25544  -0.777   7.421   9.615  2.1702  2.0779  0.1471
  930MOL0     H25545  -0.765   7.399   9.446  0.0509 -1.5899 -0.5165
  930MOL0     H25546  -0.700   7.025   9.619 -0.3524 -0.4243 -0.0323
  930MOL0     H25547  -0.237   7.117   9.451 -3.3924  2.4516  1.0096
  930MOL0     H25548  -0.008   6.895   9.565 -0.9775  0.8989  0.2776
  930MOL0     H25549  -0.102   6.943   9.424 -0.4738 -0.8170  1.8250
  930MOL0     H25550   0.079   6.973   9.437  0.0258 -0.6373 -2.0451
  931MOL0     O25551   3.062   2.524   5.215  0.2695  0.1556  0.2230
  931MOL0     C25552   2.999   2.625   5.209 -0.3045 -0.5988 -0.5827
  931MOL0     O25553   3.019   2.729   5.304  0.1718 -0.5092 -0.1904
  931MOL0     C25554   3.145   2.735   5.356 -0.0791 -0.5561  0.1220
  931MOL0     C25555   3.235   2.803   5.282  0.0078 -0.1979  0.0667
  931MOL0     C25556   3.360   2.821   5.321  0.8649  0.3623 -0.7967
  931MOL0     C25557   3.407   2.780   5.452  0.2313 -0.1581 -0.1318
  931MOL0     O25558   3.533   2.790   5.498 -0.0281 -0.1773 -0.1777
  931MOL0     C25559   3.641   2.756   5.412 -0.2391 -0.2703 -0.3331
  931MOL0     C25560   3.765   2.753   5.499  0.0914  0.5623 -0.2448
  931MOL0     C25561   3.813   2.877   5.575 -0.0261  0.5882  0.7068
  931MOL0     C25562   3.918   2.834   5.676  0.3816 -0.2504 -0.3048
  931MOL0     C25563   4.053   2.812   5.603 -0.4312  0.0257  0.1340
  931MOL0     C25564   4.148   2.729   5.690  0.2668 -0.5193 -0.1711
  931MOL0     C25565   4.289   2.706   5.622  0.3089 -0.3432  0.0966
  931MOL0     C25566   4.367   2.839   5.606 -0.4230  0.3556 -0.0482
  931MOL0     N25567   4.511   2.816   5.587  0.0167  0.6450 -1.1262
  931MOL0     C25568   4.600   2.840   5.692 -0.1104 -0.3229 -0.8038
  931MOL0     C25569   4.723   2.834   5.641  0.0527 -0.4021 -0.2306
  931MOL0     C25570   4.850   2.851   5.729  0.5437  0.2584  0.4789
  931MOL0     C25571   4.842   2.967   5.823  0.1534 -0.6944 -0.3024
  931MOL0     C25572   4.983   2.988   5.884  0.6380 -0.0030  0.2410
  931MOL0     C25573   4.995   3.118   5.963 -0.0909  0.1607 -0.0188
  931MOL0     O25574   5.105   3.191   5.919  0.0813 -0.5515 -0.1652
  931MOL0     C25575   5.227   3.138   5.938 -0.3798  0.7902 -0.7491
  931MOL0     C25576   5.275   3.076   6.057 -0.0139 -0.4344 -0.8792
  931MOL0     C25577   5.407   3.033   6.064 -0.3623  0.7799 -0.6948
  931MOL0     C25578   5.500   3.059   5.963 -0.0467  0.3914  0.2783
  931MOL0     C25579   5.646   3.026   5.969 -0.4827  0.5123 -0.1110
  931MOL0     O25580   5.683   2.969   6.094  0.4861 -0.2797  0.9044
  931MOL0     C25581   5.807   2.947   6.119 -0.0954 -0.0975 -0.4916
  931MOL0     C25582   5.863   2.822   6.154  0.2027  0.0972  0.5734
  931MOL0     C25583   5.996   2.817   6.197  0.4274 -0.0530 -0.2076
  931MOL0     C25584   6.084   2.922   6.183  0.8530 -0.3361 -0.2865
  931MOL0     O25585   6.221   2.900   6.188  0.3482 -0.1677 -0.2366
  931MOL0     C25586   6.311   2.985   6.112 -0.6938 -0.3179 -0.5967
  931MOL0     C25587   6.388   3.071   6.207  0.6782 -0.2385 -0.4615
  931MOL0     C25588   6.502   3.148   6.147 -0.0226  0.1789  0.1483
  931MOL0     C25589   6.628   3.179   6.234  0.1974 -0.9699 -0.1794
  931MOL0     C25590   6.748   3.239   6.161 -0.6781 -0.7024  0.6644
  931MOL0     C25591   6.731   3.377   6.089  0.8657  0.1480 -0.1479
  931MOL0     C25592   6.855   3.406   6.003 -0.3478  0.2187 -0.2843
  931MOL0     C25593   6.852   3.532   5.907  0.8810  0.9406 -0.7281
  931MOL0    Cl25594   7.015   3.570   5.871  0.4725  0.3169 -0.2769
  931MOL0     C25595   6.035   3.051   6.151 -0.1518  0.0637 -0.5615
  931MOL0     C25596   5.896   3.063   6.127 -0.3407  0.5591  0.5912
  931MOL0     O25597   5.727   3.072   5.887 -0.2203  0.4184  0.2421
  931MOL0     C25598   5.445   3.108   5.844 -0.8204 -0.2153 -0.3508
  931MOL0     C25599   5.313   3.148   5.831  0.4229 -0.3193 -0.2230
  931MOL0     N25600   4.717   2.794   5.506  0.0108 -0.8565 -0.6793
  931MOL0     N25601   4.584   2.793   5.480 -0.0069  0.1198 -0.1072
  931MOL0     C25602   3.309   2.716   5.527  0.2792  0.8367  0.4103
  931MOL0     C25603   3.177   2.698   5.489 -0.2890 -0.1971 -0.2319
  931MOL0     C25604   2.878   2.635   5.124 -0.5270  0.8799 -0.3459
  931MOL0     C25605   2.789   2.739   5.133 -0.1429  0.2198 -0.2709
  931MOL0     C25606   2.676   2.763   5.056  0.0265  0.7528  0.0856
  931MOL0     C25607   2.642   2.664   4.959 -0.0107 -0.3250 -0.0969
  931MOL0     O25608   2.520   2.679   4.896  0.7877 -0.2719  0.0088
  931MOL0     C25609   2.501   2.610   4.768  0.2606  0.1354  0.2136
  931MOL0     C25610   2.430   2.687   4.652  0.6670 -0.4291  0.6637
  931MOL0     C25611   2.288   2.758   4.665 -0.2638 -0.1476  0.0615
  931MOL0     C25612   2.252   2.808   4.524 -0.5145  0.0038 -0.1100
  931MOL0     C25613   2.134   2.890   4.546  0.6983  0.1588  1.0276
  931MOL0     C25614   2.025   2.947   4.556  0.2522  0.0933 -0.4660
  931MOL0     C25615   2.725   2.560   4.945  0.7199  0.3342  0.5476
  931MOL0     C25616   2.846   2.540   5.011  0.5299  0.1214 -0.4829
  931MOL0     C25617   2.926   2.419   4.974  0.1276  0.0157 -0.0509
  931MOL0     H25618   3.211   2.824   5.179  5.5192  0.9221 -1.2790
  931MOL0     H25619   3.429   2.875   5.257  0.6832  1.4110 -0.1476
  931MOL0     H25620   3.610   2.663   5.363 -3.1593  0.4696 -0.0771
  931MOL0     H25621   3.648   2.835   5.337  0.7507  0.0851  0.1154
  931MOL0     H25622   3.847   2.712   5.440  0.4400  1.5192 -0.4493
  931MOL0     H25623   3.740   2.679   5.575  0.5047  0.4988 -0.1695
  931MOL0     H25624   3.721   2.912   5.623 -1.1935  0.1109 -1.0774
  931MOL0     H25625   3.851   2.952   5.507 -0.1699  1.0930  1.1744
  931MOL0     H25626   3.931   2.913   5.750  0.7286  0.3589 -1.0067
  931MOL0     H25627   3.886   2.747   5.735  0.3361  0.0314  0.0869
  931MOL0     H25628   4.035   2.770   5.503 -1.3927  1.7637 -0.4635
  931MOL0     H25629   4.095   2.909   5.575 -0.8499  0.1258 -0.1463
  931MOL0     H25630   4.161   2.776   5.787  0.8799 -0.0526 -0.4738
  931MOL0     H25631   4.096   2.636   5.716  0.8924 -1.5130 -2.2176
  931MOL0     H25632   4.277   2.652   5.528 -1.1616 -0.7257  0.4676
  931MOL0     H25633   4.347   2.645   5.692  0.8763 -0.9277 -0.8707
  931MOL0     H25634   4.321   2.892   5.522 -2.0248 -2.5299 -1.1111
  931MOL0     H25635   4.354   2.902   5.695 -1.7562  1.2885 -0.8569
  931MOL0     H25636   4.580   2.857   5.797  1.4919 -0.8251 -0.3940
  931MOL0     H25637   4.871   2.761   5.787  3.5696 -0.8576 -2.0768
  931MOL0     H25638   4.933   2.852   5.658 -0.1183  0.9818 -0.2910
  931MOL0     H25639   4.823   3.059   5.766 -1.4752 -1.2470 -0.6984
  931MOL0     H25640   4.766   2.953   5.899  0.5402  0.5040  0.3346
  931MOL0     H25641   5.054   2.978   5.801  0.4088 -0.9650  0.1463
  931MOL0     H25642   5.004   2.910   5.958 -0.1288  0.8122  1.3467
  931MOL0     H25643   5.001   3.113   6.072 -0.6988  1.1801  0.0776
  931MOL0     H25644   4.906   3.180   5.948  0.3550  0.9089  0.4024
  931MOL0     H25645   5.208   3.052   6.139  0.3666 -0.7332 -0.6508
  931MOL0     H25646   5.440   2.997   6.161  1.6683  0.7021 -1.3534
  931MOL0     H25647   5.811   2.730   6.131 -1.5970  1.1794  0.0393
  931MOL0     H25648   6.042   2.722   6.222  2.0461  1.0540  1.3380
  931MOL0     H25649   6.378   2.915   6.061  1.6145 -1.7458  3.8378
  931MOL0     H25650   6.262   3.050   6.039  0.2373  1.3836  0.2205
  931MOL0     H25651   6.325   3.147   6.254 -1.1068 -2.2108  0.4770
  931MOL0     H25652   6.430   3.014   6.290 -0.7748  2.7115  2.5114
  931MOL0     H25653   6.547   3.093   6.064 -2.7619 -0.9053 -0.7545
  931MOL0     H25654   6.471   3.248   6.115 -0.4446 -0.0371 -0.1382
  931MOL0     H25655   6.656   3.092   6.296 -1.7135 -1.1386  0.4995
  931MOL0     H25656   6.603   3.254   6.309 -0.1596 -0.4322 -0.8360
  931MOL0     H25657   6.768   3.162   6.086 -0.1536 -1.5230  1.6274
  931MOL0     H25658   6.835   3.235   6.228  0.4393 -0.5251 -0.7379
  931MOL0     H25659   6.646   3.369   6.020  2.6719 -2.0601 -2.2546
  931MOL0     H25660   6.713   3.453   6.166  1.0933  0.8316 -0.7643
  931MOL0     H25661   6.854   3.324   5.931  0.7610  0.4334 -0.5604
  931MOL0     H25662   6.939   3.414   6.073 -0.1518  1.0680 -0.6107
  931MOL0     H25663   6.809   3.496   5.814  3.4043 -0.9970 -1.2663
  931MOL0     H25664   6.795   3.621   5.935 -1.5214 -0.5491 -0.6209
  931MOL0     H25665   6.107   3.130   6.168  0.4524 -0.6962  0.5726
  931MOL0     H25666   5.857   3.163   6.119  0.5759  0.8638 -0.3103
  931MOL0     H25667   5.505   3.118   5.754 -0.2767 -3.1586 -0.4046
  931MOL0     H25668   5.274   3.196   5.742  2.7581  0.3076 -0.9655
  931MOL0     H25669   3.343   2.671   5.620  4.8677  1.6538 -0.6465
  931MOL0     H25670   3.105   2.650   5.555  0.3447  3.0044  3.1192
  931MOL0     H25671   2.812   2.812   5.210  1.8038 -2.0003  1.3959
  931MOL0     H25672   2.625   2.857   5.074 -1.4547  0.2416 -1.1478
  931MOL0     H25673   2.442   2.522   4.794  1.5647  0.0698  3.4413
  931MOL0     H25674   2.592   2.571   4.721 -0.2854 -0.6596 -0.1945
  931MOL0     H25675   2.415   2.614   4.571 -0.8353  0.0428  0.4690
  931MOL0     H25676   2.502   2.764   4.625 -0.4363  0.1937 -0.6343
  931MOL0     H25677   2.287   2.844   4.732 -1.3727  0.7851 -1.0908
  931MOL0     H25678   2.221   2.681   4.705  0.7715 -1.1009  0.0102
  931MOL0     H25679   2.339   2.863   4.488 -0.3786  0.8070  1.3535
  931MOL0     H25680   2.233   2.723   4.457  0.1640  0.4768 -0.9092
  931MOL0     H25681   1.927   2.991   4.559 -0.1131 -0.7375  0.7942
  931MOL0     H25682   2.701   2.488   4.867  0.9297  3.0656 -2.2412
  931MOL0     H25683   2.966   2.365   5.061  1.1268 -0.1238 -0.5825
  931MOL0     H25684   2.860   2.341   4.938 -0.7047 -0.4783  2.3440
  931MOL0     H25685   3.008   2.448   4.908  0.3717 -0.0160  0.2329
  932MOL0     O25686   7.463  10.136   8.964 -0.1510 -0.4586 -0.2433
  932MOL0     C25687   7.438  10.091   9.075  0.5187  0.7185  0.9013
  932MOL0     O25688   7.502  10.115   9.198  0.2347  0.4864  0.1935
  932MOL0     C25689   7.616  10.195   9.198  0.5906 -0.3601  0.5182
  932MOL0     C25690   7.623  10.301   9.284  1.0293  0.5872 -0.0643
  932MOL0     C25691   7.739  10.379   9.306 -1.1521 -0.7644  0.7547
  932MOL0     C25692   7.845  10.352   9.212  0.0769  0.7602 -0.6846
  932MOL0     O25693   7.960  10.425   9.202  0.4553 -0.2826  0.3764
  932MOL0     C25694   7.965  10.563   9.243  0.3575 -0.0278  0.2497
  932MOL0     C25695   8.088  10.633   9.182 -0.6559  0.6427  0.4252
  932MOL0     C25696   8.225  10.574   9.231  0.9495 -0.5023  0.0260
  932MOL0     C25697   8.350  10.634   9.175 -0.1518  0.6741 -0.3582
  932MOL0     C25698   8.480  10.567   9.219  0.7394  0.3541 -0.5054
  932MOL0     C25699   8.590  10.657   9.172 -0.2959 -0.5443 -0.1113
  932MOL0     C25700   8.600  10.657   9.023  0.9922 -0.4819  0.2014
  932MOL0     C25701   8.709  10.742   8.968 -0.5333  0.5259  0.3633
  932MOL0     N25702   8.741  10.704   8.833 -0.0283  0.5672 -0.1755
  932MOL0     C25703   8.857  10.720   8.772 -0.1572 -0.2353  0.3221
  932MOL0     C25704   8.830  10.687   8.644  0.3528  0.5074 -0.6430
  932MOL0     C25705   8.932  10.678   8.532  0.0388  0.7344  1.3031
  932MOL0     C25706   9.051  10.600   8.573 -0.1186 -1.6225 -0.5139
  932MOL0     C25707   9.149  10.600   8.457  0.5077  0.8196 -0.6921
  932MOL0     C25708   9.270  10.513   8.479 -0.3403 -0.1790  0.7771
  932MOL0     O25709   9.355  10.508   8.367 -0.6121 -0.3529  0.3290
  932MOL0     C25710   9.491  10.538   8.378  0.2920 -0.4855 -0.9592
  932MOL0     C25711   9.565  10.509   8.498 -0.3914 -0.1572  0.7455
  932MOL0     C25712   9.706  10.541   8.517  0.5605  0.1844  0.8220
  932MOL0     C25713   9.775  10.596   8.405 -0.4391  0.4359 -0.4480
  932MOL0     C25714   9.914  10.656   8.420 -0.2478  0.5534  0.3836
  932MOL0     O25715   9.957  10.681   8.547 -0.1803 -0.1437 -0.5305
  932MOL0     C25716  10.067  10.757   8.556 -1.4868 -0.2245 -0.3835
  932MOL0     C25717  10.196  10.709   8.535  0.6864 -0.4554  0.2968
  932MOL0     C25718  10.311  10.783   8.551  0.2728  0.5646  0.0964
  932MOL0     C25719  10.305  10.921   8.589  0.2592  0.5711  0.4226
  932MOL0     O25720  10.413  11.006   8.595 -0.1554  0.3197  0.6749
  932MOL0     C25721  10.541  10.944   8.600  0.2146  0.1269 -0.1543
  932MOL0     C25722  10.628  11.051   8.645  0.0122 -0.4525 -0.1534
  932MOL0     C25723  10.764  10.992   8.673  0.1442 -0.1409 -0.4182
  932MOL0     C25724  10.870  11.091   8.746 -0.1136  0.0928 -0.1331
  932MOL0     C25725  11.006  11.077   8.666  0.2596 -0.0535 -0.5352
  932MOL0     C25726  11.100  11.191   8.701  0.5039 -0.2357  0.3565
  932MOL0     C25727  11.159  11.180   8.841  0.5766  0.7230 -0.7176
  932MOL0     C25728  11.281  11.268   8.858 -0.0811 -0.0313  0.3269
  932MOL0    Cl25729  11.367  11.222   9.010 -0.3526 -0.1643  0.0952
  932MOL0     C25730  10.180  10.974   8.602 -0.3467  0.7033  0.5510
  932MOL0     C25731  10.067  10.891   8.595  0.0368  0.4309  0.0881
  932MOL0     O25732   9.974  10.695   8.314  0.4143  1.0754 -0.4028
  932MOL0     C25733   9.705  10.617   8.287  0.1987  0.2602 -0.1472
  932MOL0     C25734   9.569  10.590   8.269  0.2013 -0.0540  0.7438
  932MOL0     N25735   8.699  10.646   8.627  0.1269  0.1689 -0.4502
  932MOL0     N25736   8.644  10.663   8.751  0.2934 -0.1818  0.8754
  932MOL0     C25737   7.834  10.250   9.119  0.1877  0.8922 -0.1001
  932MOL0     C25738   7.721  10.169   9.117 -0.5252 -0.0985 -0.1053
  932MOL0     C25739   7.334   9.992   9.075  0.1205  0.1730  0.3750
  932MOL0     C25740   7.201  10.036   9.085  0.5916  0.9198 -0.5672
  932MOL0     C25741   7.090   9.941   9.079 -0.0804 -0.3869 -0.2036
  932MOL0     C25742   7.111   9.803   9.059 -0.1927 -0.0813 -0.2869
  932MOL0     O25743   7.015   9.698   9.071  0.1570 -0.2693 -0.2670
  932MOL0     C25744   6.887   9.740   9.112  0.5891 -0.3142  0.8931
  932MOL0     C25745   6.797   9.625   9.145  1.2137  1.1151  0.0073
  932MOL0     C25746   6.735   9.552   9.023 -0.8663 -0.1054 -0.4504
  932MOL0     C25747   6.827   9.523   8.910  0.8257  0.8046  0.4335
  932MOL0     C25748   6.921   9.416   8.964  0.2350 -0.3763  0.4972
  932MOL0     C25749   6.986   9.327   9.022 -0.0405 -0.5114 -0.3668
  932MOL0     C25750   7.244   9.769   9.048 -1.1641  0.1586  0.2471
  932MOL0     C25751   7.357   9.854   9.050 -0.5817  0.1104  0.6110
  932MOL0     C25752   7.498   9.805   9.040  0.1294 -0.6324 -0.4308
  932MOL0     H25753   7.535  10.326   9.344  2.5048 -1.4084  3.2017
  932MOL0     H25754   7.741  10.467   9.369  0.0597 -1.2574  1.4294
  932MOL0     H25755   7.875  10.605   9.198  1.6831 -0.0339 -2.6997
  932MOL0     H25756   7.954  10.570   9.351  1.3622  0.4643  0.3377
  932MOL0     H25757   8.085  10.742   9.193 -2.3121  0.7380 -0.6235
  932MOL0     H25758   8.085  10.602   9.077 -3.0719 -1.6636  1.0535
  932MOL0     H25759   8.227  10.465   9.219  2.3570 -0.2780 -2.2881
  932MOL0     H25760   8.228  10.605   9.336 -0.9788  2.8193 -0.7523
  932MOL0     H25761   8.334  10.630   9.066  0.5386  1.1553 -0.4879
  932MOL0     H25762   8.362  10.738   9.208  2.2371 -0.2141  1.8952
  932MOL0     H25763   8.486  10.548   9.327  1.5168 -0.1357 -0.6232
  932MOL0     H25764   8.492  10.472   9.166  0.2122 -0.2317  0.3815
  932MOL0     H25765   8.575  10.758   9.211 -2.5825 -1.9722  3.0697
  932MOL0     H25766   8.684  10.618   9.212  1.1453  0.6942 -2.0652
  932MOL0     H25767   8.517  10.708   8.974 -0.2215 -1.2802  1.3739
  932MOL0     H25768   8.601  10.558   8.977  0.5185 -1.3087  1.8888
  932MOL0     H25769   8.686  10.849   8.970 -3.2737  0.0002  1.4921
  932MOL0     H25770   8.798  10.743   9.031 -1.1210  1.8489  1.2329
  932MOL0     H25771   8.956  10.731   8.815 -0.0435 -0.4817  0.1287
  932MOL0     H25772   8.883  10.640   8.441 -1.6988  1.8877  1.7184
  932MOL0     H25773   8.961  10.780   8.504  0.3455  0.1141 -0.8729
  932MOL0     H25774   9.095  10.635   8.667 -2.7917 -1.0876  0.6445
  932MOL0     H25775   9.019  10.497   8.592 -0.9850 -0.9925  1.8567
  932MOL0     H25776   9.178  10.700   8.421 -0.3384  0.1668 -3.4179
  932MOL0     H25777   9.101  10.560   8.368 -3.4369  0.8148  1.2474
  932MOL0     H25778   9.229  10.415   8.506  0.8331 -1.2348 -1.0577
  932MOL0     H25779   9.323  10.535   8.572 -0.6659  0.0221  0.9153
  932MOL0     H25780   9.519  10.460   8.583  2.4457 -4.3860  0.1656
  932MOL0     H25781   9.747  10.525   8.616 -1.3263 -2.5482  1.2804
  932MOL0     H25782  10.203  10.604   8.505 -0.7263 -0.7564  0.9406
  932MOL0     H25783  10.409  10.738   8.536 -0.0968 -0.9042  1.7123
  932MOL0     H25784  10.551  10.860   8.670 -0.1633 -0.2114 -0.5018
  932MOL0     H25785  10.568  10.912   8.499  2.1187  0.5693  0.1704
  932MOL0     H25786  10.633  11.138   8.579  0.4872  0.5548  1.1618
  932MOL0     H25787  10.580  11.091   8.735  0.8416 -1.1613  0.6173
  932MOL0     H25788  10.760  10.905   8.740  3.5862  0.5597  0.9196
  932MOL0     H25789  10.806  10.950   8.581  1.9505 -1.4194  0.9125
  932MOL0     H25790  10.889  11.068   8.851  1.4946  0.7825 -0.2492
  932MOL0     H25791  10.832  11.194   8.743 -2.1035 -0.4949  2.0317
  932MOL0     H25792  10.974  11.098   8.563 -1.4253  1.1028  0.1688
  932MOL0     H25793  11.054  10.985   8.700  1.2092  1.3515  2.2260
  932MOL0     H25794  11.175  11.198   8.621 -0.3728  0.5338 -0.4160
  932MOL0     H25795  11.049  11.287   8.691 -0.3996 -0.8536 -1.1371
  932MOL0     H25796  11.191  11.078   8.865  1.7123  1.2407  0.0748
  932MOL0     H25797  11.092  11.211   8.922  0.7944  3.6022 -1.5515
  932MOL0     H25798  11.357  11.265   8.779  0.7581  0.6897  1.0811
  932MOL0     H25799  11.251  11.374   8.858  1.5493  0.4582 -0.1502
  932MOL0     H25800  10.169  11.081   8.613 -1.0928  0.6219  0.6873
  932MOL0     H25801   9.972  10.927   8.633 -0.6371 -2.2222  1.1718
  932MOL0     H25802   9.758  10.666   8.206 -0.2246 -1.0477 -1.2558
  932MOL0     H25803   9.533  10.617   8.170 -0.8863 -2.0166  0.5526
  932MOL0     H25804   7.922  10.228   9.058  0.0106  0.0818 -0.0830
  932MOL0     H25805   7.730  10.089   9.044  0.4015  0.7943 -1.0202
  932MOL0     H25806   7.183  10.143   9.083  2.8026  1.3489 -0.2288
  932MOL0     H25807   6.987   9.975   9.077  0.5892  1.7528 -0.3587
  932MOL0     H25808   6.839   9.816   9.049  0.6793  1.4081  2.7847
  932MOL0     H25809   6.907   9.789   9.208  0.0734  0.4326  0.6284
  932MOL0     H25810   6.718   9.674   9.201 -2.0965 -1.8499 -1.6863
  932MOL0     H25811   6.837   9.550   9.214 -0.3530  0.0222 -0.2344
  932MOL0     H25812   6.645   9.606   8.993 -2.2581 -2.1686 -0.1502
  932MOL0     H25813   6.693   9.455   9.048 -1.8303  0.1166 -1.1740
  932MOL0     H25814   6.757   9.481   8.837  0.4710  3.0113 -0.5853
  932MOL0     H25815   6.880   9.610   8.870  1.4915  0.1668 -0.0907
  932MOL0     H25816   7.044   9.251   9.070  1.6826  1.0218  0.1369
  932MOL0     H25817   7.262   9.663   9.033 -2.4579 -0.2660  1.4381
  932MOL0     H25818   7.551   9.839   9.130  1.8821  1.7972 -2.2429
  932MOL0     H25819   7.512   9.697   9.039 -0.0098 -0.6779  0.6451
  932MOL0     H25820   7.553   9.853   8.958  0.1638 -0.3539 -0.2501
  933MOL0     O25821   0.320   0.198   0.286 -0.2328 -0.5308  0.6262
  933MOL0     C25822   0.381   0.114   0.352  0.0469 -0.6866  0.1639
  933MOL0     O25823   0.519   0.097   0.351 -0.6454 -0.3722  0.3812
  933MOL0     C25824   0.582   0.161   0.241  0.0620  0.5953 -0.1762
  933MOL0     C25825   0.572   0.113   0.112 -0.1482 -0.5066  0.8645
  933MOL0     C25826   0.651   0.164   0.010  0.9744 -0.1741  0.4643
  933MOL0     C25827   0.727   0.276   0.022 -0.8194 -0.1551 -0.0564
  933MOL0     O25828   0.790   0.326  -0.088  0.1509 -0.7960  0.3171
  933MOL0     C25829   0.807   0.465  -0.099 -0.1708 -0.1558 -0.2795
  933MOL0     C25830   0.890   0.478  -0.229  0.1888 -0.5055  0.2882
  933MOL0     C25831   0.809   0.483  -0.350  0.2781  0.1712  0.1240
  933MOL0     C25832   0.878   0.433  -0.475  0.8714  0.1188 -0.7625
  933MOL0     C25833   0.788   0.446  -0.599 -0.1998 -0.5796 -0.2049
  933MOL0     C25834   0.845   0.353  -0.710 -1.1069  0.3251  0.2972
  933MOL0     C25835   0.980   0.414  -0.762  0.4683  0.2006 -0.3187
  933MOL0     C25836   0.972   0.524  -0.864  0.9766 -0.0962  0.1517
  933MOL0     N25837   1.107   0.551  -0.908  0.4500 -0.8384  0.3491
  933MOL0     C25838   1.218   0.560  -0.828  0.3255  0.4301  1.3328
  933MOL0     C25839   1.317   0.587  -0.914 -0.7439  0.0892  0.5373
  933MOL0     C25840   1.457   0.625  -0.865 -0.3404  0.1392 -0.0401
  933MOL0     C25841   1.570   0.580  -0.947 -0.2859  0.4601  0.6070
  933MOL0     C25842   1.695   0.629  -0.891  0.5970 -0.2881 -0.0562
  933MOL0     C25843   1.815   0.571  -0.959  0.0655 -0.1975  0.0028
  933MOL0     O25844   1.825   0.429  -0.968  0.2994  0.8688 -0.5260
  933MOL0     C25845   1.946   0.380  -0.997  0.0513 -0.4884 -0.1764
  933MOL0     C25846   2.080   0.435  -0.982  0.5302  0.0047 -0.5681
  933MOL0     C25847   2.194   0.357  -1.013  0.0784  0.2108 -0.5423
  933MOL0     C25848   2.186   0.224  -1.051 -0.4043  0.1022 -0.1376
  933MOL0     C25849   2.305   0.138  -1.072  0.2602 -0.5608 -0.3775
  933MOL0     O25850   2.422   0.187  -1.028 -0.0183 -0.5806 -1.0687
  933MOL0     C25851   2.541   0.115  -1.016 -0.3496  0.1323 -0.7045
  933MOL0     C25852   2.556  -0.009  -0.949 -1.0786 -0.0788 -0.5392
  933MOL0     C25853   2.686  -0.065  -0.930 -0.8719 -0.1425  0.0074
  933MOL0     C25854   2.803  -0.016  -0.998  0.1055 -0.0210 -0.9809
  933MOL0     O25855   2.926  -0.068  -0.964  0.1175 -0.5424 -0.1906
  933MOL0     C25856   3.037  -0.005  -1.039  0.9753 -0.3260 -0.1969
  933MOL0     C25857   3.160  -0.096  -1.002  0.4607 -0.0198  0.0738
  933MOL0     C25858   3.279  -0.053  -1.080 -0.4683  0.5250 -0.6524
  933MOL0     C25859   3.410  -0.102  -1.013 -0.5650  0.4214 -1.1491
  933MOL0     C25860   3.539  -0.054  -1.075  0.5245 -0.1661 -0.3083
  933MOL0     C25861   3.653  -0.143  -1.014  0.5640 -0.6824 -0.8331
  933MOL0     C25862   3.791  -0.107  -1.059 -0.3939 -0.6966 -1.2051
  933MOL0     C25863   3.892  -0.196  -0.978 -0.5156 -0.0438 -0.0446
  933MOL0    Cl25864   4.053  -0.140  -1.001 -0.1337  0.2066 -0.4110
  933MOL0     C25865   2.782   0.098  -1.077 -0.7884  0.0667  0.2292
  933MOL0     C25866   2.661   0.161  -1.081  0.8191 -0.5477 -0.6188
  933MOL0     O25867   2.296   0.031  -1.129 -0.3472  0.4217 -0.3687
  933MOL0     C25868   2.060   0.169  -1.063  0.3072  0.1106 -0.4234
  933MOL0     C25869   1.945   0.248  -1.041  0.6402  0.2175 -0.3707
  933MOL0     N25870   1.275   0.577  -1.045 -0.2781 -0.0479 -0.3956
  933MOL0     N25871   1.143   0.570  -1.039 -0.2660 -0.8603 -0.5872
  933MOL0     C25872   0.759   0.310   0.153 -0.4597 -0.3133 -0.1034
  933MOL0     C25873   0.679   0.259   0.260 -0.8694 -0.4364  0.4421
  933MOL0     C25874   0.307   0.008   0.437 -0.8846  0.0530 -0.1886
  933MOL0     C25875   0.386  -0.096   0.489 -0.4418 -0.8979 -0.3303
  933MOL0     C25876   0.325  -0.201   0.546  0.0856 -0.2229 -0.0750
  933MOL0     C25877   0.188  -0.206   0.559 -0.6402 -0.2628  0.1020
  933MOL0     O25878   0.141  -0.321   0.613 -0.1879  1.1094 -0.6547
  933MOL0     C25879   0.009  -0.323   0.659  0.5872 -0.0676  0.7291
  933MOL0     C25880  -0.009  -0.457   0.737  0.1438 -0.2860 -0.0276
  933MOL0     C25881  -0.158  -0.479   0.770  0.7347  0.5534  0.5020
  933MOL0     C25882  -0.164  -0.612   0.845 -0.0648 -0.3801 -0.9636
  933MOL0     C25883  -0.292  -0.615   0.921  0.1846 -0.5493  1.2573
  933MOL0     C25884  -0.402  -0.627   0.975 -0.1664 -0.6596  0.4510
  933MOL0     C25885   0.102  -0.104   0.510 -0.0155  0.1208 -0.7507
  933MOL0     C25886   0.166   0.008   0.457 -0.1458 -0.9544 -0.5758
  933MOL0     C25887   0.089   0.126   0.413 -0.0818 -0.5156 -0.6716
  933MOL0     H25888   0.498   0.033   0.109  0.1936 -0.8368  1.1199
  933MOL0     H25889   0.629   0.109  -0.081 -0.8928  0.3624  0.5503
  933MOL0     H25890   0.714   0.523  -0.100  0.5368  1.3260 -4.5789
  933MOL0     H25891   0.867   0.500  -0.015 -0.1181  0.7930 -0.7010
  933MOL0     H25892   0.970   0.402  -0.232  0.5324 -0.1154 -1.7581
  933MOL0     H25893   0.954   0.565  -0.215 -0.6737  0.1666  0.0871
  933MOL0     H25894   0.781   0.589  -0.360  1.2472  0.5216  0.9592
  933MOL0     H25895   0.719   0.423  -0.337 -0.0829  0.3286 -1.4234
  933MOL0     H25896   0.970   0.490  -0.489  1.6171 -1.3901 -2.4988
  933MOL0     H25897   0.902   0.329  -0.451 -0.9384 -0.4466 -1.2664
  933MOL0     H25898   0.683   0.420  -0.579  0.3553 -0.7720  3.0324
  933MOL0     H25899   0.786   0.550  -0.633 -0.4854 -1.7315 -4.2043
  933MOL0     H25900   0.879   0.257  -0.668 -0.1255  0.4522 -0.1863
  933MOL0     H25901   0.767   0.340  -0.785 -1.5185 -2.7867  1.1284
  933MOL0     H25902   1.045   0.331  -0.792 -1.8492 -2.2210  0.8643
  933MOL0     H25903   1.032   0.463  -0.679  2.9614  1.2656 -2.3776
  933MOL0     H25904   0.912   0.498  -0.951 -1.4585  0.7612  1.4673
  933MOL0     H25905   0.928   0.618  -0.829 -3.8079 -2.2486  0.6306
  933MOL0     H25906   1.227   0.556  -0.720  2.0569 -2.6761  1.2113
  933MOL0     H25907   1.444   0.734  -0.869 -0.1004  0.1696 -0.0139
  933MOL0     H25908   1.460   0.590  -0.762 -1.2548 -0.2169 -0.1237
  933MOL0     H25909   1.578   0.471  -0.954  2.2639  0.6971 -1.5411
  933MOL0     H25910   1.559   0.615  -1.050  1.5385 -1.9198 -0.4811
  933MOL0     H25911   1.700   0.602  -0.785 -0.2798  0.1995  0.1192
  933MOL0     H25912   1.692   0.739  -0.891  0.2508 -0.2881 -1.0257
  933MOL0     H25913   1.898   0.621  -0.909 -1.2225  0.8291  1.2251
  933MOL0     H25914   1.811   0.614  -1.059 -1.0351  4.0449  1.6531
  933MOL0     H25915   2.095   0.542  -0.971  0.7207 -0.1557  0.8357
  933MOL0     H25916   2.290   0.406  -1.006 -0.5350  1.4434 -0.4402
  933MOL0     H25917   2.470  -0.058  -0.904  0.9954  0.3578  4.5641
  933MOL0     H25918   2.705  -0.153  -0.871  0.9519 -0.3178 -0.7619
  933MOL0     H25919   3.028  -0.010  -1.148 -0.3708  1.2901 -0.1812
  933MOL0     H25920   3.043   0.095  -0.995 -1.9342  0.5048 -1.4425
  933MOL0     H25921   3.180  -0.090  -0.895 -0.7248  0.4340  0.2902
  933MOL0     H25922   3.129  -0.198  -1.024  1.2145 -0.7336  2.0964
  933MOL0     H25923   3.273  -0.107  -1.175 -2.3848  1.0241 -0.8471
  933MOL0     H25924   3.292   0.054  -1.093  2.0346  0.4629  0.7010
  933MOL0     H25925   3.414  -0.211  -1.001 -1.3302  0.4544 -0.4592
  933MOL0     H25926   3.412  -0.052  -0.916 -1.5329 -1.5828 -0.0179
  933MOL0     H25927   3.554   0.053  -1.058 -4.6097  1.0515 -1.8712
  933MOL0     H25928   3.542  -0.067  -1.184  0.1291 -1.9054 -0.1407
  933MOL0     H25929   3.651  -0.122  -0.907  2.5793  3.9032 -1.4678
  933MOL0     H25930   3.637  -0.250  -1.029 -1.3774 -0.7301  1.1189
  933MOL0     H25931   3.817  -0.002  -1.042 -0.5821 -0.4415 -2.4076
  933MOL0     H25932   3.799  -0.133  -1.165  1.6186  0.7424 -1.4676
  933MOL0     H25933   3.871  -0.189  -0.871 -2.1265  2.4099 -0.4304
  933MOL0     H25934   3.881  -0.297  -1.019 -1.1029  0.3035 -0.7771
  933MOL0     H25935   2.851   0.158  -1.135  0.3754  0.4997  2.0103
  933MOL0     H25936   2.646   0.258  -1.126  0.7192  1.0509  2.6150
  933MOL0     H25937   2.043   0.065  -1.087  0.0010 -0.0715  0.5369
  933MOL0     H25938   1.853   0.190  -1.041  2.5968 -3.1853  0.3718
  933MOL0     H25939   0.836   0.377   0.189 -1.5186  1.6318 -1.3011
  933MOL0     H25940   0.709   0.285   0.361  0.2724  1.2245 -0.2894
  933MOL0     H25941   0.492  -0.113   0.476 -0.6148 -2.4277  0.0568
  933MOL0     H25942   0.395  -0.273   0.587  0.4474  0.9284  1.4439
  933MOL0     H25943  -0.059  -0.313   0.573  0.9241 -1.0851  0.3253
  933MOL0     H25944  -0.003  -0.233   0.718 -3.5327  0.2735 -0.3215
  933MOL0     H25945   0.048  -0.448   0.830  2.3033  1.6709 -1.4321
  933MOL0     H25946   0.029  -0.540   0.676 -0.1157  0.3840 -1.1324
  933MOL0     H25947  -0.224  -0.488   0.683 -0.6960  0.5259  1.5677
  933MOL0     H25948  -0.187  -0.397   0.836 -2.8388 -0.4762  0.4380
  933MOL0     H25949  -0.157  -0.704   0.786  0.2198  0.2018 -1.8697
  933MOL0     H25950  -0.080  -0.608   0.915 -0.5519 -0.1264 -0.3848
  933MOL0     H25951  -0.497  -0.642   1.022 -0.6077 -0.6884 -0.4207
  933MOL0     H25952  -0.006  -0.116   0.508 -0.0187 -0.2376  0.3683
  933MOL0     H25953   0.092   0.133   0.304 -1.0400  0.3925 -0.6609
  933MOL0     H25954  -0.015   0.119   0.448  0.2997  0.5645  0.7512
  933MOL0     H25955   0.127   0.223   0.445  0.0181 -0.6240 -0.4538
  934MOL0     O25956  10.897   4.669   3.120  0.7095  0.6505  0.4570
  934MOL0     C25957  10.796   4.601   3.098 -0.4909 -0.4442 -0.1041
  934MOL0     O25958  10.759   4.479   3.163 -0.0531 -1.0190  0.2472
  934MOL0     C25959  10.844   4.418   3.252  0.7655  0.9334 -0.8223
  934MOL0     C25960  10.983   4.423   3.268 -1.1342 -0.5726 -0.0578
  934MOL0     C25961  11.045   4.334   3.357  0.2835  0.3813 -0.4993
  934MOL0     C25962  10.972   4.243   3.432 -0.5273  0.3370 -0.3866
  934MOL0     O25963  11.039   4.156   3.516 -0.8340  0.5087 -0.0291
  934MOL0     C25964  10.970   4.116   3.633 -0.2486  0.0451  0.5607
  934MOL0     C25965  11.056   4.036   3.729 -0.8590 -0.4145  0.4845
  934MOL0     C25966  11.176   4.115   3.795  0.1711  0.3258 -0.0347
  934MOL0     C25967  11.294   4.127   3.703 -0.6740 -0.2435  0.2447
  934MOL0     C25968  11.411   4.193   3.783  0.2993 -0.2601 -0.3400
  934MOL0     C25969  11.538   4.177   3.708  0.3384 -0.1010 -0.4979
  934MOL0     C25970  11.673   4.196   3.783 -0.2034  0.3298 -0.2320
  934MOL0     C25971  11.691   4.340   3.846  0.0075 -0.0560  0.8908
  934MOL0     N25972  11.808   4.341   3.940 -0.3370  0.3370 -0.1868
  934MOL0     C25973  11.815   4.279   4.066 -0.8462 -0.4277 -0.4403
  934MOL0     C25974  11.930   4.328   4.116 -0.4900 -0.0246  0.4485
  934MOL0     C25975  11.984   4.294   4.243 -0.2404 -0.4463 -0.6091
  934MOL0     C25976  11.914   4.362   4.370  0.4782 -0.0036 -0.1625
  934MOL0     C25977  11.763   4.351   4.387  0.0553 -0.2699  0.2972
  934MOL0     C25978  11.712   4.448   4.501 -0.2995  0.6268  0.8058
  934MOL0     O25979  11.751   4.582   4.472  0.4166  0.1429  0.7088
  934MOL0     C25980  11.843   4.654   4.546 -1.2501  0.3296 -0.8622
  934MOL0     C25981  11.883   4.783   4.506 -0.1110  0.1850  0.5743
  934MOL0     C25982  11.977   4.861   4.575 -0.2364  0.3140  0.6001
  934MOL0     C25983  12.044   4.810   4.687 -0.2341 -0.2165 -0.9127
  934MOL0     C25984  12.161   4.872   4.750  1.1720 -0.1087  1.3490
  934MOL0     O25985  12.210   4.974   4.691  0.1507  0.1244 -0.2359
  934MOL0     C25986  12.327   5.031   4.725 -0.2703 -0.6857 -0.3189
  934MOL0     C25987  12.396   5.087   4.614 -0.2864 -0.5183  0.2224
  934MOL0     C25988  12.521   5.150   4.628  0.8893  0.0099 -0.1557
  934MOL0     C25989  12.564   5.175   4.762  1.0965 -1.1377 -0.5480
  934MOL0     O25990  12.671   5.261   4.761  0.5262  0.9721 -0.4115
  934MOL0     C25991  12.717   5.311   4.887  0.9542 -0.2599 -0.3547
  934MOL0     C25992  12.795   5.200   4.967 -0.4949  0.2047  0.2524
  934MOL0     C25993  12.834   5.262   5.106  0.5728 -0.0144  0.4546
  934MOL0     C25994  12.901   5.133   5.175 -1.2563  0.4912 -0.0114
  934MOL0     C25995  13.028   5.062   5.126  0.5892 -0.6730  0.1798
  934MOL0     C25996  13.107   4.982   5.232 -0.5415  1.0401 -0.2844
  934MOL0     C25997  13.221   4.899   5.167  0.3986  0.1985  0.7494
  934MOL0     C25998  13.205   4.784   5.069  0.0958 -0.0523 -0.3808
  934MOL0    Cl25999  13.360   4.707   5.021  0.3755  0.1310  0.3564
  934MOL0     C26000  12.498   5.125   4.868  0.3641 -0.2479 -1.1502
  934MOL0     C26001  12.381   5.053   4.852  0.2789 -0.3553 -0.2626
  934MOL0     O26002  12.210   4.817   4.840 -0.2251  0.5605 -0.5324
  934MOL0     C26003  11.991   4.689   4.737 -0.3714 -0.5083 -0.2393
  934MOL0     C26004  11.896   4.615   4.670  1.0151 -0.3538 -0.0560
  934MOL0     N26005  11.994   4.413   4.025 -0.5925 -0.4320  0.1409
  934MOL0     N26006  11.918   4.418   3.917  0.1583  0.6158  0.1658
  934MOL0     C26007  10.835   4.234   3.417  0.3628 -0.3977 -0.0305
  934MOL0     C26008  10.775   4.318   3.323  0.3039 -0.5772  0.7316
  934MOL0     C26009  10.702   4.637   2.986  0.2282 -0.0217  0.3684
  934MOL0     C26010  10.574   4.573   2.992 -0.4799 -0.6018 -0.5192
  934MOL0     C26011  10.486   4.611   2.897 -0.3042  0.2050  0.4802
  934MOL0     C26012  10.498   4.709   2.811  0.7717 -0.4549  0.4107
  934MOL0     O26013  10.392   4.728   2.723 -0.2296  0.5101 -0.5888
  934MOL0     C26014  10.408   4.838   2.633  0.2857 -0.0254 -0.0540
  934MOL0     C26015  10.291   4.819   2.534  0.0412  0.2171  0.2210
  934MOL0     C26016  10.324   4.688   2.448 -0.0706  0.0730  0.7657
  934MOL0     C26017  10.405   4.711   2.325 -0.1284  0.5752  0.0609
  934MOL0     C26018  10.331   4.782   2.224  0.7522 -0.9022 -0.5828
  934MOL0     C26019  10.265   4.844   2.146 -0.3089 -0.4756  0.4181
  934MOL0     C26020  10.630   4.769   2.806  0.7101 -0.0717 -0.0774
  934MOL0     C26021  10.733   4.726   2.883 -0.0524 -0.3852 -1.0135
  934MOL0     C26022  10.863   4.791   2.869  0.1013 -0.2481 -0.5794
  934MOL0     H26023  11.048   4.484   3.205 -1.9575  0.3911 -0.0073
  934MOL0     H26024  11.152   4.335   3.375  0.1537 -0.2348  0.3403
  934MOL0     H26025  10.938   4.209   3.682 -1.7563  0.7616 -1.6635
  934MOL0     H26026  10.888   4.052   3.601 -0.3230 -1.2068  3.0056
  934MOL0     H26027  11.082   3.945   3.674  2.6263  0.4201  0.5628
  934MOL0     H26028  11.001   4.005   3.818  0.6513 -0.0954  1.5657
  934MOL0     H26029  11.203   4.061   3.886  0.1233  0.7322  0.2239
  934MOL0     H26030  11.145   4.217   3.821  0.9982  0.2892  1.1682
  934MOL0     H26031  11.330   4.028   3.672  0.7704  0.8113 -1.6990
  934MOL0     H26032  11.257   4.171   3.610 -2.8754 -3.2072 -0.4514
  934MOL0     H26033  11.386   4.298   3.804 -2.2266 -0.6258 -1.2183
  934MOL0     H26034  11.424   4.140   3.877  1.0617  1.0406  0.3234
  934MOL0     H26035  11.541   4.075   3.669  1.9911 -1.7194  3.3123
  934MOL0     H26036  11.534   4.245   3.622  2.6933 -0.8255 -1.2810
  934MOL0     H26037  11.753   4.189   3.709  0.3059  0.4494  0.3025
  934MOL0     H26038  11.689   4.118   3.858  0.7916  0.5613 -0.1990
  934MOL0     H26039  11.705   4.410   3.763  1.8297  1.4824  2.4158
  934MOL0     H26040  11.603   4.363   3.907 -0.9035 -0.8154 -0.0974
  934MOL0     H26041  11.746   4.205   4.106  0.3494 -1.4335 -0.1900
  934MOL0     H26042  11.973   4.186   4.258  2.3870 -0.4767  2.0513
  934MOL0     H26043  12.093   4.307   4.244 -0.4974  2.4427  1.8108
  934MOL0     H26044  11.965   4.322   4.458 -0.3118 -1.4180 -0.3176
  934MOL0     H26045  11.951   4.465   4.365 -1.4788  0.6591 -3.4519
  934MOL0     H26046  11.734   4.247   4.406 -3.1708  0.1647 -1.5427
  934MOL0     H26047  11.717   4.390   4.296  1.4271  2.9560  0.8657
  934MOL0     H26048  11.753   4.403   4.592  2.2804 -2.2834 -1.5822
  934MOL0     H26049  11.603   4.441   4.506 -0.3010  0.6492  0.8028
  934MOL0     H26050  11.826   4.830   4.427 -0.6509  1.9834  1.9600
  934MOL0     H26051  12.004   4.955   4.529  1.3718  0.4504  1.7415
  934MOL0     H26052  12.346   5.081   4.518 -0.4513  1.5530  0.1308
  934MOL0     H26053  12.579   5.201   4.552  1.0185  0.8447  0.4861
  934MOL0     H26054  12.767   5.404   4.860  2.2476 -1.1665 -1.2137
  934MOL0     H26055  12.629   5.345   4.943 -0.3195 -2.5510 -0.8376
  934MOL0     H26056  12.737   5.107   4.974  1.4558 -1.8729 -5.3169
  934MOL0     H26057  12.888   5.174   4.914  1.1284 -1.2786  3.5301
  934MOL0     H26058  12.908   5.339   5.082  0.8650 -0.5355 -0.3778
  934MOL0     H26059  12.752   5.296   5.170  1.8769 -0.6024  2.5072
  934MOL0     H26060  12.818   5.062   5.177 -2.1739  1.5520  1.8719
  934MOL0     H26061  12.919   5.154   5.281  0.4762 -4.3953  0.9168
  934MOL0     H26062  13.097   5.139   5.089 -1.3864  1.2766  0.3258
  934MOL0     H26063  12.992   5.005   5.040 -0.4679  1.9610 -1.2485
  934MOL0     H26064  13.143   5.041   5.317  1.3806  0.0033 -0.3123
  934MOL0     H26065  13.031   4.922   5.284 -1.4545  3.4795  1.3515
  934MOL0     H26066  13.272   4.851   5.251  2.0733 -1.9638 -1.3759
  934MOL0     H26067  13.296   4.971   5.133  0.4462  0.2574  0.9726
  934MOL0     H26068  13.151   4.709   5.128 -0.2524 -0.3498 -1.0621
  934MOL0     H26069  13.146   4.802   4.978 -1.1187 -0.3811  0.3127
  934MOL0     H26070  12.528   5.139   4.971 -0.3583 -0.6282 -0.8754
  934MOL0     H26071  12.318   5.019   4.934 -2.7201  1.2473 -1.7104
  934MOL0     H26072  12.043   4.640   4.819 -0.4474  1.4200  1.0450
  934MOL0     H26073  11.867   4.518   4.711  1.6540 -0.9399 -0.9458
  934MOL0     H26074  10.774   4.163   3.471  1.0522 -0.3263  0.8690
  934MOL0     H26075  10.671   4.299   3.297  1.0116  1.6190 -5.3595
  934MOL0     H26076  10.535   4.499   3.061 -0.2933  1.0274  1.4105
  934MOL0     H26077  10.395   4.553   2.887  1.2425 -2.0435 -2.0467
  934MOL0     H26078  10.502   4.844   2.577 -0.3578  1.5062 -1.0434
  934MOL0     H26079  10.396   4.928   2.694 -1.1994 -1.1803  1.4626
  934MOL0     H26080  10.285   4.899   2.459  1.2673  0.3878  0.2736
  934MOL0     H26081  10.196   4.827   2.587  0.5797  1.0180  1.0936
  934MOL0     H26082  10.230   4.637   2.425  0.6744 -0.9777 -0.0744
  934MOL0     H26083  10.385   4.618   2.505  1.2255 -0.2448 -0.9155
  934MOL0     H26084  10.493   4.771   2.352  0.7499  0.0470 -1.4901
  934MOL0     H26085  10.445   4.620   2.279  0.4006  1.5708 -1.5478
  934MOL0     H26086  10.194   4.903   2.091 -2.1029 -2.5414  0.4160
  934MOL0     H26087  10.641   4.840   2.725  0.2133 -0.2332 -0.2888
  934MOL0     H26088  10.872   4.849   2.777 -1.1400  2.0048  0.6581
  934MOL0     H26089  10.879   4.856   2.955 -1.6298 -0.9257  0.3094
  934MOL0     H26090  10.938   4.711   2.869 -1.6107 -2.0300  2.1732
  935MOL0     O26091  10.347  11.354   8.245  0.0714  0.3447 -0.1390
  935MOL0     C26092  10.339  11.437   8.333  0.2933 -0.7601  0.4879
  935MOL0     O26093  10.444  11.503   8.389 -0.5329  0.7260  0.4943
  935MOL0     C26094  10.567  11.459   8.344  0.4176 -0.3536  0.8834
  935MOL0     C26095  10.649  11.544   8.266  0.2993 -0.6423 -0.2967
  935MOL0     C26096  10.776  11.505   8.223 -0.0272  0.2594  0.1587
  935MOL0     C26097  10.817  11.372   8.252  0.3124 -0.0562  0.1672
  935MOL0     O26098  10.945  11.316   8.235  0.4885 -0.3905  0.3550
  935MOL0     C26099  10.999  11.349   8.106  0.3047  0.1987 -0.0854
  935MOL0     C26100  11.115  11.258   8.072 -0.0167 -0.5599 -0.3887
  935MOL0     C26101  11.245  11.270   8.166 -0.1074 -0.1491 -0.6058
  935MOL0     C26102  11.240  11.175   8.285  0.6650  0.0670  0.0249
  935MOL0     C26103  11.377  11.119   8.327  0.2612 -0.7872  0.2997
  935MOL0     C26104  11.374  11.053   8.464  0.1220  0.0819  0.2665
  935MOL0     C26105  11.311  10.916   8.456  0.7657 -0.1176 -0.2018
  935MOL0     C26106  11.345  10.817   8.354 -0.4474  0.7687 -0.1763
  935MOL0     N26107  11.476  10.751   8.380 -0.2920  0.0502 -0.3557
  935MOL0     C26108  11.597  10.781   8.308  0.3956 -0.3761  0.0862
  935MOL0     C26109  11.688  10.696   8.358  0.6933  0.1183  0.4149
  935MOL0     C26110  11.841  10.703   8.328  1.2110  0.2147 -0.6993
  935MOL0     C26111  11.907  10.730   8.458  0.0749 -0.8914 -0.4683
  935MOL0     C26112  12.029  10.819   8.431 -0.0507  0.1839  1.0184
  935MOL0     C26113  12.107  10.853   8.559  0.4681 -0.2559  0.0095
  935MOL0     O26114  12.228  10.927   8.540  0.6638  0.4477 -0.1000
  935MOL0     C26115  12.352  10.858   8.513 -0.4988 -0.8728  0.2415
  935MOL0     C26116  12.468  10.936   8.487 -0.2869  0.2912  0.2118
  935MOL0     C26117  12.593  10.885   8.456 -0.2486  0.1941 -0.0488
  935MOL0     C26118  12.603  10.742   8.452 -0.1391  0.3631 -0.5213
  935MOL0     C26119  12.733  10.678   8.431 -0.1277 -0.4251  0.1408
  935MOL0     O26120  12.844  10.761   8.435  0.6083  0.2201 -0.3120
  935MOL0     C26121  12.962  10.700   8.412 -1.2897 -0.3125  1.1433
  935MOL0     C26122  13.028  10.732   8.294  0.8114 -0.3070 -0.4637
  935MOL0     C26123  13.151  10.683   8.264 -0.0198  0.4024 -0.0535
  935MOL0     C26124  13.208  10.605   8.361  0.6841  0.4315 -1.1505
  935MOL0     O26125  13.324  10.542   8.344  0.2476 -0.3201 -0.4987
  935MOL0     C26126  13.383  10.528   8.220 -0.2771 -0.4366  0.2515
  935MOL0     C26127  13.522  10.469   8.236 -0.7556  0.1982  0.6721
  935MOL0     C26128  13.601  10.434   8.115 -0.0797 -0.4713  0.1691
  935MOL0     C26129  13.734  10.368   8.158 -0.8619 -0.1265  0.8503
  935MOL0     C26130  13.827  10.456   8.248 -0.6133  0.1652 -0.2868
  935MOL0     C26131  13.942  10.368   8.298  0.0803 -0.7292  0.0867
  935MOL0     C26132  14.054  10.338   8.197 -0.9263 -0.1836 -0.4321
  935MOL0     C26133  14.136  10.458   8.155 -0.2249 -0.9110 -0.4548
  935MOL0    Cl26134  14.245  10.522   8.293 -0.0693 -0.1721 -0.4891
  935MOL0     C26135  13.150  10.573   8.488  1.3265  0.0235  0.3604
  935MOL0     C26136  13.026  10.627   8.512  0.9449 -0.2438 -0.0389
  935MOL0     O26137  12.733  10.557   8.406 -0.3954 -0.4565 -0.3126
  935MOL0     C26138  12.495  10.667   8.495  0.0183 -0.2136 -0.2865
  935MOL0     C26139  12.370  10.715   8.514 -0.6718 -0.9234 -0.5464
  935MOL0     N26140  11.623  10.610   8.455 -0.3179  0.6695  0.0833
  935MOL0     N26141  11.502  10.646   8.467  0.1872 -0.4057  0.9167
  935MOL0     C26142  10.732  11.287   8.321 -0.1685 -0.0436 -0.0778
  935MOL0     C26143  10.609  11.327   8.365  0.7086  0.0410  0.3698
  935MOL0     C26144  10.208  11.467   8.386 -0.0091  0.1350 -1.1671
  935MOL0     C26145  10.177  11.594   8.437 -0.9931  0.6495  0.0195
  935MOL0     C26146  10.055  11.625   8.503 -0.0506 -0.1552 -1.1586
  935MOL0     C26147   9.954  11.522   8.515  0.4091  0.4205 -0.3499
  935MOL0     O26148   9.827  11.543   8.570 -0.4984  0.0096 -0.5595
  935MOL0     C26149   9.768  11.673   8.552  0.1868 -0.5393 -0.4378
  935MOL0     C26150   9.622  11.692   8.584  0.2671  0.2704  0.3018
  935MOL0     C26151   9.597  11.660   8.729  0.3005 -0.4062  0.0561
  935MOL0     C26152   9.455  11.618   8.746 -0.7151  0.4818  0.5553
  935MOL0     C26153   9.432  11.541   8.874  0.0665  0.1192 -0.3776
  935MOL0     C26154   9.422  11.476   8.976 -0.6699  0.2152  0.1330
  935MOL0     C26155   9.980  11.391   8.463  0.4185 -0.3472  0.1247
  935MOL0     C26156  10.107  11.368   8.396 -0.4524 -1.0552 -0.2171
  935MOL0     C26157  10.133  11.226   8.351  0.6141 -0.0247 -0.2849
  935MOL0     H26158  10.616  11.648   8.256 -0.1374 -0.9436 -2.5041
  935MOL0     H26159  10.851  11.575   8.188  0.3233  0.3466  1.0696
  935MOL0     H26160  10.927  11.341   8.024  0.9505  0.4174 -0.6714
  935MOL0     H26161  11.030  11.454   8.103 -1.3283  0.7790  1.0818
  935MOL0     H26162  11.137  11.290   7.970 -2.0494 -0.1899 -0.7661
  935MOL0     H26163  11.079  11.155   8.070  0.2001 -0.6758  0.9062
  935MOL0     H26164  11.266  11.373   8.194  1.0589 -0.3764 -0.5686
  935MOL0     H26165  11.336  11.247   8.110 -1.5223  1.3182 -3.7870
  935MOL0     H26166  11.205  11.238   8.367  0.5317 -2.7145  2.2406
  935MOL0     H26167  11.181  11.084   8.271  2.4108 -1.1415  0.1874
  935MOL0     H26168  11.413  11.051   8.249 -0.0884  0.2544 -0.7998
  935MOL0     H26169  11.447  11.203   8.330 -2.2872  1.5349 -0.8583
  935MOL0     H26170  11.477  11.035   8.496  0.5022  3.6149  1.4679
  935MOL0     H26171  11.313  11.113   8.532  2.5636  1.6041  1.2812
  935MOL0     H26172  11.204  10.933   8.449 -0.1276 -3.5092  2.2489
  935MOL0     H26173  11.321  10.860   8.550  0.4956 -1.1363 -0.7707
  935MOL0     H26174  11.276  10.732   8.358  0.7840 -0.2576 -0.0599
  935MOL0     H26175  11.349  10.856   8.252  0.3048 -0.7005 -0.7449
  935MOL0     H26176  11.591  10.858   8.231 -1.6872 -1.7187 -1.1795
  935MOL0     H26177  11.875  10.616   8.271 -2.6715 -2.1109  0.1593
  935MOL0     H26178  11.858  10.785   8.257 -1.2470  1.0690 -0.4014
  935MOL0     H26179  11.836  10.792   8.514 -0.1309 -1.2127 -0.3696
  935MOL0     H26180  11.916  10.636   8.515 -2.6685 -0.9472  0.0395
  935MOL0     H26181  12.008  10.902   8.363  0.7968 -1.2430 -1.1086
  935MOL0     H26182  12.094  10.764   8.361  1.3283  1.8744  0.8880
  935MOL0     H26183  12.126  10.756   8.607  3.1071  1.6865  3.2824
  935MOL0     H26184  12.047  10.915   8.627  0.2792  0.4604 -0.7975
  935MOL0     H26185  12.455  11.044   8.480 -0.9701  0.0987 -2.3597
  935MOL0     H26186  12.676  10.953   8.439 -0.3497  0.0967 -1.0398
  935MOL0     H26187  12.989  10.810   8.229 -1.7847  2.1332  3.4936
  935MOL0     H26188  13.208  10.712   8.177  2.2357 -1.9785  0.4944
  935MOL0     H26189  13.325  10.457   8.159 -0.1647  0.6529 -1.1823
  935MOL0     H26190  13.389  10.624   8.167  2.8841 -1.4239 -1.4533
  935MOL0     H26191  13.572  10.534   8.308 -0.2116 -3.0908  3.5520
  935MOL0     H26192  13.497  10.375   8.286 -2.4838 -0.0705 -0.6131
  935MOL0     H26193  13.541  10.369   8.050  1.6557 -1.2920 -0.6958
  935MOL0     H26194  13.627  10.516   8.048 -0.9717 -1.4650 -1.4630
  935MOL0     H26195  13.790  10.334   8.070 -0.9477 -0.7089  1.0173
  935MOL0     H26196  13.713  10.289   8.230 -1.2419 -0.2260  0.6344
  935MOL0     H26197  13.777  10.481   8.341  0.3460 -0.7014  0.4847
  935MOL0     H26198  13.869  10.543   8.197  0.4481  0.2261  0.6719
  935MOL0     H26199  13.982  10.413   8.390 -1.0791  0.3365  0.1018
  935MOL0     H26200  13.909  10.267   8.326  2.1234 -1.8964 -1.4237
  935MOL0     H26201  14.004  10.297   8.108 -0.3616  1.8609 -1.7690
  935MOL0     H26202  14.110  10.261   8.251 -1.4160  0.1549  0.5787
  935MOL0     H26203  14.200  10.437   8.068  1.1921 -1.9913  0.7904
  935MOL0     H26204  14.066  10.534   8.118 -1.1456 -0.8824  1.2698
  935MOL0     H26205  13.184  10.490   8.549  0.3422  0.3835  1.4313
  935MOL0     H26206  12.966  10.610   8.601  1.6579 -0.6585  0.3788
  935MOL0     H26207  12.513  10.560   8.504  2.0802 -0.0925 -2.1378
  935MOL0     H26208  12.290  10.641   8.518 -0.1183 -1.9225 -4.3804
  935MOL0     H26209  10.762  11.185   8.344 -1.3821 -0.0223  1.8087
  935MOL0     H26210  10.543  11.258   8.417  1.2819  0.2105  1.3432
  935MOL0     H26211  10.247  11.676   8.430  2.4834 -1.4729  4.6003
  935MOL0     H26212  10.041  11.725   8.543 -0.7372  0.3385 -2.5565
  935MOL0     H26213   9.785  11.702   8.448 -2.4944  3.9387  0.1214
  935MOL0     H26214   9.826  11.746   8.609 -0.9559  0.9310 -1.1091
  935MOL0     H26215   9.574  11.622   8.514  2.3510 -1.4657  0.5028
  935MOL0     H26216   9.590  11.791   8.550 -1.3268  0.6163  2.5933
  935MOL0     H26217   9.628  11.749   8.785 -0.9187 -0.3662  0.7131
  935MOL0     H26218   9.654  11.575   8.768 -1.1333 -1.6984 -0.5543
  935MOL0     H26219   9.391  11.705   8.732  0.0054  0.8626 -0.4286
  935MOL0     H26220   9.433  11.547   8.666 -1.7343  1.1845  0.1957
  935MOL0     H26221   9.413  11.414   9.062  1.4901  2.9952  2.5442
  935MOL0     H26222   9.897  11.322   8.469 -1.5848  1.8843 -0.6012
  935MOL0     H26223  10.046  11.159   8.351  1.1687 -0.7847  1.1387
  935MOL0     H26224  10.148  11.236   8.243  1.6953  2.8699  0.0495
  935MOL0     H26225  10.212  11.176   8.407 -2.0086 -2.3618  1.6129
  936MOL0     O26226   3.018   0.340   5.258  0.6935  0.1316  0.1427
  936MOL0     C26227   2.930   0.254   5.236 -0.8132  0.1992  0.6700
  936MOL0     O26228   2.948   0.130   5.168 -0.0208 -0.7230  0.0424
  936MOL0     C26229   3.063   0.056   5.188  0.9069 -0.1275 -0.0780
  936MOL0     C26230   3.167   0.080   5.280  0.3032  0.1703 -0.6715
  936MOL0     C26231   3.274  -0.005   5.296  0.7173  0.1188  0.0336
  936MOL0     C26232   3.280  -0.124   5.217  0.4535  0.2198  0.2533
  936MOL0     O26233   3.393  -0.207   5.239  0.8682  0.1982 -0.2995
  936MOL0     C26234   3.378  -0.350   5.212  0.2150 -0.7466  0.2890
  936MOL0     C26235   3.494  -0.427   5.280  0.2964  0.8186 -0.7311
  936MOL0     C26236   3.445  -0.532   5.376 -0.7658 -0.0541  0.1386
  936MOL0     C26237   3.395  -0.480   5.509  0.6471 -0.1450 -0.1134
  936MOL0     C26238   3.519  -0.439   5.601  0.1874 -0.5864  0.0296
  936MOL0     C26239   3.476  -0.360   5.724 -0.3242  0.0824  0.4845
  936MOL0     C26240   3.381  -0.245   5.700 -0.6003  0.3748 -1.0191
  936MOL0     C26241   3.414  -0.125   5.790 -0.4044 -0.5134 -0.0546
  936MOL0     N26242   3.332  -0.008   5.766  0.1895  0.2961 -0.5429
  936MOL0     C26243   3.378   0.113   5.738  0.6865 -0.4462 -0.4088
  936MOL0     C26244   3.258   0.179   5.718  0.4244 -0.1376  0.2513
  936MOL0     C26245   3.229   0.315   5.662  1.1345 -0.2530 -0.1445
  936MOL0     C26246   3.335   0.423   5.673 -0.2742 -0.2915  0.2277
  936MOL0     C26247   3.373   0.482   5.810 -0.5029  0.8287  0.2566
  936MOL0     C26248   3.479   0.587   5.811 -1.2447  1.5760 -0.3512
  936MOL0     O26249   3.614   0.565   5.755  0.1167 -0.5938 -0.2687
  936MOL0     C26250   3.726   0.540   5.825 -0.7185 -0.0239  0.6891
  936MOL0     C26251   3.737   0.472   5.946  0.7317 -0.3857 -0.3304
  936MOL0     C26252   3.860   0.448   6.002 -0.3139  0.1386  0.1718
  936MOL0     C26253   3.982   0.483   5.940  0.0621 -0.0248 -0.1875
  936MOL0     C26254   4.111   0.476   5.993 -0.6979 -0.3374  0.0614
  936MOL0     O26255   4.215   0.549   5.934 -0.3790 -0.5133  0.1116
  936MOL0     C26256   4.334   0.538   5.988  0.0112  0.8206 -0.6663
  936MOL0     C26257   4.399   0.414   5.965 -0.4557  0.0588 -0.2144
  936MOL0     C26258   4.525   0.391   6.018  0.4739  0.3433  0.4429
  936MOL0     C26259   4.586   0.504   6.088 -0.1897  0.2252  0.1557
  936MOL0     O26260   4.713   0.489   6.145  0.1484  0.1177 -0.0923
  936MOL0     C26261   4.813   0.399   6.103  0.0303 -0.0374  0.5391
  936MOL0     C26262   4.857   0.433   5.959 -0.3748  0.4278 -0.7190
  936MOL0     C26263   4.950   0.313   5.916 -0.1654 -0.7074 -0.2611
  936MOL0     C26264   5.092   0.326   5.970  1.1912 -0.8694  0.5420
  936MOL0     C26265   5.182   0.219   5.902 -0.3735  0.0730 -1.0611
  936MOL0     C26266   5.281   0.146   5.988 -0.2200  0.4227 -0.0418
  936MOL0     C26267   5.396   0.238   6.016  0.0324 -0.5907 -0.1078
  936MOL0     C26268   5.515   0.172   6.101 -0.0184  0.1431  0.1871
  936MOL0    Cl26269   5.633   0.301   6.122 -0.0797  0.0365 -0.2659
  936MOL0     C26270   4.523   0.622   6.102 -0.1432 -0.4905  0.2216
  936MOL0     C26271   4.397   0.639   6.058 -0.1221  0.0862 -0.1132
  936MOL0     O26272   4.118   0.412   6.098  0.4986  0.3106 -0.7125
  936MOL0     C26273   3.970   0.539   5.802 -0.6337  0.4897  0.0688
  936MOL0     C26274   3.842   0.573   5.758  0.1098  1.0741 -0.6289
  936MOL0     N26275   3.149   0.105   5.739  0.4830  0.4345  0.2444
  936MOL0     N26276   3.201  -0.005   5.789 -0.4778 -0.7445  0.3182
  936MOL0     C26277   3.179  -0.147   5.121 -0.2667  0.3051 -0.2270
  936MOL0     C26278   3.075  -0.060   5.113  0.3380  0.1958 -0.0404
  936MOL0     C26279   2.801   0.290   5.281 -0.9586  0.6069  0.0914
  936MOL0     C26280   2.693   0.283   5.187  0.0720 -0.6489 -0.5888
  936MOL0     C26281   2.572   0.349   5.209 -0.7892 -0.8918 -0.6412
  936MOL0     C26282   2.548   0.397   5.343  0.5789  0.1541  0.2660
  936MOL0     O26283   2.429   0.462   5.378 -0.2165 -1.0307 -0.1934
  936MOL0     C26284   2.313   0.432   5.298  0.9824 -0.4899  0.4536
  936MOL0     C26285   2.250   0.301   5.354  1.1283  0.2677  0.6667
  936MOL0     C26286   2.131   0.269   5.261 -0.3950  0.8544 -0.7100
  936MOL0     C26287   2.045   0.149   5.309  0.1738  0.0156  0.4268
  936MOL0     C26288   1.997   0.176   5.436  0.7162  0.5937 -0.4177
  936MOL0     C26289   1.961   0.187   5.553 -0.3596 -0.8742  0.7971
  936MOL0     C26290   2.643   0.381   5.438 -0.8111  0.0203  0.1939
  936MOL0     C26291   2.771   0.335   5.413 -0.4647 -0.1439 -0.2362
  936MOL0     C26292   2.877   0.330   5.528  0.3135 -0.0549 -0.8069
  936MOL0     H26293   3.169   0.170   5.341  0.4292 -0.1610 -0.1824
  936MOL0     H26294   3.348   0.018   5.372 -1.7705  0.1796  2.5731
  936MOL0     H26295   3.278  -0.385   5.243 -0.5404  0.6797 -0.4516
  936MOL0     H26296   3.385  -0.379   5.107 -1.1884 -0.3059  0.0520
  936MOL0     H26297   3.564  -0.359   5.329 -0.8103  1.3606  0.1502
  936MOL0     H26298   3.544  -0.491   5.206  2.4215  0.9144  0.5309
  936MOL0     H26299   3.520  -0.605   5.407 -0.8607  0.7709  2.5464
  936MOL0     H26300   3.370  -0.587   5.319 -0.4827  0.0793 -0.3706
  936MOL0     H26301   3.323  -0.397   5.505  0.1775 -0.5780 -1.5676
  936MOL0     H26302   3.338  -0.563   5.551 -2.4337  0.4943 -2.5980
  936MOL0     H26303   3.586  -0.522   5.625  1.2401 -0.6089 -2.6006
  936MOL0     H26304   3.585  -0.370   5.547  0.3844  0.2394  1.3042
  936MOL0     H26305   3.425  -0.423   5.798 -1.1798  1.5603  1.2016
  936MOL0     H26306   3.564  -0.318   5.772 -0.5722  5.4941 -3.0261
  936MOL0     H26307   3.275  -0.272   5.711 -0.1789 -0.1899  2.6036
  936MOL0     H26308   3.399  -0.196   5.604  2.4265  2.0843  0.2743
  936MOL0     H26309   3.395  -0.148   5.896  2.1299  3.2547  1.4428
  936MOL0     H26310   3.521  -0.103   5.784 -0.4769 -0.1840 -0.1541
  936MOL0     H26311   3.481   0.146   5.734  0.0791  2.0001  1.6760
  936MOL0     H26312   3.197   0.292   5.560 -1.1140  0.0220  0.4432
  936MOL0     H26313   3.137   0.359   5.702  1.6967 -2.4762  4.2001
  936MOL0     H26314   3.430   0.393   5.628 -0.6075 -0.3804 -0.4341
  936MOL0     H26315   3.308   0.504   5.605  0.4047  0.0436  0.3516
  936MOL0     H26316   3.400   0.395   5.869  0.6198  0.5523 -0.6338
  936MOL0     H26317   3.286   0.517   5.867 -1.5249  1.9552 -1.8790
  936MOL0     H26318   3.497   0.607   5.917  1.5674 -0.3357 -0.3746
  936MOL0     H26319   3.435   0.679   5.772 -1.9371  1.6929  0.6499
  936MOL0     H26320   3.645   0.458   6.002  1.1379  0.4705  0.5979
  936MOL0     H26321   3.849   0.405   6.102 -2.4214 -3.1987 -1.3140
  936MOL0     H26322   4.349   0.330   5.921  1.2401 -1.5023  0.6767
  936MOL0     H26323   4.582   0.299   6.010  1.2360  0.8484 -0.1627
  936MOL0     H26324   4.902   0.398   6.166  0.4202 -0.7030 -0.0065
  936MOL0     H26325   4.768   0.300   6.114 -1.3773  0.2556 -1.7616
  936MOL0     H26326   4.771   0.443   5.893 -0.5678  1.0141 -0.3811
  936MOL0     H26327   4.921   0.521   5.973  0.5518 -0.6119  2.6305
  936MOL0     H26328   4.900   0.218   5.935 -0.6699 -0.1672  1.3447
  936MOL0     H26329   4.967   0.332   5.810 -0.8881 -2.2542 -0.6839
  936MOL0     H26330   5.090   0.289   6.073  0.4541 -3.8736 -0.4549
  936MOL0     H26331   5.127   0.429   5.960  3.0954 -1.6736 -2.1568
  936MOL0     H26332   5.228   0.275   5.820 -1.3197  2.3318 -0.1453
  936MOL0     H26333   5.110   0.150   5.856 -1.5406  0.3823  0.2404
  936MOL0     H26334   5.237   0.114   6.083  3.1437  0.4114  1.6943
  936MOL0     H26335   5.310   0.057   5.932 -0.7016 -0.5311  1.1736
  936MOL0     H26336   5.358   0.323   6.073  1.2264 -0.7678  0.9938
  936MOL0     H26337   5.434   0.277   5.920  1.2768 -0.2102  0.5143
  936MOL0     H26338   5.484   0.143   6.202 -1.8936 -0.4852 -0.5249
  936MOL0     H26339   5.552   0.083   6.049 -0.5607 -0.1267  0.2482
  936MOL0     H26340   4.566   0.701   6.162  2.1049 -1.4371 -0.0548
  936MOL0     H26341   4.349   0.736   6.063 -0.4425  0.0837 -2.1408
  936MOL0     H26342   4.055   0.567   5.741  0.3934 -1.9492  0.2726
  936MOL0     H26343   3.840   0.608   5.655 -1.9152 -0.4945 -1.1946
  936MOL0     H26344   3.176  -0.238   5.062  1.1725  0.3528 -0.3953
  936MOL0     H26345   2.998  -0.066   5.037  0.1180 -1.3912  0.2822
  936MOL0     H26346   2.705   0.234   5.091  1.1224 -0.9101 -0.3331
  936MOL0     H26347   2.506   0.356   5.123 -0.8894  1.2618 -0.4596
  936MOL0     H26348   2.332   0.424   5.190 -1.5118 -2.5573  0.0524
  936MOL0     H26349   2.237   0.511   5.299 -0.7550 -2.0415  2.6058
  936MOL0     H26350   2.207   0.327   5.451  0.4481 -2.4360  1.1556
  936MOL0     H26351   2.321   0.219   5.368  2.0374  1.3782  3.1017
  936MOL0     H26352   2.164   0.245   5.159 -2.0846  2.0471 -1.5859
  936MOL0     H26353   2.066   0.354   5.240 -0.1807  1.4372  0.8642
  936MOL0     H26354   1.964   0.146   5.235  1.7909  2.9171 -1.7050
  936MOL0     H26355   2.095   0.052   5.316 -2.0844 -1.5257 -2.5791
  936MOL0     H26356   1.929   0.203   5.654 -0.1659 -1.3257  0.9318
  936MOL0     H26357   2.616   0.424   5.535 -1.9300  1.7468 -0.8314
  936MOL0     H26358   2.860   0.407   5.603  0.7656  1.9450 -2.6695
  936MOL0     H26359   2.882   0.237   5.587 -2.2134  1.1299  1.4958
  936MOL0     H26360   2.976   0.340   5.483  0.9414 -0.7719  0.3439
  937MOL0     O26361   6.613   4.257   5.216  0.0739  0.5980  0.2800
  937MOL0     C26362   6.597   4.149   5.153 -0.2229 -1.0845 -0.0291
  937MOL0     O26363   6.691   4.088   5.070 -0.2165 -0.5935 -0.2536
  937MOL0     C26364   6.799   4.172   5.042  0.3493  0.2448 -0.3296
  937MOL0     C26365   6.928   4.124   5.058  0.4455  0.7600 -0.4277
  937MOL0     C26366   7.041   4.204   5.029 -0.8235  0.5510 -0.0831
  937MOL0     C26367   7.031   4.339   4.994  0.7418 -0.2986  0.4686
  937MOL0     O26368   7.147   4.406   4.971 -0.4662 -0.4494  0.3079
  937MOL0     C26369   7.180   4.416   4.831  0.0039 -0.9438 -0.4979
  937MOL0     C26370   7.289   4.522   4.797  0.2320  0.7495 -0.5938
  937MOL0     C26371   7.317   4.528   4.648  0.5620 -0.2029 -1.4505
  937MOL0     C26372   7.408   4.417   4.603 -0.0316 -0.1252  0.3358
  937MOL0     C26373   7.432   4.426   4.452  0.0253  0.0274  0.5672
  937MOL0     C26374   7.319   4.358   4.368 -0.4207 -0.0442 -0.7443
  937MOL0     C26375   7.242   4.442   4.280  0.0582 -0.9262 -0.8397
  937MOL0     C26376   7.115   4.391   4.214 -0.4890 -0.7550 -0.1262
  937MOL0     N26377   7.006   4.351   4.305  0.4517 -1.2786  0.2153
  937MOL0     C26378   6.952   4.436   4.402  0.1996 -0.0465  0.8329
  937MOL0     C26379   6.881   4.353   4.480 -0.1236  0.9516 -0.0294
  937MOL0     C26380   6.844   4.394   4.618  0.2361 -0.1327  0.1157
  937MOL0     C26381   6.694   4.430   4.647  0.5576  0.0039  0.5865
  937MOL0     C26382   6.605   4.309   4.625  0.4228 -0.6528 -0.5759
  937MOL0     C26383   6.464   4.357   4.653  0.4411 -0.0802  0.1477
  937MOL0     O26384   6.434   4.340   4.795 -0.8542 -0.7655  0.0056
  937MOL0     C26385   6.299   4.356   4.832 -0.3762 -0.2684 -0.6408
  937MOL0     C26386   6.273   4.332   4.965  0.1012  0.3549  0.3515
  937MOL0     C26387   6.141   4.343   5.014  0.1470 -0.3298 -0.3751
  937MOL0     C26388   6.027   4.383   4.936 -0.6384  0.2019 -0.1789
  937MOL0     C26389   5.891   4.392   4.980  0.0939 -0.9967  0.3647
  937MOL0     O26390   5.877   4.415   5.114 -0.3736 -0.5472  0.3664
  937MOL0     C26391   5.751   4.397   5.168  0.1151 -0.2947  0.4082
  937MOL0     C26392   5.697   4.276   5.193 -0.0753  0.8982 -0.4405
  937MOL0     C26393   5.561   4.269   5.236  0.7724 -0.3889 -0.0971
  937MOL0     C26394   5.479   4.380   5.222  0.4142 -0.0480 -0.6920
  937MOL0     O26395   5.343   4.361   5.217 -0.1472  0.8796  0.0940
  937MOL0     C26396   5.264   4.472   5.158 -0.0619 -0.2027 -0.1004
  937MOL0     C26397   5.127   4.417   5.125  0.0453  0.7300  1.3432
  937MOL0     C26398   5.063   4.514   5.024  0.2830 -0.0482 -0.2072
  937MOL0     C26399   4.913   4.477   5.006 -0.1619  0.3027 -0.2548
  937MOL0     C26400   4.858   4.580   4.898  0.7399  0.0323 -0.3096
  937MOL0     C26401   4.720   4.545   4.849  0.7873 -0.5388 -0.4957
  937MOL0     C26402   4.665   4.665   4.774 -0.0840 -0.5213 -0.0088
  937MOL0     C26403   4.536   4.629   4.688  0.2605 -0.0723 -0.1484
  937MOL0    Cl26404   4.410   4.542   4.785  0.1748 -0.0019  0.4025
  937MOL0     C26405   5.535   4.502   5.210  0.5485  0.1762 -0.3883
  937MOL0     C26406   5.665   4.513   5.177 -0.7348  0.1153 -0.2728
  937MOL0     O26407   5.799   4.364   4.902 -0.2690  0.6262 -0.5135
  937MOL0     C26408   6.060   4.397   4.798  0.4991  0.0311  0.3741
  937MOL0     C26409   6.192   4.388   4.750 -0.4224 -0.0586 -0.0905
  937MOL0     N26410   6.880   4.218   4.441 -0.2430 -0.1266 -0.6783
  937MOL0     N26411   6.962   4.223   4.332 -0.2032 -0.1010 -0.8750
  937MOL0     C26412   6.898   4.386   4.971 -0.8720  0.3842 -0.0421
  937MOL0     C26413   6.788   4.302   4.998 -0.0335  0.0321  1.0604
  937MOL0     C26414   6.474   4.080   5.181 -0.2914 -0.5169  0.7875
  937MOL0     C26415   6.391   4.045   5.078 -0.2363  0.2988 -0.5165
  937MOL0     C26416   6.275   3.965   5.089 -0.3895 -0.8629  0.3042
  937MOL0     C26417   6.230   3.943   5.220  0.2944  0.3930 -0.0433
  937MOL0     O26418   6.109   3.871   5.239  0.7593  0.3886  0.2483
  937MOL0     C26419   6.057   3.789   5.136  0.1179 -0.4050  0.5799
  937MOL0     C26420   6.139   3.661   5.128  0.0818 -0.5577 -0.9006
  937MOL0     C26421   6.045   3.545   5.072  0.1449 -0.6654  0.2974
  937MOL0     C26422   5.992   3.580   4.924  0.0165  0.1946 -0.8351
  937MOL0     C26423   6.044   3.499   4.817 -0.2676  0.6896 -0.0655
  937MOL0     C26424   6.099   3.438   4.724  1.1289  0.5202  0.3065
  937MOL0     C26425   6.299   3.999   5.331  0.0741 -0.0193 -0.7064
  937MOL0     C26426   6.426   4.063   5.310 -0.4176 -0.8389  0.2164
  937MOL0     C26427   6.493   4.113   5.439 -0.2156  0.5453  0.0943
  937MOL0     H26428   6.951   4.027   5.102 -1.8369  1.8362  3.6819
  937MOL0     H26429   7.141   4.169   5.053 -0.1468  3.7876  2.5386
  937MOL0     H26430   7.214   4.316   4.803 -1.7443 -0.8685 -3.3225
  937MOL0     H26431   7.093   4.439   4.769  0.0746  1.2379  0.1439
  937MOL0     H26432   7.380   4.503   4.854 -0.2706  0.0889  0.0053
  937MOL0     H26433   7.246   4.618   4.830 -0.0670  1.1163 -1.9893
  937MOL0     H26434   7.367   4.623   4.630  1.4111 -0.6216 -1.3318
  937MOL0     H26435   7.220   4.525   4.598  0.2967  4.2680 -1.5359
  937MOL0     H26436   7.507   4.420   4.650  1.6227  1.5577 -2.9051
  937MOL0     H26437   7.361   4.325   4.639 -0.2503  0.3271  1.2512
  937MOL0     H26438   7.447   4.530   4.424  0.8031 -0.2114  0.0576
  937MOL0     H26439   7.520   4.363   4.443 -0.4143 -0.3260 -2.6385
  937MOL0     H26440   7.367   4.285   4.302 -0.2753 -0.2122 -0.4532
  937MOL0     H26441   7.252   4.303   4.435 -1.4114  0.3107 -1.4123
  937MOL0     H26442   7.307   4.488   4.205 -0.0690  0.7078  0.0030
  937MOL0     H26443   7.198   4.517   4.346 -0.5252 -2.3956  0.5412
  937MOL0     H26444   7.078   4.470   4.149 -0.9826 -0.5270  0.4295
  937MOL0     H26445   7.143   4.311   4.144 -3.1999 -0.4498 -1.7074
  937MOL0     H26446   6.979   4.539   4.421  2.1339 -0.7227  1.9920
  937MOL0     H26447   6.874   4.320   4.693  0.3837 -0.5951 -0.3910
  937MOL0     H26448   6.900   4.484   4.645 -0.2037 -0.2160  1.3755
  937MOL0     H26449   6.676   4.480   4.742  1.4040 -2.1114  1.9140
  937MOL0     H26450   6.671   4.507   4.573  0.3610  1.5733  2.2123
  937MOL0     H26451   6.634   4.231   4.697  1.5149 -0.7789 -1.1413
  937MOL0     H26452   6.611   4.278   4.521  1.0534 -1.4112 -0.3221
  937MOL0     H26453   6.398   4.286   4.602 -1.1561 -1.3078  3.6441
  937MOL0     H26454   6.434   4.458   4.622  0.6677 -0.0596 -0.0066
  937MOL0     H26455   6.349   4.305   5.038  1.0153  2.6015  0.3055
  937MOL0     H26456   6.122   4.322   5.119 -0.1906 -2.1325 -0.7612
  937MOL0     H26457   5.759   4.190   5.169 -1.1126 -0.0053 -0.0176
  937MOL0     H26458   5.525   4.168   5.253  1.3393 -0.9114 -1.7639
  937MOL0     H26459   5.250   4.549   5.235  1.5196  0.5341 -0.5063
  937MOL0     H26460   5.312   4.517   5.071  1.5741 -0.5033  0.6128
  937MOL0     H26461   5.156   4.321   5.082  1.5351  0.3653  3.0279
  937MOL0     H26462   5.069   4.416   5.218 -1.8552 -0.4439  0.1968
  937MOL0     H26463   5.075   4.619   5.052 -2.8726  1.2138 -2.8966
  937MOL0     H26464   5.112   4.501   4.927 -1.6706 -0.2558 -1.2195
  937MOL0     H26465   4.852   4.473   5.096 -0.1813 -2.5868 -0.3250
  937MOL0     H26466   4.904   4.371   4.980  3.2903 -1.0203  3.0664
  937MOL0     H26467   4.933   4.573   4.818 -0.4829 -2.0573 -1.3826
  937MOL0     H26468   4.860   4.678   4.945 -2.1438 -0.1452  0.3461
  937MOL0     H26469   4.719   4.451   4.793 -0.0774 -0.8466  0.0199
  937MOL0     H26470   4.659   4.533   4.939  1.5634 -3.5601 -0.2377
  937MOL0     H26471   4.744   4.695   4.705  0.8181 -0.3079  1.0728
  937MOL0     H26472   4.649   4.746   4.846  1.9383 -0.9961  1.0489
  937MOL0     H26473   4.485   4.720   4.656  1.3268  1.0241  1.1792
  937MOL0     H26474   4.565   4.576   4.596 -2.0777 -0.3830 -0.7707
  937MOL0     H26475   5.482   4.596   5.221 -2.2923 -1.6315  4.7966
  937MOL0     H26476   5.718   4.608   5.171  2.1216 -1.0727  2.7886
  937MOL0     H26477   5.983   4.422   4.725  0.2344 -1.7111  0.0065
  937MOL0     H26478   6.195   4.416   4.645 -1.0919 -1.1497 -0.4099
  937MOL0     H26479   6.890   4.487   4.933 -0.9353 -1.1726 -4.8373
  937MOL0     H26480   6.690   4.342   4.973  0.2068 -0.0344 -0.0207
  937MOL0     H26481   6.425   4.073   4.979 -0.5735  1.8614 -0.2191
  937MOL0     H26482   6.223   3.947   4.996 -0.6255 -0.1367  0.2853
  937MOL0     H26483   6.055   3.841   5.039 -2.8861  0.2673  0.9154
  937MOL0     H26484   5.949   3.779   5.149 -0.1080  1.8605  0.8231
  937MOL0     H26485   6.177   3.625   5.224 -3.6273 -1.3621  0.4231
  937MOL0     H26486   6.227   3.684   5.067  2.6359 -0.0396  2.6688
  937MOL0     H26487   5.956   3.535   5.135 -0.0210  0.6835  0.3173
  937MOL0     H26488   6.089   3.446   5.063 -1.2213 -1.3430  0.8572
  937MOL0     H26489   5.883   3.565   4.930 -0.1997  1.7893 -0.2323
  937MOL0     H26490   6.021   3.683   4.902  0.7909  0.7277  2.1847
  937MOL0     H26491   6.144   3.389   4.640 -0.3822 -0.5009  0.0530
  937MOL0     H26492   6.252   4.003   5.428  1.5705  0.0214  0.0561
  937MOL0     H26493   6.492   4.043   5.523  1.8722  1.5762  1.0547
  937MOL0     H26494   6.601   4.126   5.426 -0.2455  1.9993  1.0673
  937MOL0     H26495   6.451   4.208   5.474  3.0791  2.4040 -0.5855
  938MOL0     O26496   9.780   4.837   4.676  0.0268  0.0765  0.5877
  938MOL0     C26497   9.732   4.846   4.562 -0.0804  0.1953 -0.3970
  938MOL0     O26498   9.774   4.926   4.462 -0.0389 -0.5706 -0.1525
  938MOL0     C26499   9.843   5.039   4.492  0.9186  0.2257 -1.2470
  938MOL0     C26500   9.859   5.113   4.618 -0.7365  0.4223 -0.3150
  938MOL0     C26501   9.924   5.239   4.630 -0.2515  0.1236  0.4122
  938MOL0     C26502   9.955   5.297   4.512 -0.8802  0.1126 -0.2003
  938MOL0     O26503  10.010   5.420   4.509  0.2428 -0.8026  0.1435
  938MOL0     C26504  10.079   5.470   4.627  0.3733  0.5161 -0.0949
  938MOL0     C26505  10.146   5.599   4.595  0.2541 -0.4700  0.4876
  938MOL0     C26506  10.282   5.577   4.527  0.0301  0.4312 -1.5076
  938MOL0     C26507  10.356   5.714   4.521  0.6603  0.3330 -0.0372
  938MOL0     C26508  10.498   5.699   4.467  1.3487 -0.4098 -0.2365
  938MOL0     C26509  10.577   5.830   4.494 -1.1000  0.3420 -0.2126
  938MOL0     C26510  10.723   5.793   4.464 -0.6367 -0.0806  0.9190
  938MOL0     C26511  10.818   5.882   4.541 -0.6436 -0.9210 -0.8549
  938MOL0     N26512  10.965   5.856   4.525 -0.0605 -0.0664 -0.1245
  938MOL0     C26513  11.042   5.801   4.614 -0.7331  0.6173 -0.3190
  938MOL0     C26514  11.171   5.831   4.585  0.3304  1.3642  0.1190
  938MOL0     C26515  11.286   5.762   4.658  0.1827  0.1860 -0.2151
  938MOL0     C26516  11.397   5.859   4.697 -0.1356  0.2255 -0.1935
  938MOL0     C26517  11.531   5.785   4.745  1.1621 -0.4355  0.4285
  938MOL0     C26518  11.635   5.892   4.773 -1.4768  0.0184 -0.0209
  938MOL0     O26519  11.668   5.980   4.658 -0.0923  0.4352 -0.3310
  938MOL0     C26520  11.762   6.077   4.679 -0.5179 -0.9154 -0.5419
  938MOL0     C26521  11.873   6.065   4.766  0.0295 -0.1520 -0.0701
  938MOL0     C26522  11.956   6.180   4.791  1.0522 -0.8605 -0.0948
  938MOL0     C26523  11.939   6.310   4.717  0.6274  0.0364 -0.6473
  938MOL0     C26524  12.025   6.422   4.761 -0.8915 -0.2637 -0.8498
  938MOL0     O26525  12.087   6.405   4.891 -0.3036  0.3868 -0.5387
  938MOL0     C26526  12.171   6.504   4.948  0.1312  0.3952  0.1087
  938MOL0     C26527  12.126   6.627   4.986 -0.5565 -0.2867  0.5936
  938MOL0     C26528  12.215   6.714   5.049 -0.1086 -0.4842  0.0682
  938MOL0     C26529  12.348   6.687   5.057 -0.2814 -0.0212  0.4886
  938MOL0     O26530  12.425   6.798   5.083  0.1035  0.5637 -0.4102
  938MOL0     C26531  12.556   6.784   5.140  0.2233 -0.3751  0.0428
  938MOL0     C26532  12.558   6.788   5.298  0.4567 -0.4146  0.5426
  938MOL0     C26533  12.618   6.925   5.330 -0.0402 -0.4425  0.3019
  938MOL0     C26534  12.619   6.957   5.479  0.8931 -0.0642 -0.2337
  938MOL0     C26535  12.643   7.102   5.507 -0.0714  0.3762 -0.6332
  938MOL0     C26536  12.643   7.124   5.664 -0.2573 -0.0498  0.3208
  938MOL0     C26537  12.501   7.165   5.695 -0.2907 -0.1069  0.4330
  938MOL0     C26538  12.495   7.318   5.695 -0.0702  0.4249  1.1311
  938MOL0    Cl26539  12.331   7.378   5.678 -0.1777  0.2099  0.3357
  938MOL0     C26540  12.392   6.556   5.030 -0.3327 -1.1932 -0.0125
  938MOL0     C26541  12.298   6.465   4.983  0.7537 -0.9050  0.0684
  938MOL0     O26542  12.045   6.520   4.689 -0.3610 -0.3207 -0.1044
  938MOL0     C26543  11.830   6.312   4.627  0.3660 -0.7889 -0.3390
  938MOL0     C26544  11.745   6.197   4.610 -1.4235 -0.6489 -0.3188
  938MOL0     N26545  11.161   5.915   4.482 -0.8761  0.0498 -0.5368
  938MOL0     N26546  11.039   5.935   4.446  0.6178  0.2162  0.1950
  938MOL0     C26547   9.939   5.235   4.388 -0.0467  0.3524 -0.1397
  938MOL0     C26548   9.884   5.100   4.380  0.5296 -0.5436  0.1273
  938MOL0     C26549   9.628   4.740   4.526 -0.2564  0.8404  0.2124
  938MOL0     C26550   9.597   4.727   4.388 -0.4309  0.3525  0.2737
  938MOL0     C26551   9.518   4.619   4.348  0.8882  0.0609  0.3460
  938MOL0     C26552   9.477   4.522   4.433  0.0818  0.5816 -0.8852
  938MOL0     O26553   9.415   4.405   4.389  0.6446  0.1791 -0.2757
  938MOL0     C26554   9.389   4.362   4.246 -0.1403  0.0327 -0.0765
  938MOL0     C26555   9.288   4.251   4.255 -0.4751  0.4817 -0.1422
  938MOL0     C26556   9.325   4.126   4.328  0.6566 -0.0024  0.7936
  938MOL0     C26557   9.272   4.113   4.474 -0.3318 -0.7176 -0.7991
  938MOL0     C26558   9.135   4.057   4.457 -0.4493  0.6430  0.2348
  938MOL0     C26559   9.024   4.006   4.442  0.6785 -0.4423  0.1415
  938MOL0     C26560   9.511   4.529   4.564 -0.9888  0.4192  0.5499
  938MOL0     C26561   9.591   4.635   4.617  0.3535 -0.5817  0.6306
  938MOL0     C26562   9.621   4.640   4.760 -0.7074  0.1762 -0.9758
  938MOL0     H26563   9.830   5.071   4.714 -2.7264  2.2814 -0.0330
  938MOL0     H26564   9.941   5.283   4.728 -1.7092  0.2384  0.6335
  938MOL0     H26565  10.011   5.490   4.710  0.7302 -0.0442  0.3361
  938MOL0     H26566  10.160   5.403   4.657  0.0580 -0.1205 -0.6557
  938MOL0     H26567  10.160   5.651   4.691 -2.2477  2.6572 -0.6661
  938MOL0     H26568  10.082   5.658   4.529  2.0525  0.3257 -0.6473
  938MOL0     H26569  10.261   5.531   4.430 -0.7277  1.7891 -2.0135
  938MOL0     H26570  10.340   5.516   4.597 -0.7899  1.8271  0.4749
  938MOL0     H26571  10.300   5.778   4.453 -2.9030 -2.2251  0.1855
  938MOL0     H26572  10.348   5.761   4.620 -0.3027 -0.6558  0.3708
  938MOL0     H26573  10.537   5.607   4.512 -0.4888 -1.3142 -0.3779
  938MOL0     H26574  10.479   5.667   4.364 -0.9901 -3.1038  0.8959
  938MOL0     H26575  10.531   5.912   4.438 -0.9881  0.4569 -0.1345
  938MOL0     H26576  10.568   5.851   4.601 -0.7368 -0.4809 -0.0099
  938MOL0     H26577  10.746   5.795   4.357  2.3272  0.0284  1.4825
  938MOL0     H26578  10.748   5.691   4.493  0.2874 -0.2013 -0.1971
  938MOL0     H26579  10.795   5.988   4.521  1.3289 -0.8109 -2.9577
  938MOL0     H26580  10.795   5.868   4.647  1.9269  0.3515 -0.0344
  938MOL0     H26581  11.003   5.737   4.693  0.3426 -1.5586 -1.4661
  938MOL0     H26582  11.246   5.705   4.742 -3.2497  0.3994 -1.5205
  938MOL0     H26583  11.333   5.691   4.589  0.2881  0.6241 -0.5981
  938MOL0     H26584  11.418   5.920   4.609  0.8502  0.1859  0.0045
  938MOL0     H26585  11.361   5.926   4.776 -0.3339  0.2054 -0.2665
  938MOL0     H26586  11.569   5.711   4.674  1.9945 -1.9239  2.3221
  938MOL0     H26587  11.509   5.737   4.841  3.9563 -2.7950  0.0500
  938MOL0     H26588  11.727   5.846   4.812 -0.8748  1.9853  1.0279
  938MOL0     H26589  11.597   5.958   4.851 -1.0613  1.5303 -1.0481
  938MOL0     H26590  11.892   5.971   4.817 -1.6255  1.2155  3.3492
  938MOL0     H26591  12.033   6.165   4.866  1.9829  0.8031 -0.6734
  938MOL0     H26592  12.022   6.657   4.979 -0.2416  0.4084 -2.4838
  938MOL0     H26593  12.198   6.814   5.088 -0.8202 -1.0917  1.3624
  938MOL0     H26594  12.621   6.699   5.119  0.4969 -0.6551  1.8925
  938MOL0     H26595  12.615   6.868   5.102  2.0792 -0.3898  2.5974
  938MOL0     H26596  12.458   6.779   5.341 -0.7044 -3.4081 -2.3349
  938MOL0     H26597  12.616   6.703   5.336  3.4372  0.6506 -1.3261
  938MOL0     H26598  12.719   6.928   5.288 -0.1856 -2.3542 -0.2847
  938MOL0     H26599  12.557   6.990   5.267  0.2395 -2.1707 -1.8895
  938MOL0     H26600  12.683   6.890   5.537  0.1512  0.9459  1.8589
  938MOL0     H26601  12.525   6.919   5.521  0.2425  0.1400 -1.4484
  938MOL0     H26602  12.574   7.178   5.470 -1.0997 -0.6684 -0.8937
  938MOL0     H26603  12.742   7.128   5.469 -0.4169  1.8390 -0.5947
  938MOL0     H26604  12.671   7.030   5.714  0.4699 -1.2538 -2.1988
  938MOL0     H26605  12.718   7.199   5.689  0.7401 -1.4601  1.8667
  938MOL0     H26606  12.478   7.134   5.798 -2.6333  0.9055  0.2806
  938MOL0     H26607  12.423   7.122   5.631 -0.3971  0.7635 -0.0346
  938MOL0     H26608  12.539   7.364   5.784 -2.4543  2.0767  1.5448
  938MOL0     H26609  12.548   7.350   5.605 -3.4435 -3.5158 -2.7546
  938MOL0     H26610  12.497   6.533   5.047 -0.2196 -0.9356 -0.3562
  938MOL0     H26611  12.334   6.367   4.951 -4.1360 -2.1357 -2.7399
  938MOL0     H26612  11.808   6.397   4.563 -0.8349  0.4056  1.5705
  938MOL0     H26613  11.679   6.215   4.526  0.0605 -0.7492 -1.5574
  938MOL0     H26614   9.986   5.276   4.299  2.2059 -0.0643  0.7698
  938MOL0     H26615   9.867   5.059   4.281  0.3025 -0.4807  0.1390
  938MOL0     H26616   9.624   4.803   4.316  1.7046 -1.5631 -1.0954
  938MOL0     H26617   9.474   4.611   4.249 -1.3813  0.0764  1.2868
  938MOL0     H26618   9.475   4.330   4.188  0.3493  1.3931 -0.1471
  938MOL0     H26619   9.345   4.448   4.194  3.2224  1.2855 -1.1308
  938MOL0     H26620   9.256   4.216   4.156  0.6453 -1.7519  0.2134
  938MOL0     H26621   9.202   4.288   4.312  0.8464  1.6666  1.1667
  938MOL0     H26622   9.435   4.127   4.326  0.7803  3.1759  2.2100
  938MOL0     H26623   9.292   4.041   4.268  0.3414  0.5641  0.1481
  938MOL0     H26624   9.333   4.045   4.534  0.8089 -1.9471 -3.2148
  938MOL0     H26625   9.277   4.215   4.515  0.3793 -0.6351 -1.0789
  938MOL0     H26626   8.925   3.965   4.433  1.2083 -1.5902 -0.7281
  938MOL0     H26627   9.468   4.449   4.624  0.1339  1.1014  2.3424
  938MOL0     H26628   9.580   4.734   4.800 -3.9921 -2.7037  3.3674
  938MOL0     H26629   9.573   4.558   4.814  1.4112  0.6122  1.8055
  938MOL0     H26630   9.729   4.624   4.773 -1.0852 -3.9136 -1.4952
  939MOL0     O26631   8.039   7.540   8.656 -0.4744  0.1834 -0.1334
  939MOL0     C26632   8.066   7.499   8.771  0.0248 -0.9472 -0.0466
  939MOL0     O26633   8.188   7.521   8.827  0.5716  0.0911 -0.7887
  939MOL0     C26634   8.295   7.564   8.762  0.1130 -0.4359  0.1172
  939MOL0     C26635   8.411   7.492   8.739  0.7636  0.0319 -1.3611
  939MOL0     C26636   8.531   7.556   8.685  0.9019  0.3806 -0.4206
  939MOL0     C26637   8.527   7.685   8.634  0.0574  0.4304 -0.6114
  939MOL0     O26638   8.643   7.722   8.574 -0.7638 -0.1729 -0.2225
  939MOL0     C26639   8.690   7.856   8.573 -0.2790 -0.4562  0.5496
  939MOL0     C26640   8.754   7.886   8.434 -0.3125 -0.1169  0.0812
  939MOL0     C26641   8.870   7.993   8.446  0.4651  0.4699 -0.4006
  939MOL0     C26642   8.823   8.133   8.494 -0.3754  0.8031 -0.0102
  939MOL0     C26643   8.897   8.263   8.457 -0.2379 -1.2220  0.5575
  939MOL0     C26644   9.022   8.303   8.547  1.4264 -0.6097  0.8878
  939MOL0     C26645   9.145   8.215   8.522 -0.3335 -1.0682 -0.5737
  939MOL0     C26646   9.197   8.240   8.379  0.1667 -0.9004  0.2158
  939MOL0     N26647   9.333   8.182   8.356  0.7190  0.2017 -0.5639
  939MOL0     C26648   9.345   8.048   8.322 -0.3514 -0.3689  0.7566
  939MOL0     C26649   9.472   8.043   8.280  0.6647  0.6231  0.4400
  939MOL0     C26650   9.540   7.922   8.225 -0.0782  0.7185  0.1000
  939MOL0     C26651   9.673   7.900   8.300  0.6637  0.2952 -0.2260
  939MOL0     C26652   9.795   7.948   8.220 -0.2792 -0.5545 -0.1599
  939MOL0     C26653   9.935   7.952   8.290 -0.1801  0.4061  0.5092
  939MOL0     O26654   9.995   7.829   8.259 -0.6297  0.1034 -0.1283
  939MOL0     C26655  10.127   7.819   8.281  0.4979 -0.8922 -1.1565
  939MOL0     C26656  10.190   7.726   8.197 -0.1999 -0.1585 -0.1926
  939MOL0     C26657  10.321   7.709   8.193 -0.3792 -0.2854  0.6915
  939MOL0     C26658  10.398   7.765   8.291  0.7598 -0.1908 -0.7681
  939MOL0     C26659  10.552   7.745   8.298 -0.2144  0.0393  0.3732
  939MOL0     O26660  10.624   7.824   8.387 -0.8370  0.5136 -0.0445
  939MOL0     C26661  10.759   7.808   8.388  0.3903  0.2039  0.1981
  939MOL0     C26662  10.845   7.875   8.295 -0.4426  0.8563  0.2806
  939MOL0     C26663  10.984   7.859   8.314  0.1999  0.7401  0.0428
  939MOL0     C26664  11.039   7.757   8.395 -0.2330  0.5921  0.2039
  939MOL0     O26665  11.178   7.746   8.411 -0.2846  0.3092  0.0215
  939MOL0     C26666  11.269   7.850   8.386 -0.1051 -0.0487 -0.2202
  939MOL0     C26667  11.407   7.805   8.433  0.6557 -0.0438  0.5335
  939MOL0     C26668  11.511   7.905   8.472  0.4510 -1.0257 -0.6231
  939MOL0     C26669  11.598   7.877   8.590  0.4507  0.0167  0.6330
  939MOL0     C26670  11.691   7.989   8.620 -0.4338  0.1889  0.0392
  939MOL0     C26671  11.837   7.925   8.661 -0.1981 -0.1863  0.4484
  939MOL0     C26672  11.934   8.026   8.728  0.0323  0.0804  0.1361
  939MOL0     C26673  12.071   7.968   8.756  0.0545  0.0996 -0.2923
  939MOL0    Cl26674  12.149   8.034   8.899  0.2033 -0.2547  0.6626
  939MOL0     C26675  10.956   7.691   8.491  0.0072 -0.2555 -0.2902
  939MOL0     C26676  10.815   7.724   8.493  0.0974  0.1289  0.9566
  939MOL0     O26677  10.591   7.665   8.213  0.0727 -0.3005  0.3917
  939MOL0     C26678  10.342   7.850   8.384  0.3516 -0.8578  0.0525
  939MOL0     C26679  10.208   7.883   8.373  0.5426 -0.0671 -0.8072
  939MOL0     N26680   9.531   8.167   8.287  0.8585 -0.0178  0.8139
  939MOL0     N26681   9.453   8.246   8.341  0.1450 -0.3468 -0.2210
  939MOL0     C26682   8.416   7.764   8.658  0.1427  1.1985  0.2750
  939MOL0     C26683   8.298   7.703   8.721 -0.5025  0.3971 -0.0352
  939MOL0     C26684   7.966   7.435   8.860 -0.4483 -0.0487  0.5423
  939MOL0     C26685   8.005   7.332   8.947  0.0820 -0.5415  0.3776
  939MOL0     C26686   7.916   7.273   9.030 -0.1698  0.5359  0.3335
  939MOL0     C26687   7.778   7.303   9.035 -0.3590  0.0530  0.6777
  939MOL0     O26688   7.673   7.260   9.119 -0.6322 -0.5692  0.2185
  939MOL0     C26689   7.688   7.151   9.213  1.2539 -0.5706  0.1565
  939MOL0     C26690   7.629   7.183   9.354  0.4416  0.4496 -0.0284
  939MOL0     C26691   7.636   7.332   9.383  0.1150 -0.3417  0.7453
  939MOL0     C26692   7.641   7.376   9.529 -0.4081  0.3353 -0.1154
  939MOL0     C26693   7.611   7.524   9.549 -0.6157  0.3058  1.5627
  939MOL0     C26694   7.590   7.640   9.565  0.0581 -0.9222  0.0332
  939MOL0     C26695   7.741   7.396   8.942  0.7740 -1.0169 -0.9640
  939MOL0     C26696   7.831   7.472   8.859 -0.3328  0.4259 -0.6069
  939MOL0     C26697   7.771   7.591   8.780 -0.6335  0.0237 -0.2683
  939MOL0     H26698   8.416   7.386   8.761 -1.1487 -0.2785 -2.1727
  939MOL0     H26699   8.629   7.510   8.676  0.6185  0.1143 -2.9257
  939MOL0     H26700   8.609   7.929   8.585 -0.3383 -0.7326  1.9425
  939MOL0     H26701   8.766   7.861   8.651  0.7047 -0.8696 -0.3449
  939MOL0     H26702   8.677   7.919   8.363 -0.4061 -3.1926 -1.4350
  939MOL0     H26703   8.794   7.792   8.394  2.0137  0.4362  0.9879
  939MOL0     H26704   8.926   8.005   8.353 -1.8827  1.1612 -1.8157
  939MOL0     H26705   8.936   7.953   8.523  1.2929 -3.3480 -2.8274
  939MOL0     H26706   8.723   8.146   8.451 -0.3289  1.4571  0.0764
  939MOL0     H26707   8.824   8.121   8.602  5.3268 -0.2479  0.1056
  939MOL0     H26708   8.927   8.250   8.353  0.7359 -0.6496  0.7492
  939MOL0     H26709   8.824   8.344   8.448  1.1658  0.0261 -0.0335
  939MOL0     H26710   9.034   8.411   8.539 -1.9205  0.3558  5.2024
  939MOL0     H26711   8.986   8.283   8.649  0.7027 -2.6407  0.2918
  939MOL0     H26712   9.115   8.109   8.520  0.3912 -1.2749 -0.8008
  939MOL0     H26713   9.228   8.233   8.590 -0.1451 -2.0346 -0.5238
  939MOL0     H26714   9.132   8.187   8.309  0.4655  0.7556 -1.3735
  939MOL0     H26715   9.192   8.346   8.355  0.4313 -1.0510 -0.5201
  939MOL0     H26716   9.264   7.976   8.326  1.8941 -3.1310  0.0723
  939MOL0     H26717   9.475   7.840   8.254  1.0233  0.3966  1.7691
  939MOL0     H26718   9.569   7.934   8.120 -0.4392  0.4407 -0.0325
  939MOL0     H26719   9.657   7.958   8.392  3.3408 -0.0379  0.5312
  939MOL0     H26720   9.682   7.793   8.325 -0.3451  0.4957  1.1688
  939MOL0     H26721   9.771   8.052   8.200 -0.8838 -0.7382 -0.4338
  939MOL0     H26722   9.791   7.901   8.121 -3.1870 -0.6428 -0.1040
  939MOL0     H26723   9.929   7.974   8.397 -1.7063  1.2878  0.2791
  939MOL0     H26724   9.985   8.042   8.252 -0.1431  0.6233  1.0591
  939MOL0     H26725  10.125   7.673   8.128  2.1374  1.3110 -3.8171
  939MOL0     H26726  10.358   7.651   8.110 -1.0462  0.8197 -0.4126
  939MOL0     H26727  10.819   7.945   8.216  2.5188  1.7669 -0.0220
  939MOL0     H26728  11.036   7.936   8.258  0.9286  0.2510  0.0286
  939MOL0     H26729  11.258   7.876   8.281  0.8919  0.6330 -0.1780
  939MOL0     H26730  11.235   7.934   8.448 -0.6401 -0.3736 -0.0748
  939MOL0     H26731  11.385   7.737   8.516 -1.0550  0.1626  0.2928
  939MOL0     H26732  11.444   7.752   8.344 -4.8263 -0.3012 -2.0384
  939MOL0     H26733  11.577   7.919   8.386 -2.4882  1.2838 -2.7097
  939MOL0     H26734  11.470   8.005   8.488 -1.0667 -1.8455  0.8708
  939MOL0     H26735  11.655   7.786   8.570 -2.1708 -1.4324 -0.7945
  939MOL0     H26736  11.535   7.860   8.678  1.0007 -1.4160  0.7701
  939MOL0     H26737  11.646   8.034   8.710  0.0171 -0.8585  0.8089
  939MOL0     H26738  11.703   8.056   8.535  1.4501  1.4435  1.2075
  939MOL0     H26739  11.812   7.840   8.727 -2.9701 -2.2688 -2.9235
  939MOL0     H26740  11.887   7.890   8.571  0.8841  0.7717  0.6536
  939MOL0     H26741  11.883   8.055   8.821  0.5736 -0.4829  0.6175
  939MOL0     H26742  11.949   8.116   8.667  4.2858  1.7943  3.1893
  939MOL0     H26743  12.068   7.859   8.759  3.3361 -0.0738 -0.0219
  939MOL0     H26744  12.129   7.986   8.664  0.4932 -0.9928 -0.2455
  939MOL0     H26745  11.010   7.627   8.560  1.7944 -0.5160 -1.8579
  939MOL0     H26746  10.752   7.679   8.570  0.5823 -0.7113  0.8748
  939MOL0     H26747  10.397   7.896   8.465 -2.0991 -0.8830  1.8387
  939MOL0     H26748  10.169   7.950   8.448  1.8061 -0.5793  0.3566
  939MOL0     H26749   8.411   7.868   8.630  0.0987  0.7281 -1.5722
  939MOL0     H26750   8.215   7.763   8.759 -1.7242 -0.5821 -1.0566
  939MOL0     H26751   8.112   7.311   8.947  0.4164  0.9853 -0.5733
  939MOL0     H26752   7.961   7.197   9.094  2.7428  1.6669 -0.2199
  939MOL0     H26753   7.795   7.132   9.226  1.1057 -1.4505  0.1774
  939MOL0     H26754   7.632   7.064   9.176 -2.9650  1.5448  1.0687
  939MOL0     H26755   7.684   7.125   9.427  0.2467 -0.3838 -0.5332
  939MOL0     H26756   7.522   7.161   9.349  0.3228  0.9116  0.3537
  939MOL0     H26757   7.553   7.380   9.330 -0.0425 -1.5550 -0.1352
  939MOL0     H26758   7.735   7.364   9.349  1.4454 -0.2985  4.2059
  939MOL0     H26759   7.563   7.315   9.576  2.2385 -1.2074  2.5951
  939MOL0     H26760   7.740   7.368   9.575 -0.5082  2.9975  0.7181
  939MOL0     H26761   7.567   7.743   9.584 -3.4102  0.0324 -6.3553
  939MOL0     H26762   7.637   7.427   8.949  1.0676  0.2327 -1.8645
  939MOL0     H26763   7.674   7.617   8.822  0.3420  2.4143  0.7053
  939MOL0     H26764   7.837   7.677   8.795 -1.3318  0.4153  0.6906
  939MOL0     H26765   7.772   7.578   8.672  0.8428  1.4392 -0.4706
  940MOL0     O26766   7.538   5.459  11.298 -0.0145  0.0397  0.3859
  940MOL0     C26767   7.617   5.368  11.320 -0.0852  0.1072  0.7895
  940MOL0     O26768   7.579   5.249  11.389  0.7298  0.0411 -0.0808
  940MOL0     C26769   7.457   5.245  11.448  0.5901 -0.1276  0.1409
  940MOL0     C26770   7.349   5.200  11.379 -0.1265  0.1731  0.1507
  940MOL0     C26771   7.225   5.164  11.437 -0.7937  0.5805  0.0959
  940MOL0     C26772   7.211   5.200  11.570 -0.0760 -0.0480 -0.3136
  940MOL0     O26773   7.087   5.185  11.623 -0.1050  0.1171  0.0213
  940MOL0     C26774   7.043   5.255  11.738  0.7541 -0.9939 -0.0549
  940MOL0     C26775   6.894   5.307  11.729 -0.4846  0.6968 -0.8525
  940MOL0     C26776   6.845   5.356  11.870 -0.6249  0.9108 -0.3933
  940MOL0     C26777   6.847   5.248  11.983 -0.1326 -0.4915  0.2140
  940MOL0     C26778   6.737   5.279  12.090 -0.2251 -0.1074  0.2468
  940MOL0     C26779   6.704   5.160  12.177  0.8356 -0.0932  0.0433
  940MOL0     C26780   6.817   5.082  12.235 -0.4279 -0.2657  0.5426
  940MOL0     C26781   6.889   5.160  12.343  0.4585  0.0559 -0.3466
  940MOL0     N26782   6.997   5.079  12.395 -0.3387  1.1412  0.4859
  940MOL0     C26783   6.975   4.965  12.468  0.0276 -0.1844 -0.3097
  940MOL0     C26784   7.090   4.925  12.514  0.2036  0.9992  0.1778
  940MOL0     C26785   7.089   4.807  12.612 -0.4894 -0.4117  0.4115
  940MOL0     C26786   7.173   4.833  12.736  0.5533 -0.0955 -0.7951
  940MOL0     C26787   7.091   4.933  12.819  0.2306 -0.3426  0.3912
  940MOL0     C26788   7.144   4.963  12.958  0.1771  0.0074  0.4845
  940MOL0     O26789   7.068   5.058  13.031 -0.3253  0.4818 -0.6135
  940MOL0     C26790   7.106   5.092  13.163  0.1128  0.6004  0.2049
  940MOL0     C26791   7.188   5.017  13.250  0.0577  0.0586  0.7786
  940MOL0     C26792   7.198   5.050  13.389  0.0411 -0.7978  0.3359
  940MOL0     C26793   7.127   5.164  13.444 -0.1000 -0.2423 -0.5724
  940MOL0     C26794   7.123   5.203  13.589  0.2946 -0.2113 -0.0484
  940MOL0     O26795   7.003   5.268  13.628  0.5426  0.1660 -0.1687
  940MOL0     C26796   6.968   5.279  13.762  0.7688  0.7375  0.7957
  940MOL0     C26797   7.000   5.178  13.853  0.1462  0.5223  1.3237
  940MOL0     C26798   6.974   5.198  13.989  0.2490  0.0509 -1.2020
  940MOL0     C26799   6.917   5.315  14.034  1.5409  0.5452  0.4504
  940MOL0     O26800   6.886   5.340  14.165  0.3968  0.8318 -0.4681
  940MOL0     C26801   6.975   5.274  14.262  0.0392 -0.4257 -0.0241
  940MOL0     C26802   7.110   5.340  14.282 -0.5804 -0.3816  1.0829
  940MOL0     C26803   7.205   5.243  14.371 -0.3402 -0.0427  0.3747
  940MOL0     C26804   7.353   5.297  14.383  0.3187  0.7323  0.3233
  940MOL0     C26805   7.362   5.422  14.461 -0.5359  0.2076 -0.7751
  940MOL0     C26806   7.500   5.491  14.438  0.8708  0.0741  0.2178
  940MOL0     C26807   7.606   5.412  14.508 -0.7646  0.0113 -0.2126
  940MOL0     C26808   7.740   5.496  14.508  0.2147 -0.5770  0.2389
  940MOL0    Cl26809   7.722   5.629  14.615 -0.6028 -0.3916  0.2469
  940MOL0     C26810   6.891   5.420  13.947  0.2431 -0.3991 -0.5807
  940MOL0     C26811   6.917   5.400  13.807 -0.0771 -0.0846  0.4875
  940MOL0     O26812   7.208   5.157  13.668  0.3835  0.1308  0.1177
  940MOL0     C26813   7.062   5.243  13.351 -0.9290 -0.5229 -0.4983
  940MOL0     C26814   7.059   5.214  13.216  0.2021 -0.6610 -0.1629
  940MOL0     N26815   7.190   5.014  12.452  0.9875  0.2939 -0.1678
  940MOL0     N26816   7.132   5.104  12.391  0.0013 -1.0967  0.7580
  940MOL0     C26817   7.320   5.248  11.645 -1.0177  0.0497  0.0203
  940MOL0     C26818   7.448   5.264  11.578  0.0090  0.2934  0.7264
  940MOL0     C26819   7.757   5.377  11.259 -0.0458 -0.4309 -0.5550
  940MOL0     C26820   7.846   5.270  11.301  0.1008 -0.9620 -0.3824
  940MOL0     C26821   7.977   5.268  11.267 -0.0321 -0.0702 -0.7426
  940MOL0     C26822   8.026   5.366  11.188  0.5812  0.2906  0.0480
  940MOL0     O26823   8.158   5.356  11.164  0.1482  0.2013  0.0865
  940MOL0     C26824   8.230   5.477  11.169  0.1329  0.3922  0.1416
  940MOL0     C26825   8.370   5.429  11.193  0.1156  0.3188 -0.3388
  940MOL0     C26826   8.442   5.539  11.262 -0.0347  0.6013 -0.4986
  940MOL0     C26827   8.600   5.525  11.252  0.1379 -0.6293  0.0077
  940MOL0     C26828   8.655   5.416  11.334  0.1001  0.4893  0.7104
  940MOL0     C26829   8.687   5.316  11.395 -0.1076 -0.3956  1.6041
  940MOL0     C26830   7.951   5.470  11.134  0.2132 -0.2917  0.2709
  940MOL0     C26831   7.815   5.477  11.173 -0.7514  0.4244 -0.2793
  940MOL0     C26832   7.729   5.572  11.100 -0.0105  1.0754 -1.0042
  940MOL0     H26833   7.361   5.167  11.277 -1.5558 -1.2684  0.4060
  940MOL0     H26834   7.140   5.123  11.384 -0.6412  0.1496  0.1762
  940MOL0     H26835   7.050   5.187  11.824 -0.5771  1.9285  2.5557
  940MOL0     H26836   7.097   5.346  11.766 -2.9961  0.1731  4.9311
  940MOL0     H26837   6.823   5.234  11.690 -0.8108  1.9089 -2.7059
  940MOL0     H26838   6.885   5.392  11.660 -0.8045  1.3343 -0.0391
  940MOL0     H26839   6.741   5.390  11.861 -1.0259  0.5431  1.9809
  940MOL0     H26840   6.910   5.432  11.913 -0.5889  0.4689  0.3661
  940MOL0     H26841   6.812   5.157  11.933 -1.8298  0.7128 -0.9202
  940MOL0     H26842   6.951   5.237  12.015  0.4580  0.3940 -1.2607
  940MOL0     H26843   6.759   5.371  12.145 -3.6064  0.9963 -0.0344
  940MOL0     H26844   6.648   5.307  12.033 -0.0662  0.3861  0.2346
  940MOL0     H26845   6.649   5.193  12.266  1.0490  0.7866 -0.1476
  940MOL0     H26846   6.635   5.090  12.129  0.4003 -1.8772  2.9752
  940MOL0     H26847   6.889   5.058  12.156  0.5624  1.0632  0.9959
  940MOL0     H26848   6.778   4.986  12.270 -1.8946 -0.2850 -1.0182
  940MOL0     H26849   6.934   5.248  12.296 -1.9936  0.0987 -2.8706
  940MOL0     H26850   6.819   5.195  12.419  0.1629  0.4073 -0.7739
  940MOL0     H26851   6.879   4.920  12.492  0.2106 -2.0800 -2.7050
  940MOL0     H26852   6.983   4.792  12.636 -1.5110  0.4148 -3.0636
  940MOL0     H26853   7.117   4.714  12.562 -0.4639 -1.2500  1.9210
  940MOL0     H26854   7.173   4.738  12.790  2.8077  0.3926  0.1742
  940MOL0     H26855   7.275   4.867  12.718  0.6591 -0.2660 -0.5244
  940MOL0     H26856   6.995   4.886  12.837  0.9290 -1.6790  0.7531
  940MOL0     H26857   7.075   5.026  12.764 -0.4109 -1.1342 -0.8060
  940MOL0     H26858   7.240   5.014  12.941 -0.8626  1.1242 -3.0173
  940MOL0     H26859   7.159   4.871  13.014 -1.0203 -2.4255 -2.8425
  940MOL0     H26860   7.235   4.925  13.216  0.8343  0.8151 -0.2681
  940MOL0     H26861   7.261   4.995  13.458 -0.8831 -2.2202  0.1061
  940MOL0     H26862   7.038   5.084  13.814 -0.5316  0.2337  1.3444
  940MOL0     H26863   6.998   5.117  14.057  0.0251  1.3349  0.4693
  940MOL0     H26864   6.929   5.278  14.361  0.5916 -2.9424  0.3980
  940MOL0     H26865   6.986   5.166  14.248 -1.3170 -0.4869 -0.7773
  940MOL0     H26866   7.159   5.344  14.184 -2.1155  0.0752  0.3052
  940MOL0     H26867   7.098   5.440  14.324 -0.5039 -0.7567  2.0199
  940MOL0     H26868   7.166   5.251  14.473 -0.6502  2.0768  0.1373
  940MOL0     H26869   7.183   5.139  14.344 -1.7530  0.4242 -0.3920
  940MOL0     H26870   7.404   5.312  14.288  1.0300 -2.1646  0.1548
  940MOL0     H26871   7.412   5.223  14.437  1.5876  1.1606 -0.4559
  940MOL0     H26872   7.349   5.394  14.566 -0.1325 -2.6637 -1.4207
  940MOL0     H26873   7.280   5.487  14.428 -1.1084 -1.3527 -2.5869
  940MOL0     H26874   7.514   5.481  14.330 -5.0001 -0.8128 -0.7994
  940MOL0     H26875   7.493   5.595  14.471 -1.3673 -0.4460  1.5952
  940MOL0     H26876   7.635   5.317  14.462 -0.4816 -0.5971  1.1719
  940MOL0     H26877   7.555   5.398  14.604 -3.3946  1.0281 -1.3555
  940MOL0     H26878   7.826   5.444  14.552  2.6132  3.6276  1.0539
  940MOL0     H26879   7.770   5.518  14.406  0.7284 -3.4903 -0.3091
  940MOL0     H26880   6.857   5.516  13.983 -0.5255 -0.3190 -1.4830
  940MOL0     H26881   6.912   5.478  13.732  0.1446 -0.4925  0.0494
  940MOL0     H26882   7.008   5.333  13.378 -1.2901 -0.6976 -0.6184
  940MOL0     H26883   7.005   5.286  13.156 -0.8732 -0.7194  0.7052
  940MOL0     H26884   7.306   5.264  11.751 -0.4378 -1.3199  0.3312
  940MOL0     H26885   7.535   5.293  11.636  0.4504  1.1610 -0.3328
  940MOL0     H26886   7.819   5.189  11.368  1.7088  1.6333  3.7806
  940MOL0     H26887   8.042   5.186  11.295  1.4321  1.2510 -0.1059
  940MOL0     H26888   8.190   5.540  11.250  1.5694  0.5422  0.7656
  940MOL0     H26889   8.215   5.539  11.080  0.8318  0.1704 -0.1389
  940MOL0     H26890   8.411   5.425  11.092 -2.5851 -1.2104 -1.4808
  940MOL0     H26891   8.383   5.331  11.239  2.0971  0.5359 -0.3502
  940MOL0     H26892   8.406   5.526  11.364 -0.8383  0.2806 -0.8145
  940MOL0     H26893   8.410   5.638  11.230 -0.1695  0.7037 -0.0607
  940MOL0     H26894   8.618   5.516  11.145 -0.5851 -0.1310 -0.1700
  940MOL0     H26895   8.639   5.621  11.290 -2.4694 -0.4969  2.7965
  940MOL0     H26896   8.714   5.232  11.455  1.8753 -1.3536 -0.4546
  940MOL0     H26897   7.971   5.533  11.048 -0.5533 -0.1011  0.2281
  940MOL0     H26898   7.639   5.516  11.073  0.5066 -1.4170  1.8330
  940MOL0     H26899   7.688   5.651  11.164  1.8315  2.5140 -1.5310
  940MOL0     H26900   7.781   5.617  11.016 -2.5226  4.4807 -0.9367
  941MOL0     O26901   3.242   9.660  10.563 -0.4563 -0.3144  0.2391
  941MOL0     C26902   3.178   9.671  10.666  0.2035 -0.2894 -0.0799
  941MOL0     O26903   3.205   9.608  10.785 -0.3099 -0.5448  0.4049
  941MOL0     C26904   3.304   9.513  10.792 -0.6804  0.4505  0.1745
  941MOL0     C26905   3.439   9.546  10.753  0.0217  0.2831  0.8875
  941MOL0     C26906   3.544   9.452  10.770 -0.2412 -0.1193 -0.1547
  941MOL0     C26907   3.518   9.333  10.849  0.1518  0.3581  0.6217
  941MOL0     O26908   3.610   9.236  10.876  0.7181  0.3527  0.2928
  941MOL0     C26909   3.741   9.247  10.827  0.2816  0.6966  0.2667
  941MOL0     C26910   3.827   9.138  10.898 -0.4550 -0.7530  0.0997
  941MOL0     C26911   3.849   9.174  11.042  0.1298 -0.5018 -0.0224
  941MOL0     C26912   3.874   9.044  11.128 -0.0568 -0.4354 -0.0038
  941MOL0     C26913   3.874   9.048  11.274 -0.5918  0.3584  0.5709
  941MOL0     C26914   3.777   9.124  11.352 -0.1201 -0.1766  1.0055
  941MOL0     C26915   3.638   9.057  11.349  0.2450  0.1429  0.4581
  941MOL0     C26916   3.528   9.122  11.436 -1.0786 -0.0130 -0.4879
  941MOL0     N26917   3.402   9.046  11.415  0.9045 -0.4563 -0.6011
  941MOL0     C26918   3.314   9.071  11.308 -0.0001 -0.5198 -0.4508
  941MOL0     C26919   3.234   8.966  11.291 -0.7059  0.1141 -0.2584
  941MOL0     C26920   3.141   8.955  11.183 -0.6791  0.7082 -0.8858
  941MOL0     C26921   3.121   9.073  11.083 -0.5318 -0.2746 -0.1038
  941MOL0     C26922   3.006   9.039  10.991  1.2746  1.2538 -0.5416
  941MOL0     C26923   2.872   9.033  11.056  0.3695  0.6180 -0.4292
  941MOL0     O26924   2.849   9.158  11.126  0.0364  0.2134 -0.3151
  941MOL0     C26925   2.721   9.182  11.167  0.0737  0.5933 -0.0333
  941MOL0     C26926   2.677   9.146  11.293  0.1742  0.7581 -0.3807
  941MOL0     C26927   2.552   9.174  11.335  0.3011 -0.0190 -0.6529
  941MOL0     C26928   2.466   9.258  11.255 -0.1440  0.1199 -0.9708
  941MOL0     C26929   2.334   9.294  11.312  0.6711 -0.0791  0.3683
  941MOL0     O26930   2.295   9.232  11.429  0.0074 -0.5338 -1.2924
  941MOL0     C26931   2.164   9.268  11.472 -0.0474 -1.0891 -0.5750
  941MOL0     C26932   2.129   9.403  11.516 -0.0681  0.2042  0.1599
  941MOL0     C26933   2.000   9.427  11.569  0.1206 -0.1795  0.0707
  941MOL0     C26934   1.906   9.331  11.575 -0.7517 -0.0805  0.7672
  941MOL0     O26935   1.786   9.350  11.627 -0.1235 -0.4909 -0.5012
  941MOL0     C26936   1.761   9.476  11.677  0.0128 -0.0120 -0.1676
  941MOL0     C26937   1.614   9.495  11.719  0.8444  0.7707  0.6367
  941MOL0     C26938   1.504   9.492  11.614  0.6433  0.4060 -0.7387
  941MOL0     C26939   1.496   9.633  11.543 -0.8046  0.7553 -0.8150
  941MOL0     C26940   1.417   9.617  11.410  0.1238 -0.9743  0.1667
  941MOL0     C26941   1.274   9.566  11.408  0.7246  0.2025 -0.3615
  941MOL0     C26942   1.184   9.649  11.496  0.2054  1.3074 -0.5347
  941MOL0     C26943   1.044   9.597  11.478  0.1780  0.2827 -0.2458
  941MOL0    Cl26944   0.933   9.669  11.585  0.5612 -0.1137 -0.6704
  941MOL0     C26945   1.944   9.204  11.545 -0.3242  0.2586  0.7752
  941MOL0     C26946   2.070   9.169  11.495  0.5843  0.0449  0.0446
  941MOL0     O26947   2.261   9.371  11.245 -0.7208  0.0364  0.5310
  941MOL0     C26948   2.513   9.293  11.130  1.3397 -0.6770  0.6547
  941MOL0     C26949   2.637   9.252  11.082  0.2197 -0.3850  0.1288
  941MOL0     N26950   3.266   8.876  11.394 -0.3632 -0.8061 -0.2719
  941MOL0     N26951   3.373   8.918  11.458 -0.5779 -0.4421  1.1120
  941MOL0     C26952   3.388   9.313  10.899  0.2222  0.6085 -0.0907
  941MOL0     C26953   3.277   9.394  10.859  0.4371  0.0244 -0.2572
  941MOL0     C26954   3.059   9.761  10.667 -0.6007  0.1424  0.1240
  941MOL0     C26955   2.974   9.763  10.780  0.0165 -0.5471 -0.2827
  941MOL0     C26956   2.853   9.835  10.793 -0.5086 -0.4854  0.0699
  941MOL0     C26957   2.819   9.916  10.686  1.0430 -0.6530  0.5070
  941MOL0     O26958   2.712  10.011  10.690  0.2631 -0.2847  0.7647
  941MOL0     C26959   2.607  10.001  10.586 -0.2564  0.9275 -0.4287
  941MOL0     C26960   2.468  10.033  10.652 -0.8941  0.2744 -0.2443
  941MOL0     C26961   2.361  10.080  10.544 -0.5836 -0.1848  0.2281
  941MOL0     C26962   2.337   9.979  10.431  0.6647 -0.0927  0.6846
  941MOL0     C26963   2.247  10.028  10.328  0.8389  0.0739  0.2081
  941MOL0     C26964   2.191  10.082  10.232  0.2985 -1.4187  0.0365
  941MOL0     C26965   2.900   9.919  10.571  0.1592 -0.2538 -0.1119
  941MOL0     C26966   3.013   9.838  10.551 -0.5224  0.5387  0.1228
  941MOL0     C26967   3.086   9.854  10.421 -0.9442 -0.7046 -0.3866
  941MOL0     H26968   3.448   9.645  10.708  2.5263 -0.2998 -0.0390
  941MOL0     H26969   3.640   9.463  10.721  1.2771  1.8910  2.9399
  941MOL0     H26970   3.739   9.228  10.720  0.6864 -1.1650  0.5579
  941MOL0     H26971   3.791   9.341  10.852  2.9248 -0.0432 -1.8152
  941MOL0     H26972   3.928   9.133  10.857 -0.5510 -0.1258 -0.2313
  941MOL0     H26973   3.788   9.038  10.877  0.4147 -0.6285 -2.5709
  941MOL0     H26974   3.764   9.231  11.079 -0.1366 -0.8395 -0.1097
  941MOL0     H26975   3.935   9.239  11.062 -1.7019  1.4110  2.1388
  941MOL0     H26976   3.786   8.988  11.095 -0.0348 -0.5495  0.1326
  941MOL0     H26977   3.965   8.990  11.103  0.1356 -0.1780  0.1363
  941MOL0     H26978   3.876   8.942  11.298  0.2700 -0.7645 -3.6072
  941MOL0     H26979   3.976   9.070  11.306 -0.9257  2.7208  0.1842
  941MOL0     H26980   3.820   9.126  11.453 -0.9287 -0.6118  1.3734
  941MOL0     H26981   3.773   9.230  11.325 -1.0838 -0.3653  0.3190
  941MOL0     H26982   3.649   8.959  11.394 -1.2975 -1.3045 -2.0831
  941MOL0     H26983   3.600   9.045  11.247 -1.5543 -0.5275  1.1674
  941MOL0     H26984   3.559   9.110  11.540 -0.4431 -1.1712 -0.7987
  941MOL0     H26985   3.520   9.226  11.405  0.6261 -0.4630 -2.6781
  941MOL0     H26986   3.325   9.158  11.243 -0.8119  0.0582  0.1625
  941MOL0     H26987   3.178   8.864  11.135  1.5509  1.5759 -0.9145
  941MOL0     H26988   3.044   8.935  11.229  0.4410 -1.8339  0.5589
  941MOL0     H26989   3.121   9.169  11.135  0.9148 -0.3839  0.1412
  941MOL0     H26990   3.209   9.079  11.018  0.9814  0.3944  1.8890
  941MOL0     H26991   3.019   8.935  10.957  1.4570  0.2069  2.4634
  941MOL0     H26992   2.999   9.099  10.900  0.4723 -0.7103 -1.8481
  941MOL0     H26993   2.860   8.949  11.124  1.4882  2.0757  1.7059
  941MOL0     H26994   2.803   9.026  10.972  0.9546  0.2953 -0.8947
  941MOL0     H26995   2.748   9.082  11.346  3.7370  1.7076 -3.5752
  941MOL0     H26996   2.518   9.131  11.428 -0.5089 -0.7518 -1.2687
  941MOL0     H26997   2.189   9.490  11.491 -1.2102  0.3371 -2.5969
  941MOL0     H26998   1.970   9.528  11.595 -4.0289 -1.6173  1.6137
  941MOL0     H26999   1.830   9.494  11.760 -1.9024  2.9004  0.9401
  941MOL0     H27000   1.781   9.551  11.599  3.1554 -0.3048  0.2007
  941MOL0     H27001   1.597   9.408  11.783 -0.8276  1.6571  1.4681
  941MOL0     H27002   1.600   9.582  11.783 -0.2753  1.9356 -1.0948
  941MOL0     H27003   1.512   9.410  11.543 -2.5789  0.2828 -1.1409
  941MOL0     H27004   1.410   9.488  11.671  0.4837  2.7430 -0.7349
  941MOL0     H27005   1.596   9.674  11.523 -1.4559  2.6155 -0.4295
  941MOL0     H27006   1.452   9.695  11.621  0.6750 -2.4440  2.9152
  941MOL0     H27007   1.476   9.549  11.349 -0.6569 -1.7023  0.2094
  941MOL0     H27008   1.425   9.717  11.366 -2.3060 -0.7746  0.0501
  941MOL0     H27009   1.233   9.557  11.306 -0.4021 -0.9576  0.1701
  941MOL0     H27010   1.280   9.464  11.446 -0.0213  0.8004  1.4646
  941MOL0     H27011   1.190   9.751  11.455  1.9759  0.3449 -2.9580
  941MOL0     H27012   1.215   9.636  11.600  1.7833 -1.8754 -1.2782
  941MOL0     H27013   1.016   9.597  11.373  1.5879 -2.6693 -0.7490
  941MOL0     H27014   1.048   9.488  11.493 -2.4305  0.1099 -0.3756
  941MOL0     H27015   1.873   9.126  11.570 -0.0730 -0.6609 -1.1431
  941MOL0     H27016   2.092   9.068  11.459  0.5353  0.7527 -2.1381
  941MOL0     H27017   2.446   9.355  11.072  1.7623  2.1245  2.9498
  941MOL0     H27018   2.672   9.281  10.984  2.2121  0.6116  1.0683
  941MOL0     H27019   3.385   9.228  10.967  3.7598 -0.1795 -0.6953
  941MOL0     H27020   3.180   9.368  10.900 -1.0095  2.1381 -2.0766
  941MOL0     H27021   2.993   9.701  10.867  0.1794 -1.1527 -0.7505
  941MOL0     H27022   2.793   9.844  10.883 -0.0175  0.0421  0.3519
  941MOL0     H27023   2.607   9.901  10.541 -1.7993 -1.9164  5.0362
  941MOL0     H27024   2.633  10.072  10.507  0.5374  0.2507 -0.7812
  941MOL0     H27025   2.492  10.111  10.724 -1.9147  0.1983  0.1945
  941MOL0     H27026   2.430   9.947  10.708 -3.8690  0.9579 -1.0290
  941MOL0     H27027   2.387  10.176  10.499 -1.4640 -0.7103 -1.4882
  941MOL0     H27028   2.263  10.097  10.590 -0.3828  0.6948  0.3541
  941MOL0     H27029   2.429   9.953  10.378  1.5529  0.1259  2.0888
  941MOL0     H27030   2.291   9.888  10.471  1.1091 -0.2696  0.7966
  941MOL0     H27031   2.141  10.146  10.161  2.0919  0.1891  0.1068
  941MOL0     H27032   2.856   9.969  10.485  0.9056 -0.2591 -0.5137
  941MOL0     H27033   3.091   9.757  10.371 -1.0815 -0.7365 -0.3398
  941MOL0     H27034   3.038   9.922  10.349 -1.2569 -1.7563 -1.2075
  941MOL0     H27035   3.191   9.881  10.435 -0.9290 -1.5191  1.3525
  942MOL0     O27036   6.567   0.550   8.633  0.8117  0.3414 -0.0864
  942MOL0     C27037   6.656   0.627   8.607 -0.2402  0.0916  0.8664
  942MOL0     O27038   6.645   0.765   8.599  0.5660 -0.5895  0.4575
  942MOL0     C27039   6.519   0.833   8.578  0.1008  0.1566  0.3446
  942MOL0     C27040   6.413   0.772   8.513  0.3886  0.2563 -0.0454
  942MOL0     C27041   6.296   0.841   8.484  0.5758 -0.0153  0.2940
  942MOL0     C27042   6.277   0.975   8.523  0.3062 -0.1335  0.7765
  942MOL0     O27043   6.158   1.022   8.483 -0.2378  0.1069 -0.3441
  942MOL0     C27044   6.146   1.169   8.480 -0.0994  0.6617 -0.2603
  942MOL0     C27045   6.200   1.205   8.340  0.8941 -0.2591 -0.7059
  942MOL0     C27046   6.233   1.354   8.321  0.1464  0.0719 -0.1935
  942MOL0     C27047   6.238   1.413   8.174 -0.0743 -0.1195  0.7024
  942MOL0     C27048   6.349   1.332   8.097 -0.2370 -0.3397  1.0499
  942MOL0     C27049   6.326   1.327   7.944 -0.6548 -0.0817  0.2643
  942MOL0     C27050   6.460   1.296   7.876 -0.0361  0.9273  0.6755
  942MOL0     C27051   6.425   1.314   7.724 -0.9628 -0.3537 -0.3603
  942MOL0     N27052   6.544   1.284   7.644 -0.6217  0.9754  0.0248
  942MOL0     C27053   6.548   1.211   7.524 -0.1645 -0.7176 -0.6250
  942MOL0     C27054   6.681   1.206   7.490 -0.5255  0.7931  0.2661
  942MOL0     C27055   6.739   1.131   7.370  0.2515 -0.7532 -1.1762
  942MOL0     C27056   6.707   0.978   7.386 -0.3909  0.2610 -0.5184
  942MOL0     C27057   6.777   0.899   7.497 -0.5406  0.2654 -0.1592
  942MOL0     C27058   6.932   0.917   7.513 -0.3814 -0.2533 -0.4380
  942MOL0     O27059   7.008   0.897   7.388 -0.0392 -0.1159  0.4066
  942MOL0     C27060   7.142   0.935   7.378  0.1535 -0.1339 -0.1414
  942MOL0     C27061   7.226   0.999   7.474  0.0696 -1.0194 -0.2366
  942MOL0     C27062   7.363   1.009   7.447 -0.4559 -0.4365  0.2428
  942MOL0     C27063   7.416   0.974   7.321 -0.7195  0.5198  0.1283
  942MOL0     C27064   7.562   1.000   7.291 -0.0755 -0.1580 -0.1542
  942MOL0     O27065   7.643   1.023   7.399  0.1494 -0.1928  0.3187
  942MOL0     C27066   7.777   1.035   7.370  0.3167  0.2839  0.0859
  942MOL0     C27067   7.866   0.928   7.392  0.2157  0.0483  0.0391
  942MOL0     C27068   8.002   0.942   7.349 -0.3538  0.1688 -0.1665
  942MOL0     C27069   8.058   1.059   7.291  0.3153  0.0336  0.3407
  942MOL0     O27070   8.189   1.059   7.232 -0.3717 -0.2995 -0.4953
  942MOL0     C27071   8.278   0.960   7.273 -0.2474  0.7681 -0.7001
  942MOL0     C27072   8.424   0.978   7.227 -0.3892  0.3087  0.5601
  942MOL0     C27073   8.522   0.890   7.305  0.2227 -0.7173  0.4359
  942MOL0     C27074   8.666   0.910   7.271 -0.4629 -0.1809 -0.6806
  942MOL0     C27075   8.700   0.846   7.136 -0.5537 -0.6170 -0.6587
  942MOL0     C27076   8.852   0.849   7.122  0.1519 -0.7556  0.5760
  942MOL0     C27077   8.919   0.796   6.995  0.9457  0.0444 -0.2914
  942MOL0     C27078   9.070   0.813   6.974 -0.0088 -0.2824 -0.5723
  942MOL0    Cl27079   9.102   0.991   6.949  0.0522 -0.1836  0.3856
  942MOL0     C27080   7.967   1.162   7.286 -0.4166  0.3975  0.7132
  942MOL0     C27081   7.835   1.149   7.321 -0.0213 -0.1389  1.0080
  942MOL0     O27082   7.601   0.989   7.174 -0.6125 -0.5449 -0.2666
  942MOL0     C27083   7.341   0.907   7.228  0.0991  0.7632 -0.2814
  942MOL0     C27084   7.210   0.896   7.255 -0.5223 -0.3154 -0.4703
  942MOL0     N27085   6.755   1.260   7.592  0.3516 -0.6580 -0.1991
  942MOL0     N27086   6.673   1.309   7.686 -0.4734  1.3745 -0.2817
  942MOL0     C27087   6.373   1.025   8.607 -0.4334 -0.1942  0.2360
  942MOL0     C27088   6.499   0.962   8.632  0.6031  0.1853 -0.1247
  942MOL0     C27089   6.787   0.581   8.583  0.5013  0.9434 -0.1601
  942MOL0     C27090   6.872   0.650   8.492 -0.1328 -0.1705  0.3792
  942MOL0     C27091   7.009   0.628   8.480 -0.6083  1.0418  0.1425
  942MOL0     C27092   7.045   0.504   8.527 -0.0659 -0.1191 -0.7071
  942MOL0     O27093   7.173   0.470   8.481 -0.0206  0.5821  0.1210
  942MOL0     C27094   7.262   0.421   8.584 -0.1313  0.4367  0.1943
  942MOL0     C27095   7.378   0.350   8.518 -0.1371 -0.3144  1.0768
  942MOL0     C27096   7.490   0.319   8.628  0.2615  0.2275  0.2280
  942MOL0     C27097   7.595   0.220   8.571 -0.0535  0.4094  1.0750
  942MOL0     C27098   7.688   0.178   8.676  0.6240  0.0247  0.8875
  942MOL0     C27099   7.771   0.159   8.762  0.0787  0.8481 -0.2414
  942MOL0     C27100   6.968   0.428   8.613  0.1193 -0.1458  0.3206
  942MOL0     C27101   6.833   0.461   8.641 -1.1908 -0.6964  0.0521
  942MOL0     C27102   6.760   0.380   8.741  1.3103 -0.0837 -0.1701
  942MOL0     H27103   6.417   0.667   8.487  0.4090  0.0598  0.7442
  942MOL0     H27104   6.213   0.796   8.430  0.1006  0.7331  0.3850
  942MOL0     H27105   6.041   1.190   8.502  0.2406  0.6317  1.4943
  942MOL0     H27106   6.204   1.218   8.558  2.1392  1.1267 -2.0947
  942MOL0     H27107   6.109   1.177   8.286 -0.9914 -0.1601  2.1347
  942MOL0     H27108   6.279   1.137   8.309 -0.0196 -1.2596 -0.9209
  942MOL0     H27109   6.332   1.376   8.361  1.7416 -2.6207 -2.2411
  942MOL0     H27110   6.156   1.410   8.373  0.3061 -0.3096  0.4573
  942MOL0     H27111   6.143   1.382   8.128  1.9415 -2.2108 -2.3867
  942MOL0     H27112   6.250   1.521   8.176  1.1369 -0.2145  3.5015
  942MOL0     H27113   6.443   1.385   8.118  0.3400 -0.0234 -1.9452
  942MOL0     H27114   6.368   1.232   8.138  2.3140 -0.0981  0.6637
  942MOL0     H27115   6.252   1.250   7.921  0.1233 -1.0168  0.8167
  942MOL0     H27116   6.290   1.425   7.910 -2.4680 -1.0657 -0.8405
  942MOL0     H27117   6.486   1.195   7.906  0.5037  0.8882  0.0956
  942MOL0     H27118   6.537   1.373   7.890 -0.5932  1.2380  2.2584
  942MOL0     H27119   6.349   1.242   7.692 -1.8202  1.2755 -2.1885
  942MOL0     H27120   6.385   1.415   7.710 -0.8497  0.2373  2.7768
  942MOL0     H27121   6.466   1.173   7.465 -1.3502  1.5348 -0.5586
  942MOL0     H27122   6.691   1.171   7.280  0.3616  0.6796 -0.6218
  942MOL0     H27123   6.847   1.144   7.368  0.4833 -2.3544 -0.2896
  942MOL0     H27124   6.604   0.966   7.420  0.1619 -2.4672  0.4461
  942MOL0     H27125   6.726   0.935   7.287 -0.2141 -1.7721  0.3479
  942MOL0     H27126   6.760   0.792   7.484 -0.9092  0.1834  0.8860
  942MOL0     H27127   6.723   0.916   7.590 -1.6030 -2.7880 -0.1273
  942MOL0     H27128   6.965   0.848   7.591 -1.7257 -1.1392 -0.6093
  942MOL0     H27129   6.955   1.011   7.562 -1.7550 -0.9963  1.7958
  942MOL0     H27130   7.185   1.042   7.565  0.3781  3.7148 -2.0538
  942MOL0     H27131   7.427   1.055   7.522 -0.5497 -2.1297  1.4125
  942MOL0     H27132   7.812   0.837   7.416 -1.5322  1.3998  1.4482
  942MOL0     H27133   8.048   0.851   7.385 -2.2444 -0.4386  0.7967
  942MOL0     H27134   8.285   0.954   7.382  0.7354  3.5018 -0.5320
  942MOL0     H27135   8.253   0.860   7.237  1.8917  0.1879 -0.7190
  942MOL0     H27136   8.431   0.950   7.121  0.0400 -2.2945  1.2011
  942MOL0     H27137   8.464   1.078   7.245  2.1227 -0.2577 -1.2695
  942MOL0     H27138   8.518   0.904   7.414 -2.4687 -0.0183  0.3132
  942MOL0     H27139   8.499   0.783   7.292 -1.8162 -0.6447  2.6181
  942MOL0     H27140   8.726   0.860   7.347  1.9124  1.0401 -1.6418
  942MOL0     H27141   8.693   1.015   7.287  0.9347 -0.8420  1.6484
  942MOL0     H27142   8.660   0.904   7.052  2.3637  0.7042 -1.2610
  942MOL0     H27143   8.668   0.742   7.129  0.1266 -0.8458 -0.4762
  942MOL0     H27144   8.878   0.954   7.140  0.2237 -1.2741  4.2689
  942MOL0     H27145   8.902   0.791   7.200  1.4138  0.4300  0.6898
  942MOL0     H27146   8.877   0.852   6.910 -0.0946  0.6321  0.5940
  942MOL0     H27147   8.895   0.690   6.983 -0.0765  0.2796 -0.3792
  942MOL0     H27148   9.120   0.787   7.068  0.0843 -0.3411 -0.6378
  942MOL0     H27149   9.109   0.755   6.890  0.0268  1.2189 -1.6229
  942MOL0     H27150   8.013   1.255   7.254  0.7689  1.3681  4.7334
  942MOL0     H27151   7.769   1.235   7.318  0.2359  0.0823 -2.7002
  942MOL0     H27152   7.396   0.869   7.143  1.7390  0.4673  0.8550
  942MOL0     H27153   7.156   0.841   7.179 -0.6510  1.4603 -1.7327
  942MOL0     H27154   6.365   1.123   8.653  0.5258  0.2190 -0.4458
  942MOL0     H27155   6.581   0.999   8.693 -2.0867  2.1896  2.5972
  942MOL0     H27156   6.832   0.737   8.440  0.4517  0.0013  0.2065
  942MOL0     H27157   7.073   0.692   8.420  1.7746  0.9684  2.4209
  942MOL0     H27158   7.214   0.356   8.657  0.4150 -0.2883 -0.0763
  942MOL0     H27159   7.303   0.514   8.624  2.2152 -0.1117 -0.7740
  942MOL0     H27160   7.420   0.410   8.437  0.9772 -2.9207 -0.4194
  942MOL0     H27161   7.327   0.269   8.465 -2.8520  0.0174  2.9392
  942MOL0     H27162   7.436   0.272   8.710 -1.4566  2.6241  0.5873
  942MOL0     H27163   7.534   0.411   8.668 -2.2551  2.5923 -1.9703
  942MOL0     H27164   7.543   0.132   8.531 -2.4791  1.7345  1.0569
  942MOL0     H27165   7.641   0.264   8.481 -1.8633  0.7075  0.2403
  942MOL0     H27166   7.856   0.151   8.827  2.8231 -0.3810 -3.6423
  942MOL0     H27167   7.004   0.333   8.651  0.7071  0.6542  1.8664
  942MOL0     H27168   6.830   0.322   8.800 -1.1070 -1.0641  1.9188
  942MOL0     H27169   6.692   0.440   8.803  1.6118  0.9804 -0.8325
  942MOL0     H27170   6.699   0.316   8.676  0.5209 -0.5503  0.9995
  943MOL0     O27171   7.216  10.428   4.550 -0.5680 -0.4038 -0.3714
  943MOL0     C27172   7.240  10.549   4.550 -0.2591  0.5712 -0.7196
  943MOL0     O27173   7.369  10.602   4.531  0.0313 -0.5916 -0.0838
  943MOL0     C27174   7.468  10.515   4.502 -0.2662 -0.0792  0.8197
  943MOL0     C27175   7.493  10.464   4.375 -0.9432 -1.1216  0.3364
  943MOL0     C27176   7.617  10.393   4.349  0.2705  0.4425 -0.4229
  943MOL0     C27177   7.696  10.355   4.451  0.0098  0.0509 -0.8240
  943MOL0     O27178   7.805  10.277   4.440 -0.0473 -0.3928 -0.9686
  943MOL0     C27179   7.835  10.199   4.324 -0.8108  0.2133 -0.0759
  943MOL0     C27180   7.980  10.148   4.322  0.5848 -0.3364 -0.3844
  943MOL0     C27181   8.083  10.267   4.330 -0.1451  0.2174 -0.7193
  943MOL0     C27182   8.230  10.192   4.323  0.6159 -0.0190  0.3685
  943MOL0     C27183   8.330  10.312   4.300 -0.3989  0.7635  0.1321
  943MOL0     C27184   8.475  10.265   4.331  0.4945 -0.2648  0.5151
  943MOL0     C27185   8.577  10.369   4.292  0.1015  0.1014 -0.2443
  943MOL0     C27186   8.711  10.310   4.288 -0.3491  0.7173 -0.3500
  943MOL0     N27187   8.826  10.414   4.275  0.8456  0.0695  0.0142
  943MOL0     C27188   8.857  10.480   4.158 -0.2073  0.3171 -0.0796
  943MOL0     C27189   8.966  10.550   4.184  0.0102 -0.6588  0.2526
  943MOL0     C27190   9.035  10.619   4.072  0.1024 -0.2631 -0.7948
  943MOL0     C27191   9.119  10.741   4.125  0.6509  0.0355  0.2359
  943MOL0     C27192   9.028  10.864   4.153 -1.9186  0.0151 -0.6534
  943MOL0     C27193   9.112  10.966   4.232  0.0466  0.4338 -0.0746
  943MOL0     O27194   9.059  11.097   4.186 -0.2523 -0.1824  0.2293
  943MOL0     C27195   9.128  11.216   4.213  0.0162  0.1519 -0.8723
  943MOL0     C27196   9.087  11.338   4.161  0.0710  0.8525  0.9524
  943MOL0     C27197   9.152  11.455   4.183 -0.6776 -0.2238  0.3334
  943MOL0     C27198   9.272  11.452   4.255  0.6665  0.0561  0.0276
  943MOL0     C27199   9.359  11.575   4.282 -0.4471  0.3640 -0.3522
  943MOL0     O27200   9.302  11.690   4.238 -0.0874  0.5073  1.2981
  943MOL0     C27201   9.382  11.796   4.251 -0.1628  0.0823 -0.2864
  943MOL0     C27202   9.497  11.808   4.179  0.8146 -0.4727 -0.3417
  943MOL0     C27203   9.588  11.906   4.206  0.3373  0.1815  0.4309
  943MOL0     C27204   9.575  12.000   4.310  0.2354 -0.2309 -0.9724
  943MOL0     O27205   9.672  12.100   4.346  0.5134  0.1249  0.3375
  943MOL0     C27206   9.791  12.111   4.266 -0.1983  0.3158 -0.3443
  943MOL0     C27207   9.897  12.175   4.347 -0.6435 -0.1172  0.1733
  943MOL0     C27208  10.028  12.185   4.281 -0.0287  0.2853 -0.6659
  943MOL0     C27209  10.117  12.313   4.300  0.3940 -0.3944 -0.3514
  943MOL0     C27210  10.252  12.287   4.234  0.6264  0.2950 -0.1071
  943MOL0     C27211  10.349  12.407   4.253  0.3817  0.2326  0.1544
  943MOL0     C27212  10.471  12.382   4.173  0.0570  0.5021 -0.1572
  943MOL0     C27213  10.561  12.502   4.202  0.1808  0.4937  0.2458
  943MOL0    Cl27214  10.706  12.494   4.104 -0.6569  0.4291 -0.2766
  943MOL0     C27215   9.454  11.999   4.374  0.9185  0.2437 -0.3519
  943MOL0     C27216   9.354  11.894   4.348 -0.4446 -0.6626  0.5392
  943MOL0     O27217   9.467  11.567   4.343 -0.3382 -0.3169  0.2076
  943MOL0     C27218   9.319  11.334   4.316  0.5174 -0.0918 -0.7134
  943MOL0     C27219   9.249  11.216   4.292 -0.3748  0.0282 -0.5798
  943MOL0     N27220   9.003  10.522   4.315  0.5002 -0.4074 -0.0791
  943MOL0     N27221   8.908  10.451   4.371  0.4915  0.2862 -0.1186
  943MOL0     C27222   7.673  10.393   4.584  0.2000 -0.6092 -0.1586
  943MOL0     C27223   7.557  10.477   4.607 -0.5472 -1.3072 -0.4600
  943MOL0     C27224   7.123  10.641   4.560 -0.4108  0.3610 -0.7291
  943MOL0     C27225   6.997  10.602   4.622  0.1810 -0.1881 -0.6216
  943MOL0     C27226   6.889  10.699   4.638  0.0161  0.1888  0.3819
  943MOL0     C27227   6.913  10.840   4.601 -0.6531  1.1723  0.1355
  943MOL0     O27228   6.824  10.944   4.623 -0.0228  0.2044  0.8450
  943MOL0     C27229   6.743  10.972   4.508  1.2031  0.5626 -0.2816
  943MOL0     C27230   6.615  11.058   4.549 -0.3613 -0.3106 -0.2125
  943MOL0     C27231   6.638  11.184   4.641 -0.2421 -0.7221 -0.6553
  943MOL0     C27232   6.528  11.290   4.637 -0.5748  0.1331  0.2651
  943MOL0     C27233   6.393  11.233   4.661 -0.5201  0.7625 -1.1062
  943MOL0     C27234   6.286  11.168   4.682 -0.3136  0.0646  1.0584
  943MOL0     C27235   7.036  10.867   4.539 -0.0848 -0.3402 -0.2078
  943MOL0     C27236   7.134  10.778   4.519 -0.4093 -0.0265  0.1224
  943MOL0     C27237   7.257  10.834   4.461 -0.5712 -0.1003  0.0464
  943MOL0     H27238   7.441  10.499   4.287 -0.5689 -2.3826 -0.4039
  943MOL0     H27239   7.636  10.365   4.246  0.5033 -2.8959  0.4244
  943MOL0     H27240   7.764  10.116   4.321  0.3722 -0.8002 -1.4920
  943MOL0     H27241   7.821  10.263   4.236 -1.6482 -1.3114 -1.1022
  943MOL0     H27242   7.999  10.093   4.229 -0.4610  1.1779 -1.5476
  943MOL0     H27243   7.996  10.083   4.408  0.3508 -0.2124 -0.2487
  943MOL0     H27244   8.077  10.325   4.423  0.0785  1.6755 -1.5868
  943MOL0     H27245   8.056  10.325   4.241 -0.6831 -1.1944 -1.5180
  943MOL0     H27246   8.248  10.139   4.418 -0.8458  0.3741  0.8964
  943MOL0     H27247   8.243  10.116   4.245 -1.4975 -0.6935  0.6006
  943MOL0     H27248   8.325  10.344   4.196 -0.0238 -0.5293 -0.3098
  943MOL0     H27249   8.315  10.390   4.375  1.0133  1.3283 -0.1372
  943MOL0     H27250   8.480  10.241   4.437 -0.3834  0.2913  0.6999
  943MOL0     H27251   8.487  10.173   4.273 -1.3237  1.5639 -3.1271
  943MOL0     H27252   8.577  10.451   4.364 -4.1356 -1.7134  2.1528
  943MOL0     H27253   8.543  10.405   4.194 -0.2644  2.1461  0.5855
  943MOL0     H27254   8.733  10.253   4.378  2.0740  1.4459 -0.4099
  943MOL0     H27255   8.702  10.249   4.198 -1.7608 -1.1622  0.9901
  943MOL0     H27256   8.802  10.464   4.067 -1.2144 -1.0716  0.7259
  943MOL0     H27257   9.103  10.553   4.018  1.4705  0.0456  0.4931
  943MOL0     H27258   8.970  10.658   3.992 -1.6923 -0.8887  0.3078
  943MOL0     H27259   9.170  10.705   4.215 -0.3111  0.7434  1.0942
  943MOL0     H27260   9.192  10.774   4.051 -1.6790  0.6370 -1.9337
  943MOL0     H27261   8.957  10.825   4.227  0.4091 -0.2492  1.5848
  943MOL0     H27262   8.981  10.906   4.063 -2.9966 -0.8977 -0.5367
  943MOL0     H27263   9.218  10.949   4.212  0.2315  2.8967 -1.5169
  943MOL0     H27264   9.103  10.962   4.341 -0.4451  1.7880 -0.0458
  943MOL0     H27265   8.988  11.327   4.118  0.2103 -2.0384  1.1596
  943MOL0     H27266   9.113  11.544   4.135  3.0413  1.7951  0.7232
  943MOL0     H27267   9.515  11.736   4.101  1.9576  0.8439 -1.3336
  943MOL0     H27268   9.674  11.907   4.139 -1.2243 -0.0846 -1.7012
  943MOL0     H27269   9.828  12.009   4.248 -0.3153  0.2042  0.0337
  943MOL0     H27270   9.767  12.166   4.175  0.5248  0.4775 -0.4432
  943MOL0     H27271   9.861  12.275   4.373  0.2118 -0.2515  1.9965
  943MOL0     H27272   9.909  12.124   4.443 -1.7509 -0.6336  0.0578
  943MOL0     H27273  10.091  12.099   4.306 -2.0965 -0.8409  0.9794
  943MOL0     H27274  10.008  12.183   4.174 -1.3771 -2.7740 -0.4655
  943MOL0     H27275  10.132  12.318   4.408 -1.5624  0.8056 -0.0666
  943MOL0     H27276  10.073  12.405   4.259  0.3940 -1.1296 -2.0789
  943MOL0     H27277  10.238  12.273   4.126 -0.6672 -2.3682  0.3314
  943MOL0     H27278  10.278  12.187   4.268 -2.7902 -1.0412 -1.0542
  943MOL0     H27279  10.292  12.490   4.211 -2.8773 -2.9500 -2.4264
  943MOL0     H27280  10.373  12.408   4.359 -1.1561 -1.7193  0.5980
  943MOL0     H27281  10.459  12.390   4.064  3.6556 -2.4346 -0.9759
  943MOL0     H27282  10.512  12.280   4.173  0.9963  0.8144 -2.6699
  943MOL0     H27283  10.505  12.594   4.182  0.7950  1.3751  2.3709
  943MOL0     H27284  10.600  12.503   4.304  2.7386  2.8351 -0.6396
  943MOL0     H27285   9.442  12.069   4.456 -0.4042 -2.3036  1.7986
  943MOL0     H27286   9.261  11.897   4.403 -1.4460 -3.0691 -0.8542
  943MOL0     H27287   9.415  11.327   4.365  0.6021 -0.3903 -0.9212
  943MOL0     H27288   9.293  11.123   4.326 -0.0966  0.0803 -0.7813
  943MOL0     H27289   7.743  10.369   4.663 -0.5303 -0.9335  0.4010
  943MOL0     H27290   7.534  10.507   4.709 -2.6971 -2.3647 -0.5982
  943MOL0     H27291   6.986  10.499   4.655  0.1289 -0.1762 -0.6042
  943MOL0     H27292   6.794  10.677   4.686  0.8043 -2.5439  0.8318
  943MOL0     H27293   6.719  10.879   4.455  0.3402  1.2213 -1.0965
  943MOL0     H27294   6.800  11.024   4.431 -0.4566 -0.9303 -2.6773
  943MOL0     H27295   6.549  10.998   4.611  0.4868  0.1101  1.1235
  943MOL0     H27296   6.556  11.075   4.458 -2.4971 -1.1506  0.9546
  943MOL0     H27297   6.730  11.230   4.604 -0.5753 -0.6554 -1.4118
  943MOL0     H27298   6.657  11.138   4.739  1.0149  1.9254  0.4422
  943MOL0     H27299   6.546  11.357   4.722  0.2274 -0.2375  0.3976
  943MOL0     H27300   6.533  11.360   4.554 -0.4363  0.3433  0.4501
  943MOL0     H27301   6.208  11.100   4.708  1.4958 -2.8603 -0.6864
  943MOL0     H27302   7.036  10.964   4.491  0.1485  1.2210  2.7319
  943MOL0     H27303   7.309  10.773   4.386 -0.5634 -2.2709  1.7126
  943MOL0     H27304   7.252  10.935   4.420  0.0257 -0.6617 -1.4584
  943MOL0     H27305   7.325  10.842   4.547 -0.5746 -0.3786  0.0765
  944MOL0     O27306   2.763   8.664  10.882  0.2187 -0.5315  0.0927
  944MOL0     C27307   2.752   8.544  10.876 -1.1194  1.0214  0.0618
  944MOL0     O27308   2.651   8.477  10.821  0.0165 -0.8176 -1.0933
  944MOL0     C27309   2.538   8.550  10.791  0.1425 -0.2182  0.8868
  944MOL0     C27310   2.431   8.564  10.882 -0.7497 -0.1551 -0.4888
  944MOL0     C27311   2.315   8.627  10.843 -0.0947 -0.9444  1.1053
  944MOL0     C27312   2.310   8.676  10.710 -0.0598  0.2167 -0.7379
  944MOL0     O27313   2.198   8.732  10.658  0.5128  0.2161  0.3120
  944MOL0     C27314   2.104   8.800  10.755  0.1601 -0.5593  0.0977
  944MOL0     C27315   2.005   8.885  10.672  0.1298  0.2507 -0.4198
  944MOL0     C27316   2.058   8.993  10.582 -0.0129 -0.0041 -1.1108
  944MOL0     C27317   1.952   9.083  10.508 -0.5162  0.1946 -0.1070
  944MOL0     C27318   2.035   9.191  10.439 -0.0884 -0.1437 -0.5062
  944MOL0     C27319   1.957   9.286  10.341 -0.1277  0.8884  0.2728
  944MOL0     C27320   1.846   9.363  10.410  0.4855  0.8905 -0.8158
  944MOL0     C27321   1.710   9.298  10.414 -0.2255 -0.0877  0.4131
  944MOL0     N27322   1.600   9.385  10.461  0.2645  0.4987  0.0401
  944MOL0     C27323   1.470   9.362  10.417 -0.5190  0.0531 -0.8185
  944MOL0     C27324   1.407   9.472  10.456  0.0180  1.3102 -0.4474
  944MOL0     C27325   1.266   9.505  10.428  0.2592  0.3987  0.0722
  944MOL0     C27326   1.156   9.408  10.487 -0.5723 -0.7796 -0.1479
  944MOL0     C27327   1.040   9.475  10.563 -0.4731 -0.6091 -0.1688
  944MOL0     C27328   0.909   9.433  10.503 -0.0798 -0.7749 -0.1531
  944MOL0     O27329   0.888   9.492  10.379  0.2325  0.1098  0.1740
  944MOL0     C27330   0.758   9.475  10.335 -0.3006  0.1811 -0.0079
  944MOL0     C27331   0.700   9.580  10.263 -0.5124 -0.6080 -0.5131
  944MOL0     C27332   0.565   9.583  10.228 -0.2682 -1.0220  0.7769
  944MOL0     C27333   0.483   9.473  10.268  0.6435 -0.2038 -0.2869
  944MOL0     C27334   0.335   9.462  10.239  0.1559  1.0507  0.2526
  944MOL0     O27335   0.271   9.575  10.181 -0.2636  0.7688 -0.5508
  944MOL0     C27336   0.133   9.570  10.170  0.2333 -0.2654 -0.7825
  944MOL0     C27337   0.053   9.602  10.288  1.4514 -0.0433  0.1382
  944MOL0     C27338  -0.087   9.614  10.278  0.8094  0.2709  0.2507
  944MOL0     C27339  -0.150   9.607  10.153 -0.4883  0.1209  0.6257
  944MOL0     O27340  -0.290   9.617  10.147  0.4160  0.3235 -0.0729
  944MOL0     C27341  -0.353   9.643  10.022 -0.4081  0.3053  0.6528
  944MOL0     C27342  -0.510   9.652  10.016  0.0849 -0.8099  0.0846
  944MOL0     C27343  -0.585   9.532  10.054  0.1435 -0.4567 -0.0986
  944MOL0     C27344  -0.727   9.561  10.093 -0.0579  0.4872 -0.1239
  944MOL0     C27345  -0.807   9.431  10.131  0.1532 -0.2271  0.1740
  944MOL0     C27346  -0.946   9.464  10.169  0.0311  1.2266  0.9231
  944MOL0     C27347  -1.024   9.336  10.209 -0.5003  0.5517  0.1979
  944MOL0     C27348  -1.154   9.375  10.285 -0.5051  0.5424 -0.2755
  944MOL0    Cl27349  -1.120   9.494  10.409 -0.7622 -0.1075 -0.2316
  944MOL0     C27350  -0.071   9.583  10.037 -0.7280  0.1948 -0.6884
  944MOL0     C27351   0.068   9.569  10.048  0.2956 -1.2241  0.3272
  944MOL0     O27352   0.274   9.355  10.274 -0.4329 -0.8673 -0.0194
  944MOL0     C27353   0.545   9.360  10.335  0.0008 -0.0178  0.9108
  944MOL0     C27354   0.683   9.360  10.355 -0.2424  0.5268 -0.7976
  944MOL0     N27355   1.493   9.543  10.545  0.4201  0.0439 -0.4752
  944MOL0     N27356   1.605   9.485  10.549 -0.4061  0.6647  0.4756
  944MOL0     C27357   2.419   8.673  10.633 -0.6204  0.4144  1.1277
  944MOL0     C27358   2.533   8.608  10.673 -0.4673 -0.1229  0.2449
  944MOL0     C27359   2.863   8.460  10.921  0.1440  0.2006 -0.3540
  944MOL0     C27360   2.863   8.325  10.887 -0.7254  0.2482 -0.7754
  944MOL0     C27361   2.964   8.241  10.947  0.6674 -0.3511 -1.0478
  944MOL0     C27362   3.061   8.282  11.034 -0.3852 -0.5419 -0.3094
  944MOL0     O27363   3.163   8.203  11.078 -0.1616  0.2712 -0.1315
  944MOL0     C27364   3.174   8.061  11.049 -0.5962 -0.4923  0.0015
  944MOL0     C27365   3.078   7.987  11.133  0.5861  0.5779 -0.4336
  944MOL0     C27366   3.085   8.028  11.282  0.0752 -0.9567 -0.8895
  944MOL0     C27367   3.004   7.931  11.371  0.5943  0.2532 -0.9940
  944MOL0     C27368   3.067   7.799  11.379 -0.2028 -0.1175 -0.1031
  944MOL0     C27369   3.130   7.690  11.396 -0.0523  0.1790 -1.5513
  944MOL0     C27370   3.057   8.415  11.082  0.0827  0.3448  0.2478
  944MOL0     C27371   2.957   8.500  11.026 -0.5679 -0.1011 -0.3769
  944MOL0     C27372   2.961   8.647  11.069  0.7504  1.0807  0.6715
  944MOL0     H27373   2.445   8.521  10.981 -1.7689 -1.1311 -0.7467
  944MOL0     H27374   2.230   8.630  10.910 -0.2528 -0.0095  0.8858
  944MOL0     H27375   2.047   8.721  10.805  0.6295  0.3329  2.1574
  944MOL0     H27376   2.156   8.862  10.830  1.9533  1.4612 -2.6172
  944MOL0     H27377   1.923   8.929  10.730  0.2495  1.4880 -1.1787
  944MOL0     H27378   1.957   8.819  10.599 -0.6634  1.6448 -1.1835
  944MOL0     H27379   2.108   8.935  10.504  0.1837 -1.0682 -0.2094
  944MOL0     H27380   2.131   9.056  10.634  0.6206 -2.7513  1.6481
  944MOL0     H27381   1.901   9.017  10.437 -0.8742  0.7418 -0.3583
  944MOL0     H27382   1.885   9.112  10.589  1.0377 -2.9173  2.5633
  944MOL0     H27383   2.077   9.250  10.520 -1.4741  1.2322 -0.7325
  944MOL0     H27384   2.122   9.154  10.385 -0.6684  2.5388 -3.6612
  944MOL0     H27385   2.027   9.360  10.301 -2.3058  2.4094 -0.9307
  944MOL0     H27386   1.912   9.240  10.253 -3.1083  3.8337  0.0643
  944MOL0     H27387   1.828   9.456  10.356 -1.3745 -0.3868 -2.5358
  944MOL0     H27388   1.874   9.397  10.510  0.2114 -0.4359 -0.2643
  944MOL0     H27389   1.676   9.276  10.312 -0.9715 -0.4090  0.7283
  944MOL0     H27390   1.704   9.207  10.475  2.4198  0.1413  1.1528
  944MOL0     H27391   1.420   9.282  10.363 -1.3768  1.0045 -1.4593
  944MOL0     H27392   1.237   9.607  10.457 -0.6152  0.7725 -1.9290
  944MOL0     H27393   1.257   9.514  10.319  1.7040  2.2253  0.0505
  944MOL0     H27394   1.120   9.343  10.406  1.4658  0.1479 -1.9057
  944MOL0     H27395   1.203   9.334  10.552  0.6109 -1.0308 -1.2458
  944MOL0     H27396   1.061   9.581  10.579 -2.9553 -0.6139  5.2984
  944MOL0     H27397   1.038   9.427  10.661  1.7759  2.8040  1.7734
  944MOL0     H27398   0.826   9.452  10.573  0.7417  0.6395  0.4929
  944MOL0     H27399   0.906   9.324  10.500  1.8914 -0.8787  0.6057
  944MOL0     H27400   0.766   9.665  10.245 -2.5728  0.7781 -2.0120
  944MOL0     H27401   0.541   9.677  10.179  0.7869 -1.9646 -1.7432
  944MOL0     H27402   0.102   9.607  10.385  1.7515  0.1058 -0.0197
  944MOL0     H27403  -0.140   9.630  10.372 -0.4357  0.4833 -0.4656
  944MOL0     H27404  -0.323   9.745   9.993  3.3653 -0.7727  0.1873
  944MOL0     H27405  -0.321   9.580   9.939  1.5062  1.7580  0.2161
  944MOL0     H27406  -0.548   9.738  10.071  0.4287  0.5512 -1.7218
  944MOL0     H27407  -0.536   9.681   9.914 -0.5652  1.3056  0.8020
  944MOL0     H27408  -0.586   9.459   9.973  3.5367  0.1943 -0.8991
  944MOL0     H27409  -0.531   9.490  10.139 -0.0304  0.8704  0.6949
  944MOL0     H27410  -0.770   9.610  10.005  1.3223  3.0598  0.5366
  944MOL0     H27411  -0.724   9.639  10.169  0.6838 -0.8244  1.2399
  944MOL0     H27412  -0.766   9.377  10.217 -0.9323 -1.2919  0.0614
  944MOL0     H27413  -0.816   9.353  10.054 -0.4185  0.6708 -0.6951
  944MOL0     H27414  -0.938   9.541  10.247 -0.8610  2.5766 -0.2752
  944MOL0     H27415  -0.994   9.501  10.078  3.7260  0.4294 -1.5498
  944MOL0     H27416  -0.961   9.272  10.271 -2.2190 -0.6512  0.7986
  944MOL0     H27417  -1.057   9.282  10.119 -2.7203 -1.7459  2.2142
  944MOL0     H27418  -1.226   9.425  10.220  0.8377  4.5831  1.0482
  944MOL0     H27419  -1.191   9.282  10.330 -1.4891  1.3910  0.7032
  944MOL0     H27420  -0.119   9.571   9.941 -1.9703 -0.3228 -0.0244
  944MOL0     H27421   0.120   9.556   9.954  0.2212 -0.2614  0.1432
  944MOL0     H27422   0.483   9.277  10.366  0.0833 -0.8131 -0.8987
  944MOL0     H27423   0.721   9.263  10.387 -3.8884 -0.7937  0.0494
  944MOL0     H27424   2.411   8.724  10.537 -2.1292 -2.8707 -0.6729
  944MOL0     H27425   2.624   8.601  10.614  0.8654  2.0315  1.9371
  944MOL0     H27426   2.801   8.285  10.807 -1.2463  0.5132 -0.5103
  944MOL0     H27427   2.950   8.135  10.927 -1.6201  0.0408 -1.8562
  944MOL0     H27428   3.274   8.031  11.083 -0.6387 -0.1195  0.4652
  944MOL0     H27429   3.162   8.043  10.942 -0.2915  0.2877 -0.1712
  944MOL0     H27430   3.094   7.880  11.115 -0.9094  0.2113  0.2337
  944MOL0     H27431   2.975   8.004  11.098  0.4953 -0.4462 -0.6994
  944MOL0     H27432   3.051   8.132  11.284  0.6894 -0.7190  1.9134
  944MOL0     H27433   3.186   8.041  11.322 -0.7191 -0.2669  1.0142
  944MOL0     H27434   2.997   7.976  11.470  0.4305  1.2717 -1.4553
  944MOL0     H27435   2.905   7.912  11.329  0.9590 -1.6197 -1.0949
  944MOL0     H27436   3.175   7.595  11.418 -0.6652  0.6696  2.5324
  944MOL0     H27437   3.127   8.441  11.160 -0.3326 -3.3846  2.0558
  944MOL0     H27438   2.968   8.704  10.976  0.2731 -3.0444 -2.2067
  944MOL0     H27439   2.868   8.661  11.125 -0.7121 -2.3747 -0.5956
  944MOL0     H27440   3.053   8.664  11.127  1.1463 -2.4478  1.3408
  945MOL0     O27441   9.895   7.837   9.940  0.3911  0.0374  0.4916
  945MOL0     C27442   9.985   7.834  10.022  0.0953  0.2023 -0.0166
  945MOL0     O27443  10.065   7.939  10.061  1.1070  0.1153 -0.5694
  945MOL0     C27444  10.073   8.045   9.971 -0.0263 -0.1505 -0.6168
  945MOL0     C27445  10.058   8.034   9.834  0.2240 -1.1247  0.2016
  945MOL0     C27446  10.092   8.145   9.756  0.0700  0.5927  0.6345
  945MOL0     C27447  10.137   8.262   9.812 -0.0331  0.1669 -0.1028
  945MOL0     O27448  10.152   8.378   9.738  0.7521  0.0003 -0.1809
  945MOL0     C27449  10.229   8.366   9.613 -0.2957 -0.2814  0.0662
  945MOL0     C27450  10.373   8.328   9.648 -0.2431  0.1360  0.5208
  945MOL0     C27451  10.477   8.367   9.547 -0.4677  0.5216 -0.0124
  945MOL0     C27452  10.618   8.364   9.617  0.1757  0.4680  0.1371
  945MOL0     C27453  10.725   8.449   9.546  0.3247 -0.0241  0.0418
  945MOL0     C27454  10.851   8.444   9.623 -0.6532  0.6607  0.4011
  945MOL0     C27455  10.931   8.571   9.582  1.4389  0.2006 -0.5002
  945MOL0     C27456  11.066   8.536   9.514  0.4637  0.2119 -0.9205
  945MOL0     N27457  11.170   8.509   9.618 -0.3287  0.1383 -0.5085
  945MOL0     C27458  11.291   8.579   9.631  0.3840  0.4443 -0.4625
  945MOL0     C27459  11.359   8.521   9.739 -0.0018  0.6760 -0.0004
  945MOL0     C27460  11.496   8.555   9.785  0.0230  0.3290  0.2289
  945MOL0     C27461  11.504   8.602   9.933  0.0138  0.2265  0.4465
  945MOL0     C27462  11.636   8.668   9.963  0.1588 -0.0993 -0.8862
  945MOL0     C27463  11.666   8.677  10.117  0.8659  0.2954 -0.2455
  945MOL0     O27464  11.795   8.727  10.139 -0.1234 -0.0742 -0.0666
  945MOL0     C27465  11.901   8.638  10.114  0.5596  0.6299  0.5530
  945MOL0     C27466  12.021   8.697  10.079  0.1264  0.0601  0.4761
  945MOL0     C27467  12.136   8.616  10.045  0.9295  0.3591  0.0183
  945MOL0     C27468  12.129   8.477  10.053  0.2627  0.8210  1.0504
  945MOL0     C27469  12.244   8.397  10.004  0.0195 -0.1060  0.8667
  945MOL0     O27470  12.244   8.271  10.051 -0.3174 -0.9393  0.6169
  945MOL0     C27471  12.365   8.205  10.030 -0.1441  0.8479  0.1826
  945MOL0     C27472  12.424   8.182   9.894  0.1518  0.5989 -0.6707
  945MOL0     C27473  12.544   8.105   9.887  0.5108 -1.2704 -0.1567
  945MOL0     C27474  12.580   8.035  10.005 -0.6716 -0.3045 -0.1372
  945MOL0     O27475  12.685   7.949  10.010  0.0375  0.0202  0.0581
  945MOL0     C27476  12.735   7.888   9.888 -0.1903  0.4061 -0.0241
  945MOL0     C27477  12.826   7.772   9.899  0.8402  0.7629 -0.1552
  945MOL0     C27478  12.917   7.748   9.781  0.2579 -0.5865  0.5937
  945MOL0     C27479  13.041   7.834   9.780 -0.6472  0.3999 -0.0406
  945MOL0     C27480  13.166   7.790   9.707 -0.3731 -0.0235 -0.1037
  945MOL0     C27481  13.263   7.909   9.700 -0.5555  0.1439 -0.0394
  945MOL0     C27482  13.409   7.868   9.659  0.0952  0.4261  0.1270
  945MOL0     C27483  13.474   7.800   9.787 -0.1616  0.1960  0.6498
  945MOL0    Cl27484  13.637   7.742   9.739 -0.3096 -0.2569  0.1005
  945MOL0     C27485  12.510   8.041  10.119  0.7512 -0.6461 -0.8002
  945MOL0     C27486  12.403   8.127  10.140  0.6778  0.3706 -0.6192
  945MOL0     O27487  12.324   8.453   9.927  0.2777  0.0648  0.6140
  945MOL0     C27488  12.005   8.422  10.096 -0.9695  1.3588  1.2219
  945MOL0     C27489  11.895   8.498  10.132  0.6456  1.5999 -0.8464
  945MOL0     N27490  11.275   8.416   9.776  0.3436  0.1492 -0.8259
  945MOL0     N27491  11.157   8.418   9.713 -0.4760  0.2752 -0.2305
  945MOL0     C27492  10.159   8.272   9.945  0.0609 -0.0361  0.1748
  945MOL0     C27493  10.119   8.164  10.030 -0.2364  0.2311  0.6329
  945MOL0     C27494  10.023   7.696  10.067 -0.0335 -0.1763 -0.1276
  945MOL0     C27495  10.156   7.671  10.110  0.6347 -0.3195 -0.8144
  945MOL0     C27496  10.193   7.547  10.167  0.0460  0.0824 -0.2133
  945MOL0     C27497  10.105   7.443  10.160  0.8071  0.6594 -0.6130
  945MOL0     O27498  10.136   7.320  10.194 -0.0457  0.0720 -0.2945
  945MOL0     C27499  10.274   7.284  10.218  0.5494 -0.0517  0.9954
  945MOL0     C27500  10.268   7.134  10.188  0.1310 -0.0495  1.3038
  945MOL0     C27501  10.188   7.048  10.285 -0.6625 -0.4027 -0.2398
  945MOL0     C27502  10.156   6.917  10.219  0.3949  0.5423 -0.2479
  945MOL0     C27503  10.271   6.829  10.201 -0.2110  0.6927  0.1094
  945MOL0     C27504  10.372   6.763  10.178 -0.1695 -0.2449  0.3139
  945MOL0     C27505   9.980   7.461  10.108  0.0776  0.8921  0.4748
  945MOL0     C27506   9.934   7.584  10.059  0.0220  0.0336 -0.4475
  945MOL0     C27507   9.787   7.598  10.027 -0.1609  0.6958 -0.2887
  945MOL0     H27508  10.025   7.946   9.781 -0.0452 -0.5438 -0.6222
  945MOL0     H27509  10.066   8.137   9.651  0.3797  0.6843  0.5494
  945MOL0     H27510  10.187   8.308   9.530  2.2961  0.1093 -1.5971
  945MOL0     H27511  10.234   8.471   9.586  0.6593 -0.1788  0.5967
  945MOL0     H27512  10.374   8.219   9.665  1.5492  0.0208 -0.1297
  945MOL0     H27513  10.382   8.372   9.748  2.2244  0.3808  0.2399
  945MOL0     H27514  10.456   8.470   9.520 -1.7811  0.6823  1.4806
  945MOL0     H27515  10.480   8.310   9.454  0.6795  3.8495 -2.2000
  945MOL0     H27516  10.611   8.400   9.720 -2.5480  0.3234  0.0849
  945MOL0     H27517  10.646   8.259   9.629  0.9185  0.3417 -2.2170
  945MOL0     H27518  10.731   8.423   9.440 -2.4380 -0.5389 -0.0553
  945MOL0     H27519  10.686   8.551   9.548 -2.4741 -0.9790 -1.1918
  945MOL0     H27520  10.822   8.431   9.727 -2.4287  0.9150 -0.0366
  945MOL0     H27521  10.905   8.350   9.607 -1.2355  0.0897  1.6393
  945MOL0     H27522  10.946   8.630   9.673  0.5916 -0.0411 -0.1963
  945MOL0     H27523  10.866   8.641   9.529  1.9487 -0.3793 -1.9370
  945MOL0     H27524  11.065   8.448   9.450  1.6245 -2.2231  2.1230
  945MOL0     H27525  11.092   8.620   9.449  1.9269  0.8871  0.4625
  945MOL0     H27526  11.322   8.659   9.564 -1.4683  0.1087 -1.8194
  945MOL0     H27527  11.561   8.468   9.768  1.9501  1.8827 -0.7255
  945MOL0     H27528  11.533   8.636   9.722  2.7346 -0.1438  1.0759
  945MOL0     H27529  11.426   8.675   9.953 -0.6296 -0.1961 -0.4142
  945MOL0     H27530  11.490   8.519  10.003  0.2686  0.1300  0.3829
  945MOL0     H27531  11.622   8.771   9.928 -1.3526  0.4485  1.1250
  945MOL0     H27532  11.720   8.616   9.917 -0.8484 -1.9627 -0.7039
  945MOL0     H27533  11.655   8.582  10.169 -1.3699  1.0463  0.7967
  945MOL0     H27534  11.591   8.749  10.151  1.3105  0.8046 -0.3136
  945MOL0     H27535  12.023   8.801  10.048 -0.3989 -0.0652  0.0136
  945MOL0     H27536  12.220   8.660   9.993  0.3399 -1.9141 -3.1432
  945MOL0     H27537  12.384   8.234   9.808 -0.7993  1.1305  0.0761
  945MOL0     H27538  12.602   8.088   9.797 -0.8080  0.8949 -1.5046
  945MOL0     H27539  12.652   7.868   9.820  0.3298  0.8944 -0.8227
  945MOL0     H27540  12.792   7.962   9.831 -2.6339  1.2699 -1.5413
  945MOL0     H27541  12.882   7.769   9.993  1.7375 -1.6862 -0.6856
  945MOL0     H27542  12.755   7.689   9.909  4.1408 -2.0496  2.2555
  945MOL0     H27543  12.931   7.640   9.776 -0.2799 -0.6873  1.2275
  945MOL0     H27544  12.861   7.786   9.695 -2.1861 -3.2466  0.8500
  945MOL0     H27545  13.067   7.859   9.883  1.9258  1.1585 -0.8103
  945MOL0     H27546  13.024   7.935   9.740  1.9094  0.6664 -0.6400
  945MOL0     H27547  13.142   7.756   9.606  1.4222 -2.3922  0.1658
  945MOL0     H27548  13.217   7.701   9.746  2.0074  0.0046 -2.7810
  945MOL0     H27549  13.222   7.984   9.632  0.4978 -0.2589 -1.1561
  945MOL0     H27550  13.271   7.944   9.803  1.7720 -2.1708  0.6651
  945MOL0     H27551  13.474   7.952   9.633  1.7914 -0.8679  0.0081
  945MOL0     H27552  13.395   7.800   9.574 -0.0480  1.5855 -0.8028
  945MOL0     H27553  13.485   7.870   9.870 -1.9448 -1.0562  2.0133
  945MOL0     H27554  13.409   7.722   9.828 -1.3385 -0.1266 -1.6426
  945MOL0     H27555  12.540   7.978  10.203 -1.8610  0.2295  0.9382
  945MOL0     H27556  12.351   8.119  10.236  3.7415 -1.7712  1.0414
  945MOL0     H27557  12.003   8.313  10.102 -0.3269  1.1112 -1.5728
  945MOL0     H27558  11.817   8.443  10.185  2.5897  2.1824  2.9350
  945MOL0     H27559  10.199   8.356  10.000  1.7604  0.6970 -2.0042
  945MOL0     H27560  10.138   8.154  10.136  0.2650 -3.2660  0.3351
  945MOL0     H27561  10.224   7.756  10.108  0.3336 -0.0895 -1.8295
  945MOL0     H27562  10.290   7.531  10.212 -0.1912 -0.6418  0.0546
  945MOL0     H27563  10.302   7.299  10.323 -1.7473  0.6764  1.5728
  945MOL0     H27564  10.341   7.338  10.151  0.0260  0.9190  1.2380
  945MOL0     H27565  10.375   7.111  10.195  0.2903  0.7230  1.4997
  945MOL0     H27566  10.238   7.116  10.084  0.4645  0.7353  1.0688
  945MOL0     H27567  10.100   7.098  10.326 -0.4245 -0.6942  0.6465
  945MOL0     H27568  10.248   7.031  10.374 -1.0753  0.7205  0.2695
  945MOL0     H27569  10.080   6.870  10.281  1.9058 -1.3123  0.3192
  945MOL0     H27570  10.118   6.928  10.117 -1.3631 -3.2546 -0.1648
  945MOL0     H27571  10.453   6.697  10.159 -0.1966  0.4877 -2.8010
  945MOL0     H27572   9.912   7.378  10.090  1.2107  0.1091 -0.3164
  945MOL0     H27573   9.752   7.685  10.084 -1.7982 -0.2677  0.2274
  945MOL0     H27574   9.778   7.622   9.920 -1.5320 -2.1813 -0.9071
  945MOL0     H27575   9.726   7.510  10.045 -0.0802  0.5314 -0.7962
  946MOL0     O27576   4.977  10.336   4.387  0.4498  0.1026  0.3277
  946MOL0     C27577   4.952  10.458   4.393  0.2840  0.4511 -0.4101
  946MOL0     O27578   5.046  10.557   4.412 -0.2810 -0.1831 -0.0872
  946MOL0     C27579   5.171  10.538   4.376  0.0799  0.5180 -0.0259
  946MOL0     C27580   5.264  10.615   4.444 -0.3993 -0.3612 -0.0460
  946MOL0     C27581   5.397  10.600   4.419  0.1865 -0.2036 -0.6594
  946MOL0     C27582   5.453  10.513   4.323 -0.5937  0.7675  0.8370
  946MOL0     O27583   5.582  10.527   4.285 -0.7362  0.7783  0.6020
  946MOL0     C27584   5.645  10.396   4.299 -0.1466 -0.2832  0.3331
  946MOL0     C27585   5.795  10.398   4.279  0.1094  0.8470  0.0558
  946MOL0     C27586   5.826  10.453   4.145  0.8247 -0.4772 -0.2403
  946MOL0     C27587   5.967  10.483   4.121 -0.9036  0.1634  0.1077
  946MOL0     C27588   6.059  10.365   4.125 -0.1102  0.7209 -0.6339
  946MOL0     C27589   6.199  10.394   4.077 -0.1780  0.3353 -0.8528
  946MOL0     C27590   6.298  10.278   4.087  0.7000  0.5011 -0.2206
  946MOL0     C27591   6.234  10.137   4.056  0.0259 -1.1697  0.1089
  946MOL0     N27592   6.321  10.025   4.089  0.1497 -0.6536  0.5463
  946MOL0     C27593   6.305   9.913   4.021  0.0264  0.8125 -0.4574
  946MOL0     C27594   6.404   9.833   4.078 -0.2306 -0.6357 -0.5973
  946MOL0     C27595   6.428   9.699   4.020 -0.5419 -0.2705 -0.1215
  946MOL0     C27596   6.329   9.589   4.056  0.0391 -1.0291 -1.0101
  946MOL0     C27597   6.347   9.456   3.968  0.5231 -0.1762 -0.5814
  946MOL0     C27598   6.344   9.488   3.821 -0.4921 -0.0329 -0.1983
  946MOL0     O27599   6.342   9.361   3.753  0.5776 -0.8121  0.4377
  946MOL0     C27600   6.219   9.313   3.707 -0.2840 -0.9870 -0.7862
  946MOL0     C27601   6.213   9.172   3.703  0.0162  0.5748 -0.4993
  946MOL0     C27602   6.102   9.111   3.649  0.9330 -0.0601  0.5155
  946MOL0     C27603   5.999   9.191   3.598  0.7645  1.1363  0.3129
  946MOL0     C27604   5.874   9.119   3.556 -0.4029  0.0991  1.1261
  946MOL0     O27605   5.876   8.978   3.545 -0.7657  1.0995 -0.4848
  946MOL0     C27606   5.761   8.898   3.528 -0.0015  0.1296 -0.4810
  946MOL0     C27607   5.630   8.943   3.545 -1.0507 -0.0956  0.2680
  946MOL0     C27608   5.525   8.865   3.504  0.6733 -0.0155 -0.2037
  946MOL0     C27609   5.542   8.734   3.451 -0.0071 -0.7039  0.6274
  946MOL0     O27610   5.445   8.648   3.409 -0.6258  0.0285  1.0594
  946MOL0     C27611   5.317   8.699   3.381 -0.3985  0.3054  0.2507
  946MOL0     C27612   5.259   8.616   3.268  0.5820  0.5290  0.0098
  946MOL0     C27613   5.125   8.667   3.219  0.7677  0.1854 -0.9248
  946MOL0     C27614   5.133   8.719   3.072  1.2258 -1.1801  0.1850
  946MOL0     C27615   5.009   8.791   3.031  0.8997 -1.0611 -0.1736
  946MOL0     C27616   4.882   8.707   3.034  0.4692 -0.0642 -1.2884
  946MOL0     C27617   4.790   8.732   3.154  0.7661 -0.2254  0.1897
  946MOL0     C27618   4.670   8.635   3.148 -0.0390  0.1300 -0.1467
  946MOL0    Cl27619   4.713   8.470   3.184  0.0826 -0.1894 -0.0936
  946MOL0     C27620   5.673   8.687   3.433  0.3986  0.3846  1.0110
  946MOL0     C27621   5.771   8.766   3.477 -0.8079 -0.1945 -0.0112
  946MOL0     O27622   5.779   9.196   3.521 -0.3246 -0.7985  0.2218
  946MOL0     C27623   6.002   9.327   3.619 -0.2437  0.2315  1.0173
  946MOL0     C27624   6.119   9.390   3.672  0.3651 -0.6333 -1.5458
  946MOL0     N27625   6.478   9.917   4.169  0.4185  0.3766  0.4552
  946MOL0     N27626   6.419  10.032   4.177  0.3968 -0.1139 -0.8259
  946MOL0     C27627   5.362  10.423   4.259  0.2323 -0.6071 -0.3226
  946MOL0     C27628   5.222  10.440   4.282 -0.1069 -0.1785 -0.3104
  946MOL0     C27629   4.811  10.487   4.382 -0.0454 -0.2931 -0.5793
  946MOL0     C27630   4.715  10.383   4.376 -0.7889 -0.7675 -0.1674
  946MOL0     C27631   4.582  10.406   4.375  0.2939 -0.1874 -0.6973
  946MOL0     C27632   4.523  10.534   4.387  0.2652  0.4629  0.5181
  946MOL0     O27633   4.385  10.558   4.410 -0.3101  0.9107  0.1565
  946MOL0     C27634   4.305  10.442   4.431  0.7234 -0.1705  0.7425
  946MOL0     C27635   4.158  10.499   4.452  0.3205  0.1190  0.3459
  946MOL0     C27636   4.056  10.382   4.480  0.2178 -0.2437 -0.0047
  946MOL0     C27637   3.916  10.430   4.485  1.4532 -0.3511 -0.6048
  946MOL0     C27638   3.823  10.319   4.485  0.0467  0.7207  0.0704
  946MOL0     C27639   3.751  10.221   4.475  0.3389  0.5911  0.0633
  946MOL0     C27640   4.614  10.642   4.387 -0.4473 -0.3086  0.8708
  946MOL0     C27641   4.757  10.617   4.377 -0.1142 -0.0951 -0.6379
  946MOL0     C27642   4.843  10.747   4.372 -0.4437  0.1148  0.0791
  946MOL0     H27643   5.235  10.688   4.520  2.9562 -0.0840  1.1431
  946MOL0     H27644   5.470  10.662   4.469  0.2196 -0.6432 -0.1571
  946MOL0     H27645   5.620  10.355   4.398 -2.0735 -1.2662 -0.4873
  946MOL0     H27646   5.611  10.332   4.217 -0.0073 -0.8385  0.7031
  946MOL0     H27647   5.840  10.298   4.283 -0.2866  0.6755  0.3015
  946MOL0     H27648   5.834  10.450   4.367 -1.3574 -2.8135  3.1794
  946MOL0     H27649   5.770  10.546   4.137 -2.6920 -1.7819  4.3463
  946MOL0     H27650   5.795  10.382   4.067 -1.6799  0.7070 -0.4093
  946MOL0     H27651   5.974  10.529   4.022 -0.8123  0.1034  0.0853
  946MOL0     H27652   5.999  10.573   4.173  1.0347 -0.2505 -0.2772
  946MOL0     H27653   6.057  10.314   4.222 -2.7255 -1.3441 -1.6223
  946MOL0     H27654   6.012  10.283   4.068 -0.8682 -0.8682  2.1021
  946MOL0     H27655   6.194  10.411   3.969 -0.6139  0.0245 -0.8818
  946MOL0     H27656   6.234  10.487   4.124  0.3850  0.6210 -1.8025
  946MOL0     H27657   6.337  10.270   4.188 -1.4664  1.5599  0.7660
  946MOL0     H27658   6.387  10.309   4.030  1.4572  0.3016  0.8344
  946MOL0     H27659   6.155  10.123   4.131  0.8513  0.3010  1.2980
  946MOL0     H27660   6.199  10.129   3.953  0.0212 -0.9661  0.0942
  946MOL0     H27661   6.233   9.898   3.941  0.6598  0.3179 -0.9433
  946MOL0     H27662   6.447   9.702   3.913  2.1926  0.4967  0.3203
  946MOL0     H27663   6.523   9.668   4.065 -0.1234 -1.9690 -2.0327
  946MOL0     H27664   6.340   9.561   4.161  0.8139  1.6649 -0.2775
  946MOL0     H27665   6.227   9.630   4.054  0.5774  0.4531 -0.0349
  946MOL0     H27666   6.264   9.386   3.986  0.8586 -0.5102 -0.3169
  946MOL0     H27667   6.441   9.408   3.997  0.0316  0.8230  3.2002
  946MOL0     H27668   6.435   9.543   3.796  0.1769  0.2941  2.6483
  946MOL0     H27669   6.265   9.558   3.791 -0.2129  0.4531  0.1905
  946MOL0     H27670   6.297   9.110   3.735 -3.1208 -4.4804 -0.9525
  946MOL0     H27671   6.092   9.003   3.639  0.6626 -0.1053  1.2284
  946MOL0     H27672   5.602   9.034   3.598  0.5576 -0.0940  1.1665
  946MOL0     H27673   5.425   8.899   3.527 -0.4042 -0.4021 -3.7324
  946MOL0     H27674   5.257   8.694   3.472  0.3443 -1.9502  0.6842
  946MOL0     H27675   5.318   8.802   3.343  0.1421  0.0670 -0.3894
  946MOL0     H27676   5.333   8.613   3.188 -0.4226  0.8287 -0.9643
  946MOL0     H27677   5.252   8.513   3.305 -0.1229  0.0127 -1.4983
  946MOL0     H27678   5.057   8.582   3.232 -0.9087  1.8049  2.2145
  946MOL0     H27679   5.100   8.749   3.287  1.8883 -0.3369  0.1385
  946MOL0     H27680   5.150   8.635   3.004  1.4383 -0.5624 -0.5374
  946MOL0     H27681   5.210   8.792   3.050  0.1212 -0.1277 -0.2702
  946MOL0     H27682   5.034   8.807   2.926 -2.2109  0.7520 -0.7695
  946MOL0     H27683   4.996   8.882   3.090 -1.0571 -1.8326  0.6650
  946MOL0     H27684   4.835   8.724   2.937  1.9203  0.4179 -1.9329
  946MOL0     H27685   4.910   8.602   3.044  1.1472  0.3537  3.7423
  946MOL0     H27686   4.744   8.831   3.147 -1.2355 -0.9996  1.4866
  946MOL0     H27687   4.837   8.712   3.251  1.7576 -0.5925 -0.3507
  946MOL0     H27688   4.597   8.666   3.223  0.9702  1.3273  0.3780
  946MOL0     H27689   4.620   8.636   3.051 -0.8362  0.5469  0.2635
  946MOL0     H27690   5.694   8.593   3.382 -2.1196  0.1443  0.2686
  946MOL0     H27691   5.874   8.733   3.473 -0.9702 -0.6712 -0.3998
  946MOL0     H27692   5.920   9.391   3.589 -0.0739  0.9391  1.9874
  946MOL0     H27693   6.121   9.499   3.670  1.3904 -0.6369 -1.0688
  946MOL0     H27694   5.392  10.346   4.189 -1.0527 -1.4076 -0.0183
  946MOL0     H27695   5.156  10.366   4.238  1.4410 -2.5973  1.1985
  946MOL0     H27696   4.738  10.277   4.368  0.2978 -0.4113 -3.1573
  946MOL0     H27697   4.525  10.315   4.390  2.5549 -1.3265  1.7268
  946MOL0     H27698   4.334  10.386   4.520 -1.4199 -0.0040  1.5846
  946MOL0     H27699   4.309  10.366   4.353  3.1260 -0.4702  1.0698
  946MOL0     H27700   4.128  10.552   4.361  2.9934  0.9564 -0.1386
  946MOL0     H27701   4.143  10.562   4.540  0.1505 -1.9339  1.8468
  946MOL0     H27702   4.071  10.346   4.582 -1.4271  0.4896  0.5212
  946MOL0     H27703   4.068  10.300   4.408 -0.8278  0.0543 -0.5407
  946MOL0     H27704   3.892  10.505   4.562  2.0599 -0.0884 -0.6672
  946MOL0     H27705   3.888  10.484   4.394 -1.8251  0.7777  0.9175
  946MOL0     H27706   3.698  10.130   4.458  0.0203  0.3716  1.9677
  946MOL0     H27707   4.563  10.736   4.409 -2.7021 -1.3110  0.2840
  946MOL0     H27708   4.898  10.738   4.277 -0.6608  0.3395 -0.0701
  946MOL0     H27709   4.788  10.842   4.364 -0.9047 -0.2631 -2.0891
  946MOL0     H27710   4.924  10.759   4.444  0.6032  0.0472 -1.0581
  947MOL0     O27711   1.237   0.638  10.908  0.2556 -0.1449  0.5364
  947MOL0     C27712   1.307   0.609  11.002  0.7874  0.3534 -0.3445
  947MOL0     O27713   1.367   0.480  11.021  0.7133  0.4724 -0.1452
  947MOL0     C27714   1.332   0.395  10.917  0.1652 -0.4973  0.4203
  947MOL0     C27715   1.416   0.371  10.801  0.5094  0.6261 -0.3190
  947MOL0     C27716   1.374   0.271  10.698 -0.0561 -1.8606 -0.7247
  947MOL0     C27717   1.242   0.203  10.719 -0.4209  0.0238  0.1388
  947MOL0     O27718   1.192   0.098  10.635  0.3800  0.3649 -0.4035
  947MOL0     C27719   1.272   0.044  10.524  0.1179  0.1123  0.1625
  947MOL0     C27720   1.378  -0.055  10.563  0.2626 -0.4941 -0.8444
  947MOL0     C27721   1.438  -0.119  10.444  0.5850 -0.2287 -0.2890
  947MOL0     C27722   1.374  -0.250  10.412  0.4862  0.3488 -0.1044
  947MOL0     C27723   1.439  -0.302  10.278  0.2224 -0.7975 -0.7663
  947MOL0     C27724   1.374  -0.435  10.223 -1.0853  0.2176 -0.0548
  947MOL0     C27725   1.432  -0.469  10.085  0.5428  0.6275 -0.1193
  947MOL0     C27726   1.526  -0.583  10.072 -0.1536 -0.0966 -0.2069
  947MOL0     N27727   1.659  -0.551  10.117 -0.4254  0.1021 -0.4426
  947MOL0     C27728   1.701  -0.554  10.253  0.2048 -0.5575  0.3203
  947MOL0     C27729   1.838  -0.542  10.238 -0.6916 -0.1620  0.3677
  947MOL0     C27730   1.924  -0.511  10.348 -0.6658  0.2457 -0.5016
  947MOL0     C27731   1.981  -0.365  10.346  0.0808 -0.8625  0.4162
  947MOL0     C27732   2.074  -0.337  10.459 -0.3865  0.1404 -0.1193
  947MOL0     C27733   2.144  -0.201  10.448  0.2178  0.3169 -0.0864
  947MOL0     O27734   2.173  -0.151  10.580  0.4642  0.9135 -0.5932
  947MOL0     C27735   2.296  -0.172  10.641  0.6856 -0.3129  0.5397
  947MOL0     C27736   2.320  -0.106  10.767  0.0147 -0.0047  0.2814
  947MOL0     C27737   2.435  -0.121  10.841 -0.5369 -0.4874 -0.9663
  947MOL0     C27738   2.539  -0.202  10.795  0.4753  0.0258 -0.5341
  947MOL0     C27739   2.665  -0.219  10.873  0.6270  0.1720  0.3939
  947MOL0     O27740   2.767  -0.290  10.813  0.4357  0.6527 -0.1635
  947MOL0     C27741   2.886  -0.264  10.871 -0.4158  0.5889 -1.3142
  947MOL0     C27742   2.985  -0.209  10.789  0.8412  0.1528 -0.0320
  947MOL0     C27743   3.102  -0.163  10.850  0.0669 -0.2063  0.1818
  947MOL0     C27744   3.136  -0.200  10.982 -0.0152 -0.3278 -0.2989
  947MOL0     O27745   3.262  -0.160  11.014 -0.1632  0.4316  0.3995
  947MOL0     C27746   3.307  -0.133  11.155  0.2609  0.2948  0.0776
  947MOL0     C27747   3.460  -0.152  11.148 -0.0441 -0.3142 -0.3704
  947MOL0     C27748   3.504  -0.291  11.148  0.0743 -0.6305  0.1909
  947MOL0     C27749   3.659  -0.303  11.165  0.4038  0.4701  0.8535
  947MOL0     C27750   3.717  -0.437  11.125 -0.5165  0.7524  0.7563
  947MOL0     C27751   3.870  -0.428  11.101 -0.7917 -0.9557  0.2349
  947MOL0     C27752   3.946  -0.556  11.100  0.0977  1.4529  0.7423
  947MOL0     C27753   3.950  -0.621  11.232  0.4866  0.9820  0.5761
  947MOL0    Cl27754   4.076  -0.561  11.351 -0.2879  0.2653 -0.0334
  947MOL0     C27755   3.044  -0.272  11.063  0.8626 -0.1439 -1.0879
  947MOL0     C27756   2.915  -0.304  11.010 -0.8806  0.3290  0.0175
  947MOL0     O27757   2.666  -0.178  10.990  0.4858 -0.7206  0.5231
  947MOL0     C27758   2.510  -0.277  10.679  0.6205  0.1163  0.0943
  947MOL0     C27759   2.395  -0.266  10.605  0.3553 -1.4210 -0.2649
  947MOL0     N27760   1.873  -0.541  10.103  0.1131 -0.3655 -0.5671
  947MOL0     N27761   1.762  -0.556  10.035  0.3058 -0.3757  0.2722
  947MOL0     C27762   1.160   0.241  10.825 -0.7122  0.0966  0.1215
  947MOL0     C27763   1.208   0.335  10.921 -0.0501  0.1664  0.4064
  947MOL0     C27764   1.332   0.714  11.106 -0.1119  0.2089 -1.0406
  947MOL0     C27765   1.337   0.846  11.061 -0.3947 -0.4171  0.0362
  947MOL0     C27766   1.366   0.946  11.150 -0.4433  0.0129 -1.0001
  947MOL0     C27767   1.398   0.933  11.290  0.0489  0.2690 -0.3863
  947MOL0     O27768   1.417   1.039  11.371  0.7328  0.2004 -0.6482
  947MOL0     C27769   1.321   1.046  11.487  0.3151 -0.3242  0.8046
  947MOL0     C27770   1.253   1.183  11.516  0.7485  0.2969 -0.4013
  947MOL0     C27771   1.162   1.235  11.407 -0.4360 -0.3460  0.2463
  947MOL0     C27772   1.053   1.132  11.372 -0.8524  0.6190  0.9760
  947MOL0     C27773   0.954   1.200  11.287  0.2309  0.8261  0.3470
  947MOL0     C27774   0.877   1.258  11.218 -0.5594  0.4486  0.4310
  947MOL0     C27775   1.389   0.802  11.330  0.5654 -0.2474  0.4323
  947MOL0     C27776   1.362   0.690  11.246 -0.0549 -0.2167 -0.0905
  947MOL0     C27777   1.379   0.554  11.309 -0.3024  0.5750 -0.2367
  947MOL0     H27778   1.513   0.420  10.795  0.6123  0.3563 -0.9702
  947MOL0     H27779   1.447   0.247  10.621  0.8670 -0.3940 -0.3551
  947MOL0     H27780   1.212  -0.018  10.456  0.2796  0.1740 -0.0391
  947MOL0     H27781   1.316   0.125  10.465 -0.9978 -2.0766 -4.1003
  947MOL0     H27782   1.340  -0.132  10.631  2.6089 -0.6182  0.4387
  947MOL0     H27783   1.457  -0.003  10.618 -0.0642 -0.9290  0.0554
  947MOL0     H27784   1.545  -0.140  10.456  0.4296 -1.3279 -0.7057
  947MOL0     H27785   1.441  -0.043  10.365  0.7858 -1.6321 -1.6871
  947MOL0     H27786   1.390  -0.322  10.493 -1.0782 -0.0802 -0.1484
  947MOL0     H27787   1.267  -0.247  10.391  0.3729 -1.0410  0.1963
  947MOL0     H27788   1.424  -0.228  10.199 -0.8979 -1.8264 -1.5509
  947MOL0     H27789   1.547  -0.312  10.288  0.0674 -1.3719  0.6343
  947MOL0     H27790   1.396  -0.525  10.280 -1.6385 -0.4625 -0.8857
  947MOL0     H27791   1.265  -0.424  10.219 -1.2322 -0.6519  1.1070
  947MOL0     H27792   1.469  -0.379  10.036  1.4057 -0.0431 -0.7363
  947MOL0     H27793   1.352  -0.501  10.018  0.3545  0.7602  0.0403
  947MOL0     H27794   1.494  -0.670  10.131 -2.7214  0.3445 -0.8108
  947MOL0     H27795   1.513  -0.618   9.969  2.0632  0.9465 -0.8912
  947MOL0     H27796   1.653  -0.571  10.349  0.7164  1.0269  0.9022
  947MOL0     H27797   1.866  -0.519  10.440 -0.8709  0.5679 -0.6008
  947MOL0     H27798   2.008  -0.580  10.335  0.9111  2.2666 -1.7061
  947MOL0     H27799   2.042  -0.358  10.256 -1.1924 -0.7323 -0.4647
  947MOL0     H27800   1.903  -0.288  10.347  3.5200  3.0111 -1.4456
  947MOL0     H27801   2.158  -0.408  10.454 -0.4570  0.1425 -1.9545
  947MOL0     H27802   2.011  -0.332  10.547  2.4802 -0.3153  2.1125
  947MOL0     H27803   2.082  -0.124  10.401  0.7016  0.5799 -0.3024
  947MOL0     H27804   2.234  -0.211  10.386  0.3603 -1.7084  0.3719
  947MOL0     H27805   2.242  -0.039  10.803 -0.5464 -0.2804 -0.3839
  947MOL0     H27806   2.455  -0.056  10.926  0.6683  3.2431 -3.8008
  947MOL0     H27807   2.945  -0.199  10.689 -0.7821  1.3008  0.6664
  947MOL0     H27808   3.184  -0.124  10.791  1.4334 -3.2476 -0.1311
  947MOL0     H27809   3.272  -0.033  11.179 -0.6207  0.7714 -2.8175
  947MOL0     H27810   3.261  -0.201  11.228 -0.3327  0.2259 -0.3479
  947MOL0     H27811   3.508  -0.099  11.065  1.8635 -2.8362 -0.9966
  947MOL0     H27812   3.499  -0.107  11.240 -0.3644 -1.7992  0.5250
  947MOL0     H27813   3.450  -0.346  11.226  1.1532 -2.0004  0.0106
  947MOL0     H27814   3.481  -0.338  11.052 -0.1876 -1.6513  0.7295
  947MOL0     H27815   3.681  -0.278  11.269 -1.5821  0.1621  1.3900
  947MOL0     H27816   3.709  -0.228  11.104  1.1997 -1.6565 -1.2774
  947MOL0     H27817   3.677  -0.491  11.039  1.7162 -0.2190  0.2454
  947MOL0     H27818   3.690  -0.509  11.203 -2.0703 -2.3566 -2.4106
  947MOL0     H27819   3.883  -0.380  11.003 -0.5037 -1.1303  0.1871
  947MOL0     H27820   3.900  -0.359  11.181 -1.4857  2.0438 -1.8986
  947MOL0     H27821   4.045  -0.545  11.054  0.1903  3.3053  1.3114
  947MOL0     H27822   3.895  -0.617  11.025  1.1129  1.2530  0.1875
  947MOL0     H27823   3.852  -0.619  11.282  1.8513 -2.5674  3.8574
  947MOL0     H27824   3.968  -0.727  11.214  1.2297  1.5038 -2.0899
  947MOL0     H27825   3.066  -0.295  11.167 -1.4575 -3.5223 -1.1685
  947MOL0     H27826   2.841  -0.360  11.065  0.4918 -0.2135  1.3707
  947MOL0     H27827   2.581  -0.353  10.647  0.9842  0.8827 -0.9863
  947MOL0     H27828   2.375  -0.317  10.511 -1.4259 -0.5821 -0.3945
  947MOL0     H27829   1.068   0.192  10.856 -0.7214  0.0004 -0.0571
  947MOL0     H27830   1.154   0.357  11.012  0.4770  1.4664  0.4259
  947MOL0     H27831   1.319   0.885  10.961  2.3926  0.2836 -0.2887
  947MOL0     H27832   1.370   1.050  11.118 -0.1207 -0.0126 -1.0405
  947MOL0     H27833   1.387   1.001  11.562 -0.1323 -0.1292  1.3167
  947MOL0     H27834   1.243   0.971  11.472  0.9833 -0.7302 -0.9242
  947MOL0     H27835   1.338   1.248  11.536 -1.1094  2.2686  1.6384
  947MOL0     H27836   1.196   1.169  11.608  4.0173  0.4390  1.7924
  947MOL0     H27837   1.225   1.260  11.322  1.6778 -1.3993  1.4119
  947MOL0     H27838   1.115   1.328  11.439  1.4115  1.9394 -3.1947
  947MOL0     H27839   1.105   1.060  11.307  1.2351  2.1317  0.8662
  947MOL0     H27840   1.003   1.080  11.454  0.0775  0.4394  1.4434
  947MOL0     H27841   0.801   1.304  11.159 -0.5389 -0.9195 -0.7169
  947MOL0     H27842   1.406   0.797  11.437  0.7011 -1.2051  0.3776
  947MOL0     H27843   1.282   0.505  11.323  0.1826  0.0376  1.5188
  947MOL0     H27844   1.440   0.481  11.256 -1.2012 -0.3246 -0.0658
  947MOL0     H27845   1.415   0.567  11.412  0.8693 -2.7893 -0.1136
  948MOL0     O27846   5.966   9.862   2.471  0.7761 -0.3618  0.3721
  948MOL0     C27847   5.852   9.851   2.507  0.0278 -0.1668 -0.2573
  948MOL0     O27848   5.764   9.766   2.459 -0.1029 -0.6405 -0.1848
  948MOL0     C27849   5.810   9.678   2.365  0.4583 -0.9392  0.7793
  948MOL0     C27850   5.764   9.662   2.227 -0.1770 -0.8840  0.4179
  948MOL0     C27851   5.822   9.565   2.143 -0.3515 -0.0070 -0.3555
  948MOL0     C27852   5.927   9.482   2.182 -0.1537 -0.0045 -0.1955
  948MOL0     O27853   5.984   9.379   2.118  0.2651 -0.3925 -0.2139
  948MOL0     C27854   5.943   9.362   1.982  0.2717  0.2040  0.0220
  948MOL0     C27855   6.025   9.259   1.901  0.0008  0.1554  0.3567
  948MOL0     C27856   6.157   9.318   1.858 -0.2884 -0.8415 -0.0899
  948MOL0     C27857   6.250   9.205   1.799  0.3186 -0.9344 -0.9126
  948MOL0     C27858   6.400   9.242   1.771  0.4830 -0.6000 -0.1912
  948MOL0     C27859   6.404   9.334   1.651  0.4725  0.1740 -0.3033
  948MOL0     C27860   6.547   9.353   1.593 -0.2031 -1.0087 -0.1598
  948MOL0     C27861   6.625   9.470   1.658  0.3219 -0.3821  0.6976
  948MOL0     N27862   6.767   9.488   1.603 -0.1374 -0.2612  0.3940
  948MOL0     C27863   6.872   9.457   1.679  0.4791  0.2422 -0.8392
  948MOL0     C27864   6.981   9.504   1.609 -0.1984  0.1596  0.1936
  948MOL0     C27865   7.132   9.487   1.653  0.7662  0.5388 -0.4393
  948MOL0     C27866   7.167   9.557   1.790  0.3176  0.0590  1.0351
  948MOL0     C27867   7.164   9.709   1.773 -0.1765 -0.4607 -0.1832
  948MOL0     C27868   7.247   9.766   1.881 -0.0773 -0.1516  0.3068
  948MOL0     O27869   7.388   9.729   1.854 -0.9093 -0.4043  0.2151
  948MOL0     C27870   7.480   9.807   1.925  0.4922  1.4115 -0.3195
  948MOL0     C27871   7.487   9.941   1.936 -0.8247 -0.1393 -0.7149
  948MOL0     C27872   7.592  10.013   2.001  0.4281  0.0992  0.6966
  948MOL0     C27873   7.688   9.944   2.070 -0.6664 -1.1048 -0.5074
  948MOL0     C27874   7.802  10.018   2.123  0.0955 -0.2979  1.1443
  948MOL0     O27875   7.901   9.946   2.167 -0.3837  0.7128 -0.2867
  948MOL0     C27876   8.026  10.009   2.194  0.4508  0.2973  0.4439
  948MOL0     C27877   8.074  10.003   2.320 -0.6607 -0.5909  0.0936
  948MOL0     C27878   8.192  10.068   2.356  0.0709 -0.0543 -0.0995
  948MOL0     C27879   8.265  10.148   2.278 -0.6476 -0.1164 -0.4234
  948MOL0     O27880   8.378  10.210   2.332 -0.7890 -0.1912 -0.5857
  948MOL0     C27881   8.409  10.330   2.269 -0.1822  0.5523 -0.1698
  948MOL0     C27882   8.531  10.314   2.179  0.7953 -0.4229 -0.1158
  948MOL0     C27883   8.657  10.363   2.257  0.1462  0.1730  0.2839
  948MOL0     C27884   8.782  10.357   2.171 -0.2331 -0.6016  0.5732
  948MOL0     C27885   8.895  10.433   2.247  0.4765 -0.3376 -0.5247
  948MOL0     C27886   9.034  10.374   2.232  0.0863 -0.1581  0.4679
  948MOL0     C27887   9.139  10.470   2.288 -0.4799 -0.4789 -0.4997
  948MOL0     C27888   9.274  10.467   2.212 -0.1780 -0.6178 -0.0812
  948MOL0    Cl27889   9.402  10.561   2.295 -0.0126  0.2733 -0.1262
  948MOL0     C27890   8.226  10.145   2.139  0.5477  0.3469 -0.2665
  948MOL0     C27891   8.100  10.082   2.096 -0.4652 -0.3089 -0.1620
  948MOL0     O27892   7.801  10.138   2.118  0.4945 -0.7609 -0.1024
  948MOL0     C27893   7.682   9.808   2.062  0.1185 -0.0056  0.5536
  948MOL0     C27894   7.583   9.730   1.990  0.2761 -1.5745  0.1621
  948MOL0     N27895   6.932   9.566   1.499  0.1697  0.5179  0.0168
  948MOL0     N27896   6.797   9.564   1.497  0.2199 -0.0644  0.9821
  948MOL0     C27897   5.981   9.504   2.310 -1.2786  0.0304  0.5109
  948MOL0     C27898   5.912   9.579   2.400  0.0692 -0.5694 -0.4940
  948MOL0     C27899   5.816   9.931   2.626  0.4535  0.7691  1.0318
  948MOL0     C27900   5.686   9.938   2.657 -0.3107  0.0458 -0.3293
  948MOL0     C27901   5.641  10.014   2.765  0.6375 -0.0465  0.2124
  948MOL0     C27902   5.728  10.079   2.854  0.1889  0.2442 -0.4634
  948MOL0     O27903   5.688  10.139   2.971 -0.5623  0.0253 -0.1952
  948MOL0     C27904   5.551  10.172   3.001  0.2557 -0.2064  0.0920
  948MOL0     C27905   5.523  10.222   3.144  0.4342 -0.2116  0.9379
  948MOL0     C27906   5.373  10.262   3.162  0.2152  0.1800  0.6387
  948MOL0     C27907   5.357  10.297   3.316 -0.1430 -0.2908  0.3882
  948MOL0     C27908   5.216  10.339   3.345  0.0914  0.6621  0.9324
  948MOL0     C27909   5.099  10.360   3.378 -0.9531  0.3517  0.8572
  948MOL0     C27910   5.860  10.064   2.822 -0.5352 -0.2360 -0.0464
  948MOL0     C27911   5.904  10.002   2.708  0.4533  0.4657  0.3660
  948MOL0     C27912   6.053  10.017   2.682  0.5197 -0.4266  0.1692
  948MOL0     H27913   5.692   9.728   2.181  2.1642  0.8448 -1.0347
  948MOL0     H27914   5.779   9.558   2.043 -2.6892 -0.3237  0.6025
  948MOL0     H27915   5.844   9.316   1.991 -1.3721  3.6834  1.4853
  948MOL0     H27916   5.920   9.457   1.934  2.0193 -0.0643 -1.4374
  948MOL0     H27917   5.978   9.226   1.808 -0.2808 -0.5982  0.7563
  948MOL0     H27918   6.042   9.170   1.962  3.4509 -0.4902 -1.3210
  948MOL0     H27919   6.210   9.362   1.943 -2.1685  0.1232  0.6449
  948MOL0     H27920   6.146   9.399   1.785  1.9108  0.4683  0.9268
  948MOL0     H27921   6.249   9.123   1.870  0.6293  0.8719  1.2909
  948MOL0     H27922   6.199   9.169   1.709 -1.8805  1.4199 -0.7409
  948MOL0     H27923   6.441   9.300   1.854  0.2212  1.9090 -1.7008
  948MOL0     H27924   6.460   9.153   1.750  1.0347 -0.0276 -1.1021
  948MOL0     H27925   6.335   9.298   1.574 -3.3613  2.2835  1.8074
  948MOL0     H27926   6.354   9.429   1.671 -0.4108 -0.1656 -0.8484
  948MOL0     H27927   6.533   9.396   1.493 -0.8241 -0.2438  0.2428
  948MOL0     H27928   6.606   9.262   1.584  1.9984  0.4419 -1.2006
  948MOL0     H27929   6.575   9.567   1.655  1.6709  0.4254  2.3129
  948MOL0     H27930   6.634   9.447   1.765 -1.3122 -0.5018  0.8296
  948MOL0     H27931   6.871   9.394   1.767  0.7070 -1.7292 -2.1992
  948MOL0     H27932   7.148   9.381   1.673  0.2448  0.4798 -0.2995
  948MOL0     H27933   7.195   9.513   1.568  0.7000  1.9481 -0.0929
  948MOL0     H27934   7.096   9.517   1.862 -2.2923  0.0912 -1.3601
  948MOL0     H27935   7.270   9.524   1.810  0.1493 -2.0187 -1.0436
  948MOL0     H27936   7.057   9.732   1.780 -0.0160  0.5019 -0.7202
  948MOL0     H27937   7.208   9.742   1.679  0.5946 -1.5314 -0.2119
  948MOL0     H27938   7.223   9.723   1.979  2.3041 -3.0233 -0.2544
  948MOL0     H27939   7.235   9.875   1.887  2.0224  0.2875 -2.0425
  948MOL0     H27940   7.410  10.001   1.890 -0.5863  2.3258  1.7588
  948MOL0     H27941   7.593  10.122   2.004  0.6000  0.1085  0.4132
  948MOL0     H27942   8.033   9.927   2.386  1.1567 -2.3766 -0.7319
  948MOL0     H27943   8.233  10.046   2.454 -0.5285  0.8575  0.3661
  948MOL0     H27944   8.325  10.379   2.219 -1.5750 -0.0599  1.4622
  948MOL0     H27945   8.431  10.406   2.344 -4.1089  2.3589 -0.5677
  948MOL0     H27946   8.540  10.210   2.148  1.5154 -0.0618 -1.2054
  948MOL0     H27947   8.514  10.367   2.084 -1.1348 -1.3363 -0.3326
  948MOL0     H27948   8.644  10.468   2.285  2.0774  0.3341  0.7092
  948MOL0     H27949   8.663  10.309   2.352  0.3252 -1.2657 -0.5186
  948MOL0     H27950   8.759  10.406   2.076 -0.0037 -1.5826 -0.0033
  948MOL0     H27951   8.805  10.252   2.151 -0.6678 -0.8473  1.3202
  948MOL0     H27952   8.869  10.431   2.353 -1.5576 -5.5937 -0.8204
  948MOL0     H27953   8.890  10.533   2.203 -1.6751 -0.6187 -1.0521
  948MOL0     H27954   9.042  10.272   2.270 -1.6987  0.0936  1.5893
  948MOL0     H27955   9.044  10.355   2.124  1.5841  1.4854  0.2651
  948MOL0     H27956   9.161  10.438   2.391 -2.8819  0.1869  0.2898
  948MOL0     H27957   9.112  10.575   2.302  1.7486 -0.1118  1.6120
  948MOL0     H27958   9.312  10.364   2.202 -1.3978 -0.8318 -4.5547
  948MOL0     H27959   9.263  10.517   2.116  2.0189  1.1213  0.4890
  948MOL0     H27960   8.286  10.195   2.063 -0.5222  1.5850 -0.3302
  948MOL0     H27961   8.071  10.078   1.991 -1.0701 -0.3000  0.0004
  948MOL0     H27962   7.762   9.747   2.102  2.0737 -0.4979 -3.6111
  948MOL0     H27963   7.581   9.621   1.991  1.1462 -1.6570  3.4881
  948MOL0     H27964   6.070   9.448   2.337 -0.3662 -0.1250 -2.4511
  948MOL0     H27965   5.942   9.591   2.504 -0.0300 -0.4657 -0.4775
  948MOL0     H27966   5.617   9.865   2.617 -0.1633 -1.1912  1.5357
  948MOL0     H27967   5.535  10.021   2.788  1.2010  1.7897  2.5265
  948MOL0     H27968   5.497  10.078   2.989  0.7527 -0.4746 -0.0818
  948MOL0     H27969   5.509  10.252   2.938  3.2952  2.6217  1.3272
  948MOL0     H27970   5.595  10.302   3.165  0.9929 -0.4281 -0.0919
  948MOL0     H27971   5.541  10.136   3.209  0.9495 -1.2589 -0.5336
  948MOL0     H27972   5.302  10.181   3.141 -1.3315  1.9118 -1.2282
  948MOL0     H27973   5.327  10.335   3.095 -0.3044  0.1137  0.9103
  948MOL0     H27974   5.371  10.208   3.379  0.5876 -0.1920  0.3754
  948MOL0     H27975   5.427  10.377   3.338 -2.3213  2.0843 -0.7899
  948MOL0     H27976   4.993  10.365   3.393 -1.1141 -0.4010  0.0745
  948MOL0     H27977   5.933  10.113   2.886 -1.8740  0.9480  0.6295
  948MOL0     H27978   6.102   9.921   2.702  4.8289  1.1289 -1.7171
  948MOL0     H27979   6.073  10.038   2.576  0.2746 -1.2879 -0.0569
  948MOL0     H27980   6.091  10.103   2.738 -0.9272  1.0400 -0.9916
  949MOL0     O27981   9.684   6.799   9.109 -0.3456 -0.7618 -0.5931
  949MOL0     C27982   9.571   6.746   9.130  0.2693 -0.8367 -0.4775
  949MOL0     O27983   9.547   6.630   9.192 -0.1236  0.2832  0.3814
  949MOL0     C27984   9.640   6.589   9.271  0.1382  0.1965 -0.4296
  949MOL0     C27985   9.652   6.450   9.279 -0.3854 -0.5737 -0.3172
  949MOL0     C27986   9.744   6.382   9.370  0.0010 -0.5078 -0.5840
  949MOL0     C27987   9.831   6.462   9.443 -0.4805 -0.3495 -0.2123
  949MOL0     O27988   9.929   6.395   9.508  1.0175 -0.5927  0.1081
  949MOL0     C27989  10.053   6.470   9.502 -0.4458  0.8562 -0.4232
  949MOL0     C27990  10.168   6.377   9.518  0.0519 -0.1997 -0.6442
  949MOL0     C27991  10.293   6.432   9.459 -0.1472 -0.8027  1.0181
  949MOL0     C27992  10.406   6.349   9.513 -0.8733  0.0145 -0.3034
  949MOL0     C27993  10.537   6.385   9.427  0.3748  0.0563 -0.6416
  949MOL0     C27994  10.654   6.327   9.502 -0.1426  0.6420  0.9493
  949MOL0     C27995  10.783   6.347   9.418  0.1428  0.8543  0.0065
  949MOL0     C27996  10.889   6.256   9.493  0.9827  0.3301  0.0377
  949MOL0     N27997  11.021   6.286   9.437 -1.1640  0.0499  0.0689
  949MOL0     C27998  11.063   6.257   9.304 -0.7383  0.0574 -0.2638
  949MOL0     C27999  11.196   6.300   9.310  0.4260  0.7709 -0.2160
  949MOL0     C28000  11.284   6.309   9.185  0.2064 -0.1923  0.5131
  949MOL0     C28001  11.419   6.250   9.209  0.1787 -0.4257  0.4466
  949MOL0     C28002  11.505   6.269   9.077 -0.1261 -0.6357 -0.6766
  949MOL0     C28003  11.655   6.255   9.093  1.5093  0.0332 -0.1852
  949MOL0     O28004  11.700   6.114   9.118  0.3656  0.1671  0.6094
  949MOL0     C28005  11.640   6.016   9.040 -0.2675  0.6714 -1.2676
  949MOL0     C28006  11.620   5.903   9.109 -0.0175  0.9272  0.6555
  949MOL0     C28007  11.572   5.791   9.050 -0.6330  0.1296 -0.1699
  949MOL0     C28008  11.544   5.796   8.908  0.3081 -0.1324  0.1996
  949MOL0     C28009  11.495   5.676   8.829  0.3979  0.3301  1.0419
  949MOL0     O28010  11.451   5.575   8.901  0.0921 -0.2895  0.2471
  949MOL0     C28011  11.433   5.453   8.841 -0.2870 -0.1140  0.5324
  949MOL0     C28012  11.528   5.398   8.746  0.5532 -0.5533  0.5175
  949MOL0     C28013  11.511   5.268   8.695 -0.0909  0.5052  0.4297
  949MOL0     C28014  11.403   5.190   8.740  0.4578 -0.6228  0.2344
  949MOL0     O28015  11.385   5.060   8.713 -0.4466  0.4382 -0.4317
  949MOL0     C28016  11.491   4.979   8.657 -0.0676  0.6507  0.5682
  949MOL0     C28017  11.418   4.855   8.606 -0.3956  0.8423 -0.2941
  949MOL0     C28018  11.511   4.744   8.559  0.7606 -0.5188  0.7049
  949MOL0     C28019  11.561   4.657   8.678 -0.0768  0.3400 -0.3157
  949MOL0     C28020  11.672   4.565   8.651  0.4136 -0.0921  0.9663
  949MOL0     C28021  11.735   4.529   8.781 -0.4189 -0.2863 -1.3675
  949MOL0     C28022  11.852   4.427   8.773  0.6524 -0.8902 -0.2098
  949MOL0     C28023  11.951   4.411   8.897  0.8101  0.4287  0.2581
  949MOL0    Cl28024  12.087   4.306   8.855 -0.0574  0.1891  0.2364
  949MOL0     C28025  11.310   5.247   8.817  0.0255  0.0502 -0.1337
  949MOL0     C28026  11.318   5.377   8.864 -0.2492  0.8740  0.7512
  949MOL0     O28027  11.505   5.677   8.704  0.2763 -0.0371 -0.0666
  949MOL0     C28028  11.574   5.917   8.831 -0.8592  0.3403  0.4698
  949MOL0     C28029  11.620   6.031   8.900  0.3713 -0.4711  0.0241
  949MOL0     N28030  11.227   6.334   9.437  0.1513 -0.0381 -0.2972
  949MOL0     N28031  11.128   6.332   9.512 -0.2704 -0.5165  0.4769
  949MOL0     C28032   9.810   6.603   9.450 -0.1391 -0.2646 -0.0837
  949MOL0     C28033   9.708   6.660   9.365 -0.1019 -0.3353  0.1042
  949MOL0     C28034   9.452   6.813   9.084 -0.2795 -0.4841  0.2181
  949MOL0     C28035   9.342   6.740   9.052  0.4074 -0.3147 -0.1658
  949MOL0     C28036   9.220   6.800   9.011 -1.0814 -0.3757  0.0504
  949MOL0     C28037   9.206   6.938   8.997  0.1881  0.2120 -1.2521
  949MOL0     O28038   9.078   6.988   8.967 -0.2890  0.5554  0.2396
  949MOL0     C28039   9.074   7.108   8.889 -0.1535  0.0586 -0.1156
  949MOL0     C28040   8.930   7.165   8.844 -0.5886  0.1409  0.4074
  949MOL0     C28041   8.832   7.194   8.950  0.0885 -0.5248  0.0022
  949MOL0     C28042   8.704   7.264   8.882  0.0556 -0.1108  0.1261
  949MOL0     C28043   8.609   7.324   8.977  0.1716  0.8385 -0.3700
  949MOL0     C28044   8.520   7.370   9.042 -0.5999 -0.4011  0.2295
  949MOL0     C28045   9.323   7.012   9.009 -1.0392  0.0366 -0.1566
  949MOL0     C28046   9.447   6.954   9.053  0.9017  0.3358 -0.0182
  949MOL0     C28047   9.559   7.052   9.077 -1.0699  0.5459  0.0690
  949MOL0     H28048   9.592   6.389   9.212  0.2454 -1.9033  0.2715
  949MOL0     H28049   9.756   6.275   9.382 -1.3716 -0.5914  0.3417
  949MOL0     H28050  10.057   6.508   9.399  0.1976 -0.2493 -0.8335
  949MOL0     H28051  10.056   6.552   9.574 -0.7527 -0.3089  0.9557
  949MOL0     H28052  10.151   6.278   9.474  2.2700 -0.4662 -1.0119
  949MOL0     H28053  10.172   6.360   9.626  0.1933  2.7356 -0.1125
  949MOL0     H28054  10.319   6.534   9.490  1.2479 -1.7095  3.1073
  949MOL0     H28055  10.275   6.434   9.351  1.5911  1.2202  0.7076
  949MOL0     H28056  10.431   6.378   9.615 -0.8108  1.2202 -0.6426
  949MOL0     H28057  10.386   6.242   9.522  1.2939 -0.3773  0.3255
  949MOL0     H28058  10.523   6.345   9.326  0.3251  0.5673 -0.8435
  949MOL0     H28059  10.543   6.494   9.414 -1.6463  0.3149  0.2224
  949MOL0     H28060  10.666   6.384   9.594 -3.0915 -0.9961  2.5186
  949MOL0     H28061  10.640   6.221   9.525  0.0495  0.3544 -0.2056
  949MOL0     H28062  10.812   6.452   9.417 -0.6595  1.0811 -0.1971
  949MOL0     H28063  10.754   6.319   9.316 -1.5784  1.6437  0.2391
  949MOL0     H28064  10.887   6.280   9.600  0.9285 -0.9962  0.3605
  949MOL0     H28065  10.870   6.149   9.479 -0.5801  0.8559 -2.1527
  949MOL0     H28066  11.002   6.219   9.223 -0.8023  2.2778 -1.3304
  949MOL0     H28067  11.230   6.258   9.105 -2.4377  1.7254  0.9156
  949MOL0     H28068  11.310   6.411   9.154 -0.2336 -0.1205  0.3673
  949MOL0     H28069  11.465   6.299   9.296  2.4993 -0.1254 -0.8732
  949MOL0     H28070  11.406   6.144   9.231 -0.2931 -0.4169  0.2188
  949MOL0     H28071  11.487   6.366   9.030 -3.1279 -1.5797 -1.6981
  949MOL0     H28072  11.462   6.200   9.004 -0.9402 -0.1804 -0.6369
  949MOL0     H28073  11.687   6.319   9.176 -0.0139 -1.1097  1.3677
  949MOL0     H28074  11.686   6.302   9.000  1.8127 -2.5679 -1.4828
  949MOL0     H28075  11.629   5.892   9.217 -0.0922 -3.0103  0.3780
  949MOL0     H28076  11.554   5.704   9.112 -3.2029 -0.7382 -1.9514
  949MOL0     H28077  11.614   5.461   8.728 -0.0373  0.6965  1.8294
  949MOL0     H28078  11.580   5.224   8.623 -0.8925  1.6067 -1.0800
  949MOL0     H28079  11.550   5.028   8.579  2.4872  0.2267  2.1024
  949MOL0     H28080  11.562   4.954   8.736 -0.1623  3.5742  1.6767
  949MOL0     H28081  11.349   4.814   8.680  3.0953 -1.0083  2.2504
  949MOL0     H28082  11.355   4.886   8.522 -1.4083  0.6889  0.3937
  949MOL0     H28083  11.452   4.692   8.483  2.2959  1.5965 -2.1573
  949MOL0     H28084  11.596   4.785   8.503  0.6980  3.5899  3.2284
  949MOL0     H28085  11.482   4.601   8.729  0.4077 -0.9342 -0.9032
  949MOL0     H28086  11.617   4.726   8.742 -0.5279 -1.0931  1.7378
  949MOL0     H28087  11.748   4.607   8.586 -2.2599  5.7060  0.9301
  949MOL0     H28088  11.625   4.479   8.602 -0.7783  0.8086  0.4670
  949MOL0     H28089  11.765   4.623   8.829  0.3364 -1.0500 -0.2709
  949MOL0     H28090  11.663   4.485   8.850  0.7607 -0.2175 -0.0336
  949MOL0     H28091  11.923   4.480   8.708  2.5481  0.5219  2.7779
  949MOL0     H28092  11.811   4.337   8.728  1.6074 -0.9241 -1.0564
  949MOL0     H28093  11.987   4.509   8.930  1.6693 -0.2716  1.4190
  949MOL0     H28094  11.901   4.365   8.982  1.0119 -3.6370 -1.6061
  949MOL0     H28095  11.231   5.183   8.854  2.0172 -2.0562  0.7923
  949MOL0     H28096  11.237   5.408   8.930 -0.4601  0.5170  0.6616
  949MOL0     H28097  11.554   5.926   8.725  1.4440 -1.8145 -0.2504
  949MOL0     H28098  11.649   6.123   8.851  0.8188  0.2334  1.5470
  949MOL0     H28099   9.880   6.663   9.507  1.5038 -1.5026 -0.6985
  949MOL0     H28100   9.671   6.760   9.385 -0.4341 -0.2449 -0.8722
  949MOL0     H28101   9.345   6.633   9.069 -2.0105 -0.3135  0.6841
  949MOL0     H28102   9.126   6.750   8.989 -2.9986  3.1349 -0.6195
  949MOL0     H28103   9.122   7.097   8.792  2.5212 -0.1465  1.1575
  949MOL0     H28104   9.112   7.185   8.957  0.1814 -1.9761  2.1444
  949MOL0     H28105   8.889   7.095   8.771  4.3803 -1.8590 -0.8828
  949MOL0     H28106   8.945   7.249   8.776 -1.4450 -0.2879 -0.3245
  949MOL0     H28107   8.877   7.260   9.024 -3.1690  3.3708 -1.1104
  949MOL0     H28108   8.805   7.107   9.012  4.1106  0.7094  4.0386
  949MOL0     H28109   8.744   7.345   8.820  0.7715  1.3768  2.3558
  949MOL0     H28110   8.646   7.187   8.831  2.9274 -3.3714  1.3726
  949MOL0     H28111   8.437   7.416   9.093  0.6789  3.0408 -0.5472
  949MOL0     H28112   9.315   7.120   9.014 -0.1190  0.0630  1.4281
  949MOL0     H28113   9.660   7.015   9.053  0.1697  1.5767  3.1985
  949MOL0     H28114   9.552   7.141   9.014  0.1969 -0.2368 -1.2439
  949MOL0     H28115   9.566   7.080   9.182 -0.6338  0.8103 -0.0285
  950MOL0     O28116   1.485   6.433   9.363 -0.7114 -0.5386 -0.1624
  950MOL0     C28117   1.441   6.420   9.246 -0.3435  0.0504  0.3509
  950MOL0     O28118   1.475   6.311   9.164  0.4723  0.1763  0.2683
  950MOL0     C28119   1.579   6.235   9.199 -0.8562  1.2419  0.8312
  950MOL0     C28120   1.549   6.098   9.191 -1.2173 -0.2964 -0.5960
  950MOL0     C28121   1.637   6.001   9.241 -1.2949  0.6012 -0.1743
  950MOL0     C28122   1.765   6.035   9.262 -0.8504 -0.2323 -0.8038
  950MOL0     O28123   1.842   5.936   9.313 -0.5395  0.3967  0.7892
  950MOL0     C28124   1.965   5.958   9.384 -0.4514  0.7256  0.8804
  950MOL0     C28125   2.092   5.960   9.288 -0.7773  0.4812  0.4346
  950MOL0     C28126   2.207   5.938   9.384 -0.4453  0.8001 -0.0341
  950MOL0     C28127   2.348   5.956   9.327  0.6180  0.1498 -0.5860
  950MOL0     C28128   2.446   5.969   9.445 -0.7853  0.5206  0.1189
  950MOL0     C28129   2.584   5.948   9.387 -0.0469 -0.2013 -0.1325
  950MOL0     C28130   2.690   5.933   9.495 -0.7124  0.5916  0.5348
  950MOL0     C28131   2.804   6.037   9.483  0.3767  0.1767  0.5459
  950MOL0     N28132   2.931   5.988   9.546 -0.3437 -0.3985 -0.1265
  950MOL0     C28133   3.057   6.042   9.524  0.0490 -0.6298 -0.4068
  950MOL0     C28134   3.135   5.986   9.616  0.4732  0.0291  0.0296
  950MOL0     C28135   3.282   6.008   9.603 -0.1799  0.0949  0.4094
  950MOL0     C28136   3.354   5.917   9.495 -0.4956 -0.1026  0.9038
  950MOL0     C28137   3.385   5.986   9.359  0.5044  0.1908  0.8313
  950MOL0     C28138   3.517   6.070   9.367  0.2420  0.0286 -0.3087
  950MOL0     O28139   3.638   5.987   9.355  0.3052  0.5085  0.1135
  950MOL0     C28140   3.757   6.033   9.303 -0.7163  0.0606  0.1410
  950MOL0     C28141   3.768   6.168   9.262  0.3763  0.3784 -0.2504
  950MOL0     C28142   3.893   6.214   9.221 -0.1590  0.3864  0.0760
  950MOL0     C28143   4.007   6.128   9.225  0.3595 -0.5507 -0.4069
  950MOL0     C28144   4.146   6.173   9.205 -0.0659 -0.1213  0.2300
  950MOL0     O28145   4.245   6.078   9.216 -0.7498 -0.2920  0.9758
  950MOL0     C28146   4.377   6.124   9.206  0.3051 -0.3939  0.0324
  950MOL0     C28147   4.425   6.221   9.301  0.2301  0.7010  0.2907
  950MOL0     C28148   4.559   6.246   9.302 -0.4153 -0.0171  0.0551
  950MOL0     C28149   4.654   6.179   9.220 -0.3636  0.7681  0.3055
  950MOL0     O28150   4.793   6.191   9.215 -0.9176 -0.7209 -0.1686
  950MOL0     C28151   4.861   6.301   9.272  0.0826 -0.8091  0.0369
  950MOL0     C28152   4.996   6.316   9.195  0.5552 -0.1275  0.1631
  950MOL0     C28153   5.083   6.433   9.242  0.9010 -0.5898 -0.7504
  950MOL0     C28154   5.098   6.547   9.143  0.2419  0.4775  0.6155
  950MOL0     C28155   5.179   6.674   9.187 -0.7726  0.5381  0.4771
  950MOL0     C28156   5.099   6.798   9.227 -0.0032 -0.1170  0.4614
  950MOL0     C28157   5.191   6.911   9.265 -0.0943  0.6227 -0.2343
  950MOL0     C28158   5.122   7.037   9.329 -0.5533 -0.4102  0.2342
  950MOL0    Cl28159   5.254   7.151   9.388 -0.2930 -0.2909  0.0695
  950MOL0     C28160   4.605   6.090   9.120  0.2053  0.5162  0.6659
  950MOL0     C28161   4.459   6.064   9.118 -0.4290  0.0759 -0.1735
  950MOL0     O28162   4.160   6.287   9.157 -0.3712 -0.8167  0.3908
  950MOL0     C28163   3.990   5.990   9.264 -0.5422  0.4058 -0.6652
  950MOL0     C28164   3.869   5.947   9.301  0.2309 -0.4505  0.7008
  950MOL0     N28165   3.063   5.894   9.687 -1.7166  0.0728 -0.2017
  950MOL0     N28166   2.940   5.904   9.651  0.2881  0.7274  0.0681
  950MOL0     C28167   1.799   6.166   9.260 -0.5146 -1.3430 -0.9784
  950MOL0     C28168   1.712   6.269   9.223 -0.1261 -0.0149  0.5455
  950MOL0     C28169   1.346   6.522   9.194  0.2114  0.0764  0.4115
  950MOL0     C28170   1.340   6.555   9.052  0.3691 -0.4708  0.0775
  950MOL0     C28171   1.248   6.648   9.004 -0.0314 -0.9034  0.5811
  950MOL0     C28172   1.165   6.712   9.091  1.3194 -0.4641 -0.1209
  950MOL0     O28173   1.065   6.805   9.058 -0.0083 -0.2516  0.5005
  950MOL0     C28174   1.048   6.848   8.920 -1.0763  0.4529 -0.0965
  950MOL0     C28175   1.150   6.937   8.863 -0.1451  0.5051 -0.5402
  950MOL0     C28176   1.151   6.964   8.710  0.1576 -0.4748 -0.4814
  950MOL0     C28177   1.219   6.838   8.647  0.0774  0.1681  0.9892
  950MOL0     C28178   1.366   6.811   8.693  0.2109 -0.2452  0.0477
  950MOL0     C28179   1.470   6.751   8.732  0.5780  0.0493  0.6432
  950MOL0     C28180   1.177   6.695   9.225  0.3175 -0.1483  0.1183
  950MOL0     C28181   1.250   6.594   9.277 -1.1224 -0.3553 -0.0578
  950MOL0     C28182   1.233   6.577   9.431 -0.5081  0.0116  0.6594
  950MOL0     H28183   1.448   6.067   9.169 -1.2161 -2.8429  2.2867
  950MOL0     H28184   1.606   5.898   9.231  0.5781  0.0563 -0.8387
  950MOL0     H28185   1.953   6.036   9.459  1.0672 -0.3324  2.3057
  950MOL0     H28186   1.988   5.870   9.445  3.2975  1.8067  1.2471
  950MOL0     H28187   2.098   6.052   9.230  0.8574  2.0968  3.0103
  950MOL0     H28188   2.095   5.875   9.219  2.8930  2.5540 -2.3283
  950MOL0     H28189   2.206   5.833   9.415  1.9669  0.9129  0.5902
  950MOL0     H28190   2.193   6.003   9.471  0.9349  1.0404  0.0196
  950MOL0     H28191   2.365   5.868   9.264  0.3848  0.4101 -1.0203
  950MOL0     H28192   2.335   6.040   9.258 -1.4335 -0.9310 -1.6324
  950MOL0     H28193   2.435   6.069   9.487 -0.0035  1.1005 -0.9896
  950MOL0     H28194   2.429   5.888   9.517  1.2489 -1.4366 -1.4420
  950MOL0     H28195   2.586   5.854   9.332  0.7547 -0.3538  0.1469
  950MOL0     H28196   2.608   6.029   9.318 -2.0657  1.2537  0.7608
  950MOL0     H28197   2.738   5.836   9.482 -2.6800 -0.4173  0.3505
  950MOL0     H28198   2.645   5.943   9.595  0.4367  1.3536  0.9949
  950MOL0     H28199   2.823   6.059   9.378 -6.3744  0.7337 -0.9808
  950MOL0     H28200   2.769   6.132   9.525 -1.5692 -0.2850  0.0753
  950MOL0     H28201   3.081   6.122   9.454  0.4106  0.3690  0.8159
  950MOL0     H28202   3.304   6.115   9.590 -1.5398  0.2125 -1.2533
  950MOL0     H28203   3.327   5.981   9.699 -0.6677 -3.5715 -0.2720
  950MOL0     H28204   3.447   5.875   9.535 -0.4047 -0.9529 -0.1635
  950MOL0     H28205   3.296   5.826   9.476  0.3230 -0.5122  0.2812
  950MOL0     H28206   3.296   6.041   9.327 -0.2689 -1.4632  0.0680
  950MOL0     H28207   3.408   5.911   9.282  2.1724 -0.1164  1.5830
  950MOL0     H28208   3.527   6.123   9.462  2.6148 -0.2098 -0.3732
  950MOL0     H28209   3.501   6.135   9.280 -2.4068 -2.0494 -1.5083
  950MOL0     H28210   3.683   6.235   9.254  0.4652  0.4841 -0.3142
  950MOL0     H28211   3.903   6.320   9.198 -0.7325 -0.0786 -2.5466
  950MOL0     H28212   4.372   6.262   9.387  2.3203 -0.4369  2.2203
  950MOL0     H28213   4.594   6.318   9.376  0.3865 -1.0970  0.7509
  950MOL0     H28214   4.806   6.394   9.254 -2.1195 -1.4351  2.7627
  950MOL0     H28215   4.856   6.296   9.381 -0.3427  0.1660  0.0746
  950MOL0     H28216   5.052   6.222   9.207  3.9593  0.9575 -4.3147
  950MOL0     H28217   4.981   6.328   9.087  1.6904  0.5413  0.0601
  950MOL0     H28218   5.041   6.472   9.336 -0.8636  0.4945 -1.9200
  950MOL0     H28219   5.180   6.386   9.255  0.4940 -0.8868  1.7033
  950MOL0     H28220   4.996   6.579   9.124  0.0125 -1.8388 -3.0588
  950MOL0     H28221   5.133   6.513   9.045  0.4079 -0.3959  0.9688
  950MOL0     H28222   5.246   6.699   9.105 -0.9959  0.0043  0.1250
  950MOL0     H28223   5.245   6.635   9.265 -1.7418 -1.3515  0.4214
  950MOL0     H28224   5.030   6.825   9.147  0.7770  3.4040  0.8220
  950MOL0     H28225   5.034   6.772   9.311 -1.5403 -1.9784 -1.2108
  950MOL0     H28226   5.245   6.936   9.173  0.6004  2.3208  0.5901
  950MOL0     H28227   5.263   6.875   9.339  0.5059  4.3367  1.2341
  950MOL0     H28228   5.062   7.089   9.254  0.3335  1.2635  0.6295
  950MOL0     H28229   5.062   7.014   9.417 -1.0066  0.7812  0.2616
  950MOL0     H28230   4.681   6.042   9.058  0.3578 -0.9383  1.9427
  950MOL0     H28231   4.435   5.995   9.038  0.1953  0.2470 -0.5210
  950MOL0     H28232   4.073   5.922   9.278 -0.9213 -0.0146 -0.4491
  950MOL0     H28233   3.849   5.850   9.346  0.0549 -0.6980  0.0867
  950MOL0     H28234   1.900   6.190   9.290 -0.9650 -0.8370  0.2408
  950MOL0     H28235   1.740   6.374   9.227  0.0116 -0.0170 -0.1834
  950MOL0     H28236   1.411   6.514   8.982  0.0836  1.6474 -1.5473
  950MOL0     H28237   1.249   6.684   8.902 -2.1533 -0.9038  0.5182
  950MOL0     H28238   0.947   6.890   8.911 -2.4064 -1.9959  1.9277
  950MOL0     H28239   1.038   6.760   8.855 -3.2589  0.5029  0.0983
  950MOL0     H28240   1.245   6.896   8.899  0.0483 -0.9909 -2.6073
  950MOL0     H28241   1.132   7.033   8.914 -2.4999  0.4665 -1.1723
  950MOL0     H28242   1.205   7.054   8.683 -3.5439  0.9651 -4.1060
  950MOL0     H28243   1.046   6.982   8.683  0.0571  0.0556  0.2263
  950MOL0     H28244   1.168   6.744   8.669  0.3859  0.2209  1.9605
  950MOL0     H28245   1.230   6.845   8.538  0.7614  0.4124  1.0715
  950MOL0     H28246   1.548   6.700   8.786 -0.2176  0.8571  2.6772
  950MOL0     H28247   1.113   6.757   9.287  0.0337  0.8080 -1.0927
  950MOL0     H28248   1.247   6.471   9.456  0.7147 -0.5728 -2.0844
  950MOL0     H28249   1.306   6.647   9.475 -0.6511 -0.3187  1.4381
  950MOL0     H28250   1.134   6.603   9.469  0.7836  1.6016  3.2324
  951MOL0     O28251  10.858   0.483   2.815 -0.1031 -0.5393  0.1315
  951MOL0     C28252  10.886   0.533   2.929 -0.2368  0.6868 -0.8201
  951MOL0     O28253  10.798   0.605   3.014 -0.2535  0.6069 -0.7246
  951MOL0     C28254  10.685   0.661   2.968  0.6587  0.3493  0.2871
  951MOL0     C28255  10.634   0.663   2.839 -0.4771  0.9612 -0.2064
  951MOL0     C28256  10.502   0.717   2.819  0.2492  0.4767 -0.9486
  951MOL0     C28257  10.416   0.744   2.924  0.1168 -0.6946 -0.5775
  951MOL0     O28258  10.279   0.785   2.915 -0.2813  0.4787  0.5843
  951MOL0     C28259  10.215   0.793   2.792 -0.4135 -0.8276  0.7594
  951MOL0     C28260  10.186   0.665   2.730 -0.1530  0.1593 -0.3116
  951MOL0     C28261  10.133   0.555   2.835  0.8456 -0.3252 -1.2235
  951MOL0     C28262  10.007   0.613   2.901 -0.0221 -0.6819 -0.2944
  951MOL0     C28263   9.896   0.509   2.931  0.6629  0.0762  0.3252
  951MOL0     C28264   9.793   0.573   3.032  0.8537  1.3826  0.0031
  951MOL0     C28265   9.724   0.463   3.115  0.0627 -0.4520 -0.3981
  951MOL0     C28266   9.660   0.522   3.242  0.5031  0.3622  0.1677
  951MOL0     N28267   9.607   0.415   3.325 -0.9234 -0.8162  0.4414
  951MOL0     C28268   9.688   0.317   3.374  0.4452 -0.8053  0.4385
  951MOL0     C28269   9.601   0.234   3.433 -0.4405 -0.9996 -0.7121
  951MOL0     C28270   9.643   0.109   3.517 -0.0687 -0.3912  0.3022
  951MOL0     C28271   9.535   0.004   3.504 -0.2714  0.8543  0.1352
  951MOL0     C28272   9.593  -0.144   3.547 -0.2742  0.6164  1.0653
  951MOL0     C28273   9.486  -0.247   3.526  0.2282 -0.0400 -0.7173
  951MOL0     O28274   9.413  -0.253   3.652  0.1507 -0.6032  0.2951
  951MOL0     C28275   9.288  -0.314   3.648  0.2641 -0.6139 -0.1652
  951MOL0     C28276   9.212  -0.347   3.540  0.2297  0.7634  0.5095
  951MOL0     C28277   9.081  -0.407   3.548  0.5214 -0.3563 -0.1678
  951MOL0     C28278   9.015  -0.404   3.669  0.0402  0.4679 -0.4803
  951MOL0     C28279   8.879  -0.471   3.679 -0.1858 -0.4067 -0.2831
  951MOL0     O28280   8.792  -0.471   3.566 -0.6030  1.0161 -0.8759
  951MOL0     C28281   8.670  -0.528   3.586 -0.5014 -0.7367 -0.5286
  951MOL0     C28282   8.621  -0.592   3.478  0.2823 -0.7837 -0.1867
  951MOL0     C28283   8.482  -0.620   3.463 -0.4644 -0.0969  0.6188
  951MOL0     C28284   8.394  -0.608   3.570 -0.3687 -0.8625  0.2715
  951MOL0     O28285   8.256  -0.621   3.562  0.7185  0.4229  0.8565
  951MOL0     C28286   8.200  -0.681   3.438 -0.5215  0.3554  0.9925
  951MOL0     C28287   8.053  -0.721   3.461 -1.4645 -0.6474  0.5537
  951MOL0     C28288   8.034  -0.819   3.579  0.2643 -0.1108 -0.8445
  951MOL0     C28289   7.887  -0.854   3.620  0.0558 -0.3385  0.0969
  951MOL0     C28290   7.803  -0.878   3.492  0.8220  0.4158  0.4032
  951MOL0     C28291   7.654  -0.919   3.522  0.0149  0.1497 -0.4878
  951MOL0     C28292   7.582  -0.945   3.388 -0.4657  0.1914  0.7707
  951MOL0     C28293   7.433  -0.947   3.399  0.4311  0.2983 -0.1217
  951MOL0    Cl28294   7.369  -0.789   3.438 -0.1927  0.4501 -0.7322
  951MOL0     C28295   8.451  -0.550   3.684  0.2081  0.0091 -0.5802
  951MOL0     C28296   8.584  -0.506   3.686  0.0099 -0.5124 -0.8264
  951MOL0     O28297   8.871  -0.544   3.782  0.3981  0.0753 -0.4054
  951MOL0     C28298   9.093  -0.373   3.784  0.6833  1.4546 -0.0882
  951MOL0     C28299   9.227  -0.324   3.773 -0.2070  0.8882  0.9280
  951MOL0     N28300   9.471   0.273   3.393 -0.1011 -0.8803  0.0580
  951MOL0     N28301   9.475   0.385   3.330  0.0186  0.1964  0.8178
  951MOL0     C28302  10.470   0.731   3.052  0.8702 -0.8941  0.1555
  951MOL0     C28303  10.596   0.698   3.072  0.4535  0.0713  0.1829
  951MOL0     C28304  11.030   0.521   2.988 -1.1329 -0.2247  0.2015
  951MOL0     C28305  11.063   0.591   3.104  0.0637  0.1477  0.3577
  951MOL0     C28306  11.189   0.598   3.149 -0.1252 -0.0436  0.4955
  951MOL0     C28307  11.290   0.531   3.087 -0.3144  0.0949 -0.1106
  951MOL0     O28308  11.419   0.552   3.128  0.7014 -1.2405 -0.3325
  951MOL0     C28309  11.523   0.470   3.081  0.9527  0.8762 -0.5680
  951MOL0     C28310  11.662   0.510   3.138 -0.0280  0.0521  1.4545
  951MOL0     C28311  11.685   0.468   3.279  0.4002  0.1019 -0.6805
  951MOL0     C28312  11.834   0.464   3.299  0.1991  0.2707 -0.0742
  951MOL0     C28313  11.902   0.596   3.303  0.0871  0.3508  0.0624
  951MOL0     C28314  11.969   0.691   3.298 -0.5669 -0.5259  0.3997
  951MOL0     C28315  11.261   0.446   2.982  1.4088  0.2671  0.3343
  951MOL0     C28316  11.128   0.436   2.934  0.8705 -0.9120  0.1553
  951MOL0     C28317  11.101   0.327   2.833  0.5615 -0.0179 -0.6153
  951MOL0     H28318  10.698   0.631   2.757  1.1053  1.0083  0.9603
  951MOL0     H28319  10.466   0.724   2.716  0.9302 -0.4809 -1.2637
  951MOL0     H28320  10.116   0.833   2.814 -2.7388 -5.7085  0.4556
  951MOL0     H28321  10.268   0.857   2.720 -1.0011 -0.4302  0.6715
  951MOL0     H28322  10.277   0.627   2.684  1.9134  3.2437  0.9480
  951MOL0     H28323  10.110   0.686   2.654 -0.9907  0.2138  0.5190
  951MOL0     H28324  10.207   0.525   2.910  0.0929 -2.8028 -1.3915
  951MOL0     H28325  10.096   0.474   2.771 -1.1488  0.2757 -0.8984
  951MOL0     H28326  10.049   0.650   2.995  0.5262  0.1556 -0.8583
  951MOL0     H28327   9.972   0.698   2.842  1.9366 -0.9600 -1.9330
  951MOL0     H28328   9.854   0.471   2.837  0.9581  0.3774  0.0698
  951MOL0     H28329   9.955   0.426   2.971  3.9166  0.4784 -3.0649
  951MOL0     H28330   9.849   0.628   3.109 -1.7380  1.4049  1.9999
  951MOL0     H28331   9.719   0.631   2.976  0.8430  0.5051 -0.9053
  951MOL0     H28332   9.804   0.393   3.142 -1.1845 -1.8359 -0.1721
  951MOL0     H28333   9.645   0.414   3.057 -0.1946  0.6676 -1.0374
  951MOL0     H28334   9.738   0.566   3.305  2.1721 -2.0843 -0.0445
  951MOL0     H28335   9.583   0.594   3.213 -0.4260 -0.0430  1.5447
  951MOL0     H28336   9.794   0.336   3.386  0.4198 -0.9471  0.9068
  951MOL0     H28337   9.734   0.063   3.480  1.7597  2.3705  1.0644
  951MOL0     H28338   9.666   0.122   3.623  1.1533  0.5822 -0.0687
  951MOL0     H28339   9.462   0.026   3.582  1.1231 -2.7567  2.7416
  951MOL0     H28340   9.487   0.008   3.406  3.4981  1.6264 -1.9048
  951MOL0     H28341   9.623  -0.135   3.652  1.2298 -0.5922  0.7849
  951MOL0     H28342   9.675  -0.167   3.478 -1.5342  0.1064 -0.3065
  951MOL0     H28343   9.532  -0.345   3.509  3.8671  1.5106 -0.6591
  951MOL0     H28344   9.421  -0.224   3.441 -2.5119 -0.6320  1.0944
  951MOL0     H28345   9.260  -0.342   3.443  0.7853 -0.4972  0.7065
  951MOL0     H28346   9.028  -0.434   3.457 -0.8309  0.7700  0.2531
  951MOL0     H28347   8.695  -0.600   3.399 -0.9649  0.2764 -1.5186
  951MOL0     H28348   8.445  -0.653   3.366 -1.4350  0.9716  0.6000
  951MOL0     H28349   8.210  -0.616   3.351 -1.1808 -3.2587 -2.0821
  951MOL0     H28350   8.243  -0.780   3.417 -3.0939 -1.9363  5.1579
  951MOL0     H28351   7.993  -0.630   3.463  1.0198  1.1198 -0.0210
  951MOL0     H28352   8.022  -0.778   3.373 -1.6920 -1.0638  0.9005
  951MOL0     H28353   8.086  -0.910   3.549 -1.5153 -0.7774 -2.0372
  951MOL0     H28354   8.094  -0.773   3.659  2.0773  1.3692 -2.9251
  951MOL0     H28355   7.841  -0.771   3.675 -0.0395 -0.6432  0.4866
  951MOL0     H28356   7.879  -0.941   3.686 -0.1724 -0.9716 -0.7426
  951MOL0     H28357   7.840  -0.955   3.424 -2.8738 -0.4988 -0.8441
  951MOL0     H28358   7.787  -0.790   3.428 -2.2138 -2.1056 -2.7097
  951MOL0     H28359   7.658  -1.009   3.583  2.5612  0.3654 -0.2426
  951MOL0     H28360   7.603  -0.840   3.578  2.1499 -0.0626  1.9218
  951MOL0     H28361   7.619  -1.043   3.356  2.0061  0.4989  2.3661
  951MOL0     H28362   7.614  -0.864   3.321  0.9532  1.0797  2.4559
  951MOL0     H28363   7.381  -0.989   3.313  0.5168 -1.7763  0.7881
  951MOL0     H28364   7.413  -1.005   3.490  0.0402  3.9018  2.3340
  951MOL0     H28365   8.391  -0.546   3.774  0.7313 -0.7986 -0.1856
  951MOL0     H28366   8.635  -0.469   3.775 -1.3556 -1.1627  0.2743
  951MOL0     H28367   9.031  -0.369   3.874 -2.3416 -0.8133 -1.8714
  951MOL0     H28368   9.276  -0.287   3.862 -0.5274  1.5599  0.8386
  951MOL0     H28369  10.416   0.770   3.138  0.2449 -0.3420 -0.4672
  951MOL0     H28370  10.635   0.707   3.173  1.2153  2.0793 -0.2362
  951MOL0     H28371  10.984   0.639   3.161 -1.5095 -0.3165 -1.3301
  951MOL0     H28372  11.209   0.663   3.234  1.4527 -1.4336  1.2610
  951MOL0     H28373  11.529   0.463   2.972  1.8021  1.7434 -0.5932
  951MOL0     H28374  11.502   0.367   3.111  0.7018 -0.4481 -4.6498
  951MOL0     H28375  11.677   0.617   3.122 -0.9646 -0.0837 -0.6328
  951MOL0     H28376  11.726   0.442   3.081 -1.3620 -1.0192  1.1758
  951MOL0     H28377  11.634   0.374   3.303  2.9487 -1.1466  0.1748
  951MOL0     H28378  11.639   0.549   3.337  2.5102  1.2467 -0.4980
  951MOL0     H28379  11.844   0.416   3.397  0.2728 -3.5936 -1.7967
  951MOL0     H28380  11.882   0.399   3.227  1.1009 -1.9049  2.3368
  951MOL0     H28381  12.028   0.777   3.274 -3.2964  1.2400 -0.4602
  951MOL0     H28382  11.342   0.393   2.932  3.3573  1.3555  2.1856
  951MOL0     H28383  11.170   0.243   2.845 -0.7976 -1.6407 -3.2543
  951MOL0     H28384  11.006   0.277   2.854  0.8153 -1.1213 -1.9319
  951MOL0     H28385  11.100   0.370   2.733  1.5656 -2.0291 -1.5323
  952MOL0     O28386   0.448   3.907   0.286  0.0724  0.5093 -0.6937
  952MOL0     C28387   0.508   4.011   0.268  0.4104 -0.1347  0.2763
  952MOL0     O28388   0.575   4.049   0.155 -0.2600 -0.8192  0.2062
  952MOL0     C28389   0.568   3.972   0.045  0.2634  0.3638 -1.1179
  952MOL0     C28390   0.691   3.924   0.004  0.0144 -0.0695  0.0533
  952MOL0     C28391   0.709   3.847  -0.111  0.5800  0.3439 -0.0496
  952MOL0     C28392   0.595   3.792  -0.177 -0.7973  0.8942 -0.5188
  952MOL0     O28393   0.589   3.709  -0.290  0.2866 -0.1899  0.1277
  952MOL0     C28394   0.700   3.651  -0.345 -0.7416 -0.5464 -0.4286
  952MOL0     C28395   0.650   3.554  -0.452 -0.3869 -1.1084  0.0617
  952MOL0     C28396   0.757   3.459  -0.509 -0.0368 -0.0404 -1.0326
  952MOL0     C28397   0.715   3.366  -0.621 -0.6520  0.7056  0.1908
  952MOL0     C28398   0.835   3.285  -0.682 -0.0572  0.2882 -0.3256
  952MOL0     C28399   0.864   3.147  -0.619 -0.3610 -0.4469 -0.0840
  952MOL0     C28400   1.003   3.092  -0.655  0.1071 -0.4688 -0.3974
  952MOL0     C28401   1.037   2.951  -0.612 -0.5153  0.1557 -1.0046
  952MOL0     N28402   1.186   2.936  -0.651  0.7021  0.0774  0.0583
  952MOL0     C28403   1.217   2.888  -0.777 -0.4542 -0.9692  0.9794
  952MOL0     C28404   1.351   2.909  -0.780 -0.6731  0.7518  0.0620
  952MOL0     C28405   1.452   2.884  -0.900  0.2471  0.4169  0.7873
  952MOL0     C28406   1.571   2.790  -0.861  1.0370 -0.2851  0.1643
  952MOL0     C28407   1.526   2.649  -0.860 -0.1060 -0.6150  0.3675
  952MOL0     C28408   1.632   2.540  -0.849 -0.5258  0.1433  0.5393
  952MOL0     O28409   1.710   2.547  -0.969 -0.1212  0.1537  0.0481
  952MOL0     C28410   1.847   2.512  -0.955  0.5858 -0.0709 -0.0754
  952MOL0     C28411   1.900   2.426  -0.858 -0.1626  0.7800 -0.0775
  952MOL0     C28412   2.038   2.409  -0.842 -0.6970  0.0301 -0.0691
  952MOL0     C28413   2.121   2.465  -0.939 -0.4641 -0.4783 -0.2870
  952MOL0     C28414   2.268   2.456  -0.928 -0.6757  0.0059 -0.8746
  952MOL0     O28415   2.348   2.533  -1.014  0.0600  0.0633 -0.6329
  952MOL0     C28416   2.484   2.498  -1.033  0.4153 -0.2639  0.2726
  952MOL0     C28417   2.517   2.376  -1.099 -0.2036  0.7384 -0.8791
  952MOL0     C28418   2.656   2.358  -1.133  0.3834 -0.0505 -0.1418
  952MOL0     C28419   2.755   2.456  -1.101  0.3330  0.0626 -0.2552
  952MOL0     O28420   2.880   2.433  -1.152  1.0907  0.2078 -0.2482
  952MOL0     C28421   2.963   2.358  -1.067 -0.2702  0.0763 -0.6006
  952MOL0     C28422   3.082   2.435  -1.000 -0.6882  0.3496 -0.3155
  952MOL0     C28423   3.201   2.455  -1.098 -0.0919 -0.3939  0.8822
  952MOL0     C28424   3.331   2.490  -1.023 -0.6502  0.4648  0.6812
  952MOL0     C28425   3.329   2.639  -0.983 -0.7991 -0.3975  0.3370
  952MOL0     C28426   3.457   2.652  -0.892  0.0349  0.1703  0.1935
  952MOL0     C28427   3.467   2.798  -0.864 -0.2240 -0.6490 -0.1549
  952MOL0     C28428   3.607   2.838  -0.811  0.0828  0.4996  0.6645
  952MOL0    Cl28429   3.609   3.014  -0.806 -0.2561  0.1477  0.0534
  952MOL0     C28430   2.718   2.566  -1.032  0.1652 -0.7113 -0.7811
  952MOL0     C28431   2.585   2.594  -1.002  0.2201  0.6981  0.6021
  952MOL0     O28432   2.319   2.386  -0.839  0.5571 -0.2742  0.4723
  952MOL0     C28433   2.068   2.551  -1.040  0.9862 -0.1448  0.5096
  952MOL0     C28434   1.928   2.567  -1.049 -1.3747  0.7054  0.2886
  952MOL0     N28435   1.393   2.939  -0.655  0.0655  0.2768  0.1307
  952MOL0     N28436   1.296   2.967  -0.574  0.0637  0.7857  1.2027
  952MOL0     C28437   0.471   3.830  -0.123 -1.2686  1.7200 -0.3938
  952MOL0     C28438   0.456   3.916  -0.007  0.1817 -0.3498 -0.3783
  952MOL0     C28439   0.499   4.113   0.373 -0.2352 -0.5244 -0.3206
  952MOL0     C28440   0.449   4.238   0.329  0.1358 -0.7916  0.7848
  952MOL0     C28441   0.424   4.336   0.422 -0.6746  0.1472  0.8849
  952MOL0     C28442   0.448   4.322   0.560 -0.0029  0.5517 -0.0129
  952MOL0     O28443   0.420   4.421   0.650 -0.0040  0.9208  0.0343
  952MOL0     C28444   0.417   4.549   0.591  0.7047  0.6338  0.5231
  952MOL0     C28445   0.408   4.641   0.710  0.3053 -0.3592 -0.0507
  952MOL0     C28446   0.290   4.617   0.807 -0.2259 -0.6803 -0.7983
  952MOL0     C28447   0.291   4.719   0.916 -0.3453  0.7309  0.8387
  952MOL0     C28448   0.160   4.708   0.973 -0.5749 -0.1664 -0.1797
  952MOL0     C28449   0.045   4.694   1.006 -0.1641  0.4654 -0.3492
  952MOL0     C28450   0.498   4.196   0.603  0.8077 -0.5786  0.5596
  952MOL0     C28451   0.523   4.099   0.512  0.0494  0.1537  0.0782
  952MOL0     C28452   0.580   3.963   0.563 -0.5122 -0.3139 -1.0023
  952MOL0     H28453   0.782   3.967   0.046  0.1064  0.9533 -1.1257
  952MOL0     H28454   0.812   3.825  -0.138  1.6185  3.1705  1.1496
  952MOL0     H28455   0.770   3.725  -0.384 -2.8486  1.4841 -0.6083
  952MOL0     H28456   0.748   3.587  -0.270 -0.8674  1.4532  1.4820
  952MOL0     H28457   0.621   3.610  -0.541  2.5074  1.1543  0.4172
  952MOL0     H28458   0.563   3.506  -0.405  0.5002  0.5478  3.7571
  952MOL0     H28459   0.797   3.394  -0.431 -2.5897 -3.2447 -2.1139
  952MOL0     H28460   0.837   3.522  -0.548 -0.3270  1.3612  0.5390
  952MOL0     H28461   0.640   3.293  -0.589 -0.5513 -0.9038 -2.8863
  952MOL0     H28462   0.693   3.429  -0.707 -1.2969  0.5158  0.2130
  952MOL0     H28463   0.810   3.264  -0.787 -1.9204  0.6765  0.0162
  952MOL0     H28464   0.923   3.349  -0.686 -0.2419  0.5336 -0.4974
  952MOL0     H28465   0.857   3.167  -0.512  0.2551  1.0012 -0.2802
  952MOL0     H28466   0.782   3.081  -0.647 -0.6765 -0.7764  1.5142
  952MOL0     H28467   1.072   3.164  -0.611 -1.8670  0.9537  0.5452
  952MOL0     H28468   1.004   3.096  -0.764  0.9929 -0.0450 -0.3803
  952MOL0     H28469   1.027   2.949  -0.503  1.2549  0.8841 -0.7892
  952MOL0     H28470   0.969   2.878  -0.656 -0.1985  0.7148 -2.4559
  952MOL0     H28471   1.151   2.846  -0.851  0.7031  0.1776 -0.7670
  952MOL0     H28472   1.400   2.846  -0.989 -0.0048  3.5022 -0.5288
  952MOL0     H28473   1.498   2.980  -0.927 -1.5885  0.1819 -4.1656
  952MOL0     H28474   1.649   2.811  -0.934  2.7168 -1.0441  1.6751
  952MOL0     H28475   1.617   2.815  -0.765  0.5675  1.5152 -0.0428
  952MOL0     H28476   1.468   2.623  -0.949 -1.2282  0.6829  0.6765
  952MOL0     H28477   1.462   2.634  -0.773 -1.1336  1.5808  0.0679
  952MOL0     H28478   1.600   2.442  -0.814  1.5310 -0.2178  1.5827
  952MOL0     H28479   1.698   2.565  -0.765 -0.9090  1.1181  0.5619
  952MOL0     H28480   1.852   2.367  -0.780  0.3032 -0.8287 -0.9594
  952MOL0     H28481   2.075   2.351  -0.758 -0.3985 -0.3837 -0.4817
  952MOL0     H28482   2.441   2.305  -1.128  0.0932  1.6828 -4.4398
  952MOL0     H28483   2.690   2.265  -1.178 -2.6475 -1.0752 -0.5529
  952MOL0     H28484   2.905   2.321  -0.981  0.6504 -0.8458 -0.3592
  952MOL0     H28485   2.997   2.276  -1.130 -1.3068  0.5151 -1.7626
  952MOL0     H28486   3.043   2.528  -0.960 -5.5463 -1.0469 -1.1164
  952MOL0     H28487   3.116   2.365  -0.923  1.5027  1.1670 -0.4971
  952MOL0     H28488   3.219   2.367  -1.161 -0.0217 -0.9894  1.7143
  952MOL0     H28489   3.176   2.536  -1.167  1.4153 -1.3610 -0.9120
  952MOL0     H28490   3.413   2.480  -1.094  0.9066  2.3235  2.0872
  952MOL0     H28491   3.332   2.435  -0.929 -4.1026  0.7010  1.0016
  952MOL0     H28492   3.241   2.670  -0.927 -2.0549 -1.3152 -1.0434
  952MOL0     H28493   3.330   2.704  -1.071 -1.5560 -1.1772 -0.2656
  952MOL0     H28494   3.434   2.597  -0.800 -1.3149  0.9893  0.3892
  952MOL0     H28495   3.545   2.611  -0.942 -1.3668  0.0630 -2.3339
  952MOL0     H28496   3.393   2.815  -0.785  0.3773  0.0132  0.2744
  952MOL0     H28497   3.443   2.865  -0.947 -1.0860 -0.9159 -0.1331
  952MOL0     H28498   3.620   2.793  -0.713  1.2431  0.6027  0.5748
  952MOL0     H28499   3.690   2.806  -0.875  0.1815  1.9019  0.0409
  952MOL0     H28500   2.795   2.640  -1.015 -1.1003  1.2769 -3.0332
  952MOL0     H28501   2.553   2.689  -0.961 -0.3230  1.6885 -1.9196
  952MOL0     H28502   2.134   2.605  -1.108 -0.3363  0.4902 -0.3073
  952MOL0     H28503   1.885   2.626  -1.130  1.1169  1.5953 -0.4834
  952MOL0     H28504   0.386   3.782  -0.171 -1.8539 -0.5999  2.6321
  952MOL0     H28505   0.356   3.924   0.033  0.0713  0.8895 -0.8740
  952MOL0     H28506   0.445   4.261   0.223  2.1996  1.6632  1.1238
  952MOL0     H28507   0.392   4.431   0.382 -3.3156 -2.1503 -3.1182
  952MOL0     H28508   0.319   4.555   0.544  1.1044 -1.1509 -0.6252
  952MOL0     H28509   0.495   4.574   0.518  2.2993 -2.8092  0.8555
  952MOL0     H28510   0.411   4.744   0.673  0.2003 -0.0383  0.8098
  952MOL0     H28511   0.498   4.640   0.773 -0.1394  3.0821  0.8284
  952MOL0     H28512   0.306   4.518   0.851  1.7983  1.5829  4.4123
  952MOL0     H28513   0.195   4.620   0.752 -2.1472  0.0080  2.3142
  952MOL0     H28514   0.378   4.698   0.979  1.8203 -1.9170 -2.6252
  952MOL0     H28515   0.299   4.819   0.871  2.0413  0.1908 -0.1069
  952MOL0     H28516  -0.059   4.678   1.026 -0.3350  1.6191 -0.2461
  952MOL0     H28517   0.511   4.174   0.709 -0.4413 -0.6455  0.7134
  952MOL0     H28518   0.625   3.978   0.661 -2.2168 -2.3222  0.1700
  952MOL0     H28519   0.489   3.902   0.570  0.0154 -1.0600 -0.5009
  952MOL0     H28520   0.656   3.923   0.495  0.9343 -1.1139  1.0092
  953MOL0     O28521   8.261   4.872   5.445 -0.2455 -0.2031  0.3742
  953MOL0     C28522   8.185   4.917   5.532  0.2522 -0.1886  1.0945
  953MOL0     O28523   8.213   5.035   5.594  0.4571 -0.1242  0.1130
  953MOL0     C28524   8.334   5.095   5.568 -0.1672 -0.0003 -0.3751
  953MOL0     C28525   8.460   5.059   5.625  1.2214  0.1049 -0.9746
  953MOL0     C28526   8.579   5.116   5.593  0.4942 -0.0503 -0.3129
  953MOL0     C28527   8.585   5.217   5.493 -0.4854  1.0331 -0.1463
  953MOL0     O28528   8.707   5.267   5.458 -0.1993  0.4787 -0.4475
  953MOL0     C28529   8.725   5.288   5.318  0.4895 -0.6599  0.3481
  953MOL0     C28530   8.865   5.261   5.280 -0.3351  0.7196  0.2652
  953MOL0     C28531   8.889   5.226   5.131 -1.0435 -0.9884  0.1526
  953MOL0     C28532   9.042   5.208   5.084  0.8602 -0.1074  0.1506
  953MOL0     C28533   9.050   5.150   4.942 -0.3223  0.0148  0.1978
  953MOL0     C28534   9.175   5.189   4.862  0.4730  0.9396  0.1793
  953MOL0     C28535   9.301   5.128   4.907  0.2294 -0.3981 -0.0827
  953MOL0     C28536   9.396   5.221   4.981  0.2667  0.8547 -0.1749
  953MOL0     N28537   9.515   5.154   5.037  0.0750 -0.3553 -0.5259
  953MOL0     C28538   9.607   5.076   4.967 -0.7216  0.4090 -0.7398
  953MOL0     C28539   9.713   5.056   5.049 -0.1799 -0.6808 -0.1431
  953MOL0     C28540   9.831   4.968   5.031  0.2771 -0.3957 -0.6310
  953MOL0     C28541   9.944   5.060   4.973 -0.5672 -0.2165  0.2619
  953MOL0     C28542  10.055   5.106   5.079 -0.2800 -0.1081 -0.4152
  953MOL0     C28543  10.146   5.231   5.049 -0.6042 -0.4260  0.3817
  953MOL0     O28544  10.196   5.209   4.917  0.1849 -0.0348  0.3103
  953MOL0     C28545  10.329   5.175   4.906  0.4006 -0.6562  0.9716
  953MOL0     C28546  10.399   5.098   4.998  0.0935 -0.0498 -0.4309
  953MOL0     C28547  10.538   5.065   4.979  0.1285 -0.7869 -0.0452
  953MOL0     C28548  10.607   5.105   4.858  0.0919  0.2090 -0.4788
  953MOL0     C28549  10.745   5.052   4.824 -0.8950  0.2730  0.5159
  953MOL0     O28550  10.813   5.096   4.711 -0.6193  0.6067  0.1607
  953MOL0     C28551  10.932   5.034   4.675 -0.6029  0.1380 -0.4804
  953MOL0     C28552  10.942   4.995   4.540 -0.3854 -0.0689  0.0452
  953MOL0     C28553  11.058   4.933   4.497 -0.6452  0.3227 -0.5049
  953MOL0     C28554  11.168   4.915   4.578 -1.2813  0.6397  0.2488
  953MOL0     O28555  11.288   4.853   4.549  0.3880 -0.0602 -0.0485
  953MOL0     C28556  11.322   4.853   4.408 -0.8782 -0.6518 -0.2889
  953MOL0     C28557  11.471   4.844   4.389 -0.3448  0.0580 -0.5160
  953MOL0     C28558  11.518   4.872   4.253  0.7089 -0.5498  0.4626
  953MOL0     C28559  11.555   4.748   4.178 -0.2897  0.9302  1.1244
  953MOL0     C28560  11.624   4.788   4.045  0.3589  0.3932 -0.3014
  953MOL0     C28561  11.763   4.851   4.069  0.0853 -0.1379  0.1934
  953MOL0     C28562  11.875   4.756   4.123  1.0964  0.8067 -0.7828
  953MOL0     C28563  12.014   4.812   4.137 -0.2533  0.3448 -0.5596
  953MOL0    Cl28564  12.130   4.695   4.201 -0.0078  0.0993  0.3266
  953MOL0     C28565  11.155   4.962   4.704  0.3724  0.4836 -0.4931
  953MOL0     C28566  11.045   5.019   4.760 -0.0886  0.0746  0.4708
  953MOL0     O28567  10.788   4.978   4.916  0.1710  0.3723  0.6143
  953MOL0     C28568  10.530   5.169   4.762 -1.2330 -1.3159  0.2703
  953MOL0     C28569  10.396   5.217   4.789  0.3011 -0.2324 -0.0990
  953MOL0     N28570   9.682   5.132   5.155  0.3659  0.1707  0.6339
  953MOL0     N28571   9.570   5.184   5.153 -0.2890 -1.1228  0.0374
  953MOL0     C28572   8.461   5.263   5.442 -1.5434  0.1708 -0.3641
  953MOL0     C28573   8.344   5.200   5.478 -0.2538  0.6474  0.3287
  953MOL0     C28574   8.057   4.843   5.566  0.5078  0.0914  0.2198
  953MOL0     C28575   8.004   4.755   5.471 -0.0336 -0.1814 -0.5825
  953MOL0     C28576   7.866   4.711   5.474 -0.5655  0.0185 -0.1575
  953MOL0     C28577   7.786   4.755   5.584 -0.7613  0.9386  0.6969
  953MOL0     O28578   7.664   4.704   5.577 -0.1594  0.2940  0.2998
  953MOL0     C28579   7.574   4.714   5.689 -0.9820 -1.3513  0.2196
  953MOL0     C28580   7.460   4.620   5.674  0.9043  0.4771 -0.6430
  953MOL0     C28581   7.353   4.614   5.785  0.3363 -0.4764 -0.7580
  953MOL0     C28582   7.404   4.603   5.934 -0.1677  0.1604 -0.2336
  953MOL0     C28583   7.299   4.642   6.033 -0.9252  0.1582 -0.2238
  953MOL0     C28584   7.236   4.693   6.124 -0.7805  0.0989 -0.1994
  953MOL0     C28585   7.846   4.834   5.683  0.3763  0.1209 -0.9293
  953MOL0     C28586   7.979   4.877   5.675  0.2413 -1.3656 -0.4846
  953MOL0     C28587   8.026   4.970   5.794  0.0368  0.2318 -0.4512
  953MOL0     H28588   8.451   4.976   5.695 -0.1288  0.3498 -0.8426
  953MOL0     H28589   8.677   5.088   5.631  1.0388  0.9052 -0.9592
  953MOL0     H28590   8.667   5.219   5.256 -2.0970  1.1908  0.5390
  953MOL0     H28591   8.697   5.389   5.287  2.4591 -0.0608  0.4028
  953MOL0     H28592   8.897   5.175   5.339 -3.6948 -1.7433 -1.2145
  953MOL0     H28593   8.915   5.352   5.314  0.8628 -0.8011  2.8628
  953MOL0     H28594   8.847   5.303   5.066 -0.4541 -0.6573  0.1535
  953MOL0     H28595   8.828   5.137   5.112 -1.2942 -1.0666  1.2619
  953MOL0     H28596   9.079   5.311   5.086 -0.7267  0.4877  0.6725
  953MOL0     H28597   9.090   5.139   5.154  1.1861 -0.3456 -0.2973
  953MOL0     H28598   9.036   5.042   4.952 -2.2176  0.1067 -1.0233
  953MOL0     H28599   8.963   5.196   4.894 -2.3245 -1.2328  2.3839
  953MOL0     H28600   9.145   5.150   4.764 -1.5275 -0.3445  1.2271
  953MOL0     H28601   9.193   5.296   4.865 -3.9560  2.0764 -2.8679
  953MOL0     H28602   9.354   5.089   4.820  0.4931 -0.1454 -0.0337
  953MOL0     H28603   9.281   5.044   4.975 -0.0681  1.6444  2.5318
  953MOL0     H28604   9.429   5.307   4.922  0.1836  1.0667  0.0899
  953MOL0     H28605   9.347   5.249   5.075 -1.9734 -0.4868 -0.8611
  953MOL0     H28606   9.598   5.027   4.870  0.8141 -2.0709  0.2592
  953MOL0     H28607   9.861   4.922   5.125 -0.7651 -1.7433 -0.9399
  953MOL0     H28608   9.804   4.888   4.962 -0.8254 -2.9335  2.4727
  953MOL0     H28609   9.998   5.010   4.893  1.7493  1.4670  0.6723
  953MOL0     H28610   9.909   5.143   4.910  2.7340  0.7892 -0.4109
  953MOL0     H28611  10.118   5.022   5.109 -2.5901 -1.5612  0.6674
  953MOL0     H28612   9.991   5.138   5.161  0.3045 -0.2257  0.0934
  953MOL0     H28613  10.232   5.242   5.117  1.6096 -1.5366 -2.0694
  953MOL0     H28614  10.087   5.323   5.052 -3.3261 -2.0937  0.9374
  953MOL0     H28615  10.350   5.069   5.090 -1.1866  1.3496 -0.6356
  953MOL0     H28616  10.588   5.015   5.062 -0.4070 -2.1804 -0.5426
  953MOL0     H28617  10.859   5.013   4.473 -1.2579 -0.6215  0.9554
  953MOL0     H28618  11.068   4.916   4.390  0.0111 -0.9804 -0.2655
  953MOL0     H28619  11.253   4.784   4.357 -4.0282  1.1827  1.1594
  953MOL0     H28620  11.297   4.949   4.362  1.2015  1.0832  1.9498
  953MOL0     H28621  11.519   4.920   4.451  0.9654 -0.2021 -1.1933
  953MOL0     H28622  11.499   4.743   4.418 -0.4202 -0.9477 -3.6121
  953MOL0     H28623  11.443   4.932   4.199  2.5921  3.1987  1.6779
  953MOL0     H28624  11.605   4.938   4.252 -2.4254  4.1405 -1.3142
  953MOL0     H28625  11.460   4.701   4.151  1.8278 -0.5532 -5.7823
  953MOL0     H28626  11.621   4.674   4.225  1.6079 -0.3065 -3.0294
  953MOL0     H28627  11.569   4.864   3.989  1.5748  3.1420  2.0041
  953MOL0     H28628  11.627   4.700   3.980 -0.1492 -0.4661  0.8035
  953MOL0     H28629  11.809   4.877   3.974 -1.1925  2.4507  0.1994
  953MOL0     H28630  11.753   4.941   4.130 -0.6831  0.9856 -1.5351
  953MOL0     H28631  11.877   4.668   4.058  0.0760  0.6999 -0.6860
  953MOL0     H28632  11.843   4.714   4.219  1.0796  1.2405 -0.6011
  953MOL0     H28633  12.039   4.854   4.038 -0.0355 -1.2066 -1.1835
  953MOL0     H28634  12.026   4.888   4.214 -3.3552  0.6948 -0.2769
  953MOL0     H28635  11.246   4.954   4.762 -1.2031  0.5135  2.1272
  953MOL0     H28636  11.058   5.056   4.861  1.7366  0.4426  0.1355
  953MOL0     H28637  10.569   5.208   4.669 -2.3668 -3.3100 -1.1054
  953MOL0     H28638  10.366   5.288   4.713  1.3606 -1.4453 -1.7178
  953MOL0     H28639   8.460   5.345   5.372  0.4062  0.8508  0.3335
  953MOL0     H28640   8.244   5.227   5.444 -0.5279 -1.3917 -0.6428
  953MOL0     H28641   8.057   4.718   5.384 -2.6807 -0.9108 -2.0031
  953MOL0     H28642   7.817   4.649   5.400  0.9334 -1.4732  0.0351
  953MOL0     H28643   7.542   4.818   5.704 -1.7241 -1.5149 -0.2195
  953MOL0     H28644   7.622   4.687   5.784  0.0773  2.7845  1.0715
  953MOL0     H28645   7.501   4.520   5.661  0.5368 -0.0181  1.6679
  953MOL0     H28646   7.417   4.655   5.580 -1.2628  0.1611  0.1893
  953MOL0     H28647   7.294   4.528   5.750 -0.4675  0.2776 -1.2945
  953MOL0     H28648   7.288   4.702   5.781 -0.6732 -1.2447 -3.5024
  953MOL0     H28649   7.453   4.509   5.961 -0.3394  0.0621 -0.2653
  953MOL0     H28650   7.489   4.671   5.945 -0.0287 -0.1760  0.8865
  953MOL0     H28651   7.178   4.739   6.202 -3.5851 -0.7469 -1.6308
  953MOL0     H28652   7.791   4.846   5.775  0.6472  2.1808 -0.9984
  953MOL0     H28653   8.129   4.944   5.824  0.5814  1.7864 -0.9063
  953MOL0     H28654   8.038   5.071   5.755 -1.9453 -0.3868 -2.9061
  953MOL0     H28655   7.959   4.958   5.880  1.5653 -2.7744  0.4856
  954MOL0     O28656   0.742   8.052  10.494  0.3802  2.2334 -0.2964
  954MOL0     C28657   0.711   8.019  10.377 -1.0304 -0.3603  0.6086
  954MOL0     O28658   0.779   7.931  10.305 -0.0383  0.0661 -0.2062
  954MOL0     C28659   0.900   7.871  10.343  0.6277  0.0167  0.0237
  954MOL0     C28660   0.971   7.881  10.459 -0.0836 -0.9209  0.2915
  954MOL0     C28661   1.093   7.813  10.481 -0.3193 -0.2231  0.3672
  954MOL0     C28662   1.133   7.716  10.387 -0.1242 -1.2475 -0.4333
  954MOL0     O28663   1.214   7.614  10.420 -0.3393 -0.4885 -0.9599
  954MOL0     C28664   1.334   7.649  10.488 -1.2195  0.8218 -0.0331
  954MOL0     C28665   1.350   7.538  10.600  0.1713 -1.0291  0.2139
  954MOL0     C28666   1.464   7.582  10.699 -0.5420  0.0644 -0.1072
  954MOL0     C28667   1.512   7.475  10.794  0.1249 -0.0641 -0.3039
  954MOL0     C28668   1.657   7.504  10.841  0.0741  0.2186 -0.5005
  954MOL0     C28669   1.726   7.379  10.911  0.2354 -0.1233  0.2642
  954MOL0     C28670   1.854   7.425  10.974 -0.2272  0.0665 -0.3966
  954MOL0     C28671   1.925   7.311  11.061  0.8627 -0.5922  0.3450
  954MOL0     N28672   1.968   7.196  10.976 -0.0202 -0.2557 -0.5084
  954MOL0     C28673   2.092   7.186  10.921 -0.9930 -0.5872 -0.7346
  954MOL0     C28674   2.089   7.083  10.839 -0.1109 -0.1428  0.1448
  954MOL0     C28675   2.188   7.023  10.750 -0.5237  0.0618  0.5414
  954MOL0     C28676   2.308   6.984  10.844 -0.1152 -0.6472 -0.3795
  954MOL0     C28677   2.412   6.924  10.750  0.1799 -0.1985 -0.4837
  954MOL0     C28678   2.502   6.841  10.828  0.8113  0.4717  0.1192
  954MOL0     O28679   2.613   6.813  10.740 -0.6665  0.5604 -0.4851
  954MOL0     C28680   2.735   6.781  10.808 -0.5289 -0.0946  0.5394
  954MOL0     C28681   2.853   6.830  10.741 -0.7668 -0.0003  0.0685
  954MOL0     C28682   2.981   6.814  10.793  0.8012  0.2365  1.1097
  954MOL0     C28683   2.992   6.738  10.909  0.4764  0.2769 -0.6184
  954MOL0     C28684   3.130   6.696  10.954  0.5181 -0.8244 -0.3526
  954MOL0     O28685   3.232   6.762  10.884  0.6136  0.0437  0.4237
  954MOL0     C28686   3.358   6.762  10.933 -0.2887 -0.1781  0.6172
  954MOL0     C28687   3.432   6.650  10.981  0.0309  1.1118 -0.5174
  954MOL0     C28688   3.568   6.668  11.009  0.2536  0.5115 -0.4125
  954MOL0     C28689   3.640   6.774  10.968 -0.4024 -0.7592  0.0846
  954MOL0     O28690   3.771   6.778  11.010 -0.3191 -0.8386  0.3272
  954MOL0     C28691   3.859   6.882  10.967 -0.3807 -1.0935  0.3713
  954MOL0     C28692   3.902   6.861  10.829  0.2902 -0.2725 -0.0514
  954MOL0     C28693   3.927   6.710  10.815 -1.1080  0.0348 -0.3598
  954MOL0     C28694   4.051   6.677  10.731  0.2672 -0.2010  0.2903
  954MOL0     C28695   4.061   6.545  10.666 -0.3767 -0.4717 -0.5964
  954MOL0     C28696   4.170   6.550  10.554  0.0897  0.2154 -0.2155
  954MOL0     C28697   4.161   6.431  10.464  0.5433  0.8006  0.0815
  954MOL0     C28698   4.237   6.312  10.529  0.0564 -0.0580 -0.8170
  954MOL0    Cl28699   4.411   6.352  10.520 -0.2137  0.4184  0.0273
  954MOL0     C28700   3.567   6.890  10.919  0.0021 -0.0445  0.3608
  954MOL0     C28701   3.427   6.882  10.898  0.0864  0.0274 -0.2717
  954MOL0     O28702   3.148   6.613  11.040 -0.6420  0.0934  0.3100
  954MOL0     C28703   2.879   6.688  10.977 -0.3173  0.6030  0.3831
  954MOL0     C28704   2.754   6.715  10.924  0.3075  0.4338 -0.5050
  954MOL0     N28705   1.957   7.044  10.829  0.2385 -0.3293  0.2304
  954MOL0     N28706   1.889   7.103  10.921 -0.0037 -0.7506 -0.4954
  954MOL0     C28707   1.065   7.706  10.264  0.0692  0.6338  0.3234
  954MOL0     C28708   0.948   7.784  10.242 -0.9266 -0.7066 -0.2620
  954MOL0     C28709   0.596   8.084  10.314  0.5651 -0.2201 -0.0213
  954MOL0     C28710   0.540   8.186  10.392 -0.1112 -0.4005 -0.0984
  954MOL0     C28711   0.422   8.249  10.359 -0.2900  0.3993  0.4006
  954MOL0     C28712   0.340   8.190  10.259  0.1911 -0.5319  0.7755
  954MOL0     O28713   0.220   8.250  10.238 -0.5433 -0.0647  0.6325
  954MOL0     C28714   0.123   8.188  10.151  0.4401 -0.1842  0.4370
  954MOL0     C28715  -0.017   8.264  10.175 -0.1959 -0.6367  0.1660
  954MOL0     C28716  -0.123   8.234  10.073  0.3629  0.4912 -0.5975
  954MOL0     C28717  -0.213   8.118  10.097 -0.6399 -0.0867 -0.2744
  954MOL0     C28718  -0.132   7.992  10.083 -0.0544 -0.1496  0.4028
  954MOL0     C28719  -0.090   7.877  10.072 -0.3642 -0.4611 -0.4508
  954MOL0     C28720   0.394   8.087  10.179  0.0869  0.0476  0.4601
  954MOL0     C28721   0.525   8.037  10.204  0.0025  0.2834 -0.1525
  954MOL0     C28722   0.568   7.930  10.104 -0.5546  0.0158 -0.2232
  954MOL0     H28723   0.946   7.950  10.540 -1.5156 -4.4530  3.1204
  954MOL0     H28724   1.141   7.836  10.575  0.5185  1.6765 -0.4478
  954MOL0     H28725   1.411   7.632  10.412  0.7875  0.6581  1.9395
  954MOL0     H28726   1.344   7.747  10.535  0.6628 -0.1494  1.7627
  954MOL0     H28727   1.372   7.442  10.553  0.3197 -0.5591 -0.6913
  954MOL0     H28728   1.254   7.534  10.653  0.8508 -2.8470  1.4087
  954MOL0     H28729   1.441   7.667  10.764  1.5172  1.1005 -0.6304
  954MOL0     H28730   1.547   7.623  10.640  2.0501 -3.6998  0.5537
  954MOL0     H28731   1.453   7.458  10.885  2.7593  0.9935  1.7675
  954MOL0     H28732   1.517   7.380  10.740  3.5202 -0.5143  0.5847
  954MOL0     H28733   1.709   7.531  10.749  2.1345  2.2421  1.1355
  954MOL0     H28734   1.657   7.592  10.906 -1.7042  1.4110 -2.0101
  954MOL0     H28735   1.660   7.337  10.988  2.5625 -3.4539  0.6718
  954MOL0     H28736   1.739   7.296  10.841  3.6228 -1.4764  2.2765
  954MOL0     H28737   1.829   7.505  11.043  2.6431  1.2099 -0.5667
  954MOL0     H28738   1.917   7.458  10.891  0.5067 -0.2525  0.0180
  954MOL0     H28739   2.003   7.376  11.102 -1.2577  0.8637  2.3521
  954MOL0     H28740   1.863   7.277  11.145 -1.4567  2.2522 -0.0557
  954MOL0     H28741   2.188   7.231  10.939 -2.1870  1.0921  1.9389
  954MOL0     H28742   2.146   6.939  10.695 -0.8149  1.5247 -1.6092
  954MOL0     H28743   2.213   7.103  10.680  0.8272  0.4074  1.3850
  954MOL0     H28744   2.348   7.076  10.887 -1.2158 -2.0698  4.1540
  954MOL0     H28745   2.284   6.932  10.937  0.3069 -1.5047 -0.7359
  954MOL0     H28746   2.473   6.993  10.691  1.7802 -1.0357  0.1264
  954MOL0     H28747   2.363   6.868  10.670  2.2576 -0.8367 -1.3721
  954MOL0     H28748   2.448   6.751  10.858 -1.0584  0.7227 -2.2296
  954MOL0     H28749   2.534   6.887  10.921  2.0233 -1.7882  0.9025
  954MOL0     H28750   2.853   6.891  10.650  1.2817  2.3621  1.5342
  954MOL0     H28751   3.070   6.851  10.742 -0.3332  1.9368  0.2842
  954MOL0     H28752   3.375   6.559  10.993  1.9636 -0.2212 -0.9054
  954MOL0     H28753   3.615   6.583  11.058 -2.3311 -2.9351 -3.2913
  954MOL0     H28754   3.807   6.978  10.974 -2.9762 -2.0328 -2.9963
  954MOL0     H28755   3.946   6.886  11.033  0.7481  1.2803 -1.0993
  954MOL0     H28756   3.815   6.884  10.767  0.8194  0.1951 -0.6228
  954MOL0     H28757   3.984   6.928  10.803 -0.7253  1.4842  1.0854
  954MOL0     H28758   3.932   6.658  10.911 -6.1562  2.5817  1.6465
  954MOL0     H28759   3.840   6.667  10.764  0.2144 -1.4120 -1.4944
  954MOL0     H28760   4.133   6.681  10.803  0.8075 -0.8040 -0.2795
  954MOL0     H28761   4.061   6.744  10.646  1.3731 -2.3495 -1.3951
  954MOL0     H28762   3.961   6.518  10.629 -0.3140 -1.1023 -0.3283
  954MOL0     H28763   4.088   6.469  10.740 -0.2049 -2.5488 -2.6784
  954MOL0     H28764   4.150   6.636  10.489  2.5057  2.4177  1.7740
  954MOL0     H28765   4.265   6.569  10.604 -1.5543  4.5021  1.8341
  954MOL0     H28766   4.207   6.458  10.369 -0.6693  4.4555  0.3628
  954MOL0     H28767   4.056   6.403  10.451  0.3194  1.9183 -0.6750
  954MOL0     H28768   4.207   6.316  10.634 -1.4851  3.5059 -1.2410
  954MOL0     H28769   4.217   6.218  10.476 -1.9870  1.0948 -2.2445
  954MOL0     H28770   3.622   6.978  10.889  1.0269 -0.9260 -0.4724
  954MOL0     H28771   3.366   6.961  10.854  0.5623 -0.2948 -1.5254
  954MOL0     H28772   2.888   6.632  11.070  1.0611  1.7249  0.9741
  954MOL0     H28773   2.677   6.676  10.990 -0.2627 -0.0145 -1.4210
  954MOL0     H28774   1.096   7.642  10.182 -1.2348  1.9674 -1.3004
  954MOL0     H28775   0.904   7.767  10.145 -3.5163  3.0786  0.0295
  954MOL0     H28776   0.601   8.240  10.464 -1.7435  1.9957 -0.4073
  954MOL0     H28777   0.396   8.341  10.410 -0.5081  0.2856  0.4996
  954MOL0     H28778   0.109   8.082  10.176  2.4839 -1.0718 -1.7450
  954MOL0     H28779   0.147   8.195  10.044  2.7322  0.1996  0.9323
  954MOL0     H28780   0.000   8.371  10.195  0.7763 -0.9662  1.1846
  954MOL0     H28781  -0.048   8.234  10.275 -0.9209 -1.7614 -0.3761
  954MOL0     H28782  -0.079   8.224   9.973 -2.0338  1.2447 -1.8179
  954MOL0     H28783  -0.181   8.326  10.062 -0.1045  0.0904 -1.6638
  954MOL0     H28784  -0.250   8.127  10.200 -1.6025 -2.7065 -0.3226
  954MOL0     H28785  -0.297   8.111  10.028 -0.3940 -1.5191 -0.4506
  954MOL0     H28786  -0.070   7.776  10.043 -2.0082 -0.3693 -2.0780
  954MOL0     H28787   0.338   8.056  10.091  1.1842 -2.2137  0.4762
  954MOL0     H28788   0.667   7.947  10.063 -0.2442  0.9985  0.8866
  954MOL0     H28789   0.560   7.834  10.157  1.1134 -1.3850 -2.3463
  954MOL0     H28790   0.495   7.935  10.022 -1.0488 -0.0996  0.2002
  955MOL0     O28791   6.456   9.362   2.839 -1.0351  0.4276  0.4444
  955MOL0     C28792   6.414   9.478   2.813  0.2424  0.6347  0.3152
  955MOL0     O28793   6.495   9.591   2.793  0.5680 -0.7142 -0.4297
  955MOL0     C28794   6.623   9.596   2.820  0.4169  0.9855  0.6405
  955MOL0     C28795   6.674   9.559   2.946  0.2203 -0.9417  0.3316
  955MOL0     C28796   6.806   9.564   2.969 -0.7036  0.0383 -0.2722
  955MOL0     C28797   6.900   9.613   2.876  0.4380  0.3843  0.2971
  955MOL0     O28798   7.033   9.608   2.920  0.2771 -0.1446 -0.0947
  955MOL0     C28799   7.104   9.724   2.880 -0.3670  0.2091  0.7351
  955MOL0     C28800   7.241   9.718   2.944  0.7608 -0.1522  0.1118
  955MOL0     C28801   7.344   9.801   2.871  0.1329  0.3167 -0.3887
  955MOL0     C28802   7.427   9.729   2.762 -0.9237  1.1654 -0.6124
  955MOL0     C28803   7.575   9.704   2.791 -1.4369 -0.3891  0.0313
  955MOL0     C28804   7.654   9.840   2.765  0.8425  0.0188 -0.4767
  955MOL0     C28805   7.778   9.836   2.863  0.0014 -0.2209  0.1732
  955MOL0     C28806   7.886   9.914   2.791  1.3020 -0.3658  0.8630
  955MOL0     N28807   7.981   9.927   2.897  0.4505  0.0370 -1.3167
  955MOL0     C28808   8.103   9.872   2.895  1.1073  0.1953  0.0421
  955MOL0     C28809   8.155   9.912   3.009 -0.4589  0.5065  0.5232
  955MOL0     C28810   8.301   9.876   3.033 -0.1907 -0.6582 -0.1856
  955MOL0     C28811   8.382  10.000   3.002 -0.7038 -0.7130 -0.0977
  955MOL0     C28812   8.526  10.010   3.061  0.2936  0.8258  0.3513
  955MOL0     C28813   8.631   9.927   2.980  0.5096 -0.7274  0.5247
  955MOL0     O28814   8.696  10.025   2.899 -0.2655 -0.2705  0.4531
  955MOL0     C28815   8.807  10.094   2.950  0.0178 -1.4069 -0.6165
  955MOL0     C28816   8.865  10.188   2.861  0.4550  0.7491  0.2243
  955MOL0     C28817   8.979  10.258   2.898 -0.3004  0.2291  1.0358
  955MOL0     C28818   9.048  10.227   3.009 -0.0025  1.1429  0.4577
  955MOL0     C28819   9.159  10.306   3.032 -0.2513 -0.4537 -0.0790
  955MOL0     O28820   9.248  10.263   3.127  0.8637  0.7046 -0.5041
  955MOL0     C28821   9.340  10.355   3.170 -0.4042 -0.3225  0.5317
  955MOL0     C28822   9.327  10.377   3.308 -0.2719 -0.6412  0.2162
  955MOL0     C28823   9.417  10.473   3.366  1.1041  0.3517  0.2393
  955MOL0     C28824   9.518  10.534   3.294 -0.5411  0.0962 -0.8981
  955MOL0     O28825   9.602  10.621   3.359 -0.6257 -0.3935  0.1820
  955MOL0     C28826   9.603  10.641   3.501 -0.6832  0.0706 -0.2802
  955MOL0     C28827   9.702  10.755   3.553 -0.4994 -0.1593  0.5943
  955MOL0     C28828   9.855  10.728   3.516 -0.4366 -0.4703  0.3333
  955MOL0     C28829   9.944  10.848   3.555  0.3947 -0.1974 -1.0030
  955MOL0     C28830  10.097  10.805   3.547  0.0664  0.5036 -1.1092
  955MOL0     C28831  10.185  10.910   3.614  0.4570  0.0598  0.1628
  955MOL0     C28832  10.339  10.907   3.577  0.4262 -0.6205 -0.1168
  955MOL0     C28833  10.365  10.966   3.444 -0.3785  0.0897 -0.0337
  955MOL0    Cl28834  10.544  11.010   3.451 -0.0450 -0.4390 -0.2200
  955MOL0     C28835   9.530  10.516   3.155 -0.0671 -0.0658  0.5209
  955MOL0     C28836   9.435  10.424   3.095  0.3934 -0.1130 -0.0188
  955MOL0     O28837   9.185  10.396   2.961 -0.3177 -0.6250  0.2639
  955MOL0     C28838   9.000  10.134   3.100  0.1336  0.0726 -0.6532
  955MOL0     C28839   8.877  10.077   3.077 -0.1209  0.5320  0.4440
  955MOL0     N28840   8.077  10.005   3.065  0.6317 -0.1252  0.2041
  955MOL0     N28841   7.970  10.020   2.996  0.3724 -0.1603  1.3356
  955MOL0     C28842   6.852   9.658   2.754 -0.1260 -0.6375  0.2322
  955MOL0     C28843   6.712   9.653   2.721 -0.6432 -0.1964 -1.1583
  955MOL0     C28844   6.270   9.497   2.799 -0.4900  0.3438 -0.2424
  955MOL0     C28845   6.185   9.390   2.849 -0.5672  0.5948  0.6188
  955MOL0     C28846   6.049   9.399   2.864  0.5528  0.2960  1.0376
  955MOL0     C28847   5.976   9.512   2.830  0.5678 -0.5887  0.0084
  955MOL0     O28848   5.839   9.509   2.845 -0.5026  0.1050 -0.6385
  955MOL0     C28849   5.768   9.637   2.848  0.1872 -0.0565 -0.1386
  955MOL0     C28850   5.639   9.634   2.922  1.0036  0.2366  0.2852
  955MOL0     C28851   5.532   9.534   2.853 -0.4431 -0.7658 -0.2578
  955MOL0     C28852   5.391   9.551   2.914  0.1158  0.5668  0.0166
  955MOL0     C28853   5.295   9.463   2.842 -0.2994  0.1955 -0.7309
  955MOL0     C28854   5.218   9.405   2.768 -1.4572  0.1701 -0.0239
  955MOL0     C28855   6.056   9.610   2.761  0.0856  0.0819 -0.4446
  955MOL0     C28856   6.194   9.610   2.743 -0.4784  0.4968  0.0702
  955MOL0     C28857   6.253   9.710   2.652  0.6511 -0.9302  0.0606
  955MOL0     H28858   6.604   9.533   3.025 -2.1773 -1.6239 -1.8902
  955MOL0     H28859   6.859   9.530   3.058 -1.5625  3.6834  1.8350
  955MOL0     H28860   7.117   9.734   2.772  0.4807 -0.5654  0.7535
  955MOL0     H28861   7.054   9.812   2.922 -1.0469 -0.0779  0.5348
  955MOL0     H28862   7.271   9.614   2.965  2.5275  0.2872 -0.0886
  955MOL0     H28863   7.222   9.770   3.038  0.3629  2.9554 -1.5500
  955MOL0     H28864   7.417   9.849   2.936  1.6453 -0.2425 -1.6192
  955MOL0     H28865   7.292   9.886   2.827  1.5737  2.4178  1.7528
  955MOL0     H28866   7.376   9.633   2.747  1.2695 -0.0408 -0.7584
  955MOL0     H28867   7.427   9.775   2.663  1.0614 -2.1004 -2.3357
  955MOL0     H28868   7.590   9.667   2.893 -0.6840 -3.2434 -1.0312
  955MOL0     H28869   7.623   9.629   2.727  0.4220  0.6782  0.0933
  955MOL0     H28870   7.681   9.832   2.659 -0.1877 -0.3819 -0.7185
  955MOL0     H28871   7.592   9.927   2.790 -0.3964 -0.8600 -0.3849
  955MOL0     H28872   7.815   9.734   2.870  0.2573 -0.1932 -0.6084
  955MOL0     H28873   7.758   9.876   2.963  0.5710 -1.6462  0.8782
  955MOL0     H28874   7.919   9.856   2.704  1.6362 -0.7356  1.2313
  955MOL0     H28875   7.852  10.015   2.765  1.8620 -0.8182 -2.0186
  955MOL0     H28876   8.148   9.795   2.833  0.0375  0.1208 -0.6571
  955MOL0     H28877   8.319   9.845   3.136  0.2125 -0.0623 -0.0690
  955MOL0     H28878   8.334   9.795   2.968  2.1789  0.1000 -0.0294
  955MOL0     H28879   8.384  10.012   2.893 -0.5565 -1.7550 -0.2170
  955MOL0     H28880   8.330  10.085   3.047 -2.2178 -1.2318 -0.7787
  955MOL0     H28881   8.505   9.973   3.161 -3.7683 -2.3356 -1.3531
  955MOL0     H28882   8.560  10.113   3.067 -0.2351  0.9687  0.9485
  955MOL0     H28883   8.576   9.851   2.925  1.4973 -1.3000  0.3079
  955MOL0     H28884   8.704   9.874   3.042 -0.1516 -0.8545  1.2223
  955MOL0     H28885   8.808  10.220   2.774 -0.8035  1.8310  1.3939
  955MOL0     H28886   9.010  10.337   2.829  0.2304  0.8612  1.9747
  955MOL0     H28887   9.258  10.336   3.381  0.6551  0.9020  2.0740
  955MOL0     H28888   9.387  10.493   3.468 -4.7175 -3.1682 -0.3141
  955MOL0     H28889   9.504  10.675   3.531 -0.6214 -0.1125  0.1369
  955MOL0     H28890   9.618  10.543   3.547 -0.5914  0.7124  1.0854
  955MOL0     H28891   9.676  10.845   3.498  0.7069  0.3505  0.8308
  955MOL0     H28892   9.692  10.781   3.659 -1.6852 -0.2610  0.5159
  955MOL0     H28893   9.889  10.634   3.560  0.5986 -0.5024 -0.4992
  955MOL0     H28894   9.872  10.711   3.409 -2.2125 -0.9608  0.0904
  955MOL0     H28895   9.912  10.879   3.655  1.0894 -2.3622 -0.0601
  955MOL0     H28896   9.940  10.937   3.491 -0.1262  0.9227  0.5118
  955MOL0     H28897  10.123  10.807   3.441 -0.2542  0.3770 -1.1930
  955MOL0     H28898  10.111  10.705   3.590 -3.3876 -1.0579 -3.2305
  955MOL0     H28899  10.148  11.009   3.583 -0.2052 -0.3535 -0.4068
  955MOL0     H28900  10.179  10.909   3.723  1.5781 -1.6928  0.2464
  955MOL0     H28901  10.385  10.808   3.582  0.5823 -0.4884  1.9416
  955MOL0     H28902  10.383  10.970   3.655 -1.2410 -2.6407  2.6767
  955MOL0     H28903  10.343  10.890   3.368  1.9989 -0.4900 -0.2320
  955MOL0     H28904  10.310  11.060   3.432  2.3488  2.3417  3.1389
  955MOL0     H28905   9.608  10.565   3.097 -1.2369  0.1680 -0.9018
  955MOL0     H28906   9.448  10.399   2.990  1.1614 -1.7003  0.4302
  955MOL0     H28907   9.058  10.103   3.187 -2.3085 -1.4045  0.5534
  955MOL0     H28908   8.839  10.013   3.155  2.1650 -2.3402 -0.6149
  955MOL0     H28909   6.919   9.702   2.680  0.4361 -2.1310 -0.1851
  955MOL0     H28910   6.687   9.674   2.618  2.3272 -0.3164 -1.9859
  955MOL0     H28911   6.237   9.300   2.882  1.2248  1.0668 -0.7293
  955MOL0     H28912   6.003   9.317   2.918 -1.4882  1.5197  1.2769
  955MOL0     H28913   5.740   9.671   2.748  2.7095  1.9411 -0.2717
  955MOL0     H28914   5.826   9.715   2.897 -0.2863  0.6652 -0.7198
  955MOL0     H28915   5.590   9.732   2.928  0.1798 -0.0747 -0.8928
  955MOL0     H28916   5.647   9.608   3.027 -0.5440  1.5631  0.7863
  955MOL0     H28917   5.570   9.433   2.874 -0.4896 -0.2722  2.5613
  955MOL0     H28918   5.538   9.557   2.746  0.4729  1.5259  0.2272
  955MOL0     H28919   5.401   9.523   3.019 -1.7776  3.5223  1.1259
  955MOL0     H28920   5.352   9.653   2.913 -1.1841  0.0867 -1.2520
  955MOL0     H28921   5.148   9.353   2.707 -1.4350  0.2099 -0.0830
  955MOL0     H28922   6.009   9.694   2.710 -0.5476 -1.7678 -3.1121
  955MOL0     H28923   6.302   9.789   2.710  4.8923 -4.2333  1.4948
  955MOL0     H28924   6.337   9.652   2.612 -0.5206 -4.5468  2.3700
  955MOL0     H28925   6.180   9.746   2.579  0.5585 -0.4860  0.3661
  956MOL0     O28926   0.467   7.614   4.858 -0.2034  0.0218 -0.4686
  956MOL0     C28927   0.408   7.674   4.773 -0.9698  0.8522  0.3907
  956MOL0     O28928   0.459   7.780   4.696 -0.7188  0.6168  0.9960
  956MOL0     C28929   0.588   7.824   4.688  0.4056 -0.6374  0.1279
  956MOL0     C28930   0.701   7.754   4.719 -0.7415  0.2791 -0.5640
  956MOL0     C28931   0.831   7.804   4.695  0.7893 -0.6239 -1.1727
  956MOL0     C28932   0.847   7.922   4.627 -0.0751 -0.4983 -0.5485
  956MOL0     O28933   0.968   7.974   4.594  0.2123  0.7801  0.5650
  956MOL0     C28934   1.072   7.882   4.551  0.7877 -1.0646 -0.4060
  956MOL0     C28935   1.201   7.950   4.510 -1.0496  0.0601 -0.5389
  956MOL0     C28936   1.192   8.018   4.378 -0.6243  0.0824  0.6994
  956MOL0     C28937   1.306   7.984   4.286 -0.8285  0.6930 -0.1299
  956MOL0     C28938   1.440   8.029   4.342 -0.1313 -0.0987 -0.2231
  956MOL0     C28939   1.534   8.053   4.230  0.2240 -0.2858  0.4319
  956MOL0     C28940   1.672   8.079   4.282 -0.1292 -0.9187 -0.3294
  956MOL0     C28941   1.785   8.038   4.186  0.1686  0.0906  0.3990
  956MOL0     N28942   1.909   8.072   4.249 -0.4750  0.0839 -0.0917
  956MOL0     C28943   1.986   8.175   4.209 -0.0268 -0.2163  1.1167
  956MOL0     C28944   2.086   8.168   4.297  0.0433 -0.4348  1.2449
  956MOL0     C28945   2.195   8.270   4.285 -0.3168  0.6602 -0.9595
  956MOL0     C28946   2.322   8.223   4.221  0.3444  0.3886  0.5287
  956MOL0     C28947   2.433   8.314   4.236 -0.0376  0.1745  0.6478
  956MOL0     C28948   2.558   8.237   4.187  0.2092 -0.3012 -0.0201
  956MOL0     O28949   2.652   8.322   4.130 -0.8939 -0.8965  0.0750
  956MOL0     C28950   2.782   8.292   4.092  0.5507  0.2709  0.1714
  956MOL0     C28951   2.822   8.175   4.026 -0.3586  0.3529 -0.6340
  956MOL0     C28952   2.948   8.148   3.979 -0.2003  0.6300  0.7574
  956MOL0     C28953   3.047   8.251   3.992 -0.2490 -0.0004  0.5741
  956MOL0     C28954   3.176   8.227   3.932 -0.3165  0.2546  0.5623
  956MOL0     O28955   3.274   8.323   3.930 -0.5161 -0.3703 -0.4318
  956MOL0     C28956   3.372   8.340   3.829  0.0292 -0.0133 -0.2810
  956MOL0     C28957   3.373   8.263   3.713 -0.7354 -0.4609  0.6498
  956MOL0     C28958   3.481   8.286   3.622  0.3165 -0.6776 -0.0857
  956MOL0     C28959   3.585   8.380   3.636  0.2576 -0.1850  0.7211
  956MOL0     O28960   3.671   8.385   3.527  0.3221 -0.2819 -0.1926
  956MOL0     C28961   3.778   8.474   3.520  0.9882 -0.2755 -0.0935
  956MOL0     C28962   3.852   8.462   3.384 -0.1100  0.3019 -0.9259
  956MOL0     C28963   3.983   8.542   3.387 -0.5979 -0.0797 -1.1004
  956MOL0     C28964   4.092   8.491   3.481 -0.2309 -0.0379  0.5073
  956MOL0     C28965   4.226   8.527   3.425  0.0559 -0.7109  0.7261
  956MOL0     C28966   4.347   8.484   3.508 -0.2230  0.5432 -0.1835
  956MOL0     C28967   4.475   8.519   3.445  0.0636 -0.2092 -0.8694
  956MOL0     C28968   4.594   8.443   3.511  0.6585  0.0975  0.5326
  956MOL0    Cl28969   4.594   8.276   3.467 -0.1007 -0.0551  0.5751
  956MOL0     C28970   3.586   8.447   3.756  0.4646  0.1232 -0.0698
  956MOL0     C28971   3.484   8.416   3.852 -0.0094 -0.4601 -0.4013
  956MOL0     O28972   3.188   8.123   3.870  0.6581  0.3767 -0.0452
  956MOL0     C28973   3.011   8.366   4.055  0.2804 -0.6037  0.5033
  956MOL0     C28974   2.880   8.386   4.105  1.0681  0.6156 -0.0829
  956MOL0     N28975   2.079   8.057   4.378  0.3772 -0.1764  0.6672
  956MOL0     N28976   1.964   8.007   4.357 -0.0462 -0.3558  0.2804
  956MOL0     C28977   0.735   7.998   4.597 -0.2634  0.4424  0.4360
  956MOL0     C28978   0.613   7.950   4.633  0.5318  0.3162 -0.1943
  956MOL0     C28979   0.253   7.655   4.762 -0.5104  0.1565 -0.3172
  956MOL0     C28980   0.173   7.748   4.685 -0.3601  0.4558 -0.8616
  956MOL0     C28981   0.033   7.742   4.683 -0.2702 -0.7095 -0.9580
  956MOL0     C28982  -0.026   7.630   4.748  0.3190 -0.7535 -0.1105
  956MOL0     O28983  -0.165   7.649   4.752 -0.1183 -0.0390  0.6629
  956MOL0     C28984  -0.244   7.534   4.761 -0.3717  0.5071  0.3911
  956MOL0     C28985  -0.270   7.462   4.631  0.0736  0.8995 -0.2495
  956MOL0     C28986  -0.365   7.342   4.657 -0.5824  0.5571 -0.2145
  956MOL0     C28987  -0.509   7.378   4.697  1.0353  0.4816  0.2415
  956MOL0     C28988  -0.580   7.248   4.715 -0.6001 -0.7050 -1.1144
  956MOL0     C28989  -0.624   7.138   4.714 -0.0269  0.4098 -0.6355
  956MOL0     C28990   0.057   7.540   4.825 -0.1157 -0.1748  0.5290
  956MOL0     C28991   0.190   7.544   4.826 -0.3389  0.2657  1.1169
  956MOL0     C28992   0.266   7.426   4.893 -0.0481  0.0895  0.5093
  956MOL0     H28993   0.707   7.662   4.778  0.2122  0.0869 -0.9311
  956MOL0     H28994   0.912   7.741   4.733  1.1351  0.3059 -0.3145
  956MOL0     H28995   1.097   7.818   4.636 -2.5379 -2.0743 -0.0629
  956MOL0     H28996   1.020   7.830   4.471 -0.2367  0.5714 -0.8548
  956MOL0     H28997   1.279   7.873   4.518 -1.5032 -0.2978  0.6190
  956MOL0     H28998   1.227   8.036   4.572 -2.4871  0.6079 -0.6431
  956MOL0     H28999   1.191   8.126   4.398  1.2508 -0.1096  2.1061
  956MOL0     H29000   1.094   7.996   4.336  0.2396 -2.0077 -0.3787
  956MOL0     H29001   1.305   7.876   4.269 -1.5338  1.1631 -4.0644
  956MOL0     H29002   1.282   8.038   4.194  2.5992  0.0832 -1.5672
  956MOL0     H29003   1.415   8.125   4.389 -1.1918 -1.0187  1.1527
  956MOL0     H29004   1.462   7.945   4.408 -3.1597 -1.0885 -0.3069
  956MOL0     H29005   1.534   7.958   4.177 -1.3799  0.9557 -1.9884
  956MOL0     H29006   1.498   8.121   4.152  0.6797  1.5347  1.7345
  956MOL0     H29007   1.683   8.021   4.374 -0.5834 -1.7174 -0.7686
  956MOL0     H29008   1.697   8.185   4.295  6.8465 -2.1396  0.3422
  956MOL0     H29009   1.784   7.929   4.174  1.8642 -0.0583  1.2462
  956MOL0     H29010   1.784   8.094   4.092  0.0883 -0.4889  0.0472
  956MOL0     H29011   1.967   8.251   4.133 -0.2109  0.0969  1.4720
  956MOL0     H29012   2.174   8.363   4.232 -1.1356  2.2147  1.8640
  956MOL0     H29013   2.227   8.292   4.388 -1.2126 -2.8867  0.2271
  956MOL0     H29014   2.352   8.120   4.244 -1.4552 -0.4371 -0.6273
  956MOL0     H29015   2.297   8.218   4.115  3.4493 -2.0511 -0.2373
  956MOL0     H29016   2.439   8.340   4.342 -1.4443 -2.4137  1.4316
  956MOL0     H29017   2.410   8.405   4.180  0.1869 -0.3619 -0.3422
  956MOL0     H29018   2.534   8.157   4.117  2.0058 -1.7824  0.9585
  956MOL0     H29019   2.611   8.186   4.268  0.5298 -0.4988 -0.3506
  956MOL0     H29020   2.737   8.117   3.990 -1.9057  2.6368 -0.8766
  956MOL0     H29021   2.961   8.056   3.923  2.3176  1.6379 -0.4955
  956MOL0     H29022   3.298   8.197   3.670 -1.1240  1.0674 -1.1470
  956MOL0     H29023   3.478   8.238   3.524 -1.6769 -1.0057  0.0959
  956MOL0     H29024   3.749   8.575   3.549 -2.5955 -1.1878 -0.1181
  956MOL0     H29025   3.845   8.445   3.601  0.1069  1.7482  1.4302
  956MOL0     H29026   3.878   8.357   3.371  1.3074  0.4697  0.3030
  956MOL0     H29027   3.788   8.507   3.308 -0.0919  0.7003 -0.7077
  956MOL0     H29028   4.024   8.549   3.285  5.1623  2.5403  0.9802
  956MOL0     H29029   3.951   8.638   3.427 -2.6450 -1.2956  0.3901
  956MOL0     H29030   4.080   8.383   3.498 -0.0525 -0.2584 -0.6167
  956MOL0     H29031   4.079   8.550   3.571 -1.5804  4.6404 -2.4209
  956MOL0     H29032   4.234   8.635   3.410 -0.8288 -0.7922 -0.4481
  956MOL0     H29033   4.232   8.469   3.333 -0.8876 -2.4745  1.7133
  956MOL0     H29034   4.343   8.540   3.602  3.4653  0.1286  0.4054
  956MOL0     H29035   4.345   8.378   3.536 -1.8668  0.6797  0.2989
  956MOL0     H29036   4.485   8.623   3.475  0.8715 -1.5037  4.2148
  956MOL0     H29037   4.474   8.502   3.336 -0.7775  1.5299 -1.1705
  956MOL0     H29038   4.686   8.493   3.480  0.4564 -1.5592 -3.2019
  956MOL0     H29039   4.593   8.451   3.620  2.8020  1.4962  0.5086
  956MOL0     H29040   3.654   8.525   3.790  0.6453 -1.8788  5.0481
  956MOL0     H29041   3.488   8.472   3.945 -3.0953  0.5270 -0.7363
  956MOL0     H29042   3.080   8.445   4.081  2.1366 -2.0407  0.1309
  956MOL0     H29043   2.869   8.484   4.150  4.1906  0.1607  1.9699
  956MOL0     H29044   0.752   8.091   4.544  2.2902 -0.2365 -0.0839
  956MOL0     H29045   0.520   7.996   4.601 -0.2878  0.2176  1.9058
  956MOL0     H29046   0.226   7.833   4.643 -0.2642  1.2114  0.7094
  956MOL0     H29047  -0.024   7.821   4.634 -1.7151  0.4449  2.2743
  956MOL0     H29048  -0.340   7.583   4.785 -0.7724 -0.6537  1.2475
  956MOL0     H29049  -0.216   7.458   4.835  3.2263 -1.5051 -2.6996
  956MOL0     H29050  -0.173   7.414   4.610 -0.5212 -0.3342 -0.2737
  956MOL0     H29051  -0.304   7.523   4.547  0.8457  0.5290 -0.8542
  956MOL0     H29052  -0.318   7.284   4.737 -0.4632  1.8837  0.7127
  956MOL0     H29053  -0.361   7.272   4.573 -2.9592  0.6755 -0.4850
  956MOL0     H29054  -0.522   7.442   4.784 -1.4749 -3.3186  3.0249
  956MOL0     H29055  -0.571   7.423   4.619  1.1245 -1.7283 -1.2181
  956MOL0     H29056  -0.648   7.034   4.727  1.8124  0.1895  1.5564
  956MOL0     H29057   0.010   7.466   4.888 -1.4227  0.7651  0.7132
  956MOL0     H29058   0.347   7.382   4.834 -1.0486  0.5495 -1.2984
  956MOL0     H29059   0.308   7.449   4.991 -2.1731 -3.2917  2.4295
  956MOL0     H29060   0.201   7.339   4.913  0.7591 -0.7626 -0.4722
  957MOL0     O29061   2.117   0.964   6.121 -0.3342 -0.1856 -0.7782
  957MOL0     C29062   2.047   1.010   6.211  0.5924 -1.4875 -0.2978
  957MOL0     O29063   2.090   1.119   6.283 -0.2727  0.0769  0.1980
  957MOL0     C29064   2.220   1.141   6.286 -0.6267  0.0214  0.0887
  957MOL0     C29065   2.308   1.087   6.382 -0.5304  0.0562  0.1870
  957MOL0     C29066   2.450   1.115   6.372 -0.0261 -0.0487 -1.0701
  957MOL0     C29067   2.488   1.196   6.262 -1.0784  0.0627  0.3851
  957MOL0     O29068   2.621   1.232   6.249 -0.4520 -0.8414 -0.1812
  957MOL0     C29069   2.660   1.344   6.329  0.4274 -1.3441  0.3233
  957MOL0     C29070   2.730   1.431   6.232 -0.4262  0.4262 -0.1868
  957MOL0     C29071   2.866   1.402   6.181 -0.0881 -0.4919 -0.2999
  957MOL0     C29072   2.942   1.521   6.117 -0.3044 -0.1246 -0.1730
  957MOL0     C29073   3.075   1.491   6.063 -0.3761  0.4227 -0.4191
  957MOL0     C29074   3.132   1.602   5.975 -0.4613  0.7883  0.8572
  957MOL0     C29075   3.274   1.565   5.923 -0.4533  0.1982  0.7669
  957MOL0     C29076   3.395   1.619   6.015  0.5070 -0.1456 -1.1779
  957MOL0     N29077   3.433   1.530   6.127 -0.3697 -0.0522 -0.4636
  957MOL0     C29078   3.454   1.400   6.128  0.6617  1.9183  0.9646
  957MOL0     C29079   3.491   1.366   6.253 -0.3784 -0.6562 -0.0148
  957MOL0     C29080   3.529   1.241   6.310 -0.3519  0.0447 -0.6375
  957MOL0     C29081   3.689   1.225   6.302  0.3257  0.1340  0.4598
  957MOL0     C29082   3.736   1.194   6.162 -0.8522 -0.0886 -0.3887
  957MOL0     C29083   3.880   1.144   6.155 -0.1473 -0.2693 -0.3576
  957MOL0     O29084   3.958   1.224   6.245 -0.0979 -0.1047  0.2008
  957MOL0     C29085   4.088   1.193   6.245 -0.0495  0.0258 -0.1093
  957MOL0     C29086   4.147   1.072   6.195 -0.4096 -1.2507 -0.0536
  957MOL0     C29087   4.281   1.045   6.205 -0.3899 -0.3844  0.4127
  957MOL0     C29088   4.361   1.137   6.273  0.5918 -0.6119  0.8042
  957MOL0     C29089   4.501   1.103   6.303  0.2731  0.2132 -0.7800
  957MOL0     O29090   4.567   1.181   6.403  0.3123  0.3736 -0.1085
  957MOL0     C29091   4.695   1.152   6.445  1.3336  0.3811 -0.0526
  957MOL0     C29092   4.729   1.135   6.579 -0.9228 -0.0466 -0.2998
  957MOL0     C29093   4.867   1.116   6.604 -0.7703 -0.7531 -0.0099
  957MOL0     C29094   4.969   1.130   6.510  0.0174 -0.4610  0.6162
  957MOL0     O29095   5.088   1.094   6.555 -0.2810 -0.6045  0.0213
  957MOL0     C29096   5.204   1.105   6.473 -0.0939  0.2079 -0.6605
  957MOL0     C29097   5.326   1.080   6.567  0.4017 -0.1393  0.8390
  957MOL0     C29098   5.462   1.092   6.496 -0.1482  0.2963  0.2052
  957MOL0     C29099   5.567   1.037   6.599  0.1696 -0.7762  0.4395
  957MOL0     C29100   5.552   0.884   6.622  0.6010 -0.0644  0.1515
  957MOL0     C29101   5.676   0.812   6.685  0.1363  0.3005  0.0675
  957MOL0     C29102   5.811   0.867   6.666 -0.4734 -0.2083  0.1357
  957MOL0     C29103   5.926   0.759   6.674  0.7265 -0.0626  0.6189
  957MOL0    Cl29104   6.082   0.845   6.691 -0.1242 -0.0308 -0.0647
  957MOL0     C29105   4.925   1.150   6.378  0.0234  0.3097  0.5139
  957MOL0     C29106   4.792   1.161   6.351 -0.6472  0.5286  0.1874
  957MOL0     O29107   4.544   0.993   6.253 -0.2384  0.9104  0.4522
  957MOL0     C29108   4.313   1.258   6.324 -0.1225 -0.6767 -0.6087
  957MOL0     C29109   4.172   1.286   6.307  0.0343 -0.0843  0.1801
  957MOL0     N29110   3.501   1.485   6.330 -0.0615 -0.9574  0.0457
  957MOL0     N29111   3.448   1.576   6.255 -0.8649  0.1120  0.7445
  957MOL0     C29112   2.396   1.245   6.168 -0.1634 -0.7822 -1.3437
  957MOL0     C29113   2.262   1.220   6.186 -0.3224 -0.1269 -0.3711
  957MOL0     C29114   1.904   0.968   6.213  0.1645  0.9881 -0.1252
  957MOL0     C29115   1.859   0.864   6.135  0.4889 -0.2998  0.8033
  957MOL0     C29116   1.728   0.812   6.148  0.1910 -0.0642  0.1235
  957MOL0     C29117   1.643   0.853   6.244 -0.2055 -0.3503  0.5478
  957MOL0     O29118   1.522   0.793   6.268  0.3847 -0.0668  0.0090
  957MOL0     C29119   1.537   0.674   6.347  0.2182  0.7457  0.2323
  957MOL0     C29120   1.402   0.615   6.379  0.2336  0.0143 -0.0128
  957MOL0     C29121   1.291   0.628   6.270 -1.0969 -0.6625  0.4536
  957MOL0     C29122   1.166   0.554   6.309 -0.5484  0.3765  0.8898
  957MOL0     C29123   1.090   0.522   6.187 -0.0095 -1.2344 -0.1314
  957MOL0     C29124   1.028   0.487   6.092  0.9986 -0.5830  0.4816
  957MOL0     C29125   1.690   0.954   6.331  0.0904  0.2108  0.5498
  957MOL0     C29126   1.816   1.012   6.321 -0.6349 -0.4889 -0.5409
  957MOL0     C29127   1.840   1.107   6.435 -0.6895 -0.2850 -0.2474
  957MOL0     H29128   2.277   1.016   6.457  1.7241  0.1212  1.2482
  957MOL0     H29129   2.528   1.079   6.438  1.8285 -1.2071 -3.7496
  957MOL0     H29130   2.576   1.406   6.360  1.7139  1.6431 -1.7385
  957MOL0     H29131   2.727   1.320   6.412  1.2262 -1.8319 -0.4387
  957MOL0     H29132   2.731   1.531   6.277 -3.9097 -0.5709  2.6203
  957MOL0     H29133   2.660   1.438   6.148 -2.0033 -1.7622  0.8509
  957MOL0     H29134   2.857   1.324   6.104  3.0782 -3.6228  2.1807
  957MOL0     H29135   2.926   1.352   6.257 -0.1108 -0.2878 -0.1476
  957MOL0     H29136   2.884   1.543   6.027 -0.1114 -0.3301 -0.3455
  957MOL0     H29137   2.936   1.609   6.181 -3.3054 -0.5994  0.3852
  957MOL0     H29138   3.152   1.485   6.140 -1.3192 -0.7583  0.4592
  957MOL0     H29139   3.074   1.401   6.001  1.7117  1.5960 -2.3122
  957MOL0     H29140   3.062   1.606   5.891 -0.1386 -2.7556  0.2598
  957MOL0     H29141   3.135   1.702   6.018  0.4239  1.2841 -0.3079
  957MOL0     H29142   3.292   1.612   5.826  3.6566 -0.8793  0.8362
  957MOL0     H29143   3.272   1.456   5.918 -0.2263  0.1944 -4.6511
  957MOL0     H29144   3.483   1.632   5.951  0.8814  1.5959 -0.3702
  957MOL0     H29145   3.378   1.724   6.041  0.4383 -0.3954 -0.1924
  957MOL0     H29146   3.439   1.338   6.040  0.8001  0.3194  2.0235
  957MOL0     H29147   3.504   1.239   6.416  1.2159  0.9091 -0.2046
  957MOL0     H29148   3.464   1.167   6.264 -0.8669 -1.8141  2.7250
  957MOL0     H29149   3.741   1.314   6.339 -0.2228 -0.4116  2.7089
  957MOL0     H29150   3.719   1.140   6.364 -2.6705 -0.6006  1.0685
  957MOL0     H29151   3.732   1.290   6.111  0.1078  0.0934 -0.1384
  957MOL0     H29152   3.668   1.116   6.125 -0.6399  0.1519 -1.3148
  957MOL0     H29153   3.923   1.158   6.056 -1.3624  1.0568 -0.7231
  957MOL0     H29154   3.878   1.041   6.191  2.9574 -0.4185 -0.2824
  957MOL0     H29155   4.097   0.986   6.153 -0.0598 -0.2127 -2.8659
  957MOL0     H29156   4.312   0.951   6.161 -0.2726 -0.3050  0.3256
  957MOL0     H29157   4.653   1.144   6.657  1.8793  2.5808  2.3772
  957MOL0     H29158   4.911   1.093   6.701 -0.3156  1.1934  0.2889
  957MOL0     H29159   5.222   1.021   6.406  1.0352 -0.8518  0.8871
  957MOL0     H29160   5.216   1.202   6.424  0.1647 -0.2966 -1.6250
  957MOL0     H29161   5.318   1.148   6.653 -1.4834  0.0012  0.5950
  957MOL0     H29162   5.309   0.981   6.609 -3.8311 -0.8324 -1.8865
  957MOL0     H29163   5.459   1.033   6.405  1.4613 -1.0092  0.9513
  957MOL0     H29164   5.474   1.198   6.470 -2.0768  0.4096 -0.3488
  957MOL0     H29165   5.558   1.097   6.689  1.7202  0.0794  0.0681
  957MOL0     H29166   5.666   1.053   6.554 -0.0436 -0.1067  0.2055
  957MOL0     H29167   5.547   0.836   6.524 -2.0525  0.9410 -0.2754
  957MOL0     H29168   5.466   0.865   6.686  1.4308 -2.7519  0.5816
  957MOL0     H29169   5.664   0.807   6.794  2.0399 -1.1685  0.2614
  957MOL0     H29170   5.677   0.708   6.650 -2.3308 -0.1554  1.1199
  957MOL0     H29171   5.828   0.944   6.742 -3.6973 -0.0423  0.8131
  957MOL0     H29172   5.809   0.909   6.565 -1.7321  2.5080  1.1951
  957MOL0     H29173   5.903   0.689   6.754 -1.2980 -1.5534 -1.1527
  957MOL0     H29174   5.922   0.706   6.579 -3.1671 -1.9365  1.6260
  957MOL0     H29175   4.994   1.156   6.295 -1.0087 -1.9123 -0.6062
  957MOL0     H29176   4.770   1.186   6.248  0.2914  0.4080 -0.0526
  957MOL0     H29177   4.375   1.328   6.379  3.0172 -3.4168 -0.3209
  957MOL0     H29178   4.118   1.370   6.346  1.9668  1.6216 -0.6185
  957MOL0     H29179   2.429   1.312   6.090  3.3583  0.0084  0.6288
  957MOL0     H29180   2.194   1.240   6.103  0.0272 -1.7117 -1.0775
  957MOL0     H29181   1.920   0.828   6.053  2.1714  0.7259  1.5452
  957MOL0     H29182   1.686   0.740   6.078  2.9486 -3.0396  1.2682
  957MOL0     H29183   1.589   0.699   6.440  1.3876 -0.7616  0.0169
  957MOL0     H29184   1.591   0.598   6.291 -0.3143 -1.0329  2.0341
  957MOL0     H29185   1.370   0.668   6.469  0.5510  1.7832 -0.8895
  957MOL0     H29186   1.413   0.508   6.395  0.3185 -0.1090 -0.8495
  957MOL0     H29187   1.339   0.585   6.182 -1.4071  1.1352 -0.6509
  957MOL0     H29188   1.260   0.732   6.252  3.6442  0.9115  0.0444
  957MOL0     H29189   1.189   0.457   6.353  0.8768 -0.4176 -1.4658
  957MOL0     H29190   1.111   0.620   6.378  2.0086  0.0490  3.4428
  957MOL0     H29191   0.979   0.463   5.999  1.5813 -0.2231  0.0750
  957MOL0     H29192   1.623   0.987   6.410  1.9312 -0.5701  2.5584
  957MOL0     H29193   1.787   1.091   6.530 -0.0157 -1.1159  0.0037
  957MOL0     H29194   1.944   1.105   6.466 -1.1522  1.8108  1.7075
  957MOL0     H29195   1.811   1.203   6.391 -1.5782 -0.3249  0.2244
  958MOL0     O29196   5.140   3.232   9.685  0.0888 -0.8783  0.0102
  958MOL0     C29197   5.183   3.125   9.642 -1.3235  0.4818 -0.2738
  958MOL0     O29198   5.309   3.074   9.669 -0.6229  0.2166 -0.2429
  958MOL0     C29199   5.404   3.168   9.714 -0.8652  0.7782 -0.1239
  958MOL0     C29200   5.459   3.156   9.844  0.8029 -0.4741 -0.1771
  958MOL0     C29201   5.548   3.247   9.891  0.3959  0.3187  0.8940
  958MOL0     C29202   5.584   3.357   9.808  0.3651 -0.2523  0.3241
  958MOL0     O29203   5.686   3.426   9.864  0.4836  0.3828 -0.2311
  958MOL0     C29204   5.730   3.533   9.793  0.3122  1.1718  0.3402
  958MOL0     C29205   5.816   3.616   9.888 -0.0001  0.1957 -0.4891
  958MOL0     C29206   5.964   3.588   9.870 -0.6873  0.3554  0.3766
  958MOL0     C29207   6.040   3.699   9.939 -0.6162 -0.0904  0.1450
  958MOL0     C29208   6.190   3.682   9.945  0.0003 -0.5429  0.2906
  958MOL0     C29209   6.259   3.764  10.052 -0.8140  0.0277  0.2093
  958MOL0     C29210   6.395   3.804  10.017 -0.3257  0.4845 -0.0623
  958MOL0     C29211   6.443   3.938  10.080  0.1299  0.0197  0.5545
  958MOL0     N29212   6.588   3.968  10.047 -0.7110 -0.7057 -0.4542
  958MOL0     C29213   6.621   4.028   9.928  0.3939  0.5426 -0.1022
  958MOL0     C29214   6.758   4.020   9.923  0.1229  0.4649  0.3205
  958MOL0     C29215   6.839   4.064   9.802 -0.3305  0.1906  1.1382
  958MOL0     C29216   6.891   4.209   9.801 -0.9888 -0.1388 -0.1071
  958MOL0     C29217   7.022   4.218   9.728  0.5383  0.9855 -0.1056
  958MOL0     C29218   7.088   4.349   9.725 -0.1654 -0.3410  0.1860
  958MOL0     O29219   7.130   4.385   9.851  1.1653 -0.1276  0.3986
  958MOL0     C29220   7.257   4.426   9.863 -0.0881  1.4093  0.0668
  958MOL0     C29221   7.294   4.443   9.994 -0.9416  0.3630 -0.7653
  958MOL0     C29222   7.420   4.504  10.027  1.2659  0.1826 -0.1013
  958MOL0     C29223   7.503   4.554   9.930 -0.4681  0.3008  0.1943
  958MOL0     C29224   7.621   4.637   9.971  0.2967  1.0678  0.7692
  958MOL0     O29225   7.673   4.726   9.881  0.3191 -0.4982  0.2047
  958MOL0     C29226   7.793   4.786   9.903 -0.0675  0.0325  0.3113
  958MOL0     C29227   7.810   4.916   9.861  0.5039 -0.8625 -0.3113
  958MOL0     C29228   7.932   4.987   9.889 -0.2800 -0.2459  0.4956
  958MOL0     C29229   8.041   4.922   9.958  0.4057  0.5026  0.5532
  958MOL0     O29230   8.160   4.983   9.987  0.4122  0.5869  0.3780
  958MOL0     C29231   8.211   5.056   9.870  0.2858 -0.4219  0.4096
  958MOL0     C29232   8.212   5.206   9.906 -1.1245  1.0725 -0.0031
  958MOL0     C29233   8.267   5.289   9.791 -0.4384  0.2674 -0.3041
  958MOL0     C29234   8.274   5.436   9.829  0.1608  1.3551 -0.6029
  958MOL0     C29235   8.332   5.519   9.715 -0.5352  0.3868 -0.1195
  958MOL0     C29236   8.371   5.668   9.749  0.0120 -0.0317 -1.1252
  958MOL0     C29237   8.448   5.684   9.880  0.3802 -0.4557 -0.0417
  958MOL0     C29238   8.482   5.828   9.911  0.0071 -1.0349 -0.1931
  958MOL0    Cl29239   8.630   5.890   9.830 -0.0050  0.0685  0.1676
  958MOL0     C29240   8.022   4.792   9.997  0.8824 -0.0557  0.1923
  958MOL0     C29241   7.904   4.722   9.970 -0.7557  0.1250  0.7892
  958MOL0     O29242   7.647   4.641  10.086  0.2576 -0.2870 -0.2933
  958MOL0     C29243   7.467   4.542   9.793  0.7932 -0.5850  0.3386
  958MOL0     C29244   7.344   4.480   9.769  0.1146 -0.3415  0.1272
  958MOL0     N29245   6.811   3.965  10.039  1.1420  0.3335  1.2348
  958MOL0     N29246   6.709   3.921  10.100 -0.9332 -0.2087 -0.1675
  958MOL0     C29247   5.531   3.370   9.684  0.1254  0.4368  0.3800
  958MOL0     C29248   5.445   3.273   9.635 -0.8140  0.1920  0.4554
  958MOL0     C29249   5.099   3.024   9.569  0.9065  0.1292 -0.2769
  958MOL0     C29250   5.134   2.889   9.564 -0.0659  0.6778  1.1733
  958MOL0     C29251   5.052   2.788   9.507 -0.4472  0.4398 -0.5954
  958MOL0     C29252   4.924   2.825   9.470  0.2286 -0.7979  0.4344
  958MOL0     O29253   4.822   2.744   9.425 -0.1266  0.0277  0.1567
  958MOL0     C29254   4.865   2.611   9.384  0.1056 -0.2772 -0.6281
  958MOL0     C29255   4.754   2.512   9.370  0.2490 -0.1768  0.4775
  958MOL0     C29256   4.634   2.558   9.292  0.6191 -0.1415 -0.6636
  958MOL0     C29257   4.550   2.445   9.236 -0.5047  0.5920 -0.8270
  958MOL0     C29258   4.430   2.502   9.178 -0.4345  0.0451 -0.4447
  958MOL0     C29259   4.327   2.549   9.133  0.1861  1.3021 -0.4634
  958MOL0     C29260   4.893   2.961   9.457 -0.1213  0.1427  0.0233
  958MOL0     C29261   4.974   3.067   9.510  0.0510  0.5838 -0.4502
  958MOL0     C29262   4.927   3.207   9.484 -0.3168 -0.0962  0.7852
  958MOL0     H29263   5.442   3.068   9.906  3.7407 -1.1342 -0.1421
  958MOL0     H29264   5.592   3.248   9.990  0.6950  3.6262  0.8562
  958MOL0     H29265   5.782   3.497   9.704 -0.8729 -1.4583  0.6188
  958MOL0     H29266   5.652   3.598   9.752 -0.8225 -0.1196  0.3618
  958MOL0     H29267   5.791   3.603   9.994  1.5087 -0.5489 -0.2107
  958MOL0     H29268   5.801   3.721   9.859 -0.9743  1.4711  3.8828
  958MOL0     H29269   5.979   3.587   9.762  2.5136  2.7549  0.6527
  958MOL0     H29270   5.992   3.493   9.917 -3.1342  0.5484  2.5064
  958MOL0     H29271   6.010   3.795   9.896  0.8268  0.3194 -0.0234
  958MOL0     H29272   6.004   3.704  10.043  1.8287  1.3174  1.0151
  958MOL0     H29273   6.210   3.576   9.964 -0.9075 -1.5525 -3.4492
  958MOL0     H29274   6.227   3.703   9.844 -1.5466 -0.8605 -0.3725
  958MOL0     H29275   6.199   3.855  10.061 -0.3055  0.3620  0.2707
  958MOL0     H29276   6.258   3.717  10.150 -1.4292 -0.4701 -0.0243
  958MOL0     H29277   6.405   3.814   9.909  0.2051 -0.5399 -0.1250
  958MOL0     H29278   6.463   3.723  10.046 -1.4867 -0.6006 -0.2840
  958MOL0     H29279   6.391   4.031  10.057  1.9407  1.0645  0.4950
  958MOL0     H29280   6.439   3.935  10.189 -1.3427 -0.0841  0.5146
  958MOL0     H29281   6.557   4.079   9.856  0.1052 -3.1878 -2.7664
  958MOL0     H29282   6.921   3.993   9.794  1.5779  2.4080 -0.2624
  958MOL0     H29283   6.769   4.042   9.720 -0.2060  0.3218  0.9945
  958MOL0     H29284   6.826   4.285   9.755  0.2427  2.3466  1.9931
  958MOL0     H29285   6.915   4.257   9.896  2.0057 -1.2535 -0.1944
  958MOL0     H29286   7.005   4.173   9.630  0.3630  1.2193 -0.1813
  958MOL0     H29287   7.093   4.151   9.778  2.0289  1.7200 -1.1694
  958MOL0     H29288   7.019   4.419   9.677 -1.0552 -0.9816  0.4879
  958MOL0     H29289   7.178   4.331   9.666  1.3925 -0.6647  2.5367
  958MOL0     H29290   7.215   4.432  10.068  2.1484 -0.7554  2.7068
  958MOL0     H29291   7.442   4.526  10.131 -0.4990 -1.0121  0.5753
  958MOL0     H29292   7.731   4.968   9.808  1.1398  0.1419 -0.2992
  958MOL0     H29293   7.925   5.093   9.864 -3.5594 -0.4356  0.1409
  958MOL0     H29294   8.312   5.023   9.842  0.3919  0.3178 -0.1014
  958MOL0     H29295   8.146   5.046   9.783 -1.3230  0.9727  1.3848
  958MOL0     H29296   8.114   5.241   9.941 -1.2841 -0.7200  1.4972
  958MOL0     H29297   8.272   5.223   9.995 -2.8984  0.1802  1.4397
  958MOL0     H29298   8.369   5.251   9.778 -1.1733 -1.4195 -1.5053
  958MOL0     H29299   8.210   5.272   9.699  2.7027 -2.5678 -1.9509
  958MOL0     H29300   8.341   5.444   9.915  0.3241  3.3116 -0.8567
  958MOL0     H29301   8.172   5.472   9.845 -1.4122 -2.2400 -1.6183
  958MOL0     H29302   8.260   5.535   9.634  0.7814 -0.4850 -1.5166
  958MOL0     H29303   8.424   5.473   9.677  0.1739  1.6978 -0.0182
  958MOL0     H29304   8.429   5.708   9.665  0.9379 -0.1015 -0.5398
  958MOL0     H29305   8.283   5.732   9.750 -0.1011  0.1492  4.2002
  958MOL0     H29306   8.539   5.625   9.893  1.6354  1.0675 -1.5332
  958MOL0     H29307   8.385   5.655   9.965 -1.6034  3.8019  0.2035
  958MOL0     H29308   8.395   5.892   9.896 -0.4480 -2.2180 -3.4457
  958MOL0     H29309   8.513   5.839  10.015  1.7178 -2.4092 -0.5118
  958MOL0     H29310   8.098   4.727  10.040 -0.9915 -1.7719  1.0676
  958MOL0     H29311   7.889   4.619   9.999 -1.5957 -0.1233 -0.4467
  958MOL0     H29312   7.532   4.591   9.722 -1.8427  1.7650 -0.6739
  958MOL0     H29313   7.308   4.494   9.667  0.4045 -1.9099 -0.2127
  958MOL0     H29314   5.557   3.454   9.620  0.2736 -1.8417 -2.7491
  958MOL0     H29315   5.401   3.287   9.536  0.7054  3.5944  0.1394
  958MOL0     H29316   5.219   2.851   9.619 -0.1553 -2.1109 -0.4316
  958MOL0     H29317   5.093   2.688   9.510  0.7849  0.9470 -0.0307
  958MOL0     H29318   4.926   2.578   9.469 -0.8807  1.4811  0.8432
  958MOL0     H29319   4.932   2.616   9.298  0.9678 -1.5134 -0.0537
  958MOL0     H29320   4.713   2.505   9.471 -1.6511 -1.2281 -0.3210
  958MOL0     H29321   4.789   2.412   9.342  0.1456 -0.3785  1.0585
  958MOL0     H29322   4.657   2.629   9.211 -3.3690  1.6686 -0.4389
  958MOL0     H29323   4.577   2.622   9.359  2.4705  0.3831  0.4912
  958MOL0     H29324   4.615   2.399   9.160  0.8950  5.0952 -2.7491
  958MOL0     H29325   4.519   2.375   9.314 -0.4845 -0.3187 -1.6197
  958MOL0     H29326   4.240   2.596   9.093  1.4601  3.0567 -1.3206
  958MOL0     H29327   4.792   2.980   9.420  0.1857  0.0400 -0.8882
  958MOL0     H29328   4.892   3.248   9.579 -0.4146 -0.4682  0.9124
  958MOL0     H29329   5.012   3.268   9.453 -2.1910  1.5321 -1.4889
  958MOL0     H29330   4.840   3.210   9.417  0.4573 -1.7216 -0.3641
  959MOL0     O29331   7.704   1.351   5.563  0.0313  0.3584  0.2718
  959MOL0     C29332   7.699   1.353   5.682 -0.4470 -0.0683 -0.4570
  959MOL0     O29333   7.785   1.281   5.770  0.0165 -0.0581  0.3093
  959MOL0     C29334   7.898   1.228   5.712  0.0289  0.4394  1.0137
  959MOL0     C29335   7.915   1.094   5.690 -0.1287 -0.5496  0.5334
  959MOL0     C29336   8.019   1.039   5.617  0.1461  0.5474  0.4049
  959MOL0     C29337   8.114   1.122   5.562  0.3809  0.6191  0.8020
  959MOL0     O29338   8.217   1.057   5.488  0.5109 -0.4910 -0.5535
  959MOL0     C29339   8.348   1.120   5.492 -0.1880  1.0140  0.1106
  959MOL0     C29340   8.455   1.023   5.449 -0.2738 -0.3920 -0.0922
  959MOL0     C29341   8.450   0.987   5.299 -0.9547  0.4029  0.4511
  959MOL0     C29342   8.569   0.893   5.265  0.5486 -0.0468 -0.0892
  959MOL0     C29343   8.561   0.843   5.123 -0.6809  0.2906  0.1431
  959MOL0     C29344   8.674   0.741   5.098  0.9636 -0.5150  0.6209
  959MOL0     C29345   8.625   0.630   5.009  1.6132 -0.4599 -0.2976
  959MOL0     C29346   8.728   0.523   4.982  0.4765  0.1669 -0.0409
  959MOL0     N29347   8.832   0.582   4.904 -0.4680 -0.4839  0.0260
  959MOL0     C29348   8.839   0.609   4.767 -0.3071  0.0963 -0.5134
  959MOL0     C29349   8.969   0.628   4.734 -0.2815 -0.6948 -0.2651
  959MOL0     C29350   9.025   0.642   4.607  0.4053  0.5562 -0.5056
  959MOL0     C29351   8.985   0.770   4.528  0.1015  1.0160  0.1307
  959MOL0     C29352   9.066   0.898   4.562  0.0657  0.0417  0.4121
  959MOL0     C29353   9.196   0.917   4.477  0.2645  0.1742 -0.7051
  959MOL0     O29354   9.275   1.018   4.532  0.6217 -0.2637 -0.2107
  959MOL0     C29355   9.407   1.044   4.493 -0.8868  0.4539 -0.4092
  959MOL0     C29356   9.481   1.140   4.562 -0.3026 -0.1554 -0.3365
  959MOL0     C29357   9.613   1.174   4.517 -0.0426 -0.9707  0.9015
  959MOL0     C29358   9.671   1.107   4.402 -0.0788  0.0546 -0.2904
  959MOL0     C29359   9.799   1.153   4.347 -0.1837 -0.0093 -0.4123
  959MOL0     O29360   9.867   1.243   4.416 -0.6533 -0.4884  0.1363
  959MOL0     C29361  10.002   1.265   4.394 -0.2511  0.3158  0.1508
  959MOL0     C29362  10.042   1.343   4.291  0.6815 -0.3211 -0.2914
  959MOL0     C29363  10.178   1.380   4.272 -0.4735 -0.1588 -0.4523
  959MOL0     C29364  10.267   1.340   4.371  0.4848 -1.2403  0.3577
  959MOL0     O29365  10.401   1.365   4.360 -0.1251 -0.0859  0.4454
  959MOL0     C29366  10.448   1.447   4.464  0.3473  0.9448 -0.3003
  959MOL0     C29367  10.602   1.466   4.437  1.0640 -0.0195  0.4638
  959MOL0     C29368  10.678   1.535   4.548  0.2743  0.0017  0.5426
  959MOL0     C29369  10.796   1.632   4.513 -0.2000 -0.3757 -0.0919
  959MOL0     C29370  10.913   1.561   4.447 -1.0733  0.6145  0.6297
  959MOL0     C29371  11.005   1.669   4.389 -0.3475  0.2406  0.0654
  959MOL0     C29372  11.152   1.646   4.406 -0.4722  0.6772  0.4508
  959MOL0     C29373  11.235   1.749   4.333  0.9606  1.0005 -0.6745
  959MOL0    Cl29374  11.414   1.715   4.356  0.3184  0.3669 -0.1386
  959MOL0     C29375  10.227   1.264   4.483 -0.5206  1.0565  0.9149
  959MOL0     C29376  10.092   1.230   4.493  0.1607  0.6489  0.5574
  959MOL0     O29377   9.847   1.104   4.247  0.5445 -0.5952  0.1803
  959MOL0     C29378   9.590   1.024   4.335 -0.0438  0.8808 -0.6011
  959MOL0     C29379   9.463   0.985   4.375 -0.4893  0.0208 -0.3582
  959MOL0     N29380   9.041   0.598   4.851 -0.7040 -0.0328  0.1383
  959MOL0     N29381   8.965   0.571   4.953 -0.2725  0.2250 -0.0500
  959MOL0     C29382   8.098   1.257   5.585 -1.5651 -0.5429  0.0644
  959MOL0     C29383   7.998   1.311   5.656  0.8598  0.0285 -0.2556
  959MOL0     C29384   7.588   1.419   5.746  0.6472  0.1252 -0.1418
  959MOL0     C29385   7.454   1.398   5.694 -0.5612  0.4667 -0.3750
  959MOL0     C29386   7.337   1.460   5.752 -1.0024  0.3220  0.3035
  959MOL0     C29387   7.345   1.549   5.860  0.3991 -0.0284  0.1383
  959MOL0     O29388   7.234   1.604   5.915  0.8082  0.5316 -0.2611
  959MOL0     C29389   7.126   1.639   5.828 -0.3465  0.6499  0.0860
  959MOL0     C29390   7.042   1.735   5.908 -0.1610  0.1406 -0.0311
  959MOL0     C29391   6.979   1.670   6.021  0.1784  1.0015 -0.1319
  959MOL0     C29392   6.886   1.775   6.087 -0.2406  0.1128 -0.1814
  959MOL0     C29393   6.960   1.898   6.134 -0.0353 -0.0262  0.1006
  959MOL0     C29394   7.016   1.995   6.175 -0.7150  0.0808  0.6369
  959MOL0     C29395   7.473   1.569   5.908 -0.7699 -0.0420  0.0243
  959MOL0     C29396   7.592   1.510   5.854  0.0082 -0.4256  0.3303
  959MOL0     C29397   7.725   1.549   5.932  0.5898 -0.6045 -0.6856
  959MOL0     H29398   7.838   1.040   5.744  0.6280  1.1406  3.4872
  959MOL0     H29399   8.036   0.932   5.607 -0.4061  0.2791  2.0100
  959MOL0     H29400   8.347   1.203   5.420 -1.1213  0.8103 -0.1267
  959MOL0     H29401   8.371   1.150   5.594 -0.4518 -0.3777  0.5940
  959MOL0     H29402   8.450   0.938   5.517  2.5241 -1.5866 -1.2241
  959MOL0     H29403   8.556   1.063   5.458  0.8856 -1.2598 -5.4567
  959MOL0     H29404   8.456   1.074   5.234  0.3540 -2.3011 -3.4266
  959MOL0     H29405   8.356   0.933   5.280 -1.7268  1.0612  2.2012
  959MOL0     H29406   8.658   0.955   5.276 -1.1519  2.5676 -0.3698
  959MOL0     H29407   8.578   0.822   5.348  0.0949  2.5610  2.3176
  959MOL0     H29408   8.463   0.798   5.102  1.0781 -2.8099 -2.4674
  959MOL0     H29409   8.571   0.920   5.046  0.1526 -1.9553 -2.1569
  959MOL0     H29410   8.752   0.792   5.041 -0.2860 -0.7418 -1.3634
  959MOL0     H29411   8.702   0.696   5.194  2.0111  1.3927  1.2698
  959MOL0     H29412   8.592   0.652   4.907  2.3723 -2.3641 -0.9902
  959MOL0     H29413   8.546   0.589   5.073  1.3037  1.3902  0.5950
  959MOL0     H29414   8.767   0.495   5.081  0.6820  2.2261  0.5209
  959MOL0     H29415   8.675   0.440   4.935 -0.4359 -0.2738  1.6609
  959MOL0     H29416   8.757   0.618   4.697  0.0451  3.1260 -0.6758
  959MOL0     H29417   9.134   0.632   4.609  0.6128 -0.0407 -4.8147
  959MOL0     H29418   8.987   0.553   4.555 -2.1069 -2.2264  5.2404
  959MOL0     H29419   9.014   0.746   4.425  2.7879 -0.6564  1.1636
  959MOL0     H29420   8.877   0.788   4.520  0.1809  1.7391  0.6136
  959MOL0     H29421   9.101   0.897   4.666 -0.0407 -2.8951  0.4920
  959MOL0     H29422   8.998   0.983   4.549 -3.7723 -2.5100  1.9202
  959MOL0     H29423   9.162   0.941   4.376  0.6456  3.2304 -0.1869
  959MOL0     H29424   9.249   0.822   4.489  1.1858  0.5392 -1.7441
  959MOL0     H29425   9.433   1.177   4.652  1.7735  0.3023  0.6547
  959MOL0     H29426   9.669   1.260   4.552  2.5131 -1.0905 -2.4608
  959MOL0     H29427   9.970   1.379   4.219 -0.0214 -3.5171 -1.3181
  959MOL0     H29428  10.232   1.440   4.199  2.2966 -1.5267  0.3121
  959MOL0     H29429  10.389   1.540   4.462 -3.6656 -1.2960  1.4472
  959MOL0     H29430  10.447   1.391   4.558  3.2155 -0.0664 -0.7832
  959MOL0     H29431  10.650   1.372   4.409 -0.3967  0.1834 -3.1483
  959MOL0     H29432  10.605   1.531   4.350 -1.5926  1.9817  1.7304
  959MOL0     H29433  10.601   1.589   4.604 -1.9243 -0.9850 -1.3594
  959MOL0     H29434  10.716   1.455   4.612 -2.0772 -0.8570  0.9546
  959MOL0     H29435  10.832   1.672   4.608  3.5906  1.4290 -2.0522
  959MOL0     H29436  10.762   1.722   4.461 -0.8308  1.0901  2.6534
  959MOL0     H29437  10.876   1.495   4.368  0.0576  1.0705 -0.3196
  959MOL0     H29438  10.965   1.512   4.530  1.5685  2.0767 -0.0371
  959MOL0     H29439  10.967   1.687   4.288 -0.7301 -3.0066 -0.4696
  959MOL0     H29440  10.995   1.761   4.446  3.6428  1.2986 -0.5971
  959MOL0     H29441  11.187   1.549   4.369  1.3632  2.3413 -2.6116
  959MOL0     H29442  11.183   1.665   4.510 -1.7526  2.4167  0.5715
  959MOL0     H29443  11.218   1.737   4.226  2.1456 -2.7286 -0.5776
  959MOL0     H29444  11.210   1.852   4.362 -1.7115 -0.2570  1.9973
  959MOL0     H29445  10.295   1.237   4.563  0.1215  2.3635  0.8339
  959MOL0     H29446  10.045   1.171   4.572 -0.2987 -0.1681 -0.3102
  959MOL0     H29447   9.637   0.976   4.249  2.9737  1.6328  0.4757
  959MOL0     H29448   9.408   0.923   4.305  0.6451  0.1865 -1.4352
  959MOL0     H29449   8.174   1.328   5.552 -2.1859  0.5376  0.8997
  959MOL0     H29450   7.972   1.413   5.681 -0.4773 -0.7104  1.5826
  959MOL0     H29451   7.444   1.329   5.611  2.2274 -0.7371  0.1612
  959MOL0     H29452   7.240   1.427   5.716 -0.9568  0.9863 -0.4740
  959MOL0     H29453   7.076   1.560   5.773  0.7379 -0.7900  1.0762
  959MOL0     H29454   7.175   1.705   5.756  1.8152 -0.6269  0.2962
  959MOL0     H29455   6.973   1.779   5.835 -1.9039 -0.0476  1.4437
  959MOL0     H29456   7.107   1.819   5.933  0.1743 -0.3386  0.7198
  959MOL0     H29457   7.059   1.640   6.089  0.2477  0.6777 -0.3537
  959MOL0     H29458   6.922   1.584   5.984  4.6522 -1.8806 -1.0533
  959MOL0     H29459   6.805   1.791   6.016  0.4290  1.5409 -0.6494
  959MOL0     H29460   6.841   1.725   6.174 -2.7528  0.0021 -1.4569
  959MOL0     H29461   7.065   2.089   6.193 -2.0617  0.9061  0.1553
  959MOL0     H29462   7.486   1.634   5.994  1.4960  1.6597 -1.4814
  959MOL0     H29463   7.724   1.658   5.938  2.1461 -0.5450 -1.1326
  959MOL0     H29464   7.727   1.504   6.031 -0.5415 -1.7734 -1.1621
  959MOL0     H29465   7.812   1.523   5.872  1.0525 -1.7995  0.4590
  960MOL0     O29466   0.362   5.511   6.388  0.6730 -0.0921 -0.1178
  960MOL0     C29467   0.267   5.471   6.320  0.5105 -0.7132 -0.3406
  960MOL0     O29468   0.244   5.338   6.285 -0.6938 -0.3711  0.1633
  960MOL0     C29469   0.354   5.263   6.326  0.0422 -0.2738  0.1208
  960MOL0     C29470   0.482   5.275   6.259  0.8550  0.7199  0.3065
  960MOL0     C29471   0.578   5.192   6.288  0.1797 -0.0144 -0.4119
  960MOL0     C29472   0.560   5.092   6.382  0.8711  0.6603  1.0525
  960MOL0     O29473   0.669   5.017   6.423 -0.5216 -0.0717  0.2535
  960MOL0     C29474   0.707   4.896   6.348 -1.2356  0.3006  0.2738
  960MOL0     C29475   0.833   4.930   6.263 -0.1691  0.6818  0.7514
  960MOL0     C29476   0.955   4.930   6.351 -0.2713 -0.2889  0.5368
  960MOL0     C29477   1.084   4.936   6.272 -0.3860 -0.7216  0.5324
  960MOL0     C29478   1.221   4.945   6.340  0.3908  0.5356 -0.2776
  960MOL0     C29479   1.239   5.087   6.397  0.5840 -0.8214  1.0099
  960MOL0     C29480   1.320   5.074   6.532 -0.3115 -0.4688  0.1463
  960MOL0     C29481   1.325   5.224   6.584  0.3743 -0.2852  0.5376
  960MOL0     N29482   1.387   5.221   6.718  0.1487 -1.5185 -0.1096
  960MOL0     C29483   1.330   5.227   6.836 -0.5274 -0.7568 -0.7305
  960MOL0     C29484   1.429   5.200   6.928 -1.3900 -0.0787  0.0642
  960MOL0     C29485   1.414   5.161   7.072  1.0159  0.3526 -0.7515
  960MOL0     C29486   1.443   5.273   7.176  0.2433 -0.7657  0.6184
  960MOL0     C29487   1.357   5.398   7.169  0.4638  0.0957 -0.0463
  960MOL0     C29488   1.383   5.475   7.301  0.6242  0.3273 -0.2999
  960MOL0     O29489   1.511   5.476   7.365  0.1063  0.5429 -0.1426
  960MOL0     C29490   1.598   5.576   7.323 -0.0967  0.7787 -0.1688
  960MOL0     C29491   1.575   5.685   7.232  0.0174  0.1270 -0.4215
  960MOL0     C29492   1.670   5.776   7.188  0.5024  0.4307  0.1107
  960MOL0     C29493   1.803   5.760   7.232 -0.3179 -0.0889 -0.9270
  960MOL0     C29494   1.902   5.871   7.197  0.3181 -0.3896  0.4991
  960MOL0     O29495   2.026   5.876   7.272  0.2820 -0.2621  0.1835
  960MOL0     C29496   2.094   5.989   7.274  0.5824  0.0513 -0.6804
  960MOL0     C29497   2.177   6.023   7.169  0.3883  0.3588 -0.5267
  960MOL0     C29498   2.247   6.140   7.165 -0.7383  0.0657 -0.0274
  960MOL0     C29499   2.239   6.230   7.277  0.1954 -0.2937  0.2082
  960MOL0     O29500   2.310   6.345   7.287 -0.3317  0.0331 -0.3980
  960MOL0     C29501   2.248   6.455   7.358 -0.5521 -0.3683 -0.9615
  960MOL0     C29502   2.305   6.592   7.318 -1.2015 -0.3475  0.6703
  960MOL0     C29503   2.458   6.599   7.344 -0.0800 -1.1548  0.0597
  960MOL0     C29504   2.498   6.748   7.319  0.1974  0.3720  0.2083
  960MOL0     C29505   2.648   6.764   7.289  0.0448 -1.1574  0.0146
  960MOL0     C29506   2.686   6.911   7.261 -0.0950 -0.3808  0.5326
  960MOL0     C29507   2.815   6.912   7.181 -0.0509 -0.2373  0.1150
  960MOL0     C29508   2.930   6.866   7.272 -0.0329 -0.6516  0.3058
  960MOL0    Cl29509   3.094   6.880   7.205 -0.3229  0.1490  0.0138
  960MOL0     C29510   2.146   6.196   7.376  0.4983 -1.1809 -0.2819
  960MOL0     C29511   2.077   6.080   7.378  0.8810  0.3467 -1.2260
  960MOL0     O29512   1.866   5.952   7.115  0.2038 -1.0500 -0.1709
  960MOL0     C29513   1.835   5.652   7.324 -1.0780  0.4121  0.1785
  960MOL0     C29514   1.736   5.561   7.364  1.0007  0.0558 -0.2132
  960MOL0     N29515   1.551   5.192   6.862  0.5207 -0.1183  0.3519
  960MOL0     N29516   1.518   5.203   6.733 -0.3639 -0.6957 -0.1272
  960MOL0     C29517   0.433   5.078   6.440  1.1710  0.9968 -0.0302
  960MOL0     C29518   0.325   5.164   6.415  0.3037  0.3633  0.0762
  960MOL0     C29519   0.179   5.573   6.271 -0.2146  0.8184  0.1713
  960MOL0     C29520   0.213   5.640   6.153 -0.2369  0.0477 -0.3213
  960MOL0     C29521   0.132   5.745   6.103  0.2737 -0.5429 -0.8346
  960MOL0     C29522   0.019   5.771   6.171  0.1099  0.1459 -0.0161
  960MOL0     O29523  -0.073   5.862   6.131  1.6479 -0.3989  0.1256
  960MOL0     C29524  -0.023   6.000   6.103  0.4758 -0.4917  0.6277
  960MOL0     C29525  -0.128   6.087   6.044  0.4576 -0.2903  0.2381
  960MOL0     C29526  -0.262   6.066   6.104  0.1368  0.0269 -0.2154
  960MOL0     C29527  -0.360   6.162   6.042  0.8811  0.0188  0.3549
  960MOL0     C29528  -0.504   6.111   6.041 -0.7292 -0.2306  0.5638
  960MOL0     C29529  -0.618   6.088   6.050  0.4268  0.1747  0.4193
  960MOL0     C29530  -0.024   5.698   6.283  0.0987 -0.1773 -0.2549
  960MOL0     C29531   0.056   5.593   6.339 -0.0054  0.0888  0.0441
  960MOL0     C29532   0.017   5.529   6.466  0.5393  0.5950 -0.1299
  960MOL0     H29533   0.486   5.360   6.191  2.4342  1.4701  1.2686
  960MOL0     H29534   0.676   5.211   6.245  0.4275  0.4738  0.3496
  960MOL0     H29535   0.725   4.817   6.421 -1.9654  0.8639  1.0900
  960MOL0     H29536   0.637   4.853   6.276 -0.3801  0.5689 -0.7434
  960MOL0     H29537   0.817   5.030   6.222 -0.2286 -0.4380 -2.2195
  960MOL0     H29538   0.845   4.867   6.174 -1.2813  1.3301  0.1175
  960MOL0     H29539   0.961   4.846   6.421  0.7159  0.2919  1.1852
  960MOL0     H29540   0.935   5.020   6.410  1.3224  1.1209 -0.9571
  960MOL0     H29541   1.079   4.852   6.202 -1.4101  2.4481 -3.5009
  960MOL0     H29542   1.084   5.020   6.202  0.1524 -2.2011 -1.3203
  960MOL0     H29543   1.226   4.861   6.411 -1.4294 -0.8948 -1.7194
  960MOL0     H29544   1.306   4.925   6.275  1.1871 -1.4281  1.2423
  960MOL0     H29545   1.298   5.147   6.327 -0.8543 -0.4305  0.1053
  960MOL0     H29546   1.148   5.146   6.408  1.6597  0.9838  0.6616
  960MOL0     H29547   1.422   5.035   6.519  0.7474  1.5211  1.7935
  960MOL0     H29548   1.275   5.007   6.606  1.0236  0.5336  1.9452
  960MOL0     H29549   1.384   5.289   6.518 -0.2085 -0.8127 -0.5177
  960MOL0     H29550   1.226   5.267   6.604  0.3687 -1.2933  3.0503
  960MOL0     H29551   1.224   5.249   6.842 -0.9673 -2.6060 -1.0060
  960MOL0     H29552   1.306   5.143   7.068  0.7211  2.0659 -1.0936
  960MOL0     H29553   1.463   5.068   7.103 -2.0851 -0.9945  0.5718
  960MOL0     H29554   1.436   5.226   7.275  3.9796 -2.2882  0.3550
  960MOL0     H29555   1.551   5.295   7.176 -0.0647  0.9159  1.3478
  960MOL0     H29556   1.252   5.368   7.165  1.6379 -4.8636 -1.7675
  960MOL0     H29557   1.387   5.457   7.081 -0.5014 -1.0771 -1.2047
  960MOL0     H29558   1.307   5.439   7.371  0.3206  6.5382  3.2330
  960MOL0     H29559   1.343   5.577   7.293 -1.6865 -0.3680  1.3823
  960MOL0     H29560   1.469   5.701   7.213 -0.6869  2.4014  3.9110
  960MOL0     H29561   1.646   5.866   7.133 -0.7830  0.1605  0.2116
  960MOL0     H29562   2.194   5.948   7.092  1.2740 -0.6799  0.6360
  960MOL0     H29563   2.302   6.172   7.077 -2.1089  1.2944 -0.4761
  960MOL0     H29564   2.140   6.465   7.347 -0.3395  1.9390 -1.3989
  960MOL0     H29565   2.265   6.448   7.465 -0.5399  3.8480 -0.5212
  960MOL0     H29566   2.288   6.612   7.212  1.2921  1.4337  0.5337
  960MOL0     H29567   2.252   6.675   7.366  0.1869  1.6704 -1.1097
  960MOL0     H29568   2.493   6.566   7.442 -1.0472 -1.9735  0.1407
  960MOL0     H29569   2.510   6.536   7.271 -0.7444 -2.0651  0.3677
  960MOL0     H29570   2.462   6.798   7.409  0.0749 -0.4853  0.6479
  960MOL0     H29571   2.457   6.780   7.222  1.2602 -1.0183 -0.7517
  960MOL0     H29572   2.687   6.695   7.213  1.7548 -2.1382  1.6817
  960MOL0     H29573   2.708   6.742   7.378  2.8812 -0.1717 -1.5386
  960MOL0     H29574   2.612   6.959   7.195  0.5427 -1.3176 -0.9118
  960MOL0     H29575   2.697   6.973   7.351 -0.3414  0.2982  0.1092
  960MOL0     H29576   2.843   7.014   7.154 -2.5985  0.4014 -0.3576
  960MOL0     H29577   2.815   6.851   7.090 -0.2169  2.0139 -1.4691
  960MOL0     H29578   2.925   6.918   7.369 -0.1998  1.3894 -0.7336
  960MOL0     H29579   2.922   6.759   7.291  1.4682 -0.8087  0.1447
  960MOL0     H29580   2.127   6.268   7.455 -0.1156 -2.0439  0.3754
  960MOL0     H29581   2.027   6.050   7.470  3.1586  1.5795  0.5116
  960MOL0     H29582   1.942   5.646   7.338 -0.5536  0.9917 -2.8580
  960MOL0     H29583   1.764   5.469   7.413 -0.5586 -1.8553 -2.7076
  960MOL0     H29584   0.410   4.989   6.498  0.9123  0.5933 -0.7392
  960MOL0     H29585   0.228   5.168   6.463 -0.2590 -0.3352 -0.9527
  960MOL0     H29586   0.314   5.624   6.117  0.1906 -0.1422  0.8949
  960MOL0     H29587   0.151   5.793   6.007 -0.7496  0.5184 -0.5322
  960MOL0     H29588   0.057   5.993   6.029 -1.2522 -1.7078 -1.2651
  960MOL0     H29589   0.015   6.040   6.197 -0.7186  0.4680  0.7335
  960MOL0     H29590  -0.128   6.074   5.935  0.4077 -3.8759  0.5560
  960MOL0     H29591  -0.099   6.191   6.061 -0.5384 -0.2476  1.9041
  960MOL0     H29592  -0.250   6.067   6.213  0.3932 -0.0032 -0.2426
  960MOL0     H29593  -0.291   5.964   6.079 -1.7292  0.2418  0.8739
  960MOL0     H29594  -0.361   6.253   6.103  2.7434  0.2239  0.1565
  960MOL0     H29595  -0.329   6.197   5.944 -0.6088  1.1963  0.2682
  960MOL0     H29596  -0.723   6.065   6.060  1.1945 -3.2638  1.9979
  960MOL0     H29597  -0.126   5.711   6.316  0.4139 -0.6005  0.9213
  960MOL0     H29598   0.073   5.569   6.551  1.1302  0.6922 -0.5605
  960MOL0     H29599  -0.090   5.543   6.485  0.1286 -0.2844 -1.6204
  960MOL0     H29600   0.033   5.421   6.476 -2.0107  0.1362 -0.2711
  961MOL0     O29601   9.081   7.455   6.795  0.0809 -0.1346  0.6746
  961MOL0     C29602   8.980   7.477   6.717  0.0613  0.2009 -0.4291
  961MOL0     O29603   8.981   7.584   6.633  0.2217  0.3995 -0.2313
  961MOL0     C29604   9.101   7.639   6.604 -0.7863  0.1829  0.0534
  961MOL0     C29605   9.180   7.595   6.490  0.2896 -0.0900  1.1187
  961MOL0     C29606   9.309   7.653   6.478 -0.9561 -0.3190 -0.1399
  961MOL0     C29607   9.364   7.750   6.560 -0.2717 -0.0271 -0.3423
  961MOL0     O29608   9.499   7.785   6.526  0.5078  0.2798  0.5383
  961MOL0     C29609   9.547   7.898   6.602  0.2958  1.0602 -0.6580
  961MOL0     C29610   9.695   7.926   6.595  0.0759 -1.2963  0.4277
  961MOL0     C29611   9.769   7.799   6.619 -0.5163  0.4694  0.2837
  961MOL0     C29612   9.927   7.825   6.623  0.3496 -0.6370  1.2243
  961MOL0     C29613  10.021   7.707   6.643  0.2541  0.4993  0.0919
  961MOL0     C29614  10.155   7.748   6.686  0.4248 -0.5685  0.1342
  961MOL0     C29615  10.267   7.641   6.683  0.2383  0.6586  0.3339
  961MOL0     C29616  10.312   7.616   6.538  0.3410 -0.3986  0.4492
  961MOL0     N29617  10.424   7.527   6.507  0.1789 -1.3215  0.0036
  961MOL0     C29618  10.477   7.419   6.576 -0.0826 -0.3787  1.4134
  961MOL0     C29619  10.597   7.398   6.510  0.4173 -0.8659 -0.2782
  961MOL0     C29620  10.688   7.285   6.537 -0.0521  0.3866 -0.6342
  961MOL0     C29621  10.744   7.209   6.421  0.1627 -0.3760  0.3412
  961MOL0     C29622  10.847   7.101   6.458 -0.5271 -0.6914  1.1168
  961MOL0     C29623  10.872   7.019   6.325 -0.0144  0.2565  0.2343
  961MOL0     O29624  10.998   6.960   6.305 -0.1764  0.2262 -0.3102
  961MOL0     C29625  11.105   7.039   6.265 -0.2033  0.5735 -0.0653
  961MOL0     C29626  11.224   6.969   6.239 -0.0636 -0.0238 -0.0620
  961MOL0     C29627  11.345   7.035   6.224  0.0704 -0.5616  0.2742
  961MOL0     C29628  11.343   7.177   6.235 -0.2586 -0.1484  0.9518
  961MOL0     C29629  11.464   7.253   6.215 -0.2768 -0.9207 -0.3733
  961MOL0     O29630  11.449   7.386   6.247 -0.4425  0.1430 -0.0587
  961MOL0     C29631  11.560   7.464   6.273 -1.3682  0.5527  0.1591
  961MOL0     C29632  11.665   7.474   6.177 -0.4534 -0.7267  0.6801
  961MOL0     C29633  11.762   7.572   6.199 -0.7150 -0.3467  0.9205
  961MOL0     C29634  11.772   7.653   6.308  0.1262  0.1658  0.1684
  961MOL0     O29635  11.880   7.730   6.339 -0.2241  0.1777  0.3766
  961MOL0     C29636  11.898   7.853   6.267 -0.0717 -0.6442  0.3083
  961MOL0     C29637  12.044   7.883   6.280 -0.7640 -0.0203 -0.4514
  961MOL0     C29638  12.079   7.980   6.169 -0.5872 -0.3255 -0.5127
  961MOL0     C29639  12.226   8.032   6.174 -0.1307 -0.0861 -0.2474
  961MOL0     C29640  12.259   8.137   6.072 -0.5981  0.3310  0.0409
  961MOL0     C29641  12.401   8.187   6.098  0.1143 -0.2494 -0.0754
  961MOL0     C29642  12.401   8.302   6.202  0.6271 -0.4494 -0.0973
  961MOL0     C29643  12.541   8.359   6.222  0.0825 -0.2098  0.8889
  961MOL0    Cl29644  12.600   8.458   6.081  0.2164 -0.0728  0.1497
  961MOL0     C29645  11.676   7.638   6.401  0.5239 -0.5430  0.3535
  961MOL0     C29646  11.568   7.547   6.390 -0.1394 -0.1479 -0.2290
  961MOL0     O29647  11.567   7.197   6.176 -0.0335 -0.0935 -0.2272
  961MOL0     C29648  11.224   7.245   6.246 -0.2455  0.3559 -0.4985
  961MOL0     C29649  11.105   7.178   6.264  0.0154 -0.1864  0.2445
  961MOL0     N29650  10.606   7.487   6.406 -0.7136 -0.0429  0.3928
  961MOL0     N29651  10.508   7.563   6.409 -0.1388  0.3409  0.5913
  961MOL0     C29652   9.277   7.801   6.663 -0.4247  0.5872  0.4647
  961MOL0     C29653   9.155   7.736   6.688  0.3916  0.4906  0.0072
  961MOL0     C29654   8.859   7.386   6.737  0.5281  0.5278 -0.5877
  961MOL0     C29655   8.874   7.262   6.799 -1.0309  0.5480  0.6671
  961MOL0     C29656   8.771   7.167   6.808 -0.3950  0.1562  0.8831
  961MOL0     C29657   8.654   7.201   6.757 -0.4047  0.0632  0.3763
  961MOL0     O29658   8.550   7.111   6.760 -0.0261  0.0255  0.5323
  961MOL0     C29659   8.456   7.145   6.865  0.8416 -0.1600 -0.0149
  961MOL0     C29660   8.339   7.035   6.865  0.4067 -0.6759  1.0680
  961MOL0     C29661   8.231   7.086   6.769  0.2390 -0.0284  0.4775
  961MOL0     C29662   8.094   7.020   6.806  0.9467 -0.2843 -0.5372
  961MOL0     C29663   7.994   7.038   6.695 -0.2229  0.1039  0.0293
  961MOL0     C29664   7.907   7.056   6.607  1.4487 -0.1493  0.2908
  961MOL0     C29665   8.631   7.326   6.700 -0.1946 -0.5618 -0.6613
  961MOL0     C29666   8.726   7.422   6.698  0.1993 -0.9236 -0.5418
  961MOL0     C29667   8.687   7.556   6.654  0.4474  0.7903  0.4180
  961MOL0     H29668   9.143   7.514   6.429 -2.2052  0.8927  1.2009
  961MOL0     H29669   9.371   7.615   6.398 -0.0090 -2.5752  1.5244
  961MOL0     H29670   9.497   7.983   6.554  0.4521  0.7410 -1.4139
  961MOL0     H29671   9.531   7.886   6.709 -0.2112  0.4604 -0.7987
  961MOL0     H29672   9.731   8.011   6.654 -0.0699 -0.8957 -0.0438
  961MOL0     H29673   9.716   7.959   6.492 -2.2980 -3.0701 -0.7129
  961MOL0     H29674   9.749   7.728   6.538  1.8295 -0.4066  0.3869
  961MOL0     H29675   9.721   7.745   6.702  1.9137 -2.8407 -0.2592
  961MOL0     H29676   9.954   7.869   6.527 -0.3629 -1.6327  0.5443
  961MOL0     H29677   9.957   7.893   6.703 -1.1153  0.9386  0.4902
  961MOL0     H29678   9.971   7.643   6.716 -1.5773  2.1686  0.4016
  961MOL0     H29679  10.011   7.648   6.552 -3.0434  0.0134  0.6295
  961MOL0     H29680  10.189   7.832   6.624  1.4168  0.6864  2.2568
  961MOL0     H29681  10.151   7.784   6.789  1.4530  0.5423 -0.1869
  961MOL0     H29682  10.233   7.547   6.728  1.4562 -0.8528 -1.7237
  961MOL0     H29683  10.360   7.674   6.731  1.0480  1.5034 -1.7189
  961MOL0     H29684  10.227   7.574   6.484  0.1222  1.5652 -0.8393
  961MOL0     H29685  10.328   7.711   6.485 -0.2702 -0.7698 -0.4112
  961MOL0     H29686  10.441   7.366   6.664  1.4245 -0.0010  2.3031
  961MOL0     H29687  10.775   7.316   6.596  0.0964 -0.9156 -0.1436
  961MOL0     H29688  10.638   7.213   6.602  0.3563 -3.0336 -3.6987
  961MOL0     H29689  10.661   7.167   6.363 -0.3885  0.3526  0.5979
  961MOL0     H29690  10.804   7.275   6.357  0.8194  1.7474  2.9477
  961MOL0     H29691  10.815   7.031   6.536 -1.6727 -1.8331 -0.3190
  961MOL0     H29692  10.942   7.144   6.492  0.4343 -1.9616  0.1067
  961MOL0     H29693  10.863   7.085   6.238 -0.6691  0.2032  0.2529
  961MOL0     H29694  10.791   6.947   6.310  0.8928 -0.8716  0.5994
  961MOL0     H29695  11.223   6.860   6.237  0.6646 -0.0492 -2.4579
  961MOL0     H29696  11.437   6.979   6.209 -0.6009 -1.4066 -0.8831
  961MOL0     H29697  11.666   7.414   6.086  0.0592 -0.4133  0.4763
  961MOL0     H29698  11.830   7.588   6.116 -0.5753  0.4328  1.1788
  961MOL0     H29699  11.876   7.832   6.162 -4.1079  0.2364  0.8360
  961MOL0     H29700  11.839   7.936   6.305 -1.4845 -2.0096  1.2347
  961MOL0     H29701  12.059   7.920   6.381 -1.7541 -1.5754  0.3172
  961MOL0     H29702  12.097   7.787   6.276 -0.2241  0.3138 -2.7439
  961MOL0     H29703  12.062   7.937   6.070  0.3927 -2.5704  0.2164
  961MOL0     H29704  12.019   8.070   6.182 -3.0691 -2.2690  3.4311
  961MOL0     H29705  12.295   7.950   6.155  1.5716  1.6207 -1.8640
  961MOL0     H29706  12.235   8.064   6.279 -2.3819  2.3313 -0.6811
  961MOL0     H29707  12.180   8.213   6.072  1.8139  3.0609  1.6350
  961MOL0     H29708  12.249   8.092   5.973  0.9159  2.0013 -0.9354
  961MOL0     H29709  12.464   8.103   6.126  0.8477  0.6615  1.1163
  961MOL0     H29710  12.444   8.220   6.003  0.5564 -0.5190  0.0305
  961MOL0     H29711  12.361   8.261   6.295 -0.1551  0.9998  0.2199
  961MOL0     H29712  12.330   8.378   6.169  1.3782  0.1030 -0.4927
  961MOL0     H29713  12.547   8.421   6.312  2.6399 -1.1968  1.4694
  961MOL0     H29714  12.614   8.280   6.238  1.8137  0.8741 -1.1171
  961MOL0     H29715  11.689   7.708   6.483  0.9889  2.6310 -2.1773
  961MOL0     H29716  11.486   7.552   6.461 -3.2940  1.0508 -3.5815
  961MOL0     H29717  11.225   7.354   6.243  1.0064  0.5094  2.1310
  961MOL0     H29718  11.015   7.236   6.282 -0.5991 -0.2579 -2.2910
  961MOL0     H29719   9.319   7.868   6.737  0.3884 -1.6690  2.1849
  961MOL0     H29720   9.096   7.778   6.769  0.4985  2.9968 -1.1354
  961MOL0     H29721   8.974   7.231   6.828  0.1782 -0.2531 -3.6657
  961MOL0     H29722   8.784   7.065   6.843 -2.0427 -0.9578 -1.5047
  961MOL0     H29723   8.431   7.250   6.855 -1.0068 -0.6700 -1.1851
  961MOL0     H29724   8.503   7.128   6.962  2.3503 -2.9062 -1.1093
  961MOL0     H29725   8.307   7.014   6.968  1.4915  1.1675  1.8315
  961MOL0     H29726   8.378   6.946   6.815 -2.2491  0.3772 -3.4432
  961MOL0     H29727   8.258   7.059   6.667 -0.6586  1.1992 -0.1116
  961MOL0     H29728   8.233   7.195   6.771  2.9368  0.0117  2.0457
  961MOL0     H29729   8.113   6.913   6.823 -3.0350 -0.7348  2.5358
  961MOL0     H29730   8.045   7.064   6.893 -0.7088 -1.5607 -0.7614
  961MOL0     H29731   7.838   7.072   6.526  0.9042 -1.4213  0.4683
  961MOL0     H29732   8.536   7.349   6.654 -0.2872 -0.7936 -0.5846
  961MOL0     H29733   8.745   7.633   6.705  0.5229  3.3588 -3.1500
  961MOL0     H29734   8.699   7.553   6.545 -2.6664  0.1532 -0.0115
  961MOL0     H29735   8.584   7.587   6.677  0.3426  0.7350  0.0377
  962MOL0     O29736   2.944   9.823   7.431 -0.0561  0.1349 -0.6017
  962MOL0     C29737   2.859   9.906   7.471 -0.2449  0.3261  0.8789
  962MOL0     O29738   2.899  10.024   7.515 -0.1619  0.2439  0.0699
  962MOL0     C29739   3.023  10.029   7.570  0.1282 -0.6068  0.5029
  962MOL0     C29740   3.034  10.011   7.710  0.1630 -1.1019 -0.5806
  962MOL0     C29741   3.165  10.009   7.770  0.5294 -0.3022  0.3221
  962MOL0     C29742   3.281  10.010   7.690  0.2115  0.1251  0.3695
  962MOL0     O29743   3.404   9.994   7.736 -0.4667  0.0436  0.1995
  962MOL0     C29744   3.436  10.008   7.879 -0.5713 -0.6057  1.2826
  962MOL0     C29745   3.588  10.038   7.895 -0.0812 -0.3760 -0.3366
  962MOL0     C29746   3.645  10.153   7.807 -0.3969 -0.8709 -0.5051
  962MOL0     C29747   3.774  10.200   7.867  0.6903 -0.1550 -0.5084
  962MOL0     C29748   3.885  10.090   7.849  0.1045 -0.2081  0.7854
  962MOL0     C29749   4.027  10.150   7.882 -0.1513  0.4797 -0.0014
  962MOL0     C29750   4.065  10.263   7.783 -0.1755 -0.1956 -0.0459
  962MOL0     C29751   4.218  10.289   7.771  0.1741 -0.6223 -0.6220
  962MOL0     N29752   4.254  10.407   7.688 -0.1870 -0.1810  0.3351
  962MOL0     C29753   4.333  10.390   7.578  0.1409 -0.3954  0.2699
  962MOL0     C29754   4.345  10.518   7.530  0.1412  0.0171  0.3401
  962MOL0     C29755   4.414  10.562   7.401 -0.8178 -0.0538  0.4450
  962MOL0     C29756   4.567  10.574   7.391  0.0125  0.8991  0.1601
  962MOL0     C29757   4.616  10.704   7.438 -0.8195 -0.7030 -0.7692
  962MOL0     C29758   4.768  10.734   7.442  1.2049 -0.6080  0.5033
  962MOL0     O29759   4.833  10.621   7.493 -0.0320  0.6081  0.4603
  962MOL0     C29760   4.969  10.634   7.539 -0.1968 -0.1436 -0.3640
  962MOL0     C29761   5.050  10.744   7.522  0.7608  0.1332 -0.5409
  962MOL0     C29762   5.186  10.747   7.568 -0.6868 -0.0239  0.0896
  962MOL0     C29763   5.241  10.626   7.608  1.3665  0.6760 -0.8734
  962MOL0     C29764   5.388  10.616   7.648 -0.3831 -0.0470  0.6376
  962MOL0     O29765   5.465  10.725   7.628  0.3948 -0.3625  0.0202
  962MOL0     C29766   5.595  10.730   7.651  0.4073  0.0691  0.2463
  962MOL0     C29767   5.652  10.721   7.782 -0.2510  0.6857  0.0267
  962MOL0     C29768   5.786  10.713   7.808  0.0703  0.0940  0.4726
  962MOL0     C29769   5.878  10.727   7.703 -0.2488 -0.6759 -0.0642
  962MOL0     O29770   6.019  10.724   7.705 -0.4378 -0.5358  0.1217
  962MOL0     C29771   6.089  10.665   7.821  0.1354 -0.0379  0.6143
  962MOL0     C29772   6.244  10.642   7.811  0.0771 -0.6813 -0.7003
  962MOL0     C29773   6.314  10.781   7.812  0.9656  0.4164  0.1442
  962MOL0     C29774   6.463  10.763   7.786  0.0846  0.7141  0.1175
  962MOL0     C29775   6.538  10.894   7.750  0.1479  0.5062  0.3021
  962MOL0     C29776   6.674  10.892   7.801 -0.8318 -0.9538  0.3415
  962MOL0     C29777   6.728  11.042   7.760 -0.7459  0.7489 -0.3997
  962MOL0     C29778   6.868  11.057   7.743  0.1854 -0.2923  0.4379
  962MOL0    Cl29779   6.960  10.960   7.848  0.4310 -0.0959 -0.2953
  962MOL0     C29780   5.826  10.744   7.569  0.6845 -0.0189 -0.0141
  962MOL0     C29781   5.683  10.750   7.540  0.1805 -0.0288 -0.5011
  962MOL0     O29782   5.433  10.509   7.691  1.0972 -0.0103 -0.7414
  962MOL0     C29783   5.161  10.512   7.607 -1.0232 -0.8387 -0.7179
  962MOL0     C29784   5.019  10.513   7.582 -0.0849 -0.4859  0.6446
  962MOL0     N29785   4.279  10.602   7.623 -0.2995  0.5273  0.3577
  962MOL0     N29786   4.217  10.530   7.720 -0.0098 -1.0013  0.9567
  962MOL0     C29787   3.264  10.025   7.557  0.7958 -1.0313 -0.0852
  962MOL0     C29788   3.138  10.036   7.494 -0.3640  0.8000  0.7604
  962MOL0     C29789   2.715   9.886   7.442  0.4737  0.4116 -0.7906
  962MOL0     C29790   2.651   9.778   7.496 -0.1856  0.6109  0.5152
  962MOL0     C29791   2.515   9.749   7.469 -0.2723  0.1707 -0.0620
  962MOL0     C29792   2.439   9.840   7.391 -0.2169 -0.2720 -0.8982
  962MOL0     O29793   2.302   9.822   7.367 -0.4379  0.1046  0.0371
  962MOL0     C29794   2.217   9.736   7.443 -1.0383  0.5082 -0.3580
  962MOL0     C29795   2.179   9.800   7.580 -0.8277 -0.3194  0.2023
  962MOL0     C29796   2.093   9.715   7.673 -0.1688  0.3475  0.6101
  962MOL0     C29797   2.130   9.740   7.820  0.2249 -0.0472 -0.1131
  962MOL0     C29798   2.041   9.669   7.914  0.2476 -0.4885 -0.5801
  962MOL0     C29799   1.975   9.618   8.003 -1.0485 -0.3240 -0.8720
  962MOL0     C29800   2.499   9.955   7.350 -0.2340  0.0513  0.7401
  962MOL0     C29801   2.638   9.974   7.361 -0.6010 -0.1993  0.2001
  962MOL0     C29802   2.709  10.086   7.289  0.4895  0.3679 -0.8514
  962MOL0     H29803   2.939   9.989   7.757 -0.5459 -2.1023 -2.3995
  962MOL0     H29804   3.162  10.010   7.878 -0.7920 -1.1533  0.3245
  962MOL0     H29805   3.380  10.092   7.920  2.0182  1.5845  0.6657
  962MOL0     H29806   3.402   9.918   7.932  0.5690 -3.5387 -2.4927
  962MOL0     H29807   3.639   9.944   7.870 -0.7897 -0.1721 -2.8419
  962MOL0     H29808   3.600  10.064   8.000 -1.0427 -3.1915  0.5396
  962MOL0     H29809   3.572  10.234   7.800  0.5131 -0.0627 -1.0092
  962MOL0     H29810   3.650  10.116   7.704  0.1879  0.8174 -1.1221
  962MOL0     H29811   3.793  10.293   7.813 -0.6020  0.8253  0.6562
  962MOL0     H29812   3.763  10.236   7.969  0.3369  2.5814 -1.4308
  962MOL0     H29813   3.853  10.015   7.922 -0.5416  2.0535  3.0064
  962MOL0     H29814   3.872  10.052   7.748 -1.8993 -2.6182  1.8410
  962MOL0     H29815   4.039  10.193   7.982  1.0444 -0.8072  0.4298
  962MOL0     H29816   4.100  10.070   7.868  0.5611  1.0974  0.1697
  962MOL0     H29817   4.026  10.359   7.819 -2.3317 -0.1788 -2.1601
  962MOL0     H29818   4.027  10.250   7.681  1.8614 -0.6577 -0.8037
  962MOL0     H29819   4.271  10.302   7.865 -0.8132  1.0264 -0.2518
  962MOL0     H29820   4.262  10.199   7.728  1.6785 -0.0159 -0.4023
  962MOL0     H29821   4.377  10.302   7.530 -2.2334  0.0668 -3.0611
  962MOL0     H29822   4.382  10.484   7.331  1.9839 -0.3884 -0.6041
  962MOL0     H29823   4.368  10.660   7.386  2.4683  1.9710  2.3082
  962MOL0     H29824   4.610  10.497   7.455 -2.0651 -0.3436  0.1582
  962MOL0     H29825   4.612  10.567   7.291 -0.8408 -0.1533 -0.1641
  962MOL0     H29826   4.582  10.708   7.542  1.4645 -1.0177  0.0292
  962MOL0     H29827   4.574  10.784   7.376  3.5693 -0.6809 -4.2202
  962MOL0     H29828   4.797  10.824   7.497 -1.7808  0.2548  0.8335
  962MOL0     H29829   4.798  10.742   7.337 -0.4494  2.8894  0.1668
  962MOL0     H29830   5.019  10.839   7.481 -1.1078  1.0576  2.6450
  962MOL0     H29831   5.247  10.835   7.556 -1.6904  0.5198 -1.2529
  962MOL0     H29832   5.576  10.691   7.853  0.0312 -3.6279 -1.1808
  962MOL0     H29833   5.826  10.694   7.908 -0.0499  0.9809  0.6924
  962MOL0     H29834   6.069  10.717   7.915  1.6885  0.4595  0.6962
  962MOL0     H29835   6.030  10.574   7.836 -1.7519  0.8101 -1.1934
  962MOL0     H29836   6.278  10.585   7.898  1.4405  0.7781 -0.2247
  962MOL0     H29837   6.261  10.583   7.721  0.8090 -0.7690 -0.5116
  962MOL0     H29838   6.273  10.834   7.725 -0.2791  0.7900  0.9327
  962MOL0     H29839   6.290  10.848   7.895 -3.8899  0.7248 -1.1943
  962MOL0     H29840   6.479  10.691   7.706  0.9476 -0.3097  1.1632
  962MOL0     H29841   6.522  10.713   7.864  1.1942 -2.7131 -2.6746
  962MOL0     H29842   6.485  10.987   7.773  0.3295  1.9344 -4.0701
  962MOL0     H29843   6.550  10.899   7.642 -1.7036 -1.5052 -0.0560
  962MOL0     H29844   6.685  10.878   7.909  1.1410 -0.8831  0.1920
  962MOL0     H29845   6.740  10.814   7.761  0.9199 -0.4430  2.0877
  962MOL0     H29846   6.700  11.112   7.840  1.8088  0.1449  1.1271
  962MOL0     H29847   6.687  11.070   7.662 -0.0185 -3.7812 -2.2474
  962MOL0     H29848   6.894  11.019   7.643 -1.5934 -0.0820 -0.1401
  962MOL0     H29849   6.895  11.163   7.743 -1.2897  0.1113 -0.4087
  962MOL0     H29850   5.889  10.775   7.487 -0.4645 -0.4497 -1.0988
  962MOL0     H29851   5.664  10.761   7.433 -0.5313  0.6787 -0.3152
  962MOL0     H29852   5.201  10.415   7.635 -1.0053 -0.9198 -1.0181
  962MOL0     H29853   4.943  10.436   7.575 -0.3124 -0.1656 -0.8618
  962MOL0     H29854   3.349  10.030   7.490  0.1865  0.9697 -0.7723
  962MOL0     H29855   3.131  10.061   7.388  2.1787 -0.4475  0.2258
  962MOL0     H29856   2.701   9.706   7.559 -2.1588 -3.1681 -1.8233
  962MOL0     H29857   2.477   9.661   7.519 -1.6508  0.0595 -1.2397
  962MOL0     H29858   2.274   9.643   7.458  1.5945  2.2831  1.5573
  962MOL0     H29859   2.132   9.704   7.382  0.3124  0.3214 -2.2304
  962MOL0     H29860   2.116   9.885   7.552  2.2193  1.2724 -2.5098
  962MOL0     H29861   2.269   9.839   7.629 -1.3608 -0.0975  1.0445
  962MOL0     H29862   2.107   9.608   7.654  3.5079  0.9577 -0.9299
  962MOL0     H29863   1.988   9.742   7.658  0.2003  1.2585 -0.5066
  962MOL0     H29864   2.232   9.706   7.840  0.1088 -0.8385 -0.7907
  962MOL0     H29865   2.125   9.847   7.841 -1.4323  0.3212 -2.0239
  962MOL0     H29866   1.904   9.564   8.061 -2.9346 -0.0482 -2.8035
  962MOL0     H29867   2.438  10.026   7.296  0.9014 -0.4524 -1.2935
  962MOL0     H29868   2.804  10.050   7.248  2.5152  1.9177  2.0311
  962MOL0     H29869   2.660  10.137   7.206 -0.4295  1.4180  0.3066
  962MOL0     H29870   2.740  10.170   7.353  0.2664 -1.0868  1.2861
  963MOL0     O29871   2.556  10.425   0.607 -0.4446 -0.1969 -0.1274
  963MOL0     C29872   2.552  10.528   0.539  0.5391  0.1905 -0.7153
  963MOL0     O29873   2.654  10.604   0.500 -0.8949 -0.3601 -0.1959
  963MOL0     C29874   2.787  10.564   0.509 -0.4694 -0.9283 -0.3214
  963MOL0     C29875   2.888  10.661   0.543 -0.3676  0.0215  0.2024
  963MOL0     C29876   3.026  10.620   0.553 -0.2279  1.1293  0.8894
  963MOL0     C29877   3.066  10.488   0.532  0.1095 -0.1709 -1.0976
  963MOL0     O29878   3.187  10.423   0.544  0.1412  0.2840  0.2381
  963MOL0     C29879   3.266  10.475   0.651  0.2997 -0.8326  0.0884
  963MOL0     C29880   3.375  10.562   0.587 -0.0667  0.3178 -0.2707
  963MOL0     C29881   3.516  10.494   0.571 -0.2320  0.4295  0.5796
  963MOL0     C29882   3.626  10.578   0.502  0.0706  0.9702  0.0215
  963MOL0     C29883   3.756  10.489   0.521 -0.3083  0.1411  0.1724
  963MOL0     C29884   3.884  10.567   0.482 -0.1606 -1.0577 -0.2865
  963MOL0     C29885   4.008  10.492   0.533 -0.6572 -0.6467  0.3015
  963MOL0     C29886   4.051  10.526   0.673  0.0131  0.6013 -0.1141
  963MOL0     N29887   4.169  10.439   0.715 -0.5440 -0.3602  0.9556
  963MOL0     C29888   4.271  10.382   0.640 -0.8676 -0.3561 -0.2730
  963MOL0     C29889   4.354  10.314   0.729  0.5433 -0.4727 -0.4001
  963MOL0     C29890   4.480  10.226   0.706  0.3551  0.4728  0.1320
  963MOL0     C29891   4.598  10.321   0.691 -0.0235  0.4634 -0.3849
  963MOL0     C29892   4.721  10.223   0.680 -0.3220 -0.0944  0.4925
  963MOL0     C29893   4.841  10.292   0.616  0.2333 -0.3574  0.3089
  963MOL0     O29894   4.870  10.416   0.676  0.1252  0.2923  0.0592
  963MOL0     C29895   4.994  10.462   0.648  0.2694 -0.1203 -0.1747
  963MOL0     C29896   5.063  10.544   0.738 -0.3643  0.4011 -0.6834
  963MOL0     C29897   5.190  10.599   0.712 -0.1664  0.2563 -0.2253
  963MOL0     C29898   5.246  10.587   0.588  0.3737  0.0186 -0.1306
  963MOL0     C29899   5.371  10.672   0.550 -0.3938  0.6706 -0.7570
  963MOL0     O29900   5.430  10.655   0.428 -0.1375 -0.0122  1.0608
  963MOL0     C29901   5.527  10.745   0.396 -0.7285 -0.8256 -0.1651
  963MOL0     C29902   5.635  10.699   0.319  0.0801 -0.6556  0.5049
  963MOL0     C29903   5.727  10.787   0.269  0.2180 -1.1325 -0.2287
  963MOL0     C29904   5.712  10.922   0.290 -0.7421 -0.8306  0.4459
  963MOL0     O29905   5.797  11.013   0.239 -0.0477 -0.3388  0.2960
  963MOL0     C29906   5.909  11.037   0.328 -0.5053  0.2009  0.1203
  963MOL0     C29907   6.047  11.008   0.282 -0.2456  0.4164  0.3111
  963MOL0     C29908   6.086  11.065   0.137  0.2911 -0.4130 -0.7737
  963MOL0     C29909   6.225  10.999   0.100  0.8807 -0.4497  0.2800
  963MOL0     C29910   6.278  11.065  -0.024 -0.2378 -0.3497  0.5876
  963MOL0     C29911   6.215  11.022  -0.160  0.2587  0.1326  0.3541
  963MOL0     C29912   6.314  11.030  -0.277 -0.4549  0.1085 -0.3824
  963MOL0     C29913   6.242  11.011  -0.411  0.0757  0.3512 -0.0727
  963MOL0    Cl29914   6.154  11.157  -0.468  0.1003  0.1067  0.0615
  963MOL0     C29915   5.608  10.972   0.367 -0.0023 -0.3510 -0.3795
  963MOL0     C29916   5.510  10.883   0.415  0.1203  0.0459  0.4978
  963MOL0     O29917   5.408  10.745   0.645 -0.1593  0.2455 -0.1948
  963MOL0     C29918   5.176  10.516   0.492 -0.6083  0.3728  0.1205
  963MOL0     C29919   5.057  10.447   0.523  0.1288  0.1989 -0.2511
  963MOL0     N29920   4.294  10.336   0.861 -0.2404 -0.1744  0.8598
  963MOL0     N29921   4.192  10.417   0.851 -1.5477 -0.4583  0.5733
  963MOL0     C29922   2.960  10.388   0.498 -0.6638  0.2541 -0.0066
  963MOL0     C29923   2.832  10.430   0.482 -0.2060 -0.0773  0.0823
  963MOL0     C29924   2.415  10.582   0.512 -0.4241  0.0950  0.2868
  963MOL0     C29925   2.306  10.513   0.575  0.2083  0.3593  0.1054
  963MOL0     C29926   2.174  10.562   0.559  0.7894  0.1315 -0.4176
  963MOL0     C29927   2.154  10.668   0.468  1.2563 -0.1468  0.2691
  963MOL0     O29928   2.036  10.708   0.443  0.5638 -0.3196  0.1838
  963MOL0     C29929   1.914  10.659   0.506 -0.4880  0.3953 -0.4157
  963MOL0     C29930   1.793  10.751   0.484 -0.9687  0.4089 -0.0173
  963MOL0     C29931   1.817  10.855   0.373 -0.4482 -0.0981  0.2858
  963MOL0     C29932   1.679  10.922   0.346  0.3921 -0.0565 -0.8064
  963MOL0     C29933   1.578  10.823   0.299 -0.3293  0.6545 -0.1860
  963MOL0     C29934   1.501  10.740   0.266 -0.1703 -0.3078 -0.8061
  963MOL0     C29935   2.257  10.736   0.412  0.4052 -0.0700 -0.6266
  963MOL0     C29936   2.388  10.703   0.431 -0.0826  0.4063  0.9097
  963MOL0     C29937   2.493  10.791   0.355 -0.5610 -0.1182 -0.4501
  963MOL0     H29938   2.850  10.762   0.560  0.6909  0.4333  0.2031
  963MOL0     H29939   3.095  10.698   0.582  0.2576  1.6700 -1.5134
  963MOL0     H29940   3.216  10.529   0.732 -1.2110 -2.4915  0.3201
  963MOL0     H29941   3.318  10.387   0.689  0.2273 -1.6312 -1.5521
  963MOL0     H29942   3.382  10.644   0.660  3.9712  1.7651 -2.0246
  963MOL0     H29943   3.343  10.605   0.491  0.7332  1.1810 -0.1615
  963MOL0     H29944   3.494  10.404   0.513  0.2121  1.9706 -2.1431
  963MOL0     H29945   3.546  10.468   0.673  1.3700 -1.5740 -0.3256
  963MOL0     H29946   3.607  10.614   0.401  1.6066 -0.4155 -0.8089
  963MOL0     H29947   3.636  10.672   0.557 -2.0221  3.9058 -4.1305
  963MOL0     H29948   3.769  10.466   0.627  1.1966  2.4857  0.5787
  963MOL0     H29949   3.755  10.399   0.460 -0.7569 -0.7485  1.4559
  963MOL0     H29950   3.874  10.568   0.373 -2.2249  0.3555 -0.1385
  963MOL0     H29951   3.883  10.669   0.522 -0.8121 -0.5004 -1.6433
  963MOL0     H29952   4.075  10.529   0.455 -3.1851  0.6277 -1.4231
  963MOL0     H29953   4.000  10.383   0.529 -3.4136 -0.5205 -0.1283
  963MOL0     H29954   4.084  10.630   0.669  1.7954  0.0139 -1.9193
  963MOL0     H29955   3.976  10.497   0.748  0.6242 -3.5169 -0.8133
  963MOL0     H29956   4.279  10.376   0.532  2.7226 -1.2424 -0.0745
  963MOL0     H29957   4.494  10.146   0.779 -1.9840 -2.3352 -2.2700
  963MOL0     H29958   4.468  10.183   0.606 -0.4003  2.6389 -0.7635
  963MOL0     H29959   4.593  10.374   0.595  2.5102 -1.4176 -1.6771
  963MOL0     H29960   4.610  10.398   0.767  0.8697  1.0514 -1.0940
  963MOL0     H29961   4.698  10.131   0.625  0.4650  0.2311 -0.4270
  963MOL0     H29962   4.747  10.192   0.781  3.8346  1.0963 -0.0279
  963MOL0     H29963   4.817  10.310   0.511 -1.9110  1.4715  1.0507
  963MOL0     H29964   4.929  10.226   0.619  0.5660 -0.3480 -3.6673
  963MOL0     H29965   5.041  10.543   0.845 -1.8561 -1.6386 -0.9489
  963MOL0     H29966   5.236  10.657   0.791 -0.7992  1.6948 -0.8596
  963MOL0     H29967   5.652  10.592   0.310 -1.5823 -0.8995 -0.1513
  963MOL0     H29968   5.823  10.758   0.227  0.7649 -0.9933  0.8936
  963MOL0     H29969   5.901  11.145   0.342 -3.7252  0.3829 -2.0533
  963MOL0     H29970   5.891  10.986   0.424 -2.6599  0.0368 -0.3248
  963MOL0     H29971   6.124  11.050   0.347 -0.2941  2.4610 -0.8681
  963MOL0     H29972   6.051  10.899   0.284 -0.6733  0.3503 -1.2174
  963MOL0     H29973   6.007  11.046   0.064 -1.0177  0.6582  0.3107
  963MOL0     H29974   6.090  11.174   0.138 -1.0646 -0.3532  0.7580
  963MOL0     H29975   6.214  10.891   0.088  0.5296 -0.2989 -0.8919
  963MOL0     H29976   6.293  11.013   0.184  1.5190 -1.6374 -0.0130
  963MOL0     H29977   6.383  11.038  -0.034 -0.2823  0.3404 -2.9383
  963MOL0     H29978   6.274  11.175  -0.020 -1.1611 -0.3825  0.8777
  963MOL0     H29979   6.169  10.925  -0.137  0.6430  0.2229  1.5767
  963MOL0     H29980   6.128  11.083  -0.184  1.1778  1.9345  1.3995
  963MOL0     H29981   6.375  10.941  -0.261 -0.2585  0.0465 -1.4063
  963MOL0     H29982   6.383  11.115  -0.270 -2.2799  1.6798 -0.5091
  963MOL0     H29983   6.297  10.971  -0.497 -1.5757  1.0578 -1.5247
  963MOL0     H29984   6.172  10.928  -0.397 -0.5080  0.8201 -0.1549
  963MOL0     H29985   5.590  11.079   0.376 -0.0035 -0.4058  0.2992
  963MOL0     H29986   5.417  10.921   0.455  0.7636  2.3758 -0.1078
  963MOL0     H29987   5.228  10.508   0.396 -1.7502  1.5113 -0.6245
  963MOL0     H29988   5.015  10.384   0.446  0.2950 -2.5263  1.7386
  963MOL0     H29989   2.991  10.284   0.499  0.3830  0.5670  0.6261
  963MOL0     H29990   2.756  10.353   0.478 -1.1981  0.5347  3.5585
  963MOL0     H29991   2.331  10.427   0.636 -1.6267 -1.2947 -1.3825
  963MOL0     H29992   2.094  10.509   0.610  1.4573 -0.0494  0.4688
  963MOL0     H29993   1.931  10.651   0.614  0.8459 -3.6577 -0.7390
  963MOL0     H29994   1.905  10.554   0.475 -2.3470  0.0718  1.0379
  963MOL0     H29995   1.778  10.809   0.576 -0.6034  0.5031 -0.0136
  963MOL0     H29996   1.707  10.686   0.470 -1.7516  0.9132  2.0716
  963MOL0     H29997   1.860  10.811   0.283 -1.5663  1.4627 -1.0735
  963MOL0     H29998   1.887  10.932   0.405  0.3028 -0.5654 -0.2262
  963MOL0     H29999   1.645  10.960   0.442  0.0249 -0.5196 -0.7455
  963MOL0     H30000   1.694  11.001   0.272  2.1689 -0.3158 -0.7633
  963MOL0     H30001   1.429  10.664   0.244 -1.0728  0.0598  0.7239
  963MOL0     H30002   2.227  10.813   0.342 -1.0398 -0.3759 -0.3766
  963MOL0     H30003   2.525  10.741   0.263 -0.0835 -1.7293  0.5486
  963MOL0     H30004   2.440  10.883   0.330 -0.5376  0.0417  0.0788
  963MOL0     H30005   2.581  10.807   0.420  0.9050 -3.9463 -1.2056
  964MOL0     O30006   0.281   3.511   6.708 -0.7623 -0.6635 -1.0675
  964MOL0     C30007   0.341   3.535   6.817  0.3895 -0.1130 -0.4538
  964MOL0     O30008   0.331   3.655   6.893  0.7200  0.6519  0.6340
  964MOL0     C30009   0.223   3.739   6.866 -0.2508  0.3363 -0.0429
  964MOL0     C30010   0.096   3.679   6.865 -0.5037 -0.3564 -0.0380
  964MOL0     C30011  -0.014   3.754   6.839 -0.1523  0.4995 -0.9397
  964MOL0     C30012   0.001   3.894   6.824 -0.6923 -0.2486 -0.0104
  964MOL0     O30013  -0.100   3.983   6.813 -0.1575  0.6882  0.1161
  964MOL0     C30014  -0.239   3.935   6.808  0.3813 -0.9014 -0.5806
  964MOL0     C30015  -0.327   4.058   6.821 -1.1416  0.6208 -0.0917
  964MOL0     C30016  -0.485   4.038   6.807 -1.2746 -0.0828  0.5653
  964MOL0     C30017  -0.530   4.007   6.660  1.2877 -0.2087 -0.6621
  964MOL0     C30018  -0.675   4.061   6.626 -1.3059  0.5473  0.3100
  964MOL0     C30019  -0.676   4.133   6.482 -1.4007 -0.3469 -0.1948
  964MOL0     C30020  -0.806   4.204   6.453  0.8300 -0.9645  0.2112
  964MOL0     C30021  -0.816   4.263   6.309  0.1955  0.2174 -0.5590
  964MOL0     N30022  -0.722   4.383   6.292  0.3651  1.0749  0.5195
  964MOL0     C30023  -0.758   4.509   6.319 -0.1276 -0.1635 -0.2247
  964MOL0     C30024  -0.654   4.579   6.269  0.4202 -0.0862 -0.2143
  964MOL0     C30025  -0.650   4.731   6.282  0.5167 -0.0209  0.3531
  964MOL0     C30026  -0.575   4.774   6.399 -1.3421  0.1367 -0.6276
  964MOL0     C30027  -0.561   4.925   6.414 -0.0411 -1.0429  0.4153
  964MOL0     C30028  -0.491   4.973   6.540  0.0852 -0.4362 -0.2195
  964MOL0     O30029  -0.376   4.893   6.574  0.4117 -0.4387 -0.6240
  964MOL0     C30030  -0.264   4.914   6.505 -0.2281 -1.0565  0.2419
  964MOL0     C30031  -0.153   4.864   6.561 -0.3748 -0.5230 -1.0034
  964MOL0     C30032  -0.033   4.863   6.495  0.2907 -0.3253 -0.2968
  964MOL0     C30033  -0.012   4.925   6.375  0.5541  0.1724 -0.5129
  964MOL0     C30034   0.116   4.917   6.308 -0.9108 -0.4814 -0.4989
  964MOL0     O30035   0.116   4.948   6.174 -0.4932 -0.5866  0.1983
  964MOL0     C30036   0.230   4.934   6.105 -0.1467 -0.8828 -0.1163
  964MOL0     C30037   0.289   4.812   6.079  0.2057  0.3975  0.5115
  964MOL0     C30038   0.418   4.795   6.033 -0.0540 -0.6304 -0.2747
  964MOL0     C30039   0.493   4.914   5.997 -0.3007  0.3916  1.1952
  964MOL0     O30040   0.617   4.894   5.941  0.1857 -0.2896 -0.3819
  964MOL0     C30041   0.710   5.004   5.929 -0.0257 -1.2232  0.0711
  964MOL0     C30042   0.827   4.972   5.840 -0.5701 -0.4111  0.1847
  964MOL0     C30043   0.930   5.085   5.830  0.2608  0.2272  0.4406
  964MOL0     C30044   1.017   5.070   5.710 -0.2739  0.5998  0.4554
  964MOL0     C30045   1.119   5.181   5.693  0.2206 -0.7342 -0.6205
  964MOL0     C30046   1.205   5.191   5.822  0.8404 -0.4789  0.0230
  964MOL0     C30047   1.325   5.285   5.788  0.6264  0.1180  0.1252
  964MOL0     C30048   1.291   5.429   5.768 -0.3192 -0.1346  0.8874
  964MOL0    Cl30049   1.435   5.519   5.736  0.2439  0.0030 -0.0500
  964MOL0     C30050   0.436   5.039   6.016  0.5926 -0.4189 -0.3454
  964MOL0     C30051   0.307   5.047   6.076  0.1322  0.4000 -0.5292
  964MOL0     O30052   0.212   4.880   6.378 -0.2112  0.0284  1.1343
  964MOL0     C30053  -0.121   4.991   6.316  0.0220  0.6269 -0.4909
  964MOL0     C30054  -0.243   4.986   6.383 -0.6293  1.0889 -0.5326
  964MOL0     N30055  -0.563   4.507   6.203 -0.4951  0.5627  1.2267
  964MOL0     N30056  -0.608   4.386   6.206  0.0077 -0.1460 -0.9407
  964MOL0     C30057   0.127   3.954   6.835  0.8317  0.2256 -0.1316
  964MOL0     C30058   0.236   3.875   6.863 -0.5852 -0.3514  0.3824
  964MOL0     C30059   0.419   3.426   6.878  0.2420  0.0481  0.9731
  964MOL0     C30060   0.461   3.446   7.006 -0.1423 -0.5761 -0.1951
  964MOL0     C30061   0.546   3.358   7.080 -0.2572 -0.4413 -0.2061
  964MOL0     C30062   0.593   3.242   7.024 -0.2718  0.3019 -0.0982
  964MOL0     O30063   0.676   3.152   7.092 -0.3471 -0.1914 -0.4523
  964MOL0     C30064   0.720   3.195   7.214  1.4804  0.7228 -0.1888
  964MOL0     C30065   0.816   3.094   7.276  0.4907 -0.1971  0.1517
  964MOL0     C30066   0.865   3.143   7.417 -1.0680 -0.8396  0.2222
  964MOL0     C30067   0.953   3.053   7.494 -0.0236  0.4507  0.6394
  964MOL0     C30068   1.080   3.027   7.422  0.2663 -0.0345  0.5867
  964MOL0     C30069   1.184   3.013   7.379  0.4529  0.6785 -0.1221
  964MOL0     C30070   0.542   3.211   6.898  0.5649  1.8418 -0.1737
  964MOL0     C30071   0.453   3.297   6.828  0.2393  0.1779  0.1856
  964MOL0     C30072   0.390   3.238   6.701 -0.5175  0.0916 -0.1002
  964MOL0     H30073   0.109   3.575   6.894  2.3774 -0.3033 -0.7465
  964MOL0     H30074  -0.105   3.697   6.822  0.7161 -0.7497 -1.5986
  964MOL0     H30075  -0.270   3.891   6.713 -0.9139  0.9968 -1.0910
  964MOL0     H30076  -0.254   3.873   6.897 -3.7817 -0.4300 -0.7415
  964MOL0     H30077  -0.295   4.128   6.743  1.5967  2.4530  2.4401
  964MOL0     H30078  -0.311   4.104   6.919 -0.0189  0.1171 -0.0289
  964MOL0     H30079  -0.543   4.120   6.851  0.1375  1.3682 -0.1521
  964MOL0     H30080  -0.511   3.953   6.870  1.0697 -0.6341  0.8872
  964MOL0     H30081  -0.462   4.052   6.587  2.0149 -1.0663 -0.5301
  964MOL0     H30082  -0.530   3.901   6.632 -1.9928 -0.2801 -0.7986
  964MOL0     H30083  -0.744   3.977   6.636  1.2531 -1.4820  2.6340
  964MOL0     H30084  -0.712   4.120   6.710 -1.5432 -1.3686  1.6092
  964MOL0     H30085  -0.593   4.203   6.478 -2.2605  0.6772 -0.4714
  964MOL0     H30086  -0.645   4.060   6.407 -0.0455 -2.4414  2.2264
  964MOL0     H30087  -0.828   4.271   6.536 -1.7702 -3.5033  1.7532
  964MOL0     H30088  -0.889   4.133   6.462 -0.0096  0.1892  2.2175
  964MOL0     H30089  -0.781   4.189   6.236  2.7751  0.6751  0.0944
  964MOL0     H30090  -0.914   4.285   6.266  0.2979  0.5057 -0.6433
  964MOL0     H30091  -0.846   4.550   6.367 -1.8877  0.2752 -3.5423
  964MOL0     H30092  -0.607   4.776   6.191  1.0916  1.1099  1.1558
  964MOL0     H30093  -0.753   4.763   6.303 -0.6942 -4.1397  1.7143
  964MOL0     H30094  -0.631   4.736   6.485  0.8692 -1.4934  0.2078
  964MOL0     H30095  -0.478   4.722   6.400 -0.3405  1.7469  2.8986
  964MOL0     H30096  -0.661   4.968   6.403  0.2296 -1.0447 -3.1936
  964MOL0     H30097  -0.525   4.961   6.317 -1.7469 -2.3767 -0.7908
  964MOL0     H30098  -0.563   4.960   6.621 -0.5196 -3.0609 -1.0824
  964MOL0     H30099  -0.467   5.079   6.529  0.2177 -0.3607  0.7011
  964MOL0     H30100  -0.154   4.828   6.664 -1.2941  1.0234 -0.4292
  964MOL0     H30101   0.044   4.825   6.562  1.9761  1.1045 -1.3120
  964MOL0     H30102   0.234   4.720   6.095 -0.0083  0.4723  0.2286
  964MOL0     H30103   0.459   4.694   6.027 -0.3207 -0.7010 -1.0810
  964MOL0     H30104   0.656   5.090   5.889 -0.3494  0.2254  3.3360
  964MOL0     H30105   0.751   5.039   6.024 -0.6342  0.2530 -0.1871
  964MOL0     H30106   0.883   4.881   5.866  1.4059  0.8736  0.6286
  964MOL0     H30107   0.781   4.955   5.742 -0.6350  0.0038  0.1403
  964MOL0     H30108   0.881   5.182   5.820 -0.1623 -0.1415 -1.3994
  964MOL0     H30109   0.992   5.085   5.920  2.2304  0.4273 -0.8509
  964MOL0     H30110   0.947   5.082   5.627 -0.8052 -1.9019  0.4834
  964MOL0     H30111   1.058   4.969   5.718 -3.6902 -0.9689 -0.3588
  964MOL0     H30112   1.057   5.271   5.693 -1.3885 -1.7576  1.6078
  964MOL0     H30113   1.184   5.173   5.605  0.2522  3.2744 -1.1472
  964MOL0     H30114   1.154   5.220   5.915 -2.7036 -0.0044 -1.9012
  964MOL0     H30115   1.234   5.089   5.847 -0.5786 -0.6446  1.1042
  964MOL0     H30116   1.386   5.244   5.707  3.6117  2.5927  0.9254
  964MOL0     H30117   1.391   5.293   5.874  1.2256 -2.0767 -0.0751
  964MOL0     H30118   1.219   5.432   5.686 -2.2879  0.1499  2.5598
  964MOL0     H30119   1.236   5.478   5.849 -2.9075 -0.0744 -0.7886
  964MOL0     H30120   0.495   5.128   5.997 -1.0214  0.4206 -1.5917
  964MOL0     H30121   0.264   5.141   6.109 -0.2319 -0.6793  2.2634
  964MOL0     H30122  -0.114   5.033   6.217  3.5359  0.2355 -0.5148
  964MOL0     H30123  -0.327   5.036   6.336 -0.5374  1.7955  0.0283
  964MOL0     H30124   0.123   4.063   6.834  0.6568  0.2151 -0.5493
  964MOL0     H30125   0.333   3.924   6.868 -0.4728 -0.2720 -1.7090
  964MOL0     H30126   0.419   3.534   7.054 -0.2609 -0.3953 -0.6327
  964MOL0     H30127   0.549   3.394   7.183 -0.6155 -1.5690  0.2208
  964MOL0     H30128   0.633   3.212   7.278  0.6001  0.8024 -1.3760
  964MOL0     H30129   0.785   3.283   7.210 -0.2708  2.0518 -0.5621
  964MOL0     H30130   0.901   3.094   7.207  2.4900 -0.9737  2.4934
  964MOL0     H30131   0.777   2.991   7.277  3.4445 -1.4261 -0.3694
  964MOL0     H30132   0.781   3.176   7.479 -1.5457 -0.2223 -0.7386
  964MOL0     H30133   0.918   3.234   7.388  0.4373 -1.9962 -0.8442
  964MOL0     H30134   0.971   3.101   7.591 -1.3181  1.7794  0.2694
  964MOL0     H30135   0.894   2.966   7.524 -2.0417  1.2697 -0.7210
  964MOL0     H30136   1.284   3.000   7.345 -0.1541  1.6661 -2.4801
  964MOL0     H30137   0.556   3.118   6.844  2.5598  2.2152 -0.3672
  964MOL0     H30138   0.286   3.212   6.724 -0.3853  1.1763  1.9901
  964MOL0     H30139   0.399   3.314   6.624 -4.3396  0.6052 -0.2335
  964MOL0     H30140   0.446   3.147   6.679  0.9908  0.2222  2.6872
  965MOL0     O30141   7.463   2.108   3.446  0.0612  0.1858  0.3538
  965MOL0     C30142   7.359   2.089   3.505  0.2133 -0.1189  0.4157
  965MOL0     O30143   7.352   2.046   3.639  0.4227  0.7022  0.3517
  965MOL0     C30144   7.467   2.028   3.717 -0.7115 -0.4607 -0.3120
  965MOL0     C30145   7.504   2.132   3.804  0.3844 -0.3711  0.3585
  965MOL0     C30146   7.615   2.129   3.885 -0.4059 -0.4618  0.5423
  965MOL0     C30147   7.711   2.024   3.875  0.3306 -0.5019 -0.3938
  965MOL0     O30148   7.818   2.021   3.951  0.1848  0.1447 -0.8122
  965MOL0     C30149   7.935   1.956   3.907 -0.9887 -0.3132 -0.3444
  965MOL0     C30150   8.043   2.029   3.993 -0.0094  0.3517 -0.3009
  965MOL0     C30151   8.180   1.959   3.989 -0.0888  0.4580  1.1031
  965MOL0     C30152   8.256   1.952   3.848  0.2053  0.1240  0.0728
  965MOL0     C30153   8.337   2.095   3.821  0.3482  0.7386 -0.7735
  965MOL0     C30154   8.456   2.058   3.737 -0.3630  0.9711  0.0598
  965MOL0     C30155   8.585   2.024   3.824 -0.6411 -0.4108  0.4247
  965MOL0     C30156   8.618   1.872   3.808 -0.3670  0.0590  0.0050
  965MOL0     N30157   8.744   1.832   3.877 -0.3076  0.2732  0.3168
  965MOL0     C30158   8.736   1.771   3.997  0.6253 -1.0436 -0.1875
  965MOL0     C30159   8.862   1.761   4.037 -0.3652 -1.0532  0.5977
  965MOL0     C30160   8.908   1.731   4.171 -0.1630  0.2393 -0.3751
  965MOL0     C30161   8.813   1.807   4.274  0.1742 -0.1134  0.3086
  965MOL0     C30162   8.898   1.821   4.400  0.0880 -0.0918 -0.1284
  965MOL0     C30163   8.992   1.934   4.400 -0.0524 -0.1771  0.3933
  965MOL0     O30164   9.080   1.925   4.510 -0.2256  0.2079  0.0071
  965MOL0     C30165   9.198   1.983   4.494 -0.7512 -0.1245 -0.1849
  965MOL0     C30166   9.300   1.945   4.583 -0.2330 -0.4846 -0.5638
  965MOL0     C30167   9.424   2.002   4.580 -0.5577 -0.0219 -0.2379
  965MOL0     C30168   9.468   2.091   4.475 -0.0520  0.2296  0.1006
  965MOL0     C30169   9.598   2.155   4.469 -0.7569  0.0212 -0.7908
  965MOL0     O30170   9.680   2.135   4.580 -0.2920 -0.2493 -0.6370
  965MOL0     C30171   9.810   2.189   4.592  1.3433 -0.7973  0.5921
  965MOL0     C30172   9.870   2.294   4.502  0.4186  0.4578  0.7089
  965MOL0     C30173  10.008   2.315   4.501 -0.4041  0.2245 -0.3948
  965MOL0     C30174  10.088   2.255   4.610  0.7783  1.1208 -0.6609
  965MOL0     O30175  10.218   2.296   4.614  0.0354  0.4363  0.1619
  965MOL0     C30176  10.295   2.243   4.725  0.2369 -0.3588 -0.6694
  965MOL0     C30177  10.437   2.306   4.744 -0.7370 -0.8248 -0.5700
  965MOL0     C30178  10.509   2.238   4.863 -0.9256 -0.5294  0.4781
  965MOL0     C30179  10.661   2.273   4.871  0.6557  0.1188 -0.6949
  965MOL0     C30180  10.699   2.422   4.910 -0.4234  0.7367  0.1174
  965MOL0     C30181  10.851   2.444   4.916  0.0327 -0.1561  0.0347
  965MOL0     C30182  10.927   2.422   4.784  0.2270  0.3827  0.2975
  965MOL0     C30183  11.059   2.503   4.775  0.4950  0.3927 -0.3395
  965MOL0    Cl30184  11.017   2.670   4.714 -0.0679  0.2807  0.0339
  965MOL0     C30185  10.020   2.175   4.708 -0.3759  0.2689  0.5705
  965MOL0     C30186   9.887   2.134   4.690  0.0489  0.2017 -0.3173
  965MOL0     O30187   9.627   2.219   4.373  0.2116  0.0002 -0.1870
  965MOL0     C30188   9.372   2.124   4.381  1.0103  0.3592 -0.1306
  965MOL0     C30189   9.245   2.064   4.383 -0.9018  0.3097 -0.0454
  965MOL0     N30190   8.945   1.814   3.940 -0.0017 -0.5685  0.4620
  965MOL0     N30191   8.875   1.842   3.836  0.3200  0.2243  0.3283
  965MOL0     C30192   7.674   1.921   3.792 -0.4021  0.0946 -0.5788
  965MOL0     C30193   7.550   1.917   3.716 -0.3758  0.4613 -0.4676
  965MOL0     C30194   7.227   2.077   3.430  0.2737 -0.3568  0.0224
  965MOL0     C30195   7.231   2.130   3.303 -0.1061 -1.1557 -0.0853
  965MOL0     C30196   7.124   2.123   3.212  0.3011 -0.6790 -0.8597
  965MOL0     C30197   7.005   2.053   3.252  0.3093  0.2687  0.1168
  965MOL0     O30198   6.883   2.035   3.185  0.9982 -0.0631  0.7241
  965MOL0     C30199   6.858   2.077   3.047  0.4086  1.1978 -0.3567
  965MOL0     C30200   6.911   1.973   2.947  0.1855  0.6487 -0.1187
  965MOL0     C30201   6.904   2.024   2.798  0.5877 -1.0290 -1.1759
  965MOL0     C30202   6.765   2.046   2.750 -0.7712 -0.1142 -0.6303
  965MOL0     C30203   6.731   2.190   2.729 -0.4421  0.3936 -0.0119
  965MOL0     C30204   6.702   2.307   2.717  0.1339 -0.2687  0.2580
  965MOL0     C30205   7.003   2.003   3.381 -0.5460 -0.6157 -0.3648
  965MOL0     C30206   7.108   2.015   3.473 -0.8788 -0.6120 -0.8148
  965MOL0     C30207   7.085   1.969   3.616  0.0445 -0.4256  0.2246
  965MOL0     H30208   7.433   2.214   3.800  0.6898 -0.0937  0.6178
  965MOL0     H30209   7.645   2.208   3.953  2.6305 -1.8778  1.0243
  965MOL0     H30210   7.932   1.849   3.934 -0.1900 -0.1372  0.4740
  965MOL0     H30211   7.957   1.963   3.800 -0.5810 -0.8032 -0.2943
  965MOL0     H30212   8.008   2.027   4.097 -3.1745 -1.9438 -1.2407
  965MOL0     H30213   8.047   2.132   3.956 -1.3259  0.0281 -1.4109
  965MOL0     H30214   8.153   1.857   4.018  0.6642 -0.3727 -0.9410
  965MOL0     H30215   8.249   2.004   4.061 -0.3368  0.2632  1.4636
  965MOL0     H30216   8.334   1.875   3.851  0.6060  0.4994  3.2313
  965MOL0     H30217   8.185   1.923   3.770  0.1825  1.5098 -0.4360
  965MOL0     H30218   8.269   2.160   3.765 -1.1404 -0.2372 -0.1680
  965MOL0     H30219   8.368   2.147   3.911  1.9547 -2.0679  0.4249
  965MOL0     H30220   8.444   1.974   3.668 -1.1081  0.1986  1.0971
  965MOL0     H30221   8.478   2.143   3.673 -1.1548  0.8776 -0.3487
  965MOL0     H30222   8.557   2.032   3.930 -0.6599 -2.2719  0.6078
  965MOL0     H30223   8.676   2.078   3.800 -0.7205 -0.4866 -0.0572
  965MOL0     H30224   8.537   1.813   3.853  1.9264 -2.6540  0.9022
  965MOL0     H30225   8.629   1.865   3.700  2.7917  0.3309  0.2207
  965MOL0     H30226   8.651   1.740   4.058  0.5579  0.8554  0.7654
  965MOL0     H30227   8.910   1.622   4.178  2.1154  0.1208 -1.7746
  965MOL0     H30228   9.014   1.757   4.184  0.2382 -0.4115 -2.0284
  965MOL0     H30229   8.781   1.903   4.230 -2.2378  0.0658  2.2278
  965MOL0     H30230   8.719   1.753   4.288  0.9841 -1.3625  1.0472
  965MOL0     H30231   8.948   1.725   4.411  0.8514  0.5525  2.7305
  965MOL0     H30232   8.836   1.824   4.491  0.0232 -4.8130  0.2304
  965MOL0     H30233   8.937   2.029   4.399  0.3769  0.0783 -0.0786
  965MOL0     H30234   9.041   1.925   4.302 -2.6550 -0.3755 -0.9934
  965MOL0     H30235   9.267   1.880   4.663  0.8241 -1.0783 -0.5941
  965MOL0     H30236   9.491   1.989   4.665 -1.0617 -0.4769  0.0955
  965MOL0     H30237   9.797   2.346   4.442 -2.3322 -0.6670  2.8299
  965MOL0     H30238  10.051   2.383   4.429  0.5340  0.5721  0.4635
  965MOL0     H30239  10.260   2.272   4.825  5.6162  1.4439  1.0018
  965MOL0     H30240  10.296   2.134   4.727 -1.5422 -0.4077  1.4420
  965MOL0     H30241  10.495   2.297   4.652 -0.5399 -0.1779 -0.5153
  965MOL0     H30242  10.425   2.412   4.768  0.3955 -0.6731 -0.5977
  965MOL0     H30243  10.462   2.264   4.958 -2.5556 -3.9379  0.7608
  965MOL0     H30244  10.508   2.130   4.844  0.6972 -0.4756 -0.0056
  965MOL0     H30245  10.703   2.241   4.776  1.4777  2.4118 -1.1667
  965MOL0     H30246  10.711   2.207   4.943  2.3161  2.3319  0.3287
  965MOL0     H30247  10.662   2.446   5.010  1.1643 -0.3669  1.0210
  965MOL0     H30248  10.660   2.498   4.842  0.8789  0.9439 -0.4397
  965MOL0     H30249  10.863   2.547   4.952 -1.2248 -0.1807  0.5606
  965MOL0     H30250  10.889   2.386   5.001  0.0696  1.0062  0.8409
  965MOL0     H30251  10.869   2.449   4.695  2.0201  1.9870 -0.4459
  965MOL0     H30252  10.939   2.315   4.801  2.0132  0.7446  1.5997
  965MOL0     H30253  11.100   2.501   4.877  2.1743 -0.9414 -0.9920
  965MOL0     H30254  11.124   2.447   4.707 -1.8239 -1.9897 -0.7282
  965MOL0     H30255  10.071   2.130   4.793 -2.2393 -3.6959 -0.1715
  965MOL0     H30256   9.851   2.053   4.753 -1.4167 -3.1935 -4.8798
  965MOL0     H30257   9.390   2.198   4.304  0.0759 -0.0806 -0.7920
  965MOL0     H30258   9.186   2.082   4.294 -2.2296  0.5443  0.8546
  965MOL0     H30259   7.736   1.833   3.785 -1.9296 -1.0691  0.0683
  965MOL0     H30260   7.532   1.840   3.641 -0.8080  0.8760 -0.7894
  965MOL0     H30261   7.319   2.182   3.267  0.9983 -1.3285  2.1585
  965MOL0     H30262   7.134   2.173   3.116 -3.1086 -0.3204 -1.1443
  965MOL0     H30263   6.912   2.171   3.034  1.3018  0.9031  0.9492
  965MOL0     H30264   6.750   2.088   3.034  0.6475  0.1892 -4.3714
  965MOL0     H30265   6.855   1.878   2.953  2.3313 -0.6360  0.6517
  965MOL0     H30266   7.016   1.947   2.963 -0.5880 -3.7110 -0.7044
  965MOL0     H30267   6.945   1.951   2.728 -0.0384  0.2159 -2.9087
  965MOL0     H30268   6.963   2.116   2.797 -0.8404  0.2575  3.7996
  965MOL0     H30269   6.759   1.993   2.654 -3.5399 -2.2592  0.6179
  965MOL0     H30270   6.690   1.994   2.810 -1.7481  0.1841 -1.5563
  965MOL0     H30271   6.690   2.411   2.692 -2.2590 -0.5629 -0.0468
  965MOL0     H30272   6.910   1.960   3.414 -0.4197 -0.0547  0.7882
  965MOL0     H30273   7.117   2.034   3.698  0.7211 -3.2122  2.3134
  965MOL0     H30274   6.976   1.963   3.624 -0.1697 -4.8366 -2.6997
  965MOL0     H30275   7.122   1.867   3.626 -0.3764 -0.5420  0.6618
  966MOL0     O30276   2.049   7.967   9.087 -0.3045 -0.0186  0.6634
  966MOL0     C30277   2.133   7.981   8.998  1.2530 -0.4784  0.5017
  966MOL0     O30278   2.134   7.917   8.878 -0.5607 -0.9410  0.1002
  966MOL0     C30279   2.046   7.820   8.856 -0.3025 -0.5115 -0.3284
  966MOL0     C30280   2.083   7.689   8.884 -0.1487 -0.3376  0.1366
  966MOL0     C30281   1.987   7.586   8.878 -0.0221  1.2493 -0.3862
  966MOL0     C30282   1.855   7.615   8.861 -0.3962 -0.4734  0.6878
  966MOL0     O30283   1.759   7.519   8.862 -0.3194 -0.0728  0.1339
  966MOL0     C30284   1.628   7.547   8.830  0.0953  0.7089  0.1350
  966MOL0     C30285   1.530   7.423   8.859 -0.9704 -0.0687  0.0304
  966MOL0     C30286   1.538   7.377   9.000 -0.1522 -0.0209 -0.6010
  966MOL0     C30287   1.446   7.258   9.031 -0.3495  0.3577 -0.6581
  966MOL0     C30288   1.484   7.166   9.154  0.1164 -0.0113  0.5725
  966MOL0     C30289   1.530   7.021   9.124 -0.2339 -1.1688 -0.6755
  966MOL0     C30290   1.664   7.025   9.056  0.0837  0.0461  0.2815
  966MOL0     C30291   1.716   6.883   9.027 -0.0030 -0.0003  0.4091
  966MOL0     N30292   1.752   6.806   9.150  0.5402  0.0615  0.5346
  966MOL0     C30293   1.882   6.790   9.193  0.2692  0.1519  0.8585
  966MOL0     C30294   1.875   6.680   9.275 -1.2305 -0.7065 -0.0881
  966MOL0     C30295   1.993   6.626   9.337 -0.9912 -0.4877 -0.0251
  966MOL0     C30296   2.067   6.538   9.240 -0.9556 -0.3546  0.0567
  966MOL0     C30297   2.158   6.440   9.309 -0.8399  0.3106 -0.2774
  966MOL0     C30298   2.251   6.489   9.415 -0.0153  0.1393 -1.4046
  966MOL0     O30299   2.352   6.392   9.455  0.1558  0.1824 -1.0985
  966MOL0     C30300   2.483   6.426   9.448 -0.5561  0.0527 -0.0162
  966MOL0     C30301   2.541   6.549   9.477  1.1960 -0.1028 -0.2889
  966MOL0     C30302   2.675   6.575   9.456 -0.0535  0.4371  0.0422
  966MOL0     C30303   2.762   6.471   9.420  0.3914  0.0324  0.1844
  966MOL0     C30304   2.909   6.495   9.415  0.2695  0.4367 -0.2045
  966MOL0     O30305   2.956   6.625   9.442 -0.5002 -0.2777  0.0708
  966MOL0     C30306   3.090   6.650   9.419 -0.0657  0.7238  0.4873
  966MOL0     C30307   3.143   6.653   9.284  0.0354 -0.7166 -0.3723
  966MOL0     C30308   3.276   6.696   9.256  0.9080  0.2538 -0.3904
  966MOL0     C30309   3.360   6.731   9.365  0.3161  0.6765 -0.5324
  966MOL0     O30310   3.492   6.764   9.336  0.4416 -0.4267  0.1620
  966MOL0     C30311   3.576   6.835   9.430  0.4454 -0.2222 -0.1516
  966MOL0     C30312   3.706   6.871   9.359  0.4201  0.4435 -0.6605
  966MOL0     C30313   3.687   6.980   9.252 -0.2445  0.0098  0.3990
  966MOL0     C30314   3.807   6.963   9.164 -1.4350 -0.0734  0.3453
  966MOL0     C30315   3.802   7.082   9.065  0.3411 -0.2348 -0.1872
  966MOL0     C30316   3.929   7.093   8.989 -0.3303 -0.0950 -1.0178
  966MOL0     C30317   3.916   7.183   8.855  0.4526 -0.8791 -0.0242
  966MOL0     C30318   4.047   7.241   8.806 -0.4190  0.0913  0.1666
  966MOL0    Cl30319   4.118   7.360   8.902  0.3186 -0.5585 -0.5127
  966MOL0     C30320   3.311   6.725   9.499  0.7537  0.5444 -0.6723
  966MOL0     C30321   3.180   6.688   9.530  0.7191  0.0040 -0.4581
  966MOL0     O30322   2.981   6.396   9.393  0.1832 -0.3285  0.4790
  966MOL0     C30323   2.704   6.349   9.379  0.6937 -0.8658  0.6180
  966MOL0     C30324   2.569   6.326   9.394  0.6963  0.1557 -0.2002
  966MOL0     N30325   1.744   6.646   9.294  0.4651 -0.4824  0.7003
  966MOL0     N30326   1.670   6.731   9.219  0.2777  0.6780 -1.0361
  966MOL0     C30327   1.821   7.752   8.832  0.8027  0.8539  0.1226
  966MOL0     C30328   1.917   7.847   8.814  0.4870 -0.5042  0.0946
  966MOL0     C30329   2.251   8.065   9.020 -0.1891 -0.1687  0.0139
  966MOL0     C30330   2.376   8.002   9.026 -0.2196  0.5742 -0.3286
  966MOL0     C30331   2.482   8.083   9.055  0.3870  0.4088  0.2241
  966MOL0     C30332   2.473   8.217   9.087  0.3032  0.2405 -0.1865
  966MOL0     O30333   2.584   8.299   9.110  0.5056  0.6764  0.2274
  966MOL0     C30334   2.714   8.265   9.057  0.3998  0.1767 -0.2359
  966MOL0     C30335   2.725   8.254   8.907  0.0856 -0.2329  0.6054
  966MOL0     C30336   2.669   8.380   8.834  0.2635 -0.5150  0.2180
  966MOL0     C30337   2.696   8.389   8.688  0.1719  0.1355 -0.1321
  966MOL0     C30338   2.638   8.270   8.622  0.3786  0.8112 -0.1479
  966MOL0     C30339   2.593   8.168   8.582 -0.0266 -0.8438  0.1558
  966MOL0     C30340   2.350   8.281   9.088 -0.1317 -0.2710  0.4294
  966MOL0     C30341   2.240   8.199   9.068  0.0258  0.7955 -0.3335
  966MOL0     C30342   2.107   8.266   9.052  0.0595  0.0196 -0.0482
  966MOL0     H30343   2.185   7.680   8.921  0.4489  1.5783 -0.8977
  966MOL0     H30344   2.003   7.480   8.895 -2.7863  1.1360  2.2905
  966MOL0     H30345   1.585   7.632   8.884 -1.5527  0.6762 -1.0537
  966MOL0     H30346   1.624   7.553   8.721  1.2419 -0.7504 -0.0283
  966MOL0     H30347   1.552   7.348   8.783  0.6890 -1.0126  1.3688
  966MOL0     H30348   1.430   7.466   8.853 -1.6045 -1.5247 -0.0717
  966MOL0     H30349   1.502   7.461   9.059 -1.4772 -1.7960  1.2620
  966MOL0     H30350   1.641   7.356   9.029 -0.2130 -0.6447 -0.8130
  966MOL0     H30351   1.354   7.310   9.061  0.6321  2.6815 -1.4773
  966MOL0     H30352   1.436   7.207   8.935  1.5213 -3.1562  0.8572
  966MOL0     H30353   1.554   7.218   9.220  0.7095 -2.5224  2.0578
  966MOL0     H30354   1.389   7.159   9.208 -1.8288 -0.4201 -2.6120
  966MOL0     H30355   1.537   6.966   9.218  2.4938 -0.8442 -0.6350
  966MOL0     H30356   1.460   6.969   9.057 -0.7482  0.4078 -1.4197
  966MOL0     H30357   1.725   7.072   9.133 -2.0083  1.6593  1.0511
  966MOL0     H30358   1.660   7.081   8.962  0.5454 -1.8530 -0.9228
  966MOL0     H30359   1.638   6.831   8.970  0.2620  0.9154 -0.8206
  966MOL0     H30360   1.804   6.898   8.965 -0.4075 -2.7964 -1.0393
  966MOL0     H30361   1.963   6.855   9.160  0.8307  1.4719  4.3158
  966MOL0     H30362   2.059   6.705   9.376  0.9714  0.1383 -4.0512
  966MOL0     H30363   1.951   6.556   9.409  1.9154 -1.8790  0.4901
  966MOL0     H30364   1.993   6.481   9.183 -1.2660 -0.0282  0.1245
  966MOL0     H30365   2.121   6.607   9.173 -0.9531 -0.7930 -0.3988
  966MOL0     H30366   2.222   6.391   9.235 -1.1672  3.6168 -3.0426
  966MOL0     H30367   2.094   6.366   9.357  0.2473 -0.8662 -0.6124
  966MOL0     H30368   2.198   6.516   9.507 -0.0040 -0.3849 -1.2427
  966MOL0     H30369   2.307   6.580   9.388  1.6767 -0.1098  0.9576
  966MOL0     H30370   2.474   6.628   9.511 -3.0156 -2.5798 -1.9994
  966MOL0     H30371   2.702   6.678   9.480 -1.4460  1.5741 -2.7744
  966MOL0     H30372   3.081   6.618   9.203 -0.0555 -1.4648  0.0098
  966MOL0     H30373   3.311   6.705   9.154  1.6055 -0.9384 -0.2821
  966MOL0     H30374   3.533   6.931   9.460 -1.7124 -1.1556 -0.0242
  966MOL0     H30375   3.588   6.773   9.519 -1.5028  1.2927  1.2742
  966MOL0     H30376   3.774   6.906   9.437 -1.1569  0.8799  0.5737
  966MOL0     H30377   3.742   6.776   9.317  0.9737  0.6391 -0.6315
  966MOL0     H30378   3.599   6.965   9.189 -1.3891  2.6951  1.2318
  966MOL0     H30379   3.683   7.077   9.303  1.9844  1.2051 -1.5012
  966MOL0     H30380   3.801   6.867   9.113 -1.4107  0.1992 -0.1709
  966MOL0     H30381   3.895   6.963   9.229 -1.0016  0.3438 -0.2342
  966MOL0     H30382   3.773   7.180   9.104 -1.9609 -1.3467  1.1330
  966MOL0     H30383   3.723   7.074   8.989  0.5636  1.9087 -0.6981
  966MOL0     H30384   4.000   7.140   9.057 -1.5980 -0.6982  0.7935
  966MOL0     H30385   3.960   6.991   8.965 -1.4085 -0.4955 -0.7703
  966MOL0     H30386   3.840   7.257   8.880  2.3588  1.7428 -1.4584
  966MOL0     H30387   3.873   7.123   8.774 -2.1133 -1.3152  1.5588
  966MOL0     H30388   4.129   7.169   8.804 -1.1800 -0.7656 -1.9955
  966MOL0     H30389   4.023   7.281   8.707  1.3000  2.5492  0.6394
  966MOL0     H30390   3.368   6.750   9.588 -1.4404  3.8136 -0.0435
  966MOL0     H30391   3.148   6.664   9.631 -0.2720  2.6487 -0.0828
  966MOL0     H30392   2.776   6.278   9.339  1.9650  2.4794 -3.9171
  966MOL0     H30393   2.521   6.233   9.366  0.4982  0.2616 -0.2187
  966MOL0     H30394   1.714   7.767   8.824  0.1989 -2.3791  0.5858
  966MOL0     H30395   1.880   7.949   8.807  0.5216 -0.4669  0.4425
  966MOL0     H30396   2.382   7.898   8.995  0.2765  0.5793 -0.2659
  966MOL0     H30397   2.580   8.037   9.060  0.2765  0.0854 -0.4400
  966MOL0     H30398   2.738   8.166   9.096 -0.3908  0.1906  0.3125
  966MOL0     H30399   2.784   8.334   9.105 -0.4680  1.9255 -1.4001
  966MOL0     H30400   2.662   8.172   8.872  1.0411 -1.0390  0.7043
  966MOL0     H30401   2.824   8.226   8.869 -0.9382  0.4362 -2.8838
  966MOL0     H30402   2.699   8.475   8.881 -0.7116 -0.7668  1.3969
  966MOL0     H30403   2.564   8.371   8.861 -0.3818  0.0822 -1.9138
  966MOL0     H30404   2.660   8.483   8.644 -1.6295  0.0002  0.9579
  966MOL0     H30405   2.801   8.386   8.659 -0.2353 -0.3906 -1.6543
  966MOL0     H30406   2.558   8.083   8.526 -2.1518  1.3673 -2.1365
  966MOL0     H30407   2.339   8.388   9.101 -1.3976  0.5842 -5.1629
  966MOL0     H30408   2.052   8.240   9.143  1.3804  0.4674  0.8956
  966MOL0     H30409   2.114   8.375   9.054  0.2825  0.0025  0.0364
  966MOL0     H30410   2.049   8.238   8.963 -2.9367  3.8257  0.4267
  967MOL0     O30411   1.634   7.984   0.543 -0.2835  1.0801 -0.7778
  967MOL0     C30412   1.603   7.955   0.426  0.4362  0.0803 -0.3015
  967MOL0     O30413   1.699   7.967   0.325  0.0432 -0.7482  0.6584
  967MOL0     C30414   1.833   7.984   0.351  0.6805 -0.0612  0.4175
  967MOL0     C30415   1.910   8.047   0.253  0.5639 -0.0992  0.2222
  967MOL0     C30416   2.049   8.044   0.256 -0.2630  0.0296  0.1909
  967MOL0     C30417   2.117   7.980   0.356 -0.6342 -0.3547 -0.5291
  967MOL0     O30418   2.248   7.989   0.363 -0.6941 -0.1912  0.5771
  967MOL0     C30419   2.320   7.865   0.355 -0.0772  0.4154 -0.0168
  967MOL0     C30420   2.296   7.789   0.223  0.4697 -0.0081  0.4487
  967MOL0     C30421   2.370   7.652   0.217 -0.0997 -0.8377  0.1299
  967MOL0     C30422   2.336   7.564   0.099 -0.3775  0.3383  0.1859
  967MOL0     C30423   2.412   7.439   0.124  0.1797 -0.7614 -0.9115
  967MOL0     C30424   2.400   7.336   0.015  0.4055 -0.8943  0.4843
  967MOL0     C30425   2.261   7.293  -0.002 -0.0329  0.1072 -0.0867
  967MOL0     C30426   2.239   7.201  -0.122  0.4311 -0.4913  0.5176
  967MOL0     N30427   2.131   7.115  -0.096 -0.1838  0.5507  0.0506
  967MOL0     C30428   2.009   7.154  -0.042 -0.5847 -0.3077 -0.1412
  967MOL0     C30429   1.937   7.042  -0.054  0.3060  0.1287 -0.5474
  967MOL0     C30430   1.795   7.021  -0.005 -0.0887 -0.6592  0.1994
  967MOL0     C30431   1.772   6.880   0.064  0.4590  0.0736 -0.1299
  967MOL0     C30432   1.803   6.887   0.216  0.0925  0.8638 -0.3276
  967MOL0     C30433   1.954   6.898   0.235 -0.5417 -0.7114 -0.3659
  967MOL0     O30434   2.001   6.876   0.369  0.3986 -0.1497  0.0145
  967MOL0     C30435   2.139   6.852   0.381 -0.2328 -0.5308 -0.3599
  967MOL0     C30436   2.235   6.858   0.280  0.7520 -0.2607  0.1888
  967MOL0     C30437   2.369   6.817   0.302 -0.0146  0.3449  0.1188
  967MOL0     C30438   2.408   6.766   0.431 -0.0447  0.0226 -0.4189
  967MOL0     C30439   2.551   6.719   0.458 -0.0232 -0.8199  0.3029
  967MOL0     O30440   2.584   6.663   0.581  0.3555  0.9451  0.3399
  967MOL0     C30441   2.712   6.611   0.604  0.3155 -0.2453 -0.2729
  967MOL0     C30442   2.774   6.532   0.508  0.2451  0.1780  0.9407
  967MOL0     C30443   2.894   6.478   0.527 -0.4135  0.5909  0.4842
  967MOL0     C30444   2.963   6.501   0.646  0.3241 -0.0221  0.6341
  967MOL0     O30445   3.094   6.454   0.660  0.9498  0.5452 -0.5108
  967MOL0     C30446   3.153   6.472   0.791  0.5788 -0.7426  0.5130
  967MOL0     C30447   3.284   6.405   0.783 -0.4173 -0.3632 -0.4659
  967MOL0     C30448   3.373   6.428   0.913 -0.1115 -0.1498 -0.1523
  967MOL0     C30449   3.498   6.338   0.906 -0.1320 -0.1777  0.3728
  967MOL0     C30450   3.545   6.294   1.044  0.1590  0.0804 -0.1249
  967MOL0     C30451   3.658   6.187   1.035 -0.3503 -0.0451  0.0574
  967MOL0     C30452   3.787   6.240   0.974 -0.7811  0.0906  1.0836
  967MOL0     C30453   3.866   6.349   1.058  0.7739  0.9654  0.9512
  967MOL0    Cl30454   4.018   6.385   0.973  0.5937  0.0121 -0.0902
  967MOL0     C30455   2.891   6.568   0.748  0.4738 -0.6855 -0.1671
  967MOL0     C30456   2.767   6.635   0.731 -0.0394  0.6172 -0.5179
  967MOL0     O30457   2.627   6.745   0.363 -0.1106  0.3396 -0.4736
  967MOL0     C30458   2.315   6.768   0.535 -0.2301  0.8730  0.6272
  967MOL0     C30459   2.185   6.816   0.510 -0.4261 -0.2377 -0.7176
  967MOL0     N30460   2.006   6.935  -0.108  0.2100 -0.2624 -0.1308
  967MOL0     N30461   2.127   6.977  -0.128 -0.2768 -0.2501 -0.9607
  967MOL0     C30462   2.034   7.914   0.452  0.1194  0.3012  0.6279
  967MOL0     C30463   1.898   7.920   0.455 -0.2010 -0.0523  0.3373
  967MOL0     C30464   1.471   7.890   0.393 -0.3455  0.4749  0.2631
  967MOL0     C30465   1.463   7.815   0.277  0.2395  0.2792 -0.3448
  967MOL0     C30466   1.346   7.745   0.240  0.5141 -0.3961 -0.0333
  967MOL0     C30467   1.243   7.737   0.330 -0.4397 -0.4878 -0.8635
  967MOL0     O30468   1.123   7.675   0.314 -0.0548 -0.0388  0.0177
  967MOL0     C30469   1.076   7.662   0.178  0.2005 -0.5066  0.0396
  967MOL0     C30470   0.932   7.611   0.154 -0.0119  0.1859 -0.0774
  967MOL0     C30471   0.921   7.462   0.191  0.1302  0.0844 -0.3796
  967MOL0     C30472   0.964   7.366   0.083  0.2146  0.2534 -0.7156
  967MOL0     C30473   0.877   7.360  -0.033  0.1754  0.1995 -0.4875
  967MOL0     C30474   0.795   7.343  -0.122 -0.0814 -1.0060  0.3447
  967MOL0     C30475   1.253   7.811   0.451  0.4711 -0.0310 -0.4838
  967MOL0     C30476   1.361   7.893   0.481  0.2287 -0.2741 -0.7105
  967MOL0     C30477   1.352   7.981   0.610  0.3544  0.2072  0.3825
  967MOL0     H30478   1.853   8.099   0.176 -0.6709  0.5785  1.5317
  967MOL0     H30479   2.116   8.095   0.188  0.8559  1.2344  2.0907
  967MOL0     H30480   2.425   7.893   0.367 -0.1893 -0.2222  3.3325
  967MOL0     H30481   2.290   7.801   0.438 -1.2719  4.1093  2.6399
  967MOL0     H30482   2.339   7.848   0.142  0.1299  0.7382  0.8001
  967MOL0     H30483   2.189   7.779   0.205  0.6093  1.3262 -1.4282
  967MOL0     H30484   2.339   7.600   0.308 -1.7639  1.6769  1.1090
  967MOL0     H30485   2.479   7.662   0.214 -0.1615 -0.2743 -0.6479
  967MOL0     H30486   2.228   7.553   0.089 -0.2996  1.3474 -2.8460
  967MOL0     H30487   2.379   7.599   0.004  2.7584 -2.3647  0.4251
  967MOL0     H30488   2.518   7.457   0.140 -0.1887 -0.7211  2.0083
  967MOL0     H30489   2.382   7.391   0.218 -0.1411 -1.0104 -1.1375
  967MOL0     H30490   2.441   7.372  -0.080  1.1474 -2.1894  0.2930
  967MOL0     H30491   2.468   7.253   0.037  1.2334 -0.1108  0.9991
  967MOL0     H30492   2.201   7.381  -0.027 -0.8972 -0.7904 -1.3796
  967MOL0     H30493   2.225   7.250   0.092  2.4024 -0.7011  0.5503
  967MOL0     H30494   2.219   7.262  -0.211  0.7646  2.2081  2.1769
  967MOL0     H30495   2.330   7.141  -0.134  1.1039  0.7301 -0.7869
  967MOL0     H30496   1.993   7.259  -0.019  5.2990  0.2319  3.6516
  967MOL0     H30497   1.771   7.100   0.066  1.7464  0.8391 -0.7584
  967MOL0     H30498   1.733   7.023  -0.095  0.1207 -0.8785  0.0466
  967MOL0     H30499   1.671   6.841   0.052  0.1616  0.7777  0.0172
  967MOL0     H30500   1.841   6.807   0.021 -0.1690 -0.9392  0.5311
  967MOL0     H30501   1.781   6.787   0.254  3.2382  0.1357 -0.0902
  967MOL0     H30502   1.740   6.965   0.260 -0.0796 -0.1853  1.3639
  967MOL0     H30503   1.994   6.996   0.205 -2.2741  0.1811  0.1254
  967MOL0     H30504   2.007   6.818   0.182 -0.6282 -1.6845  0.9683
  967MOL0     H30505   2.214   6.895   0.180  1.9333 -0.1462 -0.0418
  967MOL0     H30506   2.445   6.807   0.225  0.2941  0.8206  0.3582
  967MOL0     H30507   2.730   6.517   0.410 -1.2165  0.8279  1.4760
  967MOL0     H30508   2.935   6.410   0.454 -1.5855  1.8988 -1.4611
  967MOL0     H30509   3.185   6.576   0.802  2.4455 -1.2512  0.1649
  967MOL0     H30510   3.089   6.433   0.871 -0.2069  1.1458  0.8549
  967MOL0     H30511   3.263   6.298   0.775  0.0130 -0.4514 -0.4335
  967MOL0     H30512   3.332   6.436   0.690 -1.2921  0.0258 -0.7926
  967MOL0     H30513   3.397   6.534   0.923 -3.9764  1.0761 -1.6973
  967MOL0     H30514   3.310   6.405   0.999  0.7483  1.7774  1.0335
  967MOL0     H30515   3.583   6.392   0.863  0.2007  0.4696  1.8087
  967MOL0     H30516   3.480   6.242   0.856  2.7984 -0.2138 -0.8013
  967MOL0     H30517   3.469   6.241   1.102 -0.6692 -0.4250 -1.6164
  967MOL0     H30518   3.582   6.378   1.104  1.5401 -1.1831  0.8557
  967MOL0     H30519   3.684   6.149   1.134  0.0578  0.6064  0.2037
  967MOL0     H30520   3.612   6.102   0.983 -1.6412 -0.0377  1.1147
  967MOL0     H30521   3.765   6.282   0.875 -0.3417 -1.6345  0.2228
  967MOL0     H30522   3.854   6.154   0.969 -0.8949  0.0701 -1.6315
  967MOL0     H30523   3.803   6.436   1.077 -2.8409 -1.5811  1.6350
  967MOL0     H30524   3.883   6.311   1.160 -2.1007  0.8077  1.4462
  967MOL0     H30525   2.929   6.598   0.845 -4.6274 -1.0310  2.2854
  967MOL0     H30526   2.719   6.704   0.799  0.9491  0.4480  0.3678
  967MOL0     H30527   2.334   6.723   0.632 -0.3372  0.5925  0.5173
  967MOL0     H30528   2.128   6.810   0.602  4.0794 -0.6035  2.3609
  967MOL0     H30529   2.077   7.855   0.532 -2.2308 -1.1534  0.9194
  967MOL0     H30530   1.829   7.873   0.524 -2.3875 -0.8115 -2.1725
  967MOL0     H30531   1.543   7.821   0.203 -1.4417 -1.3825 -2.4491
  967MOL0     H30532   1.341   7.691   0.146 -0.8685 -1.6556  0.7135
  967MOL0     H30533   1.143   7.594   0.124 -0.8893 -1.3935 -0.2256
  967MOL0     H30534   1.083   7.761   0.131  1.5352 -0.6279 -0.0526
  967MOL0     H30535   0.904   7.616   0.049  1.8569 -1.8304 -0.7523
  967MOL0     H30536   0.860   7.664   0.217  3.4712  1.3744  3.2814
  967MOL0     H30537   0.814   7.443   0.210  0.4988 -2.1500 -0.2509
  967MOL0     H30538   0.987   7.453   0.278 -0.6983  0.4907  0.3133
  967MOL0     H30539   1.067   7.392   0.057  0.9212 -0.7732  0.8434
  967MOL0     H30540   0.957   7.266   0.127  0.8421  0.2656 -0.5661
  967MOL0     H30541   0.751   7.328  -0.218  3.9443 -1.4495 -1.6053
  967MOL0     H30542   1.171   7.807   0.522  2.0306  0.1179  1.4075
  967MOL0     H30543   1.392   7.923   0.694 -0.3587 -1.6607 -0.5010
  967MOL0     H30544   1.411   8.071   0.589 -0.6329  0.5770 -1.0074
  967MOL0     H30545   1.248   8.007   0.632  0.0181  0.1826 -1.0397
  968MOL0     O30546   3.713   7.792   7.054  0.2478  0.4478  0.2408
  968MOL0     C30547   3.649   7.703   7.007 -0.5152 -0.1203  0.3514
  968MOL0     O30548   3.699   7.579   6.972  0.7474  0.4200  0.0458
  968MOL0     C30549   3.830   7.550   6.993 -0.5231  0.2135 -0.8243
  968MOL0     C30550   3.867   7.441   7.079 -0.3316  0.7373 -0.2859
  968MOL0     C30551   4.001   7.405   7.104 -0.3620 -0.9294  0.2470
  968MOL0     C30552   4.105   7.485   7.054 -0.0911  0.0778 -0.5079
  968MOL0     O30553   4.228   7.446   7.086 -0.3609  0.5749 -0.2320
  968MOL0     C30554   4.331   7.450   6.987 -0.3129  0.6713 -1.3666
  968MOL0     C30555   4.462   7.393   7.037  0.3961 -0.0494  0.2548
  968MOL0     C30556   4.448   7.243   7.056  0.2427 -0.2257 -0.5020
  968MOL0     C30557   4.569   7.177   7.134 -0.3595  0.7897  0.0183
  968MOL0     C30558   4.703   7.189   7.049 -0.9141 -0.0529  0.0398
  968MOL0     C30559   4.816   7.109   7.122  0.8684 -0.3921 -0.3203
  968MOL0     C30560   4.934   7.118   7.035 -0.4364 -0.2771  0.3328
  968MOL0     C30561   5.047   7.035   7.104 -0.1243 -1.2344  0.3559
  968MOL0     N30562   5.174   7.027   7.027  0.0030 -0.2925 -0.7813
  968MOL0     C30563   5.244   7.130   6.968 -0.0602  0.6038 -0.0351
  968MOL0     C30564   5.316   7.074   6.865 -0.0919  0.2335  0.7802
  968MOL0     C30565   5.395   7.143   6.756  0.3897 -0.3253 -0.1793
  968MOL0     C30566   5.324   7.138   6.620  1.3254  0.1372 -0.7467
  968MOL0     C30567   5.380   7.230   6.513 -0.3767 -0.3231  0.2569
  968MOL0     C30568   5.533   7.205   6.488  0.0694 -0.8160 -0.5727
  968MOL0     O30569   5.600   7.276   6.597 -0.1482  0.4398 -0.4360
  968MOL0     C30570   5.733   7.304   6.597  0.3721 -0.5432  0.0631
  968MOL0     C30571   5.796   7.359   6.714  0.5658 -1.0066  1.1352
  968MOL0     C30572   5.930   7.365   6.726 -0.2741  0.5771 -0.3039
  968MOL0     C30573   6.018   7.321   6.620 -0.0002  0.1783 -0.6604
  968MOL0     C30574   6.171   7.311   6.631  0.5745  0.0725 -0.5376
  968MOL0     O30575   6.232   7.356   6.747 -0.1273  0.2685 -0.8266
  968MOL0     C30576   6.367   7.369   6.762  0.5414  0.0627  0.0469
  968MOL0     C30577   6.425   7.493   6.759 -0.4806  0.5866 -0.0300
  968MOL0     C30578   6.563   7.503   6.750  0.0374 -0.0505 -0.3746
  968MOL0     C30579   6.647   7.397   6.784  0.0662 -0.3596  0.6240
  968MOL0     O30580   6.783   7.433   6.791  0.1719  1.1830 -0.2654
  968MOL0     C30581   6.877   7.329   6.755 -0.4652 -0.1727  0.4838
  968MOL0     C30582   6.998   7.420   6.762 -0.0267 -1.0495  0.8526
  968MOL0     C30583   7.128   7.335   6.727 -1.2179 -0.2000  0.4740
  968MOL0     C30584   7.243   7.437   6.714 -1.3009 -0.8331  0.5384
  968MOL0     C30585   7.378   7.356   6.697  0.3361 -0.0418  1.1319
  968MOL0     C30586   7.384   7.263   6.576 -0.8068 -0.2108  0.1328
  968MOL0     C30587   7.384   7.347   6.442 -0.5092 -0.6567  1.0439
  968MOL0     C30588   7.422   7.237   6.334  0.4059  0.4972 -0.6135
  968MOL0    Cl30589   7.570   7.136   6.370 -0.5791  0.1136  0.3009
  968MOL0     C30590   6.593   7.268   6.807 -0.3612 -0.3229  0.5558
  968MOL0     C30591   6.451   7.261   6.792 -0.1165  0.0068  0.5110
  968MOL0     O30592   6.242   7.280   6.531  0.1522 -0.2739  0.0202
  968MOL0     C30593   5.953   7.283   6.497 -0.1430  0.3003 -0.4171
  968MOL0     C30594   5.815   7.269   6.492  0.4609 -1.0293  0.7737
  968MOL0     N30595   5.291   6.941   6.866  0.1037 -0.4105  0.3279
  968MOL0     N30596   5.219   6.909   6.965  0.3960  0.0244  0.4103
  968MOL0     C30597   4.070   7.586   6.958 -0.3226  0.3398  0.1601
  968MOL0     C30598   3.936   7.635   6.942  0.4077  0.2654  0.1809
  968MOL0     C30599   3.492   7.708   6.980 -0.1426  0.4073 -0.9084
  968MOL0     C30600   3.433   7.835   6.981 -0.6058  0.2681 -0.4232
  968MOL0     C30601   3.299   7.849   6.948  0.8163  0.1184  0.1459
  968MOL0     C30602   3.210   7.740   6.928 -0.3027  0.2672 -0.0673
  968MOL0     O30603   3.072   7.766   6.889  0.7620 -0.8038 -0.2121
  968MOL0     C30604   2.985   7.654   6.889  0.9833  0.4234  0.2671
  968MOL0     C30605   2.863   7.663   6.796 -0.1563 -0.2507 -0.0243
  968MOL0     C30606   2.776   7.778   6.859 -0.2867  0.8368 -0.1264
  968MOL0     C30607   2.667   7.817   6.754 -0.3926  1.1268  0.0357
  968MOL0     C30608   2.556   7.896   6.815 -0.6791 -0.2626 -0.4297
  968MOL0     C30609   2.473   7.977   6.867  0.0811  1.3505  0.1216
  968MOL0     C30610   3.269   7.613   6.952  0.7354 -0.8685  0.0764
  968MOL0     C30611   3.402   7.594   6.974  0.2977 -0.1896 -0.2065
  968MOL0     C30612   3.439   7.450   6.992  0.4287 -0.3246 -0.0266
  968MOL0     H30613   3.791   7.374   7.118 -1.7353 -0.3493 -4.4499
  968MOL0     H30614   4.032   7.318   7.161 -1.2129 -0.7100  1.0676
  968MOL0     H30615   4.297   7.398   6.897 -2.9462 -2.2432  1.0921
  968MOL0     H30616   4.353   7.550   6.948  1.8350  0.4341 -0.8969
  968MOL0     H30617   4.494   7.444   7.128  1.1286  1.4308 -0.7784
  968MOL0     H30618   4.537   7.407   6.958  1.2603 -2.3071  0.6076
  968MOL0     H30619   4.439   7.188   6.962  2.6039  0.4942 -1.2326
  968MOL0     H30620   4.359   7.216   7.113  0.5123  0.1987  0.1410
  968MOL0     H30621   4.570   7.232   7.228 -2.1218 -1.1934  1.2792
  968MOL0     H30622   4.543   7.073   7.153  0.0070  0.9636  1.5443
  968MOL0     H30623   4.678   7.146   6.952  0.6523  1.2558 -0.9998
  968MOL0     H30624   4.729   7.291   7.019  2.6943 -1.0108 -0.6033
  968MOL0     H30625   4.844   7.149   7.220  1.9368 -0.5342 -0.5619
  968MOL0     H30626   4.786   7.003   7.120  4.2126 -1.4605 -2.6182
  968MOL0     H30627   4.967   7.222   7.030 -0.2821 -0.2368  1.6270
  968MOL0     H30628   4.917   7.083   6.933 -0.1461  0.0497  0.1726
  968MOL0     H30629   5.076   7.084   7.198  2.6675 -3.6900  0.9182
  968MOL0     H30630   5.017   6.935   7.136  4.8039 -2.9660  0.4093
  968MOL0     H30631   5.251   7.236   6.991  2.2941  0.8650 -1.5809
  968MOL0     H30632   5.416   7.246   6.786  0.3918  0.4061 -2.5305
  968MOL0     H30633   5.487   7.084   6.760  1.4973  1.0743 -2.9384
  968MOL0     H30634   5.341   7.037   6.582 -2.0925 -0.4421 -1.0596
  968MOL0     H30635   5.220   7.171   6.630  1.1261 -0.7427  0.2573
  968MOL0     H30636   5.383   7.332   6.550  2.7599  0.0491 -0.7301
  968MOL0     H30637   5.323   7.216   6.421  1.0397  0.1035 -0.7309
  968MOL0     H30638   5.558   7.237   6.386  0.3830 -1.1696 -0.6059
  968MOL0     H30639   5.550   7.097   6.487  3.7418 -0.3703 -0.7429
  968MOL0     H30640   5.731   7.383   6.797  0.4837 -0.8854  1.0357
  968MOL0     H30641   5.970   7.396   6.822 -2.4396  0.7710  0.5952
  968MOL0     H30642   6.373   7.588   6.754  2.3431  2.2124 -2.0089
  968MOL0     H30643   6.614   7.596   6.725  0.2992 -0.1024 -0.0433
  968MOL0     H30644   6.882   7.244   6.824  0.4754  0.7147  1.5315
  968MOL0     H30645   6.856   7.304   6.650 -0.2469 -0.3783  0.4891
  968MOL0     H30646   6.986   7.502   6.690 -4.2705 -0.0834  2.3566
  968MOL0     H30647   7.002   7.465   6.862  0.3552  2.1029 -0.4590
  968MOL0     H30648   7.141   7.249   6.793  2.3745  0.6780  1.1154
  968MOL0     H30649   7.105   7.291   6.629 -2.9163  0.7659  0.3805
  968MOL0     H30650   7.243   7.497   6.806  0.9321 -1.3109  0.9146
  968MOL0     H30651   7.214   7.499   6.629  0.2681 -1.9690 -0.8855
  968MOL0     H30652   7.415   7.297   6.781 -0.2665 -3.2270 -0.7066
  968MOL0     H30653   7.457   7.427   6.673  0.2124 -0.3386 -0.2095
  968MOL0     H30654   7.483   7.216   6.572 -0.5256  0.3727 -0.0117
  968MOL0     H30655   7.300   7.193   6.576 -1.3177  0.3241  2.1768
  968MOL0     H30656   7.463   7.421   6.451 -0.9594  0.0322 -0.4483
  968MOL0     H30657   7.291   7.398   6.414  1.0980  1.0608 -1.5378
  968MOL0     H30658   7.346   7.164   6.306 -0.3622  0.3251  1.6936
  968MOL0     H30659   7.445   7.292   6.242  0.9054 -2.0971 -2.1512
  968MOL0     H30660   6.658   7.187   6.839  0.3507  0.5662  1.4429
  968MOL0     H30661   6.401   7.173   6.832  1.6691 -1.6315 -0.6949
  968MOL0     H30662   6.001   7.259   6.403 -2.5415 -1.6011 -1.2649
  968MOL0     H30663   5.769   7.240   6.398 -2.6265  0.3031  1.7215
  968MOL0     H30664   4.141   7.640   6.897  0.4220  1.7053  2.1121
  968MOL0     H30665   3.917   7.725   6.885 -0.9435  0.0852  0.3084
  968MOL0     H30666   3.501   7.918   6.994  0.2045  0.3147 -3.9005
  968MOL0     H30667   3.260   7.950   6.940 -1.0828 -0.4717  1.2623
  968MOL0     H30668   2.958   7.647   6.994  2.3433 -2.1024  0.5404
  968MOL0     H30669   3.045   7.567   6.858  1.8673  1.4724 -1.0711
  968MOL0     H30670   2.811   7.569   6.778 -1.5356  0.4855  0.0259
  968MOL0     H30671   2.905   7.699   6.702 -3.1244 -1.5301 -1.9715
  968MOL0     H30672   2.828   7.863   6.904 -1.4849 -0.1468  3.4172
  968MOL0     H30673   2.723   7.732   6.943  0.4520 -1.5456 -0.8967
  968MOL0     H30674   2.718   7.868   6.672 -1.0244  2.6381  0.5422
  968MOL0     H30675   2.617   7.730   6.712  2.2430 -1.1849  1.3982
  968MOL0     H30676   2.404   8.042   6.917 -0.7964 -1.5417  3.0152
  968MOL0     H30677   3.209   7.522   6.959  2.2964 -1.8762  1.1528
  968MOL0     H30678   3.353   7.383   7.007  1.1412 -1.4699 -0.8541
  968MOL0     H30679   3.478   7.424   6.893 -0.5924  2.3375 -1.2158
  968MOL0     H30680   3.507   7.435   7.076 -1.0155 -1.6462  0.9665
  969MOL0     O30681   1.478   5.441   9.022  0.2961  0.2389 -0.3719
  969MOL0     C30682   1.550   5.351   9.056 -0.4073  0.8803  0.5147
  969MOL0     O30683   1.509   5.217   9.061 -0.1877  0.1019  0.3674
  969MOL0     C30684   1.377   5.186   9.043 -0.5586 -0.2687  0.0993
  969MOL0     C30685   1.339   5.088   8.962 -0.1724 -0.0697 -0.9768
  969MOL0     C30686   1.210   5.038   8.960  0.5808  0.6371 -0.5739
  969MOL0     C30687   1.118   5.091   9.052  0.2647 -0.0636 -0.7027
  969MOL0     O30688   0.989   5.036   9.056 -0.2229  0.1735 -0.1814
  969MOL0     C30689   0.909   5.057   8.942  0.0049 -0.6261 -0.0281
  969MOL0     C30690   0.860   5.206   8.940 -0.8175  0.2422  0.1816
  969MOL0     C30691   0.781   5.254   9.063 -0.4757 -0.5444  0.7995
  969MOL0     C30692   0.728   5.389   9.018 -0.1510  0.6792  0.2141
  969MOL0     C30693   0.665   5.472   9.126  0.2923 -0.2942 -0.0330
  969MOL0     C30694   0.622   5.606   9.063  0.3312 -0.1152 -0.2140
  969MOL0     C30695   0.584   5.698   9.175 -0.3396 -0.3849  0.3560
  969MOL0     C30696   0.685   5.811   9.193  0.2314  0.2570 -0.5388
  969MOL0     N30697   0.706   5.890   9.070 -0.2050 -0.1635  0.0372
  969MOL0     C30698   0.611   5.951   8.992  0.3718  0.1378 -0.2922
  969MOL0     C30699   0.674   6.011   8.892  0.3126  0.5163  0.0921
  969MOL0     C30700   0.607   6.087   8.775  0.0195 -0.3290  0.3659
  969MOL0     C30701   0.633   6.238   8.764 -0.9427  0.4381 -0.5250
  969MOL0     C30702   0.547   6.298   8.649  0.1952 -0.3522 -0.7137
  969MOL0     C30703   0.576   6.447   8.641  1.6364 -0.8386 -0.4069
  969MOL0     O30704   0.484   6.515   8.552 -0.7176  0.2796  0.2934
  969MOL0     C30705   0.355   6.534   8.589 -0.6868 -0.3688 -0.1775
  969MOL0     C30706   0.306   6.504   8.720  0.6248 -0.2823 -0.2078
  969MOL0     C30707   0.177   6.531   8.754  1.0096 -0.5792  0.7218
  969MOL0     C30708   0.090   6.588   8.662 -0.1083 -0.3282  0.0201
  969MOL0     C30709  -0.046   6.634   8.689  0.2357  0.4156  0.0270
  969MOL0     O30710  -0.123   6.657   8.574 -0.1290 -0.9795 -0.3175
  969MOL0     C30711  -0.257   6.698   8.583  0.1280  0.6078 -0.1342
  969MOL0     C30712  -0.323   6.673   8.462  0.3946 -0.2081  0.9135
  969MOL0     C30713  -0.458   6.709   8.443 -0.8734  0.3053 -0.2014
  969MOL0     C30714  -0.532   6.761   8.553 -0.4562 -0.1923  0.1067
  969MOL0     O30715  -0.666   6.794   8.554  0.0537  0.3750 -0.1332
  969MOL0     C30716  -0.752   6.775   8.433 -0.2859 -0.0684 -0.1476
  969MOL0     C30717  -0.732   6.900   8.348 -0.4710 -0.9340 -1.0361
  969MOL0     C30718  -0.761   6.868   8.197  0.5842 -0.4828 -0.5587
  969MOL0     C30719  -0.908   6.864   8.150 -0.2181  0.3181 -0.5056
  969MOL0     C30720  -0.930   6.763   8.033  0.8888  0.3043  0.1790
  969MOL0     C30721  -0.926   6.615   8.080 -0.7495 -0.3344  0.0631
  969MOL0     C30722  -0.955   6.524   7.966 -0.5186  0.5054 -0.8743
  969MOL0     C30723  -0.855   6.524   7.851  0.8918 -0.8026  0.4069
  969MOL0    Cl30724  -0.890   6.374   7.757  0.1578 -0.0617  0.2963
  969MOL0     C30725  -0.465   6.782   8.675  0.7540 -0.6206 -1.0865
  969MOL0     C30726  -0.329   6.753   8.694 -0.0989  0.1740  0.0758
  969MOL0     O30727  -0.087   6.633   8.801 -0.3178  0.4255 -0.1781
  969MOL0     C30728   0.151   6.643   8.540  0.1602  0.5846 -0.6657
  969MOL0     C30729   0.275   6.602   8.499  0.2750  0.8566  0.2662
  969MOL0     N30730   0.808   5.980   8.907 -0.2413 -0.7062  0.7795
  969MOL0     N30731   0.827   5.905   9.010  0.4741 -0.7308 -0.4617
  969MOL0     C30732   1.151   5.180   9.149 -0.4418  0.2114  0.3691
  969MOL0     C30733   1.281   5.234   9.138  0.0644 -0.2997 -0.4911
  969MOL0     C30734   1.678   5.388   9.119 -0.7761  0.3073 -0.2035
  969MOL0     C30735   1.768   5.278   9.149 -0.3919  0.1440 -0.6336
  969MOL0     C30736   1.888   5.298   9.201 -1.0175 -1.3909 -0.7290
  969MOL0     C30737   1.941   5.429   9.211 -0.2078 -0.2334 -0.1088
  969MOL0     O30738   2.067   5.438   9.264  0.8705  0.2525 -0.2984
  969MOL0     C30739   2.102   5.559   9.333  0.2335 -0.2247  0.3679
  969MOL0     C30740   2.230   5.541   9.421 -0.0308 -0.1203 -0.1878
  969MOL0     C30741   2.252   5.401   9.481 -0.1994 -0.4423 -0.0583
  969MOL0     C30742   2.385   5.395   9.558 -0.1489  0.4339 -0.0056
  969MOL0     C30743   2.430   5.256   9.575  1.0562  0.5958 -0.1710
  969MOL0     C30744   2.469   5.144   9.603  0.2961  0.6244  0.6656
  969MOL0     C30745   1.861   5.536   9.181 -1.0169  0.5298  0.2557
  969MOL0     C30746   1.729   5.522   9.135 -0.4040 -0.4849 -0.6014
  969MOL0     C30747   1.654   5.653   9.115  0.1113 -0.5259  0.4635
  969MOL0     H30748   1.425   5.052   8.907  2.2044  2.1725  1.0263
  969MOL0     H30749   1.181   4.963   8.887  1.4847 -0.5711  0.2662
  969MOL0     H30750   0.969   5.043   8.852  0.9250 -0.9588  0.6207
  969MOL0     H30751   0.825   4.986   8.936  1.5386 -2.5326 -0.1779
  969MOL0     H30752   0.793   5.214   8.853 -2.0413  0.3370  1.1060
  969MOL0     H30753   0.949   5.267   8.922 -0.3416  0.2699  2.3503
  969MOL0     H30754   0.856   5.265   9.141 -0.7906 -2.4868  1.4374
  969MOL0     H30755   0.709   5.181   9.101 -1.7292  0.0576 -0.3287
  969MOL0     H30756   0.810   5.449   8.979  1.4975  2.0024  5.0422
  969MOL0     H30757   0.660   5.368   8.934  1.2085  1.7692 -1.2252
  969MOL0     H30758   0.578   5.417   9.162 -1.7964  0.6347 -3.2688
  969MOL0     H30759   0.728   5.494   9.213 -1.5633  0.9777  1.0384
  969MOL0     H30760   0.705   5.657   9.013  1.6097 -2.4810 -0.6446
  969MOL0     H30761   0.540   5.598   8.991 -1.2901  0.8656  1.4559
  969MOL0     H30762   0.579   5.645   9.271  0.0674  0.5964  0.9417
  969MOL0     H30763   0.482   5.736   9.169 -0.3959 -0.4141  0.9853
  969MOL0     H30764   0.652   5.881   9.271  1.6600  0.6270 -0.2391
  969MOL0     H30765   0.778   5.768   9.231 -0.9529 -0.9451  1.1508
  969MOL0     H30766   0.504   5.957   9.012  0.7668  1.3904  1.7686
  969MOL0     H30767   0.651   6.045   8.684 -1.3686  1.1865 -1.0679
  969MOL0     H30768   0.500   6.065   8.769  0.2772 -2.3878  2.1065
  969MOL0     H30769   0.615   6.284   8.862  1.1652  0.9016 -0.3008
  969MOL0     H30770   0.737   6.261   8.741 -0.7283  0.0299  0.0263
  969MOL0     H30771   0.443   6.284   8.679 -0.2203 -0.2952 -2.0249
  969MOL0     H30772   0.563   6.243   8.555 -2.2372  1.0189 -2.0227
  969MOL0     H30773   0.677   6.468   8.604  1.7848 -1.1954 -0.2064
  969MOL0     H30774   0.567   6.503   8.734  3.5038  2.3045 -1.9431
  969MOL0     H30775   0.370   6.476   8.803  0.6925 -2.0595 -0.8199
  969MOL0     H30776   0.145   6.491   8.850 -3.2779 -3.0458 -1.4666
  969MOL0     H30777  -0.274   6.622   8.380  0.8151  1.5557  0.0171
  969MOL0     H30778  -0.513   6.699   8.350 -1.5662 -2.2737  0.4099
  969MOL0     H30779  -0.727   6.679   8.388 -0.7967  0.1487 -0.9013
  969MOL0     H30780  -0.854   6.760   8.469 -0.5355  0.1666 -0.7585
  969MOL0     H30781  -0.800   6.981   8.375  2.2637  0.4201  2.4514
  969MOL0     H30782  -0.633   6.942   8.366 -1.4433  0.0281  3.1743
  969MOL0     H30783  -0.701   6.937   8.137 -0.4454  3.4184  2.4482
  969MOL0     H30784  -0.724   6.769   8.172 -2.2849 -1.4335 -1.3831
  969MOL0     H30785  -0.937   6.968   8.131 -2.4171 -0.1551  0.0196
  969MOL0     H30786  -0.973   6.829   8.231 -0.1017 -2.4646 -1.5136
  969MOL0     H30787  -0.847   6.788   7.966 -1.7491 -0.4818 -3.7306
  969MOL0     H30788  -1.022   6.783   7.978  0.9404  2.2380  0.7475
  969MOL0     H30789  -0.834   6.588   8.133 -2.6943 -1.9478  2.8518
  969MOL0     H30790  -1.007   6.614   8.153  0.9664 -1.5031  2.0320
  969MOL0     H30791  -1.058   6.535   7.928 -0.2060 -0.5159 -2.1125
  969MOL0     H30792  -0.957   6.426   8.014 -1.3636  1.3168  0.8313
  969MOL0     H30793  -0.861   6.618   7.795 -1.1926 -0.2032  1.5289
  969MOL0     H30794  -0.756   6.510   7.895  1.2771 -2.1062 -0.8063
  969MOL0     H30795  -0.528   6.803   8.761 -1.9943 -1.4582 -2.7840
  969MOL0     H30796  -0.278   6.764   8.789  0.4308  1.9971 -0.3800
  969MOL0     H30797   0.089   6.693   8.466 -2.0050 -1.5642 -0.4314
  969MOL0     H30798   0.314   6.628   8.401 -0.3423 -0.2263 -0.2913
  969MOL0     H30799   1.078   5.202   9.227  1.3238  0.0298  2.1531
  969MOL0     H30800   1.315   5.305   9.212 -5.0214 -0.3953  2.4057
  969MOL0     H30801   1.743   5.173   9.139  2.4634 -0.8738  1.4494
  969MOL0     H30802   1.940   5.209   9.233  2.2995 -0.9097 -4.0178
  969MOL0     H30803   2.020   5.595   9.397  1.8056  3.0329  0.7410
  969MOL0     H30804   2.118   5.643   9.265 -2.6130  4.6796  4.9728
  969MOL0     H30805   2.227   5.608   9.508  1.9383 -2.4681  1.8520
  969MOL0     H30806   2.314   5.560   9.354 -1.5154  0.3346 -2.0073
  969MOL0     H30807   2.250   5.325   9.402 -0.7270  1.5073 -2.0128
  969MOL0     H30808   2.181   5.392   9.564  1.0313  0.1093  1.0787
  969MOL0     H30809   2.462   5.439   9.494  0.0118 -0.8955 -0.7719
  969MOL0     H30810   2.381   5.460   9.645 -1.2501  4.1584 -2.5623
  969MOL0     H30811   2.482   5.041   9.630  1.0941  1.1715  2.6105
  969MOL0     H30812   1.897   5.638   9.186 -2.8223  1.1512  1.7220
  969MOL0     H30813   1.569   5.654   9.184 -1.1772  1.4188 -1.0376
  969MOL0     H30814   1.711   5.740   9.151 -2.0842  0.4498  1.7928
  969MOL0     H30815   1.632   5.678   9.011  3.5340  3.1085  0.3593
  970MOL0     O30816   8.241   2.201   2.616 -0.2231  0.8720  0.0377
  970MOL0     C30817   8.249   2.227   2.735 -0.7429  0.6434 -0.4948
  970MOL0     O30818   8.142   2.262   2.812 -0.6859 -0.4938  0.1988
  970MOL0     C30819   8.027   2.314   2.749 -0.3174  0.4167 -0.4285
  970MOL0     C30820   7.904   2.270   2.800  0.3010  0.2047  0.2553
  970MOL0     C30821   7.784   2.314   2.742 -0.0181  0.9418  1.1814
  970MOL0     C30822   7.784   2.405   2.628 -0.4110 -0.0286 -0.5586
  970MOL0     O30823   7.671   2.454   2.571  0.5474  0.0135  0.2699
  970MOL0     C30824   7.565   2.362   2.535  0.2092  0.3551  0.2877
  970MOL0     C30825   7.435   2.428   2.490  0.2167 -0.1050 -0.3409
  970MOL0     C30826   7.325   2.322   2.452 -0.3606  0.4114 -0.0917
  970MOL0     C30827   7.214   2.390   2.377  0.1705  0.3835 -0.5513
  970MOL0     C30828   7.118   2.283   2.322  0.3041 -0.3405  0.0797
  970MOL0     C30829   7.030   2.228   2.432  0.3788 -0.2273 -0.1871
  970MOL0     C30830   6.932   2.122   2.394  0.3477 -0.4456 -0.0143
  970MOL0     C30831   7.001   1.998   2.330 -0.0492 -0.3730  0.7461
  970MOL0     N30832   7.115   1.938   2.407 -0.6086 -0.3301  0.2702
  970MOL0     C30833   7.246   1.939   2.368 -0.5316  0.3442  0.6302
  970MOL0     C30834   7.318   1.891   2.478  0.7060 -0.3326  0.2663
  970MOL0     C30835   7.465   1.866   2.493  0.0519 -0.1344  0.3584
  970MOL0     C30836   7.514   1.918   2.626  0.4728 -0.8215 -0.4211
  970MOL0     C30837   7.666   1.955   2.626 -0.0174 -0.6036  0.1723
  970MOL0     C30838   7.756   1.836   2.606 -0.0650 -0.9162 -0.0221
  970MOL0     O30839   7.896   1.886   2.578  0.5086  0.4538 -0.7744
  970MOL0     C30840   7.993   1.798   2.532 -0.4908  0.5545 -0.3654
  970MOL0     C30841   8.111   1.858   2.488 -0.4544 -0.1183  0.1043
  970MOL0     C30842   8.223   1.785   2.440 -0.7009  0.0092  0.4698
  970MOL0     C30843   8.204   1.651   2.436  0.5775 -0.5495 -0.9958
  970MOL0     C30844   8.309   1.554   2.390 -0.0446  0.1315  0.3973
  970MOL0     O30845   8.309   1.422   2.422  0.3213  0.4006  0.0648
  970MOL0     C30846   8.417   1.333   2.411  0.9232 -0.7476 -0.1147
  970MOL0     C30847   8.432   1.218   2.490 -0.2041 -0.6817 -0.0365
  970MOL0     C30848   8.526   1.118   2.469 -0.0213 -0.2795  0.0258
  970MOL0     C30849   8.621   1.144   2.367  0.7111  0.3460 -0.8024
  970MOL0     O30850   8.737   1.078   2.333 -0.5333  0.8628 -0.0814
  970MOL0     C30851   8.770   0.981   2.427 -0.5232  0.8573  0.2539
  970MOL0     C30852   8.911   0.926   2.408  0.3540  0.4597 -0.0566
  970MOL0     C30853   9.005   1.051   2.416  0.2631  0.3077 -0.8261
  970MOL0     C30854   9.145   1.004   2.392  0.1079 -1.0799 -0.6842
  970MOL0     C30855   9.219   1.126   2.361 -0.1052 -0.7809  0.0018
  970MOL0     C30856   9.367   1.089   2.357 -0.0535  0.0542  0.4482
  970MOL0     C30857   9.447   1.216   2.324 -0.1039 -0.5803  0.6092
  970MOL0     C30858   9.592   1.201   2.350 -0.6131 -0.2849  0.2489
  970MOL0    Cl30859   9.642   1.236   2.522 -0.2673 -0.4825 -0.5505
  970MOL0     C30860   8.604   1.257   2.277  0.7009 -0.0389 -0.2944
  970MOL0     C30861   8.499   1.344   2.295  0.6930  1.0299 -0.1317
  970MOL0     O30862   8.403   1.612   2.335  0.4068 -0.7625 -0.1874
  970MOL0     C30863   8.082   1.587   2.472 -0.6748  0.4949  0.4846
  970MOL0     C30864   7.981   1.663   2.533 -0.6310  0.2133  1.2744
  970MOL0     N30865   7.229   1.883   2.580 -0.3053  0.0963  0.3175
  970MOL0     N30866   7.110   1.908   2.535  0.4629 -0.9585  0.0348
  970MOL0     C30867   7.913   2.459   2.593 -1.6397 -0.0447  1.1895
  970MOL0     C30868   8.027   2.413   2.650  0.3528 -0.0492  0.0202
  970MOL0     C30869   8.379   2.193   2.797  0.1508  0.2861 -0.7161
  970MOL0     C30870   8.376   2.132   2.919 -0.6298 -0.0199 -0.9625
  970MOL0     C30871   8.496   2.089   2.980  0.2316  0.3540  0.5555
  970MOL0     C30872   8.616   2.083   2.909 -0.6714 -0.3314  1.2291
  970MOL0     O30873   8.735   2.032   2.936  0.2212  0.0627  0.2876
  970MOL0     C30874   8.735   1.934   3.039 -0.1960  0.3737  0.5950
  970MOL0     C30875   8.861   1.847   3.036  0.8676  0.7314  0.5719
  970MOL0     C30876   8.989   1.915   3.080 -0.2970  0.1403  0.6729
  970MOL0     C30877   9.115   1.820   3.063 -0.0222 -0.0846 -0.0991
  970MOL0     C30878   9.225   1.884   3.135  0.2001 -0.1794 -0.9924
  970MOL0     C30879   9.308   1.922   3.209 -0.4695  0.1380  0.2899
  970MOL0     C30880   8.609   2.131   2.772  0.5884 -0.5035 -0.0157
  970MOL0     C30881   8.495   2.191   2.717 -0.7200 -0.3187  0.0484
  970MOL0     C30882   8.513   2.243   2.576 -0.3461  0.7018 -0.4109
  970MOL0     H30883   7.904   2.206   2.888  1.9392  1.6223  1.3625
  970MOL0     H30884   7.695   2.274   2.789 -1.9598  0.6635 -2.4058
  970MOL0     H30885   7.589   2.289   2.457  1.3980 -0.1512  1.0944
  970MOL0     H30886   7.548   2.300   2.624  0.9279  0.3757  0.4470
  970MOL0     H30887   7.461   2.501   2.413 -1.0283  2.4350  1.4945
  970MOL0     H30888   7.404   2.487   2.577 -1.8399 -1.5449 -0.0371
  970MOL0     H30889   7.291   2.263   2.538 -1.8369  0.1909 -0.7868
  970MOL0     H30890   7.363   2.256   2.374  0.7063  1.7841 -0.7763
  970MOL0     H30891   7.169   2.464   2.445  0.1192  0.5142 -0.7282
  970MOL0     H30892   7.247   2.449   2.291 -0.1879  3.1310  1.0721
  970MOL0     H30893   7.059   2.322   2.238  0.8205  1.1505  0.3826
  970MOL0     H30894   7.182   2.211   2.270 -0.8927 -0.7956 -0.8119
  970MOL0     H30895   7.088   2.183   2.513 -0.8461 -0.8385  0.3715
  970MOL0     H30896   6.979   2.310   2.483  0.5252 -0.8416  0.9822
  970MOL0     H30897   6.855   2.160   2.326 -1.9522 -1.7013  1.7560
  970MOL0     H30898   6.886   2.091   2.488 -0.4851  1.0367  0.0946
  970MOL0     H30899   6.936   1.913   2.310  1.2470 -1.4152  0.8075
  970MOL0     H30900   7.030   2.031   2.230 -2.9309 -1.5866 -0.6099
  970MOL0     H30901   7.296   1.962   2.274  0.7594  2.7761  1.7959
  970MOL0     H30902   7.494   1.762   2.479  0.9291  0.0360  0.8521
  970MOL0     H30903   7.515   1.925   2.416 -0.3106 -1.8297 -1.2533
  970MOL0     H30904   7.464   2.012   2.652  1.4474 -0.5906  0.7078
  970MOL0     H30905   7.496   1.844   2.704 -0.1078  1.7305  2.0424
  970MOL0     H30906   7.692   1.991   2.726  0.4480 -0.5213  0.0226
  970MOL0     H30907   7.697   2.027   2.550  2.5858 -2.5788 -0.7735
  970MOL0     H30908   7.724   1.773   2.522 -0.9129 -1.9768  1.0647
  970MOL0     H30909   7.744   1.786   2.702  0.9089  1.2152  1.2877
  970MOL0     H30910   8.124   1.965   2.477  0.0264  0.0492  1.9690
  970MOL0     H30911   8.321   1.822   2.414  0.5190 -2.4129  1.3229
  970MOL0     H30912   8.360   1.196   2.568  0.4611  0.2237  0.8607
  970MOL0     H30913   8.535   1.037   2.540  0.1724 -0.0832  0.2292
  970MOL0     H30914   8.775   1.028   2.526  1.9923  0.6245  0.3084
  970MOL0     H30915   8.701   0.897   2.418  3.1419 -2.2555 -1.6705
  970MOL0     H30916   8.941   0.852   2.483  1.3244 -0.7825 -1.6050
  970MOL0     H30917   8.913   0.872   2.312  0.2011 -0.0174  0.2053
  970MOL0     H30918   8.975   1.114   2.332  1.6870 -1.1322 -2.5154
  970MOL0     H30919   8.995   1.118   2.502 -1.1002 -0.9435  0.0304
  970MOL0     H30920   9.148   0.932   2.310 -0.1653 -0.6951 -1.0347
  970MOL0     H30921   9.184   0.954   2.482  0.4731  1.0988  0.4509
  970MOL0     H30922   9.204   1.211   2.428  0.0805  0.4250 -1.4532
  970MOL0     H30923   9.186   1.165   2.265 -3.1023  0.3758  1.3552
  970MOL0     H30924   9.400   1.063   2.458  4.6249 -1.2502 -1.1563
  970MOL0     H30925   9.388   1.016   2.278  0.3429 -0.2980  0.8689
  970MOL0     H30926   9.408   1.302   2.380  1.6496 -0.2685  1.4357
  970MOL0     H30927   9.450   1.244   2.218  2.7119 -0.3839  0.6634
  970MOL0     H30928   9.619   1.103   2.310 -1.1844 -0.3752  0.0668
  970MOL0     H30929   9.653   1.267   2.287 -1.1592 -1.0189 -1.1014
  970MOL0     H30930   8.662   1.274   2.186 -1.5372 -0.8713 -1.9591
  970MOL0     H30931   8.491   1.427   2.224 -1.1594  1.0856  0.0954
  970MOL0     H30932   8.074   1.479   2.479  3.1077  0.1833  3.3518
  970MOL0     H30933   7.900   1.603   2.574  0.4363 -4.1156 -2.2020
  970MOL0     H30934   7.909   2.526   2.508  0.5399 -3.2478 -1.7171
  970MOL0     H30935   8.120   2.458   2.616  0.2361  0.7996  0.8017
  970MOL0     H30936   8.293   2.115   2.987  0.7325 -0.4038  0.6671
  970MOL0     H30937   8.494   2.053   3.083  2.3794  0.6932  0.7453
  970MOL0     H30938   8.644   1.873   3.035 -0.9851  1.5617 -0.1296
  970MOL0     H30939   8.730   1.983   3.137  0.4708  1.3349  0.1615
  970MOL0     H30940   8.882   1.806   2.937 -0.6168  2.6937 -0.6299
  970MOL0     H30941   8.844   1.764   3.105  0.5128  1.2771  1.1523
  970MOL0     H30942   8.977   1.936   3.186  1.9786  1.3059  0.7573
  970MOL0     H30943   8.998   2.003   3.016 -1.2735 -0.2975 -0.0999
  970MOL0     H30944   9.095   1.727   3.119 -1.4295 -1.1311 -2.2043
  970MOL0     H30945   9.139   1.793   2.960  1.9668  2.7247 -0.4760
  970MOL0     H30946   9.391   1.940   3.276 -0.5871 -0.6218  0.6449
  970MOL0     H30947   8.691   2.117   2.703 -2.0012 -2.5469 -2.9935
  970MOL0     H30948   8.504   2.162   2.503  0.9767 -0.5437  0.7231
  970MOL0     H30949   8.436   2.315   2.549 -0.8061  0.7631  1.0146
  970MOL0     H30950   8.608   2.298   2.573 -0.0605  0.1759 -2.1326
  971MOL0     O30951   5.786   1.699   2.193 -0.0673 -0.5483 -0.0176
  971MOL0     C30952   5.776   1.819   2.216  0.2009  0.3549 -0.8313
  971MOL0     O30953   5.703   1.903   2.136 -0.2219 -0.4397  0.3498
  971MOL0     C30954   5.683   1.874   2.008  0.3981 -0.3664 -0.1710
  971MOL0     C30955   5.747   1.938   1.900 -0.0223  0.1248  0.7422
  971MOL0     C30956   5.718   1.897   1.771 -0.1925  0.7336 -0.3409
  971MOL0     C30957   5.625   1.804   1.735 -0.4101 -0.8098  0.8557
  971MOL0     O30958   5.599   1.772   1.600  0.6997 -1.0734  0.4179
  971MOL0     C30959   5.592   1.634   1.551 -0.6537 -0.2955 -0.8482
  971MOL0     C30960   5.614   1.624   1.402  0.5410  0.2179  0.3056
  971MOL0     C30961   5.731   1.699   1.350 -0.7502  1.0482 -1.2950
  971MOL0     C30962   5.768   1.663   1.205 -0.1501 -0.1874  0.2359
  971MOL0     C30963   5.823   1.783   1.132 -0.3518 -0.2123 -0.7196
  971MOL0     C30964   5.958   1.835   1.197  0.1723  0.4470  0.1848
  971MOL0     C30965   6.026   1.937   1.103  0.6027  0.6802  0.3938
  971MOL0     C30966   5.932   2.040   1.028 -0.3473  0.6386 -0.0901
  971MOL0     N30967   6.009   2.134   0.941 -0.0387 -1.3273 -1.0348
  971MOL0     C30968   6.137   2.111   0.890 -0.2956  0.3359  0.8432
  971MOL0     C30969   6.180   2.234   0.849  0.1322 -0.5080  0.7463
  971MOL0     C30970   6.322   2.265   0.792 -0.0823  0.8364 -0.1764
  971MOL0     C30971   6.331   2.348   0.658 -0.1155  1.1017 -1.0216
  971MOL0     C30972   6.445   2.446   0.656 -0.1900  0.4717 -0.1043
  971MOL0     C30973   6.465   2.536   0.528 -0.0099  1.2279  0.1505
  971MOL0     O30974   6.579   2.630   0.546  0.2522 -0.7564 -0.1815
  971MOL0     C30975   6.705   2.590   0.571  0.5339  0.4057  0.1456
  971MOL0     C30976   6.768   2.507   0.490  0.8211  0.5441 -0.5500
  971MOL0     C30977   6.899   2.463   0.523  0.3593 -0.9587  0.9060
  971MOL0     C30978   6.969   2.504   0.637  1.1126  0.2897 -0.1464
  971MOL0     C30979   7.100   2.445   0.668  0.1238 -0.6131  0.9366
  971MOL0     O30980   7.156   2.363   0.579 -0.0012  0.5108 -0.7626
  971MOL0     C30981   7.289   2.311   0.606 -0.2929 -0.0451  0.6242
  971MOL0     C30982   7.317   2.235   0.726 -0.4096  0.1442  0.5275
  971MOL0     C30983   7.445   2.182   0.739  0.3959  0.2157 -0.3712
  971MOL0     C30984   7.546   2.210   0.640  0.0598  0.0276 -0.0552
  971MOL0     O30985   7.680   2.205   0.667 -0.6800 -0.2449  0.5283
  971MOL0     C30986   7.717   2.066   0.697 -0.0370  0.2420 -0.1048
  971MOL0     C30987   7.874   2.066   0.707 -0.3360 -0.0361  0.6152
  971MOL0     C30988   7.942   1.941   0.760  0.6418  0.0985 -0.5632
  971MOL0     C30989   8.020   1.858   0.649  0.2070  0.4904 -0.3329
  971MOL0     C30990   8.148   1.931   0.609  0.5649  0.8282  1.1603
  971MOL0     C30991   8.261   1.921   0.710  0.6322  0.0745  0.8656
  971MOL0     C30992   8.288   1.777   0.764  0.2311  0.2133  0.2206
  971MOL0     C30993   8.409   1.764   0.857  0.9115  0.2073 -0.1087
  971MOL0    Cl30994   8.552   1.831   0.775 -0.1271 -0.2772  0.2950
  971MOL0     C30995   7.516   2.287   0.527 -0.1506 -0.3464  0.3989
  971MOL0     C30996   7.383   2.336   0.512 -0.4318 -0.0981 -0.8542
  971MOL0     O30997   7.153   2.486   0.767 -0.7720  0.0042 -0.1613
  971MOL0     C30998   6.907   2.601   0.709  0.2196  1.2611 -0.0273
  971MOL0     C30999   6.773   2.641   0.678 -0.2053  0.6144 -0.5326
  971MOL0     N31000   6.084   2.329   0.883 -0.3986  0.3724 -0.0657
  971MOL0     N31001   5.984   2.269   0.931  0.6499 -0.1447  0.2820
  971MOL0     C31002   5.550   1.751   1.839 -0.3687 -0.4841  0.5301
  971MOL0     C31003   5.577   1.788   1.971 -0.1080 -0.4454  0.0922
  971MOL0     C31004   5.876   1.866   2.316  0.3984 -0.0493  0.5409
  971MOL0     C31005   5.913   2.001   2.309 -0.2236 -0.2203  0.3012
  971MOL0     C31006   6.009   2.060   2.394  0.0068  0.2375 -0.5436
  971MOL0     C31007   6.075   1.978   2.482  0.3090  0.3536 -0.7696
  971MOL0     O31008   6.168   2.016   2.572 -0.1646  0.7625  0.2031
  971MOL0     C31009   6.221   2.153   2.564  0.6931 -0.1502  0.5521
  971MOL0     C31010   6.327   2.183   2.667 -0.3385  0.4870 -0.1275
  971MOL0     C31011   6.330   2.079   2.785 -0.2399  0.9007 -0.4201
  971MOL0     C31012   6.410   2.116   2.910  0.7531  0.5860  0.1867
  971MOL0     C31013   6.351   2.226   2.986 -0.4730  0.3555 -0.1723
  971MOL0     C31014   6.280   2.306   3.047 -0.2386  0.1821 -0.1795
  971MOL0     C31015   6.030   1.848   2.500 -0.0134 -0.2825 -0.1801
  971MOL0     C31016   5.930   1.794   2.419 -1.0335 -0.0904  0.8157
  971MOL0     C31017   5.889   1.655   2.454 -0.0747 -0.0401 -1.0981
  971MOL0     H31018   5.819   2.015   1.927 -0.8717  2.1082 -2.2075
  971MOL0     H31019   5.774   1.951   1.694  2.5281 -1.8708 -0.3887
  971MOL0     H31020   5.664   1.568   1.601 -0.2112 -0.7799 -2.0896
  971MOL0     H31021   5.495   1.585   1.570  0.6820 -2.2042  1.7686
  971MOL0     H31022   5.527   1.663   1.348  0.5661 -0.1885 -0.0352
  971MOL0     H31023   5.623   1.518   1.379  4.0302 -0.4075  3.5423
  971MOL0     H31024   5.817   1.683   1.415 -1.8086  4.0675  1.0700
  971MOL0     H31025   5.712   1.806   1.361 -2.2030  0.9299 -2.2834
  971MOL0     H31026   5.850   1.591   1.200 -0.8958 -0.9904 -1.2389
  971MOL0     H31027   5.688   1.622   1.142  2.8467 -2.3938 -2.5126
  971MOL0     H31028   5.844   1.756   1.028  1.2777 -1.1529 -0.1919
  971MOL0     H31029   5.745   1.859   1.136  0.9247  1.1074  1.6183
  971MOL0     H31030   5.929   1.891   1.286  0.4265  2.9021 -1.1979
  971MOL0     H31031   6.028   1.754   1.222 -0.9392 -0.5426  0.1541
  971MOL0     H31032   6.087   1.881   1.032  2.7153 -0.1615  2.7078
  971MOL0     H31033   6.095   1.995   1.165  1.0346  0.8317 -0.2245
  971MOL0     H31034   5.864   1.975   0.972 -0.7137  0.7964  0.1690
  971MOL0     H31035   5.882   2.102   1.103  2.2965 -0.3539  2.7125
  971MOL0     H31036   6.189   2.016   0.885  0.1694  0.4968  2.2650
  971MOL0     H31037   6.395   2.305   0.864  2.2720 -0.3066 -1.8143
  971MOL0     H31038   6.362   2.164   0.778 -2.1541 -0.2133  0.9588
  971MOL0     H31039   6.347   2.282   0.573  2.2413 -1.3443  1.1243
  971MOL0     H31040   6.233   2.395   0.642 -1.2739 -0.7185  0.3531
  971MOL0     H31041   6.537   2.396   0.688 -1.1880 -0.2900  1.6600
  971MOL0     H31042   6.426   2.517   0.737 -0.9095 -0.9731  1.0309
  971MOL0     H31043   6.374   2.597   0.514  1.5006  3.4905 -0.3784
  971MOL0     H31044   6.477   2.475   0.438 -2.5040  0.0128  0.5367
  971MOL0     H31045   6.722   2.455   0.406  1.4695  0.5877 -0.9398
  971MOL0     H31046   6.941   2.389   0.456 -1.4246  0.2723 -1.7422
  971MOL0     H31047   7.237   2.209   0.795 -0.5649 -2.0526 -0.3793
  971MOL0     H31048   7.484   2.130   0.826  1.3395 -0.6023 -1.2490
  971MOL0     H31049   7.672   2.021   0.786  0.3500  0.3844  0.1678
  971MOL0     H31050   7.690   2.003   0.613  2.3072 -0.3813 -0.4528
  971MOL0     H31051   7.907   2.079   0.604  2.7827  0.7356  1.6238
  971MOL0     H31052   7.916   2.147   0.767  1.5281 -1.3250  1.1339
  971MOL0     H31053   8.016   1.975   0.832 -1.3708  0.9429  1.2053
  971MOL0     H31054   7.876   1.871   0.811 -0.3676  2.3393  1.3767
  971MOL0     H31055   7.958   1.842   0.560  0.8945 -1.8953 -0.4503
  971MOL0     H31056   8.047   1.760   0.689  2.4795  0.8246 -0.8767
  971MOL0     H31057   8.121   2.031   0.572  0.7299  0.4096 -0.1606
  971MOL0     H31058   8.190   1.872   0.527 -2.1460  0.4867 -0.0842
  971MOL0     H31059   8.349   1.962   0.660  0.7791  0.4143  1.3957
  971MOL0     H31060   8.233   1.986   0.794  1.7053  0.5478  0.8645
  971MOL0     H31061   8.298   1.707   0.680 -1.0438  0.2275  0.0410
  971MOL0     H31062   8.207   1.748   0.832 -1.1527  4.2591  0.5627
  971MOL0     H31063   8.396   1.810   0.955 -0.5432 -2.6988  1.2037
  971MOL0     H31064   8.417   1.656   0.876  0.8597 -0.0925 -1.5909
  971MOL0     H31065   7.578   2.319   0.444 -3.5413 -2.2146 -3.2114
  971MOL0     H31066   7.346   2.389   0.425  0.6787  0.4209 -1.0367
  971MOL0     H31067   6.952   2.652   0.794 -2.8231  0.0082  2.5280
  971MOL0     H31068   6.715   2.708   0.740 -0.3529 -1.2224  1.4181
  971MOL0     H31069   5.473   1.677   1.817 -0.1143 -0.2100 -1.5444
  971MOL0     H31070   5.519   1.742   2.051 -0.1729 -0.4010  0.0703
  971MOL0     H31071   5.869   2.070   2.238 -0.5903 -2.5811 -1.9330
  971MOL0     H31072   6.019   2.167   2.385 -1.8292  0.3383 -1.7623
  971MOL0     H31073   6.143   2.227   2.590  0.7554  0.0154  0.2694
  971MOL0     H31074   6.263   2.165   2.464  0.7499 -4.2902 -0.1000
  971MOL0     H31075   6.323   2.286   2.705  2.0724  2.2324 -3.9998
  971MOL0     H31076   6.415   2.166   2.605 -1.0592  0.3796 -1.1435
  971MOL0     H31077   6.369   1.985   2.747  1.2600  1.2082  0.2793
  971MOL0     H31078   6.224   2.067   2.810  0.1669 -4.2327 -0.1813
  971MOL0     H31079   6.425   2.032   2.978 -1.1857  0.1649  0.1689
  971MOL0     H31080   6.510   2.139   2.873  1.7916 -2.9463  0.4548
  971MOL0     H31081   6.235   2.377   3.114  0.2674  1.0839 -0.7664
  971MOL0     H31082   6.070   1.796   2.587 -1.9087  2.0156  2.2398
  971MOL0     H31083   5.963   1.582   2.419  0.8407 -0.9491  2.3742
  971MOL0     H31084   5.879   1.653   2.563  0.7826 -0.9271 -1.0233
  971MOL0     H31085   5.787   1.625   2.429  0.0552 -0.6744 -0.8992
  972MOL0     O31086   8.607   8.383   0.257 -0.0765  0.0451 -1.0619
  972MOL0     C31087   8.531   8.438   0.338 -1.0119 -0.3425 -0.1648
  972MOL0     O31088   8.569   8.493   0.457 -0.0515 -0.1580 -0.3205
  972MOL0     C31089   8.698   8.482   0.497 -0.0699 -0.3933  0.7875
  972MOL0     C31090   8.719   8.414   0.615 -0.0239 -0.4184 -0.1739
  972MOL0     C31091   8.850   8.372   0.659 -0.6585 -0.3506  0.4727
  972MOL0     C31092   8.961   8.435   0.594  0.2919 -0.4232 -0.0046
  972MOL0     O31093   9.080   8.421   0.651  0.1869 -0.3556 -0.7241
  972MOL0     C31094   9.167   8.529   0.640  0.4264 -0.5444  0.1932
  972MOL0     C31095   9.270   8.533   0.754 -0.4276 -0.5115 -0.1671
  972MOL0     C31096   9.363   8.658   0.747  0.3980 -0.3831  0.2160
  972MOL0     C31097   9.460   8.650   0.864  0.4089  0.2299 -0.1681
  972MOL0     C31098   9.561   8.766   0.853 -0.3211 -0.1974 -0.3945
  972MOL0     C31099   9.649   8.758   0.977  0.3056 -0.4511  0.1784
  972MOL0     C31100   9.725   8.888   0.961 -0.5775 -0.4627  0.4870
  972MOL0     C31101   9.836   8.909   1.077  0.0300  0.0833 -0.4438
  972MOL0     N31102   9.782   8.912   1.218  0.5924  0.2392 -0.0701
  972MOL0     C31103   9.770   9.023   1.290 -0.6264 -0.3968 -0.2650
  972MOL0     C31104   9.721   8.988   1.412 -0.3374  0.5025  0.2660
  972MOL0     C31105   9.696   9.070   1.535  0.3041 -0.5760  0.1243
  972MOL0     C31106   9.804   9.055   1.638  0.3479  0.0351  0.3592
  972MOL0     C31107   9.769   9.073   1.788  0.4447  0.0888 -0.3842
  972MOL0     C31108   9.901   9.109   1.867  0.9217  0.1076  0.9080
  972MOL0     O31109   9.922   9.253   1.873 -0.6205  0.3431 -0.8476
  972MOL0     C31110  10.038   9.297   1.934 -0.6233  0.2512  1.0327
  972MOL0     C31111  10.151   9.222   1.964 -0.5579  0.0346  0.8789
  972MOL0     C31112  10.277   9.275   2.013  0.5991  0.6294  0.1936
  972MOL0     C31113  10.280   9.416   2.034  0.0465 -0.0025 -0.0139
  972MOL0     C31114  10.400   9.475   2.097  0.0038  0.0598  0.1043
  972MOL0     O31115  10.423   9.611   2.084 -0.3998  0.2223 -0.3936
  972MOL0     C31116  10.551   9.649   2.117 -1.1382 -0.4757  0.5562
  972MOL0     C31117  10.600   9.647   2.249 -0.6553 -0.2916 -0.0127
  972MOL0     C31118  10.724   9.701   2.278 -0.4002 -0.2418 -0.9534
  972MOL0     C31119  10.810   9.746   2.177 -0.1628  0.6782  0.5652
  972MOL0     O31120  10.944   9.782   2.188 -0.1873  0.0090 -0.3178
  972MOL0     C31121  11.008   9.763   2.317  0.0727 -0.0735  0.7164
  972MOL0     C31122  11.000   9.887   2.407  0.2991  0.0545  0.0553
  972MOL0     C31123  11.099   9.992   2.367 -0.1261  0.2960  0.5905
  972MOL0     C31124  11.086  10.110   2.459 -0.3260 -0.7262 -0.8262
  972MOL0     C31125  11.197  10.219   2.429 -0.0010  1.0231 -0.2832
  972MOL0     C31126  11.330  10.155   2.464  0.1505 -0.0667 -0.2882
  972MOL0     C31127  11.447  10.247   2.464 -0.2348  0.2515  0.1271
  972MOL0     C31128  11.572  10.159   2.479  0.0009  0.8614  0.5242
  972MOL0    Cl31129  11.580  10.099   2.648  0.3075  0.1888  0.0223
  972MOL0     C31130  10.762   9.746   2.045  0.2816 -0.3766  0.2848
  972MOL0     C31131  10.636   9.703   2.012 -0.4026  0.4723 -0.8056
  972MOL0     O31132  10.480   9.402   2.158 -0.4435 -0.0325 -0.3500
  972MOL0     C31133  10.166   9.491   2.009 -0.6724 -0.1734  0.5268
  972MOL0     C31134  10.047   9.433   1.961  0.5409  0.4060 -0.9846
  972MOL0     N31135   9.703   8.855   1.410  0.4722  0.0672 -0.4135
  972MOL0     N31136   9.737   8.807   1.290 -0.2836 -0.1213 -0.6998
  972MOL0     C31137   8.938   8.504   0.471 -0.8249 -0.6385 -0.2520
  972MOL0     C31138   8.808   8.522   0.424 -1.0248  0.2921 -0.1216
  972MOL0     C31139   8.388   8.401   0.329 -0.3718 -0.0410 -0.0590
  972MOL0     C31140   8.346   8.283   0.274  0.8575 -0.0227 -0.1998
  972MOL0     C31141   8.214   8.239   0.254  0.1449 -0.2227 -0.4480
  972MOL0     C31142   8.114   8.320   0.314 -0.3202 -0.2451 -0.7929
  972MOL0     O31143   7.995   8.275   0.295  1.5080 -0.0968  0.1156
  972MOL0     C31144   7.886   8.339   0.363 -0.2103 -0.3216 -0.0839
  972MOL0     C31145   7.793   8.230   0.405  0.4200 -0.3540 -0.9532
  972MOL0     C31146   7.680   8.283   0.498  0.2045  0.1454  0.0287
  972MOL0     C31147   7.542   8.224   0.484  0.2108 -0.4114 -0.0498
  972MOL0     C31148   7.543   8.093   0.546 -0.9384 -0.6627 -0.3782
  972MOL0     C31149   7.549   7.983   0.596  0.1219 -0.8702  0.1446
  972MOL0     C31150   8.153   8.448   0.372  0.4617 -0.3594 -0.6236
  972MOL0     C31151   8.284   8.488   0.371  0.0896 -1.0470  0.5844
  972MOL0     C31152   8.320   8.627   0.417 -0.1573 -0.2111 -0.7787
  972MOL0     H31153   8.638   8.377   0.677  0.6266 -0.4464  0.6696
  972MOL0     H31154   8.877   8.312   0.745 -1.8323  0.2109  1.2474
  972MOL0     H31155   9.218   8.524   0.543  2.1644  2.6029  0.7951
  972MOL0     H31156   9.106   8.620   0.635 -2.9051 -2.6834 -2.3594
  972MOL0     H31157   9.331   8.443   0.750 -0.5603 -0.5949 -0.3415
  972MOL0     H31158   9.208   8.543   0.844 -1.4837 -1.9895 -0.7014
  972MOL0     H31159   9.309   8.753   0.750 -3.2001 -2.1591 -1.6671
  972MOL0     H31160   9.423   8.647   0.657  0.9597 -1.2371  0.6784
  972MOL0     H31161   9.414   8.654   0.963 -0.1149 -0.7365 -0.3645
  972MOL0     H31162   9.510   8.553   0.860 -0.4994 -0.2038 -1.5606
  972MOL0     H31163   9.625   8.761   0.764 -1.2591 -3.1072 -1.0168
  972MOL0     H31164   9.513   8.863   0.843  1.6988  0.9000  0.1495
  972MOL0     H31165   9.595   8.753   1.072  1.0004 -2.5584  0.5308
  972MOL0     H31166   9.714   8.670   0.972 -0.6504 -1.1792  0.1413
  972MOL0     H31167   9.664   8.976   0.982  2.2757  1.1573  2.6659
  972MOL0     H31168   9.773   8.892   0.863  1.2978  1.4550  1.4027
  972MOL0     H31169   9.911   8.830   1.065 -0.7509 -0.7913  0.2702
  972MOL0     H31170   9.884   9.004   1.052 -0.6116  0.7277  0.7011
  972MOL0     H31171   9.800   9.123   1.261  2.4260 -0.2220  2.8298
  972MOL0     H31172   9.681   9.175   1.510  2.5328 -0.3644 -0.5311
  972MOL0     H31173   9.604   9.029   1.578  1.8569 -4.6296  0.0132
  972MOL0     H31174   9.844   8.954   1.640  0.2334 -0.0381  2.7549
  972MOL0     H31175   9.890   9.117   1.610  0.7344 -0.6764 -0.0247
  972MOL0     H31176   9.716   8.988   1.831 -0.6537  1.1079  0.3391
  972MOL0     H31177   9.711   9.165   1.797 -1.1464 -0.9365  0.1600
  972MOL0     H31178   9.985   9.046   1.837 -1.3946 -3.5079  1.4064
  972MOL0     H31179   9.878   9.076   1.969  1.1001 -2.5420  0.1781
  972MOL0     H31180  10.147   9.115   1.951 -4.7244 -0.0213  1.4024
  972MOL0     H31181  10.355   9.200   2.024 -1.9728 -2.3368 -0.1954
  972MOL0     H31182  10.533   9.617   2.329  0.0370  2.3088  1.6417
  972MOL0     H31183  10.749   9.708   2.383  1.8721 -1.0593 -1.3850
  972MOL0     H31184  10.972   9.674   2.368  5.1108 -2.2294  1.1359
  972MOL0     H31185  11.113   9.733   2.307 -0.1831 -0.7995  0.1574
  972MOL0     H31186  10.899   9.928   2.418  0.4245 -0.1308  2.5485
  972MOL0     H31187  11.028   9.844   2.504 -1.7691 -2.3852 -0.3370
  972MOL0     H31188  11.197   9.945   2.379  0.5086  2.1015  3.5909
  972MOL0     H31189  11.079  10.018   2.263  0.8147  0.5462  0.4672
  972MOL0     H31190  11.087  10.087   2.565 -0.1813  3.0572  0.1514
  972MOL0     H31191  10.992  10.164   2.440 -0.8873 -0.6150  1.9163
  972MOL0     H31192  11.189  10.307   2.493  1.5055  2.4013 -1.8933
  972MOL0     H31193  11.198  10.243   2.323  0.8845  0.1510 -0.4854
  972MOL0     H31194  11.326  10.104   2.561  0.1907 -1.1765 -0.8583
  972MOL0     H31195  11.357  10.075   2.395 -1.5351 -0.5219 -0.4550
  972MOL0     H31196  11.443  10.307   2.555 -0.4230  1.4069 -0.6180
  972MOL0     H31197  11.444  10.311   2.375 -1.0798  0.1384  0.0634
  972MOL0     H31198  11.576  10.076   2.408 -2.2272  1.7513 -0.7229
  972MOL0     H31199  11.666  10.213   2.465 -0.9753  2.3744 -0.3146
  972MOL0     H31200  10.832   9.790   1.974 -0.4070  0.2067 -0.0416
  972MOL0     H31201  10.603   9.706   1.908  1.9159 -0.0083 -1.6076
  972MOL0     H31202  10.167   9.597   2.035  1.6727 -0.4973  2.0786
  972MOL0     H31203   9.964   9.501   1.944  1.9686  3.0122  1.6101
  972MOL0     H31204   9.020   8.539   0.409 -2.7969  3.1858 -1.0011
  972MOL0     H31205   8.786   8.562   0.325 -1.2889 -0.3445 -0.3253
  972MOL0     H31206   8.418   8.216   0.229 -0.0895 -1.5571  0.4794
  972MOL0     H31207   8.195   8.150   0.195  0.8721  1.2877 -3.1419
  972MOL0     H31208   7.830   8.406   0.296  1.5107  1.5981  0.2964
  972MOL0     H31209   7.916   8.392   0.454 -0.3225  0.6035 -0.5718
  972MOL0     H31210   7.852   8.158   0.462 -0.3215  1.9103  3.0575
  972MOL0     H31211   7.747   8.189   0.315  1.2393 -0.9721 -1.1018
  972MOL0     H31212   7.671   8.391   0.485 -1.2887  0.5685  3.5975
  972MOL0     H31213   7.707   8.269   0.603 -3.6568 -0.7902  1.0725
  972MOL0     H31214   7.462   8.280   0.534  0.0785  0.4715 -1.2017
  972MOL0     H31215   7.514   8.218   0.379  0.3394  3.0655 -0.4283
  972MOL0     H31216   7.556   7.890   0.648 -1.0034 -0.7732  0.4822
  972MOL0     H31217   8.078   8.513   0.415 -2.3179 -3.4881 -0.3571
  972MOL0     H31218   8.230   8.689   0.417 -1.1655 -1.5531  1.1159
  972MOL0     H31219   8.363   8.630   0.517  1.3219  0.2231 -1.3967
  972MOL0     H31220   8.397   8.663   0.347 -0.2330 -0.8379 -1.1938
  973MOL0     O31221   8.191   4.958   0.955  0.0699  0.0023  0.6179
  973MOL0     C31222   8.204   4.998   1.071 -0.1228 -0.6423  0.4817
  973MOL0     O31223   8.097   5.051   1.147  0.3932 -0.0046  0.2316
  973MOL0     C31224   7.983   5.061   1.069 -0.5442  0.1483 -0.6214
  973MOL0     C31225   7.945   5.183   1.013  0.3680 -0.4243  1.2349
  973MOL0     C31226   7.825   5.188   0.941  0.2171 -0.1234  0.1916
  973MOL0     C31227   7.748   5.073   0.934  0.7965 -0.3089  0.2033
  973MOL0     O31228   7.643   5.097   0.842 -0.4893 -0.4456 -0.4340
  973MOL0     C31229   7.525   5.018   0.837 -0.3043 -1.4240  0.5338
  973MOL0     C31230   7.440   5.054   0.713  0.5810 -0.2788 -0.1430
  973MOL0     C31231   7.327   4.954   0.700  0.2440 -0.6096 -0.4193
  973MOL0     C31232   7.206   5.013   0.634 -0.0268 -0.1020 -0.4598
  973MOL0     C31233   7.097   4.908   0.584  0.0113 -0.5464 -0.4796
  973MOL0     C31234   7.067   4.793   0.683 -0.6641 -1.0334 -0.2579
  973MOL0     C31235   6.936   4.738   0.640  0.6143 -0.3247  0.4738
  973MOL0     C31236   6.883   4.610   0.707  0.6679 -0.5996 -0.0991
  973MOL0     N31237   6.741   4.609   0.716 -0.0678 -0.6009 -0.2110
  973MOL0     C31238   6.659   4.502   0.678 -0.2415 -0.1129 -0.0733
  973MOL0     C31239   6.542   4.535   0.740  0.0828  0.3458  0.4171
  973MOL0     C31240   6.428   4.444   0.739 -0.0134  0.3676  0.4410
  973MOL0     C31241   6.409   4.373   0.877 -0.6105  0.1179  0.0498
  973MOL0     C31242   6.540   4.295   0.921  0.3099 -0.0909 -0.2918
  973MOL0     C31243   6.499   4.155   0.952  0.4866 -0.1259 -0.3320
  973MOL0     O31244   6.620   4.083   0.970  0.0669 -0.3410 -0.8933
  973MOL0     C31245   6.625   3.967   1.043  0.3216 -0.0707  0.4429
  973MOL0     C31246   6.750   3.918   1.070  0.8247 -0.0435  1.0397
  973MOL0     C31247   6.772   3.806   1.149 -0.2064  0.1191  1.2576
  973MOL0     C31248   6.670   3.714   1.179  0.6772  0.0830 -0.2091
  973MOL0     C31249   6.686   3.584   1.248 -0.2194  1.2437 -1.1686
  973MOL0     O31250   6.818   3.564   1.282  0.9734 -0.2848  0.3572
  973MOL0     C31251   6.867   3.453   1.343  0.1850  0.2871 -0.2936
  973MOL0     C31252   7.006   3.446   1.329 -0.1604 -0.3782 -0.4373
  973MOL0     C31253   7.087   3.356   1.401  0.0792  0.0163  0.3829
  973MOL0     C31254   7.023   3.247   1.461 -0.5263  0.2368 -0.3422
  973MOL0     O31255   7.102   3.157   1.526 -0.3681 -0.5034  0.2571
  973MOL0     C31256   7.068   3.021   1.492  0.9651  0.7140  0.7262
  973MOL0     C31257   7.119   2.933   1.608 -0.2162  0.4679 -0.2134
  973MOL0     C31258   7.069   2.790   1.586 -0.6907  0.2163  0.3430
  973MOL0     C31259   7.114   2.691   1.689  0.3519  0.0845 -0.0274
  973MOL0     C31260   7.103   2.538   1.658 -0.3752  0.4375  0.5972
  973MOL0     C31261   7.200   2.455   1.728 -0.3665  0.1868 -0.4437
  973MOL0     C31262   7.220   2.314   1.671 -0.1480 -0.6104 -0.5394
  973MOL0     C31263   7.300   2.219   1.755  0.2138 -0.0452 -0.7009
  973MOL0    Cl31264   7.251   2.225   1.927 -0.0423 -0.2549 -0.7176
  973MOL0     C31265   6.877   3.246   1.474 -0.0283 -0.5668 -0.3338
  973MOL0     C31266   6.800   3.349   1.411  0.0626 -0.7534  0.0075
  973MOL0     O31267   6.595   3.507   1.279  0.3083 -0.0886  0.4262
  973MOL0     C31268   6.542   3.754   1.147  0.3417  1.1562 -0.5128
  973MOL0     C31269   6.520   3.879   1.074  0.9015  0.8445  0.9469
  973MOL0     N31270   6.548   4.660   0.794 -0.4041 -0.9451  0.6962
  973MOL0     N31271   6.667   4.703   0.783  0.4428 -0.2326  0.0878
  973MOL0     C31272   7.790   4.957   0.995  0.4409 -0.3919 -0.9451
  973MOL0     C31273   7.913   4.944   1.062  0.0255 -0.1056  0.3697
  973MOL0     C31274   8.334   4.984   1.139 -0.0627 -0.1132 -0.2649
  973MOL0     C31275   8.436   4.907   1.066 -0.2209 -0.1198  0.1262
  973MOL0     C31276   8.561   4.896   1.116 -0.5046  0.7125 -1.2091
  973MOL0     C31277   8.595   4.933   1.244  0.8982 -0.4631 -0.4910
  973MOL0     O31278   8.716   4.915   1.307 -0.4402 -0.3914  0.6983
  973MOL0     C31279   8.833   4.907   1.225  0.5165  0.0432  0.2532
  973MOL0     C31280   8.868   5.035   1.148  0.1159 -0.1994  0.1296
  973MOL0     C31281   9.019   5.043   1.118 -0.4958 -0.0760 -0.1083
  973MOL0     C31282   9.123   5.043   1.233  0.6106 -0.8414 -0.3719
  973MOL0     C31283   9.085   5.141   1.334  0.1137 -0.0511 -0.4845
  973MOL0     C31284   9.050   5.208   1.433  0.2300 -0.2467  0.4300
  973MOL0     C31285   8.501   5.006   1.314  0.3441 -0.3856  0.3282
  973MOL0     C31286   8.370   5.028   1.271 -0.6822  0.0341 -0.6457
  973MOL0     C31287   8.290   5.114   1.367 -0.0893  0.2770 -0.0456
  973MOL0     H31288   8.008   5.270   1.021 -0.2985  0.4540 -1.7148
  973MOL0     H31289   7.793   5.281   0.894 -0.0029 -0.9245 -1.3294
  973MOL0     H31290   7.557   4.914   0.826 -2.2523 -2.0429  0.3482
  973MOL0     H31291   7.471   5.021   0.932  3.0541 -0.6191  2.5711
  973MOL0     H31292   7.502   5.059   0.623 -1.5266  3.5829 -1.6871
  973MOL0     H31293   7.402   5.157   0.712  0.8256 -0.1831  0.1808
  973MOL0     H31294   7.295   4.928   0.801  2.0498 -0.2480  0.2652
  973MOL0     H31295   7.369   4.862   0.659 -0.9523 -2.0038  1.3469
  973MOL0     H31296   7.169   5.077   0.714 -0.3576 -0.8085 -0.0439
  973MOL0     H31297   7.249   5.072   0.553  3.0976 -1.6959 -0.1263
  973MOL0     H31298   7.013   4.977   0.571  0.9394  0.3829 -1.7600
  973MOL0     H31299   7.116   4.871   0.483 -0.3854  1.6079 -1.4058
  973MOL0     H31300   7.151   4.724   0.669 -0.9649 -1.3572 -0.4985
  973MOL0     H31301   7.064   4.828   0.786  0.6437 -0.6311 -0.3411
  973MOL0     H31302   6.950   4.728   0.532  0.5333  3.1186  0.0451
  973MOL0     H31303   6.850   4.806   0.641  0.7284 -0.1294 -1.2486
  973MOL0     H31304   6.917   4.519   0.655 -0.6695 -0.0958 -1.9700
  973MOL0     H31305   6.933   4.597   0.803  2.1550  1.2802 -0.5544
  973MOL0     H31306   6.674   4.418   0.611  2.4160  1.0227 -1.0351
  973MOL0     H31307   6.338   4.504   0.720 -1.0998 -1.5942 -0.9253
  973MOL0     H31308   6.432   4.380   0.650  0.7482  2.8259 -1.4097
  973MOL0     H31309   6.384   4.446   0.954  1.2893  1.0365 -0.1362
  973MOL0     H31310   6.330   4.299   0.864 -1.4105  1.1862 -1.4108
  973MOL0     H31311   6.580   4.330   1.016  1.3634 -0.5149 -0.5605
  973MOL0     H31312   6.617   4.289   0.843 -0.8984  0.1265 -1.5513
  973MOL0     H31313   6.454   4.102   0.868  0.6266 -0.1979 -0.3628
  973MOL0     H31314   6.433   4.146   1.039  0.7141 -2.4994 -0.3407
  973MOL0     H31315   6.831   3.977   1.028  0.7160 -0.6263 -0.0251
  973MOL0     H31316   6.871   3.776   1.182  0.5801 -0.4898 -1.4089
  973MOL0     H31317   7.044   3.525   1.264 -1.8714  1.4677  0.6870
  973MOL0     H31318   7.195   3.357   1.395  0.0904  0.4372  0.5661
  973MOL0     H31319   6.963   3.003   1.470  0.9608  0.0206  1.2807
  973MOL0     H31320   7.121   3.003   1.398 -2.0963 -0.4627 -0.8972
  973MOL0     H31321   7.227   2.938   1.590  0.0239  2.0941  1.4265
  973MOL0     H31322   7.087   2.976   1.703 -1.5777 -0.2643 -0.3177
  973MOL0     H31323   6.961   2.799   1.596 -0.5172  1.8476  1.1441
  973MOL0     H31324   7.095   2.757   1.485  1.3716 -0.2247  0.9629
  973MOL0     H31325   7.062   2.715   1.782  2.2212  1.3068  0.7593
  973MOL0     H31326   7.217   2.719   1.711  0.2544 -0.7323  1.5940
  973MOL0     H31327   7.102   2.516   1.551 -2.3843 -0.2394  0.7048
  973MOL0     H31328   7.006   2.496   1.688  0.3107 -0.7875  1.1727
  973MOL0     H31329   7.297   2.505   1.723 -0.8511  1.4829  1.6551
  973MOL0     H31330   7.180   2.468   1.835  5.3629  2.9974  0.6831
  973MOL0     H31331   7.268   2.320   1.573 -1.0300 -0.1352 -0.9534
  973MOL0     H31332   7.119   2.272   1.657 -0.9801  0.6517  1.3346
  973MOL0     H31333   7.292   2.116   1.718 -1.1759  0.2533 -1.2839
  973MOL0     H31334   7.405   2.248   1.745  0.3535 -0.4091 -0.3436
  973MOL0     H31335   6.825   3.167   1.528 -0.4715 -0.4246 -0.5486
  973MOL0     H31336   6.693   3.336   1.424 -0.0622 -0.9997 -1.1739
  973MOL0     H31337   6.460   3.690   1.179  1.7035 -0.3660  0.1126
  973MOL0     H31338   6.419   3.905   1.043  2.3345  4.7442 -1.1126
  973MOL0     H31339   7.723   4.872   0.989 -0.3719  0.1464  0.1117
  973MOL0     H31340   7.951   4.851   1.104  3.3666  1.8478  1.9923
  973MOL0     H31341   8.417   4.875   0.964 -1.1012 -0.1201  0.2862
  973MOL0     H31342   8.632   4.835   1.061  0.8751 -1.5589  2.7429
  973MOL0     H31343   8.809   4.833   1.148  1.7880  1.4213 -1.5728
  973MOL0     H31344   8.918   4.872   1.283 -0.7711  0.5953  2.5961
  973MOL0     H31345   8.846   5.115   1.219  3.4351 -1.0919  2.4123
  973MOL0     H31346   8.811   5.051   1.056 -1.9138  0.7765  1.4782
  973MOL0     H31347   9.033   5.132   1.057  0.2538 -0.0265  0.1296
  973MOL0     H31348   9.046   4.960   1.052 -1.3208 -1.6279  1.4021
  973MOL0     H31349   9.115   4.949   1.287 -4.2094 -1.4315 -1.6800
  973MOL0     H31350   9.224   5.066   1.197  1.0821  0.4648  1.6096
  973MOL0     H31351   9.011   5.268   1.514  1.9054 -0.8766  1.7484
  973MOL0     H31352   8.540   5.051   1.405  0.8722  1.7862 -0.8870
  973MOL0     H31353   8.205   5.048   1.385  1.5948 -2.6255 -1.9423
  973MOL0     H31354   8.345   5.134   1.459  1.4471 -0.9246 -0.6564
  973MOL0     H31355   8.255   5.204   1.315 -1.2956 -0.4900 -0.6109
  974MOL0     O31356   4.379   2.158   4.194 -0.2946  0.1486  0.0388
  974MOL0     C31357   4.339   2.092   4.288 -0.9529  1.5348  0.7707
  974MOL0     O31358   4.416   1.992   4.350 -0.0871  0.0829  0.3681
  974MOL0     C31359   4.546   1.964   4.332 -0.1618 -0.3250 -0.4366
  974MOL0     C31360   4.592   1.847   4.391 -0.0489 -1.2071  0.1118
  974MOL0     C31361   4.727   1.808   4.379 -0.1865  0.3410  0.6867
  974MOL0     C31362   4.817   1.866   4.291 -0.5903 -0.0470 -0.0910
  974MOL0     O31363   4.931   1.804   4.267  0.4367  0.5934 -0.0142
  974MOL0     C31364   4.950   1.789   4.128  1.1341 -0.4381 -0.1556
  974MOL0     C31365   5.049   1.675   4.104 -0.0165 -0.4013 -0.0641
  974MOL0     C31366   5.171   1.669   4.200  0.7810  1.2851 -0.2678
  974MOL0     C31367   5.261   1.554   4.152 -0.5483  0.4450 -0.4001
  974MOL0     C31368   5.414   1.558   4.198  0.6086 -0.3752  0.4776
  974MOL0     C31369   5.470   1.431   4.238 -0.3213  1.7585  0.0404
  974MOL0     C31370   5.623   1.432   4.272 -0.3009 -0.4512 -0.1894
  974MOL0     C31371   5.686   1.292   4.288 -0.6517  0.0680  0.3625
  974MOL0     N31372   5.831   1.303   4.287  0.0437 -1.0211 -0.2216
  974MOL0     C31373   5.902   1.190   4.282 -0.5271  0.2259  0.5457
  974MOL0     C31374   6.029   1.216   4.310  0.2924 -0.3448 -0.2507
  974MOL0     C31375   6.146   1.122   4.340  0.0584  0.3798  0.7359
  974MOL0     C31376   6.284   1.177   4.311  0.2643  0.1226  0.4035
  974MOL0     C31377   6.385   1.058   4.298 -0.3600  0.2897 -0.1582
  974MOL0     C31378   6.440   1.014   4.435  0.4410  0.3309 -0.3549
  974MOL0     O31379   6.514   0.883   4.406  0.1915  0.9274 -0.8599
  974MOL0     C31380   6.600   0.835   4.491  0.1891 -0.8425 -1.0080
  974MOL0     C31381   6.728   0.884   4.511 -0.8446 -0.3356  0.2685
  974MOL0     C31382   6.814   0.806   4.586 -0.3839 -0.4817  0.5759
  974MOL0     C31383   6.785   0.683   4.636 -0.0089 -0.1584 -0.3553
  974MOL0     C31384   6.884   0.579   4.687 -0.0358 -0.2210 -0.8056
  974MOL0     O31385   7.023   0.612   4.673  0.0576  0.5111  0.4424
  974MOL0     C31386   7.126   0.529   4.713 -1.2311  0.3214  0.4336
  974MOL0     C31387   7.111   0.395   4.748  0.2620 -0.6616 -0.7632
  974MOL0     C31388   7.228   0.319   4.774  0.7411  1.0975 -0.0749
  974MOL0     C31389   7.358   0.380   4.773  1.1104 -0.4516 -0.4056
  974MOL0     O31390   7.478   0.322   4.794 -0.0160 -0.6343  0.1297
  974MOL0     C31391   7.469   0.179   4.829 -0.6919  0.2743  0.1101
  974MOL0     C31392   7.614   0.125   4.833  0.6906  0.4326  1.1658
  974MOL0     C31393   7.638  -0.015   4.885  0.0723 -0.7682 -0.4738
  974MOL0     C31394   7.784  -0.055   4.892 -0.1135 -1.3249  0.2472
  974MOL0     C31395   7.788  -0.206   4.919  0.7109  0.3094 -0.8871
  974MOL0     C31396   7.920  -0.273   4.917 -0.8725  0.7590 -0.1605
  974MOL0     C31397   7.992  -0.259   4.785 -1.3285 -0.2419 -0.0294
  974MOL0     C31398   8.130  -0.329   4.784  0.6942  0.3547  0.3552
  974MOL0    Cl31399   8.141  -0.499   4.811 -0.0297 -0.0199 -0.2721
  974MOL0     C31400   7.376   0.517   4.743  1.1469 -0.2443  0.3279
  974MOL0     C31401   7.258   0.585   4.713 -0.0892  0.1123  0.6292
  974MOL0     O31402   6.845   0.479   4.743  0.1099 -0.3664  0.0934
  974MOL0     C31403   6.651   0.645   4.626  0.2585 -1.1932 -0.0355
  974MOL0     C31404   6.561   0.721   4.547  0.7981 -0.4109  0.0079
  974MOL0     N31405   6.038   1.357   4.311 -0.1107 -0.2154 -0.3342
  974MOL0     N31406   5.917   1.416   4.299  0.0615  0.1921  0.2894
  974MOL0     C31407   4.773   1.986   4.227  1.1509  0.0010 -0.2106
  974MOL0     C31408   4.638   2.035   4.246 -0.8420 -0.3558 -0.9602
  974MOL0     C31409   4.219   2.137   4.351 -0.3306 -0.5984  0.3887
  974MOL0     C31410   4.229   2.188   4.480 -0.0436 -0.9320 -0.2747
  974MOL0     C31411   4.110   2.233   4.545  0.5073  0.4376  0.4829
  974MOL0     C31412   3.988   2.222   4.480  0.3706  0.6536  0.1430
  974MOL0     O31413   3.878   2.266   4.544 -0.4863  0.5748  0.4009
  974MOL0     C31414   3.842   2.188   4.652 -0.2956  1.0531  0.5275
  974MOL0     C31415   3.781   2.282   4.767 -0.2544  0.4113  0.1693
  974MOL0     C31416   3.890   2.342   4.860 -0.4144  0.6781  0.7125
  974MOL0     C31417   3.817   2.386   4.994 -0.1002  0.1181  0.3130
  974MOL0     C31418   3.900   2.475   5.074  0.1551  1.4370  0.0566
  974MOL0     C31419   3.966   2.551   5.132 -0.5461  0.9259 -0.1392
  974MOL0     C31420   3.982   2.183   4.348 -0.5614  0.1688 -0.3997
  974MOL0     C31421   4.095   2.138   4.278 -0.4733 -0.9105  0.2557
  974MOL0     C31422   4.072   2.083   4.138  0.9809 -0.0041  0.2721
  974MOL0     H31423   4.526   1.795   4.461 -0.9850  0.1684  0.2842
  974MOL0     H31424   4.742   1.712   4.428 -3.3126  0.2427  1.6665
  974MOL0     H31425   4.860   1.779   4.068  1.7970  0.0578 -1.2663
  974MOL0     H31426   4.982   1.881   4.079 -1.5111  0.3813 -0.4715
  974MOL0     H31427   5.085   1.704   4.005 -1.7277 -1.3936 -1.0152
  974MOL0     H31428   4.993   1.582   4.095  2.0742 -1.6659 -0.6806
  974MOL0     H31429   5.140   1.653   4.303  1.3495  1.0786 -0.1230
  974MOL0     H31430   5.238   1.755   4.186  1.8810  0.5127  0.0622
  974MOL0     H31431   5.226   1.463   4.201 -4.4139  0.7366 -2.2314
  974MOL0     H31432   5.239   1.532   4.047 -4.1414 -1.3754  0.5724
  974MOL0     H31433   5.463   1.593   4.107  0.6256 -2.1228 -0.2294
  974MOL0     H31434   5.436   1.634   4.274  0.9593 -0.0501  0.0540
  974MOL0     H31435   5.422   1.394   4.329  2.8872 -2.0554  0.4285
  974MOL0     H31436   5.456   1.360   4.157  0.0772 -0.3626  1.7364
  974MOL0     H31437   5.646   1.491   4.361  1.9908  1.0395 -1.6526
  974MOL0     H31438   5.687   1.476   4.195  1.8868 -0.3656  1.5687
  974MOL0     H31439   5.659   1.239   4.380  1.0638 -1.7046 -0.0941
  974MOL0     H31440   5.663   1.220   4.209 -1.0744 -1.2345  1.6274
  974MOL0     H31441   5.863   1.090   4.269  1.3456 -0.4117 -0.5775
  974MOL0     H31442   6.142   1.104   4.448  0.0539 -0.9792  0.5216
  974MOL0     H31443   6.136   1.036   4.273  1.0546 -1.5053  2.8735
  974MOL0     H31444   6.294   1.239   4.222  1.2293 -1.2282 -0.4624
  974MOL0     H31445   6.316   1.250   4.386  0.1407  0.4358  0.1533
  974MOL0     H31446   6.470   1.109   4.251  0.0681 -0.2446  0.0274
  974MOL0     H31447   6.353   0.980   4.229  1.2162  1.7458 -2.6728
  974MOL0     H31448   6.352   0.995   4.498  0.8343  0.4340  0.2295
  974MOL0     H31449   6.506   1.091   4.475 -1.1957  1.9083 -0.5747
  974MOL0     H31450   6.763   0.964   4.447  0.2529 -0.0390  1.2078
  974MOL0     H31451   6.913   0.851   4.593 -0.4189  1.3364 -5.3299
  974MOL0     H31452   7.017   0.340   4.758  0.9678 -2.1590 -1.8632
  974MOL0     H31453   7.230   0.216   4.806 -0.3730  1.9622  3.1390
  974MOL0     H31454   7.422   0.155   4.925 -0.2598 -2.2924 -0.2267
  974MOL0     H31455   7.421   0.121   4.749  3.2487 -1.4953 -1.2774
  974MOL0     H31456   7.654   0.131   4.731  1.7546 -1.1926  1.4540
  974MOL0     H31457   7.668   0.203   4.888 -2.3977  1.9596  2.2585
  974MOL0     H31458   7.587  -0.030   4.981 -1.0454  1.3532 -0.6780
  974MOL0     H31459   7.586  -0.084   4.817  2.1130 -1.2950 -1.5786
  974MOL0     H31460   7.836   0.002   4.969  0.8152  1.9587 -2.5295
  974MOL0     H31461   7.831  -0.026   4.797 -2.5146 -1.9481 -1.2345
  974MOL0     H31462   7.721  -0.262   4.852  1.7310 -3.7978  1.1589
  974MOL0     H31463   7.745  -0.221   5.019 -0.8384 -1.4415 -1.7498
  974MOL0     H31464   7.979  -0.236   5.001  1.9724  1.0170 -2.1245
  974MOL0     H31465   7.919  -0.378   4.948 -3.0447  1.6635  3.4054
  974MOL0     H31466   8.018  -0.155   4.763  3.9407 -1.3834 -0.5338
  974MOL0     H31467   7.931  -0.302   4.705 -4.8739 -3.5148  3.9382
  974MOL0     H31468   8.167  -0.317   4.682  1.3297 -0.9949  0.4063
  974MOL0     H31469   8.205  -0.282   4.847  0.2445  2.4090 -0.5760
  974MOL0     H31470   7.472   0.566   4.744  3.5937 -4.5296 -0.1070
  974MOL0     H31471   7.251   0.687   4.677 -1.1381 -0.4269 -0.7859
  974MOL0     H31472   6.626   0.552   4.675  1.3474  0.1665  3.3251
  974MOL0     H31473   6.456   0.693   4.540  1.0586 -1.6020  0.6017
  974MOL0     H31474   4.832   2.048   4.160 -1.8141  1.4583 -1.6530
  974MOL0     H31475   4.600   2.114   4.182 -0.5321 -1.4028 -2.5096
  974MOL0     H31476   4.323   2.190   4.534 -0.1118  3.9326  0.1016
  974MOL0     H31477   4.119   2.272   4.646 -0.8235 -1.4559  1.3876
  974MOL0     H31478   3.922   2.124   4.690  0.9485  0.8309 -2.2321
  974MOL0     H31479   3.759   2.126   4.619 -1.4586  1.5010  2.4541
  974MOL0     H31480   3.714   2.211   4.817 -0.0422  1.5117  2.1209
  974MOL0     H31481   3.718   2.357   4.720 -1.0592 -1.0428 -1.1714
  974MOL0     H31482   3.948   2.419   4.808  0.9723  0.6003  2.0913
  974MOL0     H31483   3.962   2.265   4.888 -1.9484 -0.2677  2.2616
  974MOL0     H31484   3.725   2.443   4.974 -0.1191 -0.1529 -0.4168
  974MOL0     H31485   3.789   2.296   5.049 -3.1911  0.8110  0.0855
  974MOL0     H31486   4.030   2.626   5.173 -3.2574  0.5927  5.7557
  974MOL0     H31487   3.878   2.194   4.318 -0.7127  1.4984  0.5271
  974MOL0     H31488   4.060   1.975   4.127  0.9704  0.0106  0.1381
  974MOL0     H31489   3.986   2.132   4.091  0.5081  1.3594  2.4113
  974MOL0     H31490   4.147   2.122   4.067  2.1594 -1.2805  0.7754
  975MOL0     O31491   2.269   3.307   1.798 -0.2454 -0.3961 -0.2965
  975MOL0     C31492   2.191   3.355   1.713 -0.1530 -0.1659 -0.7237
  975MOL0     O31493   2.185   3.488   1.676  0.5121 -0.0557  0.2162
  975MOL0     C31494   2.245   3.587   1.742  1.0571  0.7265  0.0355
  975MOL0     C31495   2.334   3.672   1.679  0.5645  0.4480 -0.4115
  975MOL0     C31496   2.390   3.774   1.742 -0.3800 -0.2691 -0.4992
  975MOL0     C31497   2.364   3.803   1.881  0.2984  0.1725  0.4688
  975MOL0     O31498   2.416   3.908   1.954 -0.5458  0.7507 -0.0042
  975MOL0     C31499   2.434   4.032   1.893  0.1958 -0.0922  0.9877
  975MOL0     C31500   2.456   4.143   1.994 -0.3427  0.0211  0.4450
  975MOL0     C31501   2.495   4.282   1.936  0.3702  0.0433 -0.7109
  975MOL0     C31502   2.358   4.335   1.885  0.3109 -0.1581 -0.3979
  975MOL0     C31503   2.377   4.459   1.809 -0.1102  0.1244  0.3390
  975MOL0     C31504   2.239   4.523   1.774 -0.2792  0.3414  0.1016
  975MOL0     C31505   2.264   4.641   1.673  0.0802  0.1559  0.7502
  975MOL0     C31506   2.130   4.702   1.625  0.2574 -0.1547  0.0817
  975MOL0     N31507   2.149   4.832   1.557  0.6424  0.2977  0.5663
  975MOL0     C31508   2.186   4.948   1.618  0.2277 -0.2421  0.2405
  975MOL0     C31509   2.169   5.046   1.529  1.1073 -0.3601  0.4039
  975MOL0     C31510   2.182   5.194   1.532  0.5364  0.2178  0.2699
  975MOL0     C31511   2.067   5.254   1.611  0.2900 -0.2443  0.1628
  975MOL0     C31512   2.106   5.396   1.636  0.2460 -1.2181 -0.4671
  975MOL0     C31513   1.990   5.475   1.699 -0.6209 -0.5300 -0.2901
  975MOL0     O31514   1.945   5.403   1.821  0.5812  0.0736 -0.2077
  975MOL0     C31515   1.811   5.411   1.849 -0.8632 -0.4797  0.3785
  975MOL0     C31516   1.750   5.318   1.928 -0.6283  0.6616 -0.6973
  975MOL0     C31517   1.613   5.309   1.954 -0.4300  0.0607 -0.5541
  975MOL0     C31518   1.529   5.403   1.899  0.1487 -0.0570  0.1220
  975MOL0     C31519   1.389   5.401   1.934 -1.2009 -0.1347  0.1357
  975MOL0     O31520   1.308   5.499   1.887 -0.0429 -0.0342  0.0061
  975MOL0     C31521   1.173   5.484   1.920  0.0687  0.0555 -0.4336
  975MOL0     C31522   1.114   5.584   1.989 -0.7103 -0.6188 -0.8748
  975MOL0     C31523   0.982   5.580   2.007  0.6148 -0.7570  0.0459
  975MOL0     C31524   0.907   5.472   1.966  1.0448  0.1099 -0.3515
  975MOL0     O31525   0.780   5.486   2.008 -0.1278  0.3936  0.4797
  975MOL0     C31526   0.692   5.366   2.030 -0.3965 -0.0862 -0.4208
  975MOL0     C31527   0.570   5.435   2.088 -0.0496 -0.9556  0.3407
  975MOL0     C31528   0.478   5.324   2.146 -0.0893  0.5715 -0.3614
  975MOL0     C31529   0.419   5.379   2.279  0.0083  0.5555  0.3313
  975MOL0     C31530   0.362   5.271   2.364  0.8616 -1.1225  0.0168
  975MOL0     C31531   0.262   5.334   2.464  0.3722 -0.5851  0.2028
  975MOL0     C31532   0.207   5.236   2.567 -0.4166 -0.2170 -0.4053
  975MOL0     C31533   0.083   5.300   2.652  0.5932  0.1455 -0.4291
  975MOL0    Cl31534  -0.072   5.300   2.562  0.2830  0.1038 -0.1761
  975MOL0     C31535   0.968   5.370   1.888 -0.3594 -0.0827 -0.1346
  975MOL0     C31536   1.105   5.380   1.872  0.4616 -0.2694 -0.4046
  975MOL0     O31537   1.352   5.304   2.000  0.3461 -1.5563 -0.1911
  975MOL0     C31538   1.588   5.517   1.835  0.3191 -0.5221  0.3315
  975MOL0     C31539   1.724   5.508   1.807 -0.6398 -0.0685  0.0033
  975MOL0     N31540   2.123   4.985   1.411 -0.2436 -0.3186  0.1985
  975MOL0     N31541   2.103   4.863   1.430  0.0405  0.0630 -0.5499
  975MOL0     C31542   2.284   3.712   1.947  0.7507  0.0731  0.2272
  975MOL0     C31543   2.222   3.605   1.879  0.7079  0.0458  0.5762
  975MOL0     C31544   2.110   3.266   1.629  0.1005  0.2468 -0.5369
  975MOL0     C31545   2.020   3.319   1.539 -0.1321 -0.0082  0.1383
  975MOL0     C31546   1.950   3.245   1.445 -0.5566  0.2744  0.4374
  975MOL0     C31547   1.972   3.112   1.431 -0.4138  0.3165 -0.1286
  975MOL0     O31548   1.902   3.049   1.333 -0.2754  0.6394  0.9262
  975MOL0     C31549   1.875   2.908   1.347  0.6061  0.2953 -0.3093
  975MOL0     C31550   1.772   2.854   1.246 -0.9904  0.0345 -0.1741
  975MOL0     C31551   1.742   2.699   1.272  0.5638 -0.2635 -0.0148
  975MOL0     C31552   1.659   2.630   1.166  0.5138 -0.4460  0.4556
  975MOL0     C31553   1.521   2.661   1.163 -0.7793 -0.5458 -0.3811
  975MOL0     C31554   1.405   2.674   1.165  0.4992 -0.5676 -0.0777
  975MOL0     C31555   2.059   3.050   1.515 -0.9099  0.0727 -0.8687
  975MOL0     C31556   2.131   3.124   1.609 -0.4766 -0.7361  0.1510
  975MOL0     C31557   2.241   3.041   1.670 -0.1677  0.4522 -0.3546
  975MOL0     H31558   2.352   3.668   1.572  1.1979  0.2496 -0.2989
  975MOL0     H31559   2.460   3.839   1.690 -1.7106  2.7391  1.1833
  975MOL0     H31560   2.524   4.026   1.831 -0.3766 -0.8510  0.1956
  975MOL0     H31561   2.345   4.054   1.832  0.1626 -0.1525  1.0138
  975MOL0     H31562   2.540   4.109   2.056  0.9149  1.2678 -0.5354
  975MOL0     H31563   2.377   4.159   2.068  0.4439  1.7441  0.9546
  975MOL0     H31564   2.565   4.273   1.852  1.4516 -0.4076  0.2108
  975MOL0     H31565   2.542   4.346   2.010 -0.5021  1.1033 -1.0547
  975MOL0     H31566   2.320   4.260   1.816  2.9547 -1.9384 -0.0826
  975MOL0     H31567   2.288   4.351   1.967  0.7784  1.3232 -0.2543
  975MOL0     H31568   2.427   4.532   1.873 -0.5599 -0.2892  1.1835
  975MOL0     H31569   2.434   4.434   1.719  0.8261 -0.0217  0.9497
  975MOL0     H31570   2.181   4.445   1.722 -0.4278  0.3965  0.1855
  975MOL0     H31571   2.176   4.558   1.855  1.9075  1.0866  1.5755
  975MOL0     H31572   2.307   4.607   1.578  2.2812  3.8416  0.2358
  975MOL0     H31573   2.330   4.713   1.723  0.7347 -0.6407  1.0457
  975MOL0     H31574   2.079   4.637   1.553 -0.4546  1.9903 -1.4669
  975MOL0     H31575   2.073   4.721   1.716  2.4914 -0.7424  1.7041
  975MOL0     H31576   2.232   4.957   1.716  1.2665 -1.6967 -0.0679
  975MOL0     H31577   2.282   5.209   1.572  0.4138 -3.4937  2.3810
  975MOL0     H31578   2.179   5.232   1.429  1.7359  1.5742  0.7001
  975MOL0     H31579   1.984   5.260   1.540  2.1473  2.1878 -1.9726
  975MOL0     H31580   2.035   5.195   1.697 -1.2586  1.5258  0.8665
  975MOL0     H31581   2.142   5.448   1.546  1.7034  0.2316  0.8810
  975MOL0     H31582   2.197   5.389   1.697  0.6455 -0.9502 -1.0263
  975MOL0     H31583   1.919   5.496   1.618  1.5082 -0.4280 -2.2378
  975MOL0     H31584   2.028   5.575   1.720  0.8771 -0.5481 -2.5408
  975MOL0     H31585   1.814   5.237   1.962  0.7186  1.9315 -0.1059
  975MOL0     H31586   1.573   5.220   2.002 -2.3511  0.6604 -0.9628
  975MOL0     H31587   1.171   5.673   2.014 -1.9798  0.2256 -0.9022
  975MOL0     H31588   0.927   5.653   2.066  0.9739  0.0395 -0.5909
  975MOL0     H31589   0.684   5.330   1.927  1.2837 -1.0441 -0.2494
  975MOL0     H31590   0.751   5.298   2.092 -0.7077  0.1623  0.1507
  975MOL0     H31591   0.595   5.509   2.165 -0.0497 -0.8744  0.2633
  975MOL0     H31592   0.522   5.481   2.001  1.8328 -0.3926 -0.4597
  975MOL0     H31593   0.397   5.302   2.076 -2.1856 -1.9897  2.5478
  975MOL0     H31594   0.519   5.223   2.160  0.3674  0.1943 -3.6663
  975MOL0     H31595   0.339   5.451   2.263 -1.5878 -0.7321  2.0908
  975MOL0     H31596   0.488   5.435   2.344  1.8813 -0.2741 -0.8456
  975MOL0     H31597   0.436   5.224   2.429  2.1303  3.2565  2.1800
  975MOL0     H31598   0.307   5.200   2.302 -0.2715  1.1689 -1.7852
  975MOL0     H31599   0.308   5.415   2.522 -0.7600  0.1956  0.0320
  975MOL0     H31600   0.174   5.380   2.419 -0.8016  0.3292  3.2114
  975MOL0     H31601   0.279   5.206   2.644  0.5649  3.2419  0.2024
  975MOL0     H31602   0.178   5.148   2.509  2.8071 -0.6401 -1.5654
  975MOL0     H31603   0.049   5.245   2.740  0.4143  1.8863  0.6481
  975MOL0     H31604   0.117   5.399   2.684  1.1763  0.5482 -2.1931
  975MOL0     H31605   0.910   5.281   1.865 -2.1683  0.6039  1.4738
  975MOL0     H31606   1.148   5.294   1.822  1.9445 -0.9446  1.8857
  975MOL0     H31607   1.523   5.599   1.806 -2.1500 -2.8527 -1.1574
  975MOL0     H31608   1.772   5.577   1.738 -1.1300 -1.9144 -2.3285
  975MOL0     H31609   2.263   3.728   2.052 -0.1140  0.0365  0.0729
  975MOL0     H31610   2.147   3.540   1.924 -0.0553  0.3483 -0.2348
  975MOL0     H31611   2.017   3.427   1.527 -2.9106  0.3842  2.9982
  975MOL0     H31612   1.880   3.298   1.381 -1.7138 -0.6755  0.8780
  975MOL0     H31613   1.830   2.885   1.445 -0.2753 -0.0525 -0.7819
  975MOL0     H31614   1.968   2.853   1.360 -0.1681 -0.7989  0.9285
  975MOL0     H31615   1.819   2.866   1.147  0.8731  0.4669  0.7098
  975MOL0     H31616   1.683   2.918   1.242  0.2883  2.1437  2.2755
  975MOL0     H31617   1.690   2.686   1.367 -0.2463  1.4203 -0.1891
  975MOL0     H31618   1.841   2.652   1.278  0.3955 -0.5808  0.3339
  975MOL0     H31619   1.701   2.644   1.066  0.7542 -0.8053  0.5049
  975MOL0     H31620   1.660   2.524   1.193 -0.9377 -0.0567  2.2836
  975MOL0     H31621   1.299   2.678   1.148  0.4863  1.9004  0.1484
  975MOL0     H31622   2.083   2.945   1.506 -1.1418 -0.1032  0.3872
  975MOL0     H31623   2.229   3.039   1.779 -0.8816  0.6833 -0.4242
  975MOL0     H31624   2.237   2.933   1.654 -0.8344 -0.0514  2.6941
  975MOL0     H31625   2.337   3.084   1.639  0.1375 -0.5503 -0.8081
  976MOL0     O31626   9.028   3.626   2.920 -0.9648 -0.0834 -0.3104
  976MOL0     C31627   8.946   3.584   2.998  0.7140 -0.5528  0.1285
  976MOL0     O31628   8.964   3.552   3.134 -0.2272  0.2654  0.0173
  976MOL0     C31629   9.096   3.523   3.165  0.2997  0.4616 -0.9312
  976MOL0     C31630   9.155   3.408   3.105 -0.1210  0.5408  0.0689
  976MOL0     C31631   9.287   3.385   3.124  0.3598 -0.2621  0.8354
  976MOL0     C31632   9.368   3.464   3.217 -0.1820  0.1440 -0.8920
  976MOL0     O31633   9.496   3.425   3.252 -0.7908 -0.3803  0.6502
  976MOL0     C31634   9.516   3.282   3.260  0.4657 -0.7404 -0.2257
  976MOL0     C31635   9.633   3.264   3.352 -0.0357  0.4936 -0.9764
  976MOL0     C31636   9.649   3.120   3.406 -0.6427 -0.3688 -0.2865
  976MOL0     C31637   9.753   3.106   3.511  0.3624 -0.4206 -0.8358
  976MOL0     C31638   9.763   2.956   3.530 -0.5905  0.4769  1.0241
  976MOL0     C31639   9.883   2.900   3.613 -0.0898  0.6204 -0.2857
  976MOL0     C31640   9.862   2.754   3.656 -0.2829  0.0671 -0.5425
  976MOL0     C31641   9.924   2.720   3.794 -0.6117 -0.1688 -0.1266
  976MOL0     N31642  10.078   2.730   3.800 -0.4144  0.4877 -0.9702
  976MOL0     C31643  10.162   2.638   3.741  0.6167 -0.1463  0.0483
  976MOL0     C31644  10.288   2.687   3.759  0.3013  0.2915  0.3022
  976MOL0     C31645  10.408   2.601   3.733 -0.2140  0.1558  0.7780
  976MOL0     C31646  10.407   2.476   3.814  0.5310  0.0201 -0.2780
  976MOL0     C31647  10.527   2.381   3.790 -0.3030  0.2981 -0.8852
  976MOL0     C31648  10.658   2.455   3.819 -0.2247  0.2277 -0.1647
  976MOL0     O31649  10.754   2.346   3.819 -0.2400 -0.0082 -0.0758
  976MOL0     C31650  10.880   2.396   3.834 -0.1908 -0.2057  0.5799
  976MOL0     C31651  10.969   2.385   3.725  0.0796  0.8157  0.4872
  976MOL0     C31652  11.106   2.427   3.738  0.3910  1.0885 -0.3911
  976MOL0     C31653  11.153   2.475   3.865 -0.8439 -0.1629  0.2067
  976MOL0     C31654  11.300   2.504   3.879  0.7718  0.5081  0.4333
  976MOL0     O31655  11.380   2.488   3.773 -0.1175  0.0515 -0.0475
  976MOL0     C31656  11.514   2.514   3.772  0.1302 -0.0962 -0.4585
  976MOL0     C31657  11.583   2.440   3.676  0.2712  1.2324  0.2231
  976MOL0     C31658  11.725   2.459   3.663 -0.1241 -0.2278 -0.6210
  976MOL0     C31659  11.794   2.558   3.736 -0.5494  0.2590 -0.9695
  976MOL0     O31660  11.932   2.560   3.716 -0.5354  0.3113 -0.4272
  976MOL0     C31661  12.011   2.671   3.761 -0.3415  0.3137 -0.3128
  976MOL0     C31662  12.164   2.654   3.723  0.4200  1.0918  0.7393
  976MOL0     C31663  12.198   2.681   3.575 -0.0124 -0.2198  1.1505
  976MOL0     C31664  12.343   2.688   3.534  0.1481  0.0910  0.8150
  976MOL0     C31665  12.401   2.545   3.529  0.3321  0.3386  0.6624
  976MOL0     C31666  12.532   2.547   3.446  0.1678  1.0900  1.1653
  976MOL0     C31667  12.648   2.631   3.505 -0.1829  0.2683 -0.2000
  976MOL0     C31668  12.770   2.639   3.419  0.9026 -0.1313  0.9254
  976MOL0    Cl31669  12.909   2.734   3.480  0.0559 -0.2288 -0.2038
  976MOL0     C31670  11.721   2.622   3.836 -0.0479 -0.3581 -0.9644
  976MOL0     C31671  11.584   2.601   3.860 -0.3960  0.8373 -0.1452
  976MOL0     O31672  11.338   2.546   3.982 -0.0884  0.6434 -0.6202
  976MOL0     C31673  11.061   2.500   3.971  0.1130  0.6117 -0.4635
  976MOL0     C31674  10.927   2.447   3.959  0.4101 -0.2978  0.8392
  976MOL0     N31675  10.285   2.803   3.829  0.0884  0.2590 -0.1549
  976MOL0     N31676  10.156   2.836   3.844 -0.1716  0.0606 -0.2824
  976MOL0     C31677   9.308   3.570   3.285  0.5640 -0.1844  0.7104
  976MOL0     C31678   9.173   3.598   3.252  0.3413 -0.2904  0.5174
  976MOL0     C31679   8.799   3.582   2.953  0.2447  0.1585 -0.4754
  976MOL0     C31680   8.689   3.604   3.048 -0.4955 -0.3964  0.4653
  976MOL0     C31681   8.555   3.585   3.006  0.1271 -0.1515  0.1577
  976MOL0     C31682   8.520   3.552   2.881 -0.3490  0.5973 -0.5100
  976MOL0     O31683   8.388   3.575   2.853 -0.2682 -0.3135 -0.4991
  976MOL0     C31684   8.359   3.582   2.710 -0.3138 -0.1645  0.2357
  976MOL0     C31685   8.201   3.618   2.713 -1.1032 -0.2731 -0.3936
  976MOL0     C31686   8.133   3.527   2.615 -0.7865 -0.7841  0.8656
  976MOL0     C31687   7.989   3.581   2.588  0.2759 -0.7122  0.6005
  976MOL0     C31688   7.919   3.485   2.497 -0.0033 -0.0872  0.8333
  976MOL0     C31689   7.864   3.405   2.423  0.0126  0.6258 -0.1765
  976MOL0     C31690   8.623   3.538   2.789 -0.6952  0.8493 -0.8531
  976MOL0     C31691   8.764   3.549   2.823  0.9516 -0.8079 -0.4987
  976MOL0     C31692   8.855   3.525   2.703  0.1151 -0.9355  0.1313
  976MOL0     H31693   9.101   3.340   3.040 -0.0174 -3.3841  3.6514
  976MOL0     H31694   9.332   3.300   3.072 -0.0894 -0.0639  0.1128
  976MOL0     H31695   9.429   3.225   3.293  0.0264 -0.4200 -0.7988
  976MOL0     H31696   9.536   3.245   3.159  1.0197  0.5715 -0.6257
  976MOL0     H31697   9.611   3.322   3.442 -1.8522 -2.8602  0.9118
  976MOL0     H31698   9.722   3.306   3.302  1.1054 -1.6377 -0.8364
  976MOL0     H31699   9.672   3.056   3.320  2.2986 -1.2289  1.0239
  976MOL0     H31700   9.557   3.094   3.461  0.5789 -2.9421  0.7233
  976MOL0     H31701   9.852   3.149   3.490  1.1003 -1.0189  1.1963
  976MOL0     H31702   9.716   3.157   3.601 -1.4683  0.0589 -1.8066
  976MOL0     H31703   9.670   2.919   3.576 -0.4574 -0.2655  0.7148
  976MOL0     H31704   9.761   2.900   3.436  0.2599  1.4114  0.4413
  976MOL0     H31705   9.978   2.905   3.560  0.7986 -1.4276  0.9842
  976MOL0     H31706   9.894   2.967   3.699 -0.6049 -0.0429  0.3051
  976MOL0     H31707   9.907   2.680   3.589  2.3947  0.8026  0.3270
  976MOL0     H31708   9.755   2.729   3.657 -0.5644  1.0947 -2.0531
  976MOL0     H31709   9.880   2.787   3.869 -0.5279 -0.4958  0.2198
  976MOL0     H31710   9.907   2.615   3.820 -0.4617  0.2421  1.7347
  976MOL0     H31711  10.126   2.547   3.693  1.8712 -1.0114  0.6933
  976MOL0     H31712  10.413   2.583   3.625  0.9860 -1.6401  1.0914
  976MOL0     H31713  10.500   2.657   3.752 -0.4918  0.6559  0.6914
  976MOL0     H31714  10.401   2.507   3.919 -0.6013 -2.5315  0.5011
  976MOL0     H31715  10.310   2.430   3.795 -0.6340  0.7245  3.2619
  976MOL0     H31716  10.534   2.336   3.691  2.4511  1.4910 -1.3216
  976MOL0     H31717  10.534   2.294   3.857 -1.2825  0.8417 -0.0476
  976MOL0     H31718  10.661   2.502   3.918  2.4688  0.7899 -0.4511
  976MOL0     H31719  10.679   2.525   3.738 -0.1886  1.4271  0.8494
  976MOL0     H31720  10.944   2.343   3.628 -0.8431  2.4017  0.0090
  976MOL0     H31721  11.175   2.403   3.658  1.0335 -1.9584  0.9340
  976MOL0     H31722  11.525   2.364   3.624  0.1111  1.4212  0.1235
  976MOL0     H31723  11.776   2.395   3.592  1.2056  1.6445 -1.4013
  976MOL0     H31724  11.971   2.759   3.710 -4.9726 -2.1562 -1.5476
  976MOL0     H31725  11.998   2.676   3.870 -4.0902  2.1165 -0.6633
  976MOL0     H31726  12.228   2.717   3.786  3.9879 -0.3969 -1.0916
  976MOL0     H31727  12.177   2.546   3.734  1.1801  0.7212 -2.6020
  976MOL0     H31728  12.136   2.613   3.516 -0.5855  1.0253  0.2730
  976MOL0     H31729  12.166   2.784   3.553 -2.7142 -1.0258  0.9595
  976MOL0     H31730  12.389   2.746   3.615  1.1355 -2.6496  2.3527
  976MOL0     H31731  12.349   2.731   3.434  2.7131  1.8503  1.6134
  976MOL0     H31732  12.328   2.481   3.479  0.6322  0.0468  0.5922
  976MOL0     H31733  12.412   2.494   3.625 -0.8164 -2.2405 -0.4951
  976MOL0     H31734  12.557   2.442   3.424 -1.7597  1.1419 -1.7782
  976MOL0     H31735  12.501   2.594   3.352 -3.5067  0.7345  2.0549
  976MOL0     H31736  12.673   2.570   3.593 -1.5952  0.3892  0.3177
  976MOL0     H31737  12.616   2.731   3.534  1.1320 -0.2014  3.4298
  976MOL0     H31738  12.797   2.534   3.402 -0.2623 -0.1895 -0.8579
  976MOL0     H31739  12.742   2.679   3.321  0.6593  0.2946  1.1699
  976MOL0     H31740  11.765   2.680   3.917  0.2310 -4.1677  1.8917
  976MOL0     H31741  11.531   2.661   3.933 -0.9653  0.8767 -0.5810
  976MOL0     H31742  11.103   2.540   4.063  2.0010  2.2245 -1.9356
  976MOL0     H31743  10.861   2.442   4.045 -1.0740 -0.3498 -0.2561
  976MOL0     H31744   9.359   3.641   3.350 -0.3281  1.3988 -0.2720
  976MOL0     H31745   9.133   3.685   3.303  1.9365  2.1913 -2.1654
  976MOL0     H31746   8.713   3.628   3.151 -0.4267 -0.3649  0.4423
  976MOL0     H31747   8.480   3.604   3.081 -1.1204 -0.3337 -1.0109
  976MOL0     H31748   8.379   3.489   2.655  2.4395  0.3936  0.1455
  976MOL0     H31749   8.423   3.658   2.665 -0.8857 -0.3008 -0.8497
  976MOL0     H31750   8.199   3.724   2.685  0.0418 -0.3446 -0.7879
  976MOL0     H31751   8.150   3.617   2.810 -1.7905  3.0014 -0.6171
  976MOL0     H31752   8.121   3.425   2.654 -1.7477 -0.1824  2.2367
  976MOL0     H31753   8.187   3.530   2.520  0.0914  1.4325  1.3773
  976MOL0     H31754   7.936   3.587   2.683  1.0757  1.0858  0.9818
  976MOL0     H31755   8.000   3.682   2.546  0.2268 -1.6764 -1.9135
  976MOL0     H31756   7.819   3.339   2.351 -0.5907  1.9994 -1.0936
  976MOL0     H31757   8.604   3.512   2.685 -1.9653 -1.9609 -0.0114
  976MOL0     H31758   8.954   3.491   2.734  1.8340  1.1206 -2.6453
  976MOL0     H31759   8.812   3.447   2.639  1.8189 -0.0189 -2.2582
  976MOL0     H31760   8.869   3.616   2.644  2.7992 -1.8547 -0.7616
  977MOL0     O31761   1.315   2.939   2.757  0.4387  0.3947  0.3782
  977MOL0     C31762   1.286   2.943   2.640 -0.1991  0.2800  0.3602
  977MOL0     O31763   1.371   2.920   2.534 -0.1756 -0.3855 -0.0418
  977MOL0     C31764   1.498   2.906   2.569  0.1541 -0.1465  0.7013
  977MOL0     C31765   1.549   2.773   2.594 -0.7363 -0.0775 -0.0711
  977MOL0     C31766   1.686   2.766   2.627  0.2935 -0.1626 -0.0769
  977MOL0     C31767   1.769   2.875   2.631 -0.1817 -0.0571 -0.1705
  977MOL0     O31768   1.904   2.862   2.648  0.1805 -0.5547 -0.8016
  977MOL0     C31769   1.958   2.896   2.774 -0.9465  0.1960  0.7820
  977MOL0     C31770   2.085   2.803   2.794 -0.2332 -0.0072 -0.3976
  977MOL0     C31771   2.137   2.829   2.933 -0.3841  0.1226  0.2437
  977MOL0     C31772   2.287   2.784   2.949  0.5460 -0.4753  0.8660
  977MOL0     C31773   2.330   2.810   3.095 -0.5706 -0.2515 -0.7138
  977MOL0     C31774   2.482   2.791   3.118 -0.3289  0.5923  0.2628
  977MOL0     C31775   2.549   2.914   3.059  0.0177  0.9661 -0.4387
  977MOL0     C31776   2.698   2.898   3.088 -0.4415 -0.1334 -0.7292
  977MOL0     N31777   2.767   3.017   3.058  0.3803  0.2528 -0.3611
  977MOL0     C31778   2.804   3.067   2.939 -0.4495  0.3763  1.0519
  977MOL0     C31779   2.839   3.200   2.967  0.0607  1.1890  0.2956
  977MOL0     C31780   2.848   3.296   2.860 -0.8172  0.0978  0.7414
  977MOL0     C31781   2.982   3.290   2.779 -0.5555 -0.2912  0.5143
  977MOL0     C31782   3.106   3.313   2.860 -0.3174 -0.0992  0.6908
  977MOL0     C31783   3.232   3.341   2.779  0.4925 -0.4156 -0.2081
  977MOL0     O31784   3.293   3.224   2.733 -0.0165 -0.1297 -0.2230
  977MOL0     C31785   3.397   3.236   2.653 -0.3599  0.1059  0.3011
  977MOL0     C31786   3.445   3.357   2.600  0.3374 -0.3937 -0.7698
  977MOL0     C31787   3.549   3.355   2.508  0.2162 -0.6551  0.1773
  977MOL0     C31788   3.606   3.234   2.461  0.7608  0.6250 -0.2986
  977MOL0     C31789   3.714   3.238   2.358 -0.1246 -0.5469 -0.1849
  977MOL0     O31790   3.776   3.129   2.307  0.1562  0.7164 -1.1430
  977MOL0     C31791   3.902   3.126   2.247  0.3011 -0.1113  0.4541
  977MOL0     C31792   3.972   2.999   2.252  0.4303 -0.0112  0.0932
  977MOL0     C31793   4.086   2.972   2.177  0.0854  0.8095 -0.0596
  977MOL0     C31794   4.139   3.065   2.087  0.2806  0.1803  0.1092
  977MOL0     O31795   4.241   3.015   2.011 -0.3262 -0.1176 -0.2533
  977MOL0     C31796   4.321   3.108   1.931  0.4120  0.4158  0.0670
  977MOL0     C31797   4.398   3.024   1.833 -0.5533  0.7293 -0.2640
  977MOL0     C31798   4.443   3.104   1.711  1.2014 -0.6523 -0.2901
  977MOL0     C31799   4.547   3.212   1.741 -0.8025  0.3086  0.1315
  977MOL0     C31800   4.595   3.278   1.608 -0.3316 -0.9145  0.1755
  977MOL0     C31801   4.716   3.365   1.633 -0.3447 -0.1753  0.6099
  977MOL0     C31802   4.838   3.281   1.651 -1.1385  0.8055 -0.1490
  977MOL0     C31803   4.961   3.360   1.633 -0.2450 -0.0354 -0.1826
  977MOL0    Cl31804   5.114   3.261   1.674  0.1416  0.0619  0.5023
  977MOL0     C31805   4.080   3.194   2.083 -0.6667  0.3124  0.7748
  977MOL0     C31806   3.967   3.224   2.162 -0.4140  0.2594 -0.1216
  977MOL0     O31807   3.753   3.352   2.333 -0.0548 -0.1831  0.3428
  977MOL0     C31808   3.561   3.111   2.526 -0.4402  0.3460  0.4523
  977MOL0     C31809   3.466   3.113   2.625 -0.3141  0.1719  0.4598
  977MOL0     N31810   2.834   3.217   3.103  0.4717  0.3733  0.5426
  977MOL0     N31811   2.799   3.103   3.157  0.4418  1.1994  0.0286
  977MOL0     C31812   1.723   2.995   2.593 -0.1263 -0.4686  0.4896
  977MOL0     C31813   1.589   3.014   2.574  0.0529  0.7553 -0.0243
  977MOL0     C31814   1.139   2.962   2.607 -0.2928  0.0426 -0.4254
  977MOL0     C31815   1.031   2.880   2.654  0.1518  0.0680  0.1240
  977MOL0     C31816   0.901   2.909   2.617  1.2655 -0.5652  0.2380
  977MOL0     C31817   0.865   3.016   2.533 -0.8819  0.0339  0.0898
  977MOL0     O31818   0.736   3.042   2.488  0.4204  0.3915 -0.2827
  977MOL0     C31819   0.636   3.012   2.584  0.7356  0.7193 -0.0168
  977MOL0     C31820   0.505   3.058   2.537 -0.0428 -1.0185  0.5333
  977MOL0     C31821   0.377   3.002   2.607 -0.0064 -0.4268  0.4798
  977MOL0     C31822   0.254   3.043   2.526  0.0280  0.1624  0.0553
  977MOL0     C31823   0.130   3.048   2.596  0.4573  0.0653  0.7218
  977MOL0     C31824   0.023   3.050   2.659  0.0732  0.2323 -0.2897
  977MOL0     C31825   0.971   3.104   2.490  0.3396  0.1779 -0.1322
  977MOL0     C31826   1.103   3.085   2.537 -0.3462  0.9501  0.1346
  977MOL0     C31827   1.205   3.194   2.498  0.3420  0.1375 -0.3534
  977MOL0     H31828   1.484   2.690   2.570 -4.5736  2.1441  1.6206
  977MOL0     H31829   1.724   2.667   2.647  0.1121 -0.4693 -1.1812
  977MOL0     H31830   1.996   2.999   2.769  0.6533 -0.4289 -1.6860
  977MOL0     H31831   1.889   2.894   2.859  0.8345 -2.0225  2.2958
  977MOL0     H31832   2.160   2.829   2.719  0.0781 -3.4922 -1.4648
  977MOL0     H31833   2.064   2.698   2.775 -1.6106  0.1384  0.2223
  977MOL0     H31834   2.069   2.776   3.000  0.3619 -2.2329 -0.7301
  977MOL0     H31835   2.139   2.937   2.945 -1.3435  0.2434 -0.5934
  977MOL0     H31836   2.289   2.678   2.921  0.3784 -0.2205 -0.1753
  977MOL0     H31837   2.343   2.841   2.874 -1.8518 -2.3496 -2.6044
  977MOL0     H31838   2.303   2.912   3.124 -0.0858  0.4947 -2.6605
  977MOL0     H31839   2.273   2.751   3.167  1.1941  1.3067  2.1654
  977MOL0     H31840   2.514   2.777   3.222  1.6075 -0.7786 -0.4557
  977MOL0     H31841   2.516   2.700   3.068 -0.8224  0.4568  0.1642
  977MOL0     H31842   2.506   3.002   3.107  0.6073  1.3000 -0.5140
  977MOL0     H31843   2.525   2.926   2.953  0.0959  2.6597 -0.2938
  977MOL0     H31844   2.719   2.858   3.188 -1.3436 -0.6386 -0.7228
  977MOL0     H31845   2.740   2.826   3.018  1.9233  0.5982 -0.1594
  977MOL0     H31846   2.806   3.013   2.845 -1.6519 -2.7013  2.6324
  977MOL0     H31847   2.765   3.280   2.791 -0.2038 -1.9483  0.3949
  977MOL0     H31848   2.837   3.394   2.906  1.0343 -0.2255  1.9985
  977MOL0     H31849   2.983   3.197   2.721 -1.2219 -1.3944  2.2151
  977MOL0     H31850   2.984   3.363   2.698 -0.7347  0.6704  1.3612
  977MOL0     H31851   3.132   3.227   2.921  2.6840  0.9361  1.0667
  977MOL0     H31852   3.091   3.408   2.912 -0.3756  0.4457 -0.2917
  977MOL0     H31853   3.298   3.384   2.855 -0.7231  1.5368 -0.2070
  977MOL0     H31854   3.209   3.413   2.701  0.3414  1.6532  1.6378
  977MOL0     H31855   3.413   3.455   2.632  0.7137 -0.7492  0.7375
  977MOL0     H31856   3.594   3.448   2.472 -0.0297  0.1986  1.9648
  977MOL0     H31857   3.922   2.922   2.310  1.6039 -1.1548 -0.3882
  977MOL0     H31858   4.122   2.870   2.177 -3.1812 -0.5431 -3.0379
  977MOL0     H31859   4.252   3.173   1.876 -2.0238 -0.4956  1.8418
  977MOL0     H31860   4.380   3.166   2.003  0.3182 -3.3158  3.5864
  977MOL0     H31861   4.478   2.980   1.893  0.8672  3.7545  0.1956
  977MOL0     H31862   4.341   2.940   1.790  0.8995 -0.2798 -0.2804
  977MOL0     H31863   4.483   3.032   1.638 -1.8439  0.7459 -3.6799
  977MOL0     H31864   4.354   3.147   1.663  0.2906 -1.0804  0.9680
  977MOL0     H31865   4.624   3.149   1.786 -2.6202 -0.5984  2.1550
  977MOL0     H31866   4.515   3.285   1.816 -1.8159  0.2429 -0.2317
  977MOL0     H31867   4.515   3.343   1.570 -0.0138  0.0686  1.1380
  977MOL0     H31868   4.613   3.198   1.536  0.2451 -0.4790 -0.1768
  977MOL0     H31869   4.745   3.420   1.544 -0.4577 -2.1610 -0.7251
  977MOL0     H31870   4.697   3.435   1.715  0.0932  0.8551 -0.1602
  977MOL0     H31871   4.842   3.206   1.572  1.9646  1.0271 -0.3499
  977MOL0     H31872   4.845   3.244   1.754 -0.1012  2.5479  0.4486
  977MOL0     H31873   4.969   3.400   1.531 -1.1611 -3.4947 -1.7600
  977MOL0     H31874   4.952   3.437   1.709 -1.4167 -1.8131  1.5754
  977MOL0     H31875   4.104   3.268   2.007  0.6713 -1.8019 -0.9733
  977MOL0     H31876   3.918   3.319   2.143 -0.2884 -0.0422 -2.1770
  977MOL0     H31877   3.608   3.018   2.495  1.4368  1.9159 -1.7920
  977MOL0     H31878   3.426   3.038   2.692 -0.7242 -1.4949 -1.5460
  977MOL0     H31879   1.792   3.078   2.602 -2.4733  1.7256 -0.2930
  977MOL0     H31880   1.560   3.116   2.551  1.2245  1.0552 -0.2143
  977MOL0     H31881   1.038   2.795   2.722 -2.7434  0.8982  1.6349
  977MOL0     H31882   0.821   2.844   2.652  0.0414  0.2575 -0.9424
  977MOL0     H31883   0.659   3.061   2.678  0.1129  1.4494 -0.2422
  977MOL0     H31884   0.630   2.906   2.609 -0.1886  1.6710  4.7184
  977MOL0     H31885   0.502   3.039   2.429  2.5262  2.2860 -0.3062
  977MOL0     H31886   0.505   3.168   2.541 -1.7215 -0.9509 -0.3504
  977MOL0     H31887   0.370   3.042   2.708  0.2312  1.0736 -0.0784
  977MOL0     H31888   0.379   2.892   2.602  2.3442 -0.4598  1.1020
  977MOL0     H31889   0.272   3.137   2.474  1.9016  0.9808  2.0221
  977MOL0     H31890   0.239   2.963   2.453 -2.8276  1.3195 -0.7577
  977MOL0     H31891  -0.071   3.047   2.709  1.1033 -0.3684  1.7269
  977MOL0     H31892   0.932   3.189   2.434 -2.5242  0.6167  2.2723
  977MOL0     H31893   1.255   3.166   2.405  2.5432  2.1853  0.1316
  977MOL0     H31894   1.152   3.287   2.473  0.9832 -0.2972 -3.8948
  977MOL0     H31895   1.277   3.209   2.579 -0.3255  0.8578  0.1255
  978MOL0     O31896  10.672  10.545   9.549  0.0657 -0.7553 -0.1957
  978MOL0     C31897  10.764  10.467   9.533  0.0638  0.0430 -0.2852
  978MOL0     O31898  10.750  10.343   9.473 -0.5694 -0.0018 -0.1176
  978MOL0     C31899  10.626  10.318   9.407  1.0371  0.3826  0.2754
  978MOL0     C31900  10.605  10.354   9.274  0.4765 -0.0090 -0.6611
  978MOL0     C31901  10.488  10.326   9.210 -0.7137  0.4759 -0.9097
  978MOL0     C31902  10.376  10.272   9.274  0.1890  0.8179 -0.0138
  978MOL0     O31903  10.265  10.225   9.203  0.4783  0.4485  0.0626
  978MOL0     C31904  10.195  10.331   9.140  0.5866 -0.2381 -0.9493
  978MOL0     C31905  10.066  10.285   9.080  0.8996  0.1573  0.2893
  978MOL0     C31906   9.959  10.232   9.184 -0.8474 -0.2866 -0.1562
  978MOL0     C31907   9.872  10.358   9.231  0.1002  0.5494  0.4794
  978MOL0     C31908   9.735  10.320   9.284  0.5907  1.0436  0.0105
  978MOL0     C31909   9.663  10.447   9.296 -0.0401  0.7898 -0.2967
  978MOL0     C31910   9.539  10.424   9.384  0.2970 -0.2113 -0.3675
  978MOL0     C31911   9.456  10.551   9.395 -0.3206  0.1819  0.2123
  978MOL0     N31912   9.537  10.645   9.471 -0.1352  0.0441  0.6127
  978MOL0     C31913   9.586  10.770   9.424  0.6211  0.4514 -1.2163
  978MOL0     C31914   9.660  10.816   9.521  0.7429 -0.9799 -0.5184
  978MOL0     C31915   9.749  10.939   9.516  0.0866  1.1587  0.7454
  978MOL0     C31916   9.690  11.066   9.582  0.3995  0.0714 -0.1544
  978MOL0     C31917   9.801  11.164   9.608 -0.2804  0.4134 -0.0898
  978MOL0     C31918   9.770  11.294   9.681  0.2439  0.2005 -0.0885
  978MOL0     O31919   9.689  11.381   9.601  0.3340 -0.0008 -0.0612
  978MOL0     C31920   9.736  11.447   9.485  0.3623 -0.1770  0.5975
  978MOL0     C31921   9.648  11.503   9.394  0.4647 -0.2847  0.7492
  978MOL0     C31922   9.686  11.564   9.272  0.3966 -0.1094  0.3206
  978MOL0     C31923   9.822  11.570   9.234  0.2806  0.2884 -0.0997
  978MOL0     C31924   9.874  11.626   9.107  0.7620  0.4915  0.3299
  978MOL0     O31925  10.002  11.684   9.114 -0.5923 -0.5374 -0.0702
  978MOL0     C31926  10.050  11.733   8.996 -0.8901 -0.2338 -1.1492
  978MOL0     C31927   9.989  11.815   8.902 -0.0044  0.4838  0.2996
  978MOL0     C31928  10.069  11.884   8.813  0.3465  0.1525  0.0822
  978MOL0     C31929  10.208  11.867   8.802  0.0196  0.7610 -0.4181
  978MOL0     O31930  10.280  11.936   8.711  0.8400  0.4933  0.4419
  978MOL0     C31931  10.399  11.885   8.662  0.3174  1.1046  0.2380
  978MOL0     C31932  10.467  11.990   8.575  1.1390  0.5691 -0.2193
  978MOL0     C31933  10.568  11.931   8.481  0.4291  0.4403  0.8216
  978MOL0     C31934  10.628  12.043   8.410 -0.4303  0.0192  0.1558
  978MOL0     C31935  10.747  11.993   8.338  0.1509 -0.3209 -0.7535
  978MOL0     C31936  10.817  12.092   8.258  0.0857  0.1730  0.4350
  978MOL0     C31937  10.935  12.032   8.183  0.0940 -0.0345  0.5443
  978MOL0     C31938  10.980  12.114   8.065 -0.5563  0.4339 -0.1316
  978MOL0    Cl31939  11.015  12.289   8.101  0.2160  0.0995  0.6250
  978MOL0     C31940  10.265  11.776   8.886  0.4800  1.1212 -0.5456
  978MOL0     C31941  10.191  11.715   8.985  0.0147 -0.4485 -0.4422
  978MOL0     O31942   9.800  11.616   9.008  0.8230 -0.3782 -0.3519
  978MOL0     C31943   9.916  11.526   9.333  0.0525  0.3019 -0.9336
  978MOL0     C31944   9.875  11.464   9.452  0.4691 -0.3682 -0.2974
  978MOL0     N31945   9.653  10.731   9.632  0.2212 -0.3113 -0.0385
  978MOL0     N31946   9.577  10.635   9.594  0.0860  0.4894 -0.0021
  978MOL0     C31947  10.388  10.247   9.413 -0.1790  0.5199  0.0280
  978MOL0     C31948  10.514  10.272   9.476 -0.1620  0.6090 -0.2846
  978MOL0     C31949  10.899  10.507   9.565 -0.2626 -0.2856 -0.0858
  978MOL0     C31950  11.010  10.438   9.502  0.4135 -0.1730 -0.1296
  978MOL0     C31951  11.143  10.487   9.500  0.7565 -0.2481  0.2187
  978MOL0     C31952  11.169  10.602   9.567 -0.0823  0.0378  0.6854
  978MOL0     O31953  11.290  10.666   9.573 -0.6043  0.5836  0.1061
  978MOL0     C31954  11.408  10.606   9.525 -0.5548 -0.7115  0.1175
  978MOL0     C31955  11.505  10.706   9.468 -0.6047 -0.2642  0.9008
  978MOL0     C31956  11.438  10.771   9.349 -0.0423 -0.6458  0.3418
  978MOL0     C31957  11.500  10.891   9.288  0.0951  0.7300 -0.1309
  978MOL0     C31958  11.504  11.008   9.375  0.0539  0.3899 -0.1482
  978MOL0     C31959  11.508  11.112   9.438  0.9291 -1.3915 -0.6539
  978MOL0     C31960  11.069  10.670   9.647  0.2277 -0.8988 -0.0951
  978MOL0     C31961  10.934  10.619   9.653 -0.7102  0.3665  0.1333
  978MOL0     C31962  10.838  10.686   9.745  0.3275 -0.5642 -0.4118
  978MOL0     H31963  10.681  10.403   9.215  0.6329 -2.1892 -2.4357
  978MOL0     H31964  10.486  10.346   9.103 -1.8652 -0.6446 -1.1320
  978MOL0     H31965  10.169  10.402   9.219  1.8033 -1.8762  1.0437
  978MOL0     H31966  10.261  10.377   9.066  0.2767 -2.8546 -3.0053
  978MOL0     H31967  10.089  10.219   8.996 -1.1783 -2.2278  1.4755
  978MOL0     H31968  10.025  10.374   9.031 -1.4030 -2.1135 -2.2560
  978MOL0     H31969  10.008  10.182   9.268 -3.0309  0.0828  1.4211
  978MOL0     H31970   9.894  10.163   9.130  0.0250 -0.8479 -0.5171
  978MOL0     H31971   9.923  10.410   9.312 -0.2938  0.8958  0.5055
  978MOL0     H31972   9.857  10.435   9.155 -1.5753  0.7945  1.0142
  978MOL0     H31973   9.682  10.253   9.215  2.7193  1.0992 -1.8012
  978MOL0     H31974   9.738  10.263   9.377 -2.9063 -0.3206 -0.5626
  978MOL0     H31975   9.727  10.518   9.349 -2.0290  1.7347  1.0068
  978MOL0     H31976   9.644  10.492   9.199 -2.0750  3.2565  1.1055
  978MOL0     H31977   9.562  10.399   9.488  2.1491  1.8162 -0.2004
  978MOL0     H31978   9.478  10.348   9.334 -0.6777 -0.3319  0.9753
  978MOL0     H31979   9.433  10.587   9.294  1.3977  0.3027 -0.1635
  978MOL0     H31980   9.362  10.539   9.449 -0.2840 -3.0151 -0.2359
  978MOL0     H31981   9.571  10.818   9.328 -0.5893 -0.1058 -1.3192
  978MOL0     H31982   9.831  10.902   9.578 -1.4785 -0.4265  1.9342
  978MOL0     H31983   9.782  10.954   9.412  0.9513  0.9230  0.9776
  978MOL0     H31984   9.616  11.102   9.510  1.4608  2.9490  0.0767
  978MOL0     H31985   9.639  11.034   9.673  0.1779 -0.6033 -0.5095
  978MOL0     H31986   9.858  11.193   9.519  3.4351 -1.2792  1.5102
  978MOL0     H31987   9.886  11.116   9.658 -0.3821 -0.8666 -1.0832
  978MOL0     H31988   9.859  11.353   9.708  0.6953 -0.6589  0.3501
  978MOL0     H31989   9.725  11.290   9.780  2.6598  3.6343  1.3621
  978MOL0     H31990   9.542  11.481   9.396  0.5059 -0.7413 -1.0286
  978MOL0     H31991   9.619  11.610   9.199  0.9280 -0.4825 -0.4127
  978MOL0     H31992   9.884  11.843   8.895  0.2226  1.0762 -1.1994
  978MOL0     H31993  10.035  11.956   8.740  0.0181 -0.5568 -0.4693
  978MOL0     H31994  10.463  11.870   8.749  0.1669 -0.2068  0.1483
  978MOL0     H31995  10.367  11.795   8.608 -1.2034  0.8339  1.5248
  978MOL0     H31996  10.393  12.051   8.522  0.1712  0.3224  0.8159
  978MOL0     H31997  10.512  12.065   8.641 -0.3965  0.3926  1.0844
  978MOL0     H31998  10.645  11.887   8.544 -1.2430 -2.5320  0.9689
  978MOL0     H31999  10.539  11.853   8.409 -1.0275  0.3972  1.4155
  978MOL0     H32000  10.659  12.127   8.472  1.2302  0.2207 -0.8823
  978MOL0     H32001  10.558  12.082   8.335 -2.7241 -3.9037 -0.0338
  978MOL0     H32002  10.723  11.906   8.277  0.0289  1.5541 -3.5672
  978MOL0     H32003  10.825  11.963   8.409  2.4384  1.7721 -2.2125
  978MOL0     H32004  10.745  12.138   8.190 -0.2940  4.0160  3.1168
  978MOL0     H32005  10.854  12.158   8.337  1.1028 -2.6049  2.4153
  978MOL0     H32006  10.892  11.937   8.150 -1.9088  0.0729  2.5462
  978MOL0     H32007  11.022  12.016   8.248  0.5209  1.4529  0.3695
  978MOL0     H32008  11.063  12.071   8.008 -0.0162  3.3605 -1.7658
  978MOL0     H32009  10.896  12.105   7.996 -1.3058  3.2495  0.2860
  978MOL0     H32010  10.373  11.764   8.895  0.5230  1.7778 -0.0956
  978MOL0     H32011  10.248  11.655   9.054 -0.3955 -0.7212 -0.3346
  978MOL0     H32012  10.022  11.534   9.309  1.3706  0.7082  4.0010
  978MOL0     H32013   9.960  11.430   9.511  0.4888  0.4737  0.1749
  978MOL0     H32014  10.307  10.205   9.471 -0.6493  1.0284 -0.2500
  978MOL0     H32015  10.527  10.265   9.584 -2.0008 -0.0794 -0.0526
  978MOL0     H32016  10.993  10.342   9.454  0.3205 -0.0890 -0.2659
  978MOL0     H32017  11.220  10.432   9.448 -1.1906 -1.6423 -1.3840
  978MOL0     H32018  11.392  10.535   9.443 -0.5304 -0.0649 -0.4643
  978MOL0     H32019  11.453  10.547   9.605 -0.4375  1.0004  1.3722
  978MOL0     H32020  11.598  10.661   9.432 -0.6846  3.0813 -4.7395
  978MOL0     H32021  11.523  10.791   9.535 -0.0918  1.0267 -0.7809
  978MOL0     H32022  11.342  10.810   9.383 -0.1411  0.2370 -0.9133
  978MOL0     H32023  11.421  10.696   9.271  1.0423 -0.4497 -0.0965
  978MOL0     H32024  11.602  10.864   9.260 -0.2222  1.9500 -2.7734
  978MOL0     H32025  11.440  10.916   9.200 -1.6707 -2.5896 -0.0533
  978MOL0     H32026  11.520  11.212   9.475 -0.6634 -0.6442 -1.9772
  978MOL0     H32027  11.090  10.755   9.710 -0.5630 -1.5310  1.0626
  978MOL0     H32028  10.759  10.734   9.686 -0.5512 -3.6364 -1.9831
  978MOL0     H32029  10.776  10.608   9.789 -0.1828 -1.0129 -1.8630
  978MOL0     H32030  10.878  10.758   9.817 -2.6669  2.1642 -1.2221
  979MOL0     O32031   9.791   6.823   5.866  0.4522  0.5663  0.1001
  979MOL0     C32032   9.848   6.722   5.830 -1.2330 -0.3927  0.4292
  979MOL0     O32033   9.990   6.711   5.840  0.4166  0.1548  0.4366
  979MOL0     C32034  10.074   6.820   5.829  0.4367  0.3138 -0.1465
  979MOL0     C32035  10.036   6.936   5.763  0.0732  0.3320 -0.2647
  979MOL0     C32036  10.134   7.029   5.730 -0.2451 -0.2836  0.2609
  979MOL0     C32037  10.270   7.014   5.767  0.2056  0.7346 -0.9893
  979MOL0     O32038  10.373   7.101   5.730  0.5042 -0.0265  0.1448
  979MOL0     C32039  10.369   7.159   5.598 -0.1122  0.0600  0.3908
  979MOL0     C32040  10.382   7.045   5.493  0.1952 -0.5043  0.4993
  979MOL0     C32041  10.529   7.021   5.438 -0.0902 -0.7317 -1.1674
  979MOL0     C32042  10.597   7.132   5.351 -0.4234 -0.3333  0.0051
  979MOL0     C32043  10.734   7.085   5.298 -0.2242 -0.5653 -0.1863
  979MOL0     C32044  10.811   7.198   5.220 -0.3047 -0.0071 -0.2069
  979MOL0     C32045  10.925   7.150   5.127  0.7080  0.0750 -0.4723
  979MOL0     C32046  10.979   7.265   5.036  0.2094  0.7485  0.8794
  979MOL0     N32047  11.041   7.376   5.108  0.7312 -0.2626  1.1897
  979MOL0     C32048  11.170   7.387   5.129 -0.7448  0.4590  0.1684
  979MOL0     C32049  11.187   7.498   5.197 -0.8484 -0.1885  0.0231
  979MOL0     C32050  11.315   7.550   5.255 -0.6327 -0.3333 -0.5580
  979MOL0     C32051  11.412   7.624   5.161  0.8018 -0.0878 -0.0126
  979MOL0     C32052  11.507   7.715   5.234  0.3505 -0.6397 -0.6153
  979MOL0     C32053  11.613   7.772   5.141 -0.9324 -0.6015 -0.2140
  979MOL0     O32054  11.699   7.852   5.237 -0.3143  0.4220 -0.2166
  979MOL0     C32055  11.820   7.897   5.197 -0.6632 -0.7228  0.2014
  979MOL0     C32056  11.903   7.848   5.095 -0.3416 -0.1953 -0.4803
  979MOL0     C32057  12.036   7.883   5.073 -0.7290  0.0907 -0.6381
  979MOL0     C32058  12.094   7.984   5.159  0.7851  0.3637  0.7913
  979MOL0     C32059  12.237   8.012   5.144 -0.6865  0.9285 -0.2856
  979MOL0     O32060  12.324   7.909   5.109 -0.4254 -0.5516 -0.9295
  979MOL0     C32061  12.450   7.949   5.077 -0.4316  0.2287 -0.2693
  979MOL0     C32062  12.479   8.016   4.965 -0.5272  1.0951 -0.1140
  979MOL0     C32063  12.613   8.048   4.942 -0.4205  1.1611 -0.0142
  979MOL0     C32064  12.716   8.017   5.030 -0.2639 -0.4491 -0.4389
  979MOL0     O32065  12.841   8.062   5.021 -0.3010 -0.6112  0.0390
  979MOL0     C32066  12.858   8.200   4.989 -0.8038 -0.5013  1.1377
  979MOL0     C32067  12.986   8.243   5.065  0.6517 -0.0613  0.0286
  979MOL0     C32068  12.970   8.235   5.218  0.4607 -1.1200 -0.5836
  979MOL0     C32069  13.100   8.216   5.294  0.8721 -0.3622 -0.1232
  979MOL0     C32070  13.081   8.250   5.446  0.4162  0.8257 -0.0027
  979MOL0     C32071  13.218   8.269   5.512  0.6284  1.0075 -0.6603
  979MOL0     C32072  13.317   8.146   5.527 -0.2498  0.2358 -0.6060
  979MOL0     C32073  13.431   8.184   5.613 -0.2368 -0.6470  0.0373
  979MOL0    Cl32074  13.540   8.039   5.622  0.2704  0.2216 -0.1417
  979MOL0     C32075  12.683   7.956   5.152  0.4407 -0.6154 -0.3045
  979MOL0     C32076  12.552   7.925   5.175 -0.9361 -0.1634 -1.1115
  979MOL0     O32077  12.276   8.124   5.177  0.1157  0.1844  0.7273
  979MOL0     C32078  12.008   8.045   5.256 -0.5687  0.3366  0.6036
  979MOL0     C32079  11.880   8.006   5.266  0.4534  0.2325 -0.0262
  979MOL0     N32080  11.066   7.556   5.222  1.0217  0.2009  0.3552
  979MOL0     N32081  10.973   7.482   5.164  0.1208 -0.6078 -0.2579
  979MOL0     C32082  10.309   6.897   5.825 -0.0190  0.1153  0.2089
  979MOL0     C32083  10.211   6.797   5.857 -0.7169 -0.0410  0.3224
  979MOL0     C32084   9.762   6.615   5.780  0.0036  0.4767  0.2627
  979MOL0     C32085   9.628   6.608   5.826  0.0578 -0.2330 -0.7323
  979MOL0     C32086   9.541   6.505   5.779 -0.2480  0.0096 -0.1566
  979MOL0     C32087   9.582   6.425   5.676 -0.3861  0.7138  0.9638
  979MOL0     O32088   9.502   6.330   5.611 -0.5433 -0.8112 -0.4776
  979MOL0     C32089   9.372   6.311   5.664  0.0074  0.2342  0.1036
  979MOL0     C32090   9.305   6.200   5.578  0.8289 -0.1163 -0.3755
  979MOL0     C32091   9.400   6.075   5.562  1.3825  0.1326  0.6861
  979MOL0     C32092   9.486   6.078   5.437  0.3177  0.1774  0.7937
  979MOL0     C32093   9.406   6.104   5.314 -1.2373 -0.8901 -0.0419
  979MOL0     C32094   9.348   6.104   5.209  0.6925  0.5641 -0.2690
  979MOL0     C32095   9.708   6.429   5.623 -0.4961 -0.3403 -0.6541
  979MOL0     C32096   9.804   6.520   5.675 -0.1952 -0.1313  0.4215
  979MOL0     C32097   9.943   6.528   5.612 -0.5895 -0.1385 -0.4103
  979MOL0     H32098   9.934   6.945   5.727  0.3929 -2.1025 -2.1086
  979MOL0     H32099  10.112   7.124   5.683 -0.8901  0.4468  1.9277
  979MOL0     H32100  10.286   7.225   5.571 -1.5739 -1.8239  0.0482
  979MOL0     H32101  10.460   7.220   5.605  0.1626 -0.3852  0.8283
  979MOL0     H32102  10.327   7.086   5.408 -1.1552 -0.6939  1.2525
  979MOL0     H32103  10.333   6.953   5.527 -1.0134 -0.4346 -0.9682
  979MOL0     H32104  10.528   6.929   5.379  2.4122 -0.9657 -0.9517
  979MOL0     H32105  10.580   7.004   5.534  0.8866  1.9491 -1.1351
  979MOL0     H32106  10.538   7.163   5.265  0.3587  0.9947 -0.0835
  979MOL0     H32107  10.606   7.217   5.421 -1.7627  0.7877 -1.1142
  979MOL0     H32108  10.795   7.043   5.378 -3.3967  0.0632  2.8247
  979MOL0     H32109  10.712   6.999   5.234  1.7036 -1.4188  0.2395
  979MOL0     H32110  10.733   7.252   5.165  0.6811  2.0113  0.2679
  979MOL0     H32111  10.849   7.272   5.292 -0.9580  1.4242 -1.2862
  979MOL0     H32112  10.883   7.084   5.051  0.0804  0.2088 -0.2427
  979MOL0     H32113  11.007   7.109   5.188  0.6415 -0.6237 -0.8468
  979MOL0     H32114  11.049   7.226   4.961  0.0266  3.9167 -1.1204
  979MOL0     H32115  10.897   7.301   4.973  1.5096  0.4757 -1.0571
  979MOL0     H32116  11.252   7.327   5.092  0.1615  1.1847  0.9438
  979MOL0     H32117  11.285   7.630   5.323  1.9233 -0.2821  0.6244
  979MOL0     H32118  11.368   7.469   5.307  0.6527 -1.0824 -2.8610
  979MOL0     H32119  11.469   7.547   5.108 -3.1594 -3.1612 -0.2375
  979MOL0     H32120  11.363   7.674   5.077 -0.0575 -0.1474  0.4484
  979MOL0     H32121  11.557   7.646   5.302  1.3477  0.0666 -0.6178
  979MOL0     H32122  11.443   7.785   5.288  1.9502 -0.0014  0.5348
  979MOL0     H32123  11.562   7.822   5.059 -1.6234 -0.3158  0.3773
  979MOL0     H32124  11.670   7.689   5.098 -0.1557 -1.4751  2.2837
  979MOL0     H32125  11.849   7.769   5.043 -1.0728 -0.2509  0.3363
  979MOL0     H32126  12.103   7.836   5.003 -0.3614  3.1636 -2.5443
  979MOL0     H32127  12.392   8.049   4.910 -1.2103 -2.6971 -1.5922
  979MOL0     H32128  12.631   8.111   4.856  0.4415  1.4217  0.3465
  979MOL0     H32129  12.872   8.220   4.883 -1.3513 -0.6074  1.0428
  979MOL0     H32130  12.776   8.265   5.019 -0.7208 -0.6669  1.7395
  979MOL0     H32131  13.068   8.176   5.038  1.1031 -0.0023  1.1789
  979MOL0     H32132  13.009   8.346   5.037 -0.6155  0.8852  2.2024
  979MOL0     H32133  12.929   8.334   5.240  2.2803 -0.4880  0.1393
  979MOL0     H32134  12.901   8.154   5.245  1.3955 -1.5384  0.6001
  979MOL0     H32135  13.169   8.291   5.256 -0.1573 -0.1500 -1.6189
  979MOL0     H32136  13.147   8.118   5.281  0.9134 -0.6418  1.7645
  979MOL0     H32137  13.032   8.168   5.500  1.7543 -1.5705 -2.2171
  979MOL0     H32138  13.017   8.338   5.457  0.2374  0.8918 -1.4682
  979MOL0     H32139  13.265   8.356   5.463  1.3364 -0.0009 -1.8234
  979MOL0     H32140  13.191   8.299   5.614  3.2096  1.6767 -0.0997
  979MOL0     H32141  13.356   8.111   5.431  0.2726 -2.1395  0.4153
  979MOL0     H32142  13.257   8.068   5.574  1.1712 -0.8085 -0.4641
  979MOL0     H32143  13.494   8.264   5.576  2.5145 -2.5250  0.3560
  979MOL0     H32144  13.400   8.214   5.714  2.0402 -2.3153  1.3423
  979MOL0     H32145  12.757   7.934   5.229 -1.0749 -0.5467  1.2242
  979MOL0     H32146  12.533   7.880   5.271  2.5957  2.9189  1.3257
  979MOL0     H32147  12.058   8.112   5.326  1.7215 -1.2257  0.5863
  979MOL0     H32148  11.810   8.049   5.338 -1.3953  0.1812 -1.7286
  979MOL0     H32149  10.416   6.885   5.839 -0.2101 -1.3050  0.7112
  979MOL0     H32150  10.239   6.702   5.900 -2.2497 -0.4135  0.5377
  979MOL0     H32151   9.596   6.678   5.902  1.4495 -0.1007 -0.2426
  979MOL0     H32152   9.440   6.505   5.818  0.2459 -2.0232  1.2886
  979MOL0     H32153   9.306   6.398   5.658  0.7678  0.8350  0.2704
  979MOL0     H32154   9.379   6.269   5.765  2.4791 -2.6889 -1.1314
  979MOL0     H32155   9.281   6.251   5.484 -1.2386  2.2274  1.2969
  979MOL0     H32156   9.215   6.171   5.632  2.2556 -0.1052  2.1716
  979MOL0     H32157   9.334   5.989   5.549  0.3290  0.9940  0.2176
  979MOL0     H32158   9.458   6.052   5.652  0.9967 -1.5909  0.5328
  979MOL0     H32159   9.547   6.168   5.443 -1.8865  1.6503  3.8469
  979MOL0     H32160   9.543   5.988   5.412  1.1557  0.8484  0.2579
  979MOL0     H32161   9.302   6.072   5.118 -1.6174 -0.6322  1.2014
  979MOL0     H32162   9.737   6.367   5.538  1.3415  0.9552 -1.0432
  979MOL0     H32163   9.969   6.450   5.540  2.4074 -1.4938  1.9360
  979MOL0     H32164   9.975   6.628   5.583  1.3282  0.9589  4.5404
  979MOL0     H32165  10.008   6.489   5.691 -0.2487 -2.2895 -1.6782
  980MOL0     O32166   6.585   7.335   9.202  0.5290 -0.6755  0.2837
  980MOL0     C32167   6.519   7.436   9.201  0.0869 -1.5708  0.0960
  980MOL0     O32168   6.565   7.560   9.251 -0.0094  0.2459 -0.4552
  980MOL0     C32169   6.697   7.557   9.302 -0.4457 -0.0907 -0.2149
  980MOL0     C32170   6.810   7.500   9.245 -0.0812  0.1117  0.5810
  980MOL0     C32171   6.939   7.511   9.300 -0.0163  0.1959 -0.0244
  980MOL0     C32172   6.969   7.573   9.420  0.3114 -0.5102 -0.8092
  980MOL0     O32173   7.090   7.590   9.482  0.3367  0.4527 -1.0455
  980MOL0     C32174   7.201   7.519   9.424  0.1367 -0.9901  0.9683
  980MOL0     C32175   7.272   7.602   9.311  0.2203 -0.4602 -0.0446
  980MOL0     C32176   7.289   7.745   9.358 -0.2720  0.0151  0.3566
  980MOL0     C32177   7.322   7.832   9.236  0.1016 -1.0877 -0.0929
  980MOL0     C32178   7.376   7.974   9.266 -0.1176 -0.3172 -0.5561
  980MOL0     C32179   7.504   7.972   9.364 -0.4740  0.0733  0.6210
  980MOL0     C32180   7.593   8.102   9.347  0.0369  0.8876 -0.1647
  980MOL0     C32181   7.549   8.238   9.417  0.5723  0.3846  0.5051
  980MOL0     N32182   7.425   8.287   9.350 -0.6633 -0.3973 -0.2736
  980MOL0     C32183   7.304   8.299   9.411  0.8087 -0.0102 -0.2577
  980MOL0     C32184   7.223   8.351   9.316 -0.6008 -0.1859  0.9349
  980MOL0     C32185   7.074   8.374   9.327 -0.1791  0.4732  0.2616
  980MOL0     C32186   7.004   8.461   9.217  0.3370  0.0014 -0.4948
  980MOL0     C32187   7.017   8.611   9.253 -0.1445  0.3597 -0.5325
  980MOL0     C32188   7.156   8.678   9.239 -0.1399 -0.2904 -0.0438
  980MOL0     O32189   7.138   8.817   9.284  1.0907  0.3865 -0.1208
  980MOL0     C32190   7.241   8.905   9.277 -0.0053  0.3679 -0.2525
  980MOL0     C32191   7.372   8.875   9.245 -0.5438 -0.3123  0.7287
  980MOL0     C32192   7.472   8.973   9.268  0.0959 -0.4702 -1.2314
  980MOL0     C32193   7.446   9.107   9.307  0.1369  0.2766  0.3610
  980MOL0     C32194   7.548   9.209   9.308  0.2631  0.0781 -0.4255
  980MOL0     O32195   7.667   9.186   9.246 -0.4928  0.3159  0.0424
  980MOL0     C32196   7.771   9.272   9.225  0.1755 -0.1894 -0.0721
  980MOL0     C32197   7.863   9.284   9.317  0.2473 -0.4630 -0.0877
  980MOL0     C32198   7.963   9.381   9.302 -0.4895 -0.1289 -1.1322
  980MOL0     C32199   7.985   9.445   9.176  0.7823 -0.9396  0.1981
  980MOL0     O32200   8.091   9.520   9.133  0.0799  0.3170  0.3200
  980MOL0     C32201   8.125   9.635   9.219  0.3163  0.3227  0.0140
  980MOL0     C32202   8.256   9.708   9.183  0.3074 -0.4454  0.5026
  980MOL0     C32203   8.245   9.787   9.042  0.7299 -0.0614  0.1315
  980MOL0     C32204   8.203   9.929   9.050  0.1395 -0.2794  0.3429
  980MOL0     C32205   8.179  10.001   8.910  0.2789 -0.2750  0.2689
  980MOL0     C32206   8.301  10.099   8.879 -0.7919  0.7493 -0.2261
  980MOL0     C32207   8.259  10.243   8.890 -0.2266 -0.5587 -0.6872
  980MOL0     C32208   8.369  10.325   8.923  0.1057  0.2370 -0.2166
  980MOL0    Cl32209   8.502  10.334   8.791 -0.6900  0.0834  0.0755
  980MOL0     C32210   7.890   9.412   9.075  0.8079  0.6544 -0.1422
  980MOL0     C32211   7.784   9.327   9.099 -0.5792  0.1716  0.4169
  980MOL0     O32212   7.516   9.314   9.361  0.1311 -0.1194  0.9021
  980MOL0     C32213   7.315   9.127   9.337 -0.3486  0.2380 -0.2130
  980MOL0     C32214   7.211   9.034   9.318 -0.4821  0.7131 -0.0202
  980MOL0     N32215   7.300   8.378   9.209  0.1524  0.1929  0.8004
  980MOL0     N32216   7.418   8.342   9.227 -0.2416  0.1782 -0.0952
  980MOL0     C32217   6.857   7.637   9.476 -0.1967  0.6609  0.2771
  980MOL0     C32218   6.733   7.632   9.420 -0.6613 -0.1191  0.2357
  980MOL0     C32219   6.383   7.432   9.134  0.2787  0.8069 -0.0215
  980MOL0     C32220   6.344   7.550   9.065  0.0377 -0.2910 -0.5772
  980MOL0     C32221   6.214   7.560   9.001  0.1899 -0.1284  0.2673
  980MOL0     C32222   6.131   7.448   8.991  0.2567  0.2025  0.0213
  980MOL0     O32223   6.009   7.475   8.924  0.1895  0.2179 -0.0242
  980MOL0     C32224   5.926   7.363   8.880  0.6053 -0.3419 -0.6996
  980MOL0     C32225   5.784   7.431   8.843  0.9021 -0.6168  0.0036
  980MOL0     C32226   5.665   7.332   8.829  0.5697  0.6847 -0.6777
  980MOL0     C32227   5.675   7.242   8.704 -0.3066 -0.0035  0.0408
  980MOL0     C32228   5.763   7.126   8.728  0.2582 -0.0045  1.3737
  980MOL0     C32229   5.842   7.035   8.750 -0.1469 -0.1765 -0.3269
  980MOL0     C32230   6.173   7.330   9.052 -0.0251  0.2144 -0.5496
  980MOL0     C32231   6.298   7.320   9.122  0.1780 -0.6439 -0.3374
  980MOL0     C32232   6.339   7.181   9.174  0.7670 -0.1225 -0.6293
  980MOL0     H32233   6.792   7.442   9.155 -1.0329 -0.1045  0.9017
  980MOL0     H32234   7.019   7.467   9.241 -0.0789 -0.9734  0.7286
  980MOL0     H32235   7.278   7.509   9.501  1.3910 -1.4009 -0.3113
  980MOL0     H32236   7.170   7.420   9.391 -0.5991 -0.4173 -0.1452
  980MOL0     H32237   7.220   7.604   9.215  0.4574 -1.3541 -0.1984
  980MOL0     H32238   7.368   7.554   9.293  0.7059  0.0882  1.0303
  980MOL0     H32239   7.375   7.743   9.426  0.8387 -1.3786 -1.0218
  980MOL0     H32240   7.207   7.785   9.418 -1.6282 -2.1001  0.0056
  980MOL0     H32241   7.400   7.787   9.172 -0.2687 -0.9755 -0.6288
  980MOL0     H32242   7.237   7.836   9.168  0.1618 -2.8078 -0.3254
  980MOL0     H32243   7.408   8.017   9.170 -1.0277 -2.4343 -1.8674
  980MOL0     H32244   7.294   8.027   9.314  0.0143  1.1186 -1.8143
  980MOL0     H32245   7.467   7.963   9.467 -1.8375  0.2796  0.1647
  980MOL0     H32246   7.555   7.877   9.347 -1.1800  0.1292 -2.3990
  980MOL0     H32247   7.591   8.116   9.239  1.5933 -0.2786 -0.3766
  980MOL0     H32248   7.697   8.086   9.377  1.3048  2.4812 -3.2663
  980MOL0     H32249   7.531   8.214   9.522  0.4125  1.9143  0.8619
  980MOL0     H32250   7.629   8.309   9.440  1.4925 -0.7274  0.7684
  980MOL0     H32251   7.278   8.280   9.515 -0.1205  2.8848  0.1351
  980MOL0     H32252   7.024   8.277   9.323 -0.9267  0.8783 -0.5056
  980MOL0     H32253   7.045   8.412   9.425  0.2134  1.9909 -0.1840
  980MOL0     H32254   7.041   8.445   9.116 -0.0724  0.6767 -0.7619
  980MOL0     H32255   6.899   8.428   9.216  0.2603  0.2182 -1.6555
  980MOL0     H32256   6.978   8.628   9.354 -2.5852 -3.8993 -0.5198
  980MOL0     H32257   6.937   8.665   9.204 -3.5923 -0.4524  3.5847
  980MOL0     H32258   7.192   8.674   9.136  0.0106  3.2155 -0.2689
  980MOL0     H32259   7.227   8.624   9.302 -0.2514 -0.3744  0.0104
  980MOL0     H32260   7.401   8.776   9.212 -3.5898 -1.5313  1.3672
  980MOL0     H32261   7.576   8.946   9.249  0.0192 -2.5348  0.8735
  980MOL0     H32262   7.844   9.238   9.413  2.1632  1.2150  1.1665
  980MOL0     H32263   8.035   9.399   9.381  0.9319  2.2043 -2.8530
  980MOL0     H32264   8.040   9.703   9.206 -1.5676 -1.9066 -0.0256
  980MOL0     H32265   8.122   9.607   9.325 -1.7092  0.2656 -0.0160
  980MOL0     H32266   8.277   9.780   9.263 -2.1120  1.8227 -0.7301
  980MOL0     H32267   8.341   9.640   9.170  0.7508 -0.1282  1.6608
  980MOL0     H32268   8.341   9.772   8.991  0.5507 -0.4594 -0.0918
  980MOL0     H32269   8.169   9.744   8.977  0.3899  1.2681 -0.3933
  980MOL0     H32270   8.282   9.986   9.100 -0.2862  0.8244 -0.1939
  980MOL0     H32271   8.116   9.940   9.116 -1.5075 -1.6297 -1.4611
  980MOL0     H32272   8.083  10.054   8.908  0.5312  0.1726 -0.4434
  980MOL0     H32273   8.171   9.928   8.829 -0.2136  3.1307 -3.0094
  980MOL0     H32274   8.385  10.078   8.945 -1.6027  0.2523  0.6753
  980MOL0     H32275   8.332  10.089   8.775  2.0868  1.2240  0.5060
  980MOL0     H32276   8.175  10.259   8.957 -0.3066 -0.6300 -0.7706
  980MOL0     H32277   8.225  10.279   8.792 -0.6706  0.5247 -0.1489
  980MOL0     H32278   8.332  10.426   8.941 -0.1756  0.6120 -2.5907
  980MOL0     H32279   8.417  10.287   9.013  0.2387 -5.1241 -2.1980
  980MOL0     H32280   7.885   9.441   8.971 -1.4508  0.6318 -0.0828
  980MOL0     H32281   7.719   9.293   9.020  2.9934 -0.7008 -2.4178
  980MOL0     H32282   7.283   9.225   9.371  1.2629  1.0785 -1.0062
  980MOL0     H32283   7.105   9.052   9.337 -0.4449  0.7723  0.1246
  980MOL0     H32284   6.851   7.686   9.573 -0.8989  2.6722 -0.7259
  980MOL0     H32285   6.653   7.681   9.474 -0.1943  0.6183  0.2743
  980MOL0     H32286   6.412   7.634   9.069  3.0137 -2.4102 -2.7125
  980MOL0     H32287   6.180   7.650   8.952 -1.7500 -1.7071 -1.4603
  980MOL0     H32288   5.915   7.282   8.953 -2.5066  0.4557 -0.1241
  980MOL0     H32289   5.980   7.329   8.792  1.9246  0.6296 -0.3008
  980MOL0     H32290   5.794   7.491   8.752 -0.2593 -0.5042 -0.0639
  980MOL0     H32291   5.748   7.494   8.925  0.5410  0.7858 -1.1799
  980MOL0     H32292   5.578   7.394   8.806 -0.2804 -0.0262  0.5227
  980MOL0     H32293   5.643   7.273   8.918  0.8521 -1.7751 -2.1663
  980MOL0     H32294   5.578   7.197   8.679 -1.3993  1.1677  1.9412
  980MOL0     H32295   5.715   7.313   8.631 -1.4447  1.9095  1.1938
  980MOL0     H32296   5.908   6.953   8.770  1.0617  0.5156 -1.3232
  980MOL0     H32297   6.106   7.245   9.048 -0.0665  0.1588  0.8007
  980MOL0     H32298   6.383   7.189   9.274 -0.0919  0.8835 -0.3138
  980MOL0     H32299   6.255   7.114   9.193  0.6163  0.6816  1.9193
  980MOL0     H32300   6.407   7.127   9.107 -1.0756 -2.6938 -0.5662
  981MOL0     O32301   5.864   2.089   9.908  0.4967  0.6403  0.1160
  981MOL0     C32302   5.752   2.137   9.901  0.1092  0.6766 -0.1167
  981MOL0     O32303   5.727   2.269   9.897 -0.1621 -0.4237 -0.3427
  981MOL0     C32304   5.828   2.352   9.849 -0.6044  0.0579 -0.3589
  981MOL0     C32305   5.874   2.351   9.711  1.0620  0.2480 -0.2033
  981MOL0     C32306   5.966   2.441   9.667 -0.1883  0.3086 -0.0171
  981MOL0     C32307   6.005   2.549   9.748  0.6042 -0.4521  0.2283
  981MOL0     O32308   6.088   2.648   9.719  0.2449 -0.3836 -0.0400
  981MOL0     C32309   6.163   2.644   9.599 -0.4337 -0.7543 -0.8774
  981MOL0     C32310   6.257   2.767   9.614 -0.1810  0.6615  0.9653
  981MOL0     C32311   6.387   2.740   9.519  0.2771 -0.5431 -0.6196
  981MOL0     C32312   6.501   2.840   9.545  1.0344  0.1593 -0.0460
  981MOL0     C32313   6.617   2.830   9.462 -0.5040  0.1653 -0.1321
  981MOL0     C32314   6.739   2.897   9.523  0.1925 -0.0924 -0.3881
  981MOL0     C32315   6.852   2.871   9.432  0.1219 -0.2409  0.2566
  981MOL0     C32316   6.994   2.925   9.484  0.3976  0.7185 -0.3507
  981MOL0     N32317   7.078   2.935   9.364 -0.6886 -0.1830 -0.5934
  981MOL0     C32318   7.168   3.033   9.329  0.1148  1.0617 -0.2008
  981MOL0     C32319   7.227   2.996   9.217  0.4702  0.3075 -0.3941
  981MOL0     C32320   7.343   3.078   9.157  0.3686 -0.5387  0.5584
  981MOL0     C32321   7.460   3.097   9.252 -0.7347 -0.3055 -0.4024
  981MOL0     C32322   7.583   3.156   9.172  0.3221 -0.1458  0.0744
  981MOL0     C32323   7.708   3.145   9.263  0.4868 -0.0072 -0.1585
  981MOL0     O32324   7.776   3.022   9.237 -0.0473  0.1616  0.7370
  981MOL0     C32325   7.908   3.003   9.258 -0.5422  0.5526  0.3469
  981MOL0     C32326   7.974   3.056   9.370 -0.0257  0.5075  0.2711
  981MOL0     C32327   8.109   3.017   9.393 -0.4261 -0.1167  0.9064
  981MOL0     C32328   8.177   2.933   9.300 -0.6209  1.1659 -0.2237
  981MOL0     C32329   8.320   2.884   9.324  0.5181 -0.0501 -0.9461
  981MOL0     O32330   8.400   2.975   9.382 -0.3928 -0.2782 -0.7539
  981MOL0     C32331   8.532   2.940   9.394  0.4999  0.1694  0.3400
  981MOL0     C32332   8.618   2.978   9.294 -0.2321  0.4051  0.6222
  981MOL0     C32333   8.758   2.936   9.281  0.5230  0.2074  0.4598
  981MOL0     C32334   8.804   2.853   9.386  0.8501  1.2214  0.5642
  981MOL0     O32335   8.929   2.798   9.401  0.0599 -0.3834  0.7023
  981MOL0     C32336   9.043   2.854   9.328 -0.2026 -0.1230 -0.2971
  981MOL0     C32337   9.177   2.809   9.387 -0.3689  0.0461 -0.5122
  981MOL0     C32338   9.203   2.879   9.517  0.6389 -1.1515 -0.1909
  981MOL0     C32339   9.331   2.816   9.579 -0.4020 -0.3827  0.0447
  981MOL0     C32340   9.398   2.920   9.676 -0.5666 -0.6920 -0.1154
  981MOL0     C32341   9.492   2.839   9.761 -0.0293  0.1621  0.3114
  981MOL0     C32342   9.545   2.922   9.869  0.4948 -0.2264 -0.9860
  981MOL0     C32343   9.635   2.844   9.964  0.2962  0.1403 -0.4167
  981MOL0    Cl32344   9.751   2.735   9.882  0.5343  0.0137  0.4008
  981MOL0     C32345   8.716   2.806   9.485 -0.2988  0.1688 -0.3521
  981MOL0     C32346   8.581   2.856   9.491  0.1617  0.1779  0.3603
  981MOL0     O32347   8.361   2.782   9.262 -0.0018 -0.6438 -0.3285
  981MOL0     C32348   8.103   2.880   9.192 -0.0395  0.2798 -0.0214
  981MOL0     C32349   7.976   2.924   9.165 -0.3164  1.0496 -1.0291
  981MOL0     N32350   7.167   2.886   9.178  0.2510  0.0917  0.0478
  981MOL0     N32351   7.083   2.841   9.269 -0.8436 -0.5483 -0.6911
  981MOL0     C32352   5.960   2.550   9.880 -0.4754 -0.2463  0.5814
  981MOL0     C32353   5.869   2.455   9.930 -0.5584  0.0491  0.2774
  981MOL0     C32354   5.630   2.060   9.917  0.4462 -0.1213 -0.2966
  981MOL0     C32355   5.507   2.130   9.935 -0.1480 -0.3838 -0.3503
  981MOL0     C32356   5.387   2.061   9.932 -0.4114  0.0838 -0.7781
  981MOL0     C32357   5.380   1.922   9.902  0.0742 -0.0496 -0.1867
  981MOL0     O32358   5.271   1.847   9.879 -0.7410  0.3998 -0.4067
  981MOL0     C32359   5.139   1.899   9.860 -0.2776  0.3595 -0.3566
  981MOL0     C32360   5.137   1.947   9.718 -0.9073  0.4462  0.7097
  981MOL0     C32361   5.002   1.963   9.659 -0.3459 -0.2624 -0.2772
  981MOL0     C32362   4.920   2.056   9.734  0.7166  0.2751 -0.2006
  981MOL0     C32363   4.773   2.023   9.720 -0.0813 -0.0728 -0.3345
  981MOL0     C32364   4.655   1.997   9.708 -0.4246  0.0898  0.4988
  981MOL0     C32365   5.504   1.855   9.908  0.5994 -0.2856 -0.0350
  981MOL0     C32366   5.631   1.921   9.909  0.1980  0.7621 -0.0754
  981MOL0     C32367   5.747   1.828   9.877 -0.0762 -0.1233  0.5263
  981MOL0     H32368   5.817   2.288   9.644 -1.6441  1.2007  1.0832
  981MOL0     H32369   6.006   2.415   9.570 -0.2267  0.3037 -0.0317
  981MOL0     H32370   6.228   2.556   9.587 -0.3703 -0.5082 -2.5803
  981MOL0     H32371   6.096   2.654   9.513  2.1111  2.7862 -2.7082
  981MOL0     H32372   6.298   2.780   9.714  2.2637 -1.5388  0.3637
  981MOL0     H32373   6.203   2.861   9.602 -0.1664  0.5746  0.1762
  981MOL0     H32374   6.346   2.745   9.417  1.3062 -0.2245 -1.0274
  981MOL0     H32375   6.416   2.640   9.552 -0.9875  0.0436  2.5819
  981MOL0     H32376   6.461   2.939   9.526  0.7158 -0.1744 -1.1616
  981MOL0     H32377   6.532   2.828   9.650  2.2958 -0.6627 -0.4896
  981MOL0     H32378   6.646   2.725   9.454  1.2495  0.6838 -1.0861
  981MOL0     H32379   6.587   2.862   9.362 -0.0637  0.8916 -0.0443
  981MOL0     H32380   6.706   3.000   9.536 -0.7898 -0.5989  1.5232
  981MOL0     H32381   6.764   2.856   9.622  2.1470 -1.8639 -1.5312
  981MOL0     H32382   6.835   2.936   9.346 -2.5335 -1.4185 -0.2290
  981MOL0     H32383   6.868   2.767   9.403 -1.7671 -0.7205  0.7556
  981MOL0     H32384   6.985   3.023   9.530 -1.1905 -0.2489  1.5805
  981MOL0     H32385   7.034   2.858   9.560  1.0674  2.7778  1.1894
  981MOL0     H32386   7.198   3.115   9.394  0.1570  1.6994 -1.0150
  981MOL0     H32387   7.377   3.021   9.070 -0.4613 -1.1458  0.6134
  981MOL0     H32388   7.310   3.178   9.126  1.0374 -0.3852  0.3229
  981MOL0     H32389   7.431   3.164   9.334 -0.5551 -1.7849  0.9040
  981MOL0     H32390   7.485   3.000   9.294  1.0200  0.1004 -0.4606
  981MOL0     H32391   7.560   3.259   9.143  5.1134  1.4531  1.1490
  981MOL0     H32392   7.600   3.092   9.086  0.1183 -1.8238  1.2197
  981MOL0     H32393   7.674   3.154   9.367 -3.9272 -2.3630 -1.1561
  981MOL0     H32394   7.774   3.228   9.238 -1.1671  1.0184 -1.2649
  981MOL0     H32395   7.920   3.120   9.439 -3.5841 -2.4234  0.5354
  981MOL0     H32396   8.162   3.054   9.480 -0.9803  2.4399  0.2525
  981MOL0     H32397   8.582   3.038   9.211  1.7031 -3.2989 -3.3246
  981MOL0     H32398   8.820   2.975   9.201 -2.3634  1.1878 -1.5040
  981MOL0     H32399   9.035   2.826   9.223 -2.1602  2.0991 -0.8151
  981MOL0     H32400   9.041   2.964   9.333 -4.0388 -0.0866 -0.0854
  981MOL0     H32401   9.171   2.700   9.397 -2.6053  0.2650  1.3446
  981MOL0     H32402   9.258   2.838   9.320 -0.0621  1.5301  0.4619
  981MOL0     H32403   9.230   2.980   9.483 -4.8596  1.0454  0.9500
  981MOL0     H32404   9.123   2.876   9.590  2.3773 -0.5003  1.8448
  981MOL0     H32405   9.407   2.795   9.503  3.0959  2.0591  2.5618
  981MOL0     H32406   9.302   2.729   9.637 -0.3383 -0.6851 -0.3746
  981MOL0     H32407   9.327   2.960   9.749 -2.3387 -2.3265 -0.8602
  981MOL0     H32408   9.460   2.988   9.617  0.2379 -1.4191 -0.1313
  981MOL0     H32409   9.439   2.758   9.812  0.2083  0.9608  1.8808
  981MOL0     H32410   9.575   2.810   9.697 -1.5504 -1.6774 -0.9322
  981MOL0     H32411   9.457   2.956   9.923 -1.0062 -0.4447 -3.1519
  981MOL0     H32412   9.599   3.009   9.833  2.3749 -1.4492 -1.2552
  981MOL0     H32413   9.689   2.904  10.038 -1.3670 -0.0394  1.0150
  981MOL0     H32414   9.572   2.786  10.032  0.8083  0.4908  0.3728
  981MOL0     H32415   8.746   2.736   9.562  4.1455  0.1942 -1.7889
  981MOL0     H32416   8.510   2.835   9.571 -0.5229 -1.0673 -0.5419
  981MOL0     H32417   8.147   2.801   9.132  2.4541 -0.2052  2.2222
  981MOL0     H32418   7.932   2.868   9.083  1.6803 -0.3027 -1.2557
  981MOL0     H32419   6.001   2.631   9.939  3.7131  0.2989 -2.6124
  981MOL0     H32420   5.815   2.470  10.023 -1.4890 -0.4485 -0.1592
  981MOL0     H32421   5.493   2.236   9.955 -3.3481 -0.3545 -2.0559
  981MOL0     H32422   5.292   2.113   9.940 -1.4072 -1.7129 -0.3554
  981MOL0     H32423   5.118   1.982   9.929 -0.7562  0.6980 -0.9055
  981MOL0     H32424   5.069   1.816   9.873  3.8074 -3.3329  0.4246
  981MOL0     H32425   5.176   1.868   9.652 -4.9874  0.1217 -1.6086
  981MOL0     H32426   5.208   2.030   9.721 -0.9979  0.5484  3.7923
  981MOL0     H32427   4.967   1.860   9.642  1.0989 -0.4406 -2.7377
  981MOL0     H32428   5.005   2.011   9.561 -0.9805 -1.4155 -0.8776
  981MOL0     H32429   4.942   2.056   9.841  0.5451 -1.5796 -0.1372
  981MOL0     H32430   4.943   2.157   9.697 -1.9088  0.7702 -0.7160
  981MOL0     H32431   4.549   1.986   9.708 -0.8939  3.1619  2.5979
  981MOL0     H32432   5.506   1.747   9.894  1.4210 -0.2182 -0.4479
  981MOL0     H32433   5.818   1.839   9.959  3.2433 -0.2946 -2.1033
  981MOL0     H32434   5.724   1.721   9.872  0.9676 -0.4583  1.9954
  981MOL0     H32435   5.806   1.850   9.788 -1.2293 -2.8985 -1.0450
  982MOL0     O32436   9.083   3.907   2.487 -0.3761 -0.4097 -0.6617
  982MOL0     C32437   9.054   4.024   2.513  0.2961 -0.0873  0.3728
  982MOL0     O32438   9.123   4.134   2.466  0.0637 -0.3381  0.3099
  982MOL0     C32439   9.223   4.118   2.377 -0.1891  0.4175  0.0575
  982MOL0     C32440   9.194   4.113   2.238  0.9547  0.4490 -0.4490
  982MOL0     C32441   9.291   4.107   2.145  0.4537 -0.2666 -0.1074
  982MOL0     C32442   9.422   4.110   2.180 -0.7777 -0.5155  0.0978
  982MOL0     O32443   9.513   4.127   2.080 -0.6716  0.3419 -0.3498
  982MOL0     C32444   9.638   4.195   2.113 -0.3094  1.2669 -0.7582
  982MOL0     C32445   9.720   4.231   1.986  0.2275 -0.6828  0.3884
  982MOL0     C32446   9.645   4.335   1.909  0.0518 -0.5479  1.2993
  982MOL0     C32447   9.735   4.380   1.788  0.6469 -0.1552 -0.2675
  982MOL0     C32448   9.651   4.487   1.714 -0.2319  0.9945 -0.4777
  982MOL0     C32449   9.727   4.551   1.597  0.0333 -0.1509  0.2742
  982MOL0     C32450   9.875   4.597   1.616 -0.3924 -0.5701 -0.0382
  982MOL0     C32451   9.935   4.690   1.505 -0.3184 -0.3241 -0.2425
  982MOL0     N32452  10.076   4.701   1.540 -0.5804 -0.1179  0.2654
  982MOL0     C32453  10.141   4.769   1.632  0.1794 -0.5845 -1.0215
  982MOL0     C32454  10.274   4.747   1.623 -0.2623  0.7174  1.5564
  982MOL0     C32455  10.392   4.794   1.701  0.2939 -1.3074  0.7249
  982MOL0     C32456  10.398   4.719   1.837  0.2582 -0.5081  0.7735
  982MOL0     C32457  10.382   4.571   1.823 -0.4563  0.2357 -0.5416
  982MOL0     C32458  10.394   4.498   1.960  0.0627 -0.3477  0.0854
  982MOL0     O32459  10.530   4.498   2.005  0.1744  0.9161 -0.5596
  982MOL0     C32460  10.628   4.416   1.959  0.4855  0.8874  1.1551
  982MOL0     C32461  10.753   4.404   2.029  1.3209 -0.0707 -0.2836
  982MOL0     C32462  10.862   4.341   1.971 -0.7056  0.1169  0.3671
  982MOL0     C32463  10.861   4.287   1.846  0.3581  0.5082  0.3690
  982MOL0     C32464  10.973   4.225   1.781  0.1317 -0.1991 -0.2854
  982MOL0     O32465  10.949   4.164   1.661 -0.4894 -0.6479  0.0050
  982MOL0     C32466  11.043   4.092   1.602 -0.0663  0.4705 -0.0765
  982MOL0     C32467  11.016   4.060   1.471  0.2457  0.5887  0.0876
  982MOL0     C32468  11.096   3.975   1.409  0.6617 -0.6256  1.3444
  982MOL0     C32469  11.218   3.925   1.454 -0.0159 -0.1479 -0.1504
  982MOL0     O32470  11.291   3.822   1.394  0.5155 -0.1239 -0.6864
  982MOL0     C32471  11.432   3.842   1.368  0.2165  0.0664 -0.4488
  982MOL0     C32472  11.504   3.713   1.416  0.1807  0.1486 -0.0840
  982MOL0     C32473  11.648   3.745   1.434 -1.0648  0.4994 -0.2694
  982MOL0     C32474  11.725   3.611   1.457 -0.1944  0.4369  0.4050
  982MOL0     C32475  11.873   3.633   1.452 -0.0044 -0.9643 -0.3674
  982MOL0     C32476  11.922   3.719   1.572 -0.0387 -0.4502 -1.0571
  982MOL0     C32477  12.069   3.739   1.554  0.3623  0.1737  0.2047
  982MOL0     C32478  12.151   3.611   1.548  0.4864 -0.3422  0.2883
  982MOL0    Cl32479  12.325   3.651   1.532  0.1524 -0.5728  0.3988
  982MOL0     C32480  11.267   3.979   1.579 -0.0756 -0.4237  0.2538
  982MOL0     C32481  11.178   4.059   1.650  0.0660 -0.4154 -0.5298
  982MOL0     O32482  11.076   4.238   1.837 -0.3200  0.0606  0.3689
  982MOL0     C32483  10.735   4.292   1.777  0.7397 -0.0009 -0.7185
  982MOL0     C32484  10.623   4.352   1.835  0.7364 -0.4292  0.9681
  982MOL0     N32485  10.288   4.646   1.522  0.6596  1.3760 -0.8048
  982MOL0     N32486  10.171   4.637   1.461 -1.0836  0.2731 -0.7911
  982MOL0     C32487   9.453   4.112   2.317 -0.1684  0.6751 -0.1738
  982MOL0     C32488   9.357   4.111   2.414 -0.0760  0.5530  0.2177
  982MOL0     C32489   8.934   4.045   2.599 -0.8585  0.1461  0.5617
  982MOL0     C32490   8.901   3.933   2.678 -0.0676 -0.7596 -0.6281
  982MOL0     C32491   8.800   3.953   2.775 -0.1216  0.1243 -1.2779
  982MOL0     C32492   8.735   4.072   2.795  0.1703  0.3381 -0.8244
  982MOL0     O32493   8.659   4.085   2.907 -0.0204 -0.1375  1.2947
  982MOL0     C32494   8.522   4.070   2.886  0.7529  0.8218  0.1082
  982MOL0     C32495   8.482   3.924   2.916  0.2938 -0.0096 -0.4493
  982MOL0     C32496   8.338   3.916   2.980 -0.3402 -0.4768  0.6450
  982MOL0     C32497   8.225   3.986   2.908  0.1381  0.4560 -0.4367
  982MOL0     C32498   8.104   3.932   2.970 -0.3051 -0.0963  0.3694
  982MOL0     C32499   8.005   3.879   3.011  0.3328 -0.1879 -0.8646
  982MOL0     C32500   8.761   4.176   2.710 -0.6964  0.6964 -0.8941
  982MOL0     C32501   8.865   4.166   2.609 -0.0223 -0.4026 -0.5563
  982MOL0     C32502   8.881   4.285   2.518  0.9084 -0.3481  0.3654
  982MOL0     H32503   9.089   4.097   2.213  0.9529  0.3608 -0.3862
  982MOL0     H32504   9.281   4.087   2.039  0.0745 -0.8473  0.0329
  982MOL0     H32505   9.621   4.280   2.180  2.3172 -0.2356  2.0767
  982MOL0     H32506   9.703   4.128   2.171 -2.7616 -2.3954 -1.8856
  982MOL0     H32507   9.728   4.148   1.916  1.2348  0.1046 -0.4677
  982MOL0     H32508   9.825   4.251   2.010  0.1327  1.3039 -0.6995
  982MOL0     H32509   9.635   4.427   1.967 -0.2374  0.8694 -0.9113
  982MOL0     H32510   9.544   4.312   1.874  0.6724  0.5523 -1.4361
  982MOL0     H32511   9.822   4.434   1.828 -1.0074  2.4444  0.0468
  982MOL0     H32512   9.762   4.294   1.726  0.5756  1.9324 -3.3739
  982MOL0     H32513   9.562   4.439   1.672  0.1627 -2.1906  1.9206
  982MOL0     H32514   9.627   4.564   1.789  3.3698 -0.1087  2.0877
  982MOL0     H32515   9.726   4.484   1.511  4.0484  1.7691 -1.5381
  982MOL0     H32516   9.660   4.627   1.555 -0.0543 -0.4203 -0.0803
  982MOL0     H32517   9.936   4.506   1.616  1.4218  0.5092 -2.8162
  982MOL0     H32518   9.880   4.651   1.711 -2.6988  0.5040 -0.4630
  982MOL0     H32519   9.917   4.659   1.402 -1.3062 -0.3015 -0.0794
  982MOL0     H32520   9.884   4.786   1.521 -0.8749 -0.6294 -0.1825
  982MOL0     H32521  10.097   4.833   1.708  3.0911 -2.1645  2.3032
  982MOL0     H32522  10.483   4.779   1.643  0.6544 -0.4466  1.0433
  982MOL0     H32523  10.383   4.901   1.725  3.5054 -0.8136  0.1600
  982MOL0     H32524  10.495   4.742   1.883  0.5473 -0.5395  0.1914
  982MOL0     H32525  10.314   4.756   1.896 -0.8284  1.1342 -1.6453
  982MOL0     H32526  10.455   4.527   1.755 -0.2502 -0.1866 -0.0553
  982MOL0     H32527  10.285   4.544   1.780 -0.2493 -1.3413 -0.0619
  982MOL0     H32528  10.352   4.397   1.956 -1.6544  0.3080  0.5904
  982MOL0     H32529  10.343   4.549   2.042 -0.4686 -2.1525  0.9203
  982MOL0     H32530  10.758   4.450   2.127 -0.2731  1.1225 -0.7255
  982MOL0     H32531  10.956   4.345   2.025  0.3112  2.2061 -1.3931
  982MOL0     H32532  10.934   4.108   1.418 -0.5798  0.1556  0.9345
  982MOL0     H32533  11.079   3.951   1.305  2.4531 -0.6793  1.0181
  982MOL0     H32534  11.451   3.851   1.260 -0.1432 -0.3009 -0.5429
  982MOL0     H32535  11.486   3.919   1.424  1.8779 -1.1165 -0.3584
  982MOL0     H32536  11.456   3.672   1.506 -2.3274 -1.7844 -2.1299
  982MOL0     H32537  11.488   3.642   1.335 -1.0595 -0.6068  0.7680
  982MOL0     H32538  11.677   3.787   1.338 -0.1146  1.5240  0.4440
  982MOL0     H32539  11.660   3.812   1.519  1.4777 -0.5885  0.3254
  982MOL0     H32540  11.696   3.534   1.386 -0.9106  0.3766  0.7540
  982MOL0     H32541  11.704   3.560   1.552 -0.9665  1.0904  0.5989
  982MOL0     H32542  11.891   3.687   1.359 -1.6797 -0.4485 -0.4137
  982MOL0     H32543  11.921   3.536   1.433 -1.0176 -1.4915 -0.2985
  982MOL0     H32544  11.869   3.814   1.581  1.5554  0.3694  0.1837
  982MOL0     H32545  11.919   3.669   1.669  3.3346 -0.0247 -0.6259
  982MOL0     H32546  12.103   3.802   1.637 -2.0768  0.2552  1.2485
  982MOL0     H32547  12.071   3.804   1.467 -1.8751 -0.2679 -0.2366
  982MOL0     H32548  12.133   3.552   1.638  0.9138  0.1331  0.6930
  982MOL0     H32549  12.122   3.560   1.456 -1.3592 -0.6667  1.0095
  982MOL0     H32550  11.359   3.954   1.630  0.2307 -0.3388 -0.2514
  982MOL0     H32551  11.222   4.096   1.742 -1.9970  0.3729  0.1887
  982MOL0     H32552  10.729   4.241   1.681  1.4783  0.7207 -1.1619
  982MOL0     H32553  10.529   4.341   1.781  1.2555 -0.7418  0.1125
  982MOL0     H32554   9.556   4.108   2.350 -1.0511 -3.2092  2.8427
  982MOL0     H32555   9.371   4.095   2.521  1.9799 -1.6980 -0.3039
  982MOL0     H32556   8.947   3.835   2.665 -0.9135 -1.0154 -1.8789
  982MOL0     H32557   8.756   3.875   2.837 -1.1667  2.1095  0.6485
  982MOL0     H32558   8.493   4.093   2.783 -1.1764 -0.2428  0.3820
  982MOL0     H32559   8.462   4.138   2.947  0.5728  1.4615 -0.7641
  982MOL0     H32560   8.552   3.898   2.996  0.3692 -0.7325 -0.7415
  982MOL0     H32561   8.489   3.854   2.832 -0.2985  1.5829 -1.8794
  982MOL0     H32562   8.366   3.960   3.077 -4.0782  1.6205  0.9534
  982MOL0     H32563   8.328   3.807   2.985  3.5281 -1.1021 -1.2486
  982MOL0     H32564   8.242   4.094   2.915  1.7791  0.2618 -0.8709
  982MOL0     H32565   8.223   3.952   2.804 -1.8707  1.5525 -0.7988
  982MOL0     H32566   7.917   3.829   3.044  0.9265 -1.1816 -0.7485
  982MOL0     H32567   8.719   4.276   2.721  0.6301  1.0377  2.3126
  982MOL0     H32568   8.788   4.320   2.472  1.4701  1.2357  0.3900
  982MOL0     H32569   8.931   4.365   2.573  1.7609 -0.9578  0.4982
  982MOL0     H32570   8.943   4.263   2.430 -1.4332  0.6830 -1.6770
  983MOL0     O32571   0.852   0.882   0.227  0.5290  0.0647 -0.9427
  983MOL0     C32572   0.830   0.760   0.225  0.4085  0.0490  1.7256
  983MOL0     O32573   0.917   0.669   0.273 -0.2303 -0.2753 -0.3330
  983MOL0     C32574   1.051   0.708   0.307  1.2965 -0.7606 -0.1137
  983MOL0     C32575   1.156   0.637   0.248 -0.2272  0.0555  0.3322
  983MOL0     C32576   1.285   0.650   0.295 -0.2929  0.1670 -0.1440
  983MOL0     C32577   1.308   0.738   0.402  0.1967 -0.9095  0.3027
  983MOL0     O32578   1.446   0.770   0.434 -0.1485 -0.6547  0.3351
  983MOL0     C32579   1.474   0.863   0.539 -0.6278 -0.4057 -0.2278
  983MOL0     C32580   1.622   0.875   0.553 -0.2793  1.0141  0.4969
  983MOL0     C32581   1.676   0.997   0.465  0.0435  0.3049 -0.1132
  983MOL0     C32582   1.827   0.991   0.474  0.7283 -0.3511  0.0108
  983MOL0     C32583   1.882   1.129   0.413 -1.0889  0.2221 -0.4552
  983MOL0     C32584   2.023   1.103   0.361 -0.6804  0.6960  0.8628
  983MOL0     C32585   2.078   1.220   0.271 -0.4816 -0.1218  0.1899
  983MOL0     C32586   2.101   1.352   0.345  0.0541  0.1559 -0.2526
  983MOL0     N32587   2.198   1.333   0.460 -0.0253 -0.1222  0.1884
  983MOL0     C32588   2.334   1.345   0.451 -0.1043  0.2417 -1.4451
  983MOL0     C32589   2.372   1.351   0.580 -0.2982 -0.4545 -0.0697
  983MOL0     C32590   2.510   1.375   0.642  0.7174 -0.0811  0.8422
  983MOL0     C32591   2.600   1.251   0.628  0.0612 -0.3072 -0.7043
  983MOL0     C32592   2.748   1.290   0.621  0.3204 -0.0786  0.0310
  983MOL0     C32593   2.841   1.167   0.629  0.1545  0.0430 -0.2439
  983MOL0     O32594   2.820   1.085   0.516 -0.5587 -0.2533  0.4383
  983MOL0     C32595   2.887   0.959   0.511 -0.6036 -0.8042 -0.1032
  983MOL0     C32596   2.814   0.860   0.440 -0.3711  0.1067 -0.5133
  983MOL0     C32597   2.872   0.729   0.453  1.1475  0.9657 -0.0240
  983MOL0     C32598   2.999   0.698   0.512 -0.6531  0.1257 -0.7507
  983MOL0     C32599   3.049   0.561   0.535 -0.1059  0.1771  0.3906
  983MOL0     O32600   3.179   0.539   0.596  0.5474  0.7368 -0.1843
  983MOL0     C32601   3.216   0.415   0.640 -0.5366 -0.1654  0.0343
  983MOL0     C32602   3.130   0.332   0.699  0.1208 -0.0456 -0.0228
  983MOL0     C32603   3.176   0.208   0.745 -0.6885 -0.2002 -0.5685
  983MOL0     C32604   3.313   0.168   0.728 -0.0635  0.6659 -0.2666
  983MOL0     O32605   3.371   0.044   0.746  0.0618 -0.2152  0.9340
  983MOL0     C32606   3.304  -0.059   0.669  0.0093 -0.1835  0.4012
  983MOL0     C32607   3.363  -0.190   0.703  0.7389 -0.2723 -0.1726
  983MOL0     C32608   3.473  -0.221   0.602  0.8098 -0.5360 -0.5175
  983MOL0     C32609   3.535  -0.361   0.624 -0.6881 -1.1019 -0.2158
  983MOL0     C32610   3.667  -0.383   0.556  0.5316  0.2861 -0.0151
  983MOL0     C32611   3.645  -0.379   0.409 -0.1010 -0.2116  0.6653
  983MOL0     C32612   3.778  -0.450   0.358 -0.1197  0.3578 -0.5865
  983MOL0     C32613   3.787  -0.473   0.204 -0.4905 -0.2793  0.4512
  983MOL0    Cl32614   3.662  -0.577   0.127  0.2433  0.6876  0.4540
  983MOL0     C32615   3.398   0.258   0.666 -0.2907 -0.3118 -0.0684
  983MOL0     C32616   3.352   0.389   0.632  0.8183 -0.0402  0.2478
  983MOL0     O32617   2.971   0.475   0.503  0.0959  0.6573 -0.0571
  983MOL0     C32618   3.072   0.806   0.564  0.9634  0.1848 -0.7447
  983MOL0     C32619   3.008   0.930   0.577 -0.2692  0.4054  0.5312
  983MOL0     N32620   2.266   1.327   0.662  0.2124 -0.4092 -0.2896
  983MOL0     N32621   2.156   1.326   0.595 -0.4462 -0.9436  0.4478
  983MOL0     C32622   1.202   0.813   0.461  0.0260  0.0538 -0.0007
  983MOL0     C32623   1.068   0.795   0.417 -0.1040  0.1322 -0.2723
  983MOL0     C32624   0.703   0.710   0.182  0.3956  0.4965  0.1803
  983MOL0     C32625   0.629   0.623   0.261 -0.4065  0.2087 -1.1492
  983MOL0     C32626   0.508   0.577   0.219  0.1289 -0.2927 -0.4913
  983MOL0     C32627   0.436   0.627   0.101 -0.5545 -0.4915 -0.9913
  983MOL0     O32628   0.304   0.597   0.078 -0.2215  0.1831 -0.0954
  983MOL0     C32629   0.224   0.523   0.176 -0.0881 -0.5365 -0.5911
  983MOL0     C32630   0.073   0.560   0.137  0.1941  0.7186  0.1478
  983MOL0     C32631   0.036   0.550  -0.014 -0.9283 -0.1098  0.0846
  983MOL0     C32632   0.083   0.413  -0.065 -0.0835 -0.4292  0.1292
  983MOL0     C32633   0.018   0.384  -0.190 -0.0843  0.3353  0.5013
  983MOL0     C32634  -0.011   0.346  -0.303  0.5686 -1.3096 -0.1548
  983MOL0     C32635   0.520   0.692   0.010  0.0294  0.0468 -0.6424
  983MOL0     C32636   0.646   0.748   0.056  0.1630  0.2882 -0.2811
  983MOL0     C32637   0.719   0.821  -0.046 -0.0239 -0.6460  0.2000
  983MOL0     H32638   1.122   0.573   0.167  1.0175  0.9378 -0.9136
  983MOL0     H32639   1.365   0.585   0.262  0.5618  1.5200 -0.7912
  983MOL0     H32640   1.434   0.963   0.519  2.3487  1.0489  0.5166
  983MOL0     H32641   1.428   0.828   0.632 -1.3958  0.5112 -0.2450
  983MOL0     H32642   1.674   0.784   0.522 -1.9377 -0.1572  1.0324
  983MOL0     H32643   1.633   0.902   0.659 -2.3925 -1.6764  1.5366
  983MOL0     H32644   1.643   1.094   0.502  0.6824  1.5158 -2.5599
  983MOL0     H32645   1.642   0.983   0.362  0.0944 -0.4306 -0.0360
  983MOL0     H32646   1.862   0.993   0.578  0.6359  0.8895  0.0336
  983MOL0     H32647   1.858   0.899   0.424 -4.1680 -2.6426  0.6464
  983MOL0     H32648   1.818   1.161   0.330 -0.4395  0.0771 -1.0164
  983MOL0     H32649   1.873   1.212   0.483  0.5292  0.6377 -0.7165
  983MOL0     H32650   2.089   1.077   0.445  1.7395 -2.3046 -1.7146
  983MOL0     H32651   2.017   1.016   0.295 -2.6952  2.0032 -0.8252
  983MOL0     H32652   2.008   1.232   0.188 -2.5797 -0.5590  1.8227
  983MOL0     H32653   2.170   1.177   0.231  0.4218  0.9918  0.9880
  983MOL0     H32654   2.145   1.429   0.282  1.7282  0.3652  1.1119
  983MOL0     H32655   2.006   1.380   0.392  0.9376  1.3912  0.8353
  983MOL0     H32656   2.400   1.355   0.365  3.1070 -3.6255  0.2395
  983MOL0     H32657   2.563   1.457   0.594  0.1306  0.2198  0.7027
  983MOL0     H32658   2.482   1.400   0.745 -2.2161 -0.7488  0.2862
  983MOL0     H32659   2.582   1.187   0.716 -2.5265 -0.8387 -1.5366
  983MOL0     H32660   2.574   1.194   0.539 -0.8325 -3.7366  1.5327
  983MOL0     H32661   2.758   1.367   0.699 -1.2012 -0.3702  0.5531
  983MOL0     H32662   2.753   1.340   0.524  0.5098  0.5986  0.3803
  983MOL0     H32663   2.801   1.116   0.717  0.2760 -0.8387 -0.6801
  983MOL0     H32664   2.945   1.193   0.651  0.4473 -1.9076  0.9702
  983MOL0     H32665   2.713   0.882   0.408 -1.5729 -1.9140  1.6136
  983MOL0     H32666   2.813   0.646   0.416  1.3562  0.5320  0.5971
  983MOL0     H32667   3.025   0.357   0.713 -0.1067 -1.6651  1.6099
  983MOL0     H32668   3.099   0.145   0.789  0.0168  1.6358  3.8553
  983MOL0     H32669   3.195  -0.069   0.680 -0.1472 -1.2619 -1.6041
  983MOL0     H32670   3.327  -0.029   0.567  2.4125 -1.8777  0.3805
  983MOL0     H32671   3.402  -0.186   0.805  1.6724 -2.0690 -0.4222
  983MOL0     H32672   3.273  -0.251   0.699  0.9130 -0.5222 -3.6793
  983MOL0     H32673   3.440  -0.210   0.498 -1.1590 -0.1371  0.1105
  983MOL0     H32674   3.560  -0.157   0.616 -0.8935  1.6982  0.6142
  983MOL0     H32675   3.464  -0.436   0.590  0.2335 -0.7977 -3.0555
  983MOL0     H32676   3.564  -0.362   0.730  2.3963  0.1026 -0.9313
  983MOL0     H32677   3.702  -0.478   0.596 -0.0040  0.9906  2.3253
  983MOL0     H32678   3.738  -0.306   0.588 -1.8440  2.9516 -0.7612
  983MOL0     H32679   3.555  -0.433   0.377 -0.8954  2.0158 -1.2232
  983MOL0     H32680   3.647  -0.278   0.366  3.4746 -0.1530  0.6720
  983MOL0     H32681   3.778  -0.554   0.392 -0.5155  0.6080  0.2034
  983MOL0     H32682   3.865  -0.396   0.395 -1.4559  2.6340 -0.5476
  983MOL0     H32683   3.798  -0.375   0.157  0.7995 -0.3065  0.6563
  983MOL0     H32684   3.881  -0.520   0.174 -1.9207 -1.0118 -3.5778
  983MOL0     H32685   3.503   0.230   0.656  0.3502  1.7424  0.4400
  983MOL0     H32686   3.420   0.465   0.595 -0.3344  1.1701  0.5391
  983MOL0     H32687   3.164   0.787   0.618 -0.1246  0.2023  1.2015
  983MOL0     H32688   3.059   1.010   0.630  1.6148 -0.4199  0.0411
  983MOL0     H32689   1.226   0.884   0.539  2.5368 -2.7127  1.9909
  983MOL0     H32690   0.985   0.852   0.459 -0.8068  1.8482 -3.6236
  983MOL0     H32691   0.679   0.587   0.350 -2.4615 -0.3259 -0.1660
  983MOL0     H32692   0.440   0.534   0.293 -1.2094  2.6685  0.1407
  983MOL0     H32693   0.235   0.561   0.278  1.4699 -3.9950  0.6797
  983MOL0     H32694   0.239   0.415   0.170  1.3489 -0.3302 -1.0703
  983MOL0     H32695   0.051   0.657   0.183  1.7536  0.6893  1.0366
  983MOL0     H32696   0.006   0.487   0.183 -1.1733  0.8643 -1.5183
  983MOL0     H32697   0.088   0.632  -0.065 -2.4760  1.0548  0.2858
  983MOL0     H32698  -0.070   0.564  -0.037 -0.5399 -0.1704 -2.0154
  983MOL0     H32699   0.192   0.410  -0.066  0.0319  1.4052  1.4378
  983MOL0     H32700   0.035   0.342   0.002 -2.1119 -0.0615 -0.8576
  983MOL0     H32701  -0.032   0.323  -0.406  0.9358  1.5315 -0.9609
  983MOL0     H32702   0.477   0.735  -0.080  0.3762  0.9705 -0.3814
  983MOL0     H32703   0.711   0.766  -0.140  0.8614 -2.5428  1.1847
  983MOL0     H32704   0.662   0.914  -0.056 -0.8864 -1.1141  0.6527
  983MOL0     H32705   0.823   0.848  -0.028 -0.6590  2.7302 -0.4079
  984MOL0     O32706   4.625   3.313   5.750  0.5235  0.4594  1.3939
  984MOL0     C32707   4.543   3.376   5.821 -0.9580  0.5813 -0.0839
  984MOL0     O32708   4.582   3.488   5.898  0.7443 -0.3062  0.2108
  984MOL0     C32709   4.700   3.552   5.902 -0.2704 -0.6067 -0.5510
  984MOL0     C32710   4.796   3.557   5.796  0.9656  0.0990  0.0570
  984MOL0     C32711   4.928   3.608   5.820  0.0816  0.0838  0.5898
  984MOL0     C32712   4.973   3.645   5.947  0.0661  0.7969  0.3905
  984MOL0     O32713   5.103   3.702   5.971  0.2678  0.3266 -1.2788
  984MOL0     C32714   5.204   3.647   5.887  0.2513  0.2641  0.8297
  984MOL0     C32715   5.333   3.667   5.944  0.2335  0.2307 -0.6260
  984MOL0     C32716   5.446   3.622   5.850 -0.1280  0.2170  0.6425
  984MOL0     C32717   5.457   3.471   5.850 -0.6193 -0.7938  0.6243
  984MOL0     C32718   5.599   3.420   5.809 -0.4840  0.2370  0.1273
  984MOL0     C32719   5.731   3.509   5.835 -0.3130  0.8023  0.7981
  984MOL0     C32720   5.854   3.427   5.813 -0.9813  0.5056 -0.9650
  984MOL0     C32721   5.983   3.507   5.833  0.5214 -0.1297 -0.8656
  984MOL0     N32722   6.098   3.421   5.871  0.6057 -0.0975 -0.1383
  984MOL0     C32723   6.151   3.323   5.795 -0.0697  0.5786 -0.0025
  984MOL0     C32724   6.276   3.298   5.842  0.1509 -0.8253 -0.6341
  984MOL0     C32725   6.369   3.197   5.785 -0.1575  0.3047  0.0652
  984MOL0     C32726   6.513   3.250   5.755  0.3776 -0.5420  0.6154
  984MOL0     C32727   6.516   3.310   5.605  0.1423 -0.5309  0.4800
  984MOL0     C32728   6.642   3.382   5.562  0.2216 -0.0934 -0.3495
  984MOL0     O32729   6.740   3.286   5.529  0.2151 -0.1511 -0.0183
  984MOL0     C32730   6.802   3.311   5.411 -0.5387 -0.3854  0.1319
  984MOL0     C32731   6.904   3.410   5.407 -0.0546  0.0548 -0.1279
  984MOL0     C32732   6.973   3.432   5.287 -0.3988  0.1758  0.3115
  984MOL0     C32733   6.936   3.361   5.178  0.3005 -0.1372  0.3326
  984MOL0     C32734   7.005   3.382   5.056 -0.1755 -0.9810  0.4003
  984MOL0     O32735   7.070   3.503   5.041 -0.2259 -0.6859  0.5541
  984MOL0     C32736   7.151   3.529   4.930  0.5435  0.2990 -0.2927
  984MOL0     C32737   7.258   3.614   4.959  0.4313 -0.3835 -0.5356
  984MOL0     C32738   7.348   3.653   4.862 -0.5571 -0.0687 -1.3800
  984MOL0     C32739   7.342   3.597   4.733 -0.8245  0.5450 -0.3919
  984MOL0     O32740   7.435   3.606   4.637 -0.2017 -0.9222  0.2485
  984MOL0     C32741   7.571   3.596   4.675  0.3024  0.6615 -1.0323
  984MOL0     C32742   7.647   3.556   4.552 -0.0913  0.7963  0.9712
  984MOL0     C32743   7.629   3.400   4.522  0.6637  0.4407 -0.0285
  984MOL0     C32744   7.638   3.356   4.372 -0.2641 -0.9916 -0.6256
  984MOL0     C32745   7.533   3.408   4.271  0.4778  0.4050  0.0319
  984MOL0     C32746   7.565   3.364   4.132 -0.1742  0.1576 -0.4770
  984MOL0     C32747   7.487   3.443   4.026  0.3146 -0.6303  0.7832
  984MOL0     C32748   7.506   3.591   4.010 -0.3319 -0.6206 -0.0172
  984MOL0    Cl32749   7.444   3.648   3.861 -0.2316 -0.2257  0.4269
  984MOL0     C32750   7.227   3.521   4.699 -0.8092 -0.5313  0.5297
  984MOL0     C32751   7.130   3.488   4.795  0.9574 -0.9195  0.2488
  984MOL0     O32752   7.007   3.284   4.977 -0.1358  0.0488  0.1153
  984MOL0     C32753   6.846   3.251   5.183 -0.2231 -0.3115 -0.4163
  984MOL0     C32754   6.771   3.232   5.304 -0.5729  0.2384  0.3645
  984MOL0     N32755   6.295   3.384   5.947  0.3697 -0.6139 -0.4051
  984MOL0     N32756   6.183   3.460   5.961 -0.9204 -0.0329  0.1068
  984MOL0     C32757   4.872   3.644   6.049  1.1250 -0.1222  0.0409
  984MOL0     C32758   4.746   3.593   6.027  0.7379  0.2710  0.2574
  984MOL0     C32759   4.407   3.325   5.829  1.1937 -0.2675 -0.9386
  984MOL0     C32760   4.366   3.216   5.751 -0.4620  0.3340 -0.1319
  984MOL0     C32761   4.238   3.166   5.751  0.5102 -0.4490 -0.0887
  984MOL0     C32762   4.141   3.224   5.827 -0.3049  0.4951  0.7442
  984MOL0     O32763   4.020   3.164   5.827  0.1968 -0.2128 -0.3594
  984MOL0     C32764   3.929   3.224   5.920  0.2775  0.5705  0.7341
  984MOL0     C32765   3.783   3.157   5.898  0.2460 -0.2106  0.0957
  984MOL0     C32766   3.778   3.031   5.983 -0.6818 -0.3770 -0.2686
  984MOL0     C32767   3.669   2.922   5.945  0.2352 -0.5907 -0.8397
  984MOL0     C32768   3.537   2.981   5.971  0.1846  0.8012 -0.3409
  984MOL0     C32769   3.449   3.061   5.999  0.2897  0.5101  0.6096
  984MOL0     C32770   4.181   3.331   5.905  0.2462  0.4423  0.1490
  984MOL0     C32771   4.311   3.383   5.913  0.1422  0.2917  0.4613
  984MOL0     C32772   4.324   3.500   6.003  0.3222 -1.0704  0.6912
  984MOL0     H32773   4.756   3.518   5.703  0.0596 -2.2529  1.3501
  984MOL0     H32774   4.995   3.618   5.735 -0.6034 -0.6754 -0.0571
  984MOL0     H32775   5.185   3.541   5.864 -2.5960  0.4116  2.0553
  984MOL0     H32776   5.199   3.695   5.789 -1.3120  1.2129  1.3273
  984MOL0     H32777   5.351   3.615   6.038  0.6638  2.3317  0.5104
  984MOL0     H32778   5.342   3.773   5.972  1.8132 -0.0023 -0.1664
  984MOL0     H32779   5.540   3.668   5.882  1.9649 -1.1755 -2.9314
  984MOL0     H32780   5.435   3.673   5.754 -0.3530 -0.1723  0.4603
  984MOL0     H32781   5.434   3.435   5.951 -1.6474 -0.0523  0.6689
  984MOL0     H32782   5.386   3.420   5.784  0.0610  0.6652 -1.3560
  984MOL0     H32783   5.612   3.326   5.864 -2.1218  0.7111  1.3995
  984MOL0     H32784   5.609   3.387   5.705  1.2303 -1.3326  0.7296
  984MOL0     H32785   5.731   3.595   5.767  2.1277  0.1333 -0.1522
  984MOL0     H32786   5.725   3.541   5.939 -2.4436  0.8558  0.7099
  984MOL0     H32787   5.860   3.396   5.708  2.3677 -1.5555 -0.3191
  984MOL0     H32788   5.845   3.332   5.867  0.3127  1.2943  0.6895
  984MOL0     H32789   6.002   3.571   5.746  0.4288  0.7939 -0.2190
  984MOL0     H32790   5.957   3.581   5.910 -1.3675 -1.6077 -0.0038
  984MOL0     H32791   6.101   3.277   5.710 -1.0392  0.4956  0.5914
  984MOL0     H32792   6.377   3.117   5.859 -2.3893  0.9232  1.0879
  984MOL0     H32793   6.329   3.153   5.693  3.8274 -2.8956 -0.4107
  984MOL0     H32794   6.535   3.335   5.820 -0.2542 -1.7053  2.4104
  984MOL0     H32795   6.587   3.173   5.778 -0.0856 -1.1412  0.1217
  984MOL0     H32796   6.431   3.376   5.588  1.3386  1.2964  1.3435
  984MOL0     H32797   6.499   3.222   5.542 -1.5881 -0.6337  1.0259
  984MOL0     H32798   6.668   3.452   5.642 -0.1448  1.7756 -1.7940
  984MOL0     H32799   6.624   3.447   5.476 -0.8849  0.5612  0.3579
  984MOL0     H32800   6.926   3.480   5.487  3.5580  1.0483 -1.7702
  984MOL0     H32801   7.045   3.513   5.292  2.0401 -1.7069 -1.3175
  984MOL0     H32802   7.276   3.649   5.060 -1.6396 -1.7924  0.4010
  984MOL0     H32803   7.424   3.721   4.900 -1.0166  1.2213 -2.7009
  984MOL0     H32804   7.619   3.689   4.708  2.0990 -1.4211  2.9056
  984MOL0     H32805   7.587   3.527   4.758  0.1356  0.8091 -0.8784
  984MOL0     H32806   7.613   3.616   4.467 -2.7219  0.1541  1.4567
  984MOL0     H32807   7.754   3.567   4.571 -0.4333  3.1073  1.9794
  984MOL0     H32808   7.705   3.340   4.573  1.5931  1.7467  0.1654
  984MOL0     H32809   7.526   3.375   4.552  0.8125  2.9896  3.2068
  984MOL0     H32810   7.667   3.251   4.360 -0.1548 -0.8576 -1.6140
  984MOL0     H32811   7.738   3.393   4.346  0.2818  0.4456  2.9199
  984MOL0     H32812   7.541   3.517   4.269 -0.8376  0.5653 -3.4635
  984MOL0     H32813   7.427   3.392   4.294  0.5599  2.1487  1.8955
  984MOL0     H32814   7.672   3.369   4.113  0.0136  1.6113  0.8094
  984MOL0     H32815   7.536   3.258   4.124 -2.2434  0.5255  1.1602
  984MOL0     H32816   7.381   3.424   4.046 -1.4225  2.4915 -3.6697
  984MOL0     H32817   7.505   3.398   3.928  2.2961 -0.8037  1.1859
  984MOL0     H32818   7.470   3.658   4.089 -2.0934  0.9143 -2.0051
  984MOL0     H32819   7.612   3.616   4.003 -0.2299 -1.5261 -2.6953
  984MOL0     H32820   7.219   3.487   4.596  0.7418 -0.8808  0.4880
  984MOL0     H32821   7.041   3.429   4.773 -1.8570  3.0802 -0.0471
  984MOL0     H32822   6.818   3.189   5.098 -2.1707 -0.4898  0.3147
  984MOL0     H32823   6.691   3.161   5.315 -0.5581  0.5021  2.6831
  984MOL0     H32824   4.897   3.674   6.150 -0.5787  2.2712 -0.1525
  984MOL0     H32825   4.669   3.575   6.102  0.8720  3.3561  1.2792
  984MOL0     H32826   4.434   3.147   5.701 -3.4022 -2.1961 -0.9069
  984MOL0     H32827   4.211   3.075   5.697 -1.9488 -0.9842  1.8268
  984MOL0     H32828   3.925   3.331   5.897  4.0001  0.4734 -1.3222
  984MOL0     H32829   3.966   3.215   6.023  1.4252  1.4916  0.4336
  984MOL0     H32830   3.767   3.138   5.791  1.6809  1.4454 -0.4557
  984MOL0     H32831   3.713   3.230   5.939  0.7563  1.3380 -1.6468
  984MOL0     H32832   3.756   3.056   6.087 -1.0949 -1.1042 -0.1717
  984MOL0     H32833   3.878   2.987   5.978 -0.2352  0.4460  0.8585
  984MOL0     H32834   3.678   2.898   5.839 -2.1104  1.3647 -1.5627
  984MOL0     H32835   3.688   2.830   6.001  2.6549  1.2877  1.7555
  984MOL0     H32836   3.376   3.135   6.023 -1.8723 -2.0402  2.3441
  984MOL0     H32837   4.109   3.384   5.967  0.1721 -1.3224  1.6435
  984MOL0     H32838   4.371   3.586   5.954 -0.4014  0.2338  2.2155
  984MOL0     H32839   4.232   3.552   6.032  1.8108  2.1597  0.1106
  984MOL0     H32840   4.381   3.466   6.090  0.0572  0.3929  1.4722
  985MOL0     O32841   6.937   8.418   7.751 -0.5558 -0.8396 -0.7193
  985MOL0     C32842   6.968   8.302   7.778  0.2625  0.0784  0.1154
  985MOL0     O32843   7.085   8.265   7.825  0.8641  0.0839 -0.5016
  985MOL0     C32844   7.175   8.365   7.861  0.3821  0.0435  1.1166
  985MOL0     C32845   7.309   8.344   7.811  0.5780 -0.3091  0.2787
  985MOL0     C32846   7.401   8.445   7.838 -0.1297  0.6973  0.6309
  985MOL0     C32847   7.367   8.560   7.906 -0.0320  0.2421  0.5193
  985MOL0     O32848   7.472   8.657   7.920  0.6165  0.2436 -0.0149
  985MOL0     C32849   7.447   8.784   7.868  0.1651 -0.3109 -0.2050
  985MOL0     C32850   7.564   8.889   7.892  0.2548  0.1264  0.4308
  985MOL0     C32851   7.556   8.930   8.037 -0.0450  0.4750  0.2350
  985MOL0     C32852   7.613   8.830   8.132 -0.1897 -0.0367  0.1647
  985MOL0     C32853   7.591   8.872   8.275 -0.2648 -0.7720 -0.4831
  985MOL0     C32854   7.448   8.877   8.325 -1.1339  0.4158  0.7634
  985MOL0     C32855   7.350   8.773   8.276  0.4969  0.5119 -0.7836
  985MOL0     C32856   7.220   8.781   8.354 -0.2217  0.0696  0.2001
  985MOL0     N32857   7.136   8.885   8.283  0.0095  0.1610 -0.7436
  985MOL0     C32858   7.053   8.847   8.177 -0.0627 -0.3677  0.3222
  985MOL0     C32859   6.998   8.959   8.138  0.8379 -0.4632 -0.5594
  985MOL0     C32860   6.900   8.977   8.030  0.2699  0.0145  0.1159
  985MOL0     C32861   6.926   8.884   7.907 -0.6531 -0.1518  0.9661
  985MOL0     C32862   7.056   8.923   7.831 -0.3331  0.0419 -0.2454
  985MOL0     C32863   7.076   8.834   7.711 -0.0832  0.8474 -0.7355
  985MOL0     O32864   7.203   8.867   7.658  0.1924 -0.2513 -0.5492
  985MOL0     C32865   7.258   8.778   7.573  0.4538  0.6090  0.1887
  985MOL0     C32866   7.247   8.639   7.587 -0.5161 -0.2585  0.9465
  985MOL0     C32867   7.296   8.558   7.486  0.0467  0.3733  0.8757
  985MOL0     C32868   7.360   8.610   7.373 -0.1564  0.6808  0.1100
  985MOL0     C32869   7.418   8.522   7.278  1.0068 -0.8634  0.0075
  985MOL0     O32870   7.419   8.390   7.316  0.0449  0.2223 -0.2533
  985MOL0     C32871   7.514   8.309   7.256  0.9922 -0.2176  0.0259
  985MOL0     C32872   7.487   8.175   7.244 -0.6636  0.5399  0.1341
  985MOL0     C32873   7.581   8.080   7.194 -0.2694  0.5327 -0.8316
  985MOL0     C32874   7.710   8.131   7.169 -0.5183 -0.2344  0.1825
  985MOL0     O32875   7.804   8.037   7.125  0.5477 -0.5786  0.5581
  985MOL0     C32876   7.943   8.053   7.152 -0.1018 -0.0913 -0.1366
  985MOL0     C32877   8.026   7.952   7.060  0.1535 -0.0180  1.2122
  985MOL0     C32878   8.161   7.940   7.112 -0.0216  0.4708  0.5055
  985MOL0     C32879   8.242   7.847   7.020 -0.4059  0.0886 -0.4550
  985MOL0     C32880   8.386   7.859   7.068 -1.4938  0.8006 -0.0337
  985MOL0     C32881   8.480   7.744   7.011 -0.7563 -0.7966 -0.4889
  985MOL0     C32882   8.629   7.744   7.064  0.1334 -0.5534 -0.1812
  985MOL0     C32883   8.701   7.611   7.028  0.0162  0.5402  1.1726
  985MOL0    Cl32884   8.870   7.615   7.093 -0.3575 -0.0653  0.2320
  985MOL0     C32885   7.743   8.267   7.182  0.5762  0.1756  0.1547
  985MOL0     C32886   7.643   8.357   7.221  0.0888 -0.3913  0.4492
  985MOL0     O32887   7.468   8.573   7.176 -0.2971  0.2555 -0.5000
  985MOL0     C32888   7.365   8.747   7.363 -0.5793 -0.0886 -0.5728
  985MOL0     C32889   7.317   8.830   7.462 -0.7068  0.3440 -0.1003
  985MOL0     N32890   7.042   9.066   8.217  0.3886 -0.3263 -0.4083
  985MOL0     N32891   7.130   9.022   8.303  0.1828  0.2319  0.1516
  985MOL0     C32892   7.236   8.584   7.946 -1.1929 -1.2303  0.5282
  985MOL0     C32893   7.142   8.485   7.928 -0.3633 -0.0221  0.5629
  985MOL0     C32894   6.861   8.202   7.765 -0.3585 -0.8529 -0.0346
  985MOL0     C32895   6.897   8.072   7.792  0.2316  0.3243  0.6746
  985MOL0     C32896   6.813   7.959   7.757 -0.0975 -0.9444 -0.8810
  985MOL0     C32897   6.685   7.982   7.716 -0.2509 -0.2227 -0.2796
  985MOL0     O32898   6.611   7.862   7.711  0.3535 -0.3901 -0.0408
  985MOL0     C32899   6.468   7.861   7.729  0.0603 -0.7810  0.4013
  985MOL0     C32900   6.400   7.920   7.598  0.8655 -0.3312  0.7043
  985MOL0     C32901   6.364   7.805   7.509  0.2428  0.3777  0.0736
  985MOL0     C32902   6.263   7.822   7.384 -0.2485 -0.6372 -0.5772
  985MOL0     C32903   6.123   7.820   7.428  0.1362 -0.4779 -0.6144
  985MOL0     C32904   6.010   7.824   7.465  0.6934  1.3253  0.2239
  985MOL0     C32905   6.641   8.115   7.695  0.2243  0.1542 -0.0100
  985MOL0     C32906   6.727   8.224   7.723 -0.6213 -0.2172 -0.7330
  985MOL0     C32907   6.668   8.362   7.711  0.1246 -0.2769 -0.8407
  985MOL0     H32908   7.334   8.248   7.768  2.5417 -0.2582  1.2034
  985MOL0     H32909   7.506   8.431   7.814  0.4153  0.3788  2.9317
  985MOL0     H32910   7.438   8.765   7.761  1.6841 -2.5714 -0.0034
  985MOL0     H32911   7.350   8.820   7.905 -1.0406  0.4317 -3.6945
  985MOL0     H32912   7.531   8.977   7.836 -3.3317 -1.0362  0.4452
  985MOL0     H32913   7.662   8.846   7.868 -0.2444 -2.9724  3.2226
  985MOL0     H32914   7.452   8.955   8.060  0.0192  2.7575 -1.6077
  985MOL0     H32915   7.597   9.031   8.050 -0.8896  1.4257 -3.2504
  985MOL0     H32916   7.575   8.728   8.121  0.1082 -0.0755 -0.5383
  985MOL0     H32917   7.720   8.816   8.112 -0.4213 -0.3136 -0.9670
  985MOL0     H32918   7.649   8.791   8.322  3.2084  1.9783  0.3682
  985MOL0     H32919   7.650   8.962   8.295 -1.8432  0.4771 -1.2759
  985MOL0     H32920   7.457   8.862   8.433 -0.1531  0.5828  0.7125
  985MOL0     H32921   7.411   8.976   8.299 -2.5513 -0.3836 -0.4567
  985MOL0     H32922   7.380   8.674   8.312 -1.3134 -0.4003 -1.6997
  985MOL0     H32923   7.335   8.779   8.168 -1.8033 -0.8428 -0.5871
  985MOL0     H32924   7.167   8.686   8.359  1.4744 -1.2396 -3.4537
  985MOL0     H32925   7.237   8.818   8.456 -0.7367 -1.4428  0.8486
  985MOL0     H32926   7.038   8.750   8.131  0.4964 -0.7402  0.8951
  985MOL0     H32927   6.802   8.959   8.075  0.8563  0.8512  1.8262
  985MOL0     H32928   6.896   9.082   8.001 -1.6216 -0.0025  0.1945
  985MOL0     H32929   6.939   8.779   7.936  3.0222 -1.2424 -3.3987
  985MOL0     H32930   6.846   8.877   7.833  1.5328  0.9677 -1.6725
  985MOL0     H32931   7.143   8.907   7.894 -1.1844 -2.1082  0.5003
  985MOL0     H32932   7.049   9.028   7.801  0.0445 -0.1176 -0.8995
  985MOL0     H32933   6.998   8.861   7.639 -1.8630 -2.5141 -0.2524
  985MOL0     H32934   7.075   8.729   7.742  2.0564  0.8660 -0.4479
  985MOL0     H32935   7.201   8.588   7.672  2.5938 -2.6300  1.4030
  985MOL0     H32936   7.301   8.451   7.502  0.0935  0.5146  1.8285
  985MOL0     H32937   7.391   8.145   7.286 -0.6232 -0.6539 -0.5776
  985MOL0     H32938   7.562   7.975   7.177  0.3755  0.5147 -1.5056
  985MOL0     H32939   7.975   8.157   7.138 -2.2017  1.2050  3.2967
  985MOL0     H32940   7.957   8.031   7.259 -0.7734  2.5346  0.5650
  985MOL0     H32941   7.981   7.853   7.071 -0.9423  0.6032  2.6559
  985MOL0     H32942   8.025   7.985   6.956 -0.2925  0.1453  1.2658
  985MOL0     H32943   8.199   8.041   7.133 -1.5784  0.9812  1.0318
  985MOL0     H32944   8.155   7.899   7.213 -2.8954 -1.0281 -0.1816
  985MOL0     H32945   8.240   7.871   6.914 -2.7759 -0.1255 -0.5148
  985MOL0     H32946   8.199   7.746   7.029  2.3330 -1.1822 -0.6616
  985MOL0     H32947   8.396   7.847   7.176 -2.1631 -0.0079 -0.0525
  985MOL0     H32948   8.413   7.959   7.033 -3.3655  1.9070  1.5058
  985MOL0     H32949   8.430   7.650   7.034 -0.0717 -1.4899 -1.7392
  985MOL0     H32950   8.489   7.759   6.903 -3.3342  1.4495 -0.5300
  985MOL0     H32951   8.610   7.749   7.172  0.2659  2.3268 -0.2141
  985MOL0     H32952   8.690   7.830   7.035 -2.1276  0.0308 -3.7101
  985MOL0     H32953   8.649   7.530   7.079  0.6528 -1.3643 -1.0659
  985MOL0     H32954   8.692   7.600   6.920  2.3606 -0.6422  1.0416
  985MOL0     H32955   7.843   8.304   7.161  0.3906  0.6700  0.1498
  985MOL0     H32956   7.677   8.458   7.240  0.8591 -1.0670  3.0929
  985MOL0     H32957   7.417   8.796   7.281 -2.4678 -0.7765 -2.2563
  985MOL0     H32958   7.320   8.933   7.426 -0.1017 -0.5147 -2.7923
  985MOL0     H32959   7.213   8.681   7.991  1.1635 -0.2767 -0.1803
  985MOL0     H32960   7.040   8.502   7.960 -0.5293 -0.7681  0.4448
  985MOL0     H32961   6.996   8.040   7.823 -1.0100 -1.2559  3.2860
  985MOL0     H32962   6.851   7.859   7.775  2.4491  0.1326  0.4091
  985MOL0     H32963   6.452   7.928   7.814  4.5426  1.7400 -0.4283
  985MOL0     H32964   6.428   7.762   7.751 -2.5533  0.1001 -0.0719
  985MOL0     H32965   6.474   7.979   7.544 -0.5227  0.6720 -0.1643
  985MOL0     H32966   6.320   7.990   7.625 -0.9464 -2.2911  0.7057
  985MOL0     H32967   6.325   7.725   7.574 -0.0102  0.3650 -0.0947
  985MOL0     H32968   6.459   7.774   7.464 -0.2555 -0.9144 -0.1394
  985MOL0     H32969   6.286   7.908   7.321  2.0979  0.3262  1.4406
  985MOL0     H32970   6.270   7.731   7.324 -1.6563 -1.9875  1.1528
  985MOL0     H32971   5.907   7.832   7.492  0.1751 -0.0913 -1.1777
  985MOL0     H32972   6.539   8.127   7.662 -0.8957 -1.6156  2.4883
  985MOL0     H32973   6.694   8.412   7.617  1.3949  0.8497  0.0806
  985MOL0     H32974   6.560   8.352   7.722  0.3280 -1.7524  0.1037
  985MOL0     H32975   6.703   8.425   7.793 -2.2122  0.9941 -0.7431
  986MOL0     O32976   4.846   1.854   5.213  0.1323 -0.2181  0.4706
  986MOL0     C32977   4.789   1.752   5.200 -0.0882 -0.3775 -0.5028
  986MOL0     O32978   4.840   1.632   5.186 -0.0240 -0.5781  0.4286
  986MOL0     C32979   4.971   1.591   5.203 -0.8042 -0.9272  0.1355
  986MOL0     C32980   5.006   1.456   5.192  0.3875  0.5873  0.3793
  986MOL0     C32981   5.134   1.407   5.199  0.2887  1.1256 -0.0772
  986MOL0     C32982   5.245   1.497   5.210 -0.1137  0.6423 -0.1753
  986MOL0     O32983   5.374   1.458   5.227  0.0971 -0.4601  0.4673
  986MOL0     C32984   5.398   1.318   5.199 -0.2081 -0.1613 -0.0924
  986MOL0     C32985   5.545   1.292   5.190 -0.5887 -0.1610 -0.5805
  986MOL0     C32986   5.605   1.240   5.321  0.2746  0.6949 -0.1674
  986MOL0     C32987   5.748   1.188   5.299  0.3251 -0.0448 -0.3615
  986MOL0     C32988   5.795   1.126   5.440  0.1308 -0.3850  0.6250
  986MOL0     C32989   5.940   1.072   5.425  0.0620 -0.0409  0.2086
  986MOL0     C32990   6.025   1.057   5.554 -0.8039  0.0350  0.1404
  986MOL0     C32991   6.083   1.181   5.629 -0.1677 -0.6171 -0.2090
  986MOL0     N32992   6.135   1.152   5.762  0.2260  1.1577 -0.3326
  986MOL0     C32993   6.071   1.178   5.875 -0.5935  0.0040 -0.0733
  986MOL0     C32994   6.168   1.174   5.974  0.8490 -0.3501  0.0839
  986MOL0     C32995   6.146   1.207   6.119 -0.0433 -0.7498  1.0357
  986MOL0     C32996   6.224   1.110   6.206  0.0281  0.2400  0.0125
  986MOL0     C32997   6.213   1.142   6.361  1.0072  0.6102 -0.1710
  986MOL0     C32998   6.321   1.083   6.451  0.4495  0.9418  0.5218
  986MOL0     O32999   6.326   0.939   6.418 -0.2662  0.2318  0.2723
  986MOL0     C33000   6.423   0.866   6.478 -0.1512  0.3806 -0.3932
  986MOL0     C33001   6.385   0.740   6.525  0.7155  0.3370 -0.0115
  986MOL0     C33002   6.469   0.661   6.598  0.4134  0.7125 -0.5704
  986MOL0     C33003   6.601   0.696   6.624 -0.4023 -0.6242  0.7725
  986MOL0     C33004   6.684   0.626   6.720  0.2218 -0.2610 -0.6289
  986MOL0     O33005   6.799   0.692   6.752 -0.6103  0.4254  0.0113
  986MOL0     C33006   6.881   0.625   6.843  0.8374 -0.5537 -0.3309
  986MOL0     C33007   6.897   0.673   6.976  0.9813 -0.3354 -0.6593
  986MOL0     C33008   6.975   0.611   7.065  0.0058 -0.1984  0.0033
  986MOL0     C33009   7.064   0.502   7.024  0.2201  0.6209 -0.0248
  986MOL0     O33010   7.153   0.457   7.115  0.2642  0.8513  0.0480
  986MOL0     C33011   7.208   0.316   7.109  0.9531 -0.6282  0.1346
  986MOL0     C33012   7.364   0.313   7.128 -0.2683 -1.3599 -0.6356
  986MOL0     C33013   7.407   0.168   7.092  0.0752 -0.2303  0.5494
  986MOL0     C33014   7.540   0.129   7.168 -0.5134  0.0224  0.0714
  986MOL0     C33015   7.659   0.221   7.144  0.6820 -0.1731 -0.0080
  986MOL0     C33016   7.799   0.164   7.201  0.2121 -0.6224  0.6614
  986MOL0     C33017   7.903   0.259   7.151 -0.1949  0.6627  0.3823
  986MOL0     C33018   8.043   0.205   7.176 -0.5444 -1.2361  0.4046
  986MOL0    Cl33019   8.050   0.128   7.321  0.3650 -0.1404  0.0059
  986MOL0     C33020   7.063   0.462   6.885  0.2086  0.1539 -0.3922
  986MOL0     C33021   6.971   0.523   6.797  0.0180 -0.2495 -0.9134
  986MOL0     O33022   6.637   0.520   6.771 -0.6173 -0.2149  0.3674
  986MOL0     C33023   6.646   0.819   6.569 -0.2277  0.3065  0.3861
  986MOL0     C33024   6.552   0.902   6.496 -0.1287  0.0270 -0.7707
  986MOL0     N33025   6.286   1.144   5.912 -0.3623 -0.3581  0.6488
  986MOL0     N33026   6.263   1.137   5.782 -1.0299  0.2831  0.0484
  986MOL0     C33027   5.217   1.640   5.221  0.3264  0.5398  0.5897
  986MOL0     C33028   5.079   1.678   5.212  0.2776  0.3383 -0.7296
  986MOL0     C33029   4.643   1.760   5.185 -0.0984  0.1776 -0.7863
  986MOL0     C33030   4.566   1.649   5.221  0.0936  0.3172 -0.9874
  986MOL0     C33031   4.429   1.643   5.242 -0.4254 -0.8282  0.2321
  986MOL0     C33032   4.361   1.760   5.222 -0.1414 -0.0647 -0.2347
  986MOL0     O33033   4.230   1.755   5.256 -0.2104  0.1630  0.0158
  986MOL0     C33034   4.146   1.868   5.238 -0.3235  0.2792  0.0667
  986MOL0     C33035   4.115   1.893   5.086 -0.5086  0.7673  0.0417
  986MOL0     C33036   4.050   2.026   5.063 -0.4144  0.0587 -0.5873
  986MOL0     C33037   4.150   2.150   5.088  0.4351 -0.1383  0.5581
  986MOL0     C33038   4.244   2.141   4.975  0.4350 -0.0979 -0.0033
  986MOL0     C33039   4.326   2.160   4.891  0.3303 -0.3298  0.3239
  986MOL0     C33040   4.431   1.871   5.182  0.4213  0.2120 -0.3909
  986MOL0     C33041   4.570   1.880   5.158  0.0758 -0.1244 -0.6611
  986MOL0     C33042   4.634   2.014   5.110  0.1858 -0.0874  0.1400
  986MOL0     H33043   4.916   1.397   5.176  1.5454 -1.5915  1.5480
  986MOL0     H33044   5.134   1.299   5.189 -0.5404  1.0159  0.8972
  986MOL0     H33045   5.355   1.265   5.284 -1.9044  1.8984  0.4331
  986MOL0     H33046   5.362   1.281   5.103 -1.6908  2.0178 -0.4421
  986MOL0     H33047   5.593   1.385   5.160  0.6934 -0.0579  1.5625
  986MOL0     H33048   5.578   1.222   5.114  2.7151 -0.3508  0.8542
  986MOL0     H33049   5.550   1.161   5.372  3.9283 -0.3499  2.5870
  986MOL0     H33050   5.606   1.324   5.391  0.4102 -0.3517  1.1070
  986MOL0     H33051   5.736   1.104   5.230 -0.6165 -2.7082  2.7610
  986MOL0     H33052   5.819   1.262   5.261 -1.1042  0.7454 -1.5734
  986MOL0     H33053   5.807   1.204   5.516  0.7949 -2.5570  2.8517
  986MOL0     H33054   5.733   1.049   5.486  0.4391 -2.0115 -1.5621
  986MOL0     H33055   5.922   0.976   5.376 -1.9368  0.1277  0.5270
  986MOL0     H33056   5.983   1.142   5.352 -0.4102 -0.7492 -0.7733
  986MOL0     H33057   6.106   0.988   5.531  0.5596  1.2055  1.2622
  986MOL0     H33058   5.964   1.004   5.628 -0.5219 -0.2327  0.1800
  986MOL0     H33059   6.172   1.217   5.576 -0.4646 -1.6533 -1.4626
  986MOL0     H33060   6.013   1.265   5.625  1.7887  1.0271 -2.2866
  986MOL0     H33061   5.969   1.213   5.887 -0.2437  0.6548  1.1307
  986MOL0     H33062   6.173   1.310   6.147 -1.9958 -0.6342  2.7227
  986MOL0     H33063   6.040   1.209   6.143 -0.7640  0.4396 -1.8731
  986MOL0     H33064   6.187   1.012   6.174  0.9845  0.4345 -1.8297
  986MOL0     H33065   6.328   1.107   6.172  0.1034  0.2428  0.2390
  986MOL0     H33066   6.121   1.105   6.407  1.8138 -1.9378 -0.4589
  986MOL0     H33067   6.210   1.251   6.366  0.9755  0.6112 -0.2113
  986MOL0     H33068   6.291   1.094   6.555  0.1978  0.2326  0.5299
  986MOL0     H33069   6.418   1.124   6.420  1.3341 -2.4910 -1.9333
  986MOL0     H33070   6.279   0.719   6.521  0.6874 -0.3959  2.7676
  986MOL0     H33071   6.433   0.567   6.638 -0.6720 -0.1887 -3.4055
  986MOL0     H33072   6.854   0.762   7.019  2.8369  0.3184 -0.0460
  986MOL0     H33073   6.993   0.653   7.164 -0.3332  0.9651 -0.4152
  986MOL0     H33074   7.159   0.259   7.189  1.6988  1.5604  2.2828
  986MOL0     H33075   7.181   0.268   7.015  0.8710  1.5506 -1.0226
  986MOL0     H33076   7.409   0.385   7.059 -2.5851 -0.5151 -1.3690
  986MOL0     H33077   7.378   0.352   7.229 -0.1207  0.6136 -1.3752
  986MOL0     H33078   7.337   0.096   7.134 -1.1922 -0.3702 -1.6957
  986MOL0     H33079   7.411   0.167   6.983 -0.6641  1.0743  0.4901
  986MOL0     H33080   7.575   0.027   7.148 -0.1211 -0.1579  1.5431
  986MOL0     H33081   7.513   0.123   7.273  0.7203 -3.5053  0.3417
  986MOL0     H33082   7.635   0.314   7.196 -0.8161  0.0921 -1.1077
  986MOL0     H33083   7.663   0.240   7.036 -1.5778 -1.0032 -0.3074
  986MOL0     H33084   7.797   0.167   7.310  1.4652 -0.4934  0.6936
  986MOL0     H33085   7.814   0.065   7.157 -0.2698 -1.1264  1.6054
  986MOL0     H33086   7.896   0.355   7.202  1.1357  0.5815  0.7645
  986MOL0     H33087   7.897   0.290   7.046  0.6512  0.7207  0.3456
  986MOL0     H33088   8.071   0.137   7.095 -0.6036 -1.3254  0.4594
  986MOL0     H33089   8.111   0.289   7.162 -2.1781 -0.2171 -2.2194
  986MOL0     H33090   7.129   0.387   6.842  0.7009  0.0822  0.4718
  986MOL0     H33091   6.966   0.493   6.693  2.0408 -2.1169 -0.5458
  986MOL0     H33092   6.754   0.833   6.561  0.1544 -2.6418 -1.4600
  986MOL0     H33093   6.597   0.994   6.460 -2.0704  0.4290 -2.3664
  986MOL0     H33094   5.292   1.713   5.246  2.5227 -1.1403 -0.7045
  986MOL0     H33095   5.071   1.786   5.207  2.2458  0.4810 -3.1984
  986MOL0     H33096   4.632   1.563   5.231 -0.0080  0.4779  1.9943
  986MOL0     H33097   4.378   1.552   5.270 -0.1095 -1.9610 -2.5396
  986MOL0     H33098   4.203   1.953   5.276  1.1436  1.2338 -3.8132
  986MOL0     H33099   4.051   1.865   5.292 -1.2517 -1.0137 -1.5569
  986MOL0     H33100   4.055   1.809   5.052 -1.2575  0.4474  2.0020
  986MOL0     H33101   4.205   1.888   5.024 -1.1395 -0.6217 -0.8178
  986MOL0     H33102   3.953   2.029   5.115  0.0006 -2.2860  0.4475
  986MOL0     H33103   4.023   2.027   4.957  1.7656 -2.6005 -1.2665
  986MOL0     H33104   4.091   2.241   5.074 -0.2915 -0.8391 -1.1578
  986MOL0     H33105   4.201   2.152   5.185 -2.0722  0.4916  1.9577
  986MOL0     H33106   4.406   2.192   4.827  1.0963  2.9477  2.6717
  986MOL0     H33107   4.371   1.960   5.162  0.5818  1.0443  2.4179
  986MOL0     H33108   4.716   1.995   5.039 -0.0415  2.0206 -0.7485
  986MOL0     H33109   4.559   2.076   5.061  1.6907  1.0151 -0.8660
  986MOL0     H33110   4.662   2.076   5.195 -1.5783  0.5031  0.3338
  987MOL0     O33111   3.577   0.261   1.419 -0.5242 -0.3837  0.3051
  987MOL0     C33112   3.650   0.351   1.377 -0.2266  0.1431  0.4925
  987MOL0     O33113   3.598   0.474   1.327  0.8181  0.1542  0.0901
  987MOL0     C33114   3.463   0.492   1.360  0.5276  0.4184  0.9324
  987MOL0     C33115   3.423   0.592   1.444 -0.1435 -0.1447 -0.3404
  987MOL0     C33116   3.291   0.629   1.465  0.3874  0.2156  0.4731
  987MOL0     C33117   3.188   0.563   1.395 -0.6979 -0.2081  0.4403
  987MOL0     O33118   3.060   0.586   1.435 -0.2124 -0.1012 -0.2870
  987MOL0     C33119   2.961   0.567   1.341 -0.3912 -0.5317 -0.2110
  987MOL0     C33120   2.820   0.637   1.358  0.4251 -1.0341  0.3147
  987MOL0     C33121   2.743   0.658   1.221  0.2828  0.8707  0.9683
  987MOL0     C33122   2.599   0.688   1.259 -0.0816  0.0895 -0.9920
  987MOL0     C33123   2.511   0.654   1.147 -0.0757  0.2599  0.0614
  987MOL0     C33124   2.366   0.665   1.202  0.3322 -1.2443  0.2632
  987MOL0     C33125   2.261   0.680   1.101 -0.2543 -0.9427 -0.0160
  987MOL0     C33126   2.254   0.564   1.007  0.3896  0.5147  0.1269
  987MOL0     N33127   2.204   0.436   1.068 -0.5675 -0.6472 -0.2417
  987MOL0     C33128   2.079   0.417   1.123 -0.1731 -0.6733 -0.2382
  987MOL0     C33129   2.081   0.298   1.176 -0.2212  0.5296 -0.0830
  987MOL0     C33130   1.964   0.228   1.235 -0.2156  0.3082 -0.2155
  987MOL0     C33131   1.862   0.193   1.126  0.4473 -1.8505  0.2235
  987MOL0     C33132   1.913   0.073   1.034 -0.5513 -0.4498 -0.1520
  987MOL0     C33133   1.936  -0.064   1.113  0.3302  0.3648 -0.1091
  987MOL0     O33134   1.959  -0.160   1.011  0.3053  0.4965  0.6735
  987MOL0     C33135   2.082  -0.180   0.952 -0.7853  0.0698  0.1016
  987MOL0     C33136   2.092  -0.301   0.870  0.2764 -0.3911 -0.5012
  987MOL0     C33137   2.219  -0.340   0.833  0.4834  0.2768  0.8202
  987MOL0     C33138   2.325  -0.251   0.843 -0.7089 -0.6075 -0.6702
  987MOL0     C33139   2.460  -0.274   0.769 -0.0914  1.0528  0.2353
  987MOL0     O33140   2.553  -0.171   0.768  0.1198  0.4408  0.4790
  987MOL0     C33141   2.667  -0.196   0.695  0.6305  0.0152  0.0899
  987MOL0     C33142   2.660  -0.219   0.560 -0.6403 -0.8889 -0.0752
  987MOL0     C33143   2.775  -0.246   0.486 -0.1715  0.8009  0.4079
  987MOL0     C33144   2.898  -0.240   0.548  0.2717 -0.3391  0.0989
  987MOL0     O33145   3.016  -0.258   0.487  0.3222  0.4241  0.5590
  987MOL0     C33146   3.031  -0.324   0.350  0.0371 -0.7048 -0.5974
  987MOL0     C33147   3.181  -0.366   0.338 -0.0139 -0.3211  0.1395
  987MOL0     C33148   3.205  -0.430   0.200 -0.0686 -0.9229  0.2450
  987MOL0     C33149   3.208  -0.585   0.204  0.4417  0.0537 -0.0275
  987MOL0     C33150   3.196  -0.654   0.066  0.4075 -0.9418  0.6619
  987MOL0     C33151   3.318  -0.619  -0.036 -0.4809  0.2163 -0.5581
  987MOL0     C33152   3.305  -0.700  -0.159 -0.8246  0.4556 -0.1197
  987MOL0     C33153   3.393  -0.640  -0.273  1.2763 -0.1004 -0.2705
  987MOL0    Cl33154   3.347  -0.695  -0.434  0.6330  0.1330  0.3701
  987MOL0     C33155   2.900  -0.212   0.683  0.2909 -0.6254 -0.2747
  987MOL0     C33156   2.784  -0.205   0.757  0.3484  0.2013 -0.3957
  987MOL0     O33157   2.468  -0.380   0.705  0.1557  0.3734 -0.4227
  987MOL0     C33158   2.317  -0.137   0.917 -0.1439  0.0158  0.2652
  987MOL0     C33159   2.195  -0.097   0.975  0.1173 -0.8315 -0.8585
  987MOL0     N33160   2.208   0.246   1.167  0.9356 -0.1365 -0.8629
  987MOL0     N33161   2.284   0.332   1.106 -0.1416  0.4954 -0.6675
  987MOL0     C33162   3.224   0.458   1.313 -0.3230  0.2937  0.5356
  987MOL0     C33163   3.358   0.420   1.292 -1.0390  0.1354  0.6878
  987MOL0     C33164   3.796   0.355   1.390 -0.0967  0.2610  0.5258
  987MOL0     C33165   3.866   0.474   1.383 -0.3951 -0.5880 -0.3412
  987MOL0     C33166   4.008   0.472   1.369 -0.2620 -0.2324  0.8971
  987MOL0     C33167   4.077   0.360   1.386 -0.6616 -0.2275 -0.6531
  987MOL0     O33168   4.217   0.351   1.404 -0.0970  1.0460 -0.1709
  987MOL0     C33169   4.308   0.460   1.387  0.0651  0.7743  0.5776
  987MOL0     C33170   4.437   0.414   1.447 -0.5296  0.8603  0.0474
  987MOL0     C33171   4.563   0.497   1.408  0.2847  0.1590  0.6072
  987MOL0     C33172   4.692   0.450   1.479 -0.7610  0.0073 -0.8478
  987MOL0     C33173   4.687   0.497   1.622  0.2374  0.6404  0.8304
  987MOL0     C33174   4.681   0.539   1.729 -0.3942 -0.0307  0.6134
  987MOL0     C33175   4.011   0.240   1.392 -0.3677 -0.5087 -0.6055
  987MOL0     C33176   3.869   0.233   1.394  0.0243  0.1685 -0.8268
  987MOL0     C33177   3.812   0.099   1.388  0.4798 -0.1622  0.4423
  987MOL0     H33178   3.502   0.644   1.497 -2.1956  2.8927 -0.0052
  987MOL0     H33179   3.269   0.712   1.532  0.6422  2.2095 -1.7870
  987MOL0     H33180   2.987   0.607   1.243 -0.0889 -0.8528 -0.2627
  987MOL0     H33181   2.945   0.459   1.329  0.0496 -0.6383  0.1271
  987MOL0     H33182   2.838   0.737   1.400  0.3053 -0.9576  0.1857
  987MOL0     H33183   2.757   0.580   1.426  1.4879 -1.4813  0.9573
  987MOL0     H33184   2.745   0.559   1.174  2.0211  0.9846  0.7399
  987MOL0     H33185   2.781   0.735   1.154  2.0893 -0.4102  0.4467
  987MOL0     H33186   2.562   0.629   1.343 -1.9743  2.4009 -0.0824
  987MOL0     H33187   2.572   0.790   1.287  3.4490  1.3595 -1.7501
  987MOL0     H33188   2.529   0.734   1.074  3.3702  0.0141  0.4603
  987MOL0     H33189   2.527   0.559   1.096 -0.1850  0.3850 -0.2100
  987MOL0     H33190   2.346   0.569   1.249  2.5035 -1.8273  0.0842
  987MOL0     H33191   2.360   0.745   1.276  1.2554  1.0679 -2.0022
  987MOL0     H33192   2.255   0.773   1.044 -1.9313 -0.4785  0.8577
  987MOL0     H33193   2.166   0.681   1.156 -1.0029 -2.0895 -1.2014
  987MOL0     H33194   2.174   0.587   0.935 -0.0409  0.1213  0.4669
  987MOL0     H33195   2.349   0.557   0.953  0.4860 -0.9446  0.4588
  987MOL0     H33196   1.990   0.478   1.117  0.1879 -0.2593 -1.5677
  987MOL0     H33197   2.004   0.138   1.283 -0.6220 -0.0041 -0.4428
  987MOL0     H33198   1.921   0.301   1.304 -2.2489 -1.5378  0.6216
  987MOL0     H33199   1.768   0.169   1.177  1.4013 -1.0122  2.5051
  987MOL0     H33200   1.841   0.286   1.072  0.0247 -1.5977  0.8078
  987MOL0     H33201   1.998   0.116   0.981  1.1534 -1.4079  1.6660
  987MOL0     H33202   1.831   0.045   0.968 -1.3344  1.3952 -0.0391
  987MOL0     H33203   1.844  -0.091   1.166 -3.0148  2.5960 -4.1236
  987MOL0     H33204   2.018  -0.063   1.184  1.4680 -4.3112 -1.0652
  987MOL0     H33205   2.003  -0.362   0.862  1.1438 -1.8693  0.6408
  987MOL0     H33206   2.224  -0.425   0.766 -0.8138  1.4234 -0.8151
  987MOL0     H33207   2.568  -0.194   0.510 -1.4964  0.5243  2.0741
  987MOL0     H33208   2.767  -0.272   0.380 -3.0881  0.2478  0.6804
  987MOL0     H33209   2.956  -0.402   0.333 -0.4845 -0.1577 -0.8481
  987MOL0     H33210   3.014  -0.254   0.267 -0.3571 -0.4590 -0.3126
  987MOL0     H33211   3.249  -0.281   0.349  1.6663 -1.5414 -0.4379
  987MOL0     H33212   3.193  -0.441   0.417 -1.2037 -0.0960  0.5598
  987MOL0     H33213   3.138  -0.388   0.123  1.0067 -1.4473 -1.0184
  987MOL0     H33214   3.303  -0.407   0.158  0.6144 -2.8912  0.6805
  987MOL0     H33215   3.129  -0.621   0.270  1.7665  2.1249  2.9503
  987MOL0     H33216   3.302  -0.620   0.249  0.9916  0.2225 -1.0194
  987MOL0     H33217   3.105  -0.619   0.017  0.3210 -0.2471  1.3145
  987MOL0     H33218   3.188  -0.763   0.069 -0.5356 -1.1217 -3.1726
  987MOL0     H33219   3.320  -0.513  -0.061 -0.2479  0.7174  1.4199
  987MOL0     H33220   3.408  -0.653   0.016 -1.5482  1.1651  2.0763
  987MOL0     H33221   3.204  -0.728  -0.191  0.5687 -3.1072 -2.0277
  987MOL0     H33222   3.344  -0.800  -0.137 -2.0269  0.1045  0.4961
  987MOL0     H33223   3.370  -0.533  -0.276 -0.0513 -0.3883 -1.2571
  987MOL0     H33224   3.499  -0.667  -0.263  0.7976 -2.0909 -0.2287
  987MOL0     H33225   2.995  -0.228   0.732  0.1493 -0.5014  0.0462
  987MOL0     H33226   2.775  -0.198   0.864 -2.0627 -2.2119 -0.3376
  987MOL0     H33227   2.403  -0.074   0.933  0.5320 -0.4364 -1.4657
  987MOL0     H33228   2.197  -0.014   1.045  1.0064 -1.4226 -0.1579
  987MOL0     H33229   3.153   0.396   1.260 -0.1651  0.4761  0.1038
  987MOL0     H33230   3.390   0.332   1.236 -3.8929  0.0015 -0.9100
  987MOL0     H33231   3.830   0.576   1.388 -0.4612 -0.6193 -0.1421
  987MOL0     H33232   4.062   0.559   1.334 -0.2596 -1.1860 -1.6977
  987MOL0     H33233   4.268   0.547   1.438  0.7659  1.5450 -0.1608
  987MOL0     H33234   4.322   0.479   1.280  1.3717 -1.0762  0.3610
  987MOL0     H33235   4.461   0.310   1.425  0.0612  0.8609  0.6586
  987MOL0     H33236   4.426   0.420   1.556  0.9643 -1.7537  0.4271
  987MOL0     H33237   4.542   0.601   1.434 -0.2185 -0.1167  1.3427
  987MOL0     H33238   4.583   0.492   1.300  1.0751  0.6579  0.7246
  987MOL0     H33239   4.720   0.345   1.470 -0.0123  0.3532 -3.1685
  987MOL0     H33240   4.769   0.512   1.433 -4.2021  3.7147 -2.2199
  987MOL0     H33241   4.670   0.570   1.832 -3.2740  0.8490  0.1352
  987MOL0     H33242   4.081   0.158   1.405  0.4397  0.3008  0.3661
  987MOL0     H33243   3.892   0.027   1.374  1.1191  0.7205 -0.6751
  987MOL0     H33244   3.757   0.077   1.480 -0.5440  2.0297  0.4372
  987MOL0     H33245   3.738   0.097   1.306  0.0169  0.7948  0.8110
  988MOL0     O33246   6.251   7.598  10.869  0.3336 -0.4328  0.2929
  988MOL0     C33247   6.178   7.564  10.958 -0.6836  0.7816 -0.1723
  988MOL0     O33248   6.225   7.532  11.088  0.2153  0.2060  0.2895
  988MOL0     C33249   6.360   7.531  11.115 -1.1976 -0.7547  0.1555
  988MOL0     C33250   6.457   7.467  11.038 -0.3352  0.4150 -0.5298
  988MOL0     C33251   6.583   7.435  11.091  0.5582 -0.2037 -0.7452
  988MOL0     C33252   6.633   7.501  11.204  0.6010 -0.1578 -0.1289
  988MOL0     O33253   6.765   7.484  11.236 -0.2601 -0.5196  0.7606
  988MOL0     C33254   6.822   7.569  11.335  0.5014 -0.5438  0.7596
  988MOL0     C33255   6.972   7.567  11.334  0.9464  0.1119  0.0382
  988MOL0     C33256   7.040   7.435  11.358 -0.5294 -0.2730 -0.8625
  988MOL0     C33257   7.048   7.333  11.238  0.5524  0.3274 -0.5887
  988MOL0     C33258   7.136   7.207  11.261  0.5082  0.3105 -0.3925
  988MOL0     C33259   7.059   7.085  11.330  0.5161 -0.1520  0.0458
  988MOL0     C33260   7.147   6.962  11.326  0.1328 -0.0451  0.6353
  988MOL0     C33261   7.191   6.912  11.181  0.2233  0.2084 -0.6428
  988MOL0     N33262   7.195   6.766  11.158 -0.0946  0.6129  0.1975
  988MOL0     C33263   7.290   6.686  11.091  0.1549 -0.2374 -0.2913
  988MOL0     C33264   7.253   6.558  11.113  0.1709  0.1900 -0.1281
  988MOL0     C33265   7.316   6.440  11.042 -0.6846 -0.5546 -0.2039
  988MOL0     C33266   7.453   6.413  11.109 -0.3743  0.4585  0.2175
  988MOL0     C33267   7.517   6.290  11.052 -0.1679 -0.0203  0.1731
  988MOL0     C33268   7.665   6.318  11.047 -0.2334 -0.8124 -0.3818
  988MOL0     O33269   7.733   6.337  11.176 -0.1987 -0.2581 -0.4367
  988MOL0     C33270   7.871   6.349  11.182 -1.2599  0.2700  0.6857
  988MOL0     C33271   7.967   6.318  11.074  0.4173 -0.4074 -0.7843
  988MOL0     C33272   8.102   6.336  11.098 -0.3728 -0.1732  0.2627
  988MOL0     C33273   8.141   6.370  11.226 -0.6972 -0.3675 -0.8625
  988MOL0     C33274   8.290   6.387  11.256  1.1914 -0.2315  0.3120
  988MOL0     O33275   8.331   6.490  11.342  0.5114  0.4478  0.0094
  988MOL0     C33276   8.468   6.503  11.353  0.2634 -0.0299 -0.5070
  988MOL0     C33277   8.525   6.467  11.479 -0.0468 -0.1031  0.0205
  988MOL0     C33278   8.660   6.503  11.509  0.6426 -0.0218 -0.5331
  988MOL0     C33279   8.740   6.564  11.409 -0.7883  0.2884  0.1491
  988MOL0     O33280   8.864   6.620  11.418 -0.5603  0.1457 -0.2077
  988MOL0     C33281   8.920   6.616  11.550  0.2206  0.7301  0.3525
  988MOL0     C33282   9.056   6.703  11.552  0.3985 -0.0529 -0.0858
  988MOL0     C33283   9.112   6.719  11.692  0.0007  0.1862  0.3470
  988MOL0     C33284   9.249   6.781  11.699  0.3143 -0.4679 -0.1217
  988MOL0     C33285   9.296   6.782  11.844  0.1266 -0.0785  0.8081
  988MOL0     C33286   9.445   6.784  11.852 -0.5141 -0.2704 -0.4138
  988MOL0     C33287   9.503   6.923  11.807 -0.3021  0.0152 -0.8401
  988MOL0     C33288   9.477   7.046  11.896  0.4056  0.4280  0.8875
  988MOL0    Cl33289   9.509   7.202  11.823 -0.4796  0.0264  0.0088
  988MOL0     C33290   8.681   6.581  11.277  0.2422  0.3008  0.3983
  988MOL0     C33291   8.552   6.556  11.253  0.0658  0.1512 -0.5250
  988MOL0     O33292   8.365   6.308  11.199 -0.4585 -0.0542 -1.0086
  988MOL0     C33293   8.045   6.410  11.330 -0.1436  0.1335  0.3063
  988MOL0     C33294   7.915   6.404  11.305  0.0963  0.6261 -0.0912
  988MOL0     N33295   7.145   6.557  11.204 -0.5779 -1.0362  1.0879
  988MOL0     N33296   7.111   6.674  11.229 -0.2952  0.2448 -0.2605
  988MOL0     C33297   6.536   7.567  11.282 -0.1693  0.7937 -0.1866
  988MOL0     C33298   6.402   7.583  11.237 -0.9707 -0.0661 -0.1913
  988MOL0     C33299   6.034   7.540  10.935 -0.0244 -0.4740 -0.1815
  988MOL0     C33300   5.972   7.441  11.010  0.2046 -1.1095 -0.8092
  988MOL0     C33301   5.839   7.412  10.989  0.1060  0.0378  0.4023
  988MOL0     C33302   5.758   7.472  10.893 -0.2685 -0.6958  0.0122
  988MOL0     O33303   5.622   7.454  10.881 -0.2557 -0.5437 -0.5557
  988MOL0     C33304   5.557   7.354  10.964 -0.1926  0.6857  0.3620
  988MOL0     C33305   5.583   7.207  10.908 -0.7646 -0.0883 -0.0944
  988MOL0     C33306   5.528   7.106  11.020 -1.0053 -0.2510  0.5658
  988MOL0     C33307   5.560   6.966  10.992 -0.6114 -0.0580  0.1965
  988MOL0     C33308   5.549   6.877  11.113 -0.1335 -0.5010 -0.5147
  988MOL0     C33309   5.551   6.803  11.216 -0.1448 -0.8096  0.1507
  988MOL0     C33310   5.826   7.561  10.808 -0.2083  0.3774  0.0488
  988MOL0     C33311   5.957   7.602  10.835  0.4562  1.2321  0.3153
  988MOL0     C33312   5.999   7.719  10.760 -0.4902 -0.7151 -0.3904
  988MOL0     H33313   6.436   7.434  10.937  1.5696  0.8130 -1.0961
  988MOL0     H33314   6.652   7.377  11.031  3.0396  0.6786  1.0417
  988MOL0     H33315   6.797   7.675  11.325  3.1736  0.2019  1.1004
  988MOL0     H33316   6.783   7.548  11.435 -0.5160 -0.3881  0.3988
  988MOL0     H33317   7.011   7.642  11.403  1.5364 -0.2816  0.1452
  988MOL0     H33318   7.003   7.599  11.234 -0.1020  0.9708 -0.0350
  988MOL0     H33319   6.996   7.389  11.447 -0.4404  2.2199  0.5534
  988MOL0     H33320   7.140   7.457  11.396 -1.3845  0.8890  0.8176
  988MOL0     H33321   6.946   7.301  11.215 -0.1210  0.6334  1.6996
  988MOL0     H33322   7.083   7.376  11.143 -0.4077  0.9489 -0.6757
  988MOL0     H33323   7.166   7.175  11.161  1.1784  1.3733 -0.5410
  988MOL0     H33324   7.228   7.239  11.312  0.5509  1.5337 -1.1960
  988MOL0     H33325   7.040   7.097  11.438 -2.1454 -1.6428 -0.1767
  988MOL0     H33326   6.965   7.057  11.282 -0.1956 -2.1892  2.4371
  988MOL0     H33327   7.081   6.887  11.370 -0.1715 -0.9890 -1.3524
  988MOL0     H33328   7.235   6.973  11.389  0.5688 -0.4898  0.1070
  988MOL0     H33329   7.114   6.965  11.123 -0.7796 -1.6552 -1.1146
  988MOL0     H33330   7.282   6.955  11.140  0.0061  3.0863  1.5817
  988MOL0     H33331   7.373   6.713  11.026  1.2980 -0.3435  1.0744
  988MOL0     H33332   7.260   6.347  11.058  1.4597 -2.1770 -1.6176
  988MOL0     H33333   7.321   6.443  10.933 -1.5151 -0.5633 -0.2502
  988MOL0     H33334   7.515   6.501  11.093  0.0943 -0.1680 -1.6617
  988MOL0     H33335   7.434   6.410  11.217  0.7746  4.8303  0.7174
  988MOL0     H33336   7.490   6.270  10.948 -2.2069 -1.1004  0.8674
  988MOL0     H33337   7.501   6.202  11.115  1.7486 -0.2178  0.4495
  988MOL0     H33338   7.681   6.410  10.990 -0.5242 -2.0104 -2.5358
  988MOL0     H33339   7.715   6.232  11.000  1.7278 -0.0917  0.2732
  988MOL0     H33340   7.927   6.289  10.978  2.8396  0.9183 -2.3116
  988MOL0     H33341   8.167   6.315  11.013 -1.6066  2.7135 -1.5706
  988MOL0     H33342   8.452   6.425  11.548 -0.9510  0.7803 -0.3672
  988MOL0     H33343   8.700   6.481  11.608 -2.0231  0.0288  0.6167
  988MOL0     H33344   8.853   6.660  11.624 -0.6735  0.1583 -0.0957
  988MOL0     H33345   8.942   6.515  11.584 -0.5855  0.5824  0.4516
  988MOL0     H33346   9.129   6.664  11.481  1.5425 -0.5010  1.2906
  988MOL0     H33347   9.035   6.805  11.520  1.0805 -0.4520 -1.9397
  988MOL0     H33348   9.035   6.767  11.753 -0.9461  0.0225 -0.6953
  988MOL0     H33349   9.114   6.617  11.731 -1.3727 -1.0282 -2.5260
  988MOL0     H33350   9.250   6.879  11.651  0.3961 -1.3180 -1.9279
  988MOL0     H33351   9.313   6.714  11.641  0.6419 -0.5924  0.3780
  988MOL0     H33352   9.258   6.690  11.890 -1.5666  0.2732  0.1833
  988MOL0     H33353   9.238   6.863  11.888  0.5254  0.4321  0.4097
  988MOL0     H33354   9.478   6.757  11.953  0.5927 -3.6985 -1.5693
  988MOL0     H33355   9.495   6.713  11.786  0.4335  0.4857 -0.5296
  988MOL0     H33356   9.471   6.943  11.704 -0.6575  0.9862 -0.5503
  988MOL0     H33357   9.612   6.918  11.801 -0.2303 -1.3944  0.8498
  988MOL0     H33358   9.369   7.047  11.913  0.2318 -1.4261  0.1774
  988MOL0     H33359   9.527   7.024  11.991 -0.6930 -0.6218  1.2498
  988MOL0     H33360   8.739   6.609  11.190  0.1309  0.0417  0.2408
  988MOL0     H33361   8.522   6.577  11.151 -0.8502 -1.3881 -0.5972
  988MOL0     H33362   8.083   6.449  11.424  0.6910  1.1970 -0.4523
  988MOL0     H33363   7.844   6.428  11.383  0.7090  0.0621  0.6559
  988MOL0     H33364   6.551   7.600  11.384  0.6331  2.5988 -0.8488
  988MOL0     H33365   6.318   7.626  11.291  0.3042  1.2258  0.8677
  988MOL0     H33366   6.020   7.391  11.094 -1.3610 -0.4308  0.5474
  988MOL0     H33367   5.805   7.345  11.067 -3.3947  2.7614  1.4338
  988MOL0     H33368   5.449   7.366  10.957 -0.2179  0.5510  0.5188
  988MOL0     H33369   5.591   7.360  11.068  2.1073 -1.4875 -0.1586
  988MOL0     H33370   5.688   7.176  10.908 -0.7215 -0.0186 -1.6036
  988MOL0     H33371   5.532   7.186  10.813 -1.2934  0.6628  0.0142
  988MOL0     H33372   5.422   7.128  11.034 -1.0998 -0.3398  0.0003
  988MOL0     H33373   5.578   7.139  11.112 -0.8851 -0.1198  0.4528
  988MOL0     H33374   5.486   6.934  10.918  0.0364  0.2295 -0.5867
  988MOL0     H33375   5.657   6.941  10.947 -1.4366 -2.9786 -0.1641
  988MOL0     H33376   5.531   6.732  11.293  1.7571  0.9757  2.4385
  988MOL0     H33377   5.776   7.616  10.730 -1.0276 -2.3276 -1.4396
  988MOL0     H33378   5.916   7.776  10.718  1.7425  2.2789 -1.0393
  988MOL0     H33379   6.059   7.784  10.824 -0.6499 -0.1235 -0.8348
  988MOL0     H33380   6.057   7.690  10.672  2.3905  1.8665  0.4852
  989MOL0     O33381   6.142   1.785   0.319 -0.0436 -0.3713 -0.7235
  989MOL0     C33382   6.127   1.823   0.436  0.8567 -0.2235  0.1428
  989MOL0     O33383   6.193   1.928   0.492  0.1364  0.1082 -0.3972
  989MOL0     C33384   6.282   1.988   0.413 -0.5282 -1.4285  0.0387
  989MOL0     C33385   6.238   2.076   0.320 -0.0830 -0.4925  0.7333
  989MOL0     C33386   6.316   2.151   0.232  0.1113  0.5953 -0.4335
  989MOL0     C33387   6.456   2.126   0.235 -0.4157 -1.0574  0.7697
  989MOL0     O33388   6.541   2.205   0.164  0.1450 -0.1075  0.5355
  989MOL0     C33389   6.680   2.234   0.208  0.2212 -0.1127 -0.1007
  989MOL0     C33390   6.773   2.121   0.170 -0.5565  0.3459  0.0307
  989MOL0     C33391   6.917   2.169   0.214 -0.9618  0.0375 -0.2845
  989MOL0     C33392   7.014   2.090   0.120 -0.4802  0.2025 -0.7786
  989MOL0     C33393   7.163   2.119   0.161 -0.4419 -0.1468 -0.1115
  989MOL0     C33394   7.232   2.209   0.070 -0.3585  0.5622  0.2180
  989MOL0     C33395   7.379   2.193   0.078 -0.0979 -0.1508  0.2172
  989MOL0     C33396   7.432   2.320   0.022 -0.2684  0.8015 -0.0500
  989MOL0     N33397   7.575   2.338   0.008 -0.7731 -0.4750  0.0100
  989MOL0     C33398   7.652   2.276  -0.082 -0.0150  0.8085 -0.7938
  989MOL0     C33399   7.779   2.313  -0.055  0.8355 -0.6835 -0.8257
  989MOL0     C33400   7.897   2.274  -0.142  0.4654  0.7679  0.3131
  989MOL0     C33401   7.951   2.392  -0.230 -0.1779 -0.3368 -0.4485
  989MOL0     C33402   8.003   2.521  -0.158 -0.2907 -0.3283  0.3348
  989MOL0     C33403   8.125   2.503  -0.073 -0.4350 -0.3279  0.2546
  989MOL0     O33404   8.172   2.634  -0.022  0.4230 -0.2759 -0.1329
  989MOL0     C33405   8.264   2.650   0.077 -0.0585  0.3645 -0.1243
  989MOL0     C33406   8.326   2.536   0.143 -1.2149  0.5313  0.1862
  989MOL0     C33407   8.418   2.557   0.238  0.6245  0.5702 -0.7423
  989MOL0     C33408   8.450   2.686   0.282  0.3403  0.3813  0.0403
  989MOL0     C33409   8.544   2.694   0.394  0.1086  0.4636  0.2893
  989MOL0     O33410   8.522   2.790   0.488  0.0184 -0.9316 -0.0288
  989MOL0     C33411   8.612   2.810   0.583  0.3356  0.3455  0.1343
  989MOL0     C33412   8.662   2.937   0.595  0.8010 -0.4022 -1.3519
  989MOL0     C33413   8.766   2.973   0.684 -0.2766  0.4309  0.6955
  989MOL0     C33414   8.830   2.874   0.756  0.4150  0.4678 -0.6186
  989MOL0     O33415   8.932   2.888   0.840 -0.8546 -0.5005  0.4439
  989MOL0     C33416   8.970   3.019   0.888 -0.4076 -0.3007  0.4503
  989MOL0     C33417   9.078   3.026   0.997  0.5998 -0.5471 -0.4894
  989MOL0     C33418   9.217   2.986   0.959  0.1863  0.2476 -0.8593
  989MOL0     C33419   9.242   2.850   0.884 -0.9728 -0.2088 -0.4309
  989MOL0     C33420   9.396   2.805   0.876  0.4442  0.2642 -0.4055
  989MOL0     C33421   9.467   2.779   1.006 -0.4319 -0.5134 -0.4868
  989MOL0     C33422   9.611   2.731   0.990  0.2938 -0.5108 -0.2190
  989MOL0     C33423   9.670   2.691   1.130  0.4668  0.4293 -0.0175
  989MOL0    Cl33424   9.657   2.817   1.246 -0.1036 -0.1136 -0.7578
  989MOL0     C33425   8.770   2.748   0.765  0.4689 -0.0449  0.2829
  989MOL0     C33426   8.670   2.714   0.673  0.5424 -0.3360  0.3280
  989MOL0     O33427   8.640   2.620   0.386  0.4728 -0.2323  0.5658
  989MOL0     C33428   8.380   2.794   0.232 -0.1697  0.1393 -0.2734
  989MOL0     C33429   8.281   2.777   0.133  0.0090  0.3802  0.6833
  989MOL0     N33430   7.779   2.390   0.060 -0.5069  0.3677 -0.4705
  989MOL0     N33431   7.660   2.402   0.093 -0.6740 -0.0205  0.0102
  989MOL0     C33432   6.504   2.054   0.342 -0.5260  0.2636 -0.7293
  989MOL0     C33433   6.422   1.970   0.426  0.4231 -0.1346  0.2614
  989MOL0     C33434   6.012   1.759   0.510 -0.0567  0.2163 -0.7020
  989MOL0     C33435   5.992   1.818   0.638  0.6141 -0.8100  0.2853
  989MOL0     C33436   5.888   1.771   0.725  0.4074 -0.7887 -0.2268
  989MOL0     C33437   5.808   1.666   0.679 -0.2925 -0.4496 -0.6944
  989MOL0     O33438   5.710   1.626   0.764  0.3039  0.0960 -0.6194
  989MOL0     C33439   5.586   1.585   0.706 -0.2236 -0.9095  0.5967
  989MOL0     C33440   5.478   1.596   0.818  0.6828 -0.2941  0.8267
  989MOL0     C33441   5.342   1.616   0.747 -0.4284  0.3031 -0.0239
  989MOL0     C33442   5.220   1.580   0.827  0.7176  0.2176  0.1445
  989MOL0     C33443   5.214   1.624   0.965 -0.1565  0.1064 -0.7077
  989MOL0     C33444   5.195   1.645   1.084  0.2411  0.5469 -1.2483
  989MOL0     C33445   5.841   1.602   0.562 -0.1229  0.4618 -0.3346
  989MOL0     C33446   5.942   1.644   0.477 -0.5948 -0.1028  0.3437
  989MOL0     C33447   5.971   1.552   0.367 -0.1563  0.0169  1.0659
  989MOL0     H33448   6.130   2.084   0.308  0.1482  1.2712 -0.5051
  989MOL0     H33449   6.279   2.228   0.164  2.6687  2.1019 -0.2490
  989MOL0     H33450   6.713   2.322   0.152 -0.8666  1.7860  2.0795
  989MOL0     H33451   6.683   2.255   0.315  1.3302 -1.0629  0.0787
  989MOL0     H33452   6.777   2.104   0.062 -1.1063 -2.3264  0.3600
  989MOL0     H33453   6.760   2.025   0.221  0.6192 -0.5824 -1.3354
  989MOL0     H33454   6.945   2.139   0.316 -2.7326 -1.0225 -0.0542
  989MOL0     H33455   6.927   2.278   0.212 -3.1586  0.4437  2.9011
  989MOL0     H33456   7.000   1.981   0.125  3.7276 -0.5143 -1.4220
  989MOL0     H33457   6.996   2.119   0.016 -2.9746 -1.8089 -1.0232
  989MOL0     H33458   7.158   2.190   0.244 -1.3815  1.2426 -1.3023
  989MOL0     H33459   7.219   2.028   0.185 -1.5734 -1.3700 -1.8289
  989MOL0     H33460   7.215   2.195  -0.037  0.1324 -0.5668  0.2690
  989MOL0     H33461   7.211   2.315   0.086  0.6093  0.9091 -0.6493
  989MOL0     H33462   7.413   2.113   0.011  1.4249 -0.0689  0.8426
  989MOL0     H33463   7.425   2.166   0.174  0.6860 -1.7802 -0.5672
  989MOL0     H33464   7.405   2.319  -0.084  0.1624 -1.9774 -0.2206
  989MOL0     H33465   7.390   2.409   0.069 -1.5171 -0.3580  1.1488
  989MOL0     H33466   7.618   2.213  -0.164  1.1317 -1.3031  0.2697
  989MOL0     H33467   7.975   2.221  -0.087  0.0233 -0.5240 -0.2689
  989MOL0     H33468   7.864   2.195  -0.209  0.2522 -1.6835  3.0862
  989MOL0     H33469   8.043   2.356  -0.277  0.1693 -0.0620  0.0158
  989MOL0     H33470   7.880   2.422  -0.308 -2.2231  0.5922  1.6594
  989MOL0     H33471   7.924   2.552  -0.089 -1.6311 -1.0439 -0.8348
  989MOL0     H33472   8.032   2.597  -0.231  3.0275  1.7269  3.4137
  989MOL0     H33473   8.199   2.455  -0.138 -2.7926  0.3900 -3.2545
  989MOL0     H33474   8.092   2.441   0.011  1.7135 -0.9749  0.6653
  989MOL0     H33475   8.292   2.436   0.118  2.1426 -1.4061  2.6412
  989MOL0     H33476   8.463   2.475   0.293  1.2198  0.3017 -1.6089
  989MOL0     H33477   8.613   3.012   0.534 -2.3804 -1.5168 -0.3717
  989MOL0     H33478   8.806   3.071   0.709  0.6579  0.2087  0.1221
  989MOL0     H33479   8.991   3.090   0.808  0.1814  0.5569  1.3385
  989MOL0     H33480   8.878   3.060   0.931 -0.7343 -1.3297  0.7567
  989MOL0     H33481   9.095   3.130   1.030  0.5454 -0.5592 -0.4238
  989MOL0     H33482   9.047   2.970   1.085  1.9206 -0.3840  0.1124
  989MOL0     H33483   9.264   3.070   0.906  2.1241  0.0756  0.4575
  989MOL0     H33484   9.269   2.969   1.054  0.9387 -2.5174 -1.6606
  989MOL0     H33485   9.206   2.863   0.782 -2.4513  1.6026  0.2752
  989MOL0     H33486   9.197   2.760   0.929  0.9462 -2.5710 -2.8716
  989MOL0     H33487   9.453   2.887   0.830 -0.1414  0.9458  0.0760
  989MOL0     H33488   9.398   2.715   0.814 -0.6281  0.7064 -1.1026
  989MOL0     H33489   9.473   2.877   1.055 -0.4834  0.0223 -1.5397
  989MOL0     H33490   9.418   2.707   1.072  1.4032 -1.7232 -0.3841
  989MOL0     H33491   9.681   2.809   0.959  1.4731 -0.6392  1.9541
  989MOL0     H33492   9.624   2.647   0.922  0.2442 -2.2068  1.7530
  989MOL0     H33493   9.616   2.607   1.175 -1.1193  1.5322  0.2045
  989MOL0     H33494   9.775   2.661   1.120  0.4405 -0.5447  2.1370
  989MOL0     H33495   8.807   2.675   0.836  1.9697  1.8413  1.5101
  989MOL0     H33496   8.633   2.612   0.662 -3.5893  0.5318  3.7230
  989MOL0     H33497   8.410   2.894   0.262 -0.4393 -0.0257  0.5786
  989MOL0     H33498   8.235   2.861   0.082 -1.4821 -0.3296  0.8055
  989MOL0     H33499   6.612   2.049   0.351 -0.5256 -1.8819 -1.3275
  989MOL0     H33500   6.462   1.904   0.502  2.0743 -0.3047 -0.6972
  989MOL0     H33501   6.054   1.896   0.682 -0.6831  2.5934 -3.3530
  989MOL0     H33502   5.872   1.817   0.822  0.7323 -0.7815 -0.1781
  989MOL0     H33503   5.597   1.483   0.668  1.8007  0.3493 -2.5569
  989MOL0     H33504   5.560   1.651   0.623 -2.1267 -0.2810  1.6305
  989MOL0     H33505   5.505   1.684   0.877  0.8802  0.6845 -0.6499
  989MOL0     H33506   5.480   1.507   0.881 -2.4749 -0.8948  0.2136
  989MOL0     H33507   5.334   1.570   0.648 -1.6125  0.7152 -0.1401
  989MOL0     H33508   5.343   1.722   0.722  0.0847  0.3362  0.1302
  989MOL0     H33509   5.136   1.623   0.771  0.4898  1.4052  1.3283
  989MOL0     H33510   5.210   1.471   0.835  1.5115  0.1860  0.7555
  989MOL0     H33511   5.175   1.676   1.185  1.0643  0.5166 -1.0739
  989MOL0     H33512   5.787   1.508   0.557 -1.9791  1.2069  2.9513
  989MOL0     H33513   5.917   1.458   0.380 -0.8526  0.3257  0.5341
  989MOL0     H33514   5.925   1.595   0.277  1.5204 -1.2972 -0.5096
  989MOL0     H33515   6.077   1.545   0.341 -0.0258  0.9971  1.2766
  990MOL0     O33516   8.557   7.094   1.576  0.4735 -0.3213  0.6375
  990MOL0     C33517   8.541   7.213   1.611  0.1137 -0.7188  0.2172
  990MOL0     O33518   8.643   7.313   1.628  0.1273  0.2898  0.1469
  990MOL0     C33519   8.778   7.290   1.606  0.0468 -0.5881 -0.4831
  990MOL0     C33520   8.851   7.408   1.595  0.2412  0.1010 -0.5562
  990MOL0     C33521   8.994   7.399   1.577 -0.7949  0.0335 -0.4050
  990MOL0     C33522   9.061   7.278   1.586 -0.9927 -0.9137  0.2726
  990MOL0     O33523   9.199   7.260   1.567 -0.0371 -0.1674 -0.4160
  990MOL0     C33524   9.268   7.371   1.512 -0.7876 -0.8782 -0.5947
  990MOL0     C33525   9.415   7.337   1.489 -0.1961  0.1616  0.0776
  990MOL0     C33526   9.449   7.221   1.386  0.0712  0.2091  0.0985
  990MOL0     C33527   9.575   7.250   1.308  0.4272 -0.1599  0.2130
  990MOL0     C33528   9.697   7.278   1.390  0.6565 -0.1809 -0.0015
  990MOL0     C33529   9.795   7.359   1.314 -0.6812 -0.0572  0.4771
  990MOL0     C33530   9.842   7.282   1.192  0.1422 -0.1870  0.5238
  990MOL0     C33531   9.912   7.373   1.084  0.0041 -0.7070  0.2524
  990MOL0     N33532  10.014   7.464   1.142 -0.3441 -0.2403  0.3985
  990MOL0     C33533  10.152   7.442   1.169  1.0916  0.4974 -0.1891
  990MOL0     C33534  10.206   7.563   1.189 -0.9577 -0.0889 -0.6395
  990MOL0     C33535  10.351   7.612   1.210  0.6196 -0.1600 -0.5774
  990MOL0     C33536  10.438   7.564   1.096  0.4055 -0.4008  0.0010
  990MOL0     C33537  10.573   7.632   1.119  0.1160 -0.0851 -0.7115
  990MOL0     C33538  10.674   7.575   1.019 -0.4896 -0.3799 -0.0959
  990MOL0     O33539  10.805   7.589   1.084 -0.4522 -0.4132 -0.2164
  990MOL0     C33540  10.915   7.549   1.014 -0.1498 -0.7833 -0.1127
  990MOL0     C33541  11.040   7.570   1.080  0.0456  1.0862 -0.0812
  990MOL0     C33542  11.163   7.534   1.023  0.1236 -0.1194 -0.2713
  990MOL0     C33543  11.173   7.489   0.893  0.1799  0.4531 -0.1290
  990MOL0     C33544  11.313   7.457   0.849 -0.0162  0.0159 -0.0740
  990MOL0     O33545  11.423   7.525   0.893 -0.8841 -0.2741  0.7151
  990MOL0     C33546  11.543   7.502   0.824 -0.6986 -0.6732 -0.1453
  990MOL0     C33547  11.588   7.373   0.798  0.3081 -0.5670 -0.2421
  990MOL0     C33548  11.699   7.354   0.728 -0.2177  0.3866 -0.5128
  990MOL0     C33549  11.778   7.462   0.684 -0.2846  0.4970  0.6008
  990MOL0     O33550  11.895   7.451   0.613  0.5367 -0.1805 -0.1659
  990MOL0     C33551  11.931   7.326   0.566  0.6929  0.1571  0.3074
  990MOL0     C33552  12.039   7.325   0.469  0.4027 -1.2632 -0.3183
  990MOL0     C33553  12.067   7.177   0.447  0.1091 -0.0554  0.5355
  990MOL0     C33554  12.160   7.167   0.331  0.5862 -0.2959  0.7678
  990MOL0     C33555  12.195   7.025   0.318 -0.1330  0.8389  1.1249
  990MOL0     C33556  12.294   6.998   0.193 -0.3333  0.0354 -0.4590
  990MOL0     C33557  12.334   6.854   0.212  0.0588  0.3618 -0.3647
  990MOL0     C33558  12.425   6.809   0.101 -0.2834 -0.9723  0.1242
  990MOL0    Cl33559  12.445   6.640   0.134  0.0863  0.2734  0.3040
  990MOL0     C33560  11.731   7.594   0.709 -0.7183  0.9033 -1.0147
  990MOL0     C33561  11.614   7.614   0.776  0.3882  0.8292 -0.0524
  990MOL0     O33562  11.305   7.382   0.748 -0.0614 -0.0778  0.0088
  990MOL0     C33563  11.054   7.482   0.813 -0.2521 -0.1628  0.0902
  990MOL0     C33564  10.926   7.504   0.881 -0.5753  0.5387  0.2877
  990MOL0     N33565  10.101   7.662   1.182  0.4244 -0.1716  0.6652
  990MOL0     N33566   9.991   7.598   1.157  0.3613  0.0088 -0.4784
  990MOL0     C33567   8.987   7.165   1.592 -0.6700 -0.2553 -0.7516
  990MOL0     C33568   8.845   7.170   1.585 -0.7144 -0.7527  0.2787
  990MOL0     C33569   8.401   7.259   1.620 -0.7632 -0.8054 -0.3407
  990MOL0     C33570   8.300   7.192   1.546 -1.3370 -0.0891 -0.3937
  990MOL0     C33571   8.173   7.226   1.556  0.4355  0.0260  0.1529
  990MOL0     C33572   8.129   7.333   1.634  0.4541  0.1452 -0.4762
  990MOL0     O33573   7.998   7.358   1.644  0.5455  0.0159  0.3409
  990MOL0     C33574   7.937   7.377   1.772  0.9378  0.1048 -0.2305
  990MOL0     C33575   7.791   7.318   1.764 -0.0042 -0.1056 -0.2220
  990MOL0     C33576   7.709   7.408   1.672 -0.3465  0.2145  0.4177
  990MOL0     C33577   7.566   7.370   1.671 -0.1362 -0.3659 -0.6898
  990MOL0     C33578   7.501   7.367   1.804 -0.7660 -0.1706  0.6785
  990MOL0     C33579   7.439   7.365   1.904  0.7359  0.7910  0.3726
  990MOL0     C33580   8.227   7.391   1.713 -0.1683 -1.1178 -0.2158
  990MOL0     C33581   8.366   7.367   1.704 -0.4917  0.1336  0.6306
  990MOL0     C33582   8.463   7.443   1.784 -0.4610  0.0362 -0.8190
  990MOL0     H33583   8.804   7.506   1.589  2.2730  1.2244  0.6790
  990MOL0     H33584   9.054   7.487   1.553  1.1051 -1.4679 -1.3899
  990MOL0     H33585   9.217   7.408   1.423 -1.8487  2.8473  1.3652
  990MOL0     H33586   9.277   7.464   1.569 -1.9849 -1.4202  0.5556
  990MOL0     H33587   9.448   7.309   1.590 -0.6563  1.5690  0.6455
  990MOL0     H33588   9.467   7.429   1.462 -1.0802  1.4853  2.5448
  990MOL0     H33589   9.362   7.215   1.320 -0.2654  0.2958  0.5309
  990MOL0     H33590   9.454   7.126   1.440 -1.0014  0.2379  0.2676
  990MOL0     H33591   9.593   7.162   1.245  0.9129 -2.4837  3.3359
  990MOL0     H33592   9.550   7.333   1.241  2.7218 -0.0382 -0.6046
  990MOL0     H33593   9.677   7.342   1.476  0.1306 -0.1882 -0.1137
  990MOL0     H33594   9.751   7.192   1.431  3.6866  2.0895  1.1402
  990MOL0     H33595   9.735   7.447   1.291 -5.1627 -3.0018 -0.2376
  990MOL0     H33596   9.892   7.383   1.359  0.8710 -1.8822 -1.6127
  990MOL0     H33597   9.763   7.232   1.134  1.7672 -2.4747  0.1357
  990MOL0     H33598   9.901   7.196   1.226  1.1464  0.7446  1.2268
  990MOL0     H33599   9.966   7.304   1.018 -1.8763 -4.1580  2.0018
  990MOL0     H33600   9.840   7.426   1.022  3.0414  3.8181  0.1714
  990MOL0     H33601  10.197   7.344   1.183 -2.6177 -1.5910 -1.4494
  990MOL0     H33602  10.340   7.721   1.209 -1.6509 -0.3439 -1.5412
  990MOL0     H33603  10.396   7.587   1.307 -0.5353  0.7130  0.2160
  990MOL0     H33604  10.445   7.455   1.101  3.1548 -0.3455 -0.7904
  990MOL0     H33605  10.396   7.597   1.000  1.0144  0.1133 -0.0987
  990MOL0     H33606  10.606   7.609   1.221  0.6494 -2.1052 -1.2802
  990MOL0     H33607  10.575   7.740   1.105  1.8285  0.2024  1.3174
  990MOL0     H33608  10.667   7.634   0.928  2.3598 -0.1607 -0.2497
  990MOL0     H33609  10.654   7.470   0.995  0.8625 -0.3674 -1.3881
  990MOL0     H33610  11.031   7.607   1.181 -0.4154 -0.5042  0.4955
  990MOL0     H33611  11.253   7.555   1.078  0.3795 -1.4724 -0.1252
  990MOL0     H33612  11.529   7.284   0.819  2.7753 -2.7081 -1.8081
  990MOL0     H33613  11.731   7.252   0.706  3.2980  1.7162 -2.5522
  990MOL0     H33614  11.945   7.261   0.652  1.6063  0.2483  0.2354
  990MOL0     H33615  11.847   7.295   0.503  1.5759  1.5525 -1.7089
  990MOL0     H33616  12.007   7.379   0.379  1.5724  0.4880  0.2783
  990MOL0     H33617  12.130   7.376   0.500 -1.2170  1.6879 -0.0640
  990MOL0     H33618  12.118   7.136   0.535  0.9246  3.4977  1.8921
  990MOL0     H33619  11.977   7.122   0.419  1.3120 -2.3192  0.8881
  990MOL0     H33620  12.246   7.229   0.358 -0.2304  0.1368  2.5869
  990MOL0     H33621  12.124   7.221   0.243  2.4822  2.1112  1.3434
  990MOL0     H33622  12.108   6.959   0.309  0.5054  0.1470 -0.0956
  990MOL0     H33623  12.250   6.991   0.406  1.6993  1.4587  0.2739
  990MOL0     H33624  12.248   7.014   0.095 -1.3990  1.2772  0.2166
  990MOL0     H33625  12.384   7.059   0.199 -0.3796  0.9070 -4.9193
  990MOL0     H33626  12.242   6.798   0.228 -1.4996  2.7796 -0.3865
  990MOL0     H33627  12.390   6.846   0.305 -0.6899 -2.9266 -0.0698
  990MOL0     H33628  12.372   6.832   0.008  0.5480  1.0550  0.0895
  990MOL0     H33629  12.519   6.865   0.095 -1.5922  1.2524 -1.6652
  990MOL0     H33630  11.797   7.665   0.662  0.8589 -0.3425 -0.7733
  990MOL0     H33631  11.572   7.714   0.776 -2.2510 -0.1678 -2.3157
  990MOL0     H33632  11.071   7.469   0.707  2.2490  0.8035  0.2977
  990MOL0     H33633  10.832   7.477   0.834 -0.5577 -0.3752  0.7321
  990MOL0     H33634   9.045   7.074   1.597 -0.8350 -0.3347  3.6978
  990MOL0     H33635   8.790   7.076   1.581 -0.2133 -1.1334  1.6032
  990MOL0     H33636   8.332   7.109   1.485  0.4576 -0.2478  0.6845
  990MOL0     H33637   8.100   7.167   1.501 -0.5074 -0.6185  1.9883
  990MOL0     H33638   7.940   7.481   1.806 -1.0420  1.0481 -2.5322
  990MOL0     H33639   7.988   7.319   1.849 -2.2748 -4.5764 -1.1805
  990MOL0     H33640   7.744   7.316   1.863 -1.0880 -0.0791 -0.7188
  990MOL0     H33641   7.807   7.215   1.731  2.6007  0.2367 -0.1721
  990MOL0     H33642   7.751   7.401   1.571  1.9157  2.5020  1.0881
  990MOL0     H33643   7.734   7.512   1.695 -2.6167  0.7134  0.8258
  990MOL0     H33644   7.509   7.434   1.603 -0.5772  0.6775  0.6334
  990MOL0     H33645   7.567   7.273   1.620 -0.9487 -1.0350  0.5352
  990MOL0     H33646   7.365   7.347   1.979 -0.7486  1.6342 -0.8430
  990MOL0     H33647   8.191   7.472   1.775  1.0413 -1.1086  0.5191
  990MOL0     H33648   8.399   7.502   1.851  1.8785 -0.5367  2.1449
  990MOL0     H33649   8.524   7.378   1.848 -1.1093  1.1243  1.0074
  990MOL0     H33650   8.524   7.508   1.722  0.8637 -1.2914 -0.9773
  991MOL0     O33651   0.732   4.541   7.072 -0.5144  0.1733  0.2550
  991MOL0     C33652   0.661   4.497   7.164  0.6749  0.5625 -0.2698
  991MOL0     O33653   0.643   4.551   7.287 -0.8654 -0.1451  0.0896
  991MOL0     C33654   0.737   4.646   7.334  0.2715  0.3894  0.5480
  991MOL0     C33655   0.865   4.597   7.373  0.8304  0.4326  0.8153
  991MOL0     C33656   0.959   4.693   7.404  0.3616 -0.4801  0.6811
  991MOL0     C33657   0.925   4.829   7.418  0.1966  0.8236 -0.2549
  991MOL0     O33658   1.019   4.924   7.458  0.3900 -0.1598  0.5748
  991MOL0     C33659   1.023   5.046   7.401  0.4441 -0.5272 -0.1897
  991MOL0     C33660   1.147   5.127   7.440 -0.9456 -0.4534 -0.5425
  991MOL0     C33661   1.179   5.166   7.589  0.7841 -0.2870  0.6032
  991MOL0     C33662   1.328   5.190   7.594  0.3900  0.3962  0.4122
  991MOL0     C33663   1.355   5.250   7.727  0.8882  0.1634  0.3954
  991MOL0     C33664   1.500   5.242   7.762  0.4799  0.4840  0.8340
  991MOL0     C33665   1.519   5.311   7.900  0.2452  0.0780  0.5179
  991MOL0     C33666   1.673   5.299   7.941 -0.1939 -0.5887 -0.0326
  991MOL0     N33667   1.759   5.391   7.869 -0.5815 -0.4428  0.7649
  991MOL0     C33668   1.831   5.368   7.756 -0.1390  0.7463  0.2817
  991MOL0     C33669   1.917   5.477   7.736 -0.0031  0.3983  0.3918
  991MOL0     C33670   2.027   5.505   7.649 -0.5662 -0.7072 -0.6145
  991MOL0     C33671   2.134   5.610   7.697 -0.6255  0.2867 -0.0638
  991MOL0     C33672   2.190   5.667   7.569 -0.6010  0.4439 -0.2633
  991MOL0     C33673   2.302   5.775   7.583  0.1127  0.7969  0.0819
  991MOL0     O33674   2.259   5.877   7.682 -0.0190 -0.0552 -0.1200
  991MOL0     C33675   2.325   5.994   7.706  0.6331 -0.0048  0.1415
  991MOL0     C33676   2.282   6.085   7.805 -0.4803  0.5136  0.0755
  991MOL0     C33677   2.348   6.209   7.828  0.2003  0.2743 -0.1964
  991MOL0     C33678   2.456   6.249   7.749 -0.6731  0.6137  0.0633
  991MOL0     C33679   2.526   6.376   7.768 -1.0829  0.0698 -0.3343
  991MOL0     O33680   2.473   6.461   7.855  1.1389 -1.0822 -0.7959
  991MOL0     C33681   2.527   6.586   7.861 -0.9715  0.2678  0.1908
  991MOL0     C33682   2.561   6.634   7.988 -0.8694  1.3589  0.4741
  991MOL0     C33683   2.594   6.765   8.012 -0.7345 -0.0117 -0.2102
  991MOL0     C33684   2.609   6.857   7.911 -0.6579  0.7458 -0.3516
  991MOL0     O33685   2.643   6.991   7.919 -1.0688  0.5805  0.0871
  991MOL0     C33686   2.691   7.033   8.049  0.6585 -0.1822 -0.0544
  991MOL0     C33687   2.581   7.101   8.130  0.0457  0.1577  0.4554
  991MOL0     C33688   2.603   7.080   8.283  0.4607 -0.9617  0.0889
  991MOL0     C33689   2.471   7.135   8.350 -1.6206  0.0259  0.3623
  991MOL0     C33690   2.497   7.152   8.506 -0.8312 -0.1483 -0.6438
  991MOL0     C33691   2.512   7.021   8.582 -0.2435 -0.0652  0.3729
  991MOL0     C33692   2.535   7.042   8.736 -0.1389  0.4315 -0.1060
  991MOL0     C33693   2.676   7.094   8.752  0.1072  0.0605  0.0677
  991MOL0    Cl33694   2.717   7.100   8.915  0.2848 -0.0620 -0.1688
  991MOL0     C33695   2.575   6.814   7.780 -0.3283 -0.5545 -0.0905
  991MOL0     C33696   2.540   6.676   7.758 -0.0078 -1.3754 -0.5809
  991MOL0     O33697   2.625   6.396   7.697  0.8517  0.1131 -0.4471
  991MOL0     C33698   2.492   6.164   7.646  0.3498  0.2471  0.6079
  991MOL0     C33699   2.428   6.038   7.622 -0.5459 -0.7939  0.0553
  991MOL0     N33700   1.882   5.566   7.831 -0.7000  0.7494 -0.5555
  991MOL0     N33701   1.803   5.511   7.920 -0.3017  0.7138 -0.5634
  991MOL0     C33702   0.793   4.863   7.394 -0.3844 -0.7490  0.3651
  991MOL0     C33703   0.706   4.778   7.333  0.8859  0.4201 -0.7242
  991MOL0     C33704   0.558   4.397   7.135 -0.2211 -0.5282 -0.0434
  991MOL0     C33705   0.444   4.406   7.214  0.2078  0.7163  0.9174
  991MOL0     C33706   0.355   4.293   7.211  0.5546 -0.1892 -0.2288
  991MOL0     C33707   0.369   4.188   7.122 -0.4538  0.3624  0.0901
  991MOL0     O33708   0.290   4.077   7.112 -0.1667 -0.2034 -0.9050
  991MOL0     C33709   0.220   4.042   7.235  0.2625 -0.6814 -0.0558
  991MOL0     C33710   0.164   3.899   7.207 -0.2422 -0.2594 -0.8928
  991MOL0     C33711   0.279   3.797   7.213 -0.8977  0.1829 -0.2820
  991MOL0     C33712   0.299   3.749   7.362 -0.5342 -0.4874  0.5078
  991MOL0     C33713   0.177   3.691   7.416 -0.5469  1.3018  0.0356
  991MOL0     C33714   0.079   3.664   7.483  0.1727  0.2296  0.1806
  991MOL0     C33715   0.485   4.185   7.043  0.9482 -0.3305  0.1997
  991MOL0     C33716   0.577   4.289   7.043 -1.1551  0.2454  0.0237
  991MOL0     C33717   0.686   4.286   6.945  0.6950 -0.9649 -0.4902
  991MOL0     H33718   0.895   4.492   7.369 -1.2487 -0.1632 -0.8463
  991MOL0     H33719   1.065   4.670   7.410  0.5690  0.6025  1.3731
  991MOL0     H33720   1.025   5.028   7.293  1.6912 -0.7352 -0.1432
  991MOL0     H33721   0.935   5.104   7.431  1.5463  0.2007  1.7968
  991MOL0     H33722   1.157   5.224   7.392 -1.5109  0.5347  1.2394
  991MOL0     H33723   1.225   5.054   7.419 -2.5418 -2.1079 -1.0187
  991MOL0     H33724   1.148   5.085   7.655  2.4078 -0.2546  1.4593
  991MOL0     H33725   1.124   5.261   7.593  1.1392 -0.0809  0.6003
  991MOL0     H33726   1.376   5.092   7.580  3.5265  1.8049  0.3137
  991MOL0     H33727   1.370   5.258   7.519 -0.8302 -0.8841 -1.5143
  991MOL0     H33728   1.328   5.356   7.726  0.0551  0.1258 -4.4552
  991MOL0     H33729   1.296   5.198   7.803  1.8366 -0.1298  0.9620
  991MOL0     H33730   1.543   5.142   7.765  1.8434  1.0157 -0.0585
  991MOL0     H33731   1.563   5.295   7.690  1.0019 -0.8690  0.2768
  991MOL0     H33732   1.471   5.258   7.983  1.7810  0.1223  1.4803
  991MOL0     H33733   1.487   5.415   7.911 -1.9389 -0.2273 -2.0062
  991MOL0     H33734   1.693   5.318   8.047  1.9169  0.8610 -0.6347
  991MOL0     H33735   1.714   5.203   7.910 -1.2422  0.3184 -5.0566
  991MOL0     H33736   1.832   5.270   7.709 -0.7191  1.1180 -0.5293
  991MOL0     H33737   2.076   5.414   7.612  1.3113 -0.2487  0.6147
  991MOL0     H33738   1.975   5.539   7.559  2.0526 -1.9197 -2.7459
  991MOL0     H33739   2.083   5.693   7.746  0.8151  0.6799  0.8258
  991MOL0     H33740   2.209   5.562   7.761 -1.2458 -2.0729 -1.0051
  991MOL0     H33741   2.109   5.718   7.516 -0.5608 -0.1801 -0.9377
  991MOL0     H33742   2.227   5.581   7.514 -1.0962 -2.3966  3.4562
  991MOL0     H33743   2.309   5.823   7.486  0.3294  0.4756 -0.0651
  991MOL0     H33744   2.397   5.729   7.613 -1.8278 -0.9302  4.6346
  991MOL0     H33745   2.202   6.066   7.876 -0.0356 -0.3163  0.3646
  991MOL0     H33746   2.314   6.268   7.912 -0.0241  0.8939 -0.7204
  991MOL0     H33747   2.550   6.565   8.070 -0.6764  1.3548  0.4985
  991MOL0     H33748   2.622   6.799   8.111  1.7548 -0.6823 -0.6293
  991MOL0     H33749   2.738   6.953   8.107  1.0164  0.7617  0.9954
  991MOL0     H33750   2.774   7.102   8.033  1.9333 -1.8217 -0.9242
  991MOL0     H33751   2.586   7.208   8.110  2.5709  0.0047  0.0273
  991MOL0     H33752   2.482   7.069   8.096 -1.4030  1.1045  3.4712
  991MOL0     H33753   2.626   6.976   8.305 -2.0809 -1.5224  0.3910
  991MOL0     H33754   2.693   7.131   8.319  0.6267  0.6392 -2.3896
  991MOL0     H33755   2.384   7.070   8.337 -2.4825  1.0420  0.8710
  991MOL0     H33756   2.439   7.231   8.309 -0.2398  0.9043  1.2456
  991MOL0     H33757   2.410   7.209   8.540 -1.3200  0.3008 -2.5106
  991MOL0     H33758   2.584   7.216   8.523 -2.8149  2.5479  0.1396
  991MOL0     H33759   2.432   6.947   8.573  0.5172 -0.6220 -3.6715
  991MOL0     H33760   2.592   6.968   8.531 -1.5982 -1.2596 -0.6050
  991MOL0     H33761   2.526   6.947   8.790  1.0781  0.0408 -0.5718
  991MOL0     H33762   2.455   7.104   8.779 -0.5794 -0.5904  0.5762
  991MOL0     H33763   2.743   7.033   8.691 -1.0539 -0.1552 -1.0500
  991MOL0     H33764   2.686   7.200   8.727 -0.1077  0.4465  1.5048
  991MOL0     H33765   2.587   6.882   7.697  0.8952  2.1402  2.1554
  991MOL0     H33766   2.528   6.642   7.655  0.3424  1.8378 -1.7892
  991MOL0     H33767   2.553   6.206   7.566  1.2616 -2.1722 -0.0675
  991MOL0     H33768   2.459   5.969   7.544  1.0729 -1.3978  1.1603
  991MOL0     H33769   0.754   4.963   7.410  2.5141  1.2503 -3.3274
  991MOL0     H33770   0.609   4.812   7.300  0.7194 -1.1295 -1.9560
  991MOL0     H33771   0.410   4.477   7.289 -0.5531 -0.3356  1.5922
  991MOL0     H33772   0.275   4.284   7.285  2.3077 -1.8217  1.5961
  991MOL0     H33773   0.139   4.104   7.276  1.5538  0.6180  0.6070
  991MOL0     H33774   0.285   4.048   7.322 -1.4923 -0.3787  1.2948
  991MOL0     H33775   0.121   3.894   7.107 -2.5893 -1.1990  0.1016
  991MOL0     H33776   0.080   3.873   7.273  1.7014 -2.0095  1.0759
  991MOL0     H33777   0.374   3.835   7.175 -0.2596  1.1702  2.1072
  991MOL0     H33778   0.259   3.712   7.148  0.5936 -0.8848  0.5897
  991MOL0     H33779   0.381   3.676   7.357 -0.1414  0.0225 -0.9828
  991MOL0     H33780   0.327   3.840   7.417 -0.4399 -0.7156  0.8428
  991MOL0     H33781  -0.010   3.643   7.539 -1.5379  2.5690 -1.4952
  991MOL0     H33782   0.507   4.100   6.978 -0.7953  0.6907 -1.8581
  991MOL0     H33783   0.775   4.256   7.001 -0.3554 -1.3162  1.0719
  991MOL0     H33784   0.671   4.204   6.874  1.7520 -2.0316  0.4945
  991MOL0     H33785   0.695   4.380   6.890  3.0337  0.8869  2.7312
  992MOL0     O33786   6.193   1.592   5.189 -0.1992  0.1821  0.1232
  992MOL0     C33787   6.150   1.673   5.105 -0.2413  0.5954 -0.7920
  992MOL0     O33788   6.222   1.718   5.001  0.1089 -0.1782  0.0682
  992MOL0     C33789   6.357   1.715   4.996 -0.6048 -0.1268 -0.7991
  992MOL0     C33790   6.437   1.727   5.115  0.0783 -0.5639  0.5674
  992MOL0     C33791   6.576   1.708   5.113  0.4236  0.2549  0.2184
  992MOL0     C33792   6.641   1.680   4.995  0.3950 -0.3085  0.2592
  992MOL0     O33793   6.773   1.648   4.977  0.2012 -0.6847  0.1176
  992MOL0     C33794   6.873   1.707   5.066 -0.7096  0.3739  0.0882
  992MOL0     C33795   7.020   1.676   5.030  0.2327  0.2097  0.4397
  992MOL0     C33796   7.046   1.691   4.876 -0.0172 -0.1099  0.5018
  992MOL0     C33797   7.188   1.649   4.843  0.3724  0.3275 -0.3490
  992MOL0     C33798   7.300   1.735   4.902  0.3986  0.0587  1.0727
  992MOL0     C33799   7.436   1.712   4.831  0.0387  0.4465  0.0592
  992MOL0     C33800   7.538   1.809   4.876 -0.6335  0.7800 -0.0532
  992MOL0     C33801   7.669   1.810   4.794  0.1679  0.4010 -0.3667
  992MOL0     N33802   7.762   1.912   4.848 -0.6490 -0.1776  0.0679
  992MOL0     C33803   7.897   1.891   4.847 -0.4257  0.1102  0.0371
  992MOL0     C33804   7.943   2.013   4.901  0.2159  0.0275  0.3816
  992MOL0     C33805   8.081   2.039   4.931 -0.9090  0.6365  1.2657
  992MOL0     C33806   8.138   1.935   5.027 -0.2131  0.7885 -0.7518
  992MOL0     C33807   8.276   1.979   5.077  0.9517 -0.4130  0.0121
  992MOL0     C33808   8.335   1.874   5.177  1.6258 -0.2390  0.1696
  992MOL0     O33809   8.392   1.951   5.288  0.2334 -0.9880  0.0739
  992MOL0     C33810   8.504   2.031   5.266  0.4324  0.5673 -0.0716
  992MOL0     C33811   8.546   2.118   5.370 -0.4847  0.7876  0.5345
  992MOL0     C33812   8.658   2.202   5.355 -0.7723  0.2179  0.4739
  992MOL0     C33813   8.736   2.197   5.235 -0.4470 -0.2957 -0.8591
  992MOL0     C33814   8.862   2.287   5.218  0.2748 -0.5044 -0.1870
  992MOL0     O33815   8.875   2.413   5.276  0.9664 -0.1799  0.3500
  992MOL0     C33816   8.970   2.490   5.223 -0.2851  0.4766  0.1924
  992MOL0     C33817   8.974   2.515   5.081 -0.7295 -0.4143 -0.7450
  992MOL0     C33818   9.092   2.590   5.038 -0.1647 -0.8846  0.1090
  992MOL0     C33819   9.190   2.650   5.125 -0.1174 -0.2658  0.1888
  992MOL0     O33820   9.287   2.741   5.088  0.5671  0.2035  0.1456
  992MOL0     C33821   9.257   2.836   4.979 -0.3297  0.1137 -0.1721
  992MOL0     C33822   9.345   2.822   4.855 -1.0345 -0.0951  0.3918
  992MOL0     C33823   9.493   2.777   4.864  0.3327 -0.4820  0.2261
  992MOL0     C33824   9.596   2.860   4.933  0.0068 -0.2952 -0.5272
  992MOL0     C33825   9.723   2.792   4.992 -0.2084  0.1681 -0.3707
  992MOL0     C33826   9.804   2.711   4.881  0.6699 -0.1230 -0.4475
  992MOL0     C33827   9.935   2.646   4.939  0.2835  0.5307 -0.4022
  992MOL0     C33828  10.031   2.595   4.834 -0.6817  0.4460  0.0664
  992MOL0    Cl33829  10.095   2.731   4.735  0.1517  0.3919  0.0430
  992MOL0     C33830   9.171   2.627   5.255  0.2796  0.0606  0.1402
  992MOL0     C33831   9.071   2.544   5.304  0.5079  0.3277 -0.2241
  992MOL0     O33832   8.950   2.246   5.137 -0.4933  0.7294  0.2237
  992MOL0     C33833   8.691   2.103   5.139 -0.4854  0.1118 -0.4972
  992MOL0     C33834   8.582   2.024   5.155  0.0507  0.7366  0.6786
  992MOL0     N33835   7.837   2.098   4.937 -0.2245 -0.6353 -0.1264
  992MOL0     N33836   7.731   2.032   4.903  0.0427 -0.6632  0.0828
  992MOL0     C33837   6.569   1.677   4.877  1.0479 -1.0092 -0.0581
  992MOL0     C33838   6.425   1.679   4.880  0.2868  0.8048  0.0772
  992MOL0     C33839   6.007   1.702   5.099  0.0117  0.1420 -0.8530
  992MOL0     C33840   5.962   1.800   5.004 -0.5970  0.1213 -0.1830
  992MOL0     C33841   5.823   1.824   4.984 -1.1742 -0.2689 -0.2083
  992MOL0     C33842   5.724   1.770   5.065  0.1769 -0.1157 -0.5484
  992MOL0     O33843   5.588   1.792   5.057 -0.7266 -0.2734  0.7264
  992MOL0     C33844   5.548   1.866   4.943 -1.3657  0.9615  0.7629
  992MOL0     C33845   5.394   1.870   4.957  0.5725  0.4123 -0.5437
  992MOL0     C33846   5.307   1.922   4.842 -0.4109 -0.8327 -0.3244
  992MOL0     C33847   5.161   1.894   4.865 -0.8328  0.0657 -0.3095
  992MOL0     C33848   5.070   1.917   4.753 -0.8524 -0.0841  0.3537
  992MOL0     C33849   4.997   1.942   4.660  0.4067 -0.1155  0.2106
  992MOL0     C33850   5.774   1.676   5.155 -0.3806  0.2890 -0.4974
  992MOL0     C33851   5.905   1.634   5.174 -1.0914 -0.7162 -0.2825
  992MOL0     C33852   5.932   1.521   5.276  0.1018 -0.5681 -0.0180
  992MOL0     H33853   6.386   1.744   5.209 -2.8060 -1.6607 -0.6899
  992MOL0     H33854   6.624   1.701   5.210 -2.5053 -1.7505  1.6613
  992MOL0     H33855   6.848   1.813   5.081  0.5779  0.6487  0.4100
  992MOL0     H33856   6.864   1.657   5.162 -0.8669  1.1404  0.4813
  992MOL0     H33857   7.052   1.582   5.077  0.3726  2.3743  5.3774
  992MOL0     H33858   7.079   1.740   5.095 -2.1919  1.1481  1.8575
  992MOL0     H33859   7.040   1.799   4.861 -1.0073 -0.3789 -1.2974
  992MOL0     H33860   6.970   1.637   4.818 -1.8740  1.7636  1.0602
  992MOL0     H33861   7.216   1.544   4.857  1.0594  0.6703  0.9723
  992MOL0     H33862   7.196   1.669   4.736  1.6131  3.2134  0.1936
  992MOL0     H33863   7.271   1.840   4.890 -2.5476 -0.9026 -1.6182
  992MOL0     H33864   7.299   1.709   5.008 -1.1541  1.7745  1.5224
  992MOL0     H33865   7.462   1.610   4.860  0.6589  0.1430 -1.4836
  992MOL0     H33866   7.424   1.721   4.722 -1.6132  0.0948  0.1778
  992MOL0     H33867   7.566   1.784   4.979 -0.5084 -3.0960 -0.8714
  992MOL0     H33868   7.504   1.913   4.874 -0.7546  0.7378 -2.4839
  992MOL0     H33869   7.719   1.715   4.773  0.6954  1.2480 -3.4500
  992MOL0     H33870   7.644   1.833   4.690  1.0090  0.2489 -0.6096
  992MOL0     H33871   7.957   1.808   4.809  1.1956  1.6303 -0.9182
  992MOL0     H33872   8.139   2.053   4.840 -0.8863  0.0468  1.1875
  992MOL0     H33873   8.081   2.129   4.993  1.7156 -1.4143  4.6243
  992MOL0     H33874   8.079   1.915   5.116 -1.1390 -1.7537 -1.8318
  992MOL0     H33875   8.145   1.843   4.968 -0.0175 -0.5735  1.2965
  992MOL0     H33876   8.264   2.077   5.124 -0.0032 -1.2950  1.7200
  992MOL0     H33877   8.346   1.992   4.995  0.5479  2.5721  0.0406
  992MOL0     H33878   8.418   1.820   5.131  2.1173  0.6381 -0.0041
  992MOL0     H33879   8.262   1.798   5.206  0.6137 -0.1053 -1.8342
  992MOL0     H33880   8.481   2.130   5.457 -1.1589 -1.7626  0.4672
  992MOL0     H33881   8.675   2.274   5.434 -1.0641  1.9708 -0.9992
  992MOL0     H33882   8.899   2.474   5.014 -3.6241 -0.3267  2.1709
  992MOL0     H33883   9.104   2.613   4.933  0.6905 -0.9766  0.1742
  992MOL0     H33884   9.153   2.833   4.947 -1.1741 -0.5746  2.4044
  992MOL0     H33885   9.270   2.938   5.014 -2.7617  0.3863  0.0933
  992MOL0     H33886   9.296   2.743   4.798  2.4439 -0.6074 -2.2892
  992MOL0     H33887   9.338   2.913   4.794 -1.1695  0.3174  1.0222
  992MOL0     H33888   9.491   2.688   4.927  1.9994 -0.1359  0.8277
  992MOL0     H33889   9.526   2.757   4.761  0.5873 -1.2452  0.4521
  992MOL0     H33890   9.562   2.936   5.004  2.4111 -0.4172  0.8838
  992MOL0     H33891   9.655   2.910   4.855 -0.6226 -2.0359 -2.1861
  992MOL0     H33892   9.698   2.713   5.065  0.1117  1.8769  1.6946
  992MOL0     H33893   9.798   2.856   5.039  0.7817 -1.3195  0.1539
  992MOL0     H33894   9.742   2.623   4.861  1.4140 -1.1280  1.4145
  992MOL0     H33895   9.821   2.765   4.788 -1.5790  0.1933 -0.7308
  992MOL0     H33896   9.909   2.563   5.005 -1.3251  1.8358  0.7004
  992MOL0     H33897   9.986   2.714   5.008 -1.8615  2.9806 -1.0582
  992MOL0     H33898  10.122   2.547   4.873 -1.1292  0.8377  1.6716
  992MOL0     H33899   9.990   2.514   4.774 -1.5950  1.2515 -0.4259
  992MOL0     H33900   9.244   2.665   5.325 -0.9150 -0.5435  1.7818
  992MOL0     H33901   9.051   2.518   5.408 -1.7500 -0.8210 -0.8804
  992MOL0     H33902   8.744   2.083   5.046  0.0404 -1.3095  0.0729
  992MOL0     H33903   8.571   1.950   5.077  1.0482  0.3561  0.8912
  992MOL0     H33904   6.604   1.648   4.778 -0.9437  1.6155 -1.6847
  992MOL0     H33905   6.367   1.671   4.789  1.5426  1.5670 -0.8252
  992MOL0     H33906   6.031   1.860   4.945 -0.7170  0.9928  0.5458
  992MOL0     H33907   5.807   1.913   4.925 -2.1615  1.9972  3.1771
  992MOL0     H33908   5.562   1.808   4.851 -0.8781  0.3279  1.2268
  992MOL0     H33909   5.598   1.963   4.935 -0.9245  0.6233 -1.1428
  992MOL0     H33910   5.379   1.934   5.044 -0.8625 -1.8459  0.9694
  992MOL0     H33911   5.351   1.774   4.987 -1.3948  1.8060  1.4135
  992MOL0     H33912   5.343   1.874   4.751  1.6897  1.3284 -0.7387
  992MOL0     H33913   5.328   2.029   4.830  0.5603 -1.0584 -0.7960
  992MOL0     H33914   5.140   1.789   4.888 -1.0186  0.1020 -0.3053
  992MOL0     H33915   5.129   1.949   4.954  2.6605 -1.6545  2.2150
  992MOL0     H33916   4.938   1.969   4.575 -2.6345  0.0553  2.2229
  992MOL0     H33917   5.688   1.631   5.204  0.3519 -0.7825 -0.1630
  992MOL0     H33918   5.989   1.551   5.365 -0.7762 -4.5182  2.0977
  992MOL0     H33919   5.839   1.494   5.327  0.3389 -1.0674  0.1610
  992MOL0     H33920   5.975   1.433   5.226 -1.1439 -0.3743 -1.5176
  993MOL0     O33921   9.275   3.930  10.779  0.1579  0.3438 -0.3079
  993MOL0     C33922   9.263   4.011  10.874 -0.0335  0.2146  0.5497
  993MOL0     O33923   9.294   3.980  11.006  0.1238  0.3223  0.2646
  993MOL0     C33924   9.344   3.859  11.029 -0.1337  0.0109 -0.3405
  993MOL0     C33925   9.273   3.741  11.019  0.2920 -0.0053  0.0559
  993MOL0     C33926   9.330   3.624  11.069  0.2136  0.0596 -0.2216
  993MOL0     C33927   9.451   3.622  11.143 -1.4748 -0.4908 -0.3639
  993MOL0     O33928   9.485   3.508  11.218  0.0309 -0.3094 -0.1150
  993MOL0     C33929   9.608   3.453  11.179  0.2541 -0.0528 -0.6981
  993MOL0     C33930   9.637   3.324  11.266 -0.5162 -0.8606 -0.2752
  993MOL0     C33931   9.552   3.198  11.226  0.4144  0.2645  0.7273
  993MOL0     C33932   9.562   3.148  11.083  0.2510 -1.3447  0.1643
  993MOL0     C33933   9.500   3.012  11.056  0.0736 -0.3736 -0.2078
  993MOL0     C33934   9.367   2.985  11.126  0.5665  0.5977 -0.1438
  993MOL0     C33935   9.314   2.842  11.096  0.5501  0.5208 -1.2200
  993MOL0     C33936   9.189   2.808  11.196 -0.4668 -0.3945 -0.6519
  993MOL0     N33937   9.076   2.907  11.191  0.3453 -0.3437  0.2787
  993MOL0     C33938   8.984   2.915  11.088  0.0819  0.7090 -0.0862
  993MOL0     C33939   8.890   2.998  11.144 -0.5211 -0.0239 -0.8551
  993MOL0     C33940   8.763   3.044  11.075  0.0425 -0.7448  0.1707
  993MOL0     C33941   8.689   2.925  11.020  0.6363  0.8945 -0.0991
  993MOL0     C33942   8.645   2.802  11.102 -0.3619 -0.2162  0.5279
  993MOL0     C33943   8.590   2.833  11.239 -0.1956 -1.2386 -0.4571
  993MOL0     O33944   8.485   2.935  11.229  0.2183 -0.2308  0.2414
  993MOL0     C33945   8.376   2.908  11.149  0.3204  0.6843  0.7881
  993MOL0     C33946   8.325   2.783  11.103  0.0501 -0.6742 -0.3633
  993MOL0     C33947   8.212   2.771  11.021 -0.3550  0.0867 -0.7661
  993MOL0     C33948   8.142   2.887  10.986  1.0062 -0.5938  0.7931
  993MOL0     C33949   8.020   2.883  10.903 -0.3418  0.5896 -0.1030
  993MOL0     O33950   7.955   2.998  10.855 -0.6886 -0.4204  0.1175
  993MOL0     C33951   7.833   2.979  10.820  0.7702 -0.9466  0.5779
  993MOL0     C33952   7.805   2.952  10.685 -0.2027 -0.3830 -0.4741
  993MOL0     C33953   7.674   2.951  10.634 -0.7119 -0.3403  0.6558
  993MOL0     C33954   7.567   2.958  10.724  0.7247 -0.0789 -0.3468
  993MOL0     O33955   7.444   2.962  10.671  0.1644  0.1053 -0.2831
  993MOL0     C33956   7.332   2.921  10.759  0.0626  0.5593 -0.0238
  993MOL0     C33957   7.236   2.850  10.662  0.0595  0.0601  0.0809
  993MOL0     C33958   7.094   2.849  10.724  0.2147  0.3920  0.6184
  993MOL0     C33959   7.079   2.757  10.852  0.1700 -0.3728 -0.0823
  993MOL0     C33960   6.933   2.738  10.890 -0.3068  0.3669 -0.7269
  993MOL0     C33961   6.854   2.669  10.778 -0.4205  0.1677 -0.3533
  993MOL0     C33962   6.731   2.592  10.838  0.8024  0.0667  0.4980
  993MOL0     C33963   6.662   2.478  10.756  0.6357 -0.4041 -0.3945
  993MOL0    Cl33964   6.627   2.544  10.592  0.2402  0.0122 -0.3748
  993MOL0     C33965   7.593   2.996  10.856  0.0302  0.5185 -0.0854
  993MOL0     C33966   7.728   3.005  10.903  0.6179  0.5726  0.0390
  993MOL0     O33967   7.987   2.768  10.872 -0.7384  0.2960  0.0611
  993MOL0     C33968   8.193   3.009  11.035 -0.9550 -0.0113  0.5433
  993MOL0     C33969   8.314   3.023  11.116  0.1557 -0.3115  0.6666
  993MOL0     N33970   8.940   3.044  11.267  0.2626  0.0201 -0.3121
  993MOL0     N33971   9.059   2.996  11.289 -0.1727  0.5952 -0.1736
  993MOL0     C33972   9.519   3.746  11.148  1.6995 -0.6006  0.0137
  993MOL0     C33973   9.463   3.868  11.094 -0.1166 -0.0121 -0.7718
  993MOL0     C33974   9.231   4.153  10.847  0.2196  0.3358 -0.3146
  993MOL0     C33975   9.171   4.229  10.952  0.0463 -1.4139 -0.6648
  993MOL0     C33976   9.114   4.353  10.937  0.7276 -0.5285 -0.1286
  993MOL0     C33977   9.117   4.408  10.806  0.0927  0.2873  0.0038
  993MOL0     O33978   9.076   4.543  10.788 -0.7671  0.0997 -0.1319
  993MOL0     C33979   9.086   4.630  10.900  0.2895 -0.1073 -0.4438
  993MOL0     C33980   9.071   4.780  10.854 -0.8694 -0.0073  0.0631
  993MOL0     C33981   9.122   4.891  10.945  0.0900 -0.5813  0.2034
  993MOL0     C33982   9.276   4.923  10.936 -0.7612 -0.3354 -0.6560
  993MOL0     C33983   9.361   4.826  11.009  0.9694  0.8081 -0.1973
  993MOL0     C33984   9.431   4.736  11.046 -0.8006 -0.0717 -0.3334
  993MOL0     C33985   9.164   4.330  10.698  0.2060 -0.3243  0.4481
  993MOL0     C33986   9.236   4.210  10.714 -0.7489 -0.5609 -0.0372
  993MOL0     C33987   9.302   4.148  10.594 -1.1348 -0.0487 -0.5102
  993MOL0     H33988   9.172   3.747  10.980  1.0680  0.0313 -2.1024
  993MOL0     H33989   9.267   3.536  11.076 -1.4426  1.1513 -0.8432
  993MOL0     H33990   9.610   3.443  11.070 -2.5125  1.4471 -0.9753
  993MOL0     H33991   9.685   3.525  11.210 -1.6513  0.5528  3.1695
  993MOL0     H33992   9.627   3.346  11.372  0.0592  3.6807 -0.9736
  993MOL0     H33993   9.741   3.293  11.250 -0.0913  0.8318 -1.0234
  993MOL0     H33994   9.446   3.226  11.236  0.8727  2.0744  0.8791
  993MOL0     H33995   9.573   3.115  11.293  1.2325  0.1939  0.3907
  993MOL0     H33996   9.523   3.234  11.027 -0.1650 -1.6219  0.0177
  993MOL0     H33997   9.666   3.143  11.051  0.5361 -1.4950  1.0864
  993MOL0     H33998   9.492   3.003  10.947 -2.4681  2.4567 -0.4150
  993MOL0     H33999   9.566   2.928  11.075 -0.9836 -1.1509  0.1190
  993MOL0     H34000   9.365   2.999  11.235  1.7685  2.5344 -0.3227
  993MOL0     H34001   9.298   3.054  11.076  2.1801  0.7261 -2.3131
  993MOL0     H34002   9.399   2.776  11.119 -0.9048 -1.4444 -1.2710
  993MOL0     H34003   9.284   2.829  10.992 -1.5993 -1.0246 -0.4673
  993MOL0     H34004   9.164   2.704  11.174 -0.3430 -0.5030 -0.2821
  993MOL0     H34005   9.224   2.799  11.299  0.3710 -1.4946 -1.0218
  993MOL0     H34006   8.982   2.849  11.002  2.2772  1.2511 -0.6163
  993MOL0     H34007   8.700   3.095  11.149  0.6641  0.3695 -0.0477
  993MOL0     H34008   8.778   3.110  10.989  3.1747 -1.5676 -0.0354
  993MOL0     H34009   8.597   2.956  10.971  1.0728  0.8317 -0.9789
  993MOL0     H34010   8.756   2.884  10.944 -0.2258 -0.5055 -0.1354
  993MOL0     H34011   8.725   2.730  11.116  0.5411  0.3817 -1.2623
  993MOL0     H34012   8.568   2.754  11.042  0.4444 -0.6796 -0.1402
  993MOL0     H34013   8.661   2.887  11.303 -0.7274 -0.6662 -0.3395
  993MOL0     H34014   8.559   2.746  11.297 -2.9767  1.4427  2.5270
  993MOL0     H34015   8.364   2.688  11.137  0.0497 -0.5776 -0.0884
  993MOL0     H34016   8.180   2.671  10.993 -1.5842  0.1438  0.2987
  993MOL0     H34017   7.898   2.956  10.629  0.8049  2.6175  1.1930
  993MOL0     H34018   7.641   2.939  10.532 -0.5812 -1.3108  0.7160
  993MOL0     H34019   7.366   2.850  10.836 -1.9995 -0.8742 -0.3605
  993MOL0     H34020   7.283   3.008  10.803  3.7127  2.4324  0.7577
  993MOL0     H34021   7.234   2.894  10.562 -2.0718  0.4851  0.2648
  993MOL0     H34022   7.274   2.748  10.649  1.5222  0.3836  1.4247
  993MOL0     H34023   7.063   2.950  10.751 -0.4323  0.0836  1.0622
  993MOL0     H34024   7.034   2.808  10.642 -2.6167 -0.2656  2.8514
  993MOL0     H34025   7.137   2.788  10.940 -0.1484 -3.9236  1.5589
  993MOL0     H34026   7.127   2.664  10.821  1.7070  0.3402  0.0599
  993MOL0     H34027   6.892   2.836  10.912  0.5072  0.8049 -1.1004
  993MOL0     H34028   6.933   2.679  10.982 -0.4826  1.1471 -0.2160
  993MOL0     H34029   6.827   2.735  10.695  1.7540 -0.5474 -1.6986
  993MOL0     H34030   6.923   2.593  10.740 -3.1913 -2.4385 -0.5941
  993MOL0     H34031   6.655   2.666  10.865  1.2987 -0.6939  4.4580
  993MOL0     H34032   6.762   2.539  10.928  0.4928 -1.5858 -0.3204
  993MOL0     H34033   6.739   2.400  10.751 -0.3251 -1.7975  3.3853
  993MOL0     H34034   6.576   2.442  10.812  0.3253 -0.1555 -0.7085
  993MOL0     H34035   7.508   3.007  10.923  1.1956 -2.2777  2.0936
  993MOL0     H34036   7.753   3.001  11.008 -2.1373 -2.5265  0.7268
  993MOL0     H34037   8.138   3.098  11.004 -2.6068 -1.0608  0.3350
  993MOL0     H34038   8.341   3.126  11.138  2.4347 -0.9622  1.2492
  993MOL0     H34039   9.607   3.745  11.211  1.9373 -0.8049 -0.3189
  993MOL0     H34040   9.513   3.962  11.115  0.9210 -0.2713 -1.9213
  993MOL0     H34041   9.159   4.201  11.056 -1.9669  0.3295 -0.3441
  993MOL0     H34042   9.078   4.406  11.024 -3.6358 -1.6268 -1.0610
  993MOL0     H34043   9.184   4.628  10.948 -0.3033  0.6724  0.8616
  993MOL0     H34044   9.013   4.606  10.978  1.3827  1.9999  1.3416
  993MOL0     H34045   8.963   4.791  10.841 -0.8179 -0.9802 -1.4424
  993MOL0     H34046   9.120   4.783  10.756  0.1137 -0.5574  0.5264
  993MOL0     H34047   9.094   4.853  11.044 -4.2450  1.4894  0.0195
  993MOL0     H34048   9.061   4.980  10.928  2.0949  0.6588 -0.9008
  993MOL0     H34049   9.299   4.928  10.829  0.0971  0.8271 -0.4297
  993MOL0     H34050   9.277   5.021  10.983 -2.2182 -0.1293 -1.0173
  993MOL0     H34051   9.500   4.667  11.091 -1.4240  1.9856  4.3021
  993MOL0     H34052   9.165   4.370  10.597  3.2421  1.7421  1.1610
  993MOL0     H34053   9.297   4.218  10.510  0.4314 -1.7850 -2.1586
  993MOL0     H34054   9.407   4.125  10.612 -0.7812  1.9445  0.2209
  993MOL0     H34055   9.246   4.056  10.571  3.1137 -2.4500 -2.4048
  994MOL0     O34056   2.875  10.900   9.515  0.5202 -0.4184  0.3623
  994MOL0     C34057   2.768  10.910   9.568  0.8206  0.4398  0.8428
  994MOL0     O34058   2.731  10.838   9.676  0.3177  0.2659  0.7874
  994MOL0     C34059   2.829  10.795   9.770  0.3777  0.0489 -0.0757
  994MOL0     C34060   2.929  10.881   9.823 -0.6077 -0.5774 -0.1042
  994MOL0     C34061   3.015  10.822   9.920 -1.1985  0.1927  0.6967
  994MOL0     C34062   3.004  10.691   9.974  1.0942  0.0069 -0.1418
  994MOL0     O34063   3.076  10.619  10.066  0.0929  0.8500 -0.1274
  994MOL0     C34064   3.184  10.698  10.116 -0.3417  0.3113 -1.0934
  994MOL0     C34065   3.302  10.695  10.011  0.4249  0.3394 -0.3038
  994MOL0     C34066   3.443  10.710  10.075  1.9958 -0.0764  0.2708
  994MOL0     C34067   3.452  10.821  10.173 -0.2013 -0.1835 -0.6211
  994MOL0     C34068   3.583  10.824  10.253  0.4994 -0.4967  0.5148
  994MOL0     C34069   3.704  10.836  10.158 -0.1433 -0.4132 -0.6338
  994MOL0     C34070   3.831  10.817  10.232  0.3763 -0.3317 -0.3032
  994MOL0     C34071   3.875  10.668  10.265  0.5586  0.7815 -0.0799
  994MOL0     N34072   3.876  10.571  10.153 -0.7372  0.6412  0.6864
  994MOL0     C34073   3.768  10.514  10.107  0.5423  0.2126  0.6658
  994MOL0     C34074   3.807  10.445   9.999 -0.5921  0.4132 -0.3526
  994MOL0     C34075   3.708  10.362   9.931  0.6552  0.5454 -0.0093
  994MOL0     C34076   3.668  10.446   9.806 -0.3491 -0.2660 -0.1778
  994MOL0     C34077   3.561  10.386   9.717 -0.7288 -0.3328 -0.9220
  994MOL0     C34078   3.512  10.488   9.616 -0.3940 -0.3210 -0.1432
  994MOL0     O34079   3.379  10.549   9.646  0.1779  0.3596 -0.1902
  994MOL0     C34080   3.269  10.461   9.636  0.3077  0.0900  0.6067
  994MOL0     C34081   3.268  10.322   9.594 -0.4383  0.2805  0.2418
  994MOL0     C34082   3.149  10.258   9.600 -0.9084  0.1242  0.5705
  994MOL0     C34083   3.024  10.311   9.637  0.2639 -0.8072 -0.2481
  994MOL0     C34084   2.911  10.222   9.645 -0.7940 -0.0157  0.1588
  994MOL0     O34085   2.788  10.273   9.661 -0.2255 -0.8856 -0.1293
  994MOL0     C34086   2.683  10.187   9.684  0.2542  0.4162  0.3918
  994MOL0     C34087   2.614  10.200   9.801  0.2625  0.1602  0.9209
  994MOL0     C34088   2.497  10.124   9.821 -0.5121  0.1948 -0.2154
  994MOL0     C34089   2.454  10.033   9.717 -0.8684 -0.5954  0.1327
  994MOL0     O34090   2.335   9.971   9.724  0.3411  0.7923 -0.0193
  994MOL0     C34091   2.232  10.040   9.800 -0.3029  0.9359  0.0886
  994MOL0     C34092   2.102   9.998   9.733 -0.5048  0.1055 -0.2135
  994MOL0     C34093   1.974  10.045   9.803  0.0263  0.0929 -0.2853
  994MOL0     C34094   1.851  10.047   9.714  0.4448  0.3015  0.0260
  994MOL0     C34095   1.713  10.069   9.789 -0.0530 -0.8055 -0.5570
  994MOL0     C34096   1.600  10.078   9.694  0.7036  0.1973  0.3516
  994MOL0     C34097   1.577  10.222   9.636  0.2700 -0.4141 -0.2818
  994MOL0     C34098   1.469  10.217   9.526  0.0943 -0.2832 -0.8045
  994MOL0    Cl34099   1.304  10.230   9.590 -0.2064  0.1080 -0.6898
  994MOL0     C34100   2.536  10.016   9.603 -0.3244 -0.2451  0.2261
  994MOL0     C34101   2.647  10.093   9.581  0.3034  0.2996  0.3925
  994MOL0     O34102   2.939  10.099   9.650 -0.3824 -0.4006 -0.0887
  994MOL0     C34103   3.024  10.446   9.661  0.0740 -0.4634 -0.0515
  994MOL0     C34104   3.151  10.519   9.658  0.2576  0.6677  0.6830
  994MOL0     N34105   3.944  10.457   9.994  0.2947 -0.2704 -0.7353
  994MOL0     N34106   3.982  10.531  10.081 -0.8147  0.1707  0.9958
  994MOL0     C34107   2.890  10.618   9.929 -0.3663 -1.0096 -0.2954
  994MOL0     C34108   2.809  10.668   9.826 -0.0604 -0.2347 -0.5265
  994MOL0     C34109   2.664  10.997   9.496  0.5352 -1.1792 -0.8098
  994MOL0     C34110   2.536  10.943   9.470  0.0127 -0.1447 -1.3941
  994MOL0     C34111   2.438  11.018   9.413  0.5824 -0.2559  0.2386
  994MOL0     C34112   2.455  11.157   9.396 -0.5699  0.1545  0.1808
  994MOL0     O34113   2.364  11.242   9.332 -0.2037 -0.0523 -0.9941
  994MOL0     C34114   2.235  11.193   9.300  0.2139 -0.8440 -0.1885
  994MOL0     C34115   2.142  11.213   9.413 -1.2571 -0.4153 -0.2387
  994MOL0     C34116   2.125  11.351   9.466  0.2155  0.3438  0.6745
  994MOL0     C34117   2.023  11.372   9.571 -0.6544  0.4045  0.3875
  994MOL0     C34118   1.889  11.355   9.528  0.5218 -0.4835  0.3461
  994MOL0     C34119   1.772  11.345   9.501  0.6806 -0.3755  0.5547
  994MOL0     C34120   2.585  11.209   9.420 -0.4095  0.8223 -0.2577
  994MOL0     C34121   2.687  11.134   9.473 -0.2448 -0.5964 -0.5107
  994MOL0     C34122   2.820  11.198   9.510  0.6659  0.0775 -0.2558
  994MOL0     H34123   2.935  10.976   9.770  0.5955 -1.9885 -2.7093
  994MOL0     H34124   3.096  10.889   9.947 -0.5448  0.2009 -1.1586
  994MOL0     H34125   3.164  10.801  10.147  2.0635 -0.0656  2.3477
  994MOL0     H34126   3.224  10.647  10.205 -1.0641  1.3197 -0.1591
  994MOL0     H34127   3.295  10.783   9.946  0.6317 -0.2962 -1.2219
  994MOL0     H34128   3.293  10.602   9.953 -1.0433  1.7555 -2.5308
  994MOL0     H34129   3.497  10.745   9.986  0.4611 -2.4301 -1.7423
  994MOL0     H34130   3.463  10.608  10.108 -2.1134 -2.1303 -2.6505
  994MOL0     H34131   3.433  10.917  10.123  1.1101 -0.5523 -1.8992
  994MOL0     H34132   3.371  10.822  10.246  0.0404  1.0209 -0.3459
  994MOL0     H34133   3.596  10.905  10.325  1.4994  3.7143 -3.8165
  994MOL0     H34134   3.593  10.731  10.308 -0.6686 -1.0548 -0.1677
  994MOL0     H34135   3.709  10.763  10.077 -0.4700 -1.9258  0.6702
  994MOL0     H34136   3.711  10.937  10.115  0.8937 -0.9958 -1.8989
  994MOL0     H34137   3.833  10.864  10.331  0.8428 -0.9853  0.0035
  994MOL0     H34138   3.906  10.850  10.159  0.3465  1.9896  0.6313
  994MOL0     H34139   3.965  10.652  10.324 -0.6852 -1.3577  1.3718
  994MOL0     H34140   3.803  10.624  10.335  1.1927  0.5420  0.4263
  994MOL0     H34141   3.665  10.536  10.134 -0.4756 -1.5642 -1.4416
  994MOL0     H34142   3.749  10.269   9.891 -0.8945 -0.2070  0.0677
  994MOL0     H34143   3.617  10.338   9.988 -0.2308  1.2657 -1.0759
  994MOL0     H34144   3.626  10.537   9.850  0.1245 -1.1381  2.2343
  994MOL0     H34145   3.750  10.466   9.737 -0.6584  0.0881 -0.4479
  994MOL0     H34146   3.483  10.345   9.781 -0.8285 -1.8852 -1.9931
  994MOL0     H34147   3.609  10.304   9.663 -3.3140 -0.6323 -2.9213
  994MOL0     H34148   3.515  10.443   9.517  2.4979 -0.8526  0.1034
  994MOL0     H34149   3.582  10.572   9.602 -0.1589 -0.7621 -1.8164
  994MOL0     H34150   3.363  10.289   9.551  0.1152  0.1773  1.5102
  994MOL0     H34151   3.174  10.155   9.577  3.6248  0.2448  3.6398
  994MOL0     H34152   2.655  10.272   9.871  1.0204  2.8297 -2.0265
  994MOL0     H34153   2.443  10.134   9.914  0.0976 -2.0795  0.4534
  994MOL0     H34154   2.249   9.994   9.897 -1.5789  0.3598  0.0622
  994MOL0     H34155   2.237  10.148   9.815 -3.0474  1.3315 -1.1101
  994MOL0     H34156   2.116  10.039   9.633 -1.6918 -0.9825 -0.8441
  994MOL0     H34157   2.113   9.889   9.725  0.9769  0.0799  1.4339
  994MOL0     H34158   1.959   9.979   9.888 -2.6428 -1.4358 -1.7922
  994MOL0     H34159   1.984  10.152   9.827  1.1279  0.1172 -0.7853
  994MOL0     H34160   1.838   9.953   9.660  0.1983 -1.2789  2.6912
  994MOL0     H34161   1.867  10.121   9.635 -0.2857  0.3881 -0.0497
  994MOL0     H34162   1.718  10.158   9.854  0.1246 -2.0067  1.1475
  994MOL0     H34163   1.706   9.984   9.858 -1.7092 -0.7931 -0.6876
  994MOL0     H34164   1.627  10.021   9.604 -2.0752  1.9114 -1.7633
  994MOL0     H34165   1.511  10.041   9.746  0.6288  2.1497  1.7039
  994MOL0     H34166   1.674  10.256   9.599 -0.7992  0.1931 -2.7003
  994MOL0     H34167   1.553  10.302   9.707  2.7489 -0.5838  0.8343
  994MOL0     H34168   1.490  10.296   9.453 -1.0965 -0.6585 -1.5982
  994MOL0     H34169   1.470  10.123   9.470  0.6057 -0.7192 -0.0730
  994MOL0     H34170   2.503   9.942   9.532  3.0927 -0.1379 -1.6924
  994MOL0     H34171   2.700  10.087   9.486 -0.7543  0.6752 -0.2384
  994MOL0     H34172   2.930  10.498   9.674 -0.5668 -1.5030 -0.3869
  994MOL0     H34173   3.147  10.623   9.690 -3.0619  0.4873  1.1639
  994MOL0     H34174   2.866  10.520   9.969  1.4995 -1.8005 -0.9578
  994MOL0     H34175   2.734  10.596   9.793 -1.5664  1.7676 -1.7218
  994MOL0     H34176   2.510  10.841   9.498 -0.1945  0.6958  1.9412
  994MOL0     H34177   2.340  10.976   9.396 -0.6532  1.8617  1.7355
  994MOL0     H34178   2.236  11.090   9.263  1.6905 -0.4221 -1.4206
  994MOL0     H34179   2.196  11.259   9.222 -1.9463  0.7315  2.0956
  994MOL0     H34180   2.167  11.157   9.504  0.3663 -0.2048 -0.5415
  994MOL0     H34181   2.045  11.173   9.382 -1.1313 -0.7354 -0.2256
  994MOL0     H34182   2.088  11.413   9.384  0.5475 -2.2211 -1.5797
  994MOL0     H34183   2.224  11.390   9.490  1.5439 -2.8678  0.9017
  994MOL0     H34184   2.038  11.285   9.637  4.7342  0.4937 -0.2546
  994MOL0     H34185   2.035  11.469   9.621  2.5885 -0.1188  0.8829
  994MOL0     H34186   1.670  11.345   9.468  0.8786 -1.0057 -0.0822
  994MOL0     H34187   2.594  11.316   9.399 -0.7451  0.5222 -2.0872
  994MOL0     H34188   2.832  11.190   9.618 -0.6507  1.5875  0.0261
  994MOL0     H34189   2.908  11.167   9.452 -1.4058 -0.5802 -3.2553
  994MOL0     H34190   2.813  11.304   9.484 -0.1941  0.0326 -0.2389
  995MOL0     O34191   0.679   5.266  11.148 -0.1780  0.2543  0.2620
  995MOL0     C34192   0.654   5.371  11.197 -0.0060 -0.3210 -1.3621
  995MOL0     O34193   0.754   5.454  11.251  1.1124  0.0490  0.0599
  995MOL0     C34194   0.886   5.414  11.262 -0.6218 -0.0943  0.7058
  995MOL0     C34195   0.929   5.324  11.356  0.1650 -0.7844 -0.3902
  995MOL0     C34196   1.067   5.296  11.381  0.6569  0.6621 -0.1133
  995MOL0     C34197   1.162   5.350  11.289  1.0216  0.3664  0.0503
  995MOL0     O34198   1.295   5.326  11.310  0.2911 -0.0010  0.7999
  995MOL0     C34199   1.339   5.186  11.283  0.4373 -0.0587 -0.4158
  995MOL0     C34200   1.464   5.169  11.347 -0.3242  0.1705 -0.1224
  995MOL0     C34201   1.504   5.025  11.319  0.8514  0.2114 -0.3629
  995MOL0     C34202   1.639   4.996  11.390 -0.4965  0.2245 -0.2299
  995MOL0     C34203   1.703   4.863  11.358  0.3391  1.0889  0.2035
  995MOL0     C34204   1.717   4.851  11.206 -0.2515 -0.8477 -0.6812
  995MOL0     C34205   1.814   4.742  11.137  0.2553 -0.4344 -0.6696
  995MOL0     C34206   1.958   4.770  11.174 -0.7916 -0.2555 -0.1543
  995MOL0     N34207   2.032   4.878  11.103 -0.1428  0.3626  0.2143
  995MOL0     C34208   1.991   5.005  11.080  0.2752 -0.0137 -0.7872
  995MOL0     C34209   2.074   5.057  10.982  0.4634 -0.3212 -0.0903
  995MOL0     C34210   2.060   5.179  10.903  0.2931  0.8136  0.1737
  995MOL0     C34211   1.947   5.159  10.803 -0.6924 -0.0994 -0.3087
  995MOL0     C34212   1.928   5.287  10.722 -1.0811 -0.4787 -0.1651
  995MOL0     C34213   1.839   5.287  10.601 -0.0660  0.6694 -0.0888
  995MOL0     O34214   1.705   5.300  10.648 -0.3561  0.3860  0.6979
  995MOL0     C34215   1.615   5.297  10.543  0.6737  0.8699  0.0620
  995MOL0     C34216   1.485   5.309  10.584  0.2197  0.2320  1.0684
  995MOL0     C34217   1.377   5.307  10.496 -0.0370 -0.4137  0.0662
  995MOL0     C34218   1.391   5.288  10.359 -0.5447  0.7746 -0.2191
  995MOL0     C34219   1.289   5.309  10.250 -0.0944 -0.1029 -0.9991
  995MOL0     O34220   1.171   5.365  10.294  0.2369 -0.2252 -0.3608
  995MOL0     C34221   1.065   5.379  10.209 -0.4432  0.3080 -0.1844
  995MOL0     C34222   0.969   5.484  10.232 -0.2002  0.9378 -0.4884
  995MOL0     C34223   0.859   5.511  10.156  0.4777  0.5587 -0.4335
  995MOL0     C34224   0.834   5.428  10.052  0.5034 -0.0281  0.7829
  995MOL0     O34225   0.735   5.447   9.962 -0.0292 -0.0302 -0.6386
  995MOL0     C34226   0.603   5.463  10.026  0.6866  0.4272 -0.3522
  995MOL0     C34227   0.484   5.457   9.922  0.7438 -1.0073 -0.3672
  995MOL0     C34228   0.371   5.565   9.953 -1.0021 -0.4064  0.0681
  995MOL0     C34229   0.289   5.531  10.076  0.9609  0.7416 -0.3341
  995MOL0     C34230   0.149   5.602  10.075  0.3822  0.3137 -0.1946
  995MOL0     C34231   0.171   5.754  10.084  0.1874  0.1140 -0.1244
  995MOL0     C34232   0.048   5.818  10.144 -0.7830  0.4633  0.5749
  995MOL0     C34233   0.018   5.790  10.292 -0.0500 -0.2878 -1.7568
  995MOL0    Cl34234   0.154   5.818  10.417 -0.1293 -0.0210  0.6419
  995MOL0     C34235   0.923   5.320  10.018 -0.7959  0.0943 -0.0729
  995MOL0     C34236   1.032   5.291  10.106  0.8891 -0.7538 -0.4414
  995MOL0     O34237   1.326   5.292  10.130  0.5364  0.0608  0.6402
  995MOL0     C34238   1.526   5.272  10.316  0.1452 -0.0698  0.2346
  995MOL0     C34239   1.630   5.277  10.403 -0.4124 -0.6144 -0.2139
  995MOL0     N34240   2.174   4.964  10.957  0.1395  0.1439  0.4384
  995MOL0     N34241   2.142   4.853  11.027  0.0503  0.5133 -0.9540
  995MOL0     C34242   1.113   5.426  11.181  0.6843 -0.0297 -0.1879
  995MOL0     C34243   0.977   5.471  11.174 -0.4475  0.0394  0.5889
  995MOL0     C34244   0.504   5.407  11.206 -0.4196 -0.3138  0.3773
  995MOL0     C34245   0.419   5.343  11.117  0.6675  0.4963  0.1535
  995MOL0     C34246   0.285   5.377  11.110  0.7176  0.5175  0.2650
  995MOL0     C34247   0.223   5.472  11.197 -0.6737  0.4312 -0.3197
  995MOL0     O34248   0.092   5.491  11.173 -0.1983 -0.4329 -0.6554
  995MOL0     C34249   0.009   5.568  11.259 -0.5177  0.1061  0.2112
  995MOL0     C34250  -0.132   5.543  11.206 -0.5996  0.8072 -0.8259
  995MOL0     C34251  -0.220   5.669  11.209  0.0841  0.2746  0.1328
  995MOL0     C34252  -0.163   5.763  11.097  0.3532 -0.4243  0.1368
  995MOL0     C34253  -0.260   5.821  11.005 -0.2386  0.0377  0.5615
  995MOL0     C34254  -0.329   5.877  10.922  0.2941  0.6948 -0.3797
  995MOL0     C34255   0.316   5.536  11.283  0.4411 -0.0234 -0.0641
  995MOL0     C34256   0.449   5.506  11.290 -0.1674 -0.4502 -0.1799
  995MOL0     C34257   0.531   5.589  11.394 -0.3808 -0.2301 -0.4183
  995MOL0     H34258   0.850   5.283  11.418  0.5842 -0.7723  0.1575
  995MOL0     H34259   1.097   5.231  11.462 -1.0029  1.2411  1.0025
  995MOL0     H34260   1.267   5.113  11.322  2.2888 -2.9858 -2.0736
  995MOL0     H34261   1.354   5.178  11.174  3.2287  1.9650 -0.2830
  995MOL0     H34262   1.465   5.199  11.453 -1.6966  0.7534 -0.2611
  995MOL0     H34263   1.536   5.237  11.300 -1.4166  2.0537  0.8040
  995MOL0     H34264   1.515   5.027  11.211 -0.8688  0.4174 -0.5604
  995MOL0     H34265   1.421   4.959  11.347  0.5729  0.7915  0.2277
  995MOL0     H34266   1.708   5.078  11.370  0.1116 -0.5387 -1.3439
  995MOL0     H34267   1.608   4.994  11.495 -0.9709 -1.1777 -0.3794
  995MOL0     H34268   1.800   4.858  11.410  1.3139  2.3055 -1.4089
  995MOL0     H34269   1.650   4.777  11.399  1.6540 -0.0065 -0.3428
  995MOL0     H34270   1.618   4.833  11.163  0.2868 -0.7188 -2.0155
  995MOL0     H34271   1.747   4.952  11.178 -0.3126 -0.6927 -0.1960
  995MOL0     H34272   1.807   4.749  11.029  0.3059 -1.3232 -0.7446
  995MOL0     H34273   1.796   4.637  11.165  1.4754 -0.2276  1.0762
  995MOL0     H34274   1.966   4.803  11.277  0.2467  2.4821 -1.0281
  995MOL0     H34275   2.014   4.677  11.160 -2.0518 -0.8944 -1.2845
  995MOL0     H34276   1.920   5.062  11.140 -0.1423 -1.8274  0.5234
  995MOL0     H34277   2.039   5.264  10.969  3.3388  2.7651 -1.1599
  995MOL0     H34278   2.151   5.219  10.856  1.2292  1.6869  2.5640
  995MOL0     H34279   1.988   5.082  10.738 -0.0065 -0.3035  0.3493
  995MOL0     H34280   1.862   5.116  10.856  1.7588 -2.3389  2.1565
  995MOL0     H34281   2.023   5.324  10.680 -2.6972  3.0346 -1.0910
  995MOL0     H34282   1.899   5.369  10.788  1.7059 -1.3644  2.4173
  995MOL0     H34283   1.849   5.201  10.533  2.7410  0.3570  0.5859
  995MOL0     H34284   1.854   5.379  10.544  2.3392 -0.0769 -0.7912
  995MOL0     H34285   1.471   5.337  10.688  2.2818  0.9009  1.1975
  995MOL0     H34286   1.275   5.320  10.530 -0.6828 -0.3433 -1.8149
  995MOL0     H34287   0.995   5.549  10.315  1.1700  0.3467 -0.4275
  995MOL0     H34288   0.796   5.598  10.171 -1.8383 -0.7536 -1.9365
  995MOL0     H34289   0.584   5.395  10.110 -0.6219  0.4546 -0.6033
  995MOL0     H34290   0.603   5.562  10.071 -2.6860  0.2839  0.2629
  995MOL0     H34291   0.524   5.485   9.825  4.3892  0.1435  1.2853
  995MOL0     H34292   0.447   5.355   9.905  0.1726 -0.2764 -4.3552
  995MOL0     H34293   0.413   5.662   9.979  0.2187 -1.0949  0.7582
  995MOL0     H34294   0.305   5.589   9.869 -1.7456 -1.5799  0.2866
  995MOL0     H34295   0.343   5.570  10.163  0.0998  2.0632 -0.3555
  995MOL0     H34296   0.273   5.423  10.081  1.0753  0.7821  3.2775
  995MOL0     H34297   0.113   5.560  10.169  3.0664  1.9083  1.6608
  995MOL0     H34298   0.081   5.577   9.992  0.8439 -0.6675 -0.2882
  995MOL0     H34299   0.258   5.779  10.146 -1.5309  0.0990  2.4041
  995MOL0     H34300   0.187   5.806   9.989 -0.3604 -1.6657 -1.2362
  995MOL0     H34301  -0.039   5.798  10.082 -0.1505  0.7649 -0.4357
  995MOL0     H34302   0.076   5.923  10.133  3.8264 -0.3569  1.9728
  995MOL0     H34303  -0.065   5.851  10.328  1.6133  0.3060  1.4306
  995MOL0     H34304  -0.014   5.685  10.287  1.0385 -0.5709 -3.9187
  995MOL0     H34305   0.906   5.268   9.924 -0.6126  2.4302 -1.4792
  995MOL0     H34306   1.105   5.220  10.069  1.4396  0.7230 -2.3070
  995MOL0     H34307   1.552   5.252  10.213 -0.1530 -0.0717  0.1618
  995MOL0     H34308   1.731   5.281  10.365  0.3510  1.5436  1.7659
  995MOL0     H34309   1.165   5.469  11.095 -1.2175  2.4811 -0.2006
  995MOL0     H34310   0.951   5.553  11.107  1.6159  2.3343  2.3769
  995MOL0     H34311   0.454   5.260  11.057  1.3524  2.0091 -1.6579
  995MOL0     H34312   0.215   5.326  11.045  2.0983  0.1054 -0.9516
  995MOL0     H34313   0.040   5.673  11.249  0.1224 -0.2371 -1.9179
  995MOL0     H34314   0.015   5.550  11.367 -3.3672  0.3808  0.4811
  995MOL0     H34315  -0.180   5.458  11.257  0.1161  0.2738 -1.0192
  995MOL0     H34316  -0.117   5.511  11.103  4.0996  1.4834 -0.5647
  995MOL0     H34317  -0.215   5.727  11.301 -0.8659 -0.3541  0.5939
  995MOL0     H34318  -0.328   5.653  11.204 -0.4165  3.2678 -0.2993
  995MOL0     H34319  -0.100   5.840  11.142  1.2087 -1.4876  0.7927
  995MOL0     H34320  -0.100   5.704  11.030 -1.2874 -1.1607 -0.8435
  995MOL0     H34321  -0.400   5.937  10.870 -2.6882  0.2328  2.8165
  995MOL0     H34322   0.277   5.616  11.344 -1.4726  1.1479 -2.6075
  995MOL0     H34323   0.471   5.635  11.474 -1.8129  1.0502 -2.1611
  995MOL0     H34324   0.606   5.525  11.442  0.7110  0.7385 -0.7635
  995MOL0     H34325   0.577   5.667  11.333 -1.6651 -0.2378 -1.4335
  996MOL0     O34326   3.797   9.715  10.462  0.4551  0.4122  0.6312
  996MOL0     C34327   3.681   9.746  10.426 -0.2950  0.5325 -0.9767
  996MOL0     O34328   3.598   9.836  10.487 -0.1511  0.2697 -0.2074
  996MOL0     C34329   3.651   9.906  10.591 -0.2764  0.0285  0.4266
  996MOL0     C34330   3.590   9.892  10.716 -0.3691 -0.0900  0.1735
  996MOL0     C34331   3.642   9.961  10.827 -0.0750 -0.2238 -0.2458
  996MOL0     C34332   3.772  10.017  10.829  0.6263 -0.9269  0.8129
  996MOL0     O34333   3.830  10.046  10.948  0.5087 -0.5975 -0.2217
  996MOL0     C34334   3.968  10.080  10.960  0.1629 -0.1242  0.1563
  996MOL0     C34335   3.969  10.210  11.035 -1.0069 -0.0351  0.7076
  996MOL0     C34336   4.116  10.270  11.031  0.3540  0.8893  1.5204
  996MOL0     C34337   4.133  10.403  11.096 -0.8575 -0.5171 -0.0114
  996MOL0     C34338   4.275  10.454  11.078 -0.1669  0.7189  0.0454
  996MOL0     C34339   4.278  10.599  11.125 -1.1095 -0.6483 -0.6235
  996MOL0     C34340   4.420  10.655  11.097 -0.6868  0.6455  0.7417
  996MOL0     C34341   4.423  10.810  11.115  0.0415  0.2138 -0.1945
  996MOL0     N34342   4.437  10.894  10.998  0.2213  0.1812  0.0952
  996MOL0     C34343   4.342  10.917  10.904  0.2894  0.0640 -0.4037
  996MOL0     C34344   4.402  10.988  10.809 -0.1265  0.1796 -0.4402
  996MOL0     C34345   4.337  11.069  10.697  0.1629 -0.0465  0.0162
  996MOL0     C34346   4.271  11.208  10.738  0.3252 -0.2105  0.0533
  996MOL0     C34347   4.187  11.197  10.865  0.2933 -0.0771 -0.9435
  996MOL0     C34348   4.089  11.316  10.875 -0.3871 -0.1091 -0.9607
  996MOL0     O34349   3.985  11.287  10.783  0.3035  0.2241 -0.0226
  996MOL0     C34350   3.856  11.324  10.811  0.7484 -0.3135  0.3273
  996MOL0     C34351   3.750  11.266  10.734  0.0287  0.5083 -0.6575
  996MOL0     C34352   3.620  11.294  10.758 -0.5556 -0.1518  0.2587
  996MOL0     C34353   3.586  11.402  10.845  1.0727 -0.7555 -0.3838
  996MOL0     C34354   3.449  11.447  10.853 -0.1259 -0.2990 -0.7635
  996MOL0     O34355   3.438  11.548  10.946  0.4961  0.1766 -0.0072
  996MOL0     C34356   3.321  11.627  10.935 -0.5202 -0.9093 -0.0484
  996MOL0     C34357   3.344  11.765  10.934  0.4675 -0.3714  0.9036
  996MOL0     C34358   3.241  11.857  10.922  0.0627  0.3974 -0.3834
  996MOL0     C34359   3.111  11.821  10.943  0.1292  0.6677  0.5580
  996MOL0     O34360   3.027  11.925  10.948  0.5831  0.4474 -0.0063
  996MOL0     C34361   2.884  11.894  10.945 -0.3660  0.9959  0.1497
  996MOL0     C34362   2.797  12.021  10.929 -0.1785  0.7457  0.5949
  996MOL0     C34363   2.745  12.087  11.060 -1.1566 -0.1416  0.3761
  996MOL0     C34364   2.599  12.040  11.089 -0.1511  0.3638  0.0962
  996MOL0     C34365   2.555  12.088  11.224 -0.0362  0.5269  0.0308
  996MOL0     C34366   2.402  12.081  11.234 -0.1696 -0.3011 -0.0622
  996MOL0     C34367   2.358  12.173  11.357  0.4851  0.4074 -0.2707
  996MOL0     C34368   2.376  12.097  11.487 -0.1633  0.8431 -1.3847
  996MOL0    Cl34369   2.305  12.189  11.619  0.7651 -0.3712  0.5868
  996MOL0     C34370   3.086  11.679  10.948  0.1449 -1.3052 -0.0814
  996MOL0     C34371   3.189  11.580  10.946 -0.3070 -0.7506  0.1787
  996MOL0     O34372   3.380  11.418  10.761  1.0813  0.1293  0.0224
  996MOL0     C34373   3.692  11.458  10.913  0.2751  0.2876 -0.2202
  996MOL0     C34374   3.826  11.425  10.902  1.2100 -0.0676  0.3985
  996MOL0     N34375   4.529  11.023  10.849  0.2165 -0.0630  0.7834
  996MOL0     N34376   4.553  10.967  10.963 -0.3985 -0.1773 -0.2604
  996MOL0     C34377   3.828  10.036  10.698 -0.7303  0.1863 -0.3870
  996MOL0     C34378   3.769   9.981  10.584  0.4286 -0.0288 -0.0132
  996MOL0     C34379   3.621   9.680  10.308 -0.7326  0.3101  0.5727
  996MOL0     C34380   3.487   9.635  10.308 -0.8898  0.2377  0.0192
  996MOL0     C34381   3.424   9.564  10.203 -0.0598  0.6802 -0.4803
  996MOL0     C34382   3.508   9.512  10.107 -0.3730  0.4658  0.2030
  996MOL0     O34383   3.465   9.422  10.012  0.7924  0.6144 -0.0757
  996MOL0     C34384   3.428   9.288  10.041  0.0071  0.0543  0.8543
  996MOL0     C34385   3.507   9.200   9.941 -0.2513  0.3562  0.5489
  996MOL0     C34386   3.656   9.203   9.957 -0.4636  0.2436  0.2701
  996MOL0     C34387   3.719   9.082   9.893  0.5751 -0.2629  0.6424
  996MOL0     C34388   3.721   8.971   9.987  0.1551  0.2848 -0.5535
  996MOL0     C34389   3.731   8.879  10.065  0.2089  0.7077  0.2003
  996MOL0     C34390   3.639   9.558  10.086 -0.3242 -0.2032 -0.8461
  996MOL0     C34391   3.691   9.636  10.193  0.2048 -0.7865  0.3223
  996MOL0     C34392   3.820   9.706  10.166  0.6031 -0.0358  0.1204
  996MOL0     H34393   3.494   9.845  10.733  1.1920 -2.8518  2.3938
  996MOL0     H34394   3.580   9.945  10.914  1.3820  0.6704  1.0168
  996MOL0     H34395   4.016   9.997  11.013 -0.6443 -0.0385  1.0524
  996MOL0     H34396   4.016  10.092  10.863 -0.5939 -1.6283 -0.4325
  996MOL0     H34397   3.937  10.192  11.138 -0.6376  1.0616  1.0268
  996MOL0     H34398   3.916  10.281  10.972  0.8518 -2.4531 -4.0977
  996MOL0     H34399   4.146  10.276  10.926  0.4468 -0.2967  1.4607
  996MOL0     H34400   4.186  10.203  11.083  0.3508  0.1034  0.5460
  996MOL0     H34401   4.066  10.476  11.050  1.7132  0.3431 -2.7377
  996MOL0     H34402   4.121  10.392  11.204  0.3619  0.3583  0.2336
  996MOL0     H34403   4.342  10.385  11.131 -1.9066 -0.9985  0.1200
  996MOL0     H34404   4.302  10.440  10.973  0.3310  0.0838  0.2481
  996MOL0     H34405   4.211  10.653  11.057 -0.0156 -1.1663 -2.1691
  996MOL0     H34406   4.247  10.617  11.228 -0.5863 -0.9417 -0.4105
  996MOL0     H34407   4.459  10.624  11.000  0.0796  0.2940  1.1541
  996MOL0     H34408   4.493  10.616  11.169 -1.1143  2.6288  2.3794
  996MOL0     H34409   4.343  10.863  11.168  0.9359  0.3764  1.0335
  996MOL0     H34410   4.516  10.819  11.171  0.7805 -0.7021 -1.2386
  996MOL0     H34411   4.245  10.869  10.897 -0.5015  1.4236  0.7633
  996MOL0     H34412   4.420  11.093  10.630  0.7258 -3.6092 -0.7501
  996MOL0     H34413   4.263  11.006  10.646 -0.3915 -1.6998  2.6074
  996MOL0     H34414   4.342  11.292  10.742 -0.3804  0.3970  0.0980
  996MOL0     H34415   4.204  11.236  10.657 -3.0706 -2.1497  1.9746
  996MOL0     H34416   4.261  11.202  10.945 -0.2995  0.5367 -0.4244
  996MOL0     H34417   4.132  11.102  10.871 -1.0189  0.7686  2.2547
  996MOL0     H34418   4.132  11.414  10.852 -1.8451  0.4499 -1.3949
  996MOL0     H34419   4.060  11.320  10.981 -0.5861 -0.2076 -1.0100
  996MOL0     H34420   3.765  11.178  10.674  1.3085 -0.2929  0.7589
  996MOL0     H34421   3.538  11.239  10.713 -1.8836  1.8441  0.0748
  996MOL0     H34422   3.446  11.803  10.941 -1.0124  4.0284  1.5303
  996MOL0     H34423   3.254  11.960  10.891 -5.3021  1.5375  0.1034
  996MOL0     H34424   2.870  11.826  10.861  2.8603 -1.3013  1.2844
  996MOL0     H34425   2.857  11.840  11.036 -2.6216 -1.1629 -1.6449
  996MOL0     H34426   2.862  12.088  10.872  0.0687 -1.4931 -1.9419
  996MOL0     H34427   2.714  11.999  10.861  1.0293 -0.6119 -0.5099
  996MOL0     H34428   2.820  12.072  11.138 -2.8613  4.0552  3.1242
  996MOL0     H34429   2.750  12.195  11.047  1.8586  0.0714  2.2632
  996MOL0     H34430   2.599  11.931  11.089 -2.1341  0.2576  2.3982
  996MOL0     H34431   2.532  12.072  11.009 -0.6128 -2.1909 -0.6226
  996MOL0     H34432   2.586  12.192  11.240 -2.4616  1.4814 -1.0323
  996MOL0     H34433   2.600  12.027  11.302 -1.5723  0.3307  0.8024
  996MOL0     H34434   2.356  12.121  11.143  2.6277  2.0383 -0.6124
  996MOL0     H34435   2.361  11.981  11.243 -3.6456  0.7220 -2.3188
  996MOL0     H34436   2.253  12.198  11.341  0.2270 -1.3363 -1.5435
  996MOL0     H34437   2.420  12.264  11.359  0.7096  0.3793 -2.7910
  996MOL0     H34438   2.319  12.004  11.489  0.5524  0.4050 -0.8697
  996MOL0     H34439   2.481  12.081  11.515 -0.7007 -2.6998 -0.8943
  996MOL0     H34440   2.984  11.644  10.939  0.9548 -3.5050 -1.5550
  996MOL0     H34441   3.184  11.472  10.958  2.2736 -0.9198  0.2902
  996MOL0     H34442   3.674  11.530  10.992  1.7251  1.3345 -0.8285
  996MOL0     H34443   3.904  11.470  10.962  1.3514 -1.7682  1.5700
  996MOL0     H34444   3.927  10.077  10.682 -1.1376  1.8391  1.1143
  996MOL0     H34445   3.812   9.989  10.485 -2.7722  0.0286 -1.4993
  996MOL0     H34446   3.431   9.649  10.399 -1.6568  3.5426 -0.8445
  996MOL0     H34447   3.321   9.532  10.217  0.6970 -1.5088  0.6032
  996MOL0     H34448   3.320   9.275  10.036 -0.3526  2.6412  0.4222
  996MOL0     H34449   3.451   9.255  10.142 -0.1303  1.8099  1.4913
  996MOL0     H34450   3.471   9.235   9.844  0.9229  1.9840  0.6711
  996MOL0     H34451   3.465   9.099   9.952 -2.9144  1.1420 -1.3075
  996MOL0     H34452   3.682   9.209  10.063 -1.2072  2.6567  0.3911
  996MOL0     H34453   3.697   9.291   9.906  0.7177 -1.2382 -1.4433
  996MOL0     H34454   3.661   9.059   9.803 -0.1378 -2.9637  1.7054
  996MOL0     H34455   3.819   9.113   9.861  0.9437  0.1641  2.1235
  996MOL0     H34456   3.722   8.797  10.132 -0.6388 -0.8510 -1.7231
  996MOL0     H34457   3.693   9.510  10.005 -0.7555 -2.3485  0.0895
  996MOL0     H34458   3.816   9.756  10.069 -0.1601  1.0799  0.6956
  996MOL0     H34459   3.843   9.789  10.235  1.4502 -0.7753  0.7562
  996MOL0     H34460   3.899   9.631  10.155 -0.2427 -1.1281  1.2720
  997MOL0     O34461   2.141   5.165   7.387 -0.2793  0.3319 -0.1241
  997MOL0     C34462   2.022   5.133   7.376 -0.1261 -0.4121 -0.2067
  997MOL0     O34463   1.930   5.181   7.295 -0.2886 -1.2219  0.8127
  997MOL0     C34464   1.952   5.274   7.198  0.1668 -0.3416  0.1306
  997MOL0     C34465   2.050   5.371   7.202  0.5613 -0.0809 -0.8260
  997MOL0     C34466   2.053   5.465   7.102  0.1908  0.3445  0.6489
  997MOL0     C34467   1.959   5.470   6.999 -0.0823  0.4012 -1.0531
  997MOL0     O34468   1.956   5.555   6.892 -0.0328  0.4370 -0.1306
  997MOL0     C34469   2.020   5.681   6.909  0.3469  0.3876  0.1820
  997MOL0     C34470   1.992   5.749   6.776 -0.0194 -1.1803  0.8835
  997MOL0     C34471   2.041   5.894   6.784  0.9285  0.5765  0.2600
  997MOL0     C34472   2.186   5.897   6.757  0.3382 -0.3479 -0.2954
  997MOL0     C34473   2.236   6.040   6.762  0.3720  0.5697  0.0698
  997MOL0     C34474   2.385   6.051   6.778 -0.9506  0.5127  0.3933
  997MOL0     C34475   2.440   6.196   6.801  0.4144 -0.2915  0.7086
  997MOL0     C34476   2.596   6.203   6.834  0.2644 -0.7890  0.3230
  997MOL0     N34477   2.622   6.139   6.962 -0.5076  0.0791 -0.1631
  997MOL0     C34478   2.581   6.193   7.087 -0.1406  0.1590 -0.4955
  997MOL0     C34479   2.674   6.145   7.168 -0.0624 -0.1073 -0.9722
  997MOL0     C34480   2.682   6.178   7.315  0.3475 -0.7525 -0.2183
  997MOL0     C34481   2.739   6.323   7.342  0.1171  0.4820 -0.2616
  997MOL0     C34482   2.889   6.339   7.288  0.3418  0.4015  0.9463
  997MOL0     C34483   2.954   6.465   7.343 -0.4542 -0.4680 -0.1063
  997MOL0     O34484   3.006   6.431   7.469 -0.0405  0.7289 -0.1982
  997MOL0     C34485   3.051   6.537   7.553  0.7722  1.1924  0.7053
  997MOL0     C34486   3.151   6.624   7.514  0.2562  0.3505  0.2017
  997MOL0     C34487   3.183   6.731   7.591 -0.2424  0.2707  0.2948
  997MOL0     C34488   3.102   6.768   7.700 -0.8896  0.4277  0.7090
  997MOL0     C34489   3.145   6.888   7.780  0.5147  0.0799  0.2421
  997MOL0     O34490   3.079   6.913   7.899  0.4187 -0.0223  0.2637
  997MOL0     C34491   3.092   7.030   7.966 -0.8754  0.0685 -0.7586
  997MOL0     C34492   3.116   7.026   8.105 -0.1193  0.7362 -0.4902
  997MOL0     C34493   3.126   7.149   8.172  0.3439  0.2074 -0.2178
  997MOL0     C34494   3.098   7.267   8.107 -0.7022 -0.2704 -0.0930
  997MOL0     O34495   3.101   7.388   8.174 -0.0467  0.0546 -0.0120
  997MOL0     C34496   3.111   7.405   8.317 -0.7262  0.1127 -0.3045
  997MOL0     C34497   3.246   7.379   8.382 -0.2825 -0.5511  0.0836
  997MOL0     C34498   3.358   7.482   8.337 -0.1681  0.1497 -0.2997
  997MOL0     C34499   3.480   7.421   8.263 -0.5636 -0.3418 -0.3586
  997MOL0     C34500   3.434   7.347   8.136 -1.0060  0.5940 -0.0570
  997MOL0     C34501   3.558   7.314   8.038 -0.5319 -0.4906  1.2451
  997MOL0     C34502   3.536   7.208   7.922 -0.3912  0.2631 -0.4340
  997MOL0     C34503   3.661   7.119   7.911 -0.1707 -0.0909 -0.3419
  997MOL0    Cl34504   3.620   7.014   7.768  0.0370 -0.1000 -0.3057
  997MOL0     C34505   3.074   7.263   7.968 -0.1240  0.7513  0.1691
  997MOL0     C34506   3.077   7.149   7.894 -0.1993 -0.4904  0.1788
  997MOL0     O34507   3.230   6.967   7.731 -0.0896 -0.2071 -0.2553
  997MOL0     C34508   3.006   6.678   7.745  0.9575 -0.1505 -0.1684
  997MOL0     C34509   2.971   6.562   7.670 -0.4974  0.5327  0.9729
  997MOL0     N34510   2.763   6.062   7.101 -0.1652  0.9386 -0.7081
  997MOL0     N34511   2.740   6.067   6.974  0.7075  0.2029  0.5905
  997MOL0     C34512   1.862   5.375   6.990 -0.4599  0.1606 -0.2882
  997MOL0     C34513   1.854   5.278   7.093  0.3418  0.4247 -0.1821
  997MOL0     C34514   1.965   5.036   7.471 -1.0239  0.6866  0.8531
  997MOL0     C34515   2.067   4.950   7.526  0.5790  0.7345 -0.3182
  997MOL0     C34516   2.028   4.863   7.626 -0.7998 -0.3739  0.8254
  997MOL0     C34517   1.905   4.861   7.683  0.6795  0.1836  0.0504
  997MOL0     O34518   1.876   4.788   7.796 -0.0867 -0.4311 -0.1190
  997MOL0     C34519   1.972   4.683   7.843  0.2108 -0.5517  0.4083
  997MOL0     C34520   1.938   4.555   7.768 -0.3489 -0.1960  0.0329
  997MOL0     C34521   1.794   4.495   7.778  0.1201  0.2058  0.0057
  997MOL0     C34522   1.730   4.514   7.923 -0.6155 -0.5641 -0.2343
  997MOL0     C34523   1.612   4.431   7.927  0.1494 -0.6405  0.5294
  997MOL0     C34524   1.519   4.351   7.946  0.5471  0.3977  0.6281
  997MOL0     C34525   1.806   4.942   7.626 -0.2664 -0.2088  0.0937
  997MOL0     C34526   1.833   5.022   7.516 -0.3115 -1.0393 -0.3108
  997MOL0     C34527   1.723   5.096   7.460 -0.3893  0.5471 -0.4151
  997MOL0     H34528   2.137   5.372   7.267  0.2207 -0.8414 -0.3439
  997MOL0     H34529   2.149   5.515   7.111 -0.1720  1.0355  0.7251
  997MOL0     H34530   1.970   5.737   6.988  1.9998  1.4839  0.5016
  997MOL0     H34531   2.127   5.674   6.931  0.7280 -2.7505 -1.9552
  997MOL0     H34532   1.885   5.739   6.759  0.4713 -2.8050 -1.8775
  997MOL0     H34533   2.036   5.704   6.686 -0.9318  1.6897 -1.1759
  997MOL0     H34534   2.016   5.927   6.885  2.0871 -0.9943  1.1179
  997MOL0     H34535   1.992   5.953   6.706  1.4263  1.3933  0.5502
  997MOL0     H34536   2.241   5.847   6.837 -0.1708  0.4838  0.5893
  997MOL0     H34537   2.217   5.851   6.662  1.3092 -1.3376  0.4739
  997MOL0     H34538   2.195   6.096   6.678 -0.7435  2.1403  1.6102
  997MOL0     H34539   2.198   6.082   6.855  0.8372 -0.5385  0.7856
  997MOL0     H34540   2.423   5.984   6.857  0.4247 -1.1413 -1.5582
  997MOL0     H34541   2.427   6.002   6.689 -1.1128 -0.6833  0.9530
  997MOL0     H34542   2.385   6.255   6.875 -0.9755  0.2913 -0.7164
  997MOL0     H34543   2.412   6.245   6.707 -1.7639 -2.1484  0.3028
  997MOL0     H34544   2.651   6.159   6.751  2.5709  2.2153  0.1014
  997MOL0     H34545   2.619   6.310   6.837  1.3442 -0.9645 -0.9086
  997MOL0     H34546   2.508   6.269   7.112 -0.5176 -0.4769  0.3741
  997MOL0     H34547   2.579   6.183   7.353 -0.1300  3.8560 -1.4215
  997MOL0     H34548   2.731   6.097   7.369 -0.5784 -2.0136 -1.2202
  997MOL0     H34549   2.673   6.392   7.289 -0.0904  0.6034  0.1529
  997MOL0     H34550   2.732   6.342   7.450 -1.1112  1.5132 -0.5010
  997MOL0     H34551   2.878   6.344   7.179 -0.8370  0.5522  1.0604
  997MOL0     H34552   2.947   6.255   7.327 -0.3730  0.1260  1.4399
  997MOL0     H34553   2.890   6.554   7.339 -1.5259 -1.2279 -3.1904
  997MOL0     H34554   3.042   6.494   7.285  0.4472 -0.0507  1.4131
  997MOL0     H34555   3.207   6.590   7.428 -0.3370 -0.6236  0.1844
  997MOL0     H34556   3.257   6.800   7.552  0.3528 -1.3652 -1.6368
  997MOL0     H34557   3.120   6.925   8.145 -2.0137  0.1535 -1.6487
  997MOL0     H34558   3.128   7.148   8.281 -2.0877  0.3680 -0.1106
  997MOL0     H34559   3.079   7.508   8.333 -2.0863 -0.2165 -0.7598
  997MOL0     H34560   3.051   7.336   8.378  0.7640  0.0601  1.1812
  997MOL0     H34561   3.232   7.391   8.489 -1.6420  0.3280 -0.1708
  997MOL0     H34562   3.282   7.276   8.381 -1.1390 -0.8540 -0.7981
  997MOL0     H34563   3.312   7.546   8.261  0.9304  0.5234 -0.6585
  997MOL0     H34564   3.398   7.534   8.425  0.8737 -0.2774 -0.5095
  997MOL0     H34565   3.531   7.351   8.330 -0.8855 -0.9694 -0.7544
  997MOL0     H34566   3.549   7.503   8.238 -1.8420  0.6736 -0.6644
  997MOL0     H34567   3.352   7.401   8.087  0.8788  3.2604 -0.4524
  997MOL0     H34568   3.399   7.253   8.178 -1.0670  0.7672  0.2830
  997MOL0     H34569   3.594   7.412   8.007  0.9590  0.2472  4.8008
  997MOL0     H34570   3.638   7.288   8.108 -0.4407  0.5084  1.5318
  997MOL0     H34571   3.505   7.259   7.830  2.8374  0.4824 -1.5419
  997MOL0     H34572   3.453   7.141   7.948  1.0806 -2.2609 -1.8195
  997MOL0     H34573   3.736   7.193   7.881 -0.0253  0.4798  1.3628
  997MOL0     H34574   3.675   7.065   8.005  0.9927 -0.4975 -0.7240
  997MOL0     H34575   3.053   7.351   7.908 -3.0499 -0.5591 -0.9248
  997MOL0     H34576   3.069   7.152   7.786  0.3662  2.3959  0.1476
  997MOL0     H34577   2.947   6.714   7.828  1.6895  1.4900 -0.3123
  997MOL0     H34578   2.898   6.487   7.698  2.9342 -3.1781  0.9440
  997MOL0     H34579   1.796   5.367   6.904  1.0638 -0.9820 -1.3956
  997MOL0     H34580   1.783   5.197   7.086  0.9008 -0.2106  1.0911
  997MOL0     H34581   2.172   4.956   7.501  0.6370  0.5036 -0.1393
  997MOL0     H34582   2.114   4.815   7.670 -0.4420  0.1526  0.7148
  997MOL0     H34583   1.949   4.676   7.950 -1.1801  1.0296  0.2566
  997MOL0     H34584   2.074   4.721   7.840  0.2737 -0.4825 -4.2467
  997MOL0     H34585   2.003   4.483   7.819 -0.5124  1.2963  2.5449
  997MOL0     H34586   1.966   4.557   7.662 -1.7918  1.3642 -0.3624
  997MOL0     H34587   1.808   4.389   7.754 -2.7278 -0.4168  0.7628
  997MOL0     H34588   1.727   4.530   7.699  0.8687  1.7719  0.0195
  997MOL0     H34589   1.782   4.484   8.014 -2.4922 -0.1963  1.0313
  997MOL0     H34590   1.701   4.619   7.931  0.5081 -0.1309 -1.5133
  997MOL0     H34591   1.434   4.289   7.967 -0.9803  1.3699 -2.1581
  997MOL0     H34592   1.705   4.928   7.663 -0.7719 -2.9239 -1.9789
  997MOL0     H34593   1.693   5.040   7.370  3.0093 -2.2656 -0.0070
  997MOL0     H34594   1.634   5.092   7.523  0.6951  2.4925  1.3121
  997MOL0     H34595   1.748   5.199   7.435  1.8756 -0.1213 -1.1934
  998MOL0     O34596   9.088   9.705   8.291  0.0337 -0.5203 -0.2497
  998MOL0     C34597   9.065   9.596   8.247  0.1276  0.2376 -0.0576
  998MOL0     O34598   9.139   9.491   8.261  0.2136 -0.1137  0.3135
  998MOL0     C34599   9.268   9.512   8.307  0.8316  0.4238  0.6365
  998MOL0     C34600   9.381   9.498   8.227 -0.4457 -1.0316  0.0360
  998MOL0     C34601   9.498   9.542   8.277  0.2505 -0.9430 -0.1707
  998MOL0     C34602   9.524   9.558   8.419  0.5325 -0.3938 -0.2029
  998MOL0     O34603   9.651   9.583   8.466 -0.2695 -0.2470  0.2021
  998MOL0     C34604   9.760   9.524   8.390 -0.5517 -0.5598 -0.0869
  998MOL0     C34605   9.886   9.578   8.458 -0.0481 -0.2565 -0.3863
  998MOL0     C34606  10.008   9.555   8.373 -0.0886  0.7353 -0.4483
  998MOL0     C34607  10.139   9.638   8.399 -0.1400  0.4923  0.3970
  998MOL0     C34608  10.244   9.595   8.302 -0.5407  0.7843 -0.3963
  998MOL0     C34609  10.349   9.487   8.356 -0.4076  0.6168  0.3099
  998MOL0     C34610  10.457   9.450   8.249  0.0421  0.3468  0.0077
  998MOL0     C34611  10.553   9.557   8.204  0.0146 -1.3746 -0.2670
  998MOL0     N34612  10.654   9.578   8.308  1.0896  0.4956 -0.5870
  998MOL0     C34613  10.781   9.531   8.315 -1.1846 -0.2364 -1.2028
  998MOL0     C34614  10.835   9.586   8.430  0.4740  0.7219 -0.6320
  998MOL0     C34615  10.976   9.564   8.487 -0.1475  0.3697 -0.1185
  998MOL0     C34616  11.074   9.625   8.395  0.2747  0.5054 -0.6973
  998MOL0     C34617  11.226   9.633   8.427  0.1910  0.8378 -0.2750
  998MOL0     C34618  11.244   9.699   8.565  0.3724 -0.7286  0.0416
  998MOL0     O34619  11.266   9.603   8.662 -0.5484  0.7310 -0.9029
  998MOL0     C34620  11.400   9.562   8.684  0.5925  0.0320 -0.3528
  998MOL0     C34621  11.435   9.496   8.811  0.6037 -0.5353 -0.3512
  998MOL0     C34622  11.572   9.464   8.846  0.2341  0.2469 -0.2209
  998MOL0     C34623  11.674   9.482   8.751  0.4965 -0.1605  0.0987
  998MOL0     C34624  11.819   9.452   8.779 -0.5163 -0.8167 -0.5336
  998MOL0     O34625  11.901   9.448   8.665 -0.1605 -0.0616 -0.1949
  998MOL0     C34626  12.034   9.486   8.680  0.1230  0.5149 -0.2889
  998MOL0     C34627  12.139   9.404   8.665  0.0737  0.3929  0.8115
  998MOL0     C34628  12.272   9.452   8.677  0.3914  0.1181  0.0715
  998MOL0     C34629  12.290   9.585   8.709  0.3558 -0.7011 -0.6049
  998MOL0     O34630  12.410   9.649   8.725  0.3082 -0.6106  0.0628
  998MOL0     C34631  12.526   9.578   8.721 -0.1213 -1.1456  1.3948
  998MOL0     C34632  12.644   9.661   8.758 -0.5380 -0.8964 -0.9858
  998MOL0     C34633  12.772   9.577   8.752  0.2050  0.3905 -0.0357
  998MOL0     C34634  12.894   9.673   8.766 -0.4594 -0.0932 -0.0249
  998MOL0     C34635  13.031   9.607   8.729 -0.8563 -0.4212 -0.1742
  998MOL0     C34636  13.151   9.711   8.741  0.4344  0.2036  0.4370
  998MOL0     C34637  13.272   9.645   8.665 -0.1280 -0.7556 -0.1128
  998MOL0     C34638  13.406   9.697   8.718  0.8149 -1.0479  0.0745
  998MOL0    Cl34639  13.540   9.642   8.607  0.2482  0.2441  0.1632
  998MOL0     C34640  12.184   9.666   8.713  0.0974 -0.6359  0.3585
  998MOL0     C34641  12.051   9.620   8.703 -0.4664  0.4123 -0.0545
  998MOL0     O34642  11.858   9.426   8.891 -0.6320  0.2557 -0.4628
  998MOL0     C34643  11.632   9.536   8.624  0.0612  0.5228  0.0952
  998MOL0     C34644  11.504   9.582   8.592  0.0972 -0.2799  0.0802
  998MOL0     N34645  10.737   9.655   8.496  0.3169 -0.2956 -0.2667
  998MOL0     N34646  10.636   9.657   8.418  0.9884 -0.9806 -0.7590
  998MOL0     C34647   9.411   9.552   8.501  0.0310  0.2605 -0.4162
  998MOL0     C34648   9.280   9.529   8.448  0.6565 -0.4999  0.0128
  998MOL0     C34649   8.948   9.599   8.158 -1.2019  0.7863  0.3267
  998MOL0     C34650   8.851   9.700   8.183 -0.0443 -0.0463 -0.5428
  998MOL0     C34651   8.750   9.720   8.093  1.0066 -0.0723  0.3163
  998MOL0     C34652   8.720   9.632   7.995  0.1789  1.0978  0.4178
  998MOL0     O34653   8.625   9.644   7.895  0.3630 -0.2435 -0.2497
  998MOL0     C34654   8.594   9.781   7.864  0.0445 -0.8055  0.4227
  998MOL0     C34655   8.450   9.799   7.904  0.8447  0.0578  0.7528
  998MOL0     C34656   8.347   9.718   7.817 -0.0201 -0.5702 -1.0747
  998MOL0     C34657   8.220   9.802   7.820  1.0490 -0.5618 -1.0095
  998MOL0     C34658   8.114   9.729   7.778  0.8354 -0.1590 -0.1210
  998MOL0     C34659   8.026   9.665   7.732 -0.7511  0.9873 -0.4614
  998MOL0     C34660   8.810   9.530   7.977 -0.0457 -0.7337  0.2302
  998MOL0     C34661   8.923   9.515   8.048 -0.4496  0.0133  0.4998
  998MOL0     C34662   9.018   9.411   8.010  0.0046  0.2481  1.0437
  998MOL0     H34663   9.366   9.460   8.126 -2.5671 -1.3089  0.4265
  998MOL0     H34664   9.580   9.534   8.206 -0.8103  0.3843 -1.6338
  998MOL0     H34665   9.751   9.416   8.405  0.9840 -0.3733  3.1938
  998MOL0     H34666   9.753   9.556   8.286  0.8292  2.0296  0.5177
  998MOL0     H34667   9.896   9.539   8.560 -2.9097  1.9434  0.8643
  998MOL0     H34668   9.856   9.682   8.466 -1.6054 -0.7395  0.5422
  998MOL0     H34669   9.981   9.567   8.267 -2.3643 -2.7111 -0.4076
  998MOL0     H34670  10.033   9.450   8.392 -0.9419  0.5201 -0.4990
  998MOL0     H34671  10.110   9.743   8.387 -3.0275 -0.4485 -2.7192
  998MOL0     H34672  10.168   9.616   8.502 -1.2033 -0.0305  0.6024
  998MOL0     H34673  10.201   9.565   8.207 -3.7644 -0.6568  1.3589
  998MOL0     H34674  10.305   9.685   8.290  2.3212 -0.9950 -0.1585
  998MOL0     H34675  10.399   9.513   8.450  1.0005 -1.3724  0.1750
  998MOL0     H34676  10.288   9.399   8.378 -0.9602  0.2699 -2.2496
  998MOL0     H34677  10.410   9.408   8.160 -1.6065  3.2755 -0.6537
  998MOL0     H34678  10.526   9.374   8.286  1.4643  0.6134 -1.9239
  998MOL0     H34679  10.616   9.531   8.119  2.1516 -0.7135  1.0374
  998MOL0     H34680  10.502   9.647   8.167  0.9084 -1.1913 -1.0892
  998MOL0     H34681  10.844   9.484   8.239  2.3462  0.1900  1.2357
  998MOL0     H34682  10.983   9.579   8.595 -0.4388  0.2472 -0.0814
  998MOL0     H34683  11.004   9.459   8.471  2.8364  1.0625  0.0239
  998MOL0     H34684  11.067   9.569   8.301  3.1621 -4.2677  1.5012
  998MOL0     H34685  11.036   9.727   8.386 -0.3848  0.9978  4.5201
  998MOL0     H34686  11.274   9.697   8.353  2.1601  1.9126  1.8015
  998MOL0     H34687  11.277   9.536   8.421  1.4459  1.5572 -2.1011
  998MOL0     H34688  11.160   9.766   8.586  0.9417  0.9063 -2.4233
  998MOL0     H34689  11.322   9.776   8.559 -1.5039  1.6129  2.9067
  998MOL0     H34690  11.355   9.479   8.884  2.2396 -0.6822  1.4958
  998MOL0     H34691  11.600   9.426   8.944  2.5835  1.2979 -0.4252
  998MOL0     H34692  12.120   9.298   8.655  1.5360 -0.2329  3.5537
  998MOL0     H34693  12.359   9.388   8.666 -0.6858 -1.2145 -0.9389
  998MOL0     H34694  12.514   9.486   8.779 -4.5044 -0.2198  2.2766
  998MOL0     H34695  12.546   9.545   8.619 -0.3731 -1.6271  1.4978
  998MOL0     H34696  12.662   9.751   8.699  2.3725 -0.2398  0.7146
  998MOL0     H34697  12.618   9.694   8.859  0.9842 -3.3123  0.2938
  998MOL0     H34698  12.785   9.512   8.839 -1.3430  1.1995  0.8366
  998MOL0     H34699  12.777   9.516   8.662  0.7869  2.9001 -1.8219
  998MOL0     H34700  12.898   9.716   8.866  0.1468 -0.1117 -0.0426
  998MOL0     H34701  12.891   9.758   8.697  2.4512 -1.7277 -2.3666
  998MOL0     H34702  13.019   9.561   8.630 -0.3498 -1.0242  0.0351
  998MOL0     H34703  13.057   9.520   8.791  0.9571  0.0732 -0.1834
  998MOL0     H34704  13.126   9.807   8.694  1.0504  0.2108  0.1192
  998MOL0     H34705  13.170   9.738   8.845 -0.0189  0.5079  0.4459
  998MOL0     H34706  13.269   9.663   8.557 -0.2770  0.9984  0.1485
  998MOL0     H34707  13.266   9.536   8.674  0.6762 -0.9400 -1.5908
  998MOL0     H34708  13.401   9.806   8.705 -0.2382 -1.1367 -0.3078
  998MOL0     H34709  13.423   9.668   8.822  2.3328  1.3293  0.5868
  998MOL0     H34710  12.208   9.772   8.716 -1.6866 -0.0956 -1.7938
  998MOL0     H34711  11.958   9.677   8.704 -0.1921  0.8648 -0.0962
  998MOL0     H34712  11.707   9.547   8.546 -0.1409  0.7377 -0.0684
  998MOL0     H34713  11.494   9.630   8.496 -1.6644  0.6291  0.6764
  998MOL0     H34714   9.428   9.559   8.608  0.2110 -2.1322 -0.2237
  998MOL0     H34715   9.197   9.533   8.518  1.6759 -0.9692  1.2937
  998MOL0     H34716   8.873   9.775   8.258 -1.0204 -0.4941  0.2041
  998MOL0     H34717   8.690   9.810   8.099 -1.6685 -1.4146 -2.9591
  998MOL0     H34718   8.604   9.800   7.756  0.5133 -1.6787  0.3032
  998MOL0     H34719   8.659   9.859   7.905 -0.6396  1.2673 -2.1420
  998MOL0     H34720   8.442   9.906   7.883  2.0691  0.0968  0.3722
  998MOL0     H34721   8.436   9.784   8.011 -1.7633  1.1832  0.6249
  998MOL0     H34722   8.325   9.614   7.845 -1.1676 -0.0474  0.0655
  998MOL0     H34723   8.371   9.716   7.710 -0.5243 -0.8641 -1.1909
  998MOL0     H34724   8.205   9.836   7.923 -0.0167 -0.1332 -1.2941
  998MOL0     H34725   8.240   9.882   7.748 -1.5719 -1.9216 -3.4433
  998MOL0     H34726   7.942   9.620   7.682  0.1746 -1.3128 -0.0768
  998MOL0     H34727   8.804   9.469   7.887 -2.5112  1.0300 -0.9244
  998MOL0     H34728   9.049   9.347   8.093 -2.0454  2.1062  3.4076
  998MOL0     H34729   8.969   9.359   7.928  1.5004  1.3784 -0.6688
  998MOL0     H34730   9.105   9.446   7.953 -0.8688  0.0565 -0.4734
  999MOL0     O34731   6.799   1.070   6.322  0.1706 -0.5594 -0.2441
  999MOL0     C34732   6.913   1.021   6.339  0.4816 -0.2642  0.5155
  999MOL0     O34733   7.024   1.088   6.375 -0.3512 -0.2794  0.1171
  999MOL0     C34734   7.014   1.229   6.381 -0.2304  0.6684 -0.1359
  999MOL0     C34735   7.102   1.284   6.486  0.7865  0.3725 -0.6931
  999MOL0     C34736   7.104   1.428   6.507 -0.1011 -0.6653 -0.2083
  999MOL0     C34737   7.041   1.516   6.407 -0.5205 -0.1957 -0.5508
  999MOL0     O34738   7.057   1.655   6.404 -0.4911  0.1534 -0.0090
  999MOL0     C34739   7.101   1.720   6.524  0.5356  0.8218 -0.6118
  999MOL0     C34740   7.095   1.875   6.507 -0.3515 -0.0120  0.7654
  999MOL0     C34741   7.107   1.929   6.642  0.3764  0.0532 -0.0340
  999MOL0     C34742   7.131   2.081   6.642  0.2192  0.7268 -1.5081
  999MOL0     C34743   7.204   2.110   6.777  0.5227 -0.0883  0.2935
  999MOL0     C34744   7.223   2.265   6.791 -0.3027 -0.2325 -0.3303
  999MOL0     C34745   7.354   2.306   6.725  0.0165 -0.6828 -0.4849
  999MOL0     C34746   7.486   2.253   6.811  0.5140  0.1957  0.3813
  999MOL0     N34747   7.608   2.267   6.736  0.2298  0.5028  0.6597
  999MOL0     C34748   7.651   2.382   6.676 -0.0378  0.0975 -0.8975
  999MOL0     C34749   7.748   2.330   6.595 -0.0034 -0.9869  0.6788
  999MOL0     C34750   7.818   2.431   6.498  1.1181 -0.0809  0.2689
  999MOL0     C34751   7.961   2.464   6.530  0.5320 -0.4790  0.0883
  999MOL0     C34752   8.011   2.576   6.439 -0.1986 -0.0884 -0.4222
  999MOL0     C34753   8.162   2.565   6.424 -1.2515  0.3105 -0.9101
  999MOL0     O34754   8.197   2.449   6.350 -0.2913  0.7477 -0.3345
  999MOL0     C34755   8.330   2.419   6.306 -0.1816 -0.7840  0.3064
  999MOL0     C34756   8.348   2.287   6.266 -0.0018 -0.6303  0.6208
  999MOL0     C34757   8.474   2.245   6.212 -0.3821 -0.9528  0.0476
  999MOL0     C34758   8.573   2.330   6.187  0.2577  0.5015 -0.2577
  999MOL0     C34759   8.704   2.298   6.123 -0.5275 -0.9788  0.0458
  999MOL0     O34760   8.705   2.189   6.039 -0.8358  0.8076  0.4040
  999MOL0     C34761   8.801   2.178   5.947  0.0032 -0.4446  0.4604
  999MOL0     C34762   8.940   2.190   5.971  0.1139 -0.3561 -0.6234
  999MOL0     C34763   9.027   2.169   5.872  0.5648  0.1831 -0.2184
  999MOL0     C34764   8.985   2.143   5.740 -0.5023  0.1009 -0.2863
  999MOL0     O34765   9.089   2.117   5.650 -0.4198  0.5563 -1.2424
  999MOL0     C34766   9.055   2.123   5.510 -0.1508 -0.3102 -0.7754
  999MOL0     C34767   9.187   2.140   5.431 -0.5507  0.1474 -0.5126
  999MOL0     C34768   9.247   2.272   5.469 -0.4670 -0.9828  0.0453
  999MOL0     C34769   9.358   2.319   5.371  0.0459 -0.5889 -0.2571
  999MOL0     C34770   9.431   2.435   5.444  0.5741  0.4556 -0.6466
  999MOL0     C34771   9.546   2.386   5.539 -0.0748 -0.5423  0.3319
  999MOL0     C34772   9.673   2.352   5.450  0.1418 -1.1138 -1.0136
  999MOL0     C34773   9.784   2.330   5.558 -0.0890 -0.2961  0.5979
  999MOL0    Cl34774   9.929   2.300   5.477  0.0324 -0.0158 -0.1474
  999MOL0     C34775   8.848   2.137   5.710  0.0920 -0.5141 -0.1923
  999MOL0     C34776   8.755   2.150   5.819 -0.1852 -0.3100  0.3361
  999MOL0     O34777   8.800   2.377   6.141 -0.3611  0.9726 -1.0252
  999MOL0     C34778   8.564   2.466   6.236  0.3407  0.6648  0.0287
  999MOL0     C34779   8.442   2.509   6.292  0.0704  0.4626  0.7159
  999MOL0     N34780   7.756   2.188   6.602 -0.1208 -0.4023 -0.2835
  999MOL0     N34781   7.671   2.154   6.694  0.3090 -0.1085  0.1853
  999MOL0     C34782   6.963   1.454   6.303 -0.9049 -0.0445  1.3449
  999MOL0     C34783   6.958   1.317   6.286  0.2955 -0.5779  0.0489
  999MOL0     C34784   6.940   0.885   6.315 -0.2558 -0.3370  0.5344
  999MOL0     C34785   7.055   0.824   6.378 -0.2379 -0.1934 -0.5094
  999MOL0     C34786   7.084   0.693   6.347 -0.6069  1.0667 -0.2938
  999MOL0     C34787   7.015   0.611   6.256  0.3578 -0.1631  0.0987
  999MOL0     O34788   7.074   0.495   6.218  0.1062  0.6981  0.1640
  999MOL0     C34789   7.052   0.444   6.093 -0.4524 -0.4266  0.0581
  999MOL0     C34790   7.129   0.535   5.991  0.2507  0.7309 -1.3072
  999MOL0     C34791   7.132   0.466   5.857  0.0992  0.0813 -0.0163
  999MOL0     C34792   7.261   0.381   5.835 -0.3213 -0.4838 -0.0956
  999MOL0     C34793   7.388   0.446   5.818 -0.4763  1.3430 -0.0656
  999MOL0     C34794   7.479   0.519   5.781  0.6219 -0.7181 -0.8190
  999MOL0     C34795   6.896   0.663   6.215  0.1574  0.3179 -0.4259
  999MOL0     C34796   6.860   0.796   6.234 -0.2522 -1.4181  0.1984
  999MOL0     C34797   6.723   0.840   6.170 -0.6607 -0.0468 -0.9909
  999MOL0     H34798   7.153   1.219   6.556  3.4705  0.4318 -2.4282
  999MOL0     H34799   7.148   1.468   6.598 -0.4105 -0.6542 -0.0642
  999MOL0     H34800   7.044   1.692   6.613  1.6448 -3.1632 -0.9553
  999MOL0     H34801   7.208   1.699   6.536  0.5525  0.9848 -0.4736
  999MOL0     H34802   7.002   1.905   6.459 -0.3176  0.9114  1.2623
  999MOL0     H34803   7.176   1.908   6.440  0.4548  1.3534  2.3501
  999MOL0     H34804   7.179   1.877   6.706 -2.2396 -2.7317  0.8915
  999MOL0     H34805   7.005   1.907   6.677  0.5291 -0.8782 -0.1518
  999MOL0     H34806   7.203   2.105   6.564  0.9442  1.9285 -0.5080
  999MOL0     H34807   7.039   2.139   6.629  0.1341  1.1178  0.5360
  999MOL0     H34808   7.137   2.062   6.849  1.3207  0.3478  1.3654
  999MOL0     H34809   7.301   2.060   6.785 -0.1968 -1.2716  2.3297
  999MOL0     H34810   7.140   2.331   6.761 -2.4655 -0.9470  3.4805
  999MOL0     H34811   7.226   2.287   6.898 -2.0219  1.5870 -0.5860
  999MOL0     H34812   7.361   2.415   6.719 -2.0125 -0.5953 -3.8590
  999MOL0     H34813   7.353   2.279   6.619 -2.7824  0.1755 -0.7640
  999MOL0     H34814   7.512   2.310   6.901  1.2899 -0.7197  0.7536
  999MOL0     H34815   7.474   2.148   6.837 -0.8611  0.0646 -0.6499
  999MOL0     H34816   7.612   2.483   6.689 -0.8674 -0.2034 -0.9504
  999MOL0     H34817   7.822   2.396   6.394 -2.9955 -0.9212  0.2452
  999MOL0     H34818   7.764   2.525   6.499  3.2114  1.1901 -0.1247
  999MOL0     H34819   7.966   2.494   6.635  0.6886 -1.8259  0.4788
  999MOL0     H34820   8.022   2.374   6.527  0.9908 -0.2052  0.8498
  999MOL0     H34821   7.982   2.675   6.476  1.5127 -0.0326  0.8690
  999MOL0     H34822   7.963   2.567   6.341 -1.7901 -0.4615  0.3600
  999MOL0     H34823   8.212   2.565   6.521 -0.2826  2.3447 -1.3734
  999MOL0     H34824   8.196   2.659   6.381  0.4372 -0.4014 -1.1924
  999MOL0     H34825   8.282   2.205   6.294 -0.7391 -0.7600 -1.2873
  999MOL0     H34826   8.478   2.140   6.186  0.9410 -0.6027 -1.2358
  999MOL0     H34827   8.969   2.213   6.072  1.1031  0.2233 -1.0312
  999MOL0     H34828   9.133   2.177   5.893  0.5682 -1.6028  0.6842
  999MOL0     H34829   9.017   2.022   5.496 -2.0657 -0.2492  3.0163
  999MOL0     H34830   8.978   2.199   5.493 -0.9932 -0.6797  1.1633
  999MOL0     H34831   9.263   2.069   5.465  0.2322  1.9172  1.6747
  999MOL0     H34832   9.163   2.124   5.326 -1.1284  0.4337 -0.4265
  999MOL0     H34833   9.163   2.341   5.453  0.9886  0.6894 -0.7637
  999MOL0     H34834   9.292   2.272   5.568 -0.4022 -0.9050  0.0159
  999MOL0     H34835   9.312   2.362   5.282 -0.8468 -1.8283 -0.4195
  999MOL0     H34836   9.425   2.238   5.341 -0.0959 -0.5413 -0.7028
  999MOL0     H34837   9.361   2.493   5.505  0.4753 -0.1568 -0.1699
  999MOL0     H34838   9.463   2.501   5.363 -0.5184  1.6640 -0.1256
  999MOL0     H34839   9.562   2.453   5.624 -2.4059  1.1968 -0.5014
  999MOL0     H34840   9.528   2.288   5.586  0.6131 -1.1328 -0.5945
  999MOL0     H34841   9.706   2.423   5.375 -2.4420 -1.7023 -2.8362
  999MOL0     H34842   9.652   2.264   5.389 -0.8261 -1.7319  0.1523
  999MOL0     H34843   9.794   2.420   5.620  0.0053  0.8505 -1.0315
  999MOL0     H34844   9.770   2.239   5.617 -0.3904 -1.3561 -1.0483
  999MOL0     H34845   8.805   2.096   5.619  3.5471  0.1128 -2.2831
  999MOL0     H34846   8.649   2.138   5.799  0.1197 -1.7104 -0.6062
  999MOL0     H34847   8.653   2.527   6.221  0.9582 -0.4809 -1.1837
  999MOL0     H34848   8.428   2.615   6.311 -0.5166  1.3216 -3.4341
  999MOL0     H34849   6.910   1.520   6.235 -2.4898 -0.3280  2.2558
  999MOL0     H34850   6.897   1.277   6.206  1.0690 -2.4744  0.3278
  999MOL0     H34851   7.123   0.881   6.440 -0.1266 -1.7556  0.8869
  999MOL0     H34852   7.176   0.650   6.386 -1.1901  1.0948  1.2073
  999MOL0     H34853   6.949   0.444   6.057 -0.4656  0.5150  0.0861
  999MOL0     H34854   7.095   0.343   6.092 -1.3929 -0.8552  0.8455
  999MOL0     H34855   7.230   0.547   6.030 -1.1256  0.8221  2.7628
  999MOL0     H34856   7.080   0.632   5.978 -0.7471  0.3314 -0.6623
  999MOL0     H34857   7.116   0.539   5.778 -3.3428 -0.8461 -0.3313
  999MOL0     H34858   7.055   0.390   5.843 -0.2458  0.2994  0.6453
  999MOL0     H34859   7.263   0.306   5.915 -1.1304 -1.8483 -1.2889
  999MOL0     H34860   7.261   0.336   5.735  1.2383 -0.3438 -0.1680
  999MOL0     H34861   7.545   0.593   5.741  0.4201 -1.3211 -2.3672
  999MOL0     H34862   6.835   0.600   6.151 -2.1372  0.9549  1.0124
  999MOL0     H34863   6.671   0.753   6.127 -2.1971 -0.1303  0.8824
  999MOL0     H34864   6.652   0.872   6.247  1.2635  3.5457 -0.4629
  999MOL0     H34865   6.743   0.924   6.103 -0.6386  0.3194 -0.5338
 1000MOL0     O34866   9.017   9.885   7.371  0.4082  0.0606 -0.0286
 1000MOL0     C34867   9.062   9.995   7.398 -0.0045 -0.8074  0.8459
 1000MOL0     O34868   8.986  10.106   7.424  0.4150 -0.3683 -0.2182
 1000MOL0     C34869   8.854  10.080   7.455  0.1910 -0.6927 -0.4761
 1000MOL0     C34870   8.768  10.081   7.346  0.2622 -0.2098  0.3678
 1000MOL0     C34871   8.630  10.055   7.365  0.4326  0.3952 -0.3124
 1000MOL0     C34872   8.576  10.040   7.500 -1.4365  0.1967 -0.0753
 1000MOL0     O34873   8.448  10.044   7.536  0.6715 -0.2972 -0.5477
 1000MOL0     C34874   8.354  10.032   7.431 -0.2911  0.2307  0.4639
 1000MOL0     C34875   8.212  10.026   7.487 -0.4692 -0.3136  0.4959
 1000MOL0     C34876   8.099  10.059   7.393 -1.0891  0.1617 -0.4145
 1000MOL0     C34877   7.969  10.037   7.460  0.1736  0.3705  0.7738
 1000MOL0     C34878   7.859  10.074   7.360 -0.1527 -0.9472  1.0033
 1000MOL0     C34879   7.736  10.107   7.451  0.0579  0.6215  0.0582
 1000MOL0     C34880   7.626  10.141   7.352 -0.8967  0.4283 -0.7980
 1000MOL0     C34881   7.490  10.116   7.401  0.2406 -0.8317 -0.9184
 1000MOL0     N34882   7.458   9.972   7.387 -0.1560 -0.5132 -0.2564
 1000MOL0     C34883   7.403   9.900   7.487  0.0657 -0.5528  0.2358
 1000MOL0     C34884   7.373   9.778   7.437 -1.2276 -0.0295  0.2433
 1000MOL0     C34885   7.307   9.668   7.522  0.3917  0.0383  0.6477
 1000MOL0     C34886   7.196   9.592   7.445  0.6234  0.2613  0.2781
 1000MOL0     C34887   7.253   9.523   7.319 -0.0392 -0.5165 -0.7791
 1000MOL0     C34888   7.180   9.391   7.289 -0.0155 -0.2468 -0.1476
 1000MOL0     O34889   7.198   9.292   7.400  0.2354 -0.4376 -0.7809
 1000MOL0     C34890   7.322   9.236   7.410  0.3380 -0.2421 -0.4848
 1000MOL0     C34891   7.386   9.228   7.540  0.3215  0.6642  0.0858
 1000MOL0     C34892   7.507   9.164   7.551  0.3053  0.4190  0.2660
 1000MOL0     C34893   7.566   9.093   7.454  0.2419 -0.9257  0.0167
 1000MOL0     C34894   7.692   9.022   7.479 -0.4532  0.3910  0.3982
 1000MOL0     O34895   7.745   8.962   7.361 -0.8545 -0.5665 -0.2582
 1000MOL0     C34896   7.876   8.920   7.352 -0.1155 -0.4700 -0.5153
 1000MOL0     C34897   7.981   8.988   7.410  0.4433 -0.7709 -0.6603
 1000MOL0     C34898   8.112   8.940   7.402  0.6438 -0.3833 -0.0477
 1000MOL0     C34899   8.141   8.819   7.338 -0.3913 -0.9107 -0.0178
 1000MOL0     O34900   8.268   8.773   7.315 -0.1896 -0.1817  0.3768
 1000MOL0     C34901   8.380   8.844   7.374  0.5046  0.0752  0.3252
 1000MOL0     C34902   8.505   8.750   7.369 -0.2157  0.0842 -0.2164
 1000MOL0     C34903   8.562   8.736   7.228  1.2951  0.4936  0.4607
 1000MOL0     C34904   8.699   8.670   7.230 -0.6519 -0.4509 -0.2575
 1000MOL0     C34905   8.758   8.637   7.097  0.5197  0.3449  0.0630
 1000MOL0     C34906   8.886   8.555   7.122 -0.5576 -0.8049  0.5520
 1000MOL0     C34907   8.946   8.489   6.997  0.3158  0.3460  0.5886
 1000MOL0     C34908   9.089   8.438   7.036  0.1972 -1.2863 -0.3541
 1000MOL0    Cl34909   9.213   8.571   7.025 -0.0474 -0.1402  0.2851
 1000MOL0     C34910   8.037   8.753   7.269  0.7226  0.1016 -0.0891
 1000MOL0     C34911   7.904   8.806   7.276  0.1214 -0.1982 -0.0723
 1000MOL0     O34912   7.757   9.032   7.580 -0.8440 -0.3739 -0.0274
 1000MOL0     C34913   7.511   9.093   7.323 -0.6028  0.4417 -0.0003
 1000MOL0     C34914   7.391   9.166   7.309 -0.4481  0.6227  1.0302
 1000MOL0     N34915   7.433   9.773   7.306 -1.0894  1.2067  0.2117
 1000MOL0     N34916   7.476   9.891   7.283  0.0139  0.1020 -0.1664
 1000MOL0     C34917   8.667  10.051   7.609  0.1012 -0.5356  0.3079
 1000MOL0     C34918   8.806  10.069   7.586 -0.8466  0.2935  0.5083
 1000MOL0     C34919   9.214  10.007   7.391 -0.0138 -0.2074 -0.3865
 1000MOL0     C34920   9.284   9.923   7.301 -0.4699 -0.3252 -0.0772
 1000MOL0     C34921   9.417   9.932   7.272 -0.1759  0.5039  0.2645
 1000MOL0     C34922   9.491  10.029   7.342  0.5122 -0.3334  0.3292
 1000MOL0     O34923   9.620  10.054   7.304  0.3943 -0.0819 -0.3984
 1000MOL0     C34924   9.730   9.955   7.314  0.0842 -0.5118  0.0804
 1000MOL0     C34925   9.801   9.966   7.449 -0.7371  0.1686  0.3633
 1000MOL0     C34926   9.843  10.114   7.484 -0.5025  0.0306 -0.0724
 1000MOL0     C34927   9.888  10.133   7.627 -0.0737  0.3162  0.1807
 1000MOL0     C34928   9.785  10.101   7.732  0.6054  0.1611  0.1053
 1000MOL0     C34929   9.707  10.073   7.824  0.5164  0.0836  1.3072
 1000MOL0     C34930   9.429  10.094   7.448  0.5477  0.4497 -0.4295
 1000MOL0     C34931   9.292  10.101   7.468 -0.1169 -0.2373 -0.1706
 1000MOL0     C34932   9.226  10.200   7.564 -0.8079  1.0872  0.7005
 1000MOL0     H34933   8.796  10.102   7.243 -2.3509  1.4225 -0.1045
 1000MOL0     H34934   8.565  10.038   7.280  3.1368  0.7275 -2.5840
 1000MOL0     H34935   8.376  10.111   7.358 -1.5027 -0.9833 -1.2896
 1000MOL0     H34936   8.381   9.943   7.373  0.8020  1.6972 -1.4203
 1000MOL0     H34937   8.216  10.090   7.575  1.2115 -0.2065  0.3680
 1000MOL0     H34938   8.200   9.925   7.529  0.3168 -1.9578 -2.8640
 1000MOL0     H34939   8.114  10.003   7.301  0.0102 -1.4524  0.6858
 1000MOL0     H34940   8.114  10.167   7.383  0.0808  0.0300 -0.3179
 1000MOL0     H34941   7.953   9.934   7.492 -1.6352 -0.1843 -1.6074
 1000MOL0     H34942   7.967  10.106   7.545 -1.7528  3.0642 -1.2641
 1000MOL0     H34943   7.874  10.164   7.299 -1.7638 -1.3269 -0.0086
 1000MOL0     H34944   7.835   9.995   7.288  0.5800 -0.3169  0.0315
 1000MOL0     H34945   7.699  10.017   7.501 -0.4401  0.9279  0.2396
 1000MOL0     H34946   7.755  10.182   7.527 -0.4367  1.1828 -0.3667
 1000MOL0     H34947   7.638  10.092   7.255  0.9009 -0.8520  0.0176
 1000MOL0     H34948   7.633  10.249   7.335  1.5074 -0.0061 -3.2034
 1000MOL0     H34949   7.490  10.149   7.505  0.1136  0.6069 -1.3555
 1000MOL0     H34950   7.427  10.176   7.334 -1.1459 -1.2012  0.0059
 1000MOL0     H34951   7.379   9.931   7.588  0.9989  1.7858 -0.1874
 1000MOL0     H34952   7.386   9.600   7.556 -0.9126 -2.8055 -1.6373
 1000MOL0     H34953   7.257   9.710   7.610 -2.1181  1.1990 -1.2221
 1000MOL0     H34954   7.151   9.520   7.514 -2.4986 -0.5583 -2.3421
 1000MOL0     H34955   7.107   9.647   7.410 -0.9906 -2.6528 -0.5281
 1000MOL0     H34956   7.357   9.503   7.347 -0.5446 -0.2878  1.4223
 1000MOL0     H34957   7.246   9.579   7.226  0.8083 -0.2360 -0.6873
 1000MOL0     H34958   7.226   9.353   7.198 -1.9856 -3.3956 -0.0007
 1000MOL0     H34959   7.073   9.414   7.283  0.0492 -0.0576 -0.5861
 1000MOL0     H34960   7.351   9.290   7.621  0.8742 -0.9373  1.6087
 1000MOL0     H34961   7.548   9.167   7.651 -0.5392  2.7826  0.6025
 1000MOL0     H34962   7.962   9.078   7.468 -1.0396 -0.0556 -2.1723
 1000MOL0     H34963   8.193   8.989   7.455  1.2702 -2.0755  0.5973
 1000MOL0     H34964   8.396   8.943   7.330  1.2021 -0.5807 -0.9517
 1000MOL0     H34965   8.363   8.873   7.478  0.4742 -2.1838  0.9912
 1000MOL0     H34966   8.595   8.786   7.421 -0.2868  1.4356 -0.9920
 1000MOL0     H34967   8.493   8.653   7.418  0.2917 -0.2370 -0.7168
 1000MOL0     H34968   8.496   8.677   7.164  2.5549  0.2174 -0.6061
 1000MOL0     H34969   8.569   8.835   7.182  0.3962 -0.9216 -3.0289
 1000MOL0     H34970   8.694   8.579   7.289  1.2998  0.6866  1.8209
 1000MOL0     H34971   8.778   8.727   7.281 -0.6307  0.4534 -1.2565
 1000MOL0     H34972   8.785   8.735   7.057  0.4590 -0.8201 -3.0733
 1000MOL0     H34973   8.692   8.580   7.030  4.1022 -1.2635 -2.4124
 1000MOL0     H34974   8.967   8.614   7.166 -0.4123  1.6188 -2.6428
 1000MOL0     H34975   8.851   8.482   7.196 -1.0777 -2.0816 -0.8932
 1000MOL0     H34976   8.957   8.559   6.913  1.2514  1.0986  1.3130
 1000MOL0     H34977   8.881   8.411   6.958 -0.5379  1.2261  0.2026
 1000MOL0     H34978   9.091   8.402   7.140  0.4430  1.1711  0.5420
 1000MOL0     H34979   9.125   8.355   6.973  1.2090 -0.3633 -1.0241
 1000MOL0     H34980   8.054   8.663   7.211  0.9317  0.5723 -0.7820
 1000MOL0     H34981   7.815   8.763   7.230 -0.7923  2.4691 -0.9776
 1000MOL0     H34982   7.552   9.049   7.233 -0.9123  1.4811 -0.6529
 1000MOL0     H34983   7.345   9.169   7.210  0.6102  2.1182  0.5371
 1000MOL0     H34984   8.630  10.028   7.708 -0.6883 -0.9318 -0.0756
 1000MOL0     H34985   8.880  10.063   7.666  1.4632 -3.0009 -1.5941
 1000MOL0     H34986   9.236   9.848   7.238  0.7118 -0.9505 -0.2704
 1000MOL0     H34987   9.463   9.886   7.184 -1.9984 -1.5670  0.3112
 1000MOL0     H34988   9.808   9.963   7.238 -0.3918 -0.2063 -0.3828
 1000MOL0     H34989   9.695   9.854   7.292  1.9583 -0.8132 -1.8059
 1000MOL0     H34990   9.886   9.899   7.431 -1.1896 -0.0137 -1.2585
 1000MOL0     H34991   9.719   9.944   7.518 -1.6577 -0.0220 -0.7674
 1000MOL0     H34992   9.761  10.185   7.472  0.7875  1.1448 -3.2898
 1000MOL0     H34993   9.925  10.141   7.417 -1.0021  1.6341 -0.0787
 1000MOL0     H34994   9.974  10.068   7.646 -0.5129 -1.5464 -3.3288
 1000MOL0     H34995   9.921  10.235   7.646 -0.6432 -0.0108  3.4814
 1000MOL0     H34996   9.645  10.045   7.906  0.3243 -1.4433  0.6763
 1000MOL0     H34997   9.495  10.149   7.514 -0.7505 -0.4332  1.6781
 1000MOL0     H34998   9.299  10.252   7.626 -0.0015  1.0274 -0.1760
 1000MOL0     H34999   9.163  10.270   7.508 -1.9283 -1.5167 -1.6022
 1000MOL0     H35000   9.156  10.142   7.625 -0.1319 -1.4612 -0.7740
 1001MOL0     O35001   9.242   7.947   3.593  0.1263 -0.4079 -0.4965
 1001MOL0     C35002   9.268   7.853   3.663  0.1330 -0.5640 -0.4571
 1001MOL0     O35003   9.394   7.806   3.697  0.9621  0.6929  0.8802
 1001MOL0     C35004   9.510   7.864   3.659  0.6511 -1.0295 -0.2400
 1001MOL0     C35005   9.605   7.909   3.748 -0.5846  0.4124  0.0175
 1001MOL0     C35006   9.729   7.942   3.704 -0.5298 -0.1698 -0.2194
 1001MOL0     C35007   9.766   7.954   3.572 -0.1921  1.2416 -0.2730
 1001MOL0     O35008   9.888   7.998   3.536  0.2972 -0.0933  0.4027
 1001MOL0     C35009  10.004   7.942   3.599 -0.1604  0.2043  0.2248
 1001MOL0     C35010  10.126   7.978   3.522 -0.5000 -0.5077 -1.1454
 1001MOL0     C35011  10.174   8.128   3.539  0.8794 -0.3052 -0.4817
 1001MOL0     C35012  10.241   8.180   3.415  0.0892 -0.1998 -0.9581
 1001MOL0     C35013  10.373   8.109   3.394  0.0146  0.2042  0.0631
 1001MOL0     C35014  10.461   8.189   3.293  0.3538  0.2753 -0.6240
 1001MOL0     C35015  10.609   8.146   3.299  1.1023 -1.2905 -1.1231
 1001MOL0     C35016  10.628   8.005   3.266 -0.7240 -0.0499 -0.0197
 1001MOL0     N35017  10.590   7.975   3.121 -0.3756 -0.3312 -1.0720
 1001MOL0     C35018  10.667   7.982   3.011  0.8486 -0.6361 -0.0172
 1001MOL0     C35019  10.596   7.912   2.920  0.2558  0.2150 -0.3284
 1001MOL0     C35020  10.603   7.904   2.767  0.2104 -0.0159  0.2968
 1001MOL0     C35021  10.734   7.848   2.724 -0.1819  0.4632 -0.9810
 1001MOL0     C35022  10.839   7.961   2.732  0.0042 -0.3924 -0.4763
 1001MOL0     C35023  10.965   7.912   2.665  0.3449  0.3023 -0.3239
 1001MOL0     O35024  10.975   7.919   2.526  0.7648 -0.2018  0.2286
 1001MOL0     C35025  11.084   7.980   2.465  0.2089 -0.1308  0.0165
 1001MOL0     C35026  11.062   8.090   2.387 -0.3818 -0.6334 -0.7183
 1001MOL0     C35027  11.175   8.166   2.350  0.6620  0.7668  0.3186
 1001MOL0     C35028  11.310   8.122   2.373 -0.3718 -0.3991  0.5388
 1001MOL0     C35029  11.417   8.210   2.309 -0.1646  0.2414  0.6491
 1001MOL0     O35030  11.399   8.328   2.256  0.2891  0.0128  0.3717
 1001MOL0     C35031  11.503   8.397   2.194  1.5390  0.3620  0.1275
 1001MOL0     C35032  11.601   8.467   2.269  0.6260 -0.3958  0.1541
 1001MOL0     C35033  11.694   8.552   2.213 -0.1389  0.2774 -0.5505
 1001MOL0     C35034  11.687   8.564   2.074 -0.2929  0.3397 -0.0861
 1001MOL0     O35035  11.778   8.645   2.014 -0.3384  0.0014  0.1311
 1001MOL0     C35036  11.859   8.583   1.913  0.0708  0.7598 -0.1754
 1001MOL0     C35037  11.990   8.664   1.900 -0.3789 -0.1894 -0.8640
 1001MOL0     C35038  12.084   8.648   2.028  0.2527 -0.2319 -0.9063
 1001MOL0     C35039  12.209   8.719   2.017 -0.8837  0.1605 -0.3892
 1001MOL0     C35040  12.322   8.685   2.126  0.0580 -0.5485  0.0037
 1001MOL0     C35041  12.464   8.690   2.070  0.4476 -0.5948  0.2432
 1001MOL0     C35042  12.559   8.730   2.178  0.4254 -0.8678 -0.2260
 1001MOL0     C35043  12.698   8.691   2.138 -0.1997  0.7475 -0.9191
 1001MOL0    Cl35044  12.818   8.747   2.254  0.0661  0.4020  0.3989
 1001MOL0     C35045  11.599   8.499   1.991 -0.2683 -0.1343  0.0234
 1001MOL0     C35046  11.504   8.409   2.051  0.2961 -0.3711 -0.5503
 1001MOL0     O35047  11.523   8.159   2.327 -0.0103 -0.1478 -0.8606
 1001MOL0     C35048  11.327   8.001   2.445 -0.3454  0.1670  1.1545
 1001MOL0     C35049  11.216   7.931   2.483  0.7472  0.5675  0.7705
 1001MOL0     N35050  10.477   7.869   2.979  0.4473 -0.2818  0.7990
 1001MOL0     N35051  10.472   7.910   3.101  1.4032 -0.4712  0.1541
 1001MOL0     C35052   9.673   7.911   3.481 -0.2631  0.3104  0.3238
 1001MOL0     C35053   9.547   7.869   3.526  0.7438  0.6081  0.0395
 1001MOL0     C35054   9.153   7.774   3.713  0.4974 -0.3086  0.3256
 1001MOL0     C35055   9.164   7.642   3.748  0.1009  0.4404  0.6674
 1001MOL0     C35056   9.060   7.563   3.802  0.4309 -1.2320  0.4351
 1001MOL0     C35057   8.931   7.619   3.811 -0.4239  0.2402  0.3943
 1001MOL0     O35058   8.836   7.530   3.856 -0.7743 -0.9795 -0.2208
 1001MOL0     C35059   8.754   7.580   3.955 -0.3068  0.4127  0.1295
 1001MOL0     C35060   8.815   7.553   4.102  0.1904 -1.0260  0.0708
 1001MOL0     C35061   8.929   7.651   4.128 -0.5470  0.1950 -0.6259
 1001MOL0     C35062   8.994   7.676   4.263  0.1777 -0.4884 -0.3449
 1001MOL0     C35063   8.897   7.696   4.368 -0.3126 -0.1478 -0.5045
 1001MOL0     C35064   8.815   7.711   4.460 -0.1024  0.3385  0.2438
 1001MOL0     C35065   8.910   7.747   3.761 -0.8335  0.0136 -0.4635
 1001MOL0     C35066   9.020   7.826   3.725  0.3007  0.1804  0.2694
 1001MOL0     C35067   8.977   7.962   3.689 -0.0968 -0.3857 -0.2685
 1001MOL0     H35068   9.586   7.896   3.854 -1.5782 -1.5706 -0.3561
 1001MOL0     H35069   9.790   7.969   3.790 -1.1361 -0.4913  0.3171
 1001MOL0     H35070  10.001   7.982   3.701 -0.4271  0.8316 -0.0199
 1001MOL0     H35071   9.997   7.834   3.607  0.4922  0.1605  0.2457
 1001MOL0     H35072  10.103   7.964   3.416 -0.3583 -3.8204 -0.8497
 1001MOL0     H35073  10.216   7.918   3.541  0.2192  0.2403 -2.1350
 1001MOL0     H35074  10.250   8.138   3.617 -0.2305  0.2659  0.5682
 1001MOL0     H35075  10.088   8.183   3.578 -0.4989 -2.9096  0.3961
 1001MOL0     H35076  10.177   8.171   3.326 -0.0734  0.7424 -0.9562
 1001MOL0     H35077  10.257   8.285   3.441  3.1518 -1.0779  1.2148
 1001MOL0     H35078  10.418   8.119   3.494 -0.9286 -0.3631  0.5567
 1001MOL0     H35079  10.362   8.006   3.359  1.0758  0.3269 -0.6924
 1001MOL0     H35080  10.415   8.178   3.194 -1.6747  1.4269  0.1207
 1001MOL0     H35081  10.465   8.291   3.332 -0.0864 -1.1851  3.7538
 1001MOL0     H35082  10.637   8.158   3.404 -3.3011 -1.1944  0.2040
 1001MOL0     H35083  10.675   8.216   3.246  0.4324  0.3200  0.0960
 1001MOL0     H35084  10.734   7.980   3.278 -0.1733  1.2891 -1.6895
 1001MOL0     H35085  10.565   7.947   3.334  1.8255  0.1362  2.6992
 1001MOL0     H35086  10.750   8.052   2.999  0.1116  0.6346  1.8682
 1001MOL0     H35087  10.529   7.840   2.719 -0.3126  1.8961 -1.5815
 1001MOL0     H35088  10.574   7.999   2.721  0.7932 -1.4208 -3.2878
 1001MOL0     H35089  10.755   7.760   2.784  0.5942 -0.0221 -1.9347
 1001MOL0     H35090  10.722   7.807   2.623  2.2959  2.1496 -2.0776
 1001MOL0     H35091  10.865   7.977   2.837  0.2994 -1.4416 -0.3838
 1001MOL0     H35092  10.805   8.058   2.693  1.0068 -0.4328 -1.4842
 1001MOL0     H35093  10.985   7.807   2.688 -0.4168  0.3000  0.3931
 1001MOL0     H35094  11.050   7.959   2.715 -0.6373  1.7489  0.0364
 1001MOL0     H35095  10.963   8.129   2.363  0.2183  1.4467 -0.0272
 1001MOL0     H35096  11.166   8.261   2.299 -0.4500  1.2599  1.3798
 1001MOL0     H35097  11.582   8.469   2.376  0.5792  1.9141  0.1507
 1001MOL0     H35098  11.758   8.614   2.275  0.7582 -0.8641 -0.2978
 1001MOL0     H35099  11.891   8.481   1.933  0.8084  1.3181  1.7069
 1001MOL0     H35100  11.803   8.595   1.819  3.6155  1.3295 -2.4306
 1001MOL0     H35101  12.046   8.630   1.812  1.4771  3.0413 -1.0911
 1001MOL0     H35102  11.967   8.768   1.877  0.7373  0.3302  0.2690
 1001MOL0     H35103  12.030   8.684   2.117 -0.1990  1.3388 -1.7865
 1001MOL0     H35104  12.113   8.545   2.052  0.9907  0.6063  2.2924
 1001MOL0     H35105  12.193   8.826   2.034  1.3862  0.5457 -0.3243
 1001MOL0     H35106  12.239   8.704   1.913 -0.5305 -0.4569 -0.2040
 1001MOL0     H35107  12.303   8.582   2.156  0.7463 -0.5209  0.5670
 1001MOL0     H35108  12.314   8.752   2.213  1.9577 -0.3111  0.0384
 1001MOL0     H35109  12.492   8.597   2.018  1.8849 -0.1161  0.1137
 1001MOL0     H35110  12.470   8.769   1.995  0.8080  0.3221  1.2193
 1001MOL0     H35111  12.523   8.676   2.266 -1.8664  1.8852  0.6965
 1001MOL0     H35112  12.560   8.839   2.192  0.1184 -0.6093 -2.0396
 1001MOL0     H35113  12.707   8.582   2.129  3.6535  0.9553 -1.5401
 1001MOL0     H35114  12.740   8.735   2.047  0.8955 -0.4174 -0.9960
 1001MOL0     H35115  11.605   8.509   1.883 -0.9031 -1.9965 -0.2271
 1001MOL0     H35116  11.429   8.369   1.983 -0.3343  1.8216 -1.2155
 1001MOL0     H35117  11.427   7.963   2.466 -0.7927  0.4806  4.3693
 1001MOL0     H35118  11.232   7.833   2.528 -0.0790 -0.6896 -1.5126
 1001MOL0     H35119   9.674   7.922   3.373 -2.4647 -0.0756  0.2102
 1001MOL0     H35120   9.482   7.835   3.446  2.3726 -0.2413 -0.9746
 1001MOL0     H35121   9.255   7.583   3.756 -1.6431 -2.3106  1.6838
 1001MOL0     H35122   9.068   7.458   3.828 -2.6446 -1.4358  0.9979
 1001MOL0     H35123   8.662   7.523   3.940  0.1413  0.3660 -2.9487
 1001MOL0     H35124   8.733   7.687   3.945  3.4308  1.0591 -2.7646
 1001MOL0     H35125   8.855   7.452   4.097 -1.6123 -2.0935  3.4758
 1001MOL0     H35126   8.735   7.564   4.176  0.1161  0.6078 -0.2064
 1001MOL0     H35127   8.918   7.749   4.079  0.2040  0.0502 -1.0973
 1001MOL0     H35128   9.015   7.615   4.071  1.2301  1.8162  0.8702
 1001MOL0     H35129   9.063   7.594   4.287 -1.7036 -1.3294  2.5992
 1001MOL0     H35130   9.067   7.758   4.254 -0.5624  0.2505  0.2159
 1001MOL0     H35131   8.755   7.710   4.548 -1.9029  3.0239 -0.8410
 1001MOL0     H35132   8.812   7.792   3.776  0.1761  1.7889  1.2292
 1001MOL0     H35133   8.956   7.971   3.582 -0.2793 -0.7119 -0.2636
 1001MOL0     H35134   8.885   7.991   3.740  1.0232 -0.7385  2.0685
 1001MOL0     H35135   9.054   8.033   3.720  0.4759 -0.3029 -1.7637
 1002MOL0     O35136   4.366   2.324   6.919 -0.1251 -0.0608  0.2334
 1002MOL0     C35137   4.460   2.268   6.973  0.8877 -0.1027 -0.2341
 1002MOL0     O35138   4.452   2.134   7.003  0.5934  0.1714  0.5381
 1002MOL0     C35139   4.326   2.068   6.996  0.3264  0.7092 -1.1745
 1002MOL0     C35140   4.221   2.114   7.076  0.6279 -0.5450  0.4146
 1002MOL0     C35141   4.101   2.043   7.080  0.5433 -0.4033  0.4198
 1002MOL0     C35142   4.086   1.916   7.018 -1.0860 -0.4147 -0.8451
 1002MOL0     O35143   3.966   1.846   7.027  0.1514 -0.0685 -0.4615
 1002MOL0     C35144   3.941   1.733   6.942 -0.3257 -0.0329  1.0322
 1002MOL0     C35145   3.802   1.681   6.961 -0.3459  0.1049 -0.0972
 1002MOL0     C35146   3.691   1.785   6.930 -0.3338 -0.1554  0.6462
 1002MOL0     C35147   3.553   1.721   6.967  0.7174 -0.7972  0.5967
 1002MOL0     C35148   3.431   1.775   6.895  0.8868 -0.0976  0.3633
 1002MOL0     C35149   3.301   1.729   6.960 -0.9815  0.0767  0.1364
 1002MOL0     C35150   3.271   1.580   6.945  0.5487 -0.5698 -0.3286
 1002MOL0     C35151   3.190   1.538   7.071 -0.5066 -0.9639 -0.1798
 1002MOL0     N35152   3.150   1.397   7.058 -0.2291  0.2845  0.2731
 1002MOL0     C35153   3.238   1.293   7.034 -0.2131  0.6072 -0.1497
 1002MOL0     C35154   3.154   1.183   7.011 -0.3571  0.6716  0.1008
 1002MOL0     C35155   3.194   1.040   6.990  0.0527 -0.5134  0.1508
 1002MOL0     C35156   3.195   0.988   7.136  0.1329 -0.2243  0.1215
 1002MOL0     C35157   3.248   0.850   7.160  0.0941  0.3597 -1.4694
 1002MOL0     C35158   3.388   0.836   7.131  0.5101 -0.0746 -0.3929
 1002MOL0     O35159   3.463   0.895   7.242  0.9266 -0.2636  0.0130
 1002MOL0     C35160   3.596   0.893   7.245 -0.8041  1.0121  0.4743
 1002MOL0     C35161   3.660   1.009   7.293 -0.6966  0.0465  0.1674
 1002MOL0     C35162   3.797   1.029   7.283  0.4771  0.4957 -0.6527
 1002MOL0     C35163   3.876   0.921   7.245 -0.1821 -0.5554  1.5057
 1002MOL0     C35164   4.025   0.949   7.222  0.3883 -0.1745  0.4848
 1002MOL0     O35165   4.075   1.049   7.303 -0.2229 -1.3779  0.0179
 1002MOL0     C35166   4.204   1.088   7.280 -0.4103 -0.4043 -0.3369
 1002MOL0     C35167   4.308   1.026   7.345  0.0412  0.0931 -0.1682
 1002MOL0     C35168   4.444   1.053   7.315 -0.5486 -0.2788 -0.4724
 1002MOL0     C35169   4.474   1.137   7.203  0.2160  0.1325  0.8949
 1002MOL0     O35170   4.591   1.155   7.144 -0.4210 -0.0628  0.8103
 1002MOL0     C35171   4.712   1.084   7.185  0.3381 -0.6727 -0.2543
 1002MOL0     C35172   4.822   1.136   7.098  0.4594 -0.2809  0.2176
 1002MOL0     C35173   4.958   1.067   7.131  0.9621 -0.3137  0.9418
 1002MOL0     C35174   5.068   1.115   7.037  0.0304  0.2501 -0.1152
 1002MOL0     C35175   5.192   1.044   7.085  0.0532  0.1268  0.0289
 1002MOL0     C35176   5.321   1.058   6.995  0.1666 -0.7381  0.0558
 1002MOL0     C35177   5.435   0.997   7.074  0.4324  0.3539 -0.1568
 1002MOL0     C35178   5.565   0.997   7.000 -0.9149 -0.4532 -0.1023
 1002MOL0    Cl35179   5.643   1.146   6.943 -0.0051  0.0695 -0.1910
 1002MOL0     C35180   4.363   1.202   7.135  0.6932 -0.1880  0.8691
 1002MOL0     C35181   4.232   1.184   7.186 -0.2504 -0.5752 -0.1357
 1002MOL0     O35182   4.089   0.893   7.139  0.3140  0.2153 -0.1329
 1002MOL0     C35183   3.818   0.808   7.192 -0.6765  0.1996  1.2440
 1002MOL0     C35184   3.682   0.793   7.191 -0.3784 -0.8193  0.7705
 1002MOL0     N35185   3.020   1.219   7.014 -0.1338 -0.5503 -0.2066
 1002MOL0     N35186   3.018   1.346   7.036  0.1428 -0.4377 -0.3082
 1002MOL0     C35187   4.200   1.865   6.948  0.7736  0.5234  0.2357
 1002MOL0     C35188   4.318   1.944   6.941  0.1370  1.0356 -0.2010
 1002MOL0     C35189   4.593   2.338   6.996 -1.2220 -0.4532 -0.3857
 1002MOL0     C35190   4.703   2.257   7.043  0.3539 -0.4881  0.4169
 1002MOL0     C35191   4.825   2.311   7.079  0.3902 -0.2997  0.6347
 1002MOL0     C35192   4.848   2.450   7.083 -0.5233  0.7030  1.4351
 1002MOL0     O35193   4.959   2.517   7.126  0.3926  0.9841  0.2332
 1002MOL0     C35194   5.069   2.432   7.187  1.2250  0.7605 -0.3968
 1002MOL0     C35195   5.206   2.509   7.204 -0.1031  0.2505  0.8387
 1002MOL0     C35196   5.236   2.582   7.077  0.0771 -1.1381  0.0195
 1002MOL0     C35197   5.391   2.595   7.057  0.1443 -0.6074  0.1386
 1002MOL0     C35198   5.465   2.679   7.159 -0.3187  0.2141 -0.3547
 1002MOL0     C35199   5.531   2.756   7.226  0.0245 -0.2362  0.0248
 1002MOL0     C35200   4.751   2.521   7.035  0.2189 -1.0295  0.5623
 1002MOL0     C35201   4.622   2.477   6.984 -0.2954 -0.1855 -0.8777
 1002MOL0     C35202   4.541   2.592   6.947  1.1651  0.8816 -0.1681
 1002MOL0     H35203   4.215   2.200   7.141 -0.2778 -1.6008  1.8014
 1002MOL0     H35204   4.021   2.075   7.147  1.9483 -0.9954  2.4832
 1002MOL0     H35205   3.955   1.760   6.837 -0.4307 -3.9152 -0.1402
 1002MOL0     H35206   4.018   1.657   6.958  0.2607 -0.2419 -2.1871
 1002MOL0     H35207   3.801   1.647   7.065 -0.0180  1.3686  0.3340
 1002MOL0     H35208   3.801   1.593   6.896  0.5029 -2.4875  3.1231
 1002MOL0     H35209   3.685   1.809   6.824 -1.0676 -1.0297  0.4692
 1002MOL0     H35210   3.705   1.865   7.003 -1.3813 -0.5079  1.2606
 1002MOL0     H35211   3.566   1.613   6.956  0.5603 -0.7348 -0.3612
 1002MOL0     H35212   3.535   1.755   7.069  0.4915  1.6027 -0.1716
 1002MOL0     H35213   3.433   1.884   6.895  0.1567 -0.0517 -1.3246
 1002MOL0     H35214   3.438   1.740   6.792 -1.2851  1.9027 -0.5309
 1002MOL0     H35215   3.317   1.753   7.065  0.0720 -0.6623  0.1510
 1002MOL0     H35216   3.222   1.792   6.916 -0.0106 -0.0544 -1.9294
 1002MOL0     H35217   3.361   1.518   6.934  0.4704 -0.3760 -2.5202
 1002MOL0     H35218   3.208   1.555   6.860 -0.3581 -2.0659  0.7360
 1002MOL0     H35219   3.259   1.553   7.154  1.7228 -2.8584 -1.5661
 1002MOL0     H35220   3.106   1.607   7.086  1.3235  1.0657  1.2677
 1002MOL0     H35221   3.346   1.302   7.033  0.0075 -1.7025 -0.4481
 1002MOL0     H35222   3.115   0.990   6.933 -2.5877  2.6664  0.6858
 1002MOL0     H35223   3.285   1.033   6.930 -0.3729 -2.2563 -0.3555
 1002MOL0     H35224   3.252   1.055   7.201 -1.1804 -0.7433  1.9083
 1002MOL0     H35225   3.091   0.997   7.166  0.4665  3.2879  0.6817
 1002MOL0     H35226   3.180   0.784   7.106 -1.3183 -0.3843  1.0760
 1002MOL0     H35227   3.236   0.833   7.268  1.2574  0.5324 -1.2935
 1002MOL0     H35228   3.419   0.883   7.038 -2.4496  0.1631 -1.3585
 1002MOL0     H35229   3.409   0.729   7.122  0.2601  0.0554 -3.2501
 1002MOL0     H35230   3.607   1.088   7.345  0.6241  1.2834 -0.2991
 1002MOL0     H35231   3.833   1.122   7.325 -0.1931  0.4276  0.1057
 1002MOL0     H35232   4.285   0.960   7.428  0.7895 -1.1806 -0.9395
 1002MOL0     H35233   4.525   1.010   7.373  1.3677  2.6601 -0.7494
 1002MOL0     H35234   4.731   1.096   7.292  1.6872 -2.1793 -0.2826
 1002MOL0     H35235   4.699   0.977   7.168 -0.9517 -1.1147  2.9188
 1002MOL0     H35236   4.799   1.103   6.996 -0.3112  2.6037 -0.6332
 1002MOL0     H35237   4.825   1.245   7.094  1.8439 -0.3228 -0.5599
 1002MOL0     H35238   4.979   1.106   7.231 -0.2086  1.8904  0.3816
 1002MOL0     H35239   4.952   0.958   7.120  1.4221 -0.1449 -1.5003
 1002MOL0     H35240   5.081   1.223   7.028 -0.1781  0.1390 -2.4788
 1002MOL0     H35241   5.042   1.090   6.934 -1.5321 -1.3963  0.6141
 1002MOL0     H35242   5.173   0.936   7.079 -0.8996  0.3638 -2.1031
 1002MOL0     H35243   5.193   1.073   7.191 -1.7455  1.4298 -0.2736
 1002MOL0     H35244   5.307   1.026   6.891 -0.2698  0.9001 -0.4183
 1002MOL0     H35245   5.339   1.166   6.994 -3.4448  0.0436  1.9127
 1002MOL0     H35246   5.403   0.896   7.101  0.5567  0.2883 -0.2515
 1002MOL0     H35247   5.445   1.055   7.167 -3.3206  1.3975 -0.2663
 1002MOL0     H35248   5.644   0.954   7.063  0.1994  2.5812  0.7692
 1002MOL0     H35249   5.545   0.937   6.911 -1.4210  1.4036 -1.3105
 1002MOL0     H35250   4.378   1.263   7.046  0.2557 -1.6634 -0.2596
 1002MOL0     H35251   4.147   1.241   7.148  1.5026  2.7050  0.5727
 1002MOL0     H35252   3.873   0.733   7.136  2.0412  1.7933  1.6225
 1002MOL0     H35253   3.641   0.702   7.148 -0.5766 -0.9350  1.1950
 1002MOL0     H35254   4.195   1.775   6.889  1.2556  1.8116 -1.8852
 1002MOL0     H35255   4.413   1.920   6.893  0.0707 -0.4984  0.3712
 1002MOL0     H35256   4.695   2.151   7.061 -0.6411 -0.9233 -2.2057
 1002MOL0     H35257   4.896   2.238   7.116  0.5161 -1.0940 -1.0790
 1002MOL0     H35258   5.086   2.346   7.122 -1.2923  0.0091 -0.1740
 1002MOL0     H35259   5.037   2.372   7.273 -0.9813  1.1367 -0.8926
 1002MOL0     H35260   5.286   2.440   7.232 -0.0707 -0.0297  0.0955
 1002MOL0     H35261   5.198   2.583   7.284  0.3275  2.4394 -1.0210
 1002MOL0     H35262   5.189   2.681   7.082 -3.2207 -2.5081 -1.2100
 1002MOL0     H35263   5.186   2.539   6.990 -2.3124  0.9947  0.2174
 1002MOL0     H35264   5.434   2.495   7.049  0.9849 -0.1286 -2.4077
 1002MOL0     H35265   5.412   2.647   6.963 -1.6229  1.2308  0.6879
 1002MOL0     H35266   5.610   2.812   7.272  0.1848 -1.1286  0.8808
 1002MOL0     H35267   4.765   2.627   7.054 -1.5576 -0.4927 -0.8732
 1002MOL0     H35268   4.457   2.596   7.018  1.7976  1.1271  0.5739
 1002MOL0     H35269   4.597   2.686   6.947  2.9414 -0.1491 -0.6918
 1002MOL0     H35270   4.496   2.566   6.850 -2.3593  0.2050  1.4857
 1003MOL0     O35271   9.759   4.929  11.050 -0.4002 -1.0354  0.1105
 1003MOL0     C35272   9.690   4.988  10.968  0.1595 -0.9930  0.4513
 1003MOL0     O35273   9.589   5.071  10.996 -0.0967 -0.4196 -0.0046
 1003MOL0     C35274   9.570   5.119  11.128  0.0386  0.5882  0.2056
 1003MOL0     C35275   9.483   5.229  11.137  0.1095  0.4775  0.3115
 1003MOL0     C35276   9.465   5.302  11.255 -0.6060 -0.2204  0.3193
 1003MOL0     C35277   9.526   5.265  11.374  0.2413 -0.7525  0.1172
 1003MOL0     O35278   9.504   5.336  11.496  0.5377  1.0680  0.5595
 1003MOL0     C35279   9.478   5.469  11.485  0.0516  0.1285 -0.4046
 1003MOL0     C35280   9.585   5.548  11.420  0.1811 -0.3836  0.0762
 1003MOL0     C35281   9.716   5.580  11.499  0.0210  0.1238  0.0410
 1003MOL0     C35282   9.809   5.676  11.423 -0.1053 -0.0706 -0.3349
 1003MOL0     C35283   9.928   5.715  11.507 -0.5607 -0.7940  0.1775
 1003MOL0     C35284  10.037   5.603  11.528  0.1231  0.9709  0.0193
 1003MOL0     C35285  10.123   5.582  11.399  0.5513  0.3304  0.5707
 1003MOL0     C35286  10.257   5.495  11.414  0.0263  0.0466 -0.5097
 1003MOL0     N35287  10.238   5.353  11.447  0.6453  0.5111  0.7388
 1003MOL0     C35288  10.149   5.286  11.379 -0.1736 -0.5857  0.2338
 1003MOL0     C35289  10.131   5.173  11.450  0.7835 -0.3377 -0.5667
 1003MOL0     C35290  10.033   5.064  11.420  0.2398  1.2144 -0.2283
 1003MOL0     C35291  10.095   4.969  11.327  0.2566  0.1696 -0.5497
 1003MOL0     C35292  10.199   4.876  11.388  0.3429  0.0980  0.4060
 1003MOL0     C35293  10.265   4.783  11.295 -0.1023  0.5493 -0.9114
 1003MOL0     O35294  10.366   4.708  11.367  1.2707  0.1759 -0.1745
 1003MOL0     C35295  10.455   4.637  11.297 -0.2220  0.5033  0.3013
 1003MOL0     C35296  10.540   4.558  11.363  0.0517 -0.5226 -0.6586
 1003MOL0     C35297  10.658   4.496  11.314 -0.5268 -0.5118  0.5293
 1003MOL0     C35298  10.691   4.516  11.173  0.0847 -0.1314 -1.0006
 1003MOL0     C35299  10.816   4.445  11.111  0.4121  0.1660  0.8255
 1003MOL0     O35300  10.895   4.380  11.204  0.1433 -0.4447 -0.1536
 1003MOL0     C35301  10.994   4.296  11.174  0.7013  0.2946  0.0055
 1003MOL0     C35302  11.068   4.261  11.283  0.4686  0.8597  1.1412
 1003MOL0     C35303  11.164   4.172  11.270  0.0551 -0.0540  0.6132
 1003MOL0     C35304  11.195   4.101  11.151  1.3860 -0.2363  0.1552
 1003MOL0     O35305  11.305   4.019  11.139  0.8621 -0.3813  0.4418
 1003MOL0     C35306  11.431   4.084  11.126  0.5584 -0.2175 -0.5176
 1003MOL0     C35307  11.539   3.993  11.069  0.0938 -0.3181  0.3772
 1003MOL0     C35308  11.519   3.908  10.936 -0.4420  0.7789 -0.2465
 1003MOL0     C35309  11.575   3.763  10.954  0.9471  0.6250 -0.0371
 1003MOL0     C35310  11.570   3.677  10.828  0.4392 -0.2133 -0.4460
 1003MOL0     C35311  11.625   3.531  10.852 -0.2386 -0.1776 -0.4709
 1003MOL0     C35312  11.713   3.469  10.745  0.2848 -0.4748  0.0828
 1003MOL0     C35313  11.629   3.423  10.615  0.3038  0.6073  0.2126
 1003MOL0    Cl35314  11.733   3.333  10.506  0.0529  0.2433  0.2035
 1003MOL0     C35315  11.124   4.152  11.045  0.6614 -0.2988 -0.8364
 1003MOL0     C35316  11.028   4.246  11.051  0.5967 -0.6973 -0.3282
 1003MOL0     O35317  10.841   4.462  10.990 -0.4369  0.1283  0.2140
 1003MOL0     C35318  10.607   4.601  11.107  0.1407  0.0666 -0.4361
 1003MOL0     C35319  10.496   4.665  11.166  0.1668  0.1139 -0.3556
 1003MOL0     N35320  10.209   5.174  11.563 -0.3341 -0.6323  0.1591
 1003MOL0     N35321  10.277   5.286  11.558 -0.0489 -0.1616 -0.1551
 1003MOL0     C35322   9.623   5.171  11.366  0.2349  0.2076 -0.3209
 1003MOL0     C35323   9.638   5.089  11.249  1.0270  0.1480 -0.6404
 1003MOL0     C35324   9.719   4.964  10.822 -0.6372  0.0620 -0.3332
 1003MOL0     C35325   9.799   4.851  10.788 -0.2363 -0.2135  0.8237
 1003MOL0     C35326   9.850   4.830  10.656 -1.2118  0.0586  0.1697
 1003MOL0     C35327   9.808   4.909  10.551 -0.9380  0.7694  0.2017
 1003MOL0     O35328   9.860   4.892  10.427 -0.7870  0.0860  0.1412
 1003MOL0     C35329   9.788   4.921  10.309  0.2148 -0.4298  0.6424
 1003MOL0     C35330   9.882   4.988  10.212 -0.0067 -0.0750  0.4441
 1003MOL0     C35331   9.816   5.063  10.098  0.3708 -0.3588  0.4066
 1003MOL0     C35332   9.743   4.982   9.990 -0.0093 -0.1303  0.0160
 1003MOL0     C35333   9.646   5.075   9.926 -0.0887  1.1818 -0.7275
 1003MOL0     C35334   9.553   5.138   9.874  0.4926  0.3042 -0.1336
 1003MOL0     C35335   9.727   5.013  10.581 -0.0130 -0.2309  0.2228
 1003MOL0     C35336   9.671   5.039  10.708  0.2761 -0.4724  0.1007
 1003MOL0     C35337   9.578   5.160  10.722 -0.6583 -0.2459 -0.0335
 1003MOL0     H35338   9.444   5.259  11.040 -1.7163  1.6828  1.3401
 1003MOL0     H35339   9.384   5.375  11.255 -0.3924  0.1943  3.6043
 1003MOL0     H35340   9.388   5.494  11.429 -1.4163 -1.2386  1.2522
 1003MOL0     H35341   9.477   5.493  11.591  5.1316 -2.1274  0.5095
 1003MOL0     H35342   9.541   5.645  11.395  1.1988 -0.1601 -0.9173
 1003MOL0     H35343   9.617   5.508  11.324 -0.9832  0.0164 -0.4980
 1003MOL0     H35344   9.771   5.492  11.533  3.5586  2.4894  1.0042
 1003MOL0     H35345   9.688   5.638  11.588  1.1943  3.1186 -1.4296
 1003MOL0     H35346   9.848   5.637  11.329 -1.1930 -1.0741 -0.3864
 1003MOL0     H35347   9.753   5.766  11.397 -0.4553 -0.1752  0.0445
 1003MOL0     H35348   9.986   5.799  11.466 -2.2236 -0.1479 -0.9954
 1003MOL0     H35349   9.902   5.760  11.603 -2.2002  2.7094 -1.7168
 1003MOL0     H35350  10.100   5.625  11.615  3.5694 -1.0266 -1.7187
 1003MOL0     H35351   9.990   5.507  11.551  1.9313  0.0845  0.1978
 1003MOL0     H35352  10.150   5.678  11.354  0.9891 -0.1045 -0.1058
 1003MOL0     H35353  10.059   5.529  11.328 -2.4886  0.6809  2.8404
 1003MOL0     H35354  10.303   5.497  11.315 -1.4381  1.4246 -1.2079
 1003MOL0     H35355  10.317   5.544  11.491 -3.0026  0.8857  1.4816
 1003MOL0     H35356  10.101   5.323  11.289  2.8558  1.2167 -0.8133
 1003MOL0     H35357  10.014   5.014  11.515  2.8895  2.4642  1.0806
 1003MOL0     H35358   9.946   5.110  11.373  0.7914  0.4929 -2.0642
 1003MOL0     H35359  10.019   4.904  11.281 -0.6275 -2.5472  4.1496
 1003MOL0     H35360  10.136   5.032  11.247 -0.9680  0.9102 -0.6329
 1003MOL0     H35361  10.147   4.812  11.460  1.0666 -1.3798 -0.3349
 1003MOL0     H35362  10.276   4.926  11.447 -0.4116  0.0357  1.4737
 1003MOL0     H35363  10.295   4.836  11.204  4.2089  0.2755  0.1369
 1003MOL0     H35364  10.188   4.711  11.264 -0.7259 -0.3954  2.4871
 1003MOL0     H35365  10.508   4.537  11.464 -4.4068  3.8050 -0.7675
 1003MOL0     H35366  10.717   4.428  11.376 -1.7599 -0.1582  2.1751
 1003MOL0     H35367  11.041   4.297  11.382 -1.0760 -4.1851  2.8807
 1003MOL0     H35368  11.216   4.166  11.365  0.0063  1.5179  0.7595
 1003MOL0     H35369  11.437   4.173  11.062 -0.8527  0.8582  0.7472
 1003MOL0     H35370  11.467   4.112  11.226 -0.5785  0.2030 -0.2044
 1003MOL0     H35371  11.627   4.054  11.044 -0.6190  0.7446  0.4099
 1003MOL0     H35372  11.565   3.921  11.147 -3.1566 -2.6791 -0.5205
 1003MOL0     H35373  11.415   3.900  10.904  0.8488  1.2584 -5.4615
 1003MOL0     H35374  11.564   3.971  10.859 -2.7559  2.4446 -0.3344
 1003MOL0     H35375  11.507   3.722  11.029 -0.5778  1.4833 -0.9093
 1003MOL0     H35376  11.679   3.768  10.990  1.8486 -2.4276 -1.8567
 1003MOL0     H35377  11.633   3.728  10.754  1.8981  3.0123  2.7329
 1003MOL0     H35378  11.470   3.682  10.786  0.2311 -1.3196 -0.1142
 1003MOL0     H35379  11.692   3.541  10.937 -0.2746 -2.4582 -0.1056
 1003MOL0     H35380  11.548   3.456  10.874  0.3693 -0.5186  0.5294
 1003MOL0     H35381  11.764   3.381  10.785  1.7238  0.3208  0.0634
 1003MOL0     H35382  11.798   3.535  10.724 -0.1854  0.0848 -0.0947
 1003MOL0     H35383  11.547   3.356  10.642  3.5509 -2.8182  2.7359
 1003MOL0     H35384  11.597   3.513  10.562  2.0623  1.0267 -0.2227
 1003MOL0     H35385  11.153   4.119  10.946 -0.5676 -0.5169 -1.1442
 1003MOL0     H35386  10.978   4.271  10.958  1.6844 -0.0387 -0.7492
 1003MOL0     H35387  10.629   4.620  11.003 -0.5412 -3.9499 -1.4621
 1003MOL0     H35388  10.430   4.717  11.097 -1.3394 -4.6947 -3.0325
 1003MOL0     H35389   9.671   5.148  11.460  0.6145 -1.9955 -0.9898
 1003MOL0     H35390   9.698   5.001  11.271  0.0056 -0.0099  1.7695
 1003MOL0     H35391   9.835   4.797  10.875  2.9281 -2.2936 -1.5286
 1003MOL0     H35392   9.917   4.751  10.626 -3.0156 -0.4066 -3.0977
 1003MOL0     H35393   9.699   4.981  10.330 -0.3595  0.0888 -2.6971
 1003MOL0     H35394   9.750   4.831  10.261  1.1997  0.2676 -1.5903
 1003MOL0     H35395   9.965   4.921  10.186 -2.3632 -2.3404 -2.0240
 1003MOL0     H35396   9.919   5.071  10.272 -3.2788  1.5270  0.4544
 1003MOL0     H35397   9.889   5.120  10.041 -2.4350  1.2030 -1.9159
 1003MOL0     H35398   9.745   5.134  10.141  1.1361  1.0542 -0.6028
 1003MOL0     H35399   9.808   4.943   9.912  0.3243 -0.2378  0.3429
 1003MOL0     H35400   9.692   4.896  10.035 -0.2817  0.3009  0.5548
 1003MOL0     H35401   9.491   5.213   9.829  1.3001  1.1895  0.2104
 1003MOL0     H35402   9.708   5.089  10.505 -0.5683  2.9319  3.2581
 1003MOL0     H35403   9.528   5.188  10.628 -1.3519 -0.5731  0.2306
 1003MOL0     H35404   9.489   5.126  10.774 -1.2667  0.3627 -0.6536
 1003MOL0     H35405   9.637   5.239  10.770  2.6798 -1.4389 -1.8595
 1004MOL0     O35406   6.511   7.965   6.959  0.4885 -0.4580  0.3338
 1004MOL0     C35407   6.459   7.875   7.021  0.0040 -0.5331 -0.2259
 1004MOL0     O35408   6.522   7.809   7.124  0.5220 -0.2669  0.0494
 1004MOL0     C35409   6.661   7.791   7.122  0.1992  0.3568 -0.2449
 1004MOL0     C35410   6.711   7.671   7.069 -0.6983  0.3644  0.2354
 1004MOL0     C35411   6.851   7.648   7.063 -0.2868  0.8071  0.2345
 1004MOL0     C35412   6.943   7.743   7.104 -0.2036  0.1525  0.5682
 1004MOL0     O35413   7.078   7.718   7.100  0.3581  0.5478  0.3848
 1004MOL0     C35414   7.171   7.808   7.164  0.5244  0.1592  0.0282
 1004MOL0     C35415   7.315   7.750   7.171  1.4838  0.4106 -0.1251
 1004MOL0     C35416   7.369   7.735   7.028 -0.3383  0.5398  0.1694
 1004MOL0     C35417   7.501   7.658   7.040  0.2751  0.1061 -0.1379
 1004MOL0     C35418   7.609   7.680   6.929 -0.4576 -0.3025  0.5604
 1004MOL0     C35419   7.748   7.642   6.958 -0.3517  0.2892 -0.8188
 1004MOL0     C35420   7.755   7.488   7.016 -0.4291 -1.1658  0.4212
 1004MOL0     C35421   7.885   7.437   7.076 -0.0037 -0.3862 -0.4731
 1004MOL0     N35422   7.845   7.312   7.150 -0.6188 -0.5632 -0.6179
 1004MOL0     C35423   7.838   7.191   7.090 -0.3666  0.2452 -0.0875
 1004MOL0     C35424   7.803   7.103   7.182  0.5678  0.0567  0.1264
 1004MOL0     C35425   7.765   6.954   7.168 -0.1944  0.0511 -0.0293
 1004MOL0     C35426   7.818   6.877   7.041  0.0680  0.9827  0.2300
 1004MOL0     C35427   7.807   6.724   7.047 -0.2461 -0.1689 -0.4510
 1004MOL0     C35428   7.887   6.656   7.164  0.0039  0.1149  0.2905
 1004MOL0     O35429   8.000   6.723   7.214  0.0117  0.4479 -0.3159
 1004MOL0     C35430   8.091   6.652   7.291 -0.4232  0.0555 -0.5322
 1004MOL0     C35431   8.060   6.542   7.368  0.2887  0.1606  0.0068
 1004MOL0     C35432   8.154   6.476   7.440  0.1587 -0.8651 -1.2531
 1004MOL0     C35433   8.285   6.521   7.447 -0.2924 -0.0106 -0.6559
 1004MOL0     C35434   8.384   6.469   7.548 -0.1251 -0.3579 -0.9025
 1004MOL0     O35435   8.344   6.388   7.649  0.7365  0.5195 -0.3074
 1004MOL0     C35436   8.444   6.312   7.709 -0.0158 -0.0849  0.6897
 1004MOL0     C35437   8.501   6.201   7.637  0.5113 -0.5103 -0.2613
 1004MOL0     C35438   8.590   6.111   7.690 -0.5160  0.7371  0.2349
 1004MOL0     C35439   8.626   6.125   7.823 -0.2098  0.1813  0.4039
 1004MOL0     O35440   8.708   6.025   7.873  0.7267 -0.6620 -1.0215
 1004MOL0     C35441   8.786   6.061   7.988 -0.0518  0.1282 -0.1628
 1004MOL0     C35442   8.920   5.981   7.984 -0.0668 -0.0009  0.8430
 1004MOL0     C35443   8.897   5.836   7.941 -0.4221 -0.4259 -0.1867
 1004MOL0     C35444   9.032   5.778   7.878  0.0004  0.4383 -0.6429
 1004MOL0     C35445   8.994   5.637   7.829  0.9163  0.0405 -0.0084
 1004MOL0     C35446   9.116   5.534   7.790  0.9069 -0.1067  0.1619
 1004MOL0     C35447   9.076   5.389   7.754  0.2106 -1.2992  0.8280
 1004MOL0     C35448   9.203   5.301   7.760  0.0174 -0.4572 -0.0032
 1004MOL0    Cl35449   9.155   5.133   7.725 -0.1121 -0.1823  0.2560
 1004MOL0     C35450   8.568   6.226   7.904  0.9789 -0.4184  0.1410
 1004MOL0     C35451   8.484   6.322   7.846 -0.2084  0.4817  0.7607
 1004MOL0     O35452   8.506   6.484   7.513 -0.6509 -0.3536 -0.8187
 1004MOL0     C35453   8.316   6.632   7.365 -0.2724  0.1780 -0.2129
 1004MOL0     C35454   8.219   6.700   7.294 -0.7002  0.7690  0.2389
 1004MOL0     N35455   7.802   7.174   7.308 -0.4715 -0.8137  1.2154
 1004MOL0     N35456   7.821   7.300   7.280  0.3028  0.1836 -0.3303
 1004MOL0     C35457   6.890   7.863   7.150  0.7504 -0.2311  0.8164
 1004MOL0     C35458   6.751   7.880   7.170 -0.3553  0.1988  0.2787
 1004MOL0     C35459   6.325   7.822   6.983  0.5085 -1.3295 -0.5756
 1004MOL0     C35460   6.291   7.692   7.013 -0.0063  0.7690 -0.3018
 1004MOL0     C35461   6.160   7.638   6.987  0.4652  0.8815 -0.3970
 1004MOL0     C35462   6.070   7.716   6.921 -0.3361  0.7262 -0.7786
 1004MOL0     O35463   5.955   7.652   6.904  0.2386 -0.1747 -0.0853
 1004MOL0     C35464   5.849   7.722   6.834  0.3581  1.0574  0.0046
 1004MOL0     C35465   5.787   7.820   6.941 -0.6221 -0.0830  0.7433
 1004MOL0     C35466   5.744   7.742   7.063 -0.2914  0.0818  0.1274
 1004MOL0     C35467   5.750   7.813   7.199 -0.7581 -0.2025  0.8112
 1004MOL0     C35468   5.718   7.731   7.314  0.8321 -0.1369 -0.1299
 1004MOL0     C35469   5.691   7.660   7.416  0.7929 -0.3675  0.1153
 1004MOL0     C35470   6.103   7.852   6.895  0.3003  0.9086  0.0025
 1004MOL0     C35471   6.221   7.907   6.928 -0.4749 -0.2969 -0.6311
 1004MOL0     C35472   6.237   8.054   6.914 -0.7755 -0.5884  0.3036
 1004MOL0     H35473   6.636   7.596   7.049  0.1695 -0.8934  1.5332
 1004MOL0     H35474   6.886   7.546   7.048 -2.1475 -0.2982  2.7170
 1004MOL0     H35475   7.176   7.901   7.107 -1.6807  0.7300  0.6606
 1004MOL0     H35476   7.130   7.829   7.263 -0.1379  0.9882 -0.4162
 1004MOL0     H35477   7.321   7.652   7.219  2.0952 -0.6848 -2.2904
 1004MOL0     H35478   7.375   7.819   7.231  0.1714  1.3846  0.0962
 1004MOL0     H35479   7.383   7.835   6.984  5.6228 -0.0115  0.1010
 1004MOL0     H35480   7.297   7.683   6.964 -0.9738  3.1177 -1.3910
 1004MOL0     H35481   7.547   7.709   7.125 -2.2292  0.3854  1.1339
 1004MOL0     H35482   7.480   7.551   7.053 -2.5435  0.4536 -1.1853
 1004MOL0     H35483   7.577   7.635   6.834 -4.9577 -0.8397  2.1116
 1004MOL0     H35484   7.620   7.789   6.920  0.2440 -0.4442 -0.5964
 1004MOL0     H35485   7.815   7.655   6.872 -0.6117  0.9379 -0.9257
 1004MOL0     H35486   7.790   7.707   7.035 -0.8458  0.3122 -0.5647
 1004MOL0     H35487   7.726   7.422   6.933 -0.7439 -2.9350  1.8746
 1004MOL0     H35488   7.677   7.489   7.092  0.3782  4.1222  1.5727
 1004MOL0     H35489   7.967   7.412   7.008  1.9065 -3.3184  2.5468
 1004MOL0     H35490   7.933   7.510   7.142  1.4544 -0.9130 -0.9203
 1004MOL0     H35491   7.851   7.175   6.984 -0.6714  0.4874 -0.1623
 1004MOL0     H35492   7.785   6.909   7.266  1.5374 -0.2549 -0.5069
 1004MOL0     H35493   7.655   6.958   7.163 -0.4123 -1.3528  2.1259
 1004MOL0     H35494   7.758   6.902   6.953  0.7940  0.9586 -0.2750
 1004MOL0     H35495   7.923   6.898   7.020  0.1131  1.4241  0.8548
 1004MOL0     H35496   7.829   6.687   6.947 -6.0121  0.6519 -2.4296
 1004MOL0     H35497   7.702   6.702   7.070  0.5295 -1.5032  2.3006
 1004MOL0     H35498   7.923   6.555   7.140 -1.6594 -0.7938  1.3857
 1004MOL0     H35499   7.811   6.660   7.243 -0.2294 -0.4902  0.1022
 1004MOL0     H35500   7.958   6.508   7.363  0.0356  0.6503  1.2460
 1004MOL0     H35501   8.133   6.392   7.506 -1.5824  1.0847  0.8372
 1004MOL0     H35502   8.474   6.194   7.532 -1.9974 -2.2759  0.4141
 1004MOL0     H35503   8.632   6.035   7.625 -3.8841 -0.7985 -0.3701
 1004MOL0     H35504   8.818   6.164   7.971  1.2710 -0.3023 -0.3798
 1004MOL0     H35505   8.737   6.056   8.086  1.7338  0.2018  0.7649
 1004MOL0     H35506   8.987   6.026   7.911  0.5257 -0.7258  0.9229
 1004MOL0     H35507   8.980   5.989   8.075 -1.0539  1.4920  1.3869
 1004MOL0     H35508   8.860   5.788   8.032  0.6296 -1.3541 -0.2363
 1004MOL0     H35509   8.813   5.823   7.872 -0.5304  2.3999 -0.7230
 1004MOL0     H35510   9.112   5.763   7.950 -0.7707 -0.3545  0.0635
 1004MOL0     H35511   9.091   5.829   7.800  2.1495 -0.6247  0.2187
 1004MOL0     H35512   8.936   5.651   7.738  0.3610  3.0664  0.7146
 1004MOL0     H35513   8.933   5.590   7.907 -1.7729  1.2134 -1.3083
 1004MOL0     H35514   9.174   5.582   7.711 -0.6461  2.0117  0.1997
 1004MOL0     H35515   9.178   5.532   7.880 -0.2119  1.3264  1.0088
 1004MOL0     H35516   9.023   5.379   7.659 -0.6723  0.0109  1.1716
 1004MOL0     H35517   9.010   5.367   7.839  0.2288  3.6031  2.3972
 1004MOL0     H35518   9.266   5.342   7.680 -0.6265 -1.2820 -0.9538
 1004MOL0     H35519   9.248   5.322   7.858 -1.1744 -0.6279  0.6063
 1004MOL0     H35520   8.586   6.221   8.011 -4.4177 -2.1329  1.2849
 1004MOL0     H35521   8.448   6.402   7.911  2.6219  1.2640  1.4844
 1004MOL0     H35522   8.419   6.667   7.359  0.0488 -0.6520  0.3480
 1004MOL0     H35523   8.240   6.785   7.229 -0.0107  1.6863  1.6275
 1004MOL0     H35524   6.949   7.952   7.167  1.5125 -0.5797  0.0840
 1004MOL0     H35525   6.717   7.971   7.216 -1.7226 -1.3629  2.5601
 1004MOL0     H35526   6.365   7.624   7.053 -1.8168 -2.4208 -2.0429
 1004MOL0     H35527   6.130   7.536   7.007  0.5630  0.5433 -1.8786
 1004MOL0     H35528   5.778   7.645   6.804 -0.5257  2.5137 -1.9110
 1004MOL0     H35529   5.873   7.786   6.749  1.7092 -1.5009 -1.6601
 1004MOL0     H35530   5.694   7.865   6.904 -1.0125  1.2959  3.1781
 1004MOL0     H35531   5.852   7.903   6.967 -0.9978  0.5126 -0.1711
 1004MOL0     H35532   5.807   7.654   7.077 -2.1171 -1.9972 -3.3656
 1004MOL0     H35533   5.642   7.705   7.049 -0.1363  0.0563 -1.0106
 1004MOL0     H35534   5.853   7.850   7.201 -0.4303 -0.8546 -1.1697
 1004MOL0     H35535   5.683   7.898   7.194 -1.1060 -0.5391 -0.8914
 1004MOL0     H35536   5.669   7.591   7.495  1.6964  0.6952  1.3417
 1004MOL0     H35537   6.043   7.917   6.832  0.8517  2.7465  1.2590
 1004MOL0     H35538   6.291   8.091   6.827  1.1368  2.3938  2.5876
 1004MOL0     H35539   6.134   8.090   6.925 -0.8870 -0.8972  0.2892
 1004MOL0     H35540   6.284   8.093   7.005  1.2740  0.3397 -1.0816
 1005MOL0     O35541   3.897   8.034   0.475 -0.1923  0.8552 -0.2288
 1005MOL0     C35542   3.894   8.157   0.464 -0.6425  0.2759 -0.1783
 1005MOL0     O35543   4.012   8.237   0.482  0.2287  0.2793 -0.2686
 1005MOL0     C35544   4.128   8.204   0.547  0.4069  0.2437  0.1192
 1005MOL0     C35545   4.229   8.293   0.510 -0.4438 -0.2244 -0.5086
 1005MOL0     C35546   4.355   8.276   0.574  0.6672 -0.2782 -0.0675
 1005MOL0     C35547   4.384   8.178   0.667 -0.6613  0.9826  0.0967
 1005MOL0     O35548   4.514   8.165   0.729  0.1088 -0.1920 -0.2832
 1005MOL0     C35549   4.609   8.270   0.716  0.5070 -0.4047  0.2219
 1005MOL0     C35550   4.704   8.258   0.591  0.2752 -0.1237  0.2706
 1005MOL0     C35551   4.780   8.123   0.616  0.8864 -0.8750  0.5771
 1005MOL0     C35552   4.907   8.117   0.531 -0.0273  0.0314 -0.4036
 1005MOL0     C35553   5.018   8.181   0.618  1.3204  0.6737  0.3323
 1005MOL0     C35554   5.156   8.165   0.539  0.8838  0.2304 -0.7714
 1005MOL0     C35555   5.284   8.191   0.618  1.0868  0.0904 -0.6203
 1005MOL0     C35556   5.397   8.188   0.518  0.0047 -0.7053  0.4207
 1005MOL0     N35557   5.527   8.168   0.587 -0.6030  0.4355 -0.1040
 1005MOL0     C35558   5.582   8.195   0.711  0.4205 -0.0800  0.6747
 1005MOL0     C35559   5.701   8.139   0.716 -0.3499 -0.4415  0.3724
 1005MOL0     C35560   5.785   8.132   0.838 -0.9964  0.5588 -0.2279
 1005MOL0     C35561   5.932   8.139   0.806 -0.7910  0.2913  0.8599
 1005MOL0     C35562   5.991   8.022   0.739  0.1000 -0.6398  0.3941
 1005MOL0     C35563   6.134   8.030   0.713 -0.0694 -0.0822 -0.6727
 1005MOL0     O35564   6.222   8.050   0.825  0.0351 -0.1310 -0.5012
 1005MOL0     C35565   6.349   8.107   0.805  0.8049 -0.5497  0.1195
 1005MOL0     C35566   6.406   8.157   0.921  0.7426  0.4358 -0.0656
 1005MOL0     C35567   6.523   8.223   0.927 -0.4075 -0.3058  0.4433
 1005MOL0     C35568   6.604   8.244   0.809  0.0722  0.0811 -0.4517
 1005MOL0     C35569   6.734   8.313   0.809 -0.3851  0.0872  0.1297
 1005MOL0     O35570   6.762   8.355   0.938 -0.1235  0.6374 -0.5651
 1005MOL0     C35571   6.887   8.415   0.954  0.2065 -0.3245 -0.5060
 1005MOL0     C35572   6.911   8.539   0.897 -0.0313  0.4353 -0.1097
 1005MOL0     C35573   7.035   8.602   0.929  0.6765 -0.4051 -0.9524
 1005MOL0     C35574   7.131   8.542   1.007  1.1878  0.9855 -0.5922
 1005MOL0     O35575   7.257   8.601   1.016  0.1994 -0.3914 -0.2275
 1005MOL0     C35576   7.365   8.540   1.090 -0.1814 -0.2339 -0.5392
 1005MOL0     C35577   7.496   8.625   1.078 -0.2370 -0.3094 -0.1524
 1005MOL0     C35578   7.492   8.760   1.151  0.1304  0.1088 -0.2882
 1005MOL0     C35579   7.619   8.837   1.147  0.7439  0.1806  0.2256
 1005MOL0     C35580   7.606   8.985   1.171  0.6930  0.2158  0.6931
 1005MOL0     C35581   7.517   9.023   1.285 -0.3820 -0.6164  0.0658
 1005MOL0     C35582   7.538   9.175   1.328 -1.3435 -0.3670  0.6469
 1005MOL0     C35583   7.425   9.245   1.409 -0.1434 -0.0141 -0.2407
 1005MOL0    Cl35584   7.459   9.413   1.432  0.4864 -0.0711  0.3889
 1005MOL0     C35585   7.100   8.421   1.075 -0.3264  0.3511  1.1098
 1005MOL0     C35586   6.978   8.357   1.044  0.4849 -0.0725 -0.4951
 1005MOL0     O35587   6.809   8.319   0.710  0.2806  0.2531  0.1573
 1005MOL0     C35588   6.541   8.188   0.690  1.1586 -0.0106 -0.6194
 1005MOL0     C35589   6.416   8.127   0.681  0.5722  0.0670  0.0011
 1005MOL0     N35590   5.716   8.065   0.600 -0.4253 -0.8622  0.6387
 1005MOL0     N35591   5.620   8.100   0.522  0.4620 -0.3288  0.4509
 1005MOL0     C35592   4.280   8.098   0.700  1.2378  0.3401 -0.3045
 1005MOL0     C35593   4.151   8.101   0.639  0.2752  0.0848  0.2608
 1005MOL0     C35594   3.775   8.230   0.408 -0.2919  0.2489 -0.2632
 1005MOL0     C35595   3.706   8.164   0.309 -0.0552 -0.3948  0.7914
 1005MOL0     C35596   3.595   8.214   0.233 -0.2228 -0.9797  0.3110
 1005MOL0     C35597   3.553   8.348   0.267 -0.2267  0.6405 -0.1182
 1005MOL0     O35598   3.454   8.410   0.207 -0.1979 -0.4165  1.0618
 1005MOL0     C35599   3.382   8.341   0.100 -0.5646 -0.2591 -0.3330
 1005MOL0     C35600   3.269   8.429   0.052  1.3452 -0.0286 -0.2187
 1005MOL0     C35601   3.172   8.465   0.161 -0.9558  0.8101  0.3574
 1005MOL0     C35602   3.067   8.358   0.173  0.6417  0.6654  0.7979
 1005MOL0     C35603   2.972   8.359   0.062  0.6066 -0.7311 -0.3302
 1005MOL0     C35604   2.891   8.375  -0.020  0.2824 -0.5123 -0.1774
 1005MOL0     C35605   3.632   8.422   0.355 -0.3018 -0.8409  1.4414
 1005MOL0     C35606   3.740   8.369   0.423  0.2087 -0.3231 -0.1036
 1005MOL0     C35607   3.820   8.465   0.514 -0.4326  0.0365  0.0295
 1005MOL0     H35608   4.215   8.380   0.447  1.8313 -0.4940 -1.5096
 1005MOL0     H35609   4.430   8.351   0.551  0.5838 -0.6038 -1.5118
 1005MOL0     H35610   4.556   8.365   0.730 -1.5968 -0.7810 -3.7004
 1005MOL0     H35611   4.682   8.259   0.796  1.0068 -2.0308 -0.4216
 1005MOL0     H35612   4.779   8.337   0.577  3.7969 -3.6672 -3.5739
 1005MOL0     H35613   4.642   8.254   0.501 -1.6194 -0.4957  1.5503
 1005MOL0     H35614   4.709   8.046   0.585  0.6069 -0.5495  0.4036
 1005MOL0     H35615   4.809   8.110   0.721  1.6566 -0.1288  0.4702
 1005MOL0     H35616   4.923   8.013   0.502 -1.0294  0.4926 -2.8366
 1005MOL0     H35617   4.899   8.177   0.440  2.0843  0.1001 -0.5872
 1005MOL0     H35618   5.001   8.289   0.622  0.2112  0.6560 -2.1635
 1005MOL0     H35619   5.029   8.134   0.716 -2.1478 -0.8044  0.1528
 1005MOL0     H35620   5.170   8.061   0.511  2.7006  0.9534 -2.7516
 1005MOL0     H35621   5.156   8.233   0.453  0.0714  0.2270 -0.7838
 1005MOL0     H35622   5.297   8.118   0.699 -2.9548 -2.7724 -2.2218
 1005MOL0     H35623   5.272   8.287   0.671 -1.8860  0.0993 -1.1551
 1005MOL0     H35624   5.380   8.104   0.450 -1.9601  1.3321 -1.7747
 1005MOL0     H35625   5.401   8.273   0.450 -2.1173 -2.3892 -2.0090
 1005MOL0     H35626   5.523   8.253   0.781 -2.8311 -1.3105 -0.8106
 1005MOL0     H35627   5.765   8.217   0.903  0.5050  1.2855 -0.6675
 1005MOL0     H35628   5.766   8.036   0.886  1.3037  0.0921 -0.1188
 1005MOL0     H35629   5.938   8.224   0.737 -2.1222  0.6601  1.1658
 1005MOL0     H35630   5.998   8.162   0.890  1.7110 -0.1617 -0.8703
 1005MOL0     H35631   5.940   7.989   0.648 -2.4227 -2.0555  2.1921
 1005MOL0     H35632   5.975   7.933   0.802  0.1159 -1.2353 -0.4248
 1005MOL0     H35633   6.148   8.113   0.643  0.1582  0.8283  0.4246
 1005MOL0     H35634   6.165   7.939   0.663  0.4289 -0.3142  0.0462
 1005MOL0     H35635   6.346   8.142   1.011 -2.0354  1.8156 -1.5589
 1005MOL0     H35636   6.559   8.269   1.019  1.0311  3.2193 -1.6489
 1005MOL0     H35637   6.847   8.587   0.824  2.2480  1.6463 -1.4048
 1005MOL0     H35638   7.066   8.694   0.880  1.0951 -1.3890 -2.6047
 1005MOL0     H35639   7.343   8.544   1.198 -0.5516 -0.8193 -0.5895
 1005MOL0     H35640   7.385   8.436   1.062  1.5379  0.2738 -1.3496
 1005MOL0     H35641   7.582   8.567   1.110  0.5634  1.3437  0.8163
 1005MOL0     H35642   7.506   8.647   0.971  0.8860  0.9790  0.1910
 1005MOL0     H35643   7.413   8.819   1.103  1.4464  1.4756 -0.8422
 1005MOL0     H35644   7.450   8.743   1.251 -1.1457 -1.2858 -1.0165
 1005MOL0     H35645   7.670   8.816   1.052 -0.6570 -0.5181 -0.4027
 1005MOL0     H35646   7.680   8.804   1.231  2.9567  0.8488 -1.0379
 1005MOL0     H35647   7.559   9.034   1.085  0.0073 -1.9818 -0.2627
 1005MOL0     H35648   7.705   9.021   1.201  1.4110 -1.5029  0.5338
 1005MOL0     H35649   7.415   9.016   1.247 -0.0053  2.2049 -1.7497
 1005MOL0     H35650   7.528   8.959   1.373  0.2168  0.0556  0.4875
 1005MOL0     H35651   7.538   9.232   1.234  0.0982 -2.0592 -0.4609
 1005MOL0     H35652   7.629   9.190   1.388 -1.7760  2.4901  0.7441
 1005MOL0     H35653   7.335   9.237   1.346 -0.0807 -0.0063 -0.3316
 1005MOL0     H35654   7.411   9.186   1.500 -0.4691  0.5113  0.0537
 1005MOL0     H35655   7.173   8.373   1.139  0.5114  1.8313  1.3071
 1005MOL0     H35656   6.957   8.263   1.093  0.9632 -0.4419 -0.9875
 1005MOL0     H35657   6.591   8.197   0.594  0.8123 -0.1391 -0.8143
 1005MOL0     H35658   6.383   8.114   0.579  0.0873  0.4295  0.1087
 1005MOL0     H35659   4.301   8.027   0.779 -1.2772 -0.1143  0.0424
 1005MOL0     H35660   4.079   8.025   0.668 -0.2778  0.7103  0.5443
 1005MOL0     H35661   3.741   8.063   0.288  1.4708  0.7203 -2.8075
 1005MOL0     H35662   3.557   8.154   0.151  1.1835 -0.5982 -0.6486
 1005MOL0     H35663   3.357   8.239   0.130  1.8957 -0.6086  0.7532
 1005MOL0     H35664   3.445   8.330   0.012 -3.2525 -0.0240 -2.4156
 1005MOL0     H35665   3.223   8.374  -0.031  0.6961  1.4147 -0.8423
 1005MOL0     H35666   3.296   8.530   0.021  0.6886  1.5255  3.5925
 1005MOL0     H35667   3.110   8.554   0.144 -1.4494  0.0323 -2.5827
 1005MOL0     H35668   3.222   8.482   0.256  2.6185  3.8839 -1.7998
 1005MOL0     H35669   3.107   8.256   0.174  2.3495  1.3175  1.4975
 1005MOL0     H35670   3.006   8.373   0.263 -1.3660 -0.1553 -0.3566
 1005MOL0     H35671   2.816   8.406  -0.090  0.0863  2.3722  1.1627
 1005MOL0     H35672   3.590   8.518   0.383  0.9528  0.8300 -1.8554
 1005MOL0     H35673   3.786   8.566   0.492 -1.2561 -0.0331  0.9219
 1005MOL0     H35674   3.801   8.451   0.621  1.4401  0.0644  0.4008
 1005MOL0     H35675   3.929   8.472   0.507 -0.0135  2.2723  4.5989
 1006MOL0     O35676   2.139   8.009   2.947  0.6619 -0.0993  0.3410
 1006MOL0     C35677   2.119   7.944   2.844 -0.5889  1.0192 -0.7394
 1006MOL0     O35678   2.212   7.856   2.784  0.3085 -0.2738  0.4829
 1006MOL0     C35679   2.337   7.860   2.845 -0.4482  0.7842 -0.0242
 1006MOL0     C35680   2.392   7.751   2.912  1.0175  0.8665 -0.1243
 1006MOL0     C35681   2.510   7.760   2.987  0.7524  0.8372  0.4473
 1006MOL0     C35682   2.584   7.879   2.985  0.4505 -0.0268  0.6300
 1006MOL0     O35683   2.708   7.900   3.046  0.3148  0.0307 -1.1454
 1006MOL0     C35684   2.761   7.797   3.121 -0.4074 -0.2831 -0.2451
 1006MOL0     C35685   2.869   7.855   3.217 -0.3763  0.1026 -0.2985
 1006MOL0     C35686   2.971   7.942   3.145 -0.2193 -0.5169 -0.7057
 1006MOL0     C35687   3.063   7.859   3.056  0.1097  0.5276 -0.1028
 1006MOL0     C35688   3.172   7.957   3.019 -0.0758 -0.0769  0.2760
 1006MOL0     C35689   3.278   7.888   2.937  0.5450 -0.0877  0.4786
 1006MOL0     C35690   3.384   7.972   2.883 -0.5078 -0.1875  0.3237
 1006MOL0     C35691   3.458   7.913   2.757 -0.4503  1.0784 -0.6081
 1006MOL0     N35692   3.576   7.831   2.801 -0.1995  1.0016 -0.3567
 1006MOL0     C35693   3.575   7.721   2.878 -0.0904 -0.7924  0.0781
 1006MOL0     C35694   3.708   7.686   2.894 -0.0159  0.4195  0.0441
 1006MOL0     C35695   3.739   7.575   2.993 -0.4089 -0.1746 -0.3259
 1006MOL0     C35696   3.881   7.588   3.037  0.0719  0.6675  0.1201
 1006MOL0     C35697   3.971   7.516   2.937 -0.0176  0.3839 -0.3091
 1006MOL0     C35698   4.113   7.558   2.971  0.7693  1.1273 -0.0367
 1006MOL0     O35699   4.203   7.474   2.899  0.7245  0.0054 -0.8458
 1006MOL0     C35700   4.337   7.472   2.940  0.3288 -0.9832  0.5140
 1006MOL0     C35701   4.422   7.391   2.873  0.9151  0.8176  0.6615
 1006MOL0     C35702   4.565   7.392   2.887 -0.1482  0.3267 -0.4547
 1006MOL0     C35703   4.623   7.485   2.978  1.5770 -0.5945 -0.5214
 1006MOL0     C35704   4.766   7.492   2.991  0.1605 -0.1996 -0.0240
 1006MOL0     O35705   4.813   7.600   3.062  0.1761 -0.1045  0.1908
 1006MOL0     C35706   4.952   7.611   3.092  0.5212  0.2876  0.1610
 1006MOL0     C35707   4.989   7.606   3.227 -0.9636 -0.1838  0.9593
 1006MOL0     C35708   5.127   7.598   3.257 -0.6396 -0.0235 -0.0883
 1006MOL0     C35709   5.222   7.590   3.152 -0.0869 -0.7787 -0.3039
 1006MOL0     O35710   5.352   7.602   3.188  0.6462 -0.6876 -0.1184
 1006MOL0     C35711   5.398   7.705   3.272  0.4605 -0.6774 -0.4873
 1006MOL0     C35712   5.547   7.707   3.270  0.4997  0.0529  0.0790
 1006MOL0     C35713   5.615   7.788   3.149  0.1144  0.4873 -0.1823
 1006MOL0     C35714   5.755   7.752   3.126  0.0631 -0.5605  0.5274
 1006MOL0     C35715   5.786   7.616   3.052 -0.4746 -0.0435  0.2751
 1006MOL0     C35716   5.941   7.584   3.038  0.0156 -0.1994 -0.2313
 1006MOL0     C35717   5.960   7.438   2.985  1.3179  0.5669 -0.0830
 1006MOL0     C35718   6.092   7.407   2.929 -0.6480 -0.1733  0.1825
 1006MOL0    Cl35719   6.219   7.411   3.056  0.1251 -0.0162  0.0434
 1006MOL0     C35720   5.184   7.595   3.023 -0.3995 -0.0456 -1.0302
 1006MOL0     C35721   5.050   7.606   2.991 -0.7283  0.1066 -1.2354
 1006MOL0     O35722   4.837   7.413   2.931  0.1969 -0.3871 -0.4023
 1006MOL0     C35723   4.529   7.557   3.053  0.5155  0.1103  0.4275
 1006MOL0     C35724   4.395   7.545   3.049  0.2225  0.1548 -0.0278
 1006MOL0     N35725   3.789   7.779   2.829 -0.4543  0.0990 -0.0710
 1006MOL0     N35726   3.708   7.861   2.769  0.5365  0.6167 -0.2932
 1006MOL0     C35727   2.526   7.984   2.912 -0.5161 -1.0232  0.6695
 1006MOL0     C35728   2.406   7.984   2.846  0.1615 -0.0313  0.2310
 1006MOL0     C35729   2.002   7.976   2.760  0.6295 -0.2783  0.0780
 1006MOL0     C35730   1.876   7.960   2.819  0.2748 -0.4534 -0.7994
 1006MOL0     C35731   1.759   7.989   2.757  0.4003 -0.0982  0.1735
 1006MOL0     C35732   1.757   8.024   2.620 -0.3808  1.0081 -0.4674
 1006MOL0     O35733   1.640   8.064   2.546 -0.3648  0.4942 -0.7495
 1006MOL0     C35734   1.512   8.043   2.609 -0.5306 -0.5880  0.4959
 1006MOL0     C35735   1.403   8.080   2.511 -0.1397 -0.7509  0.4232
 1006MOL0     C35736   1.276   8.014   2.538  0.0673  0.1718 -0.0277
 1006MOL0     C35737   1.151   8.063   2.459  0.8962 -0.2539  0.1035
 1006MOL0     C35738   1.023   7.990   2.489  0.6777  0.1570 -0.0702
 1006MOL0     C35739   0.919   7.930   2.520 -0.0680 -0.4577  0.0952
 1006MOL0     C35740   1.882   8.032   2.557  0.4697  0.0978  0.2152
 1006MOL0     C35741   2.006   8.013   2.630  0.0355  0.0132  0.0805
 1006MOL0     C35742   2.134   8.035   2.558 -0.9179 -0.5573 -0.3660
 1006MOL0     H35743   2.336   7.659   2.901  0.2880  1.4357 -1.3344
 1006MOL0     H35744   2.551   7.670   3.033  0.8378  0.1495 -0.8884
 1006MOL0     H35745   2.685   7.746   3.181  0.9637  0.5896  2.3980
 1006MOL0     H35746   2.809   7.721   3.059  0.1736 -1.1499  1.2200
 1006MOL0     H35747   2.925   7.771   3.259 -1.0094 -0.9322 -1.4486
 1006MOL0     H35748   2.822   7.913   3.297 -1.6297 -0.7387 -0.3883
 1006MOL0     H35749   3.024   7.983   3.231 -0.2845 -0.0517 -0.8834
 1006MOL0     H35750   2.927   8.027   3.092  1.4852  1.0573  0.3003
 1006MOL0     H35751   3.112   7.781   3.115  3.2376  0.5404 -2.4273
 1006MOL0     H35752   3.017   7.824   2.963  2.6804  1.2519 -1.7623
 1006MOL0     H35753   3.131   8.042   2.963 -1.3935 -0.3514  0.7792
 1006MOL0     H35754   3.205   7.994   3.117 -1.5306 -1.6377  1.4135
 1006MOL0     H35755   3.320   7.810   3.001 -2.4927 -0.6040  1.9784
 1006MOL0     H35756   3.236   7.843   2.846  1.8433  4.3165 -2.6441
 1006MOL0     H35757   3.451   7.998   2.965 -0.2205  1.1011 -0.2966
 1006MOL0     H35758   3.346   8.071   2.855 -0.6859 -0.4446 -0.3617
 1006MOL0     H35759   3.393   7.861   2.687 -2.8867 -0.7656  2.7358
 1006MOL0     H35760   3.503   7.998   2.704  1.0224  1.0960  0.5822
 1006MOL0     H35761   3.487   7.672   2.917 -0.7987  0.2277 -0.1942
 1006MOL0     H35762   3.675   7.585   3.082 -0.8395  1.7877 -0.8030
 1006MOL0     H35763   3.721   7.473   2.959  0.6918 -1.3347  2.2891
 1006MOL0     H35764   3.917   7.691   3.042 -0.9940  1.0408  0.4173
 1006MOL0     H35765   3.893   7.548   3.138  0.4758 -0.7303 -0.4459
 1006MOL0     H35766   3.944   7.551   2.837 -1.1507 -0.8340 -0.4642
 1006MOL0     H35767   3.951   7.409   2.951  0.1703  0.3512 -0.2920
 1006MOL0     H35768   4.129   7.545   3.079  1.0416 -0.8473 -0.2718
 1006MOL0     H35769   4.123   7.661   2.938 -1.1707  0.8128 -1.8613
 1006MOL0     H35770   4.377   7.318   2.807 -0.9192  2.8968 -0.5141
 1006MOL0     H35771   4.630   7.315   2.846  1.3627  1.4145 -0.2107
 1006MOL0     H35772   4.920   7.604   3.311 -1.8148  0.7921  0.3124
 1006MOL0     H35773   5.157   7.605   3.361  2.1440 -0.2053 -0.8054
 1006MOL0     H35774   5.365   7.802   3.233  1.7535  0.8047  1.8457
 1006MOL0     H35775   5.366   7.707   3.377  1.1269  1.8611 -0.2568
 1006MOL0     H35776   5.575   7.761   3.361 -0.9880 -1.3549  1.4422
 1006MOL0     H35777   5.583   7.606   3.293 -5.7588 -2.5051  0.8401
 1006MOL0     H35778   5.555   7.804   3.059 -1.7062  0.2636  0.9374
 1006MOL0     H35779   5.624   7.885   3.200  2.5325 -0.5972  1.5827
 1006MOL0     H35780   5.817   7.743   3.215  2.3927 -0.6663 -1.0357
 1006MOL0     H35781   5.813   7.823   3.067  0.7688 -0.7208  1.0100
 1006MOL0     H35782   5.742   7.630   2.953  0.6484  2.3368  0.0429
 1006MOL0     H35783   5.743   7.533   3.109  1.0470 -1.6311 -0.7935
 1006MOL0     H35784   5.981   7.644   2.956 -0.6384 -0.3122 -0.6439
 1006MOL0     H35785   5.992   7.607   3.132 -3.5412  0.1036  1.8225
 1006MOL0     H35786   5.890   7.418   2.903  1.8961 -1.8887 -0.0476
 1006MOL0     H35787   5.928   7.368   3.063 -0.9154  2.3584  0.7233
 1006MOL0     H35788   6.082   7.305   2.892  2.5986 -0.4617 -0.2295
 1006MOL0     H35789   6.113   7.468   2.841  0.8851 -1.4829 -0.4159
 1006MOL0     H35790   5.253   7.603   2.940  0.6485  2.3952 -0.0082
 1006MOL0     H35791   5.017   7.603   2.887 -0.7011 -2.3125 -1.2185
 1006MOL0     H35792   4.568   7.636   3.117  1.1655  0.5785 -0.5277
 1006MOL0     H35793   4.325   7.596   3.114  0.4779 -4.0152  3.9654
 1006MOL0     H35794   2.584   8.076   2.907 -1.0246 -0.7566 -0.6472
 1006MOL0     H35795   2.352   8.066   2.798 -1.3135 -0.6213  0.8182
 1006MOL0     H35796   1.877   7.923   2.921  2.2541  0.5221 -0.4090
 1006MOL0     H35797   1.670   7.981   2.819  0.8547 -0.0564  0.8452
 1006MOL0     H35798   1.513   8.113   2.692 -0.8950 -0.1668  0.1483
 1006MOL0     H35799   1.503   7.939   2.643 -1.9929 -0.1178  1.6403
 1006MOL0     H35800   1.439   8.065   2.409  0.4245  0.2800  0.4562
 1006MOL0     H35801   1.387   8.189   2.516 -1.1278 -0.9102  1.1177
 1006MOL0     H35802   1.244   8.001   2.641 -2.0842 -0.7468 -0.7572
 1006MOL0     H35803   1.299   7.914   2.501 -0.2420  0.0073  0.2219
 1006MOL0     H35804   1.144   8.168   2.489  0.0119 -0.3260  0.1719
 1006MOL0     H35805   1.176   8.046   2.354 -0.1761  3.0306 -0.8069
 1006MOL0     H35806   0.836   7.867   2.545  0.7396 -0.8598  1.9559
 1006MOL0     H35807   1.882   8.050   2.450  2.0595  1.1786  0.3536
 1006MOL0     H35808   2.131   8.115   2.484  2.8006  1.6134  1.5450
 1006MOL0     H35809   2.214   8.072   2.623  1.0709 -2.9574 -1.2547
 1006MOL0     H35810   2.188   7.942   2.536  0.5849  0.1438  0.1890
 1007MOL0     O35811   9.798   5.376   9.584  0.2452  0.2862 -0.0039
 1007MOL0     C35812   9.709   5.288   9.593 -0.0479 -0.4020  0.7141
 1007MOL0     O35813   9.735   5.163   9.607  0.1796 -0.4585  0.7754
 1007MOL0     C35814   9.869   5.123   9.631  0.7627 -0.6557 -0.3292
 1007MOL0     C35815   9.935   5.062   9.523 -0.9166 -0.1346 -0.1862
 1007MOL0     C35816  10.064   4.996   9.546  0.0337 -0.1498 -0.4726
 1007MOL0     C35817  10.116   5.013   9.679  0.8935  0.3584 -0.8720
 1007MOL0     O35818  10.237   4.940   9.696  0.3575 -0.9839  0.6306
 1007MOL0     C35819  10.294   4.928   9.830  0.8360  0.6132 -0.9474
 1007MOL0     C35820  10.407   4.832   9.833 -0.4093  0.4622 -1.0975
 1007MOL0     C35821  10.539   4.841   9.743 -0.2105 -0.9653 -0.6367
 1007MOL0     C35822  10.601   4.982   9.750 -0.0903 -0.6162 -0.5150
 1007MOL0     C35823  10.740   5.001   9.684 -0.4411 -0.3462  0.1643
 1007MOL0     C35824  10.850   4.923   9.767 -0.0702  0.9435  0.5797
 1007MOL0     C35825  10.991   4.971   9.741  0.0079 -0.8269  0.1279
 1007MOL0     C35826  11.083   4.858   9.781 -0.6399  0.6552  0.8051
 1007MOL0     N35827  11.223   4.887   9.747  0.8834  0.3030 -0.2036
 1007MOL0     C35828  11.290   4.847   9.640  0.8435 -1.0913 -0.1303
 1007MOL0     C35829  11.413   4.889   9.663 -1.3448 -0.1509 -0.6815
 1007MOL0     C35830  11.537   4.851   9.584  0.8185  1.0088  0.1860
 1007MOL0     C35831  11.545   4.910   9.443 -0.3579  0.4799  0.6451
 1007MOL0     C35832  11.694   4.934   9.407 -0.5708 -0.3330 -0.4483
 1007MOL0     C35833  11.795   4.813   9.434 -0.1712 -0.7899 -0.7715
 1007MOL0     O35834  11.915   4.841   9.354  0.7723  0.2792 -0.3422
 1007MOL0     C35835  12.024   4.765   9.379 -0.2241  0.1231 -0.8761
 1007MOL0     C35836  12.138   4.780   9.297  0.0679 -0.7473 -1.0004
 1007MOL0     C35837  12.254   4.713   9.326 -0.0064  0.6185  0.1964
 1007MOL0     C35838  12.267   4.629   9.440 -0.3538  0.4670  0.1798
 1007MOL0     C35839  12.402   4.572   9.460 -0.0196  0.0413 -0.2200
 1007MOL0     O35840  12.407   4.468   9.541 -0.2637  0.4405 -0.1748
 1007MOL0     C35841  12.515   4.438   9.618  0.0518 -0.2272 -1.3718
 1007MOL0     C35842  12.563   4.537   9.710  0.8051 -0.0966 -0.2145
 1007MOL0     C35843  12.679   4.503   9.786  0.1418 -0.1877 -0.3616
 1007MOL0     C35844  12.747   4.383   9.768  0.4754  0.8739  0.5452
 1007MOL0     O35845  12.852   4.336   9.843  0.5709  0.1656 -0.6856
 1007MOL0     C35846  12.955   4.439   9.863 -0.8584 -0.5260 -0.0953
 1007MOL0     C35847  13.098   4.387   9.899  0.3107  0.6459 -0.4086
 1007MOL0     C35848  13.199   4.495   9.890  1.8932  0.8387  0.2614
 1007MOL0     C35849  13.206   4.555   9.750  0.4861  1.0959 -0.3409
 1007MOL0     C35850  13.334   4.643   9.738  0.3544  0.4946 -0.2855
 1007MOL0     C35851  13.354   4.701   9.593 -0.3891 -0.2512  1.0140
 1007MOL0     C35852  13.374   4.586   9.486 -0.2106  0.5219  0.4151
 1007MOL0     C35853  13.506   4.518   9.488  0.5580 -0.1439  0.4448
 1007MOL0    Cl35854  13.519   4.388   9.372 -0.3946 -0.3663  0.1653
 1007MOL0     C35855  12.689   4.290   9.678 -1.0788  1.3347  1.6406
 1007MOL0     C35856  12.578   4.322   9.596 -0.1588 -0.6336 -0.2868
 1007MOL0     O35857  12.500   4.642   9.417  0.3257  0.6803 -0.0922
 1007MOL0     C35858  12.157   4.616   9.521  0.4321  0.5089 -0.0635
 1007MOL0     C35859  12.041   4.683   9.495  0.1546  0.0803 -0.4798
 1007MOL0     N35860  11.424   4.954   9.787 -0.1466  0.0699  0.0451
 1007MOL0     N35861  11.302   4.948   9.831 -0.4187  0.4419 -1.0825
 1007MOL0     C35862  10.054   5.091   9.778 -0.4735  0.0482  0.7565
 1007MOL0     C35863   9.932   5.153   9.749 -0.3833 -0.5604  1.1621
 1007MOL0     C35864   9.555   5.313   9.577  0.0954  0.5844 -0.1431
 1007MOL0     C35865   9.476   5.201   9.562  0.6687  0.0990 -0.1535
 1007MOL0     C35866   9.341   5.224   9.533  0.9968 -0.2772  0.0015
 1007MOL0     C35867   9.281   5.351   9.525 -0.0401  0.0652  0.1426
 1007MOL0     O35868   9.153   5.362   9.477  0.5433  0.0459 -0.2720
 1007MOL0     C35869   9.110   5.483   9.427  0.8633  0.4542  0.2852
 1007MOL0     C35870   8.962   5.479   9.378  0.3004  1.0185 -0.1892
 1007MOL0     C35871   8.878   5.432   9.502  0.3341  0.4308 -0.1627
 1007MOL0     C35872   8.729   5.461   9.476  0.6123 -0.3164  0.5829
 1007MOL0     C35873   8.699   5.602   9.508  0.4079  0.2592  0.6799
 1007MOL0     C35874   8.676   5.716   9.522  0.2195  0.8452  0.6301
 1007MOL0     C35875   9.368   5.465   9.551  1.0142  0.3553 -0.5489
 1007MOL0     C35876   9.504   5.444   9.582 -0.1735  0.4961  0.1244
 1007MOL0     C35877   9.589   5.559   9.630  0.4491  0.2871 -0.0515
 1007MOL0     H35878   9.896   5.064   9.421  1.1094 -0.1941 -1.0110
 1007MOL0     H35879  10.109   4.962   9.453 -0.3793  1.0301 -1.1304
 1007MOL0     H35880  10.326   5.027   9.864 -0.6552 -0.2724  3.6322
 1007MOL0     H35881  10.224   4.880   9.899 -0.2578  1.1729 -1.6345
 1007MOL0     H35882  10.364   4.737   9.800  2.1568 -1.1516 -0.1268
 1007MOL0     H35883  10.435   4.822   9.939  0.0246  3.0730 -0.8930
 1007MOL0     H35884  10.519   4.823   9.637  0.7029  0.6758 -1.1097
 1007MOL0     H35885  10.616   4.774   9.782  1.4332  1.5765  0.7249
 1007MOL0     H35886  10.539   5.051   9.690  0.4404  0.5941  0.2903
 1007MOL0     H35887  10.612   5.014   9.854  1.2858 -0.5531 -0.6616
 1007MOL0     H35888  10.732   4.983   9.577  0.2040  0.1407  0.0232
 1007MOL0     H35889  10.764   5.108   9.691  0.5956 -0.6686  2.5659
 1007MOL0     H35890  10.830   4.936   9.873  2.4039 -2.0640  1.5551
 1007MOL0     H35891  10.838   4.817   9.742 -1.8080  0.7991  1.8772
 1007MOL0     H35892  11.007   5.055   9.810 -0.0205 -0.2255 -0.5858
 1007MOL0     H35893  11.015   4.999   9.639  1.6818 -0.8564  0.4962
 1007MOL0     H35894  11.085   4.835   9.888 -1.9514 -4.7166 -0.0659
 1007MOL0     H35895  11.055   4.764   9.734  1.1683 -0.3604  1.6595
 1007MOL0     H35896  11.247   4.798   9.553 -0.8173  0.6866 -0.3900
 1007MOL0     H35897  11.627   4.874   9.641  0.2397  4.2504  0.0085
 1007MOL0     H35898  11.543   4.743   9.570  1.4769  0.7423  2.1866
 1007MOL0     H35899  11.508   4.846   9.362  3.0332 -0.6054 -0.2068
 1007MOL0     H35900  11.486   5.002   9.433 -1.0153  0.5354  3.7711
 1007MOL0     H35901  11.732   5.014   9.471 -0.1533 -1.7943  1.1905
 1007MOL0     H35902  11.705   4.976   9.306 -0.7591  2.5942  0.6447
 1007MOL0     H35903  11.749   4.717   9.406 -0.9180 -0.6113 -0.1821
 1007MOL0     H35904  11.809   4.817   9.542 -3.5584  0.9958 -0.2499
 1007MOL0     H35905  12.133   4.850   9.214 -3.3006 -0.1658 -0.4780
 1007MOL0     H35906  12.336   4.745   9.262 -1.0377 -0.9951 -2.1087
 1007MOL0     H35907  12.499   4.624   9.723  0.9780  0.0063 -0.0454
 1007MOL0     H35908  12.729   4.559   9.863  0.8547 -1.4874  0.1463
 1007MOL0     H35909  12.954   4.506   9.777 -0.5473  0.1449  0.4106
 1007MOL0     H35910  12.919   4.498   9.949 -3.0704  2.3536 -2.7685
 1007MOL0     H35911  13.082   4.343   9.998 -3.1232  0.2295 -1.0397
 1007MOL0     H35912  13.115   4.310   9.824 -1.7928 -0.0359 -0.2655
 1007MOL0     H35913  13.167   4.570   9.963 -1.9450 -0.0144 -0.3299
 1007MOL0     H35914  13.293   4.453   9.926  1.6695  2.6460  3.3245
 1007MOL0     H35915  13.113   4.604   9.718  1.0978 -0.5973 -5.7951
 1007MOL0     H35916  13.219   4.467   9.686 -1.1483  0.9413 -0.5074
 1007MOL0     H35917  13.424   4.592   9.775 -2.1710 -3.1489  1.3727
 1007MOL0     H35918  13.325   4.730   9.804 -1.8976 -0.0433  0.1930
 1007MOL0     H35919  13.265   4.756   9.564 -0.6281 -1.3326 -0.3934
 1007MOL0     H35920  13.434   4.775   9.598 -2.0780  1.6925  0.3918
 1007MOL0     H35921  13.360   4.624   9.384  2.2822 -1.2271 -0.6739
 1007MOL0     H35922  13.302   4.504   9.485 -0.8741  0.9237 -3.6868
 1007MOL0     H35923  13.586   4.592   9.475 -1.5955  2.0875 -1.1801
 1007MOL0     H35924  13.536   4.484   9.588  0.8585 -1.0088  0.0699
 1007MOL0     H35925  12.736   4.192   9.669 -0.3568  1.6938  1.4934
 1007MOL0     H35926  12.544   4.249   9.523  0.1909 -1.6873  0.5839
 1007MOL0     H35927  12.151   4.553   9.609  0.9730  0.1482 -0.2785
 1007MOL0     H35928  11.967   4.671   9.574  1.6681 -2.0865  0.7154
 1007MOL0     H35929  10.098   5.102   9.876 -3.0223 -1.2576  2.1553
 1007MOL0     H35930   9.892   5.205   9.835 -1.6921 -2.8374  2.0021
 1007MOL0     H35931   9.512   5.099   9.564 -1.4686 -0.7763 -1.6864
 1007MOL0     H35932   9.279   5.139   9.507  0.1890 -0.6458  2.7505
 1007MOL0     H35933   9.175   5.481   9.339  1.9191 -2.2659  1.0077
 1007MOL0     H35934   9.124   5.561   9.503 -2.8484  0.5775  1.0189
 1007MOL0     H35935   8.948   5.405   9.299  0.0669 -1.4878  2.0505
 1007MOL0     H35936   8.933   5.579   9.344 -0.4961  1.5360  1.8773
 1007MOL0     H35937   8.908   5.486   9.593 -4.1125  1.6784  0.7769
 1007MOL0     H35938   8.886   5.325   9.524 -2.3313 -0.1441 -1.6340
 1007MOL0     H35939   8.684   5.424   9.383 -1.7099  2.2213  0.5527
 1007MOL0     H35940   8.685   5.398   9.554  1.9040  2.0002  3.4090
 1007MOL0     H35941   8.640   5.816   9.541 -0.4681  0.6248  0.5379
 1007MOL0     H35942   9.330   5.567   9.552  0.2984  0.0907 -0.2726
 1007MOL0     H35943   9.642   5.550   9.725 -0.9421  3.5994  1.2084
 1007MOL0     H35944   9.667   5.575   9.556 -0.2613  0.9534 -0.6854
 1007MOL0     H35945   9.529   5.651   9.634  0.4238  0.3894 -1.9656
 1008MOL0     O35946  11.064   0.335   2.351  0.4364 -0.2040 -0.1869
 1008MOL0     C35947  11.061   0.441   2.417 -0.6729 -0.4685 -0.8950
 1008MOL0     O35948  11.170   0.501   2.486  0.1997  0.1251 -0.5562
 1008MOL0     C35949  11.287   0.439   2.517  0.0449  0.0762 -0.7277
 1008MOL0     C35950  11.392   0.526   2.549 -1.0785  0.0267 -1.2691
 1008MOL0     C35951  11.520   0.482   2.586 -0.8407 -0.0061 -0.4751
 1008MOL0     C35952  11.542   0.345   2.589  0.3167 -0.2672  0.4578
 1008MOL0     O35953  11.662   0.309   2.633 -0.0439 -0.6469 -0.2899
 1008MOL0     C35954  11.724   0.198   2.576 -0.2929 -0.6644 -0.0714
 1008MOL0     C35955  11.876   0.194   2.591 -0.2874  0.0846 -0.7788
 1008MOL0     C35956  11.944   0.294   2.501  0.1691  0.9900  0.1539
 1008MOL0     C35957  12.075   0.222   2.437 -0.2238  0.2462  0.7228
 1008MOL0     C35958  12.145   0.310   2.332  1.0472  0.8220 -0.1939
 1008MOL0     C35959  12.253   0.234   2.246  0.4058 -0.1441  0.2882
 1008MOL0     C35960  12.244   0.282   2.105  0.0878  0.0022  0.1030
 1008MOL0     C35961  12.133   0.200   2.029 -0.4390 -0.0028 -0.9254
 1008MOL0     N35962  12.109   0.253   1.894  0.2591  0.1908 -0.0386
 1008MOL0     C35963  12.013   0.338   1.860  0.6558 -1.0359  1.2049
 1008MOL0     C35964  12.021   0.359   1.723  0.4006 -0.8907  0.4269
 1008MOL0     C35965  11.936   0.457   1.634 -0.3748  0.3439 -0.0397
 1008MOL0     C35966  11.799   0.397   1.585  0.1597  0.3294  0.4018
 1008MOL0     C35967  11.702   0.376   1.702 -0.8750 -1.1125 -0.3100
 1008MOL0     C35968  11.636   0.502   1.754  1.2017 -1.1980 -0.1650
 1008MOL0     O35969  11.550   0.550   1.646 -0.3672  0.8552  0.3994
 1008MOL0     C35970  11.467   0.651   1.670 -0.0784 -0.2182  1.0045
 1008MOL0     C35971  11.449   0.729   1.787  0.2673 -0.1507  0.3375
 1008MOL0     C35972  11.349   0.828   1.799  0.1117 -0.6721 -0.1041
 1008MOL0     C35973  11.270   0.855   1.681  0.1862  0.3396 -0.1065
 1008MOL0     C35974  11.166   0.948   1.690  0.0468  0.6782  0.4649
 1008MOL0     O35975  11.074   0.940   1.590 -0.4235  0.2146  0.4611
 1008MOL0     C35976  10.969   1.028   1.584 -0.3261  0.5338 -0.2344
 1008MOL0     C35977  10.947   1.094   1.468  0.6515  0.1864  0.0145
 1008MOL0     C35978  10.844   1.179   1.453 -0.5237 -0.0824 -0.2177
 1008MOL0     C35979  10.761   1.211   1.557 -0.6674  0.9627  0.8362
 1008MOL0     O35980  10.653   1.291   1.534 -0.3049  0.2396 -0.7850
 1008MOL0     C35981  10.673   1.410   1.467 -0.3366  0.4200 -0.3059
 1008MOL0     C35982  10.616   1.523   1.561  0.4453  0.3362 -0.5863
 1008MOL0     C35983  10.468   1.523   1.568  0.8228 -1.0071 -0.5230
 1008MOL0     C35984  10.434   1.659   1.649 -0.9262  0.7659  0.0515
 1008MOL0     C35985  10.297   1.660   1.708 -0.5920  0.0449  0.5358
 1008MOL0     C35986  10.178   1.636   1.612  0.4528 -0.4749  1.0622
 1008MOL0     C35987  10.128   1.771   1.551 -0.6635  0.0800 -0.0053
 1008MOL0     C35988  10.037   1.754   1.429  0.0631  0.7607 -0.0855
 1008MOL0    Cl35989   9.890   1.655   1.458  0.0791 -0.2937 -0.3129
 1008MOL0     C35990  10.778   1.145   1.685 -0.6345  1.0381 -1.0649
 1008MOL0     C35991  10.871   1.039   1.687 -0.3031  0.1580 -0.8214
 1008MOL0     O35992  11.157   1.025   1.785 -0.8634 -0.0383  0.0268
 1008MOL0     C35993  11.298   0.785   1.566 -0.4102  0.1373  0.4246
 1008MOL0     C35994  11.390   0.686   1.555 -0.4332 -0.0455 -0.1591
 1008MOL0     N35995  12.120   0.268   1.678  0.1526 -0.1617 -0.1644
 1008MOL0     N35996  12.177   0.213   1.783  0.4645 -0.8241  0.3147
 1008MOL0     C35997  11.442   0.254   2.550 -0.3937  0.2978  0.3005
 1008MOL0     C35998  11.309   0.301   2.527 -0.0910  0.1318 -0.3705
 1008MOL0     C35999  10.946   0.541   2.401 -0.5741 -0.3633 -0.5838
 1008MOL0     C36000  10.927   0.633   2.508 -0.3471 -0.6659 -0.7390
 1008MOL0     C36001  10.823   0.728   2.496 -0.4962  1.2910  0.1802
 1008MOL0     C36002  10.734   0.719   2.391  0.1568 -0.1831  0.2420
 1008MOL0     O36003  10.639   0.811   2.377 -0.0927 -0.3283  0.1691
 1008MOL0     C36004  10.686   0.942   2.389 -0.8649  1.0578  0.2876
 1008MOL0     C36005  10.591   1.031   2.308  0.3331  0.4546  1.1547
 1008MOL0     C36006  10.446   1.023   2.360 -0.5258  0.0259 -0.3458
 1008MOL0     C36007  10.436   1.084   2.505  0.2396 -0.4718 -0.2590
 1008MOL0     C36008  10.294   1.085   2.555  0.2967 -0.6708 -0.3572
 1008MOL0     C36009  10.178   1.094   2.598  0.1321 -0.6554  0.1143
 1008MOL0     C36010  10.754   0.627   2.291 -0.2387 -0.8233 -0.1445
 1008MOL0     C36011  10.865   0.544   2.286  0.8356  1.2996 -0.7776
 1008MOL0     C36012  10.878   0.449   2.175 -0.0958 -0.7203  0.8091
 1008MOL0     H36013  11.366   0.631   2.561 -0.6680  0.0122 -0.0859
 1008MOL0     H36014  11.599   0.555   2.600 -1.8895  1.5865 -2.3567
 1008MOL0     H36015  11.690   0.106   2.623  0.2769 -0.3652  0.9514
 1008MOL0     H36016  11.697   0.192   2.470 -0.2323  0.0190 -0.1331
 1008MOL0     H36017  11.912   0.091   2.576  2.0119 -0.0423  3.9177
 1008MOL0     H36018  11.898   0.214   2.696 -1.6842  1.3357 -0.6976
 1008MOL0     H36019  11.977   0.374   2.567 -2.0516  0.2784  2.2756
 1008MOL0     H36020  11.879   0.325   2.419 -3.5170  0.0066  2.4461
 1008MOL0     H36021  12.152   0.209   2.513 -0.0355 -0.7092  0.3820
 1008MOL0     H36022  12.052   0.125   2.390  2.1389  0.4728 -1.0713
 1008MOL0     H36023  12.064   0.351   2.270  0.7008  1.8581  0.8928
 1008MOL0     H36024  12.205   0.388   2.380  1.4390  1.3480 -1.4872
 1008MOL0     H36025  12.351   0.262   2.285  0.0134  3.3305 -0.8813
 1008MOL0     H36026  12.238   0.128   2.265 -2.2905  0.4367  1.9834
 1008MOL0     H36027  12.339   0.268   2.054  1.4458 -1.6065  2.8622
 1008MOL0     H36028  12.220   0.389   2.106 -3.2040 -0.6052 -0.3948
 1008MOL0     H36029  12.178   0.101   2.017  2.1778  1.2225 -1.9360
 1008MOL0     H36030  12.049   0.222   2.095  0.2111  2.5121 -0.8306
 1008MOL0     H36031  11.952   0.387   1.935  0.3863 -1.3869  1.2201
 1008MOL0     H36032  11.927   0.551   1.689 -3.0087  0.1026  0.1008
 1008MOL0     H36033  12.003   0.491   1.555  0.6007  2.0204  1.4180
 1008MOL0     H36034  11.751   0.460   1.509 -1.3547 -2.8999 -1.4878
 1008MOL0     H36035  11.807   0.300   1.536 -1.6840  0.6502 -0.6223
 1008MOL0     H36036  11.749   0.335   1.792 -2.4136 -0.1484  0.9766
 1008MOL0     H36037  11.626   0.304   1.670 -0.3229 -2.8557  2.0151
 1008MOL0     H36038  11.710   0.576   1.784  1.9679 -0.7084 -2.9978
 1008MOL0     H36039  11.581   0.478   1.846  0.0917  0.9547 -0.1855
 1008MOL0     H36040  11.511   0.700   1.871 -0.0115 -3.5117 -0.5070
 1008MOL0     H36041  11.316   0.877   1.890 -0.4144  2.3453 -1.7763
 1008MOL0     H36042  11.015   1.075   1.386  1.6451  0.1343  0.8263
 1008MOL0     H36043  10.831   1.226   1.356  0.3164  1.4947  0.3884
 1008MOL0     H36044  10.778   1.439   1.458 -0.8535  2.5270 -0.2048
 1008MOL0     H36045  10.619   1.424   1.373 -1.4805  1.3383  0.4658
 1008MOL0     H36046  10.654   1.509   1.663  0.1175 -0.4558 -0.5638
 1008MOL0     H36047  10.647   1.622   1.527 -4.3808  1.8971 -1.2776
 1008MOL0     H36048  10.424   1.540   1.470 -0.0693 -1.4704 -0.2183
 1008MOL0     H36049  10.424   1.430   1.606  2.3444 -1.3182  0.6191
 1008MOL0     H36050  10.428   1.742   1.577 -1.1553  0.6882 -0.0200
 1008MOL0     H36051  10.515   1.678   1.720  0.4561  0.6375 -1.4411
 1008MOL0     H36052  10.271   1.754   1.757 -3.1226 -1.0917  1.5574
 1008MOL0     H36053  10.298   1.584   1.787  1.8576 -0.4676  0.0790
 1008MOL0     H36054  10.189   1.557   1.537 -0.3394  0.4607 -0.0713
 1008MOL0     H36055  10.095   1.597   1.671 -0.2043 -1.4898 -0.4827
 1008MOL0     H36056  10.221   1.822   1.524  1.2738 -3.8771 -1.6409
 1008MOL0     H36057  10.067   1.830   1.620 -3.0123 -1.5235 -0.5802
 1008MOL0     H36058  10.000   1.854   1.404 -0.8475  0.3593 -0.4199
 1008MOL0     H36059  10.093   1.715   1.344 -0.1393  1.6885 -0.6504
 1008MOL0     H36060  10.711   1.172   1.767 -1.4124  4.0056 -2.5496
 1008MOL0     H36061  10.893   0.971   1.769  1.5816  1.3956 -0.2520
 1008MOL0     H36062  11.238   0.801   1.477  0.3854 -0.9794 -0.3382
 1008MOL0     H36063  11.403   0.638   1.459  1.2894 -2.7765  1.3034
 1008MOL0     H36064  11.460   0.147   2.540  3.0996  0.9147 -1.7394
 1008MOL0     H36065  11.223   0.236   2.514 -2.0057  1.6235  3.1531
 1008MOL0     H36066  10.980   0.633   2.603 -2.4291  1.0401  0.5008
 1008MOL0     H36067  10.819   0.808   2.568  2.1686  2.0722 -0.4203
 1008MOL0     H36068  10.780   0.960   2.335 -1.6865  4.3436 -0.2253
 1008MOL0     H36069  10.702   0.968   2.494  0.0452 -0.7329  0.6293
 1008MOL0     H36070  10.604   0.994   2.206 -0.4056  0.9016  0.8876
 1008MOL0     H36071  10.617   1.137   2.311  1.3741  0.3334 -1.4869
 1008MOL0     H36072  10.410   0.920   2.367 -1.1302  0.1017 -2.0174
 1008MOL0     H36073  10.388   1.090   2.296 -0.9161  1.5259  1.4775
 1008MOL0     H36074  10.494   1.019   2.572  0.1052 -0.7745 -0.4329
 1008MOL0     H36075  10.474   1.186   2.508  0.4801 -0.5576  2.3157
 1008MOL0     H36076  10.077   1.109   2.629  0.4728 -1.3809  1.6559
 1008MOL0     H36077  10.687   0.631   2.206  1.4621  0.6128 -1.4831
 1008MOL0     H36078  10.979   0.461   2.135 -0.7287  2.2223 -0.1086
 1008MOL0     H36079  10.869   0.347   2.214  1.5022 -1.2406 -0.0691
 1008MOL0     H36080  10.807   0.468   2.094  1.8866  2.9535 -0.3068
 1009MOL0     O36081   4.760   4.284   8.152  0.4134 -0.3679 -0.4389
 1009MOL0     C36082   4.707   4.371   8.086 -0.2349 -0.5567  0.3386
 1009MOL0     O36083   4.776   4.461   8.009 -0.4062  0.6096 -0.3080
 1009MOL0     C36084   4.906   4.437   7.987 -0.0838 -0.8385 -0.3656
 1009MOL0     C36085   5.007   4.516   8.048  0.1815 -0.1017 -1.1026
 1009MOL0     C36086   5.137   4.491   8.019 -0.4966 -0.6043 -0.3990
 1009MOL0     C36087   5.177   4.390   7.935 -1.0468  0.3117 -0.6265
 1009MOL0     O36088   5.314   4.378   7.920  0.1309  0.7047  0.4935
 1009MOL0     C36089   5.385   4.316   8.029 -0.4939 -0.5221  0.8315
 1009MOL0     C36090   5.524   4.284   7.979 -0.4915  0.7256  0.7564
 1009MOL0     C36091   5.617   4.408   7.978  0.5020 -0.2804  0.1897
 1009MOL0     C36092   5.727   4.381   7.874 -0.9127 -0.1727  0.3751
 1009MOL0     C36093   5.861   4.462   7.916  0.8382 -0.5035  0.6200
 1009MOL0     C36094   5.923   4.413   8.039 -0.0975  0.0341 -0.1164
 1009MOL0     C36095   6.080   4.438   8.056 -0.1807  0.5700  0.3942
 1009MOL0     C36096   6.166   4.363   7.939 -0.3427  0.6328 -0.5500
 1009MOL0     N36097   6.305   4.391   7.988 -0.2870  1.2610 -0.1229
 1009MOL0     C36098   6.364   4.515   8.015 -0.2503  0.3836 -0.3111
 1009MOL0     C36099   6.479   4.482   8.078 -0.0220  0.2240  1.1310
 1009MOL0     C36100   6.575   4.589   8.115  0.1278  0.1349  0.0335
 1009MOL0     C36101   6.719   4.530   8.098 -1.1117  0.0270  0.2458
 1009MOL0     C36102   6.755   4.475   7.957  0.7188 -0.0418  0.2140
 1009MOL0     C36103   6.905   4.485   7.923  0.4171 -0.3075 -0.4106
 1009MOL0     O36104   6.984   4.416   8.021  0.0072  0.4611 -0.1751
 1009MOL0     C36105   7.097   4.475   8.065 -0.8900 -0.2018  0.3062
 1009MOL0     C36106   7.212   4.477   7.992 -0.9873  0.3911  0.0804
 1009MOL0     C36107   7.332   4.547   8.035  0.4460  0.3872  0.6251
 1009MOL0     C36108   7.328   4.620   8.149  0.4053  0.3363  0.2754
 1009MOL0     C36109   7.451   4.690   8.194 -0.4005 -0.3974  0.3079
 1009MOL0     O36110   7.555   4.697   8.100  0.0849 -0.4425  0.1015
 1009MOL0     C36111   7.662   4.783   8.125 -0.1436  0.4636 -0.7587
 1009MOL0     C36112   7.651   4.919   8.083 -0.5731 -0.4208  0.4335
 1009MOL0     C36113   7.748   5.014   8.115 -0.1274 -0.3862  0.2417
 1009MOL0     C36114   7.878   4.975   8.164 -0.1577  0.3111 -0.0332
 1009MOL0     O36115   7.983   5.060   8.188 -0.7740 -0.0576 -0.4101
 1009MOL0     C36116   7.966   5.185   8.125 -0.5737  0.1579  0.2575
 1009MOL0     C36117   8.083   5.266   8.160 -0.6822  0.0864 -0.4629
 1009MOL0     C36118   8.224   5.217   8.115 -0.0755  0.1478  0.3540
 1009MOL0     C36119   8.332   5.325   8.076 -0.2826 -0.0931  0.2023
 1009MOL0     C36120   8.473   5.272   8.066 -0.4444  0.0822 -0.2095
 1009MOL0     C36121   8.573   5.381   8.016 -0.4214  0.4590 -0.4933
 1009MOL0     C36122   8.717   5.332   8.021 -0.3420 -0.3353 -0.2767
 1009MOL0     C36123   8.756   5.325   8.165  0.6327  0.6130 -1.4310
 1009MOL0    Cl36124   8.735   5.486   8.264  0.0218  0.0056  0.0435
 1009MOL0     C36125   7.878   4.849   8.213 -0.6113  0.3349 -1.1626
 1009MOL0     C36126   7.781   4.749   8.196 -0.9266 -1.0530 -0.1090
 1009MOL0     O36127   7.448   4.758   8.295  0.0498 -0.4905  0.0708
 1009MOL0     C36128   7.212   4.631   8.227 -0.1939  0.5258  0.2501
 1009MOL0     C36129   7.100   4.561   8.181 -0.4893  0.9297  0.0167
 1009MOL0     N36130   6.488   4.345   8.063  0.0722 -0.1949 -0.4146
 1009MOL0     N36131   6.385   4.290   8.017 -0.4013 -0.4472  0.0002
 1009MOL0     C36132   5.076   4.317   7.876  0.7779  0.5456  0.1970
 1009MOL0     C36133   4.944   4.336   7.900 -0.8035 -0.3855 -0.2767
 1009MOL0     C36134   4.563   4.389   8.100 -0.3113  0.5394  0.1338
 1009MOL0     C36135   4.508   4.516   8.079  0.7073  1.0983 -0.4609
 1009MOL0     C36136   4.376   4.543   8.101  0.7118 -1.0014 -0.0366
 1009MOL0     C36137   4.285   4.442   8.139 -1.0401 -0.1340 -0.2840
 1009MOL0     O36138   4.158   4.480   8.172  0.6960  0.6001  0.5100
 1009MOL0     C36139   4.058   4.382   8.199 -0.1543 -0.4515 -0.4176
 1009MOL0     C36140   3.918   4.449   8.192  0.8005  0.0987  0.9805
 1009MOL0     C36141   3.808   4.352   8.159 -0.5924  0.3643  0.1879
 1009MOL0     C36142   3.672   4.413   8.146 -0.0810 -1.0053 -1.4702
 1009MOL0     C36143   3.563   4.317   8.124  0.7154 -0.0775  1.4175
 1009MOL0     C36144   3.475   4.253   8.068 -1.0521 -0.4136  0.5196
 1009MOL0     C36145   4.335   4.311   8.153  0.6653 -0.8990  0.3598
 1009MOL0     C36146   4.470   4.285   8.133 -0.3011 -0.1967  1.0208
 1009MOL0     C36147   4.513   4.138   8.141  0.7076 -0.6440  0.5838
 1009MOL0     H36148   4.984   4.606   8.105  0.0698 -0.2391 -0.9281
 1009MOL0     H36149   5.212   4.563   8.051 -1.0554  1.6464 -3.6244
 1009MOL0     H36150   5.387   4.381   8.117  1.1818 -0.8403  1.0495
 1009MOL0     H36151   5.324   4.230   8.060 -1.9131  0.6264  1.3525
 1009MOL0     H36152   5.525   4.249   7.876 -1.0071 -0.7444  1.2335
 1009MOL0     H36153   5.567   4.211   8.048 -0.4104 -0.6484 -0.6995
 1009MOL0     H36154   5.644   4.411   8.083  0.2926  0.5984  0.2286
 1009MOL0     H36155   5.558   4.496   7.948  1.7831  1.7181  3.1517
 1009MOL0     H36156   5.741   4.272   7.874 -0.4586 -0.2386 -3.5156
 1009MOL0     H36157   5.697   4.402   7.771 -2.2445  1.4869  1.0582
 1009MOL0     H36158   5.937   4.446   7.838  1.4583  2.8550  0.4038
 1009MOL0     H36159   5.842   4.569   7.928 -1.6335 -0.4714 -2.2639
 1009MOL0     H36160   5.861   4.453   8.120 -1.0450 -1.7463  0.0699
 1009MOL0     H36161   5.909   4.305   8.051  4.8605 -0.6459  1.7313
 1009MOL0     H36162   6.120   4.395   8.149 -0.6327  0.8133  0.7044
 1009MOL0     H36163   6.082   4.547   8.054 -1.2438  0.6195  1.1099
 1009MOL0     H36164   6.150   4.255   7.933  1.4996  0.2094  0.9447
 1009MOL0     H36165   6.151   4.420   7.847  0.1548  1.8004  0.0624
 1009MOL0     H36166   6.334   4.619   8.001 -1.4165  0.1315  0.1921
 1009MOL0     H36167   6.567   4.667   8.038  0.9853 -0.4270 -0.6607
 1009MOL0     H36168   6.568   4.634   8.214  1.4738  0.7684 -0.1298
 1009MOL0     H36169   6.799   4.596   8.132 -0.0047 -2.9471  4.0596
 1009MOL0     H36170   6.731   4.440   8.158 -2.2495 -2.8120 -3.4166
 1009MOL0     H36171   6.701   4.547   7.894  1.9988  0.7485 -0.0288
 1009MOL0     H36172   6.721   4.372   7.943 -0.4589 -0.0040  2.4565
 1009MOL0     H36173   6.932   4.590   7.909 -0.6563 -0.0640 -0.7406
 1009MOL0     H36174   6.926   4.439   7.825  1.6152 -1.9635  0.5722
 1009MOL0     H36175   7.223   4.417   7.903  1.6263  1.0212 -0.0916
 1009MOL0     H36176   7.421   4.542   7.974 -0.6597  0.5614 -1.0616
 1009MOL0     H36177   7.564   4.950   8.026 -0.2889  0.5208  0.4876
 1009MOL0     H36178   7.720   5.113   8.081  0.0416 -1.1713 -2.4234
 1009MOL0     H36179   7.947   5.181   8.017 -2.8963 -0.5460  0.6426
 1009MOL0     H36180   7.879   5.230   8.174 -1.9367  0.7233 -2.4594
 1009MOL0     H36181   8.077   5.366   8.116  0.7269  0.7173  0.6918
 1009MOL0     H36182   8.083   5.272   8.270  0.4390 -1.1561 -0.3665
 1009MOL0     H36183   8.267   5.152   8.192  0.6730 -1.8628 -1.6668
 1009MOL0     H36184   8.204   5.155   8.027 -0.9792 -1.9043  1.9136
 1009MOL0     H36185   8.320   5.406   8.147 -0.3237  3.1632 -3.2072
 1009MOL0     H36186   8.307   5.379   7.984  0.2137  3.9429  2.2369
 1009MOL0     H36187   8.474   5.184   8.001  0.2075 -1.9803  2.4132
 1009MOL0     H36188   8.501   5.252   8.170  0.5111  1.4018 -0.1992
 1009MOL0     H36189   8.544   5.405   7.913  2.0749 -0.1553 -1.4019
 1009MOL0     H36190   8.564   5.472   8.075 -0.4806  1.2623 -1.7059
 1009MOL0     H36191   8.788   5.406   7.981  1.1830 -1.7457 -0.3151
 1009MOL0     H36192   8.738   5.244   7.960  1.5892  0.0916 -0.3009
 1009MOL0     H36193   8.707   5.239   8.212 -1.8219  2.4232 -0.4943
 1009MOL0     H36194   8.861   5.295   8.160  0.1145 -1.3942 -1.1299
 1009MOL0     H36195   7.965   4.822   8.273 -0.7920  0.4473 -0.8478
 1009MOL0     H36196   7.784   4.646   8.233 -3.1041 -0.5713  1.6762
 1009MOL0     H36197   7.206   4.690   8.318  0.7941  3.1699 -1.3063
 1009MOL0     H36198   7.007   4.575   8.235  1.3099  4.0385  2.6698
 1009MOL0     H36199   5.112   4.237   7.811 -0.9595  0.0311 -0.2036
 1009MOL0     H36200   4.879   4.271   7.842 -1.5742  0.3010 -0.2059
 1009MOL0     H36201   4.577   4.590   8.040  1.9073  1.0664  1.4854
 1009MOL0     H36202   4.327   4.640   8.094  0.5099 -1.2274 -2.9332
 1009MOL0     H36203   4.066   4.342   8.300  1.7742  1.8282  0.4178
 1009MOL0     H36204   4.068   4.300   8.128  2.6731 -0.6425  0.0964
 1009MOL0     H36205   3.923   4.524   8.113  1.1414  1.7421  2.4996
 1009MOL0     H36206   3.892   4.504   8.283  0.0489 -0.1040  0.8966
 1009MOL0     H36207   3.801   4.275   8.237 -2.1080 -0.4588 -0.7127
 1009MOL0     H36208   3.823   4.284   8.075  1.7729  0.1757  0.6777
 1009MOL0     H36209   3.647   4.460   8.241 -1.7848 -1.3665 -1.7011
 1009MOL0     H36210   3.675   4.484   8.063  2.4682  0.5415 -0.1645
 1009MOL0     H36211   3.390   4.209   8.019 -3.4079  5.9345 -2.1564
 1009MOL0     H36212   4.267   4.233   8.186  0.2129  0.2377  2.3060
 1009MOL0     H36213   4.436   4.063   8.117  1.1986 -0.7172 -0.8938
 1009MOL0     H36214   4.583   4.130   8.057 -0.9720  1.3192 -1.1004
 1009MOL0     H36215   4.556   4.103   8.235  1.5719 -1.4542 -0.0795
 1010MOL0     O36216   1.159   7.977  10.871  0.4222  1.1757 -0.3745
 1010MOL0     C36217   1.164   8.100  10.886  0.2818 -0.0378  0.0170
 1010MOL0     O36218   1.285   8.173  10.885  0.4585  0.2003  0.2475
 1010MOL0     C36219   1.399   8.095  10.865 -0.3897  0.1145 -0.2261
 1010MOL0     C36220   1.477   8.088  10.975 -0.8829 -0.6571  0.5498
 1010MOL0     C36221   1.603   8.026  10.960  0.4721  0.1639 -0.5789
 1010MOL0     C36222   1.636   7.961  10.842 -1.1090  1.2554  0.3146
 1010MOL0     O36223   1.761   7.903  10.840 -0.1092  0.7760  0.1301
 1010MOL0     C36224   1.820   7.835  10.731  0.0597 -0.0886  0.2260
 1010MOL0     C36225   1.950   7.771  10.764 -0.7293  0.6806 -0.2272
 1010MOL0     C36226   2.004   7.702  10.646  0.3100  0.3607 -0.4458
 1010MOL0     C36227   2.148   7.645  10.669 -0.3831  0.7331 -0.0867
 1010MOL0     C36228   2.208   7.553  10.546  0.6798 -0.0524  0.5796
 1010MOL0     C36229   2.328   7.475  10.590  0.2881 -0.0141 -0.4163
 1010MOL0     C36230   2.321   7.342  10.506  0.2496 -0.0241  0.0244
 1010MOL0     C36231   2.438   7.240  10.540  0.5839 -0.2911  0.3467
 1010MOL0     N36232   2.562   7.305  10.492  0.7196 -0.2521  0.4175
 1010MOL0     C36233   2.591   7.360  10.367 -0.0895  0.0494 -0.1016
 1010MOL0     C36234   2.706   7.436  10.384 -0.2667  0.4235 -0.4155
 1010MOL0     C36235   2.768   7.522  10.278 -0.2317  0.9514  0.0802
 1010MOL0     C36236   2.916   7.491  10.262  0.0211  0.6234 -0.8486
 1010MOL0     C36237   3.001   7.592  10.186  0.0982  0.2084 -0.3117
 1010MOL0     C36238   3.147   7.547  10.182 -0.0424  0.3812  0.8579
 1010MOL0     O36239   3.212   7.586  10.303  0.1751 -0.1335 -0.8185
 1010MOL0     C36240   3.349   7.571  10.302 -0.6979 -0.1315  0.6805
 1010MOL0     C36241   3.409   7.448  10.305  0.0045 -0.5308 -0.5330
 1010MOL0     C36242   3.547   7.434  10.307  0.4232 -0.3660 -0.3890
 1010MOL0     C36243   3.625   7.547  10.308  0.0131  0.7245  0.1577
 1010MOL0     C36244   3.775   7.538  10.309 -0.0641  0.3507 -0.3519
 1010MOL0     O36245   3.828   7.644  10.379  0.3247 -0.3170 -1.0772
 1010MOL0     C36246   3.954   7.654  10.414 -0.7740 -0.2753 -0.3566
 1010MOL0     C36247   4.059   7.614  10.337  0.0162 -1.0551 -0.1660
 1010MOL0     C36248   4.189   7.605  10.398 -0.4850  0.5050  0.2652
 1010MOL0     C36249   4.210   7.629  10.531  0.4441 -1.4393  0.0587
 1010MOL0     O36250   4.341   7.631  10.579  0.5968  0.2442  0.1705
 1010MOL0     C36251   4.360   7.641  10.720 -0.1747  0.1976  0.3588
 1010MOL0     C36252   4.507   7.640  10.754  0.1497  0.3479  0.1432
 1010MOL0     C36253   4.587   7.529  10.672 -0.0919  0.3228  0.5342
 1010MOL0     C36254   4.731   7.500  10.708  0.2573  0.3956 -0.5903
 1010MOL0     C36255   4.773   7.372  10.619  0.0871  0.0973 -0.2732
 1010MOL0     C36256   4.912   7.321  10.633 -0.9308 -0.5453 -0.4882
 1010MOL0     C36257   4.920   7.177  10.585  0.2288  0.7757  0.2658
 1010MOL0     C36258   5.059   7.132  10.537  0.3600 -0.1747  0.3150
 1010MOL0    Cl36259   5.189   7.198  10.641 -0.5168  0.3764 -0.4999
 1010MOL0     C36260   4.100   7.683  10.602  0.0730  0.6332 -0.0752
 1010MOL0     C36261   3.980   7.696  10.543  0.1109 -1.1608  0.6001
 1010MOL0     O36262   3.831   7.431  10.281 -1.0029  0.9559 -0.7050
 1010MOL0     C36263   3.568   7.673  10.303  0.2953 -0.0901 -0.2746
 1010MOL0     C36264   3.434   7.689  10.296  0.0793 -0.3099  0.0274
 1010MOL0     N36265   2.741   7.410  10.513 -1.0667  0.3042 -0.4730
 1010MOL0     N36266   2.662   7.333  10.575 -0.1518  0.2942  0.4246
 1010MOL0     C36267   1.538   7.947  10.743 -0.1714  0.4215  0.1830
 1010MOL0     C36268   1.417   8.021  10.758 -0.5496 -0.0299  0.0194
 1010MOL0     C36269   1.037   8.183  10.891  0.2173 -0.1738  0.5877
 1010MOL0     C36270   1.058   8.321  10.869  0.1184  0.1748  0.2791
 1010MOL0     C36271   0.952   8.406  10.880  0.2974 -0.0044  0.1809
 1010MOL0     C36272   0.821   8.354  10.887  1.0818 -0.2089  1.2600
 1010MOL0     O36273   0.723   8.446  10.879  0.6246  0.0772  0.1236
 1010MOL0     C36274   0.588   8.416  10.918 -0.8137 -0.0623  0.1771
 1010MOL0     C36275   0.491   8.529  10.895  0.0561 -0.7007 -0.1181
 1010MOL0     C36276   0.538   8.662  10.967 -0.7648  0.5213  0.6319
 1010MOL0     C36277   0.421   8.767  10.955 -0.3904 -0.2290 -1.3135
 1010MOL0     C36278   0.458   8.883  11.025  0.0029  0.2196 -0.9025
 1010MOL0     C36279   0.491   8.975  11.106  1.1945 -0.2332 -0.1989
 1010MOL0     C36280   0.801   8.217  10.903 -0.0835 -0.5745 -0.0227
 1010MOL0     C36281   0.911   8.129  10.910  0.0470 -0.0001  0.3806
 1010MOL0     C36282   0.884   7.979  10.911  0.6704  0.3454  1.4922
 1010MOL0     H36283   1.447   8.136  11.067 -1.1188  0.9567 -0.3458
 1010MOL0     H36284   1.674   8.041  11.041 -1.2876 -1.9741  1.5167
 1010MOL0     H36285   1.747   7.758  10.706 -1.4610  1.2446  0.4203
 1010MOL0     H36286   1.841   7.900  10.645 -1.2090 -1.6770 -1.3500
 1010MOL0     H36287   1.944   7.701  10.848  2.1989 -0.0446 -0.5127
 1010MOL0     H36288   2.027   7.843  10.794  1.4063 -1.4789 -0.2117
 1010MOL0     H36289   2.004   7.760  10.554  0.7436 -0.0040 -0.6787
 1010MOL0     H36290   1.942   7.612  10.640  1.8487 -0.8546  0.8726
 1010MOL0     H36291   2.214   7.733  10.668  0.0215  0.4380 -1.3645
 1010MOL0     H36292   2.159   7.592  10.764 -1.1112  1.7078  0.5606
 1010MOL0     H36293   2.121   7.491  10.524 -1.1425  2.2265  0.8856
 1010MOL0     H36294   2.243   7.613  10.461  2.7299 -2.6072 -0.5142
 1010MOL0     H36295   2.426   7.524  10.582 -0.5627  1.8644  0.0849
 1010MOL0     H36296   2.306   7.452  10.694 -1.7455 -0.8926 -0.9838
 1010MOL0     H36297   2.311   7.360  10.398 -0.7443 -2.7164 -0.4152
 1010MOL0     H36298   2.224   7.298  10.531  0.4953 -0.9990 -0.6608
 1010MOL0     H36299   2.444   7.221  10.648  0.2755 -1.5066  0.1666
 1010MOL0     H36300   2.423   7.144  10.490  1.2082  0.6324 -1.7183
 1010MOL0     H36301   2.526   7.361  10.280  0.2958 -0.4817 -0.4000
 1010MOL0     H36302   2.709   7.510  10.187  1.4575  1.2908 -1.0957
 1010MOL0     H36303   2.755   7.620  10.326 -2.2348 -0.7594  3.4515
 1010MOL0     H36304   2.955   7.487  10.364 -2.3863  0.7722  0.1305
 1010MOL0     H36305   2.923   7.397  10.207 -0.8129  0.3148 -0.4393
 1010MOL0     H36306   3.004   7.688  10.237 -1.7623 -0.9048  2.1316
 1010MOL0     H36307   2.974   7.610  10.081  4.1479 -1.0068 -1.7575
 1010MOL0     H36308   3.192   7.587  10.091 -1.1860 -0.5603 -0.1562
 1010MOL0     H36309   3.155   7.438  10.176  0.7359  0.5133 -1.1272
 1010MOL0     H36310   3.345   7.361  10.291 -0.0599 -0.6649  0.4952
 1010MOL0     H36311   3.593   7.337  10.290  1.6873  0.1199  0.1703
 1010MOL0     H36312   4.038   7.582  10.235  0.4200 -0.2998 -0.4967
 1010MOL0     H36313   4.274   7.565  10.343  0.7065  0.8754  1.7458
 1010MOL0     H36314   4.326   7.738  10.757 -0.8784  0.6262 -1.3118
 1010MOL0     H36315   4.321   7.553  10.772 -0.4682 -1.1393 -1.9438
 1010MOL0     H36316   4.549   7.740  10.735 -0.6594  1.1192  2.1292
 1010MOL0     H36317   4.527   7.632  10.862 -1.2192  0.7926  0.4448
 1010MOL0     H36318   4.534   7.437  10.698 -1.5848  0.8437 -0.5386
 1010MOL0     H36319   4.568   7.556  10.568 -1.7203 -0.4846  0.5800
 1010MOL0     H36320   4.744   7.472  10.812  2.6584 -1.5409 -1.3104
 1010MOL0     H36321   4.791   7.591  10.703 -0.6857  1.2620  2.1783
 1010MOL0     H36322   4.754   7.394  10.513 -1.6642 -0.2074 -0.0539
 1010MOL0     H36323   4.704   7.291  10.643  0.0887  0.0897 -0.2946
 1010MOL0     H36324   4.981   7.384  10.577  0.5641 -0.8095  0.9840
 1010MOL0     H36325   4.937   7.334  10.739 -0.8804  2.5589 -0.7750
 1010MOL0     H36326   4.848   7.161  10.504 -0.1004  0.9298  0.5246
 1010MOL0     H36327   4.892   7.105  10.663  0.0534  1.3043  0.6992
 1010MOL0     H36328   5.050   7.023  10.542 -3.4962  0.0579  1.7688
 1010MOL0     H36329   5.064   7.170  10.434 -2.8455 -1.2256 -0.3380
 1010MOL0     H36330   4.114   7.716  10.704  1.0228 -0.4780  0.1795
 1010MOL0     H36331   3.892   7.724  10.600 -0.2570 -3.4383  1.2849
 1010MOL0     H36332   3.634   7.757  10.319  2.3478 -1.9226  1.5444
 1010MOL0     H36333   3.401   7.792  10.299  0.0752 -0.2143 -2.0569
 1010MOL0     H36334   1.559   7.890  10.653 -3.3211 -0.7138  0.0465
 1010MOL0     H36335   1.342   8.028  10.680 -1.5360  2.5957  1.0958
 1010MOL0     H36336   1.161   8.352  10.851  1.0630 -2.4272  0.7936
 1010MOL0     H36337   0.955   8.512  10.858  0.7185  0.1446  0.9338
 1010MOL0     H36338   0.590   8.375  11.020  0.7341 -3.5828 -1.1098
 1010MOL0     H36339   0.559   8.327  10.862  1.9860 -1.3506  0.6025
 1010MOL0     H36340   0.404   8.492  10.950  0.7094 -2.7183 -0.3913
 1010MOL0     H36341   0.458   8.545  10.792 -2.5373  0.4371  0.7915
 1010MOL0     H36342   0.624   8.696  10.909 -1.8839  2.0820 -0.2057
 1010MOL0     H36343   0.568   8.645  11.071  0.2043  2.8329  0.7705
 1010MOL0     H36344   0.391   8.769  10.850 -3.6623 -0.2000 -0.4907
 1010MOL0     H36345   0.339   8.720  11.011 -0.2148  1.8594  0.8713
 1010MOL0     H36346   0.530   9.054  11.168  3.0110  0.0413 -1.5960
 1010MOL0     H36347   0.703   8.171  10.910 -0.9154  0.7161 -2.4355
 1010MOL0     H36348   0.788   7.947  10.951  0.3198 -1.1423 -0.3764
 1010MOL0     H36349   0.903   7.934  10.813 -0.5570  3.6462 -0.4282
 1010MOL0     H36350   0.952   7.927  10.979 -0.3203 -2.2784  0.6227
 1011MOL0     O36351   4.123   5.042   2.636 -0.2503 -0.5729 -0.1654
 1011MOL0     C36352   4.030   4.975   2.680  0.8840 -0.3208  0.1633
 1011MOL0     O36353   4.044   4.893   2.787 -0.0594 -0.0706 -0.0303
 1011MOL0     C36354   4.165   4.858   2.837  0.7037 -0.8230  0.0935
 1011MOL0     C36355   4.206   4.904   2.961 -0.0881 -1.0680 -1.2820
 1011MOL0     C36356   4.341   4.874   3.005  0.0607 -0.1829  0.2918
 1011MOL0     C36357   4.428   4.789   2.936  0.1755  0.0698 -0.4167
 1011MOL0     O36358   4.558   4.759   2.974  0.3861 -0.5063  0.2961
 1011MOL0     C36359   4.654   4.808   2.880  0.3232 -0.5868 -0.6825
 1011MOL0     C36360   4.782   4.847   2.952  0.3267 -0.3599  0.4876
 1011MOL0     C36361   4.786   4.983   3.019 -0.3707  0.2183 -0.4284
 1011MOL0     C36362   4.932   5.030   3.050  0.3671  0.2914 -0.0969
 1011MOL0     C36363   4.943   5.182   3.090  0.3681 -0.6017 -0.3345
 1011MOL0     C36364   4.931   5.279   2.970  0.3930  1.0733  0.5628
 1011MOL0     C36365   5.082   5.316   2.926 -0.2831 -0.3528 -0.3790
 1011MOL0     C36366   5.151   5.205   2.852  0.3435 -0.4510  0.1213
 1011MOL0     N36367   5.080   5.160   2.730  0.3261  0.3771  0.0325
 1011MOL0     C36368   5.081   5.213   2.603 -0.9072 -0.6323  0.8998
 1011MOL0     C36369   5.018   5.133   2.518 -0.0877 -0.6006 -0.4360
 1011MOL0     C36370   4.995   5.164   2.365  0.8198  0.0699  0.5437
 1011MOL0     C36371   5.116   5.174   2.275  0.2580  0.7237  0.5412
 1011MOL0     C36372   5.205   5.052   2.261  0.0692  0.1768 -0.0871
 1011MOL0     C36373   5.329   5.076   2.166 -0.2747 -1.1518  0.2026
 1011MOL0     O36374   5.330   4.970   2.062  0.1658  0.2579  0.0903
 1011MOL0     C36375   5.443   4.937   1.989 -0.3106 -0.4156  1.0279
 1011MOL0     C36376   5.552   5.022   1.985 -1.0405  0.1756  0.2067
 1011MOL0     C36377   5.669   4.977   1.915  0.9196 -0.0360  1.0551
 1011MOL0     C36378   5.671   4.853   1.845 -0.4921 -0.3149  0.2619
 1011MOL0     C36379   5.782   4.819   1.760 -0.3507 -0.7032  0.5380
 1011MOL0     O36380   5.808   4.683   1.739  0.5144 -0.0498 -0.4126
 1011MOL0     C36381   5.900   4.642   1.650  0.3015 -0.1981 -0.2967
 1011MOL0     C36382   5.870   4.591   1.528 -0.1410  0.5681 -0.1204
 1011MOL0     C36383   5.972   4.538   1.446  0.4969 -0.0358  1.4797
 1011MOL0     C36384   6.108   4.550   1.474 -0.5017 -0.4763 -0.4795
 1011MOL0     O36385   6.198   4.490   1.394 -0.5841  0.5368  0.0118
 1011MOL0     C36386   6.304   4.580   1.338  0.9119  0.7546  0.4146
 1011MOL0     C36387   6.287   4.611   1.187  0.5653 -0.5846  0.0422
 1011MOL0     C36388   6.178   4.710   1.173 -0.7087 -0.3305  0.2614
 1011MOL0     C36389   6.146   4.725   1.021  0.4321  0.6097  0.3175
 1011MOL0     C36390   6.019   4.804   0.990 -0.7086  0.3162 -0.5350
 1011MOL0     C36391   6.003   4.829   0.840  1.0388 -0.0353  0.1171
 1011MOL0     C36392   5.892   4.930   0.813  0.0610  0.0667  0.0787
 1011MOL0     C36393   5.847   4.936   0.663 -0.0593 -0.2129 -0.8489
 1011MOL0    Cl36394   5.974   4.985   0.555 -0.1888  0.3261  0.1774
 1011MOL0     C36395   6.138   4.589   1.604 -0.4328  0.1773 -0.0121
 1011MOL0     C36396   6.033   4.629   1.693 -0.4605  0.1049  0.0995
 1011MOL0     O36397   5.841   4.905   1.694 -0.3509  0.3426  0.1195
 1011MOL0     C36398   5.559   4.763   1.867 -0.1755 -0.5762 -0.5221
 1011MOL0     C36399   5.441   4.810   1.930 -1.3192 -0.9054  0.5368
 1011MOL0     N36400   4.967   5.030   2.590 -0.3758  0.1383 -0.7354
 1011MOL0     N36401   5.006   5.045   2.715  0.0038  0.7346 -0.6293
 1011MOL0     C36402   4.372   4.735   2.820  0.4105  0.7010  0.9164
 1011MOL0     C36403   4.247   4.776   2.767  0.4033 -0.2298  0.1033
 1011MOL0     C36404   3.899   4.969   2.611 -0.3958 -0.5443  0.6891
 1011MOL0     C36405   3.787   4.945   2.693 -0.7093 -0.0614 -1.0701
 1011MOL0     C36406   3.664   4.949   2.636 -0.2713 -0.1012  0.3812
 1011MOL0     C36407   3.649   4.962   2.496 -0.1285  0.4440  0.2911
 1011MOL0     O36408   3.533   4.946   2.428 -0.2424 -0.3637  0.3001
 1011MOL0     C36409   3.418   4.997   2.488 -0.1053 -0.1518  1.1706
 1011MOL0     C36410   3.292   4.991   2.387 -0.4483 -0.5330  0.1971
 1011MOL0     C36411   3.309   5.003   2.236  0.2962 -0.0085 -0.1331
 1011MOL0     C36412   3.392   5.122   2.198  0.1028 -0.0500  0.9914
 1011MOL0     C36413   3.449   5.118   2.062 -0.5022 -0.7745  0.0974
 1011MOL0     C36414   3.500   5.120   1.950  0.9052 -0.3251  0.8436
 1011MOL0     C36415   3.763   4.978   2.414 -0.2420 -0.3766 -0.0488
 1011MOL0     C36416   3.891   4.986   2.475  0.1193  0.2575  0.1959
 1011MOL0     C36417   4.005   5.003   2.384  1.4787  0.0033  0.9956
 1011MOL0     H36418   4.152   4.973   3.024  1.1803 -3.3012  2.5713
 1011MOL0     H36419   4.371   4.926   3.095 -2.2995  2.2754 -0.2285
 1011MOL0     H36420   4.673   4.723   2.814 -1.2815 -0.6261 -1.1345
 1011MOL0     H36421   4.619   4.887   2.812 -0.0625  0.3004  0.5135
 1011MOL0     H36422   4.856   4.866   2.875 -0.6255 -0.2473 -0.4187
 1011MOL0     H36423   4.799   4.768   3.026 -4.7469 -0.4309  2.0181
 1011MOL0     H36424   4.745   4.972   3.120 -0.9798  0.6270 -0.6293
 1011MOL0     H36425   4.734   5.063   2.966  0.7965  1.9386  0.8875
 1011MOL0     H36426   4.969   4.970   3.134  1.2540 -0.9954 -1.3590
 1011MOL0     H36427   4.995   5.010   2.963 -2.9025 -4.0157 -1.8750
 1011MOL0     H36428   4.857   5.188   3.158 -0.0607 -4.2487 -0.3567
 1011MOL0     H36429   5.026   5.214   3.154 -2.1323 -0.7904  3.3400
 1011MOL0     H36430   4.884   5.232   2.883  2.1453 -0.9577  0.6363
 1011MOL0     H36431   4.877   5.372   2.992 -2.2190 -0.1821 -0.0593
 1011MOL0     H36432   5.145   5.353   3.008 -0.8811  0.1509 -0.1389
 1011MOL0     H36433   5.073   5.401   2.857  3.8382 -0.7551 -1.6993
 1011MOL0     H36434   5.251   5.235   2.818  0.0791 -0.3560 -0.5859
 1011MOL0     H36435   5.163   5.111   2.908 -0.9596 -1.0018 -0.4866
 1011MOL0     H36436   5.128   5.308   2.581 -2.0451 -0.0076  1.0609
 1011MOL0     H36437   4.919   5.098   2.322  2.3999 -0.0562 -2.3532
 1011MOL0     H36438   4.966   5.269   2.364  2.7166  0.6388 -0.6877
 1011MOL0     H36439   5.089   5.188   2.170 -0.1861 -2.2373  0.1707
 1011MOL0     H36440   5.171   5.259   2.316 -1.6410  1.5707  1.4459
 1011MOL0     H36441   5.142   4.974   2.217 -1.8983  0.6570  1.6909
 1011MOL0     H36442   5.235   5.019   2.361  0.8502  0.4101 -0.2436
 1011MOL0     H36443   5.426   5.076   2.217  1.1399 -2.8500 -2.2744
 1011MOL0     H36444   5.323   5.172   2.113 -2.4327 -1.7360 -0.6956
 1011MOL0     H36445   5.558   5.117   2.037  1.5881 -1.3116  2.9381
 1011MOL0     H36446   5.751   5.046   1.898  0.9649 -0.7565 -2.3348
 1011MOL0     H36447   5.765   4.613   1.513 -0.3180 -1.7263 -3.2172
 1011MOL0     H36448   5.946   4.485   1.355  0.2567 -0.9053  2.0446
 1011MOL0     H36449   6.327   4.668   1.398  1.8146 -0.0158  1.2245
 1011MOL0     H36450   6.399   4.531   1.361  0.5182 -0.0827  0.3163
 1011MOL0     H36451   6.386   4.640   1.150  0.2244 -0.5035 -0.8389
 1011MOL0     H36452   6.261   4.519   1.134 -3.9305 -1.0101  2.4661
 1011MOL0     H36453   6.096   4.666   1.232  0.3338 -2.0815  0.4585
 1011MOL0     H36454   6.197   4.809   1.216  1.9029 -1.9840  3.3536
 1011MOL0     H36455   6.136   4.620   0.991  2.8770  0.0243  1.3130
 1011MOL0     H36456   6.233   4.763   0.967 -1.0185  4.0872  0.1919
 1011MOL0     H36457   6.026   4.891   1.057 -0.6680  1.6433 -2.1880
 1011MOL0     H36458   5.933   4.759   1.041 -0.5175  0.4207 -0.1102
 1011MOL0     H36459   6.085   4.876   0.786 -1.9503  3.8685 -1.5925
 1011MOL0     H36460   5.970   4.736   0.793 -1.2549  0.5805  0.3711
 1011MOL0     H36461   5.936   5.027   0.834 -0.8384  0.4719  0.1333
 1011MOL0     H36462   5.804   4.919   0.878 -1.1184 -0.5811 -1.5300
 1011MOL0     H36463   5.804   4.840   0.632  0.7559 -1.7548  2.3761
 1011MOL0     H36464   5.767   5.009   0.649  0.2121  0.1291 -0.6251
 1011MOL0     H36465   6.235   4.572   1.649  0.7771  0.1104 -2.4805
 1011MOL0     H36466   6.063   4.669   1.789 -0.3160 -0.4722  0.2998
 1011MOL0     H36467   5.553   4.659   1.836 -2.7031 -0.4610 -0.5888
 1011MOL0     H36468   5.346   4.758   1.934 -0.7217 -1.9949  0.9055
 1011MOL0     H36469   4.441   4.665   2.775 -1.9772 -1.1230 -0.1620
 1011MOL0     H36470   4.220   4.722   2.677  1.6525 -0.8447  0.0642
 1011MOL0     H36471   3.801   4.922   2.798 -1.2630  0.2968 -0.9172
 1011MOL0     H36472   3.571   4.939   2.691 -0.8586  1.6535 -0.2177
 1011MOL0     H36473   3.439   5.103   2.506 -0.7027 -0.0596  1.3558
 1011MOL0     H36474   3.385   4.950   2.581 -0.9926 -0.6195  0.6335
 1011MOL0     H36475   3.215   5.058   2.425  0.3058  0.7896 -0.5368
 1011MOL0     H36476   3.237   4.899   2.411 -2.7237  0.9849  1.0520
 1011MOL0     H36477   3.210   5.017   2.192  0.4130  2.0189  0.1215
 1011MOL0     H36478   3.345   4.905   2.204  0.4204 -0.8410  2.3083
 1011MOL0     H36479   3.320   5.204   2.195 -1.7634 -1.5682  2.0852
 1011MOL0     H36480   3.468   5.155   2.270  0.5174 -1.5483  1.2780
 1011MOL0     H36481   3.533   5.119   1.848 -0.0816  0.8567  0.4915
 1011MOL0     H36482   3.750   4.986   2.307 -2.6612  2.7232  0.3091
 1011MOL0     H36483   3.963   5.022   2.285  2.4678  0.2516  0.6103
 1011MOL0     H36484   4.068   5.090   2.405  4.6517 -1.4445 -1.6063
 1011MOL0     H36485   4.072   4.917   2.382  1.8721  0.2069 -2.9110
 1012MOL0     O36486   0.856   1.296   1.730 -0.0634 -0.0611  0.4079
 1012MOL0     C36487   0.834   1.334   1.843  0.1010 -0.0450 -0.4678
 1012MOL0     O36488   0.928   1.371   1.935  0.0176  0.3368  0.1541
 1012MOL0     C36489   1.062   1.352   1.914 -0.6766  0.5906 -0.2580
 1012MOL0     C36490   1.154   1.443   1.977  0.1509  1.5254 -0.4051
 1012MOL0     C36491   1.290   1.427   1.958  0.9124  0.2558  0.0645
 1012MOL0     C36492   1.337   1.318   1.886 -0.3880 -0.5308  0.3955
 1012MOL0     O36493   1.461   1.293   1.871  1.1128 -0.1276  0.9916
 1012MOL0     C36494   1.543   1.404   1.843  0.0643  0.0005  0.2366
 1012MOL0     C36495   1.685   1.366   1.802  0.4534  0.1103 -0.1527
 1012MOL0     C36496   1.784   1.484   1.769  0.2441  0.0631  0.4864
 1012MOL0     C36497   1.926   1.431   1.728 -0.5838 -0.1294 -0.7205
 1012MOL0     C36498   2.034   1.552   1.718  0.2672 -0.4307 -0.8928
 1012MOL0     C36499   2.176   1.502   1.735 -0.9129  0.7287 -0.1695
 1012MOL0     C36500   2.205   1.386   1.839  1.4158  0.0768  0.1554
 1012MOL0     C36501   2.352   1.366   1.866  0.2911 -0.6221  0.4150
 1012MOL0     N36502   2.378   1.261   1.970  0.1305  0.2386  0.7864
 1012MOL0     C36503   2.393   1.287   2.108  0.2740 -0.4605  0.6677
 1012MOL0     C36504   2.416   1.165   2.168  0.0267  0.4338 -0.0003
 1012MOL0     C36505   2.429   1.145   2.310  0.6270 -1.0023  0.1825
 1012MOL0     C36506   2.580   1.142   2.343  0.2154  0.1970  0.6306
 1012MOL0     C36507   2.636   1.000   2.319  0.3725  0.0391  0.2228
 1012MOL0     C36508   2.777   1.007   2.365 -0.9451  0.1354 -0.5203
 1012MOL0     O36509   2.820   0.875   2.418  0.2044  0.7237 -0.7063
 1012MOL0     C36510   2.939   0.819   2.370  0.7139  0.4906 -0.5772
 1012MOL0     C36511   3.058   0.889   2.375 -0.7262  0.2668 -0.4367
 1012MOL0     C36512   3.172   0.821   2.347 -0.4703  0.1690 -0.2189
 1012MOL0     C36513   3.182   0.689   2.301  0.4013  0.0569  0.3175
 1012MOL0     C36514   3.308   0.623   2.256 -1.1516 -0.4912 -0.1490
 1012MOL0     O36515   3.417   0.708   2.267  0.1877 -0.6719 -0.3229
 1012MOL0     C36516   3.540   0.645   2.268  0.1986 -0.2702  0.4003
 1012MOL0     C36517   3.632   0.697   2.178  0.0873 -0.2089 -0.5857
 1012MOL0     C36518   3.754   0.633   2.152  0.1280  0.2892  1.3837
 1012MOL0     C36519   3.794   0.524   2.230 -0.8366 -0.3556 -0.2007
 1012MOL0     O36520   3.911   0.461   2.207 -0.1962 -0.0863 -0.2881
 1012MOL0     C36521   3.922   0.323   2.243 -0.3582 -0.5469  0.6700
 1012MOL0     C36522   4.048   0.269   2.185 -0.0460  0.4081 -0.3967
 1012MOL0     C36523   4.071   0.129   2.228 -0.2027 -0.1568 -0.0339
 1012MOL0     C36524   4.211   0.069   2.194  0.1271  0.1995 -0.1857
 1012MOL0     C36525   4.308   0.062   2.311  0.2271 -0.4056 -0.2791
 1012MOL0     C36526   4.352   0.211   2.351  0.1711  0.8248  0.3696
 1012MOL0     C36527   4.475   0.220   2.434  0.6083 -0.1847  0.1663
 1012MOL0     C36528   4.608   0.207   2.360 -1.1107 -0.3322 -0.8006
 1012MOL0    Cl36529   4.745   0.232   2.472  0.2087 -0.3934  0.4277
 1012MOL0     C36530   3.697   0.474   2.320 -0.4898 -0.1746  0.0580
 1012MOL0     C36531   3.581   0.537   2.353  0.8002  0.3080  0.0160
 1012MOL0     O36532   3.312   0.502   2.233  0.2495 -0.4785  0.6075
 1012MOL0     C36533   3.057   0.626   2.285  0.2652 -0.2260 -1.2318
 1012MOL0     C36534   2.939   0.685   2.323  0.6927 -0.6486  0.0622
 1012MOL0     N36535   2.422   1.072   2.061 -0.8834 -0.6253  0.2220
 1012MOL0     N36536   2.389   1.132   1.945 -0.2764  0.8453  0.3717
 1012MOL0     C36537   1.252   1.223   1.830 -0.4519 -0.3430  0.3354
 1012MOL0     C36538   1.115   1.240   1.838  0.0863 -0.0561  0.4003
 1012MOL0     C36539   0.706   1.356   1.903 -0.0744 -0.3100  0.5757
 1012MOL0     C36540   0.701   1.388   2.045 -0.2935  0.2437  0.8668
 1012MOL0     C36541   0.579   1.411   2.106 -0.6500  0.3714 -0.3581
 1012MOL0     C36542   0.473   1.414   2.024 -0.4958 -0.1288  0.1267
 1012MOL0     O36543   0.350   1.421   2.076  0.3042 -0.4796  0.1297
 1012MOL0     C36544   0.255   1.514   2.013 -0.5229  0.4217 -0.7684
 1012MOL0     C36545   0.287   1.655   2.062 -0.7806  0.1160 -0.7294
 1012MOL0     C36546   0.219   1.675   2.200  0.3733  0.5127 -0.6075
 1012MOL0     C36547   0.247   1.818   2.252 -0.0423  0.7362  0.5249
 1012MOL0     C36548   0.124   1.888   2.270 -0.0423 -1.1639 -0.3669
 1012MOL0     C36549   0.029   1.961   2.290 -0.9860  0.8140 -1.0467
 1012MOL0     C36550   0.482   1.387   1.883 -0.8367 -1.0303  0.7472
 1012MOL0     C36551   0.599   1.353   1.823  0.1862  0.4477 -0.2580
 1012MOL0     C36552   0.585   1.288   1.697  0.1789 -0.3894  1.4765
 1012MOL0     H36553   1.134   1.526   2.045 -0.6453  0.6640  0.4409
 1012MOL0     H36554   1.358   1.501   1.998  4.9808 -2.6954 -0.7492
 1012MOL0     H36555   1.503   1.470   1.766  0.6051 -1.0243 -0.9471
 1012MOL0     H36556   1.556   1.463   1.935  0.7951  0.8064 -0.3607
 1012MOL0     H36557   1.669   1.288   1.726  0.6132 -0.8441  0.7750
 1012MOL0     H36558   1.727   1.312   1.887 -0.9068 -1.1093 -0.2196
 1012MOL0     H36559   1.797   1.548   1.857  0.1471  0.0047  0.5427
 1012MOL0     H36560   1.737   1.552   1.698 -2.6988 -0.0085  2.2050
 1012MOL0     H36561   1.952   1.362   1.809  1.7672  1.2724 -0.1777
 1012MOL0     H36562   1.938   1.362   1.645  0.2176 -0.4805 -0.3282
 1012MOL0     H36563   2.024   1.619   1.632 -0.7045 -0.1635 -0.5968
 1012MOL0     H36564   2.011   1.620   1.801  0.9638 -2.2809  0.8875
 1012MOL0     H36565   2.215   1.465   1.639  0.5935  0.5237  0.4904
 1012MOL0     H36566   2.240   1.587   1.761 -0.6693  0.3583  0.4688
 1012MOL0     H36567   2.164   1.294   1.798  0.3204  0.1952  0.9584
 1012MOL0     H36568   2.144   1.405   1.928  1.8783 -0.6724  0.6419
 1012MOL0     H36569   2.394   1.343   1.768 -1.0290 -1.6804  0.0607
 1012MOL0     H36570   2.403   1.455   1.903  0.9626 -2.1335  3.4901
 1012MOL0     H36571   2.405   1.386   2.150  1.9723  0.5459 -1.9411
 1012MOL0     H36572   2.372   1.216   2.370  4.0108  0.8655  1.4620
 1012MOL0     H36573   2.375   1.053   2.337 -2.6422 -0.1202 -2.6610
 1012MOL0     H36574   2.634   1.222   2.291 -2.4995  0.3766 -2.1354
 1012MOL0     H36575   2.584   1.173   2.448 -0.5924  1.9161  0.1764
 1012MOL0     H36576   2.624   0.970   2.214 -0.2725 -0.2570  0.3754
 1012MOL0     H36577   2.577   0.925   2.372 -0.1459  0.2941  0.0242
 1012MOL0     H36578   2.785   1.080   2.446 -1.9437  2.0865 -2.1129
 1012MOL0     H36579   2.836   1.043   2.281 -0.1535  0.9412  0.3630
 1012MOL0     H36580   3.066   0.992   2.409  0.2296  0.2310 -0.5291
 1012MOL0     H36581   3.259   0.886   2.354  0.3418 -0.2319 -4.2011
 1012MOL0     H36582   3.607   0.771   2.103 -0.5629  0.5210  0.3214
 1012MOL0     H36583   3.824   0.673   2.079  1.3246 -2.9296  0.5947
 1012MOL0     H36584   3.920   0.316   2.352 -0.7007  2.2389  0.9130
 1012MOL0     H36585   3.843   0.260   2.200  0.9576 -1.1105 -1.0466
 1012MOL0     H36586   4.047   0.273   2.076 -0.4187 -0.9138 -0.4602
 1012MOL0     H36587   4.134   0.324   2.226  1.6647 -1.0058 -1.8849
 1012MOL0     H36588   4.029   0.121   2.328 -1.1824  1.4552 -0.2821
 1012MOL0     H36589   4.000   0.068   2.172 -3.9013  3.2950  0.4350
 1012MOL0     H36590   4.237   0.122   2.102 -0.4829 -2.5834 -2.0557
 1012MOL0     H36591   4.206  -0.036   2.166 -0.4844 -0.6824  2.8893
 1012MOL0     H36592   4.397   0.004   2.284 -0.0879 -0.4028 -1.3754
 1012MOL0     H36593   4.272   0.013   2.402  0.5506 -1.0591 -0.5005
 1012MOL0     H36594   4.372   0.257   2.254  0.0459  0.3027  0.0906
 1012MOL0     H36595   4.270   0.271   2.392 -0.7812 -0.6699  0.7180
 1012MOL0     H36596   4.478   0.140   2.508  0.4152  0.2306  0.6297
 1012MOL0     H36597   4.464   0.312   2.493  2.1509  0.4828 -0.5374
 1012MOL0     H36598   4.604   0.102   2.330  1.2437 -0.6335 -0.2272
 1012MOL0     H36599   4.631   0.267   2.271 -0.1842 -0.1800 -0.4668
 1012MOL0     H36600   3.728   0.398   2.391 -2.0906 -0.2141  0.7514
 1012MOL0     H36601   3.518   0.499   2.433  1.3024  1.5861  1.0551
 1012MOL0     H36602   3.050   0.520   2.262  1.5523 -0.4369 -0.7582
 1012MOL0     H36603   2.846   0.630   2.322 -2.4835  4.1209 -0.2084
 1012MOL0     H36604   1.287   1.145   1.764 -1.4172 -0.8091  0.3536
 1012MOL0     H36605   1.057   1.164   1.786 -1.0072  1.8779 -1.3461
 1012MOL0     H36606   0.787   1.411   2.108 -1.0431 -0.0499  2.0254
 1012MOL0     H36607   0.560   1.442   2.208  0.8796  0.2521 -0.0157
 1012MOL0     H36608   0.150   1.488   2.027  0.1391 -1.5729  1.2518
 1012MOL0     H36609   0.272   1.522   1.906 -2.1900 -0.4190 -1.1239
 1012MOL0     H36610   0.231   1.729   2.005 -1.7891  0.9634  1.2574
 1012MOL0     H36611   0.394   1.677   2.065 -0.9605  0.9053  1.8736
 1012MOL0     H36612   0.263   1.602   2.268 -1.3618  0.1893  0.2123
 1012MOL0     H36613   0.112   1.653   2.201  1.0377 -3.5668  1.3572
 1012MOL0     H36614   0.295   1.803   2.349 -1.6893 -1.1496  1.0847
 1012MOL0     H36615   0.313   1.867   2.179  0.8836 -0.4922  0.5089
 1012MOL0     H36616  -0.058   2.021   2.312 -1.6345 -0.2970 -0.4703
 1012MOL0     H36617   0.390   1.389   1.825  0.0758 -2.5675 -0.8500
 1012MOL0     H36618   0.631   1.189   1.706 -0.1550 -0.4583  2.5491
 1012MOL0     H36619   0.484   1.265   1.662  1.0776  0.1431 -1.8286
 1012MOL0     H36620   0.641   1.344   1.621 -0.6131 -0.2998  0.9477
 1013MOL0     O36621   1.413   5.921   3.970 -0.5912 -0.4024 -0.7714
 1013MOL0     C36622   1.396   5.862   4.072 -0.4276  0.4574  0.5570
 1013MOL0     O36623   1.271   5.842   4.127 -0.5269  0.2492 -0.0973
 1013MOL0     C36624   1.156   5.893   4.065  0.3827  0.3518 -0.2637
 1013MOL0     C36625   1.073   5.974   4.141 -0.6348  0.4193  0.1709
 1013MOL0     C36626   0.936   6.001   4.096 -1.1014 -0.4327  0.2320
 1013MOL0     C36627   0.892   5.951   3.972  0.1190 -0.1124  0.7708
 1013MOL0     O36628   0.771   5.959   3.908  0.6155  0.0076 -0.5289
 1013MOL0     C36629   0.680   6.066   3.944 -0.0992  0.3510  0.2651
 1013MOL0     C36630   0.553   6.064   3.863  0.2429 -0.3013  0.2769
 1013MOL0     C36631   0.469   6.195   3.873 -0.6410  1.1701 -0.8661
 1013MOL0     C36632   0.351   6.184   3.783  0.5738 -0.4118  1.1480
 1013MOL0     C36633   0.257   6.301   3.792  0.2224 -0.0237  0.0681
 1013MOL0     C36634   0.120   6.291   3.724  0.5395 -0.1748  0.8647
 1013MOL0     C36635   0.125   6.316   3.573  0.0115 -0.7033 -0.4877
 1013MOL0     C36636  -0.013   6.322   3.506  0.5408 -0.3068  0.0722
 1013MOL0     N36637   0.003   6.324   3.362 -0.4305  0.4932  0.9568
 1013MOL0     C36638   0.005   6.211   3.280 -0.6681 -0.2278 -0.5980
 1013MOL0     C36639   0.005   6.260   3.154 -0.3097 -0.9885 -0.3005
 1013MOL0     C36640  -0.013   6.193   3.018 -0.7930  0.2709  0.1316
 1013MOL0     C36641   0.088   6.085   2.989 -0.4102 -0.0926 -0.2552
 1013MOL0     C36642   0.207   6.142   2.904  0.0903 -0.4717 -0.8454
 1013MOL0     C36643   0.307   6.235   2.981  0.7130 -0.9386  0.0143
 1013MOL0     O36644   0.387   6.146   3.056  0.0640  0.3662 -0.5702
 1013MOL0     C36645   0.453   6.199   3.163  0.1092 -0.8930  1.0724
 1013MOL0     C36646   0.584   6.226   3.141 -0.0985  0.2923 -0.1071
 1013MOL0     C36647   0.663   6.262   3.250 -0.8357  0.6874 -0.5228
 1013MOL0     C36648   0.611   6.274   3.382 -0.5889  0.5809  0.6461
 1013MOL0     C36649   0.707   6.295   3.495  1.2352 -0.6892 -0.5011
 1013MOL0     O36650   0.831   6.259   3.468 -0.7131 -0.3593 -0.0826
 1013MOL0     C36651   0.927   6.278   3.569 -0.7124  0.9338 -0.7355
 1013MOL0     C36652   0.919   6.233   3.704 -0.4155  0.5198  0.3825
 1013MOL0     C36653   1.027   6.246   3.791  0.2053  0.1242  0.0188
 1013MOL0     C36654   1.149   6.312   3.752  1.2432  0.1574  0.2513
 1013MOL0     O36655   1.250   6.327   3.834 -1.0655 -0.0324 -0.6221
 1013MOL0     C36656   1.262   6.223   3.929  0.7204 -1.8575 -0.4609
 1013MOL0     C36657   1.405   6.241   3.994 -0.3678  0.2660  0.3051
 1013MOL0     C36658   1.401   6.240   4.147  0.3699 -0.4482  0.2018
 1013MOL0     C36659   1.535   6.271   4.216  0.1440 -0.4455  0.9114
 1013MOL0     C36660   1.524   6.241   4.359 -0.8228  0.4412  0.0158
 1013MOL0     C36661   1.554   6.091   4.392 -0.6651  0.5183 -1.2758
 1013MOL0     C36662   1.535   6.080   4.540  0.8059  0.1205  0.1217
 1013MOL0     C36663   1.583   5.956   4.597 -0.2670  0.4196 -0.3620
 1013MOL0    Cl36664   1.475   5.905   4.724 -0.3952 -0.1089  0.2634
 1013MOL0     C36665   1.159   6.360   3.624  0.0627  0.1557 -1.1101
 1013MOL0     C36666   1.047   6.353   3.534 -0.1094 -0.1977 -0.5607
 1013MOL0     O36667   0.666   6.350   3.596 -0.2766  1.1896 -0.3199
 1013MOL0     C36668   0.471   6.260   3.397 -0.6747  0.4219  0.0742
 1013MOL0     C36669   0.392   6.226   3.288  0.5123  0.1547  0.2743
 1013MOL0     N36670   0.026   6.397   3.171  0.4328 -0.8811  0.9404
 1013MOL0     N36671   0.020   6.441   3.298  0.0150 -0.1260  0.4345
 1013MOL0     C36672   0.991   5.886   3.888  0.1750 -0.1907 -0.4959
 1013MOL0     C36673   1.118   5.853   3.937  0.0352 -0.3788  0.8716
 1013MOL0     C36674   1.512   5.787   4.141  0.2108  0.6529 -0.4831
 1013MOL0     C36675   1.481   5.689   4.239  0.8674 -0.6743 -0.2703
 1013MOL0     C36676   1.576   5.615   4.308  1.3313 -0.5285 -0.3964
 1013MOL0     C36677   1.704   5.630   4.281 -0.9674 -1.1480  0.8480
 1013MOL0     O36678   1.793   5.542   4.339 -0.8200  0.3639  0.2040
 1013MOL0     C36679   1.873   5.466   4.243  0.2090 -0.1721  0.8858
 1013MOL0     C36680   1.966   5.383   4.325  0.9325  0.4801  0.0732
 1013MOL0     C36681   2.071   5.304   4.253  0.2673  0.1727  0.5754
 1013MOL0     C36682   2.136   5.203   4.351  0.1483  0.5111  0.3581
 1013MOL0     C36683   2.211   5.103   4.275 -0.5120 -0.7402 -0.8216
 1013MOL0     C36684   2.274   5.002   4.233 -0.7793 -0.3587  0.7608
 1013MOL0     C36685   1.743   5.724   4.180 -0.4185 -0.4786  0.4577
 1013MOL0     C36686   1.650   5.807   4.109 -0.5879  0.8584  0.3243
 1013MOL0     C36687   1.709   5.905   4.012  0.5131 -0.0317  0.9600
 1013MOL0     H36688   1.111   6.025   4.229 -2.1835 -1.4239  2.0089
 1013MOL0     H36689   0.871   6.062   4.157 -1.4620  1.0645 -1.5392
 1013MOL0     H36690   0.644   6.055   4.047 -0.7295  1.2595  0.1560
 1013MOL0     H36691   0.732   6.162   3.930  2.4296 -0.4641  3.1315
 1013MOL0     H36692   0.493   5.985   3.906  2.7624 -0.8057  3.1820
 1013MOL0     H36693   0.572   6.046   3.756  0.5219 -0.9218  0.4291
 1013MOL0     H36694   0.532   6.283   3.862 -2.0078  2.0085 -2.3941
 1013MOL0     H36695   0.437   6.194   3.978  0.9506  0.8867 -0.3583
 1013MOL0     H36696   0.372   6.167   3.677 -0.1938 -3.2799  1.3597
 1013MOL0     H36697   0.292   6.100   3.820 -1.8569  0.5120 -0.3758
 1013MOL0     H36698   0.233   6.316   3.897 -0.4984 -2.5426  0.3269
 1013MOL0     H36699   0.313   6.393   3.768  0.3313 -0.2942 -0.7762
 1013MOL0     H36700   0.087   6.189   3.747  0.9269 -0.3720  0.5794
 1013MOL0     H36701   0.052   6.368   3.761  2.4722  0.9051  2.3256
 1013MOL0     H36702   0.190   6.239   3.532  0.0952 -0.5008 -0.7399
 1013MOL0     H36703   0.180   6.407   3.543  1.5777 -1.4977 -0.1249
 1013MOL0     H36704  -0.059   6.231   3.543 -0.8243  1.2103  2.3704
 1013MOL0     H36705  -0.091   6.394   3.533  0.2616 -0.1179 -1.1862
 1013MOL0     H36706  -0.017   6.109   3.310 -0.5096  0.3088  1.4760
 1013MOL0     H36707  -0.110   6.143   3.028  0.5051 -2.3234  0.4324
 1013MOL0     H36708  -0.032   6.266   2.938 -2.2256  0.5677  0.7154
 1013MOL0     H36709   0.118   6.040   3.085 -1.1580  0.4033  0.2256
 1013MOL0     H36710   0.045   6.008   2.924 -0.2306 -1.1919  0.8703
 1013MOL0     H36711   0.165   6.202   2.823  0.3865  1.6627  0.4876
 1013MOL0     H36712   0.260   6.057   2.862  0.6174 -0.7291  0.3071
 1013MOL0     H36713   0.250   6.314   3.031  0.1394 -0.3056 -1.5400
 1013MOL0     H36714   0.379   6.281   2.912  0.4458  0.8593  0.8719
 1013MOL0     H36715   0.626   6.205   3.043 -0.6455 -1.4910 -0.0044
 1013MOL0     H36716   0.765   6.289   3.225  0.8204 -4.0013  0.1256
 1013MOL0     H36717   0.829   6.185   3.743 -1.0576  0.6995 -0.8423
 1013MOL0     H36718   1.006   6.215   3.893 -0.1750  3.5181  1.1050
 1013MOL0     H36719   1.193   6.243   4.012  1.5365  0.6952 -0.3095
 1013MOL0     H36720   1.242   6.126   3.881 -1.5270  0.0009 -3.6340
 1013MOL0     H36721   1.461   6.150   3.970 -1.2721 -0.6315  1.4433
 1013MOL0     H36722   1.459   6.328   3.957 -1.2963  2.9009  4.4116
 1013MOL0     H36723   1.326   6.319   4.161  0.7632  0.3046 -1.5887
 1013MOL0     H36724   1.345   6.153   4.181  0.2903 -0.4381  0.1004
 1013MOL0     H36725   1.556   6.378   4.205  0.7935 -0.6940 -0.5106
 1013MOL0     H36726   1.614   6.211   4.170  0.9711 -0.5563  2.4141
 1013MOL0     H36727   1.434   6.278   4.410  0.6742  2.3504  1.4478
 1013MOL0     H36728   1.606   6.304   4.396  1.0662 -0.8272 -1.7621
 1013MOL0     H36729   1.479   6.031   4.340 -0.0810 -1.1737 -0.2155
 1013MOL0     H36730   1.656   6.065   4.363  0.4924  1.2040  1.8664
 1013MOL0     H36731   1.429   6.095   4.566  0.4793 -0.9177 -0.5655
 1013MOL0     H36732   1.584   6.164   4.589  2.8611 -1.0994  0.2366
 1013MOL0     H36733   1.576   5.877   4.522 -0.9731  0.3503 -0.2300
 1013MOL0     H36734   1.683   5.973   4.637 -0.3002 -2.2068  1.0943
 1013MOL0     H36735   1.252   6.414   3.607  0.8669 -1.7039 -2.9852
 1013MOL0     H36736   1.045   6.408   3.440 -0.6960 -0.5371 -0.7518
 1013MOL0     H36737   0.436   6.274   3.499  1.2130 -2.2733  1.2167
 1013MOL0     H36738   0.285   6.217   3.301  0.3969  1.0716  0.0094
 1013MOL0     H36739   0.970   5.868   3.783  0.4041  0.4838 -0.6585
 1013MOL0     H36740   1.192   5.811   3.871 -2.0566 -1.0838 -1.1836
 1013MOL0     H36741   1.376   5.688   4.266  0.7273  2.8165 -0.2867
 1013MOL0     H36742   1.537   5.554   4.389 -0.1677  0.8027 -0.0740
 1013MOL0     H36743   1.928   5.536   4.180 -2.8811  2.8819  1.2263
 1013MOL0     H36744   1.805   5.402   4.187  2.2089 -2.8519  1.3474
 1013MOL0     H36745   1.896   5.312   4.369 -3.4831  2.5896 -2.8655
 1013MOL0     H36746   2.016   5.444   4.401  3.2312  0.7210 -1.5249
 1013MOL0     H36747   2.141   5.375   4.208 -1.0294  2.0097  1.3141
 1013MOL0     H36748   2.031   5.242   4.172  0.2511 -0.1118  0.8018
 1013MOL0     H36749   2.199   5.259   4.420  0.8805  2.4580 -1.7889
 1013MOL0     H36750   2.061   5.143   4.403  0.4021 -2.5724 -2.4685
 1013MOL0     H36751   2.337   4.918   4.214 -0.4453  0.4502 -2.0668
 1013MOL0     H36752   1.849   5.740   4.163 -0.3641 -3.6835 -4.0141
 1013MOL0     H36753   1.694   5.867   3.910  1.8014  0.0518  0.7250
 1013MOL0     H36754   1.653   5.999   4.020  2.6894  1.3363  0.9965
 1013MOL0     H36755   1.815   5.929   4.018  0.5823 -0.4867  1.6369
 1014MOL0     O36756   9.192  10.181   8.442 -0.2432  0.0228  0.6832
 1014MOL0     C36757   9.131  10.090   8.390  0.1918  0.2128  0.4251
 1014MOL0     O36758   9.183   9.992   8.313  0.4824  0.2604  0.3111
 1014MOL0     C36759   9.322   9.993   8.289  0.1268 -0.1511  0.4743
 1014MOL0     C36760   9.378  10.089   8.201 -0.0111 -0.5105 -0.0478
 1014MOL0     C36761   9.516  10.098   8.182 -0.2029  0.7302  0.2886
 1014MOL0     C36762   9.605   9.993   8.231 -0.7858 -0.2698  1.0435
 1014MOL0     O36763   9.742  10.014   8.199  0.2990  0.6864  0.2927
 1014MOL0     C36764   9.813   9.893   8.220 -0.1739  0.4372  0.0551
 1014MOL0     C36765   9.961   9.903   8.197 -0.2174 -0.3487 -0.1662
 1014MOL0     C36766  10.011   9.970   8.070 -0.6796  0.4214  0.1659
 1014MOL0     C36767  10.159   9.936   8.062 -0.8992 -0.0407  0.4402
 1014MOL0     C36768  10.228   9.993   7.934 -0.0680 -0.1591  0.6038
 1014MOL0     C36769  10.263  10.153   7.937 -0.6560  1.3811  0.6579
 1014MOL0     C36770  10.380  10.213   7.857 -0.0766 -1.1818  0.0939
 1014MOL0     C36771  10.357  10.195   7.702  0.0021  0.5349  0.3520
 1014MOL0     N36772  10.391  10.322   7.632 -0.3611 -0.3061 -0.6486
 1014MOL0     C36773  10.311  10.434   7.616  0.0956 -0.4374 -0.3190
 1014MOL0     C36774  10.388  10.523   7.554  0.0912 -0.6750  0.4548
 1014MOL0     C36775  10.355  10.663   7.496 -0.4472 -0.3932  0.1832
 1014MOL0     C36776  10.463  10.765   7.561  0.6347 -0.5442 -0.3968
 1014MOL0     C36777  10.439  10.911   7.521  0.4250  0.4619 -0.3561
 1014MOL0     C36778  10.348  10.987   7.621  0.2034  0.5102  0.6571
 1014MOL0     O36779  10.312  11.112   7.561  0.0372  0.3672 -0.0558
 1014MOL0     C36780  10.416  11.203   7.536  0.8843  0.0915 -0.2688
 1014MOL0     C36781  10.388  11.305   7.453  0.1866 -0.7724  0.0884
 1014MOL0     C36782  10.473  11.400   7.408 -0.7471  0.0147 -1.2595
 1014MOL0     C36783  10.607  11.409   7.461 -0.4895 -1.7213  0.1795
 1014MOL0     C36784  10.701  11.522   7.423 -0.1758 -0.0600  0.7902
 1014MOL0     O36785  10.835  11.510   7.472  0.2474 -0.6145  0.1005
 1014MOL0     C36786  10.919  11.622   7.454  0.3737  0.9525  1.0261
 1014MOL0     C36787  11.045  11.585   7.396  0.4820 -0.2867 -0.0037
 1014MOL0     C36788  11.134  11.697   7.378  0.0854 -0.1744  0.5895
 1014MOL0     C36789  11.107  11.830   7.420  0.0282  0.8086  0.2320
 1014MOL0     O36790  11.192  11.923   7.379 -0.3997 -0.0114  0.2080
 1014MOL0     C36791  11.141  12.052   7.356 -0.1613  0.2960 -0.0999
 1014MOL0     C36792  11.236  12.117   7.266  0.0525 -0.3159 -0.3780
 1014MOL0     C36793  11.184  12.257   7.225  0.0208  0.0291 -0.3763
 1014MOL0     C36794  11.223  12.311   7.091 -0.1532  1.3050  0.2724
 1014MOL0     C36795  11.373  12.341   7.090 -0.0429 -0.1757  0.9374
 1014MOL0     C36796  11.425  12.380   6.954 -0.0610 -0.2400  0.0761
 1014MOL0     C36797  11.577  12.342   6.939 -0.0173  0.1063 -0.2087
 1014MOL0     C36798  11.628  12.406   6.810 -1.6756 -0.2138  0.1815
 1014MOL0    Cl36799  11.801  12.415   6.801  0.2019  0.6012 -0.0874
 1014MOL0     C36800  10.981  11.854   7.484 -0.3753  0.3483 -0.2622
 1014MOL0     C36801  10.886  11.757   7.492  0.3375 -0.3207  0.2974
 1014MOL0     O36802  10.661  11.603   7.341  0.0441  0.3421 -0.1557
 1014MOL0     C36803  10.633  11.317   7.565  0.3902  0.6447  0.0603
 1014MOL0     C36804  10.543  11.201   7.590 -0.0465 -0.4356 -0.4240
 1014MOL0     N36805  10.517  10.466   7.549  0.2527 -0.5867 -0.2684
 1014MOL0     N36806  10.521  10.350   7.599 -0.3955 -0.1237 -0.3583
 1014MOL0     C36807   9.544   9.891   8.317 -0.1795  0.2146  0.2972
 1014MOL0     C36808   9.410   9.894   8.348  0.5141  0.7115 -0.3694
 1014MOL0     C36809   8.984  10.072   8.416 -0.8634 -0.4996 -0.2200
 1014MOL0     C36810   8.943   9.946   8.468  0.1548  0.2642 -1.2667
 1014MOL0     C36811   8.811   9.925   8.491  0.2024  0.0129  0.0191
 1014MOL0     C36812   8.709  10.016   8.477 -0.0947  0.5461  0.1823
 1014MOL0     O36813   8.571   9.995   8.486  1.2620  0.5859  0.6526
 1014MOL0     C36814   8.533   9.856   8.508  0.5345 -0.5145 -0.1076
 1014MOL0     C36815   8.379   9.850   8.485 -0.5734 -0.2575  0.4274
 1014MOL0     C36816   8.329   9.742   8.576  0.7321  0.7914 -0.0051
 1014MOL0     C36817   8.181   9.703   8.555  0.0469 -0.0805 -0.3513
 1014MOL0     C36818   8.146   9.603   8.650 -0.2814  0.4632 -0.5394
 1014MOL0     C36819   8.132   9.519   8.742  0.2498  0.1892 -0.2276
 1014MOL0     C36820   8.750  10.144   8.427  0.4285 -0.1000 -0.6247
 1014MOL0     C36821   8.885  10.174   8.395 -0.6986  0.2098  1.1104
 1014MOL0     C36822   8.914  10.304   8.340 -0.7633 -0.1753 -0.2186
 1014MOL0     H36823   9.313  10.169   8.168  0.8718  0.2358 -0.0145
 1014MOL0     H36824   9.556  10.184   8.130  0.4185  2.8181  3.8570
 1014MOL0     H36825   9.795   9.855   8.321 -0.3489 -0.1667 -0.1955
 1014MOL0     H36826   9.769   9.813   8.159  0.9485 -1.0676  1.1310
 1014MOL0     H36827  10.004   9.802   8.206 -0.0286 -0.3250 -0.7309
 1014MOL0     H36828   9.996   9.961   8.283 -1.6841  0.0844  0.1639
 1014MOL0     H36829  10.006  10.077   8.087  2.7877  0.4707  1.9271
 1014MOL0     H36830   9.948   9.933   7.989  0.2677 -2.1673  0.4990
 1014MOL0     H36831  10.211   9.969   8.152  0.4755 -1.0957  0.0709
 1014MOL0     H36832  10.171   9.828   8.053 -1.9929 -0.4697  3.1977
 1014MOL0     H36833  10.328   9.950   7.923 -0.0950  0.3324 -2.1076
 1014MOL0     H36834  10.171   9.967   7.845 -2.7258 -0.2549  2.2249
 1014MOL0     H36835  10.171  10.211   7.923 -2.6454 -0.4920  4.3131
 1014MOL0     H36836  10.282  10.174   8.043  0.5578 -3.8574  1.7752
 1014MOL0     H36837  10.480  10.181   7.887  1.5851  2.2043 -1.3378
 1014MOL0     H36838  10.384  10.320   7.876 -2.1120 -1.2857  1.4433
 1014MOL0     H36839  10.422  10.113   7.669  0.7246  1.7589 -1.3942
 1014MOL0     H36840  10.252  10.164   7.690  0.3503 -0.2423 -0.9119
 1014MOL0     H36841  10.212  10.459   7.653  0.5263 -0.2082  0.7418
 1014MOL0     H36842  10.361  10.656   7.387  0.9454  0.2491  0.1912
 1014MOL0     H36843  10.253  10.693   7.522  0.7794  2.4099  2.1953
 1014MOL0     H36844  10.454  10.762   7.670 -0.2602 -0.1303 -0.4486
 1014MOL0     H36845  10.562  10.734   7.528  1.4063  3.7086 -2.8081
 1014MOL0     H36846  10.411  10.919   7.416 -0.7674  1.7239  0.0219
 1014MOL0     H36847  10.540  10.952   7.513  1.2737 -0.2598  4.0522
 1014MOL0     H36848  10.410  11.004   7.710  1.0543 -1.3456  0.4616
 1014MOL0     H36849  10.258  10.928   7.641 -0.6442  1.5196 -0.0821
 1014MOL0     H36850  10.289  11.306   7.408  0.9580  1.1438 -1.7659
 1014MOL0     H36851  10.462  11.473   7.328  3.1980  0.3421 -1.7120
 1014MOL0     H36852  11.077  11.490   7.355 -0.7466 -2.4042  3.5564
 1014MOL0     H36853  11.231  11.680   7.330 -1.2823 -1.1841 -2.0131
 1014MOL0     H36854  11.045  12.047   7.304 -0.3214  0.0158  0.2170
 1014MOL0     H36855  11.130  12.103   7.452 -1.0308 -0.4791  0.2370
 1014MOL0     H36856  11.333  12.139   7.312  0.5633  5.7845 -3.2701
 1014MOL0     H36857  11.242  12.056   7.176 -2.8793  0.3569 -1.1364
 1014MOL0     H36858  11.075  12.253   7.217 -0.0644  2.4106 -1.1099
 1014MOL0     H36859  11.202  12.333   7.301 -0.3438  0.5887 -0.8348
 1014MOL0     H36860  11.163  12.395   7.056  2.3612  2.2080 -2.1710
 1014MOL0     H36861  11.202  12.227   7.024 -1.1005 -0.5984  2.7690
 1014MOL0     H36862  11.421  12.246   7.115  0.5997 -0.7457 -2.0455
 1014MOL0     H36863  11.404  12.411   7.169  1.1737 -2.6524  2.7969
 1014MOL0     H36864  11.360  12.345   6.873  0.5454  1.7070 -1.3339
 1014MOL0     H36865  11.420  12.489   6.942  1.3409 -0.3828 -2.3834
 1014MOL0     H36866  11.595  12.235   6.954 -0.5797  0.0038 -0.2288
 1014MOL0     H36867  11.633  12.393   7.018  1.9334  1.0944 -2.1256
 1014MOL0     H36868  11.589  12.364   6.717 -1.1337 -2.3218  0.8518
 1014MOL0     H36869  11.586  12.507   6.810 -1.3980 -0.0520 -2.3251
 1014MOL0     H36870  10.967  11.950   7.532 -2.6303  0.1188 -0.3580
 1014MOL0     H36871  10.791  11.770   7.544 -0.6849  1.1813 -1.8018
 1014MOL0     H36872  10.725  11.313   7.623  0.9908 -2.6586 -0.9056
 1014MOL0     H36873  10.584  11.127   7.658  0.4655  0.8167  0.6644
 1014MOL0     H36874   9.607   9.811   8.355  1.0410 -0.1643 -2.3385
 1014MOL0     H36875   9.371   9.821   8.419  3.6590 -0.6482  0.1138
 1014MOL0     H36876   9.022   9.879   8.502 -1.9063 -0.1387  3.6926
 1014MOL0     H36877   8.792   9.824   8.526 -1.3518  0.0523 -0.6288
 1014MOL0     H36878   8.560   9.825   8.610  1.2996 -1.6048 -0.6275
 1014MOL0     H36879   8.581   9.785   8.441 -0.5111 -0.1691 -1.2637
 1014MOL0     H36880   8.357   9.832   8.379  0.3865 -0.8407  0.3169
 1014MOL0     H36881   8.330   9.946   8.505 -0.6935 -0.5010  1.3053
 1014MOL0     H36882   8.351   9.782   8.675  1.8105 -1.2201  0.6277
 1014MOL0     H36883   8.384   9.649   8.561 -1.6079 -0.3046 -2.6463
 1014MOL0     H36884   8.111   9.786   8.566 -2.2479 -1.3372 -3.8094
 1014MOL0     H36885   8.155   9.657   8.459  1.6676  0.6246 -1.1581
 1014MOL0     H36886   8.127   9.444   8.818 -2.9122 -1.3477 -1.7495
 1014MOL0     H36887   8.668  10.211   8.406 -0.0222 -0.4978 -0.1747
 1014MOL0     H36888   8.903  10.375   8.422 -2.6447 -0.4619 -0.1788
 1014MOL0     H36889   9.014  10.324   8.301 -0.1849 -2.4210 -0.0138
 1014MOL0     H36890   8.835  10.328   8.268 -1.7549  2.9392  1.7151
 1015MOL0     O36891   3.747   0.981   9.113 -0.4264  0.5109 -0.5376
 1015MOL0     C36892   3.701   0.869   9.088 -0.6736 -0.0242  0.8254
 1015MOL0     O36893   3.589   0.815   9.142 -0.8025  0.0798 -0.3864
 1015MOL0     C36894   3.511   0.900   9.215 -0.5213  0.1544 -0.3876
 1015MOL0     C36895   3.446   1.005   9.142 -1.0493 -0.1167  0.3638
 1015MOL0     C36896   3.372   1.095   9.213  0.1420  0.3232  0.2614
 1015MOL0     C36897   3.356   1.095   9.357  0.1033  0.0270  0.0789
 1015MOL0     O36898   3.266   1.191   9.399  0.0185  0.5338 -0.4772
 1015MOL0     C36899   3.248   1.197   9.544  0.0557 -0.2101 -0.6468
 1015MOL0     C36900   3.359   1.271   9.614  0.8068 -0.1884  0.7888
 1015MOL0     C36901   3.375   1.416   9.561  1.0892  0.2537  0.4312
 1015MOL0     C36902   3.260   1.522   9.611 -0.1134 -0.2089  0.6961
 1015MOL0     C36903   3.294   1.667   9.575 -0.5372 -0.4040  0.4823
 1015MOL0     C36904   3.190   1.755   9.638 -0.5647 -0.2336  0.7611
 1015MOL0     C36905   3.221   1.899   9.592 -0.5785  0.2595  0.2669
 1015MOL0     C36906   3.118   2.011   9.611 -1.3780  0.7727 -0.2644
 1015MOL0     N36907   3.087   2.020   9.754 -0.6963  0.1435 -0.6892
 1015MOL0     C36908   2.990   1.937   9.819 -0.3841 -0.2237 -0.3798
 1015MOL0     C36909   2.979   1.991   9.944  0.2603 -0.0755  0.5808
 1015MOL0     C36910   2.886   1.949  10.048 -0.6185 -0.8192 -0.8025
 1015MOL0     C36911   2.747   2.013  10.047  0.3136  0.0486  0.5766
 1015MOL0     C36912   2.660   1.955  10.161  0.5658  0.0335 -0.8355
 1015MOL0     C36913   2.514   2.016  10.155 -0.6748  0.4991  0.1824
 1015MOL0     O36914   2.448   1.988  10.277 -0.0388  0.6051  0.9727
 1015MOL0     C36915   2.314   2.022  10.295  0.0302 -0.6938 -0.3825
 1015MOL0     C36916   2.272   2.022  10.430 -0.9130  0.5727  0.2536
 1015MOL0     C36917   2.140   2.051  10.462  0.6243  0.0390  0.5903
 1015MOL0     C36918   2.049   2.085  10.363  0.3888 -1.3465 -0.2857
 1015MOL0     C36919   1.906   2.100  10.395  0.5091 -0.8926  0.9062
 1015MOL0     O36920   1.821   2.144  10.293  0.2192 -0.4183  0.2402
 1015MOL0     C36921   1.686   2.148  10.310  0.4219  0.2044 -0.0910
 1015MOL0     C36922   1.622   2.037  10.362 -0.6837 -0.2193  0.4853
 1015MOL0     C36923   1.485   2.043  10.384 -0.1365  0.2828  1.1699
 1015MOL0     C36924   1.409   2.159  10.349 -0.6442 -0.1604 -0.8794
 1015MOL0     O36925   1.276   2.178  10.378 -0.0498  0.0008 -0.2302
 1015MOL0     C36926   1.251   2.274  10.477 -0.0396 -0.6674 -0.1854
 1015MOL0     C36927   1.330   2.277  10.612  0.1893  0.5676  0.2478
 1015MOL0     C36928   1.302   2.161  10.704  1.2215  0.5367  0.3104
 1015MOL0     C36929   1.161   2.184  10.773  0.3368  0.2567  0.0045
 1015MOL0     C36930   1.105   2.057  10.841 -0.1170  0.4569 -0.6258
 1015MOL0     C36931   1.201   1.990  10.941  0.1917 -0.9231 -0.8051
 1015MOL0     C36932   1.148   1.850  10.985 -0.3011  0.1411 -0.2451
 1015MOL0     C36933   1.117   1.758  10.868  0.1443  0.1759 -0.6964
 1015MOL0    Cl36934   1.252   1.720  10.756  0.0373 -0.3077  0.0018
 1015MOL0     C36935   1.477   2.274  10.298  0.5017  0.2136  0.1642
 1015MOL0     C36936   1.612   2.263  10.275 -0.6594  0.7390  0.5511
 1015MOL0     O36937   1.874   2.089  10.510  0.8072  0.6521  0.2249
 1015MOL0     C36938   2.104   2.109  10.236  0.3271  0.5061  0.1951
 1015MOL0     C36939   2.237   2.084  10.204  0.3373 -0.7476 -0.0071
 1015MOL0     N36940   3.061   2.107   9.941 -0.0223 -0.2880 -0.0139
 1015MOL0     N36941   3.131   2.116   9.834 -0.5643 -0.1414 -1.0358
 1015MOL0     C36942   3.423   0.994   9.427 -0.3160 -0.6089  0.5888
 1015MOL0     C36943   3.495   0.895   9.356  0.3733 -0.0505 -0.3449
 1015MOL0     C36944   3.792   0.783   9.010  0.0568 -0.7528 -0.1928
 1015MOL0     C36945   3.773   0.640   9.024 -0.2034 -0.1072  0.1220
 1015MOL0     C36946   3.860   0.550   8.962  0.3635  0.1807 -0.0404
 1015MOL0     C36947   3.968   0.596   8.885  1.1476 -0.5361  0.6119
 1015MOL0     O36948   4.065   0.508   8.842 -0.0271 -0.3576  0.2494
 1015MOL0     C36949   4.087   0.496   8.700 -0.3351 -1.5627  0.1749
 1015MOL0     C36950   4.201   0.410   8.656  0.1217 -0.5701  0.9208
 1015MOL0     C36951   4.319   0.468   8.740  0.5554  0.9043  0.2892
 1015MOL0     C36952   4.452   0.387   8.714  0.4326  0.3846  0.6442
 1015MOL0     C36953   4.551   0.428   8.809  0.3465 -0.3742 -0.2712
 1015MOL0     C36954   4.633   0.455   8.891 -0.3186 -0.0294  0.2644
 1015MOL0     C36955   3.980   0.733   8.870 -0.0958 -0.7389 -0.0784
 1015MOL0     C36956   3.901   0.826   8.933 -0.9431 -0.4573  0.4125
 1015MOL0     C36957   3.938   0.972   8.906  0.7282  0.3527 -0.0875
 1015MOL0     H36958   3.443   0.994   9.034 -0.6640  2.5632  0.0141
 1015MOL0     H36959   3.321   1.181   9.173  1.6496  0.6763 -1.0193
 1015MOL0     H36960   3.157   1.252   9.569  0.8889  0.5377  0.9297
 1015MOL0     H36961   3.244   1.093   9.577 -1.1195  0.9629  3.3945
 1015MOL0     H36962   3.457   1.225   9.598  0.8168  0.2289 -0.4590
 1015MOL0     H36963   3.334   1.275   9.721 -4.2156 -0.9323 -0.0929
 1015MOL0     H36964   3.369   1.403   9.453 -0.3148 -0.9573  0.6277
 1015MOL0     H36965   3.475   1.450   9.588  2.0208  0.0261 -2.4550
 1015MOL0     H36966   3.167   1.493   9.561  1.0262 -3.2567  0.1319
 1015MOL0     H36967   3.250   1.506   9.719  1.6115  1.6849  1.2020
 1015MOL0     H36968   3.395   1.685   9.614 -0.3353 -0.8967  0.1960
 1015MOL0     H36969   3.295   1.690   9.468  0.8416 -1.5893  0.2050
 1015MOL0     H36970   3.098   1.725   9.588 -0.5340 -0.7334  0.9955
 1015MOL0     H36971   3.198   1.744   9.747  2.2794  2.0632  0.8946
 1015MOL0     H36972   3.240   1.898   9.485  0.4214 -1.7821  0.4179
 1015MOL0     H36973   3.306   1.933   9.653 -0.8731 -2.3957  2.3382
 1015MOL0     H36974   3.162   2.104   9.575  1.5307  1.0030  3.2791
 1015MOL0     H36975   3.027   1.971   9.564 -0.4442 -2.2318  0.2720
 1015MOL0     H36976   2.943   1.848   9.778  3.0250 -2.0540 -0.6207
 1015MOL0     H36977   2.870   1.842  10.032 -1.5576 -0.4209 -2.7183
 1015MOL0     H36978   2.924   1.966  10.149  1.6955  0.2504 -1.7887
 1015MOL0     H36979   2.751   2.121  10.064 -2.7761  0.4176 -0.4414
 1015MOL0     H36980   2.693   2.006   9.952 -2.0926  3.2050  1.5217
 1015MOL0     H36981   2.702   1.995  10.254  1.7662 -1.9718 -0.4495
 1015MOL0     H36982   2.650   1.847  10.172 -0.6547  0.1571 -0.5459
 1015MOL0     H36983   2.471   1.976  10.062  1.8354 -1.1425 -0.3493
 1015MOL0     H36984   2.516   2.124  10.134  1.3597  0.2541 -1.0951
 1015MOL0     H36985   2.341   1.973  10.499 -3.8282  1.0806  3.8379
 1015MOL0     H36986   2.109   2.033  10.564  3.4879 -0.5885  1.4173
 1015MOL0     H36987   1.669   1.940  10.372  1.3778  0.5176 -1.2486
 1015MOL0     H36988   1.423   1.956  10.402 -2.0034  1.7004  1.9273
 1015MOL0     H36989   1.262   2.374  10.433  0.7859 -1.1015 -1.0089
 1015MOL0     H36990   1.147   2.263  10.508 -0.4922  0.9411 -1.0181
 1015MOL0     H36991   1.438   2.280  10.591  0.0955 -4.5163 -2.5300
 1015MOL0     H36992   1.293   2.371  10.653 -2.2964  0.3022 -1.2073
 1015MOL0     H36993   1.307   2.062  10.659 -1.5707 -0.4147  1.8667
 1015MOL0     H36994   1.369   2.150  10.790 -1.6100 -2.0463  2.4088
 1015MOL0     H36995   1.078   2.213  10.708 -0.5145  0.3119  1.0836
 1015MOL0     H36996   1.180   2.258  10.852 -0.3818 -1.4159  1.8338
 1015MOL0     H36997   1.072   1.984  10.767  0.0430 -1.7444  1.3445
 1015MOL0     H36998   1.020   2.090  10.902  0.1298  4.3630 -2.1112
 1015MOL0     H36999   1.295   1.981  10.885  1.5575  0.4068  1.1441
 1015MOL0     H37000   1.239   2.051  11.023  1.0051 -0.6722 -1.3548
 1015MOL0     H37001   1.055   1.868  11.039 -0.6911 -0.8305 -0.5700
 1015MOL0     H37002   1.215   1.797  11.054 -2.5309  0.0874  2.0130
 1015MOL0     H37003   1.084   1.663  10.909  0.3437  0.8019  0.9757
 1015MOL0     H37004   1.023   1.788  10.820 -0.0212  0.2210 -0.3445
 1015MOL0     H37005   1.426   2.369  10.287 -2.7956 -1.0613  2.7976
 1015MOL0     H37006   1.674   2.349  10.249  0.5982 -0.2323  0.2242
 1015MOL0     H37007   2.036   2.158  10.167  3.2031  1.3393 -2.2523
 1015MOL0     H37008   2.270   2.089  10.101  0.5503 -0.4392  0.0754
 1015MOL0     H37009   3.425   0.986   9.535 -3.3790 -0.3754  0.7636
 1015MOL0     H37010   3.552   0.822   9.412  0.6331  1.0137  0.8091
 1015MOL0     H37011   3.692   0.593   9.079 -1.5457  1.5400 -0.3718
 1015MOL0     H37012   3.837   0.445   8.976 -2.3907  0.4994 -1.4359
 1015MOL0     H37013   4.104   0.598   8.662 -2.1004 -2.0140 -2.0109
 1015MOL0     H37014   3.998   0.456   8.652 -0.4620  2.3585 -3.4667
 1015MOL0     H37015   4.225   0.427   8.550  2.4539 -3.0422  0.9453
 1015MOL0     H37016   4.178   0.303   8.663  0.5249 -0.9081 -1.6630
 1015MOL0     H37017   4.278   0.445   8.839 -2.4931 -0.5298 -1.1656
 1015MOL0     H37018   4.346   0.573   8.731 -0.3175  1.4667  3.2457
 1015MOL0     H37019   4.428   0.283   8.737 -0.6995  0.8052  1.4882
 1015MOL0     H37020   4.501   0.392   8.616  0.6124 -0.8941  0.6602
 1015MOL0     H37021   4.699   0.486   8.969 -0.9157 -1.5644  1.4124
 1015MOL0     H37022   4.065   0.752   8.805 -1.0313 -0.6693 -1.3231
 1015MOL0     H37023   3.990   1.021   8.989  0.9678 -1.0506  0.6155
 1015MOL0     H37024   4.011   0.984   8.825  0.5027  2.0058 -0.0796
 1015MOL0     H37025   3.850   1.030   8.874  0.0805 -0.9428 -0.7416
 1016MOL0     O37026   9.761   4.314   6.732 -0.0981 -0.1669 -0.4097
 1016MOL0     C37027   9.765   4.428   6.775 -0.7008 -0.5066 -0.0537
 1016MOL0     O37028   9.844   4.526   6.712  0.6014 -0.2434 -0.0307
 1016MOL0     C37029   9.851   4.642   6.777 -0.3418 -0.2381  0.5786
 1016MOL0     C37030   9.748   4.744   6.775 -0.1135  0.6267  0.6759
 1016MOL0     C37031   9.754   4.855   6.858 -0.2401  0.5766  0.9275
 1016MOL0     C37032   9.874   4.880   6.924  0.6851 -0.6215  0.2938
 1016MOL0     O37033   9.880   5.003   6.993 -0.8821  0.6408 -0.1853
 1016MOL0     C37034   9.957   5.000   7.117  0.1983 -0.7442 -0.1893
 1016MOL0     C37035   9.961   5.146   7.167  0.1665 -0.3565  0.0957
 1016MOL0     C37036  10.037   5.159   7.296  0.1003 -0.1931  0.5012
 1016MOL0     C37037   9.944   5.138   7.417 -0.2084  0.0528 -0.3982
 1016MOL0     C37038  10.013   5.163   7.558 -0.2528  0.3126 -0.7628
 1016MOL0     C37039  10.091   5.044   7.608  0.0100 -0.1705 -0.1737
 1016MOL0     C37040  10.197   5.091   7.705 -0.2028 -0.9962 -0.5983
 1016MOL0     C37041  10.262   4.980   7.779  0.4663 -0.0352  0.1240
 1016MOL0     N37042  10.364   5.043   7.867  0.8377  0.2544  0.3025
 1016MOL0     C37043  10.354   5.059   8.004 -0.5340 -0.7732  0.8268
 1016MOL0     C37044  10.470   5.125   8.030  0.3602  0.5775 -0.8365
 1016MOL0     C37045  10.517   5.159   8.169 -0.5560  0.6814 -0.1749
 1016MOL0     C37046  10.666   5.119   8.202  0.4540 -0.4481 -0.4419
 1016MOL0     C37047  10.763   5.237   8.233 -0.1772  0.6206  0.8828
 1016MOL0     C37048  10.761   5.348   8.125 -0.3803  0.5642 -0.1690
 1016MOL0     O37049  10.873   5.435   8.154 -0.6293  0.3702  0.6040
 1016MOL0     C37050  10.990   5.418   8.086  0.3975  0.1343 -0.6450
 1016MOL0     C37051  11.033   5.304   8.024 -0.5590 -0.0167  0.8311
 1016MOL0     C37052  11.158   5.307   7.965  0.9485  0.0640 -0.5754
 1016MOL0     C37053  11.247   5.409   7.967 -0.2402  0.3806  0.0554
 1016MOL0     C37054  11.382   5.400   7.900  0.2595  0.1774 -0.5317
 1016MOL0     O37055  11.484   5.487   7.939  0.3594 -0.0467  1.0198
 1016MOL0     C37056  11.606   5.469   7.874 -0.2724  0.4848 -0.0919
 1016MOL0     C37057  11.718   5.467   7.961 -0.5501  0.6117 -0.6260
 1016MOL0     C37058  11.846   5.451   7.921  0.3810 -1.4814 -0.4111
 1016MOL0     C37059  11.876   5.437   7.787 -0.8763  0.8654 -0.1353
 1016MOL0     O37060  12.003   5.450   7.749 -0.3654  0.0754 -0.5808
 1016MOL0     C37061  12.072   5.322   7.733 -0.4419  0.0044 -0.2570
 1016MOL0     C37062  12.225   5.354   7.741 -0.2612 -0.5578 -0.7826
 1016MOL0     C37063  12.266   5.399   7.883 -1.1796 -0.3576  0.2800
 1016MOL0     C37064  12.424   5.405   7.893  0.0562  0.3404  0.4705
 1016MOL0     C37065  12.444   5.450   8.038 -0.0619 -0.0782 -0.2617
 1016MOL0     C37066  12.599   5.464   8.063  0.6668 -0.4366  0.8290
 1016MOL0     C37067  12.622   5.498   8.212 -0.0631 -0.0648  0.1472
 1016MOL0     C37068  12.763   5.452   8.256  0.0448 -0.7576 -0.3023
 1016MOL0    Cl37069  12.822   5.541   8.391  0.1631 -0.0997  0.1184
 1016MOL0     C37070  11.771   5.438   7.696  0.1424  0.4935  0.0911
 1016MOL0     C37071  11.638   5.446   7.741 -0.9810 -0.0840  0.2775
 1016MOL0     O37072  11.385   5.313   7.815 -0.4131  0.8738 -0.2607
 1016MOL0     C37073  11.206   5.527   8.032  0.0912  0.0592 -0.0241
 1016MOL0     C37074  11.078   5.528   8.087  0.1539 -0.4722 -0.3919
 1016MOL0     N37075  10.542   5.133   7.914  0.2195  0.1630  0.0169
 1016MOL0     N37076  10.481   5.086   7.819 -0.3723 -0.2232  0.2015
 1016MOL0     C37077   9.972   4.788   6.921 -0.5149  0.6926 -0.8423
 1016MOL0     C37078   9.965   4.665   6.853 -0.1914  0.1945  0.1061
 1016MOL0     C37079   9.705   4.435   6.912 -0.3746 -0.1273 -0.9664
 1016MOL0     C37080   9.792   4.444   7.027  0.0579  0.3844  0.0897
 1016MOL0     C37081   9.733   4.442   7.153  1.0870  0.4256  0.0457
 1016MOL0     C37082   9.592   4.439   7.181  0.4908  0.0995 -0.1115
 1016MOL0     O37083   9.553   4.447   7.312  0.5527 -0.4263 -0.2591
 1016MOL0     C37084   9.411   4.456   7.345 -0.7727 -0.7988 -0.0943
 1016MOL0     C37085   9.393   4.444   7.502  0.0388 -0.1480  0.2771
 1016MOL0     C37086   9.429   4.296   7.545  0.4912 -0.3162  0.1225
 1016MOL0     C37087   9.440   4.283   7.694  0.2328  0.4703  0.4850
 1016MOL0     C37088   9.563   4.343   7.746  0.3389  0.2515 -0.3421
 1016MOL0     C37089   9.670   4.387   7.784  0.0005 -0.4090 -0.0262
 1016MOL0     C37090   9.504   4.442   7.062  0.3093  0.2280 -0.0236
 1016MOL0     C37091   9.561   4.426   6.933 -0.8283  0.6341  0.0418
 1016MOL0     C37092   9.465   4.414   6.825  0.2224 -1.0576 -0.0861
 1016MOL0     H37093   9.653   4.739   6.723 -0.6538  2.0645  1.4701
 1016MOL0     H37094   9.674   4.928   6.866  0.9264  1.6340  4.4910
 1016MOL0     H37095   9.892   4.937   7.178 -0.9117  0.8548  0.3450
 1016MOL0     H37096  10.057   4.956   7.121  0.2467 -0.5592  0.8702
 1016MOL0     H37097   9.855   5.176   7.166 -0.2180 -1.6063 -1.5077
 1016MOL0     H37098  10.014   5.208   7.095  0.9491  0.5800  1.4399
 1016MOL0     H37099  10.082   5.259   7.304 -1.6651  0.5648  1.7166
 1016MOL0     H37100  10.123   5.092   7.301  1.6798  1.4979 -1.7606
 1016MOL0     H37101   9.858   5.205   7.410 -0.8101 -0.6858 -0.1746
 1016MOL0     H37102   9.913   5.033   7.418  2.6525 -0.9028  0.9726
 1016MOL0     H37103  10.077   5.251   7.554 -1.9840  1.7149  0.4990
 1016MOL0     H37104   9.935   5.184   7.632  0.6353  2.1795 -0.3036
 1016MOL0     H37105  10.017   4.977   7.652  0.0423 -0.2167 -0.1919
 1016MOL0     H37106  10.142   4.991   7.528 -2.0434  1.1426 -2.5095
 1016MOL0     H37107  10.160   5.159   7.782 -0.0480  0.5204 -1.8120
 1016MOL0     H37108  10.275   5.148   7.652  2.1606 -1.7143  1.8552
 1016MOL0     H37109  10.200   4.915   7.841 -0.9961  0.9861 -0.2184
 1016MOL0     H37110  10.301   4.916   7.700  0.2474  0.9853 -0.8317
 1016MOL0     H37111  10.276   5.025   8.071 -1.1405 -0.9207  0.0571
 1016MOL0     H37112  10.500   5.261   8.205  2.9303  0.8075  1.5114
 1016MOL0     H37113  10.449   5.094   8.225  0.0919  0.1311 -0.0111
 1016MOL0     H37114  10.652   5.061   8.294 -1.1624  2.6511  1.4395
 1016MOL0     H37115  10.717   5.057   8.129  1.4931 -2.0483  1.5323
 1016MOL0     H37116  10.862   5.191   8.240 -0.3432  0.2694  0.9253
 1016MOL0     H37117  10.737   5.278   8.331  1.1781 -3.0829  2.9700
 1016MOL0     H37118  10.670   5.408   8.133  1.3122  3.1478  1.2285
 1016MOL0     H37119  10.759   5.290   8.032  0.8983 -3.7497  2.2260
 1016MOL0     H37120  10.975   5.212   8.031  0.1644 -0.4408  1.3655
 1016MOL0     H37121  11.190   5.218   7.912 -4.8313 -2.3034 -0.7095
 1016MOL0     H37122  11.709   5.479   8.069 -1.4948 -1.1574 -0.4566
 1016MOL0     H37123  11.921   5.458   8.000  1.6702 -0.6826 -1.6604
 1016MOL0     H37124  12.048   5.251   7.812  2.8199 -1.3143 -0.2854
 1016MOL0     H37125  12.050   5.278   7.635 -1.9725 -0.5252  0.2930
 1016MOL0     H37126  12.282   5.262   7.720  0.2770 -0.4019 -0.0576
 1016MOL0     H37127  12.256   5.431   7.669 -1.4437 -0.3609 -1.1097
 1016MOL0     H37128  12.223   5.495   7.912 -3.5919 -0.4250 -2.5481
 1016MOL0     H37129  12.225   5.332   7.959 -1.9314 -2.5455 -1.9080
 1016MOL0     H37130  12.466   5.479   7.824  0.1780  0.5117  0.7268
 1016MOL0     H37131  12.468   5.306   7.885 -0.8659 -0.0628  0.2611
 1016MOL0     H37132  12.406   5.371   8.103 -2.8040  2.1771  1.0708
 1016MOL0     H37133  12.383   5.538   8.059 -2.0040 -0.9332 -1.9975
 1016MOL0     H37134  12.640   5.365   8.036  0.3382 -0.0124 -1.4629
 1016MOL0     H37135  12.647   5.544   8.006  0.8280 -0.3641  1.0654
 1016MOL0     H37136  12.544   5.439   8.262 -1.6648  0.6396 -1.3984
 1016MOL0     H37137  12.613   5.604   8.235  1.5305  0.7354 -2.4925
 1016MOL0     H37138  12.760   5.343   8.269  2.5494 -0.8969 -0.5129
 1016MOL0     H37139  12.842   5.461   8.180 -3.6738  1.9278 -4.3297
 1016MOL0     H37140  11.801   5.450   7.593  0.7217  0.9296  0.3073
 1016MOL0     H37141  11.559   5.443   7.667  0.4365  0.3750 -1.3286
 1016MOL0     H37142  11.267   5.617   8.035  2.4276 -1.3663 -1.2138
 1016MOL0     H37143  11.048   5.609   8.154  3.5922 -1.3058  2.4328
 1016MOL0     H37144  10.058   4.810   6.984 -0.0406  0.7071 -1.4855
 1016MOL0     H37145  10.049   4.598   6.839 -1.7245 -1.7240 -0.4540
 1016MOL0     H37146   9.900   4.439   7.027  0.0276 -2.1506  1.3285
 1016MOL0     H37147   9.802   4.451   7.237 -0.6225  0.4308  1.5280
 1016MOL0     H37148   9.355   4.374   7.299 -1.6124  0.3502 -1.1662
 1016MOL0     H37149   9.362   4.541   7.298 -1.4988 -1.4974 -0.6278
 1016MOL0     H37150   9.290   4.456   7.536  0.3855  0.0996  1.2696
 1016MOL0     H37151   9.457   4.516   7.554 -1.4771 -0.6921  3.0818
 1016MOL0     H37152   9.521   4.260   7.498  0.2820 -3.3475  1.7886
 1016MOL0     H37153   9.349   4.230   7.511 -1.3391  1.7712  0.1347
 1016MOL0     H37154   9.356   4.342   7.731  1.1748  3.1628 -1.4001
 1016MOL0     H37155   9.447   4.183   7.738  1.6128  0.3781  0.1175
 1016MOL0     H37156   9.770   4.424   7.800  0.6219 -0.8301 -2.5155
 1016MOL0     H37157   9.397   4.443   7.083  0.7828 -2.0251  3.2762
 1016MOL0     H37158   9.495   4.391   6.722  2.6097  0.7631  0.1128
 1016MOL0     H37159   9.382   4.348   6.851 -1.4396  1.8066  2.4246
 1016MOL0     H37160   9.430   4.516   6.808  1.5083 -1.0101 -3.1277
 1017MOL0     O37161   1.328   0.540   3.101 -0.3638 -0.6449  0.3207
 1017MOL0     C37162   1.252   0.565   3.006  0.3297 -0.9423 -0.6283
 1017MOL0     O37163   1.172   0.683   2.997  1.0672  0.5366  0.0932
 1017MOL0     C37164   1.203   0.788   3.082 -0.3100 -0.6848  0.1613
 1017MOL0     C37165   1.331   0.834   3.102  0.3350 -0.5754 -0.7732
 1017MOL0     C37166   1.350   0.960   3.162  0.4022  0.8812 -0.4913
 1017MOL0     C37167   1.239   1.040   3.205  0.0533  0.4951 -0.2544
 1017MOL0     O37168   1.258   1.154   3.276 -0.2807 -0.2971  0.0002
 1017MOL0     C37169   1.379   1.229   3.247  0.4708 -0.3373 -0.7061
 1017MOL0     C37170   1.371   1.368   3.316 -0.5433  0.5921  0.0032
 1017MOL0     C37171   1.495   1.454   3.285  0.2526  0.5221 -0.4847
 1017MOL0     C37172   1.618   1.435   3.368 -0.6014  0.4514  0.9567
 1017MOL0     C37173   1.744   1.504   3.307  0.0035  0.5678  0.4579
 1017MOL0     C37174   1.865   1.417   3.333 -0.4793  0.4699  0.1756
 1017MOL0     C37175   1.997   1.488   3.304 -0.1955  0.6231  0.7165
 1017MOL0     C37176   2.119   1.412   3.350 -0.0577 -1.0471  0.5546
 1017MOL0     N37177   2.109   1.273   3.291  0.1458 -0.6653  0.3021
 1017MOL0     C37178   2.059   1.160   3.356  0.1154 -0.3600 -0.2891
 1017MOL0     C37179   2.053   1.063   3.268  0.0910 -0.1841  0.2431
 1017MOL0     C37180   2.006   0.914   3.295 -0.2446 -0.7635 -0.4440
 1017MOL0     C37181   1.852   0.899   3.278 -0.3567 -0.4634 -0.6071
 1017MOL0     C37182   1.808   0.759   3.327 -0.6700  0.0753 -0.0003
 1017MOL0     C37183   1.651   0.749   3.319 -0.1743 -0.4120 -1.1133
 1017MOL0     O37184   1.630   0.642   3.423  0.0011  0.2824 -0.0410
 1017MOL0     C37185   1.506   0.620   3.484  0.3657  1.2465 -0.0803
 1017MOL0     C37186   1.382   0.664   3.437  0.1618 -0.7618  0.0247
 1017MOL0     C37187   1.272   0.671   3.525 -0.3019 -0.5219  1.7533
 1017MOL0     C37188   1.284   0.626   3.656  0.0964  0.0551 -0.4553
 1017MOL0     C37189   1.160   0.617   3.741  0.1362  0.2164 -0.2400
 1017MOL0     O37190   1.037   0.594   3.677 -0.9964 -0.2442 -0.1724
 1017MOL0     C37191   0.916   0.575   3.733 -0.5078  1.0256 -0.1382
 1017MOL0     C37192   0.804   0.591   3.654 -0.4377  0.1738 -0.7503
 1017MOL0     C37193   0.668   0.566   3.700 -0.3817 -0.2185  0.4420
 1017MOL0     C37194   0.658   0.496   3.824  0.4132 -0.2574  0.4869
 1017MOL0     O37195   0.550   0.447   3.883 -0.2534 -0.2536  0.3364
 1017MOL0     C37196   0.429   0.445   3.811  0.4739  0.1893 -0.8582
 1017MOL0     C37197   0.356   0.567   3.852 -0.2756  0.1392 -0.2595
 1017MOL0     C37198   0.222   0.564   3.772  0.8006  0.5123 -0.3948
 1017MOL0     C37199   0.143   0.688   3.801 -0.3957  0.1338 -0.9219
 1017MOL0     C37200   0.047   0.726   3.686 -0.5183  1.0699  0.2743
 1017MOL0     C37201  -0.056   0.841   3.730 -0.6838 -0.0633  0.8058
 1017MOL0     C37202  -0.120   0.895   3.605  1.0093 -0.0267  0.2885
 1017MOL0     C37203  -0.234   0.988   3.636  0.2190  0.6813 -0.5419
 1017MOL0    Cl37204  -0.364   0.898   3.723 -0.3763  0.3660 -0.2457
 1017MOL0     C37205   0.775   0.478   3.894  0.1468 -0.1422  0.6223
 1017MOL0     C37206   0.898   0.512   3.853 -0.3639 -0.0288  0.9573
 1017MOL0     O37207   1.173   0.624   3.865  0.7116  0.2781  0.2719
 1017MOL0     C37208   1.410   0.575   3.696 -0.9606 -0.4085  0.1070
 1017MOL0     C37209   1.520   0.577   3.612  0.2295  0.5958 -0.0155
 1017MOL0     N37210   2.098   1.105   3.145  0.2748 -0.2571  0.3311
 1017MOL0     N37211   2.121   1.240   3.161  0.2993 -0.0178  0.5358
 1017MOL0     C37212   1.108   0.992   3.187 -0.1619  0.9166 -0.4474
 1017MOL0     C37213   1.089   0.864   3.126  0.1846  0.1337 -0.2801
 1017MOL0     C37214   1.233   0.459   2.906 -0.0462 -0.0695  0.0365
 1017MOL0     C37215   1.130   0.487   2.808  0.5172 -0.9311 -0.6007
 1017MOL0     C37216   1.106   0.408   2.697  0.8790  0.7837 -0.0694
 1017MOL0     C37217   1.178   0.287   2.682 -0.6172 -0.2946  0.0284
 1017MOL0     O37218   1.146   0.218   2.568  0.4116 -0.4046  0.1253
 1017MOL0     C37219   1.263   0.201   2.489  0.5071 -0.0168  0.6951
 1017MOL0     C37220   1.252   0.055   2.436 -0.0805 -0.3677 -0.1291
 1017MOL0     C37221   1.366   0.012   2.345 -0.2642 -0.0827  0.0020
 1017MOL0     C37222   1.367  -0.140   2.339 -0.9387  0.2830 -0.7185
 1017MOL0     C37223   1.472  -0.175   2.239 -0.1429  0.2826 -1.0390
 1017MOL0     C37224   1.543  -0.218   2.155 -0.5765 -0.2800 -0.4784
 1017MOL0     C37225   1.269   0.249   2.787 -0.0412  0.2278  0.4698
 1017MOL0     C37226   1.300   0.333   2.892 -0.5069  0.4706 -1.0683
 1017MOL0     C37227   1.400   0.281   2.993  0.4426  0.5369 -0.0609
 1017MOL0     H37228   1.420   0.779   3.074 -0.9118 -3.6465  0.8610
 1017MOL0     H37229   1.449   0.993   3.190 -0.7110  0.9866  4.1648
 1017MOL0     H37230   1.469   1.174   3.277 -1.3029 -2.5290  0.8695
 1017MOL0     H37231   1.377   1.253   3.141 -1.6074  0.0912 -0.6036
 1017MOL0     H37232   1.352   1.345   3.421 -0.7951 -1.5226 -0.4587
 1017MOL0     H37233   1.287   1.429   3.280 -0.1748  1.2373  0.2068
 1017MOL0     H37234   1.449   1.553   3.290 -1.3847 -0.1816 -1.0107
 1017MOL0     H37235   1.519   1.443   3.178 -0.7762 -1.3196 -0.5743
 1017MOL0     H37236   1.583   1.469   3.466 -5.3281  0.5981 -0.5032
 1017MOL0     H37237   1.649   1.331   3.373  0.7781  0.6556 -1.5824
 1017MOL0     H37238   1.736   1.514   3.198  1.3299 -1.1953  0.1471
 1017MOL0     H37239   1.752   1.598   3.363 -0.0012  1.4158 -0.9144
 1017MOL0     H37240   1.871   1.380   3.435  0.4615 -2.1459 -0.7461
 1017MOL0     H37241   1.857   1.332   3.264  2.2449  0.9609 -0.8806
 1017MOL0     H37242   2.002   1.592   3.339 -0.4550  1.3354 -1.2439
 1017MOL0     H37243   1.999   1.487   3.195  0.4123  0.2512  0.7239
 1017MOL0     H37244   2.199   1.474   3.309 -2.1289 -0.5980 -3.2305
 1017MOL0     H37245   2.134   1.417   3.458  1.9692  0.2149  0.2620
 1017MOL0     H37246   2.038   1.167   3.462 -0.4848 -0.4827 -0.4000
 1017MOL0     H37247   2.051   0.839   3.230 -1.3082 -0.6507 -1.3502
 1017MOL0     H37248   2.036   0.899   3.399 -1.1098 -0.2418 -0.1047
 1017MOL0     H37249   1.798   0.963   3.348  1.3669 -1.2605  1.5835
 1017MOL0     H37250   1.818   0.920   3.176 -0.0319  0.6834 -0.4964
 1017MOL0     H37251   1.838   0.765   3.432  0.0039  1.9852 -0.2637
 1017MOL0     H37252   1.855   0.680   3.267 -2.6216 -0.4396 -0.9388
 1017MOL0     H37253   1.605   0.715   3.226 -1.8827  0.5202 -0.6491
 1017MOL0     H37254   1.600   0.844   3.340  1.7937  0.9807 -2.3731
 1017MOL0     H37255   1.374   0.706   3.338  1.7049  1.1687  0.6388
 1017MOL0     H37256   1.176   0.702   3.485 -0.4180  2.9177  4.2162
 1017MOL0     H37257   0.818   0.631   3.554  2.0992 -1.7701 -1.2520
 1017MOL0     H37258   0.585   0.594   3.636 -0.1870  1.1425  0.7449
 1017MOL0     H37259   0.436   0.438   3.702  2.8223  1.3025 -0.8433
 1017MOL0     H37260   0.368   0.361   3.845 -0.4235  1.6920  1.4617
 1017MOL0     H37261   0.355   0.586   3.959  2.0828 -0.9683  0.0216
 1017MOL0     H37262   0.427   0.639   3.809  0.5365 -0.7853 -0.5002
 1017MOL0     H37263   0.238   0.542   3.666  0.7218 -3.9588  0.2962
 1017MOL0     H37264   0.170   0.474   3.809  0.2826  1.0927  0.3281
 1017MOL0     H37265   0.218   0.768   3.799  0.4338 -0.5890  0.1086
 1017MOL0     H37266   0.097   0.683   3.900 -1.2928 -3.0893 -1.3761
 1017MOL0     H37267  -0.005   0.638   3.647 -0.7909  0.6790  1.4940
 1017MOL0     H37268   0.109   0.775   3.610 -0.1613  1.3306  0.7245
 1017MOL0     H37269  -0.125   0.793   3.801 -2.9359  1.6347 -0.1463
 1017MOL0     H37270  -0.004   0.920   3.786 -1.2843  2.2007 -1.6835
 1017MOL0     H37271  -0.155   0.813   3.541  0.6052 -0.7103  1.3735
 1017MOL0     H37272  -0.052   0.949   3.538 -1.0025 -0.3199 -2.1438
 1017MOL0     H37273  -0.206   1.067   3.706 -3.2925 -0.1805  2.1093
 1017MOL0     H37274  -0.264   1.025   3.538  0.9646  0.9095 -0.6933
 1017MOL0     H37275   0.761   0.428   3.989  0.8455  0.3422  0.9913
 1017MOL0     H37276   0.974   0.493   3.928 -0.1355  0.1806  0.7836
 1017MOL0     H37277   1.419   0.529   3.794  1.9797  0.6076  0.4053
 1017MOL0     H37278   1.612   0.534   3.650  1.4922  2.9681 -0.1813
 1017MOL0     H37279   1.014   1.045   3.205 -0.4853 -0.1405  1.1677
 1017MOL0     H37280   0.991   0.823   3.103  0.5545 -1.1646  0.3162
 1017MOL0     H37281   1.078   0.582   2.808 -0.2547 -1.3247  0.7629
 1017MOL0     H37282   1.033   0.435   2.621 -0.5594  2.3081  1.7632
 1017MOL0     H37283   1.355   0.231   2.541  0.6055 -0.1092  0.5746
 1017MOL0     H37284   1.254   0.261   2.398 -3.4805 -1.8630 -0.3290
 1017MOL0     H37285   1.156   0.041   2.385 -1.2067  1.1711  1.4424
 1017MOL0     H37286   1.256  -0.014   2.520 -0.9201 -0.3544 -0.0761
 1017MOL0     H37287   1.460   0.040   2.394 -0.6943  1.6117 -0.0754
 1017MOL0     H37288   1.353   0.058   2.247 -2.8124 -1.4244 -0.3959
 1017MOL0     H37289   1.391  -0.184   2.436  0.6297 -0.4028 -1.3745
 1017MOL0     H37290   1.270  -0.171   2.300 -0.8709 -0.0119 -0.6558
 1017MOL0     H37291   1.602  -0.267   2.081  0.2238  0.8224 -0.5845
 1017MOL0     H37292   1.326   0.156   2.791  2.0547  1.3064 -1.8851
 1017MOL0     H37293   1.344   0.241   3.078  2.3894 -0.2361  0.9056
 1017MOL0     H37294   1.463   0.206   2.945  0.9159  1.6050 -1.1556
 1017MOL0     H37295   1.467   0.357   3.032  0.5625 -0.0730  0.9521
 1018MOL0     O37296   7.646  10.045   4.091 -0.1038 -0.9065  0.1360
 1018MOL0     C37297   7.610  10.116   3.993  0.3809  0.6926 -0.3999
 1018MOL0     O37298   7.684  10.140   3.876 -0.6472 -0.9324 -0.5731
 1018MOL0     C37299   7.822  10.115   3.900  0.3795  0.0779 -0.0704
 1018MOL0     C37300   7.894  10.220   3.957 -0.2259  0.8796 -0.5694
 1018MOL0     C37301   8.031  10.199   3.975  0.2689 -0.2724 -0.6605
 1018MOL0     C37302   8.097  10.080   3.952  0.1792  0.0645 -0.3375
 1018MOL0     O37303   8.224  10.057   3.995 -0.1630 -0.1285 -0.1277
 1018MOL0     C37304   8.294   9.933   3.953  0.1640  0.4674 -0.0367
 1018MOL0     C37305   8.440   9.942   3.995  0.3645  0.4259 -0.5271
 1018MOL0     C37306   8.487   9.846   4.099  0.4984 -0.3180 -0.1374
 1018MOL0     C37307   8.612   9.897   4.172 -0.2658  0.6590  0.1223
 1018MOL0     C37308   8.731   9.945   4.095 -1.1469  0.3530 -0.2891
 1018MOL0     C37309   8.859   9.927   4.184  0.2194 -0.1229 -0.6195
 1018MOL0     C37310   8.984   9.960   4.115 -0.7472  0.3699  0.1123
 1018MOL0     C37311   8.981  10.096   4.064 -0.0679 -0.3245 -0.4951
 1018MOL0     N37312   9.113  10.147   4.071  0.5107  1.0764 -0.5704
 1018MOL0     C37313   9.144  10.252   4.149 -0.1338  0.5006 -0.0888
 1018MOL0     C37314   9.262  10.293   4.102 -0.4551 -0.3448  0.0183
 1018MOL0     C37315   9.342  10.413   4.156  0.3801  0.1102  0.1419
 1018MOL0     C37316   9.437  10.371   4.262  0.4541  0.3979 -0.8034
 1018MOL0     C37317   9.470  10.484   4.362 -0.6709 -0.3199  0.0690
 1018MOL0     C37318   9.544  10.598   4.294  0.0138  0.7694 -1.0752
 1018MOL0     O37319   9.667  10.560   4.223 -0.4139  0.2626  0.5048
 1018MOL0     C37320   9.778  10.529   4.298  0.2633 -0.2361  0.4014
 1018MOL0     C37321   9.803  10.567   4.438 -0.4436 -0.9838 -0.5296
 1018MOL0     C37322   9.922  10.560   4.500  0.0941  0.5433 -0.3000
 1018MOL0     C37323  10.036  10.510   4.424 -0.2274  0.5350  1.3149
 1018MOL0     C37324  10.184  10.509   4.467 -0.0801  1.0866 -1.0442
 1018MOL0     O37325  10.283  10.460   4.389 -0.1099 -0.4188 -0.0382
 1018MOL0     C37326  10.415  10.474   4.424  0.7527 -0.6015  0.4878
 1018MOL0     C37327  10.474  10.601   4.459 -0.0062  0.3008 -0.6922
 1018MOL0     C37328  10.600  10.606   4.499 -0.2239  0.5566  0.6542
 1018MOL0     C37329  10.679  10.487   4.507  0.9944 -1.1953 -0.3051
 1018MOL0     O37330  10.805  10.480   4.547 -0.7029 -0.8326  0.6657
 1018MOL0     C37331  10.886  10.593   4.584  0.2869 -0.6085 -0.0157
 1018MOL0     C37332  11.027  10.565   4.599 -1.0110 -0.3411 -0.1737
 1018MOL0     C37333  11.100  10.665   4.685 -0.8258  0.8980 -0.6724
 1018MOL0     C37334  11.236  10.620   4.739  0.8032 -0.1241 -0.3133
 1018MOL0     C37335  11.308  10.718   4.833  0.3491  0.0670 -0.4338
 1018MOL0     C37336  11.453  10.701   4.806  0.1829 -0.0189 -0.0028
 1018MOL0     C37337  11.535  10.803   4.880 -1.0390  0.0700  0.8435
 1018MOL0     C37338  11.685  10.774   4.869  0.1195  0.2054  0.1080
 1018MOL0    Cl37339  11.720  10.626   4.960  0.6350 -0.3432  0.4681
 1018MOL0     C37340  10.624  10.366   4.462 -1.0285 -1.7930  0.1070
 1018MOL0     C37341  10.492  10.359   4.411  0.0924 -0.3931  0.5922
 1018MOL0     O37342  10.197  10.550   4.581  0.2361  0.1164  0.8704
 1018MOL0     C37343  10.015  10.476   4.288  1.2522  0.0022 -0.1365
 1018MOL0     C37344   9.883  10.469   4.232  0.2643 -0.8818  0.9379
 1018MOL0     N37345   9.303  10.221   3.991  0.3268 -0.1668  0.2449
 1018MOL0     N37346   9.211  10.128   3.975 -0.4755  0.1565 -0.5783
 1018MOL0     C37347   8.022   9.976   3.894 -0.5486  0.3815 -0.0509
 1018MOL0     C37348   7.888  10.000   3.865 -0.2123  0.0072 -1.4682
 1018MOL0     C37349   7.474  10.179   4.008 -0.2163  0.1700 -0.2825
 1018MOL0     C37350   7.425  10.188   4.147 -0.2443 -0.5644 -0.8820
 1018MOL0     C37351   7.297  10.248   4.179  0.0777  0.4379  0.9587
 1018MOL0     C37352   7.228  10.301   4.068 -0.5054 -1.6506  0.1187
 1018MOL0     O37353   7.112  10.372   4.069  0.7783 -0.4683 -0.7164
 1018MOL0     C37354   7.058  10.432   4.188  0.0237  0.6903 -0.2018
 1018MOL0     C37355   6.915  10.474   4.160  0.6651 -0.5628  0.1332
 1018MOL0     C37356   6.906  10.609   4.096  0.3988 -0.5856  0.0654
 1018MOL0     C37357   6.762  10.660   4.076 -0.7767  0.0486 -0.1588
 1018MOL0     C37358   6.744  10.752   3.967 -0.7986 -0.0032  0.5073
 1018MOL0     C37359   6.731  10.832   3.879  0.5724 -0.5840 -0.5787
 1018MOL0     C37360   7.280  10.298   3.936 -0.7018  0.1618  0.2487
 1018MOL0     C37361   7.402  10.235   3.904  0.4815  0.3233  1.9091
 1018MOL0     C37362   7.430  10.213   3.754  0.4054  0.1931  0.1357
 1018MOL0     H37363   7.847  10.316   3.976  0.8070  1.4528 -0.8380
 1018MOL0     H37364   8.091  10.283   4.009  0.5720 -1.1118  0.9952
 1018MOL0     H37365   8.244   9.852   4.007 -2.0809 -0.5713 -3.3404
 1018MOL0     H37366   8.281   9.909   3.847 -1.6996 -0.7477  0.4178
 1018MOL0     H37367   8.456  10.041   4.037  3.1110 -0.9493  2.0441
 1018MOL0     H37368   8.503   9.941   3.907  0.7482  1.3372 -0.2681
 1018MOL0     H37369   8.518   9.756   4.046 -1.5501 -2.1036  1.5096
 1018MOL0     H37370   8.410   9.818   4.172  0.1236  0.7498 -0.1019
 1018MOL0     H37371   8.577   9.987   4.222  0.7239  2.0277 -1.5368
 1018MOL0     H37372   8.642   9.817   4.241 -0.7152 -0.4865 -0.9705
 1018MOL0     H37373   8.741   9.875   4.011 -0.3529  0.2101 -0.0840
 1018MOL0     H37374   8.707  10.048   4.069 -2.1572  0.7639  1.9727
 1018MOL0     H37375   8.847   9.993   4.270  2.2998 -1.8899  1.1474
 1018MOL0     H37376   8.876   9.828   4.228 -0.5126  0.2237  0.4792
 1018MOL0     H37377   9.002   9.891   4.031  3.9133 -0.3795  1.4507
 1018MOL0     H37378   9.073   9.944   4.176  0.6248  0.5698 -1.7416
 1018MOL0     H37379   8.952  10.111   3.960 -0.2749  1.3660 -0.2164
 1018MOL0     H37380   8.918  10.161   4.126  0.6790 -3.1319  3.6130
 1018MOL0     H37381   9.085  10.271   4.238 -1.9120 -2.4330 -0.5077
 1018MOL0     H37382   9.398  10.454   4.072 -0.6792 -0.8317 -1.0597
 1018MOL0     H37383   9.270  10.486   4.193 -3.8402 -2.5157 -2.1390
 1018MOL0     H37384   9.390  10.294   4.324 -0.0079  1.8038  0.6365
 1018MOL0     H37385   9.534  10.331   4.228  1.4699  1.0420  1.1949
 1018MOL0     H37386   9.536  10.438   4.436  1.9015  4.8703  1.4805
 1018MOL0     H37387   9.379  10.514   4.416  0.1878 -0.5522  1.7092
 1018MOL0     H37388   9.567  10.673   4.370 -0.8524  0.6625 -0.7089
 1018MOL0     H37389   9.486  10.638   4.210 -1.4089 -3.4988 -2.4147
 1018MOL0     H37390   9.725  10.622   4.491  1.5695  3.4587 -1.6976
 1018MOL0     H37391   9.925  10.589   4.605  2.3454 -1.8402  0.4243
 1018MOL0     H37392  10.409  10.687   4.466 -0.5601 -0.1228 -0.5206
 1018MOL0     H37393  10.641  10.703   4.523  1.5286  0.8212 -2.7501
 1018MOL0     H37394  10.884  10.669   4.504  1.1023 -1.2402 -0.6499
 1018MOL0     H37395  10.846  10.644   4.673  1.6686 -0.8473  0.7608
 1018MOL0     H37396  11.036  10.466   4.645  2.3322 -0.0908 -0.0277
 1018MOL0     H37397  11.072  10.569   4.500 -1.3163 -0.6723 -0.3288
 1018MOL0     H37398  11.105  10.755   4.623 -0.3398  0.5363 -1.1664
 1018MOL0     H37399  11.033  10.673   4.771 -2.2540 -2.6368 -1.2657
 1018MOL0     H37400  11.301  10.599   4.654 -0.4306  2.1223 -1.9081
 1018MOL0     H37401  11.212  10.527   4.792 -0.4210  1.4251  2.0150
 1018MOL0     H37402  11.293  10.698   4.939 -2.1203  3.3189  0.0044
 1018MOL0     H37403  11.288  10.824   4.811  1.4229  0.2828 -0.4584
 1018MOL0     H37404  11.481  10.608   4.858 -0.4352  1.8173  3.9839
 1018MOL0     H37405  11.481  10.708   4.700 -2.2188 -1.5711 -0.8200
 1018MOL0     H37406  11.510  10.801   4.987  0.9183 -1.8962  1.3428
 1018MOL0     H37407  11.517  10.907   4.852  1.7084  0.5109  0.4488
 1018MOL0     H37408  11.719  10.761   4.766  0.5524 -1.4345  0.4328
 1018MOL0     H37409  11.737  10.862   4.907 -1.1561  1.6602 -1.3463
 1018MOL0     H37410  10.686  10.278   4.473  3.2186  0.7997 -0.8910
 1018MOL0     H37411  10.452  10.270   4.364 -2.3456 -0.5689  2.7585
 1018MOL0     H37412  10.097  10.427   4.236  3.0110 -0.2503  2.6501
 1018MOL0     H37413   9.868  10.430   4.132 -1.9968  0.3507  0.7208
 1018MOL0     H37414   8.063   9.877   3.874 -1.2996 -0.1430  0.8663
 1018MOL0     H37415   7.829   9.918   3.825 -0.4612 -0.4404 -0.2312
 1018MOL0     H37416   7.483  10.148   4.230  1.3387 -0.3813 -1.8468
 1018MOL0     H37417   7.265  10.258   4.283  1.2670  3.2469  1.1517
 1018MOL0     H37418   7.117  10.519   4.218  0.0833 -0.1708  2.3646
 1018MOL0     H37419   7.050  10.355   4.265  1.5222 -1.3721 -1.9792
 1018MOL0     H37420   6.873  10.499   4.258 -1.0277  1.4180 -1.0166
 1018MOL0     H37421   6.859  10.398   4.105  0.4414 -0.8212  0.7123
 1018MOL0     H37422   6.953  10.605   3.997  1.1529  0.1983  0.3839
 1018MOL0     H37423   6.956  10.678   4.165 -0.4583  1.0539 -0.8869
 1018MOL0     H37424   6.702  10.570   4.059 -2.2602  1.4596 -3.0856
 1018MOL0     H37425   6.734  10.703   4.172 -0.5537  0.0635 -0.0980
 1018MOL0     H37426   6.705  10.894   3.796  0.1927 -0.3507 -0.2905
 1018MOL0     H37427   7.223  10.333   3.850 -1.3368  0.7392  0.8962
 1018MOL0     H37428   7.490  10.124   3.733 -2.3503 -1.4383 -1.4941
 1018MOL0     H37429   7.335  10.185   3.707 -1.7828  2.1650  3.0511
 1018MOL0     H37430   7.465  10.304   3.705 -1.1420 -0.9210 -3.4242
 1019MOL0     O37431   2.281   0.756   3.661 -0.6314 -0.7150  0.0025
 1019MOL0     C37432   2.255   0.727   3.781 -0.1478 -1.4722  0.4752
 1019MOL0     O37433   2.343   0.729   3.882  0.5329  0.5279  0.0381
 1019MOL0     C37434   2.473   0.760   3.851  1.2875  0.4290  0.3699
 1019MOL0     C37435   2.546   0.669   3.774 -0.0497  0.8283  0.4785
 1019MOL0     C37436   2.678   0.695   3.732  0.1209 -0.5026  0.4680
 1019MOL0     C37437   2.732   0.824   3.763 -0.6522 -0.1650 -0.2543
 1019MOL0     O37438   2.863   0.848   3.732  0.1935 -0.2855 -0.0054
 1019MOL0     C37439   2.922   0.976   3.730 -0.1077  0.4011 -1.1606
 1019MOL0     C37440   3.000   1.005   3.603 -0.5960 -0.0519  0.3119
 1019MOL0     C37441   3.095   1.127   3.590  0.2054  0.3654 -0.1381
 1019MOL0     C37442   3.162   1.116   3.453  0.1897 -0.0883  0.4983
 1019MOL0     C37443   3.292   1.042   3.473 -0.1774  0.2376 -0.1356
 1019MOL0     C37444   3.412   1.124   3.521 -0.3428 -0.3307 -0.0701
 1019MOL0     C37445   3.528   1.031   3.547 -0.2462  0.4030 -0.1550
 1019MOL0     C37446   3.581   0.936   3.442  0.2160  0.2639 -0.9133
 1019MOL0     N37447   3.714   0.887   3.471  0.3721 -1.1985  0.3589
 1019MOL0     C37448   3.753   0.815   3.584 -0.2099  0.7956  0.7608
 1019MOL0     C37449   3.880   0.773   3.546  0.3709 -0.1666  0.1218
 1019MOL0     C37450   3.978   0.698   3.627 -0.4026  0.3684 -0.5244
 1019MOL0     C37451   4.057   0.793   3.724 -0.3183 -0.1943  0.1647
 1019MOL0     C37452   4.117   0.713   3.847  0.0808  0.0600  0.8590
 1019MOL0     C37453   4.233   0.623   3.799 -0.6214 -0.4521  0.8218
 1019MOL0     O37454   4.300   0.562   3.908  0.5213  0.3371 -1.3543
 1019MOL0     C37455   4.431   0.531   3.889 -0.6778 -1.2273 -0.3643
 1019MOL0     C37456   4.487   0.515   3.766  0.1993  0.0544 -0.7541
 1019MOL0     C37457   4.616   0.464   3.743  0.2251 -0.0562 -0.0620
 1019MOL0     C37458   4.697   0.432   3.856 -0.3488 -0.0971  0.4710
 1019MOL0     C37459   4.835   0.383   3.842  0.7179  0.5017 -0.5357
 1019MOL0     O37460   4.891   0.348   3.964  0.2052  0.1462  0.0198
 1019MOL0     C37461   5.010   0.279   3.974  0.2387  0.5387  0.1955
 1019MOL0     C37462   5.100   0.321   4.067 -0.0943 -0.4375 -0.2042
 1019MOL0     C37463   5.223   0.258   4.081 -0.8393 -0.5930  0.8617
 1019MOL0     C37464   5.259   0.149   3.996  0.2846  0.3034  0.1205
 1019MOL0     O37465   5.385   0.097   3.995  0.2089 -0.1259 -0.0054
 1019MOL0     C37466   5.417  -0.009   3.899 -0.0710 -0.5499  0.5126
 1019MOL0     C37467   5.565   0.000   3.866  0.1598  0.3550 -0.4256
 1019MOL0     C37468   5.668  -0.017   3.985  0.8558 -0.1279  0.8065
 1019MOL0     C37469   5.815  -0.012   3.943 -0.3965  0.1751  0.3119
 1019MOL0     C37470   5.914  -0.072   4.039 -0.0753 -0.2892 -0.3591
 1019MOL0     C37471   5.898  -0.027   4.188  0.3359  0.5392 -0.8055
 1019MOL0     C37472   6.006  -0.086   4.275  0.0298  0.3046  0.2887
 1019MOL0     C37473   5.986  -0.065   4.420  0.5780  0.3531  0.3734
 1019MOL0    Cl37474   5.856  -0.159   4.485  0.7293 -0.1772 -0.1740
 1019MOL0     C37475   5.163   0.108   3.911 -0.1781 -0.3624 -0.2585
 1019MOL0     C37476   5.042   0.172   3.896  0.0315 -0.3766 -0.4238
 1019MOL0     O37477   4.885   0.377   3.731 -0.9651 -0.3948  0.5282
 1019MOL0     C37478   4.647   0.458   3.983  0.2280 -1.0672  0.0356
 1019MOL0     C37479   4.513   0.507   3.993  0.5788 -0.2612 -0.8861
 1019MOL0     N37480   3.920   0.838   3.436 -0.2160 -0.3258  0.5075
 1019MOL0     N37481   3.819   0.902   3.383  0.5522 -0.7181  0.3927
 1019MOL0     C37482   2.659   0.907   3.844 -0.0879  0.0850 -0.5033
 1019MOL0     C37483   2.526   0.878   3.891  0.0457  0.4794 -0.6878
 1019MOL0     C37484   2.116   0.693   3.811  0.3525 -1.0820 -1.5413
 1019MOL0     C37485   2.081   0.707   3.952 -0.3427 -0.1727 -0.8757
 1019MOL0     C37486   1.948   0.680   3.998  0.4233  0.4514  0.1532
 1019MOL0     C37487   1.860   0.634   3.900  0.7325 -0.0953 -0.2185
 1019MOL0     O37488   1.732   0.600   3.925 -0.6624 -0.3549 -0.0064
 1019MOL0     C37489   1.674   0.657   4.041 -0.4157  0.6519 -0.0478
 1019MOL0     C37490   1.528   0.646   4.027 -0.8713 -0.1612 -0.4191
 1019MOL0     C37491   1.456   0.663   4.169 -0.1306 -1.1988  0.4052
 1019MOL0     C37492   1.305   0.626   4.155  1.5922  0.1330  0.3569
 1019MOL0     C37493   1.250   0.575   4.281 -0.1989 -0.0656 -0.2378
 1019MOL0     C37494   1.203   0.534   4.385  0.2372  0.2212 -0.4719
 1019MOL0     C37495   1.897   0.610   3.766 -0.4999  0.5089  0.5746
 1019MOL0     C37496   2.022   0.635   3.720  0.9864 -0.4397 -0.2181
 1019MOL0     C37497   2.054   0.609   3.572 -0.1676 -0.6710  0.3138
 1019MOL0     H37498   2.499   0.572   3.762  0.4824  0.7353 -1.1910
 1019MOL0     H37499   2.717   0.623   3.661 -0.8282 -1.1870  0.6221
 1019MOL0     H37500   2.852   1.059   3.749  1.6372  1.6697  0.0565
 1019MOL0     H37501   2.991   0.968   3.815  3.0277  0.2715 -3.5553
 1019MOL0     H37502   2.930   1.006   3.519  0.2770  0.1970 -0.4206
 1019MOL0     H37503   3.058   0.914   3.583 -1.4239 -0.1556 -1.9625
 1019MOL0     H37504   3.171   1.132   3.669 -0.1479  1.4573  0.1591
 1019MOL0     H37505   3.046   1.225   3.593 -0.3606  0.1877 -2.0256
 1019MOL0     H37506   3.097   1.059   3.386  0.7917  1.5744 -1.6208
 1019MOL0     H37507   3.172   1.220   3.419  0.6116 -0.4036 -0.3838
 1019MOL0     H37508   3.278   0.957   3.540 -1.0231  0.4591 -0.0164
 1019MOL0     H37509   3.319   0.989   3.381 -0.0911 -0.5163  0.3147
 1019MOL0     H37510   3.438   1.190   3.438  1.9431  1.7458  2.1294
 1019MOL0     H37511   3.406   1.179   3.616  1.5290  0.4625 -0.3777
 1019MOL0     H37512   3.517   0.977   3.642  4.1102 -0.3143  0.1619
 1019MOL0     H37513   3.613   1.088   3.587 -0.2390  0.4659 -0.2586
 1019MOL0     H37514   3.516   0.848   3.433  0.4157 -0.6910  4.0377
 1019MOL0     H37515   3.579   0.983   3.343  1.6561 -1.2204 -1.6866
 1019MOL0     H37516   3.696   0.802   3.675 -0.9385  1.6467  0.4448
 1019MOL0     H37517   3.917   0.635   3.692 -2.1679  4.1802  1.8919
 1019MOL0     H37518   4.057   0.639   3.579  0.6670  0.7373  0.7076
 1019MOL0     H37519   4.125   0.858   3.669 -1.6155  1.0478 -0.0213
 1019MOL0     H37520   3.983   0.861   3.767 -3.5151 -3.4620  0.3645
 1019MOL0     H37521   4.029   0.665   3.889 -0.0906 -2.7621 -2.2554
 1019MOL0     H37522   4.160   0.777   3.924  1.8303  0.0418 -0.0497
 1019MOL0     H37523   4.303   0.692   3.749 -2.6420 -0.9029 -3.0501
 1019MOL0     H37524   4.213   0.549   3.720  2.4882  1.2124 -1.7664
 1019MOL0     H37525   4.433   0.543   3.676 -1.5113  0.3562  0.3076
 1019MOL0     H37526   4.664   0.464   3.646  0.2957 -0.4524 -0.0322
 1019MOL0     H37527   5.070   0.409   4.124 -2.2807 -0.5210 -1.1200
 1019MOL0     H37528   5.290   0.309   4.150 -0.5132  0.5833 -0.2990
 1019MOL0     H37529   5.393  -0.109   3.938 -4.1859  1.6133  4.3748
 1019MOL0     H37530   5.349  -0.005   3.814 -1.3433 -1.1101  1.4661
 1019MOL0     H37531   5.578  -0.071   3.785 -0.8929  0.4814 -0.7225
 1019MOL0     H37532   5.583   0.098   3.821  3.7864 -0.6324 -1.4156
 1019MOL0     H37533   5.652   0.053   4.067  3.2128  1.3868  0.0800
 1019MOL0     H37534   5.644  -0.116   4.026 -3.0161  0.1059 -0.4471
 1019MOL0     H37535   5.838   0.094   3.935  3.4229 -0.4824  0.9479
 1019MOL0     H37536   5.828  -0.067   3.849  0.1065  2.6364 -1.1534
 1019MOL0     H37537   6.015  -0.042   4.012 -0.7082 -0.1099 -2.8186
 1019MOL0     H37538   5.895  -0.179   4.032 -0.8286 -0.0721 -2.2505
 1019MOL0     H37539   5.906   0.080   4.209  2.8936 -0.4292  5.2950
 1019MOL0     H37540   5.802  -0.055   4.233  0.3116 -1.2260 -1.8518
 1019MOL0     H37541   6.103  -0.037   4.262  0.9792 -0.6431  3.0811
 1019MOL0     H37542   6.023  -0.191   4.250  3.4331  0.4742  1.3975
 1019MOL0     H37543   6.074  -0.087   4.482 -0.6907 -3.2370  1.1826
 1019MOL0     H37544   5.967   0.038   4.449 -0.2013 -0.1612  1.8404
 1019MOL0     H37545   5.179   0.026   3.843  0.9440 -1.5606  1.3808
 1019MOL0     H37546   4.980   0.136   3.814 -2.8625  1.7837  0.6494
 1019MOL0     H37547   4.709   0.445   4.071 -0.2076  1.1274  0.7446
 1019MOL0     H37548   4.486   0.538   4.093 -0.7758 -0.1651 -1.2651
 1019MOL0     H37549   2.699   1.000   3.883 -1.4140  1.1411 -1.5611
 1019MOL0     H37550   2.471   0.935   3.966  1.2077  1.8297 -0.8246
 1019MOL0     H37551   2.146   0.742   4.031 -1.6148 -2.2750  1.2251
 1019MOL0     H37552   1.915   0.676   4.101  0.7244  1.4552  0.2953
 1019MOL0     H37553   1.702   0.760   4.068  2.7758 -0.1305 -0.0541
 1019MOL0     H37554   1.703   0.602   4.130  1.4377  0.1098 -0.9443
 1019MOL0     H37555   1.519   0.540   4.002  4.7520 -0.7138 -1.4091
 1019MOL0     H37556   1.486   0.705   3.945  0.2910  0.7989 -0.3535
 1019MOL0     H37557   1.465   0.766   4.205  1.0509 -0.9156 -0.6340
 1019MOL0     H37558   1.500   0.599   4.246  1.6961 -0.6105 -0.1029
 1019MOL0     H37559   1.249   0.717   4.129  2.2005  1.2953  2.8625
 1019MOL0     H37560   1.296   0.544   4.083  0.4226 -0.7716  1.4839
 1019MOL0     H37561   1.179   0.487   4.478  0.1703  0.0157 -0.5923
 1019MOL0     H37562   1.822   0.567   3.701  0.7823 -2.8703  1.0952
 1019MOL0     H37563   2.098   0.699   3.528  2.6742 -0.6875  2.8073
 1019MOL0     H37564   2.114   0.520   3.555  1.8196  0.6728 -0.0855
 1019MOL0     H37565   1.967   0.585   3.509  0.1006 -0.0176 -0.3265
 1020MOL0     O37566   9.963   1.483   7.805 -0.6486  0.4778 -0.5250
 1020MOL0     C37567   9.955   1.371   7.753 -0.2407 -0.4740 -0.1655
 1020MOL0     O37568  10.050   1.316   7.665 -0.2055 -0.6876 -0.5208
 1020MOL0     C37569  10.176   1.367   7.669  0.0260 -0.2575  0.2762
 1020MOL0     C37570  10.244   1.406   7.550  0.7997  0.1052 -0.4446
 1020MOL0     C37571  10.370   1.453   7.544 -0.2518  0.2113 -0.5568
 1020MOL0     C37572  10.434   1.476   7.670  0.1484  0.5912  0.2966
 1020MOL0     O37573  10.552   1.538   7.689  0.3199 -0.4523  0.2946
 1020MOL0     C37574  10.556   1.665   7.625 -0.9101  0.3647 -0.2191
 1020MOL0     C37575  10.696   1.708   7.645  0.0270  0.2544  0.0455
 1020MOL0     C37576  10.796   1.616   7.583  0.2898 -0.0290 -0.0776
 1020MOL0     C37577  10.938   1.684   7.577  1.1881  1.0607 -0.8692
 1020MOL0     C37578  11.046   1.587   7.524  0.2230 -0.2772 -0.2587
 1020MOL0     C37579  11.185   1.632   7.558  0.7184  0.0611  0.3526
 1020MOL0     C37580  11.301   1.543   7.506  0.0428  0.1177 -0.2784
 1020MOL0     C37581  11.298   1.400   7.557  1.1346  0.6229 -0.1854
 1020MOL0     N37582  11.401   1.313   7.499 -0.4760  0.7799  0.1322
 1020MOL0     C37583  11.533   1.354   7.488  0.6995  0.1249  0.1767
 1020MOL0     C37584  11.600   1.250   7.429  0.3089 -0.3332 -0.0495
 1020MOL0     C37585  11.744   1.253   7.389  0.7100  0.3006  0.7572
 1020MOL0     C37586  11.764   1.220   7.232  0.2805 -0.0489 -0.0281
 1020MOL0     C37587  11.901   1.241   7.177  0.5943  0.2690 -0.5143
 1020MOL0     C37588  11.958   1.383   7.187  1.2215 -0.6139 -1.2216
 1020MOL0     O37589  12.090   1.398   7.121  0.6397  0.0069  0.9769
 1020MOL0     C37590  12.208   1.345   7.185  0.7311  0.2745 -0.0107
 1020MOL0     C37591  12.311   1.293   7.106 -0.3276 -0.9998 -0.1970
 1020MOL0     C37592  12.412   1.207   7.160  0.2782  0.0884  0.0705
 1020MOL0     C37593  12.406   1.179   7.300  0.4188  0.0510  0.2131
 1020MOL0     C37594  12.513   1.099   7.354  0.2729  0.0746 -0.1213
 1020MOL0     O37595  12.598   1.037   7.263 -0.4239  0.3561 -0.1442
 1020MOL0     C37596  12.715   0.979   7.320 -0.0776  0.4124 -0.4207
 1020MOL0     C37597  12.743   0.853   7.264  0.3808  0.1800 -0.4314
 1020MOL0     C37598  12.854   0.774   7.294  0.2097 -0.5701  0.1428
 1020MOL0     C37599  12.942   0.827   7.388 -0.0369  0.4766 -0.1571
 1020MOL0     O37600  13.055   0.746   7.418 -0.3227 -0.5233 -0.7625
 1020MOL0     C37601  13.036   0.622   7.487  0.1567 -0.1964 -0.2721
 1020MOL0     C37602  12.993   0.641   7.635 -0.2315  0.4365 -0.1230
 1020MOL0     C37603  13.086   0.729   7.718 -0.2308  0.2196  1.0053
 1020MOL0     C37604  13.031   0.753   7.851 -0.1106 -0.4661  0.0011
 1020MOL0     C37605  13.142   0.797   7.955  0.3931  0.8669 -0.4853
 1020MOL0     C37606  13.112   0.786   8.105 -0.1785  0.7697  0.6392
 1020MOL0     C37607  12.998   0.883   8.140  0.0176  0.3606  0.8291
 1020MOL0     C37608  12.980   0.888   8.294  0.3194  0.4075  0.7282
 1020MOL0    Cl37609  12.869   1.000   8.352  0.3924 -0.2987 -0.0244
 1020MOL0     C37610  12.913   0.954   7.455 -0.2544  0.7842 -0.2524
 1020MOL0     C37611  12.802   1.029   7.419  0.7591  0.6552 -0.2566
 1020MOL0     O37612  12.525   1.092   7.476  0.4518 -0.3489 -1.1263
 1020MOL0     C37613  12.302   1.230   7.377 -0.0279 -0.9656 -0.0030
 1020MOL0     C37614  12.200   1.311   7.325  0.2098 -0.7994  1.0987
 1020MOL0     N37615  11.501   1.164   7.384  0.6997 -0.2661 -0.0880
 1020MOL0     N37616  11.384   1.205   7.424 -0.0332  0.3777  0.1909
 1020MOL0     C37617  10.384   1.426   7.788 -0.2039 -0.0973  0.4969
 1020MOL0     C37618  10.249   1.378   7.791  0.3978 -0.1335 -0.3642
 1020MOL0     C37619   9.833   1.296   7.781 -0.8069 -0.9309  0.2355
 1020MOL0     C37620   9.856   1.163   7.802 -0.4501  0.9065 -0.1844
 1020MOL0     C37621   9.748   1.072   7.824 -0.2735  0.4152 -0.0874
 1020MOL0     C37622   9.616   1.113   7.824  0.2170 -0.1627  0.5471
 1020MOL0     O37623   9.503   1.038   7.859  0.0008 -0.6956  0.6817
 1020MOL0     C37624   9.478   0.916   7.787 -0.8227  0.9439 -0.0849
 1020MOL0     C37625   9.390   0.941   7.657  0.2633  0.6890 -0.0204
 1020MOL0     C37626   9.234   0.960   7.671 -0.4488 -0.0946 -0.0849
 1020MOL0     C37627   9.169   0.828   7.721  0.2724  0.0570  0.3581
 1020MOL0     C37628   9.019   0.837   7.743 -0.4972 -0.5365 -0.2067
 1020MOL0     C37629   8.906   0.849   7.763  0.6843 -1.0565 -0.3391
 1020MOL0     C37630   9.593   1.253   7.817 -0.0956 -0.0354 -0.0646
 1020MOL0     C37631   9.696   1.349   7.788 -0.4566 -0.1612  0.4111
 1020MOL0     C37632   9.662   1.485   7.762 -0.4272 -0.0141  0.0738
 1020MOL0     H37633  10.191   1.400   7.455 -1.0243 -0.1634  0.5389
 1020MOL0     H37634  10.413   1.490   7.452  0.7661  2.0569  0.5993
 1020MOL0     H37635  10.537   1.647   7.518  1.6154  1.2958 -0.9023
 1020MOL0     H37636  10.494   1.736   7.681 -0.5309  1.2244 -0.8596
 1020MOL0     H37637  10.715   1.730   7.750  1.3159  0.4273 -0.1998
 1020MOL0     H37638  10.700   1.807   7.598 -1.6045  1.8350  2.9670
 1020MOL0     H37639  10.770   1.585   7.481 -1.2262 -0.7285  0.4885
 1020MOL0     H37640  10.796   1.529   7.648 -2.6698 -1.0130 -1.2219
 1020MOL0     H37641  10.935   1.772   7.512 -1.0986 -1.2288 -4.2122
 1020MOL0     H37642  10.966   1.715   7.678  1.1295  1.6890 -1.0465
 1020MOL0     H37643  11.015   1.490   7.566 -1.5146  0.4774  0.3240
 1020MOL0     H37644  11.034   1.588   7.415  1.2832  0.0906 -0.3739
 1020MOL0     H37645  11.197   1.732   7.515 -1.8341  0.7462  1.0238
 1020MOL0     H37646  11.192   1.645   7.667 -0.8088 -2.5057  0.8284
 1020MOL0     H37647  11.394   1.588   7.541  0.1834  0.1974 -0.7602
 1020MOL0     H37648  11.294   1.541   7.397 -2.0428  2.0734 -0.2502
 1020MOL0     H37649  11.312   1.408   7.665  1.2342  4.7382 -0.3188
 1020MOL0     H37650  11.206   1.349   7.528  0.7519  0.6472  0.9633
 1020MOL0     H37651  11.586   1.438   7.530  0.2027  0.9475 -0.8142
 1020MOL0     H37652  11.802   1.344   7.402  2.7334 -0.8075 -0.0058
 1020MOL0     H37653  11.801   1.178   7.444  1.2783 -0.4455 -0.7810
 1020MOL0     H37654  11.742   1.114   7.214 -1.3087 -0.0078  1.4149
 1020MOL0     H37655  11.691   1.281   7.178  1.0822  2.6765  1.7912
 1020MOL0     H37656  11.903   1.215   7.071  1.1324  0.4927 -0.5630
 1020MOL0     H37657  11.969   1.179   7.236  0.2828  2.9588  2.9997
 1020MOL0     H37658  11.955   1.419   7.290 -1.3813 -2.6129 -0.4956
 1020MOL0     H37659  11.883   1.441   7.131  0.6696 -0.0634  0.0353
 1020MOL0     H37660  12.291   1.307   7.001 -1.9957  0.7799  0.3112
 1020MOL0     H37661  12.483   1.167   7.089 -0.8756 -0.8817 -0.5850
 1020MOL0     H37662  12.672   0.829   7.186  0.3313  2.3128 -1.1218
 1020MOL0     H37663  12.871   0.684   7.237  0.7317 -0.2893 -0.1518
 1020MOL0     H37664  12.960   0.559   7.440 -2.0906  1.2298  1.2333
 1020MOL0     H37665  13.125   0.559   7.487  1.1770  1.1835  1.1841
 1020MOL0     H37666  12.888   0.667   7.652 -0.1519 -0.0424  1.2097
 1020MOL0     H37667  13.006   0.539   7.670  0.8810  0.5788 -0.0857
 1020MOL0     H37668  13.187   0.688   7.714 -0.1550  0.4030 -2.1971
 1020MOL0     H37669  13.107   0.818   7.657  0.4699 -1.3259 -1.1532
 1020MOL0     H37670  12.987   0.664   7.896 -0.8302  0.4301  1.1499
 1020MOL0     H37671  12.945   0.821   7.857 -1.2756 -2.0020  1.9054
 1020MOL0     H37672  13.181   0.896   7.930  1.8426  0.2364 -0.7926
 1020MOL0     H37673  13.224   0.726   7.940  0.2200  0.4677  0.3516
 1020MOL0     H37674  13.072   0.686   8.122 -1.5840  1.1767 -0.0707
 1020MOL0     H37675  13.204   0.798   8.163 -0.1865  0.2298  0.7648
 1020MOL0     H37676  12.906   0.851   8.090  0.3809 -0.0109  0.3925
 1020MOL0     H37677  13.025   0.981   8.101  0.0959  0.7928  1.9345
 1020MOL0     H37678  12.945   0.792   8.335  2.8537 -0.3163  1.3903
 1020MOL0     H37679  13.078   0.913   8.337  1.1767  0.7955 -1.3312
 1020MOL0     H37680  12.983   1.000   7.524  0.6383  0.0751 -0.6547
 1020MOL0     H37681  12.792   1.126   7.468 -1.4650 -0.1108  0.9628
 1020MOL0     H37682  12.298   1.217   7.485 -1.6997  4.1500  0.7959
 1020MOL0     H37683  12.118   1.333   7.393 -1.0545  0.9977 -0.8657
 1020MOL0     H37684  10.446   1.444   7.876 -0.1554  2.5323  0.0088
 1020MOL0     H37685  10.207   1.324   7.876  0.4726  1.0978  0.4899
 1020MOL0     H37686   9.953   1.116   7.806 -0.3892  0.8130 -2.0029
 1020MOL0     H37687   9.769   0.968   7.850  0.2242  0.3833 -0.6028
 1020MOL0     H37688   9.429   0.842   7.851  1.1201 -2.6789 -2.4247
 1020MOL0     H37689   9.571   0.863   7.761 -2.0626 -1.4695  0.1105
 1020MOL0     H37690   9.402   0.858   7.586 -3.1089 -1.7884  2.0017
 1020MOL0     H37691   9.429   1.033   7.613 -2.5824  1.8630 -0.3065
 1020MOL0     H37692   9.180   0.986   7.580 -0.3998  0.4215  0.0284
 1020MOL0     H37693   9.204   1.042   7.737 -2.7083  0.1684 -1.3330
 1020MOL0     H37694   9.207   0.743   7.664  0.3928  1.1311 -1.2061
 1020MOL0     H37695   9.211   0.804   7.819 -0.7647  1.8168  1.2753
 1020MOL0     H37696   8.807   0.865   7.802  1.3298  0.8951  0.6513
 1020MOL0     H37697   9.492   1.294   7.815  0.3403  1.0661 -1.0693
 1020MOL0     H37698   9.734   1.547   7.816  0.9983 -1.1562 -0.4348
 1020MOL0     H37699   9.674   1.515   7.657  1.6360  0.6227  0.4492
 1020MOL0     H37700   9.559   1.507   7.791 -0.5041 -0.1044 -0.1252
 1021MOL0     O37701   7.118   9.123   3.110 -0.1920  1.1949  0.0405
 1021MOL0     C37702   7.061   9.015   3.144  0.0550 -0.1659 -0.5049
 1021MOL0     O37703   7.120   8.919   3.216  0.6511 -0.4592 -0.9898
 1021MOL0     C37704   7.253   8.926   3.241 -0.9342 -0.1282  0.0517
 1021MOL0     C37705   7.325   8.812   3.201  0.1572  0.4693  0.0356
 1021MOL0     C37706   7.460   8.803   3.209 -0.4328  0.1109 -0.5248
 1021MOL0     C37707   7.532   8.899   3.270 -0.0588  0.3859  0.4669
 1021MOL0     O37708   7.665   8.880   3.281 -0.2819  0.4836  0.1659
 1021MOL0     C37709   7.745   8.984   3.329 -0.6298  0.3988  0.3138
 1021MOL0     C37710   7.892   8.926   3.323 -0.9423 -1.2318 -0.2086
 1021MOL0     C37711   7.908   8.795   3.398  0.1398  1.1610 -0.3444
 1021MOL0     C37712   8.064   8.771   3.419 -0.2124 -0.5260  0.6995
 1021MOL0     C37713   8.085   8.635   3.482  0.7140 -0.2890 -0.1861
 1021MOL0     C37714   8.226   8.581   3.471 -0.3078  0.0767  0.5946
 1021MOL0     C37715   8.235   8.429   3.519 -0.1825  0.7985  0.6928
 1021MOL0     C37716   8.365   8.358   3.476 -0.4305  0.0908 -0.1481
 1021MOL0     N37717   8.494   8.437   3.506  0.2460 -0.0250 -0.3631
 1021MOL0     C37718   8.537   8.444   3.637 -0.4018 -1.1945  1.0996
 1021MOL0     C37719   8.635   8.539   3.638 -0.0669  0.0100 -0.0462
 1021MOL0     C37720   8.716   8.584   3.753  0.1947  0.5940 -0.0010
 1021MOL0     C37721   8.855   8.535   3.743  0.0733 -0.5738  1.1478
 1021MOL0     C37722   8.944   8.621   3.830  0.2815  0.0432 -0.1254
 1021MOL0     C37723   8.930   8.599   3.986  0.7131 -0.5530 -0.1276
 1021MOL0     O37724   8.989   8.703   4.063  0.1166  0.8235 -0.1508
 1021MOL0     C37725   9.126   8.700   4.077 -0.1131 -0.0239  1.1340
 1021MOL0     C37726   9.184   8.809   4.132  0.1483 -0.1065  0.1805
 1021MOL0     C37727   9.321   8.820   4.157 -0.6182 -0.0029 -0.3666
 1021MOL0     C37728   9.410   8.719   4.121  1.0383  0.4171  0.3305
 1021MOL0     C37729   9.548   8.733   4.148  0.0866  0.8004  0.1800
 1021MOL0     O37730   9.635   8.671   4.073  0.7094  0.3483 -0.1113
 1021MOL0     C37731   9.773   8.691   4.069  1.1009 -0.6240  0.7679
 1021MOL0     C37732   9.848   8.731   4.180  0.3237  0.2584  0.2443
 1021MOL0     C37733   9.983   8.750   4.167 -0.2838  0.6394  0.5544
 1021MOL0     C37734  10.050   8.734   4.043  0.5871  1.0252 -0.0326
 1021MOL0     O37735  10.184   8.757   4.048 -0.2361 -0.8423 -0.5787
 1021MOL0     C37736  10.260   8.730   3.930  0.0619  0.1283  0.0356
 1021MOL0     C37737  10.257   8.839   3.825  0.2838 -0.1609  0.3344
 1021MOL0     C37738  10.340   8.969   3.858 -0.1205  1.0359 -0.0492
 1021MOL0     C37739  10.324   9.086   3.757  1.0817 -0.8255  0.4908
 1021MOL0     C37740  10.417   9.202   3.805 -0.1233 -0.7514  0.0036
 1021MOL0     C37741  10.412   9.274   3.938  0.1846  0.3674 -0.3257
 1021MOL0     C37742  10.510   9.390   3.955 -0.1993  0.6206  1.1547
 1021MOL0     C37743  10.480   9.464   4.081  0.6073  0.3123 -0.0889
 1021MOL0    Cl37744  10.335   9.569   4.051 -0.0848  0.0142  0.3246
 1021MOL0     C37745   9.973   8.687   3.937 -0.4966  0.2479  0.1014
 1021MOL0     C37746   9.838   8.665   3.948  0.0729  0.1359  0.2871
 1021MOL0     O37747   9.575   8.796   4.242 -0.0438 -0.2010 -0.4133
 1021MOL0     C37748   9.350   8.602   4.065  0.7443 -0.2161  0.5512
 1021MOL0     C37749   9.209   8.597   4.043 -0.1208  0.5876 -0.1274
 1021MOL0     N37750   8.656   8.580   3.512 -1.7069 -0.2542 -0.2662
 1021MOL0     N37751   8.565   8.533   3.437  0.2053  0.2512 -0.2538
 1021MOL0     C37752   7.466   9.008   3.329  0.3435  0.2356 -0.7323
 1021MOL0     C37753   7.325   9.020   3.316  0.0260 -0.3153  0.5987
 1021MOL0     C37754   6.918   8.977   3.098 -0.4417  0.7089  0.0200
 1021MOL0     C37755   6.887   8.841   3.102  0.1724  0.3287  0.7598
 1021MOL0     C37756   6.748   8.806   3.075 -0.1656 -0.0569 -0.7190
 1021MOL0     C37757   6.652   8.892   3.024 -0.4717 -0.4889 -0.4496
 1021MOL0     O37758   6.527   8.839   2.995  0.1639 -0.6514 -0.6193
 1021MOL0     C37759   6.418   8.939   2.995  0.5175 -0.3248  0.3898
 1021MOL0     C37760   6.386   9.003   2.856  0.3035  0.2126 -0.0119
 1021MOL0     C37761   6.354   8.893   2.757  0.2116 -0.2435  0.5682
 1021MOL0     C37762   6.313   8.936   2.616  0.4113 -0.2931  0.6568
 1021MOL0     C37763   6.203   9.041   2.611  0.0133  0.1148 -0.4200
 1021MOL0     C37764   6.108   9.117   2.601 -0.0858 -0.1281 -0.5777
 1021MOL0     C37765   6.698   9.025   3.001 -0.3360  0.4467  0.3421
 1021MOL0     C37766   6.823   9.067   3.036 -0.9765 -0.3900 -0.2144
 1021MOL0     C37767   6.858   9.219   3.015 -0.5927 -0.3718 -0.4295
 1021MOL0     H37768   7.272   8.733   3.149  0.7935  0.6044 -0.8186
 1021MOL0     H37769   7.517   8.726   3.158 -0.7809  0.3236 -1.2600
 1021MOL0     H37770   7.738   9.069   3.259 -1.0550 -1.3691 -1.9029
 1021MOL0     H37771   7.715   9.007   3.431  1.1068 -1.4915  1.3120
 1021MOL0     H37772   7.960   9.000   3.368 -3.6853 -1.0854  4.3248
 1021MOL0     H37773   7.915   8.930   3.216 -1.4903  1.0231 -0.3025
 1021MOL0     H37774   7.866   8.707   3.349 -1.2840  1.2496  0.6574
 1021MOL0     H37775   7.848   8.796   3.490 -1.8034 -0.3039 -1.5175
 1021MOL0     H37776   8.117   8.774   3.324  1.2463 -4.7997  1.1615
 1021MOL0     H37777   8.098   8.851   3.486  0.1440  0.5393 -0.7155
 1021MOL0     H37778   8.058   8.649   3.587  0.7923  1.4018 -0.3737
 1021MOL0     H37779   8.019   8.562   3.436  2.0635 -2.3983  1.0119
 1021MOL0     H37780   8.281   8.600   3.378 -0.3106 -0.3594  0.5031
 1021MOL0     H37781   8.274   8.649   3.542  1.8083  0.2487 -0.9030
 1021MOL0     H37782   8.151   8.369   3.482  0.9979  1.5421 -3.7073
 1021MOL0     H37783   8.240   8.429   3.628  1.8489  3.9289  0.7121
 1021MOL0     H37784   8.364   8.255   3.514  0.0702 -0.5492 -1.7482
 1021MOL0     H37785   8.355   8.352   3.367  0.7502  1.4546 -0.3624
 1021MOL0     H37786   8.501   8.378   3.715  0.5599 -0.7036  1.9857
 1021MOL0     H37787   8.720   8.693   3.743  3.6060  0.4000 -3.3347
 1021MOL0     H37788   8.667   8.553   3.846 -1.1739 -0.3164 -0.9861
 1021MOL0     H37789   8.865   8.427   3.756 -1.0707 -0.9885 -0.9757
 1021MOL0     H37790   8.883   8.559   3.641 -1.9087 -1.3322  0.3723
 1021MOL0     H37791   8.931   8.728   3.815 -0.0193 -0.0076 -0.2349
 1021MOL0     H37792   9.048   8.604   3.801  0.1939 -1.1320  0.1707
 1021MOL0     H37793   8.959   8.495   4.002 -1.7287 -1.8385 -2.8397
 1021MOL0     H37794   8.823   8.584   4.002  0.6779 -1.0686 -0.7550
 1021MOL0     H37795   9.122   8.884   4.181  0.9504  1.2655 -0.8316
 1021MOL0     H37796   9.360   8.911   4.200  0.0983 -1.5030  2.4267
 1021MOL0     H37797   9.819   8.743   4.284 -1.8804  2.3877 -0.5144
 1021MOL0     H37798  10.050   8.782   4.246  0.7204 -1.0958  0.4432
 1021MOL0     H37799  10.363   8.716   3.965 -0.5219 -0.9690  1.4413
 1021MOL0     H37800  10.223   8.639   3.882  0.4005 -1.8353  3.1590
 1021MOL0     H37801  10.282   8.814   3.722  0.0128  2.0493 -0.3317
 1021MOL0     H37802  10.153   8.871   3.814 -0.0585 -1.4927 -0.5564
 1021MOL0     H37803  10.323   9.002   3.961  1.6437 -3.0489  1.7868
 1021MOL0     H37804  10.442   8.929   3.859 -0.6663 -0.3967  0.6330
 1021MOL0     H37805  10.223   9.128   3.759  1.5272  0.6964 -2.6845
 1021MOL0     H37806  10.352   9.062   3.654  1.5973  2.6647 -0.3165
 1021MOL0     H37807  10.407   9.279   3.727 -0.8792  1.6637  2.3287
 1021MOL0     H37808  10.519   9.163   3.797  0.0726 -0.4742  1.0108
 1021MOL0     H37809  10.307   9.298   3.957 -0.7214 -2.6231 -1.0321
 1021MOL0     H37810  10.433   9.203   4.018 -0.1126  1.0611  0.3836
 1021MOL0     H37811  10.521   9.458   3.870 -4.5424  0.9938  0.6735
 1021MOL0     H37812  10.609   9.348   3.972 -1.1533 -0.3883  5.3269
 1021MOL0     H37813  10.452   9.392   4.159 -0.3682  1.2616  0.4649
 1021MOL0     H37814  10.570   9.516   4.116 -0.6447  1.4566  1.5807
 1021MOL0     H37815  10.019   8.669   3.840  2.1020  1.6631  0.9661
 1021MOL0     H37816   9.772   8.621   3.874  0.0802  1.9438 -0.8604
 1021MOL0     H37817   9.400   8.515   4.024 -2.0314 -1.3354 -0.7862
 1021MOL0     H37818   9.161   8.513   3.995 -2.6641  2.6396 -1.4461
 1021MOL0     H37819   7.509   9.094   3.381 -0.0995  0.8096 -1.2953
 1021MOL0     H37820   7.271   9.105   3.355  2.5821  1.2028  1.1041
 1021MOL0     H37821   6.952   8.761   3.138  2.4003  1.4209 -0.6236
 1021MOL0     H37822   6.718   8.704   3.100  0.0445  0.0669  0.0835
 1021MOL0     H37823   6.432   9.016   3.071  0.6521 -0.9119  0.9705
 1021MOL0     H37824   6.331   8.880   3.027  2.3384 -2.3437  1.9622
 1021MOL0     H37825   6.467   9.067   2.820  1.2745 -1.7554 -1.5440
 1021MOL0     H37826   6.298   9.065   2.873 -0.0410  0.2014 -1.6282
 1021MOL0     H37827   6.278   8.825   2.795  0.6025 -1.4719 -0.7693
 1021MOL0     H37828   6.442   8.829   2.752 -0.7171 -1.4634 -1.0627
 1021MOL0     H37829   6.398   8.977   2.560 -1.1277  3.0561  0.5594
 1021MOL0     H37830   6.273   8.855   2.553  1.3038  1.0669 -1.8088
 1021MOL0     H37831   6.038   9.197   2.615  1.5929  1.3259 -0.1350
 1021MOL0     H37832   6.632   9.105   2.969 -0.2426  0.5757  0.4712
 1021MOL0     H37833   6.857   9.266   3.114 -2.3981 -0.0748 -0.5533
 1021MOL0     H37834   6.951   9.248   2.966 -0.1839  0.8880  1.0246
 1021MOL0     H37835   6.773   9.269   2.967  0.3625  0.9597 -0.8075
 1022MOL0     O37836   1.820   4.491   4.235  0.6133 -0.0422 -0.0602
 1022MOL0     C37837   1.701   4.522   4.243 -0.8672  0.1205 -0.5482
 1022MOL0     O37838   1.658   4.632   4.314 -0.1662  0.1108  0.1347
 1022MOL0     C37839   1.749   4.716   4.377 -0.9637  1.0425 -0.9771
 1022MOL0     C37840   1.863   4.777   4.330 -0.3235 -0.5969  0.0445
 1022MOL0     C37841   1.938   4.869   4.409  0.5697 -0.1839 -0.7377
 1022MOL0     C37842   1.909   4.880   4.547 -0.0756 -1.0520  1.0791
 1022MOL0     O37843   1.980   4.978   4.608 -0.5175 -0.1309 -0.0897
 1022MOL0     C37844   1.960   4.981   4.749  0.1315 -0.4829 -0.2921
 1022MOL0     C37845   2.059   5.079   4.816 -1.3360 -0.3289  0.8254
 1022MOL0     C37846   2.206   5.033   4.809 -0.3742 -0.3458  0.6943
 1022MOL0     C37847   2.239   4.900   4.872  0.4679  0.4803 -0.0526
 1022MOL0     C37848   2.389   4.866   4.850  0.2938 -0.5521 -0.2551
 1022MOL0     C37849   2.422   4.810   4.713  0.2515 -0.4246 -0.2168
 1022MOL0     C37850   2.571   4.771   4.709  0.1838 -0.5543  0.6907
 1022MOL0     C37851   2.588   4.634   4.765 -0.1206 -0.1490 -0.2155
 1022MOL0     N37852   2.728   4.582   4.732  0.0946  0.2107  0.1489
 1022MOL0     C37853   2.839   4.656   4.723 -0.1594  0.7115  0.2098
 1022MOL0     C37854   2.931   4.573   4.666 -0.2795 -1.0863  0.6687
 1022MOL0     C37855   3.069   4.618   4.636 -0.3431 -0.7815  0.6694
 1022MOL0     C37856   3.142   4.617   4.773  0.8626  0.4706 -0.0949
 1022MOL0     C37857   3.284   4.664   4.761  0.1505 -0.4064  0.2455
 1022MOL0     C37858   3.364   4.585   4.655 -1.0275  0.1518  0.8703
 1022MOL0     O37859   3.506   4.614   4.660 -0.5406 -0.3093  0.0804
 1022MOL0     C37860   3.587   4.527   4.580  0.0842 -0.0243 -0.0425
 1022MOL0     C37861   3.547   4.424   4.490 -0.5098 -0.5923 -0.3117
 1022MOL0     C37862   3.643   4.344   4.426 -0.0269 -0.0415 -0.6688
 1022MOL0     C37863   3.779   4.355   4.465  0.2115  0.7657 -0.2210
 1022MOL0     C37864   3.884   4.279   4.395 -1.2267 -0.3700  0.2843
 1022MOL0     O37865   4.015   4.305   4.429  0.0935  0.1672 -0.1163
 1022MOL0     C37866   4.132   4.245   4.387  0.1109  0.2334  0.3667
 1022MOL0     C37867   4.125   4.133   4.306  0.4140 -0.6108 -0.0794
 1022MOL0     C37868   4.240   4.068   4.277 -0.1433  0.1745 -0.3968
 1022MOL0     C37869   4.360   4.106   4.326 -1.1390  0.0937 -0.2160
 1022MOL0     O37870   4.485   4.051   4.288  0.0694 -0.4137 -0.2210
 1022MOL0     C37871   4.494   3.986   4.159 -0.1134 -0.4420  0.0889
 1022MOL0     C37872   4.632   3.916   4.169  0.4794  1.0149 -0.6475
 1022MOL0     C37873   4.660   3.845   4.042  0.0786 -0.4655 -0.2346
 1022MOL0     C37874   4.810   3.836   4.013  0.3171  0.7063 -0.1717
 1022MOL0     C37875   4.852   3.723   3.923 -0.1626  0.5051 -0.0884
 1022MOL0     C37876   4.996   3.756   3.871  0.3782 -0.2721  0.2471
 1022MOL0     C37877   5.051   3.621   3.823 -0.4058  0.0379  0.0406
 1022MOL0     C37878   5.179   3.641   3.744 -0.0285 -0.2663 -0.1531
 1022MOL0    Cl37879   5.152   3.756   3.608 -0.4173  0.1051 -0.0636
 1022MOL0     C37880   4.368   4.220   4.409  1.1431 -0.5436 -0.4679
 1022MOL0     C37881   4.254   4.287   4.441  0.0604  0.2573  0.6392
 1022MOL0     O37882   3.842   4.197   4.320 -0.0033 -0.2595  0.2383
 1022MOL0     C37883   3.814   4.440   4.575  0.1812 -0.2212  0.6549
 1022MOL0     C37884   3.721   4.528   4.620 -0.0147  0.7582 -0.2348
 1022MOL0     N37885   2.871   4.456   4.648  0.9980  0.6363 -0.2864
 1022MOL0     N37886   2.752   4.451   4.690 -0.0049 -0.3657  0.0426
 1022MOL0     C37887   1.807   4.801   4.599  0.8855  0.2547  0.3588
 1022MOL0     C37888   1.727   4.725   4.518 -0.2533  0.3025  1.0370
 1022MOL0     C37889   1.599   4.460   4.158 -0.1802  0.1110 -0.0248
 1022MOL0     C37890   1.475   4.524   4.146 -0.8912 -0.0585 -0.1609
 1022MOL0     C37891   1.373   4.479   4.061 -1.0532 -0.3154  0.1713
 1022MOL0     C37892   1.394   4.366   3.981  0.3153 -0.5153  0.5208
 1022MOL0     O37893   1.283   4.321   3.904  0.3232  0.4769  0.2270
 1022MOL0     C37894   1.280   4.211   3.814 -1.6065  0.4035  0.7086
 1022MOL0     C37895   1.266   4.084   3.886 -0.1008 -0.1699 -0.3078
 1022MOL0     C37896   1.285   3.965   3.787  1.6952 -0.3287 -0.9465
 1022MOL0     C37897   1.142   3.900   3.779 -0.5607 -0.7197 -0.2333
 1022MOL0     C37898   1.045   3.955   3.681  0.1196 -0.7639  0.3861
 1022MOL0     C37899   0.962   4.000   3.599 -0.3638  0.2570 -0.6036
 1022MOL0     C37900   1.521   4.305   3.982 -0.2389  0.2513 -0.4907
 1022MOL0     C37901   1.617   4.343   4.082  0.9333 -1.4177  0.7991
 1022MOL0     C37902   1.745   4.253   4.082  0.3785 -0.1327  0.1434
 1022MOL0     H37903   1.895   4.750   4.230  0.5415 -0.6170  0.3223
 1022MOL0     H37904   2.024   4.919   4.365  0.6731 -0.1219 -0.4697
 1022MOL0     H37905   1.857   5.016   4.763  0.1200  0.1490 -1.6906
 1022MOL0     H37906   1.974   4.879   4.786 -0.2044  0.3543  2.2836
 1022MOL0     H37907   2.041   5.094   4.922 -1.8078  0.8229  0.6044
 1022MOL0     H37908   2.056   5.177   4.767 -0.5764 -1.0236 -0.7100
 1022MOL0     H37909   2.264   5.115   4.854 -0.7178  0.1062  0.3272
 1022MOL0     H37910   2.235   5.020   4.704 -0.3243 -2.7741  0.9612
 1022MOL0     H37911   2.213   4.903   4.978 -0.6543 -0.0201 -0.2990
 1022MOL0     H37912   2.164   4.830   4.833  0.8893 -0.2117  0.3507
 1022MOL0     H37913   2.453   4.950   4.876  0.1331 -0.6163  0.3773
 1022MOL0     H37914   2.409   4.792   4.929 -3.3493 -1.2824  0.1950
 1022MOL0     H37915   2.355   4.726   4.690  0.5496 -0.8905  0.5666
 1022MOL0     H37916   2.395   4.882   4.636  2.1200 -0.8127 -1.2955
 1022MOL0     H37917   2.638   4.835   4.767  2.8590 -1.9021 -0.7242
 1022MOL0     H37918   2.597   4.788   4.604 -2.2953  2.2675  0.4031
 1022MOL0     H37919   2.573   4.646   4.873  1.5490  2.2309 -0.1922
 1022MOL0     H37920   2.524   4.552   4.729  1.0883 -1.3395  0.2629
 1022MOL0     H37921   2.858   4.755   4.763  1.2314  0.5626 -0.0306
 1022MOL0     H37922   3.119   4.559   4.559  2.0484  0.2923  1.2996
 1022MOL0     H37923   3.079   4.718   4.592  3.7915 -1.0474  0.5975
 1022MOL0     H37924   3.092   4.685   4.843 -1.7030 -0.5931 -0.7572
 1022MOL0     H37925   3.140   4.515   4.814 -0.6355  1.5280  2.8030
 1022MOL0     H37926   3.334   4.648   4.857 -0.5063  1.0298  0.8450
 1022MOL0     H37927   3.275   4.772   4.747  1.9262 -0.3251 -0.4575
 1022MOL0     H37928   3.341   4.612   4.552  0.2493  1.8248  0.9860
 1022MOL0     H37929   3.341   4.479   4.669  0.2816 -0.3707 -0.5791
 1022MOL0     H37930   3.448   4.409   4.449  0.3337 -2.1539 -1.8982
 1022MOL0     H37931   3.606   4.273   4.353 -3.0190 -1.4609  1.9962
 1022MOL0     H37932   4.033   4.093   4.266 -0.4767  0.0881  1.2018
 1022MOL0     H37933   4.233   3.974   4.222 -2.9309 -0.2709  0.5389
 1022MOL0     H37934   4.414   3.915   4.138 -1.8764  1.2159  0.9246
 1022MOL0     H37935   4.495   4.062   4.080 -0.3726  1.6743  2.0191
 1022MOL0     H37936   4.702   3.999   4.187  0.1117  0.6753  2.9586
 1022MOL0     H37937   4.649   3.853   4.256  3.3029  3.2973  0.6445
 1022MOL0     H37938   4.636   3.742   4.067 -0.5841 -0.9625 -2.7060
 1022MOL0     H37939   4.610   3.881   3.951  0.0761 -0.2066 -0.1340
 1022MOL0     H37940   4.862   3.802   4.103  0.0621  0.7068 -0.0227
 1022MOL0     H37941   4.854   3.935   3.995  0.1206  1.0231  0.9932
 1022MOL0     H37942   4.782   3.710   3.840 -4.1675 -0.6613  3.1459
 1022MOL0     H37943   4.840   3.629   3.977 -2.0124  0.1427 -1.0728
 1022MOL0     H37944   4.979   3.820   3.784  2.6694 -1.8472 -1.4651
 1022MOL0     H37945   5.052   3.813   3.946 -3.5443  0.7117  2.7242
 1022MOL0     H37946   4.974   3.573   3.762 -0.3785  0.8862 -0.6771
 1022MOL0     H37947   5.076   3.556   3.907 -0.3929 -0.3354 -0.2519
 1022MOL0     H37948   5.245   3.682   3.821 -0.7872 -1.5823  1.2462
 1022MOL0     H37949   5.222   3.548   3.705 -0.9063  0.0823 -2.0607
 1022MOL0     H37950   4.457   4.263   4.454  0.1295 -0.0432  1.1676
 1022MOL0     H37951   4.266   4.376   4.502  0.4514  0.7595 -0.1599
 1022MOL0     H37952   3.911   4.447   4.625  0.8555 -0.1203 -0.6355
 1022MOL0     H37953   3.749   4.593   4.702  0.4136  0.4950 -0.1662
 1022MOL0     H37954   1.776   4.811   4.703  1.5362 -0.5899  0.6474
 1022MOL0     H37955   1.639   4.679   4.561  0.3914 -0.6954  1.3497
 1022MOL0     H37956   1.470   4.624   4.188 -1.7341  0.7900 -2.1401
 1022MOL0     H37957   1.284   4.539   4.045  0.6868  2.9576  1.7173
 1022MOL0     H37958   1.372   4.209   3.755 -1.0696  3.4992  1.2436
 1022MOL0     H37959   1.195   4.234   3.749  1.6421 -0.1370 -4.3297
 1022MOL0     H37960   1.172   4.093   3.941 -1.3283 -0.4065 -2.2679
 1022MOL0     H37961   1.345   4.063   3.958 -1.8914 -3.7845  0.8505
 1022MOL0     H37962   1.350   3.895   3.840  3.3552  0.2311 -2.1694
 1022MOL0     H37963   1.338   3.986   3.694  0.6393  1.0674 -1.2593
 1022MOL0     H37964   1.177   3.800   3.749 -1.1882 -1.4709  1.3801
 1022MOL0     H37965   1.103   3.895   3.882  0.1457  2.7560  0.3231
 1022MOL0     H37966   0.881   4.025   3.533 -0.0118  1.3821 -0.6303
 1022MOL0     H37967   1.535   4.213   3.926  1.4293  1.2117 -1.7442
 1022MOL0     H37968   1.818   4.321   4.039  0.8797 -0.1878  0.8877
 1022MOL0     H37969   1.783   4.229   4.182 -1.1940  0.0705  0.8161
 1022MOL0     H37970   1.736   4.157   4.029  0.6024 -0.7175  1.1279
 1023MOL0     O37971   2.870   1.777   3.990  0.6490 -0.4595 -0.2027
 1023MOL0     C37972   2.835   1.796   4.104 -0.6055  0.0124 -0.2824
 1023MOL0     O37973   2.922   1.798   4.204 -0.1571  0.5433  0.4885
 1023MOL0     C37974   3.057   1.775   4.186 -0.1669  0.2273  0.2813
 1023MOL0     C37975   3.114   1.695   4.093  1.2759 -0.3095  0.0480
 1023MOL0     C37976   3.255   1.680   4.100 -1.0037 -0.2402 -0.7004
 1023MOL0     C37977   3.337   1.748   4.199  0.0592 -0.3315  0.1058
 1023MOL0     O37978   3.472   1.727   4.219  0.3199 -1.0714 -0.3524
 1023MOL0     C37979   3.550   1.660   4.126  0.0243  0.5543 -0.4194
 1023MOL0     C37980   3.696   1.708   4.154  0.1573  0.1542  0.1826
 1023MOL0     C37981   3.793   1.597   4.182 -0.2146  0.4200 -0.0401
 1023MOL0     C37982   3.927   1.636   4.240  0.4467  0.7812 -0.2081
 1023MOL0     C37983   3.907   1.671   4.391 -0.0170  0.1041  0.1760
 1023MOL0     C37984   3.986   1.787   4.456  0.1623 -0.1619  0.2848
 1023MOL0     C37985   3.953   1.820   4.609 -0.3491 -0.0575 -0.0088
 1023MOL0     C37986   4.009   1.724   4.707 -0.5095 -0.8660  0.4724
 1023MOL0     N37987   4.157   1.723   4.712 -0.6876  0.0820  0.8233
 1023MOL0     C37988   4.230   1.822   4.767  0.2034 -0.3682 -0.7024
 1023MOL0     C37989   4.357   1.778   4.768  0.5694 -0.4777 -0.0418
 1023MOL0     C37990   4.482   1.848   4.825  0.8642  1.2469 -1.1057
 1023MOL0     C37991   4.593   1.751   4.865  0.0391 -0.3830 -0.0453
 1023MOL0     C37992   4.661   1.694   4.741  0.3227 -0.8114 -0.0839
 1023MOL0     C37993   4.766   1.587   4.779 -0.4412  0.1375 -0.0106
 1023MOL0     O37994   4.823   1.536   4.660 -0.2254  0.1792  0.3575
 1023MOL0     C37995   4.961   1.512   4.672  0.5416 -0.6995 -0.1090
 1023MOL0     C37996   5.042   1.553   4.568  0.2053  0.3252 -0.8204
 1023MOL0     C37997   5.181   1.538   4.583 -0.1752  0.4490  0.7140
 1023MOL0     C37998   5.241   1.490   4.693  0.4177 -0.6096 -0.6979
 1023MOL0     C37999   5.391   1.475   4.686  0.1943 -0.5400 -0.0903
 1023MOL0     O38000   5.446   1.404   4.793 -0.5899  0.1154 -0.0587
 1023MOL0     C38001   5.584   1.390   4.776  0.0417  0.3861 -0.0416
 1023MOL0     C38002   5.671   1.444   4.865  0.0628  0.4178  0.6177
 1023MOL0     C38003   5.806   1.416   4.846 -0.3322  0.1261 -0.3145
 1023MOL0     C38004   5.853   1.335   4.747 -0.2165  0.2741  0.1355
 1023MOL0     O38005   5.988   1.306   4.761 -0.3340 -0.0249 -0.3384
 1023MOL0     C38006   6.064   1.232   4.672 -0.1023  0.5050  0.9713
 1023MOL0     C38007   6.191   1.165   4.733  0.3008 -0.3402  0.0058
 1023MOL0     C38008   6.279   1.274   4.788 -0.0644 -0.2381 -0.4519
 1023MOL0     C38009   6.417   1.221   4.840  0.2404 -0.3734  0.2817
 1023MOL0     C38010   6.512   1.327   4.858 -0.0822  0.1823  0.0463
 1023MOL0     C38011   6.633   1.283   4.941  0.6483  0.0611 -1.1889
 1023MOL0     C38012   6.730   1.195   4.856  0.6993 -0.0135 -0.3869
 1023MOL0     C38013   6.875   1.217   4.887 -0.0017 -0.0825  0.2584
 1023MOL0    Cl38014   6.931   1.369   4.804 -0.2073  0.2239  0.5422
 1023MOL0     C38015   5.767   1.296   4.648  0.2775 -0.7430  0.7554
 1023MOL0     C38016   5.631   1.320   4.659  1.0206  0.4532  0.2307
 1023MOL0     O38017   5.452   1.522   4.591 -0.2598  0.3017 -0.2142
 1023MOL0     C38018   5.160   1.455   4.804 -1.0625  0.4924 -0.0031
 1023MOL0     C38019   5.018   1.464   4.793  0.3458  0.7232  0.2358
 1023MOL0     N38020   4.357   1.666   4.682 -0.3564  0.6174 -0.1416
 1023MOL0     N38021   4.236   1.626   4.664  0.5794 -0.9478 -0.3020
 1023MOL0     C38022   3.271   1.829   4.289 -0.8458  0.5575 -0.3347
 1023MOL0     C38023   3.133   1.844   4.280  0.2593 -0.0099 -0.4260
 1023MOL0     C38024   2.709   1.854   4.134  0.8237  0.0633  0.2984
 1023MOL0     C38025   2.699   1.961   4.222 -0.3277  0.3901 -0.3195
 1023MOL0     C38026   2.576   2.031   4.240 -1.3204 -0.1182 -1.1496
 1023MOL0     C38027   2.471   1.990   4.167  0.7515  0.1225  0.6355
 1023MOL0     O38028   2.350   2.057   4.173  0.5641  0.6185 -0.2287
 1023MOL0     C38029   2.302   2.056   4.309  0.8044  1.1289 -0.1067
 1023MOL0     C38030   2.163   2.111   4.319  1.0348  0.5879 -0.4375
 1023MOL0     C38031   2.055   2.051   4.219 -0.7275  0.8898  0.1274
 1023MOL0     C38032   1.952   2.153   4.190  0.8385 -0.0308 -0.0127
 1023MOL0     C38033   1.872   2.211   4.308  0.0595 -0.6873  0.7311
 1023MOL0     C38034   1.804   2.242   4.407 -0.6888 -1.5748 -0.2139
 1023MOL0     C38035   2.473   1.879   4.088  0.4433 -0.1112  0.0715
 1023MOL0     C38036   2.595   1.807   4.070  1.4680  0.4776  0.1240
 1023MOL0     C38037   2.583   1.682   3.980 -0.0809  0.2514 -0.3035
 1023MOL0     H38038   3.048   1.645   4.022 -0.1198  1.8522 -0.2477
 1023MOL0     H38039   3.298   1.616   4.024  0.9658  2.3419 -1.9554
 1023MOL0     H38040   3.541   1.552   4.140 -0.5416  0.6413 -0.0793
 1023MOL0     H38041   3.523   1.685   4.023  2.3862  0.8867 -1.0067
 1023MOL0     H38042   3.707   1.776   4.239  1.5289 -0.7645  0.7573
 1023MOL0     H38043   3.719   1.765   4.063  3.6841 -1.5472 -0.1302
 1023MOL0     H38044   3.828   1.560   4.085  3.7425 -0.5358  1.5290
 1023MOL0     H38045   3.750   1.518   4.244  3.7865  0.3380  3.0447
 1023MOL0     H38046   4.007   1.561   4.235 -1.3843 -1.2592 -0.2470
 1023MOL0     H38047   3.971   1.720   4.185  3.4440 -0.5812 -0.1052
 1023MOL0     H38048   3.801   1.697   4.406 -0.4162  1.3275 -3.6561
 1023MOL0     H38049   3.921   1.580   4.449  1.3997 -0.4206 -0.9431
 1023MOL0     H38050   4.089   1.751   4.444  0.1453 -0.4208  0.8867
 1023MOL0     H38051   3.969   1.876   4.396 -2.6577 -2.2258 -2.2708
 1023MOL0     H38052   3.846   1.816   4.635 -0.2119 -2.9689  0.4489
 1023MOL0     H38053   4.002   1.914   4.635  0.9450 -1.2203  1.9711
 1023MOL0     H38054   3.977   1.759   4.806 -2.0488  0.1284 -0.3323
 1023MOL0     H38055   3.979   1.620   4.691  1.5378 -1.3273 -0.8201
 1023MOL0     H38056   4.185   1.907   4.818 -1.6075 -2.4577  1.4043
 1023MOL0     H38057   4.516   1.917   4.748  3.5689 -0.1731 -1.3042
 1023MOL0     H38058   4.463   1.904   4.917  1.9823 -1.7158  1.1060
 1023MOL0     H38059   4.662   1.808   4.927 -1.7026  0.9227  0.8119
 1023MOL0     H38060   4.548   1.681   4.936 -2.0667  0.3254 -0.5773
 1023MOL0     H38061   4.716   1.777   4.694 -1.2840 -1.0438 -2.5356
 1023MOL0     H38062   4.597   1.660   4.659 -0.2310 -0.6838  0.2875
 1023MOL0     H38063   4.729   1.504   4.840  0.5705  0.4425  1.0453
 1023MOL0     H38064   4.836   1.640   4.842 -3.0910  1.2137  2.2216
 1023MOL0     H38065   5.000   1.593   4.476  0.3550 -2.6303 -2.2950
 1023MOL0     H38066   5.233   1.578   4.497 -0.0340  2.4965  1.7002
 1023MOL0     H38067   5.640   1.503   4.950  2.3650  0.7706  1.2936
 1023MOL0     H38068   5.879   1.455   4.916  1.9012 -0.1109 -2.4039
 1023MOL0     H38069   6.000   1.157   4.626  1.6624 -0.5109  0.0555
 1023MOL0     H38070   6.107   1.287   4.588  3.4960 -0.8944  1.6851
 1023MOL0     H38071   6.163   1.099   4.816 -2.6108 -0.7714 -1.1786
 1023MOL0     H38072   6.239   1.111   4.651  0.7170  0.3965 -0.2464
 1023MOL0     H38073   6.299   1.346   4.709  1.1191 -2.1450 -1.9817
 1023MOL0     H38074   6.221   1.318   4.869 -0.2059  0.7211 -1.0687
 1023MOL0     H38075   6.449   1.137   4.777 -0.3438  1.1119 -2.1197
 1023MOL0     H38076   6.407   1.175   4.939  2.9964  0.0985  0.8498
 1023MOL0     H38077   6.464   1.407   4.915 -1.5264 -0.7900  0.2449
 1023MOL0     H38078   6.548   1.375   4.767  2.2512  2.4630  2.0176
 1023MOL0     H38079   6.687   1.370   4.981 -0.5217  0.2889 -0.0365
 1023MOL0     H38080   6.598   1.244   5.037  0.6859  2.7034  0.0033
 1023MOL0     H38081   6.719   1.227   4.752  1.4546  0.4945 -0.3155
 1023MOL0     H38082   6.710   1.089   4.874  3.5747 -0.4145  1.0442
 1023MOL0     H38083   6.892   1.206   4.994  1.2453 -2.9809 -0.1370
 1023MOL0     H38084   6.934   1.133   4.847 -1.2953 -1.7340  1.6770
 1023MOL0     H38085   5.820   1.246   4.567 -0.8011 -0.6645 -0.0284
 1023MOL0     H38086   5.556   1.283   4.590  1.7312  0.3652 -0.4979
 1023MOL0     H38087   5.206   1.410   4.892 -0.7275 -1.2897 -1.0401
 1023MOL0     H38088   4.954   1.425   4.871 -1.9194  1.7439 -1.0326
 1023MOL0     H38089   3.332   1.862   4.372 -0.0206 -1.1717 -0.2085
 1023MOL0     H38090   3.089   1.910   4.353  1.2208 -0.0266  0.1960
 1023MOL0     H38091   2.791   1.982   4.276 -1.5006  2.6974  0.9158
 1023MOL0     H38092   2.567   2.107   4.318 -0.4645 -2.3383  1.2495
 1023MOL0     H38093   2.371   2.111   4.374  2.2354 -0.5980 -0.0778
 1023MOL0     H38094   2.294   1.953   4.344  1.6373 -1.6383 -6.6273
 1023MOL0     H38095   2.171   2.219   4.303  1.2704  0.3361 -2.3584
 1023MOL0     H38096   2.126   2.104   4.421  0.2113 -1.0856 -0.8158
 1023MOL0     H38097   2.007   1.963   4.261  2.3575 -1.2154 -0.4362
 1023MOL0     H38098   2.101   2.025   4.123  3.2558  5.3882  0.3835
 1023MOL0     H38099   2.000   2.240   4.145  1.9126  0.0904  1.2843
 1023MOL0     H38100   1.892   2.099   4.116  1.9981 -2.8000  0.9052
 1023MOL0     H38101   1.749   2.279   4.491  2.8628  1.5905  1.0459
 1023MOL0     H38102   2.385   1.836   4.042 -0.6787  1.1834  0.9200
 1023MOL0     H38103   2.486   1.632   3.995  0.0385 -0.0715 -0.5907
 1023MOL0     H38104   2.601   1.712   3.877  0.4288 -0.6219 -0.4712
 1023MOL0     H38105   2.662   1.611   4.006  1.7325  2.0425 -0.7395
 1024MOL0     O38106   1.954   6.407  10.805 -0.5700 -0.0686  0.5460
 1024MOL0     C38107   1.969   6.491  10.892 -0.0703  0.0234  0.2715
 1024MOL0     O38108   2.074   6.572  10.907 -0.0056  0.1744  0.3936
 1024MOL0     C38109   2.199   6.536  10.862  0.1586  0.0029 -1.1817
 1024MOL0     C38110   2.244   6.595  10.738 -1.1145 -0.0057  0.8237
 1024MOL0     C38111   2.370   6.557  10.680 -0.4984  0.1185 -0.3236
 1024MOL0     C38112   2.459   6.477  10.754  0.3059  0.1310  0.1275
 1024MOL0     O38113   2.579   6.455  10.692 -0.2665 -0.0067 -0.1421
 1024MOL0     C38114   2.687   6.386  10.770 -0.4186  0.4399  0.6518
 1024MOL0     C38115   2.814   6.395  10.679 -0.1795 -0.7190 -0.2681
 1024MOL0     C38116   2.937   6.335  10.741 -1.1331  0.0462 -0.3729
 1024MOL0     C38117   3.055   6.352  10.643 -0.2833 -0.6552 -1.2715
 1024MOL0     C38118   3.178   6.277  10.717 -0.1953  0.2617  0.1146
 1024MOL0     C38119   3.304   6.261  10.626  0.2023  0.2535 -0.0520
 1024MOL0     C38120   3.436   6.206  10.699 -0.0936 -0.2573  0.2290
 1024MOL0     C38121   3.546   6.157  10.599 -0.9619 -0.4536  0.5185
 1024MOL0     N38122   3.590   6.250  10.497  0.2727  0.6673 -0.4875
 1024MOL0     C38123   3.517   6.293  10.390 -0.1604  0.4464 -0.1464
 1024MOL0     C38124   3.597   6.380  10.323  0.4582  0.1907  0.8069
 1024MOL0     C38125   3.559   6.454  10.206  0.4803 -0.2540  0.1081
 1024MOL0     C38126   3.671   6.500  10.115 -0.2763  0.8527  0.0355
 1024MOL0     C38127   3.731   6.377  10.037 -0.3142 -0.3446 -0.2436
 1024MOL0     C38128   3.850   6.433   9.966  0.1687  0.1586  0.1778
 1024MOL0     O38129   3.942   6.458  10.082  0.2735  0.6754 -0.2535
 1024MOL0     C38130   4.057   6.532  10.056  0.1836  0.0586 -1.1144
 1024MOL0     C38131   4.115   6.597  10.162 -0.7397  0.3557 -0.3724
 1024MOL0     C38132   4.238   6.666  10.168  0.6263  0.1900 -0.4070
 1024MOL0     C38133   4.318   6.665  10.049  0.0496  1.1074 -0.5286
 1024MOL0     C38134   4.446   6.729  10.040 -0.3207 -0.2885 -0.9788
 1024MOL0     O38135   4.509   6.744   9.920  0.3580  0.0143  0.2052
 1024MOL0     C38136   4.628   6.813   9.917  0.8649 -0.3135  0.1249
 1024MOL0     C38137   4.717   6.776   9.821  0.1333 -0.5322 -0.5685
 1024MOL0     C38138   4.838   6.846   9.795  0.3466 -0.4226 -0.4615
 1024MOL0     C38139   4.881   6.946   9.889 -0.0221  0.6879 -0.3101
 1024MOL0     O38140   4.989   7.033   9.871  0.1454  0.0314 -0.2659
 1024MOL0     C38141   5.095   6.990   9.776 -0.2307  0.5058 -0.2960
 1024MOL0     C38142   5.233   7.054   9.793  0.8670  0.5319  0.6167
 1024MOL0     C38143   5.341   6.948   9.743  0.3712 -0.1834  0.1676
 1024MOL0     C38144   5.483   6.979   9.797 -0.0588  0.2429 -0.1934
 1024MOL0     C38145   5.551   7.061   9.691  0.0972 -0.0669 -0.2791
 1024MOL0     C38146   5.697   7.102   9.722  1.1203  0.6907  0.1103
 1024MOL0     C38147   5.700   7.188   9.849 -0.5192 -0.4366  0.5294
 1024MOL0     C38148   5.839   7.229   9.879 -0.3840 -0.5162 -0.0223
 1024MOL0    Cl38149   5.946   7.097   9.913 -0.0325 -0.5976  0.0755
 1024MOL0     C38150   4.790   6.977   9.989 -0.3931  0.0517 -0.1909
 1024MOL0     C38151   4.664   6.925   9.993 -0.5590  0.4662 -0.7256
 1024MOL0     O38152   4.504   6.746  10.145  0.4706 -0.5392  0.7015
 1024MOL0     C38153   4.259   6.604   9.931  0.1686  0.6678 -0.2042
 1024MOL0     C38154   4.134   6.535   9.940  0.3631  0.3461 -0.6819
 1024MOL0     N38155   3.715   6.384  10.389 -0.5398  1.0456 -1.0654
 1024MOL0     N38156   3.716   6.300  10.487  0.3225 -0.2276  0.3600
 1024MOL0     C38157   2.409   6.416  10.876 -0.5585  1.1215  0.6374
 1024MOL0     C38158   2.282   6.441  10.927  0.6876  0.4660  0.7348
 1024MOL0     C38159   1.856   6.520  10.984 -0.6809  0.2346  0.0120
 1024MOL0     C38160   1.779   6.412  11.016  0.4574  0.5730 -0.0428
 1024MOL0     C38161   1.654   6.420  11.077 -0.1518  0.1079 -0.0964
 1024MOL0     C38162   1.610   6.543  11.128  0.6702 -0.9087 -0.4151
 1024MOL0     O38163   1.494   6.556  11.206  0.9580  0.8921 -0.3028
 1024MOL0     C38164   1.398   6.439  11.217 -0.0666 -0.4393 -0.0927
 1024MOL0     C38165   1.310   6.456  11.349  0.0666  0.5420 -0.9324
 1024MOL0     C38166   1.385   6.489  11.482  0.0813 -0.2485 -0.5307
 1024MOL0     C38167   1.419   6.640  11.493  0.6855  0.7528 -0.2834
 1024MOL0     C38168   1.485   6.675  11.613 -0.4866  1.1594  0.1139
 1024MOL0     C38169   1.539   6.682  11.723  0.4024 -0.0983 -0.9675
 1024MOL0     C38170   1.703   6.653  11.113  0.2331  0.6620  0.9247
 1024MOL0     C38171   1.824   6.644  11.039  0.3152 -0.3729 -0.0311
 1024MOL0     C38172   1.907   6.777  11.025 -0.2762 -0.9948  0.3636
 1024MOL0     H38173   2.183   6.668  10.687 -1.8497 -1.6369 -0.7336
 1024MOL0     H38174   2.405   6.607  10.591  3.6811  0.1426  1.0918
 1024MOL0     H38175   2.703   6.432  10.868 -1.7420 -0.8347  1.4997
 1024MOL0     H38176   2.654   6.285  10.794 -2.8466  1.5598  2.5621
 1024MOL0     H38177   2.849   6.499  10.670  0.0540 -0.7856 -0.1287
 1024MOL0     H38178   2.794   6.359  10.578 -2.0425  2.3713 -1.1459
 1024MOL0     H38179   2.917   6.231  10.768  2.3496 -0.6868 -0.2644
 1024MOL0     H38180   2.946   6.385  10.837 -2.9586 -0.6808  0.2311
 1024MOL0     H38181   3.020   6.304  10.551 -0.3611 -1.7561 -0.6905
 1024MOL0     H38182   3.080   6.456  10.621 -0.9516 -0.2280 -0.1309
 1024MOL0     H38183   3.204   6.324  10.813  0.2639 -3.1045  1.7694
 1024MOL0     H38184   3.161   6.172  10.742 -0.6182  0.2243 -0.3144
 1024MOL0     H38185   3.290   6.181  10.553  1.7191 -1.3784  1.3779
 1024MOL0     H38186   3.328   6.358  10.579  0.8222  0.3339  0.4198
 1024MOL0     H38187   3.405   6.125  10.766 -2.1720  1.6906  1.7914
 1024MOL0     H38188   3.490   6.273  10.767  0.3857 -0.9420  0.5238
 1024MOL0     H38189   3.636   6.139  10.659 -0.0188  0.5965 -0.5475
 1024MOL0     H38190   3.513   6.065  10.551 -1.8946 -0.1675  0.5827
 1024MOL0     H38191   3.414   6.270  10.366  0.0589  1.6389 -2.5144
 1024MOL0     H38192   3.485   6.395  10.150  2.3570 -1.3953 -1.2901
 1024MOL0     H38193   3.506   6.545  10.236 -0.9532 -0.6753 -1.0391
 1024MOL0     H38194   3.640   6.584  10.052 -1.0725  0.4393 -0.1338
 1024MOL0     H38195   3.749   6.531  10.185 -3.1449  0.2843  3.7606
 1024MOL0     H38196   3.651   6.341   9.971 -1.7123  3.1577 -0.6748
 1024MOL0     H38197   3.766   6.303  10.109  2.8843  2.2213  1.0901
 1024MOL0     H38198   3.826   6.532   9.925 -1.0842 -0.2266 -0.0422
 1024MOL0     H38199   3.893   6.374   9.886  1.3088  1.8207 -0.4965
 1024MOL0     H38200   4.063   6.597  10.257 -0.6394 -0.7963 -0.3048
 1024MOL0     H38201   4.273   6.707  10.263 -3.2878  0.1949  1.1965
 1024MOL0     H38202   4.696   6.714   9.734 -0.6070 -0.6333 -0.3195
 1024MOL0     H38203   4.888   6.816   9.704 -2.8397 -1.5827 -2.0030
 1024MOL0     H38204   5.104   6.881   9.776 -1.0939  0.4283 -0.1066
 1024MOL0     H38205   5.060   7.017   9.676 -0.1606 -1.3677 -0.8456
 1024MOL0     H38206   5.240   7.144   9.732  0.5220 -1.1928 -2.1783
 1024MOL0     H38207   5.244   7.077   9.899 -1.3890  1.0579  0.7964
 1024MOL0     H38208   5.305   6.850   9.775  1.9428 -0.5539  0.9044
 1024MOL0     H38209   5.339   6.955   9.634 -0.8005  1.8088  0.2799
 1024MOL0     H38210   5.542   6.888   9.812 -1.1941 -0.7324 -1.3623
 1024MOL0     H38211   5.473   7.030   9.893 -1.0325  1.3845 -0.8725
 1024MOL0     H38212   5.490   7.149   9.669  2.1749  1.4039 -0.5248
 1024MOL0     H38213   5.559   6.994   9.604  2.2382 -4.7080  3.0751
 1024MOL0     H38214   5.767   7.019   9.734  0.7530  0.2708 -0.5860
 1024MOL0     H38215   5.716   7.164   9.634 -3.0546 -0.6923 -2.0313
 1024MOL0     H38216   5.655   7.140   9.936  1.0643  1.2323  2.3514
 1024MOL0     H38217   5.648   7.283   9.830  0.8318  1.1973  4.1552
 1024MOL0     H38218   5.882   7.286   9.797 -0.0128 -1.2531 -0.3539
 1024MOL0     H38219   5.827   7.281   9.974 -2.8112 -1.2349  0.1383
 1024MOL0     H38220   4.816   7.060  10.053  1.0893 -2.8454  3.3180
 1024MOL0     H38221   4.593   6.973  10.058  0.3755 -1.1802  1.6487
 1024MOL0     H38222   4.320   6.585   9.843 -0.1525 -3.5684  0.2397
 1024MOL0     H38223   4.109   6.470   9.856  2.4335 -2.3065  0.6138
 1024MOL0     H38224   2.462   6.338  10.929 -0.5383 -0.0549 -1.0293
 1024MOL0     H38225   2.247   6.381  11.011 -0.9054  0.3269  0.0098
 1024MOL0     H38226   1.800   6.315  10.972  3.7361  1.4607 -0.7335
 1024MOL0     H38227   1.593   6.331  11.086 -0.0078 -0.3736 -2.9592
 1024MOL0     H38228   1.453   6.345  11.222  0.8235 -0.2888 -4.0643
 1024MOL0     H38229   1.336   6.434  11.128 -0.2007 -1.1478  0.0312
 1024MOL0     H38230   1.260   6.359  11.359  1.8937 -0.6052 -2.1612
 1024MOL0     H38231   1.233   6.531  11.333 -1.7351 -0.6164  1.6494
 1024MOL0     H38232   1.477   6.429  11.478 -1.2056 -2.4719  0.7886
 1024MOL0     H38233   1.342   6.464  11.579  2.6288  0.2039  0.8254
 1024MOL0     H38234   1.468   6.671  11.400 -0.1345 -0.7022 -1.2536
 1024MOL0     H38235   1.328   6.700  11.494  1.1755  1.5906  2.5134
 1024MOL0     H38236   1.592   6.690  11.816  1.7145 -0.5359 -1.6520
 1024MOL0     H38237   1.684   6.746  11.166 -0.5961  1.2316 -0.3067
 1024MOL0     H38238   2.001   6.756  11.077  0.9685 -4.2781 -2.7565
 1024MOL0     H38239   1.931   6.804  10.921  1.6361  2.8743  1.6143
 1024MOL0     H38240   1.841   6.858  11.057  0.6386  0.0185 -0.2182
  11.37668  11.37668  11.37668
